                         Program Version 4.2.1 -  RELEASE  -
|  1> ! wB97X-D3 SP def2-SVP
|  2> %pal
|  3> nprocs 24
|  4> end
|  5>
|  6> * xyz 0 1
|  7> S 	 -56.4638 	 14.6796 	 -97.1896
|  8> C 	 -57.4936 	 15.9745 	 -97.6214
|  9> C 	 -58.7688 	 15.5566 	 -98.0785
| 10> C 	 -58.8559 	 14.126 	 -98.0009
| 11> C 	 -57.6962 	 13.4679 	 -97.5251
| 12> H 	 -59.7238 	 13.5302 	 -98.336
| 13> C 	 -59.8242 	 16.5189 	 -98.5653
| 14> H 	 -60.1171 	 16.2589 	 -99.5956
| 15> H 	 -59.3586 	 17.4955 	 -98.7049
| 16> C 	 -61.0623 	 16.8055 	 -97.6498
| 17> H 	 -61.6164 	 15.8524 	 -97.8265
| 18> H 	 -60.6939 	 16.9514 	 -96.56
| 19> C 	 -61.9992 	 17.9042 	 -98.1667
| 20> H 	 -62.8676 	 18.1054 	 -97.5588
| 21> H 	 -61.4075 	 18.8357 	 -98.3298
| 22> H 	 -62.4986 	 17.6625 	 -99.1227
| 23> S 	 -57.2288 	 11.8683 	 -95.4779
| 24> C 	 -57.3602 	 10.0781 	 -95.7055
| 25> C 	 -57.7064 	 9.76314 	 -96.9904
| 26> C 	 -57.8398 	 10.9187 	 -97.8143
| 27> C 	 -57.5425 	 12.1166 	 -97.0974
| 28> H 	 -57.8741 	 8.80875 	 -97.3321
| 29> C 	 -58.0046 	 10.8436 	 -99.3235
| 30> H 	 -57.2669 	 10.1518 	 -99.7271
| 31> H 	 -57.6859 	 11.8216 	 -99.7203
| 32> C 	 -59.4306 	 10.488 	 -99.9157
| 33> H 	 -60.1823 	 11.251 	 -99.6032
| 34> H 	 -59.7508 	 9.52127 	 -99.6219
| 35> C 	 -59.3211 	 10.6873 	 -101.434
| 36> H 	 -58.615 	 11.4222 	 -101.798
| 37> H 	 -60.2517 	 10.9483 	 -101.867
| 38> H 	 -58.8189 	 9.7675 	 -101.817
| 39> H 	 -57.3089 	 17.0283 	 -97.4451
| 40> H 	 -57.2715 	 9.37574 	 -94.9321
| 41> *
| 42>
| 43>                          ****END OF INPUT****

CARTESIAN COORDINATES (ANGSTROEM)
---------------------------------
  S    -56.463800   14.679600  -97.189600
  C    -57.493600   15.974500  -97.621400
  C    -58.768800   15.556600  -98.078500
  C    -58.855900   14.126000  -98.000900
  C    -57.696200   13.467900  -97.525100
  H    -59.723800   13.530200  -98.336000
  C    -59.824200   16.518900  -98.565300
  H    -60.117100   16.258900  -99.595600
  H    -59.358600   17.495500  -98.704900
  C    -61.062300   16.805500  -97.649800
  H    -61.616400   15.852400  -97.826500
  H    -60.693900   16.951400  -96.560000
  C    -61.999200   17.904200  -98.166700
  H    -62.867600   18.105400  -97.558800
  H    -61.407500   18.835700  -98.329800
  H    -62.498600   17.662500  -99.122700
  S    -57.228800   11.868300  -95.477900
  C    -57.360200   10.078100  -95.705500
  C    -57.706400    9.763140  -96.990400
  C    -57.839800   10.918700  -97.814300
  C    -57.542500   12.116600  -97.097400
  H    -57.874100    8.808750  -97.332100
  C    -58.004600   10.843600  -99.323500
  H    -57.266900   10.151800  -99.727100
  H    -57.685900   11.821600  -99.720300
  C    -59.430600   10.488000  -99.915700
  H    -60.182300   11.251000  -99.603200
  H    -59.750800    9.521270  -99.621900
  C    -59.321100   10.687300  -101.434000
  H    -58.615000   11.422200  -101.798000
  H    -60.251700   10.948300  -101.867000
  H    -58.818900    9.767500  -101.817000
  H    -57.308900   17.028300  -97.445100
  H    -57.271500    9.375740  -94.932100

 Total Charge           Charge          ....    0
 Multiplicity           Mult            ....    1
 Number of Electrons    NEL             ....  134
 Basis Dimension        Dim             ....  322

ORBITAL ENERGIES
----------------

  NO   OCC          E(Eh)            E(eV)
   0   2.0000     -88.968834     -2420.9651
   1   2.0000     -88.966811     -2420.9100
   2   2.0000     -10.328817      -281.0614
   3   2.0000     -10.320779      -280.8427
   4   2.0000     -10.315046      -280.6867
   5   2.0000     -10.314317      -280.6668
   6   2.0000     -10.305210      -280.4190
   7   2.0000     -10.300759      -280.2979
   8   2.0000     -10.300498      -280.2908
   9   2.0000     -10.299533      -280.2645
  10   2.0000     -10.295362      -280.1510
  11   2.0000     -10.291947      -280.0581
  12   2.0000     -10.290146      -280.0091
  13   2.0000     -10.288513      -279.9647
  14   2.0000     -10.284600      -279.8582
  15   2.0000     -10.274847      -279.5928
  16   2.0000      -8.083840      -219.9725
  17   2.0000      -8.082206      -219.9280
  18   2.0000      -6.042242      -164.4178
  19   2.0000      -6.040576      -164.3724
  20   2.0000      -6.038120      -164.3056
  21   2.0000      -6.036632      -164.2651
  22   2.0000      -6.034883      -164.2175
  23   2.0000      -6.033024      -164.1669
  24   2.0000      -1.009304       -27.4645
  25   2.0000      -0.981835       -26.7171
  26   2.0000      -0.907934       -24.7061
  27   2.0000      -0.902993       -24.5717
  28   2.0000      -0.875412       -23.8212
  29   2.0000      -0.850251       -23.1365
  30   2.0000      -0.847912       -23.0729
  31   2.0000      -0.814611       -22.1667
  32   2.0000      -0.779885       -21.2218
  33   2.0000      -0.762072       -20.7370
  34   2.0000      -0.707990       -19.2654
  35   2.0000      -0.700332       -19.0570
  36   2.0000      -0.691442       -18.8151
  37   2.0000      -0.668193       -18.1825
  38   2.0000      -0.639025       -17.3888
  39   2.0000      -0.617097       -16.7920
  40   2.0000      -0.595923       -16.2159
  41   2.0000      -0.570223       -15.5166
  42   2.0000      -0.566413       -15.4129
  43   2.0000      -0.559119       -15.2144
  44   2.0000      -0.529605       -14.4113
  45   2.0000      -0.521538       -14.1918
  46   2.0000      -0.516839       -14.0639
  47   2.0000      -0.507466       -13.8088
  48   2.0000      -0.505411       -13.7529
  49   2.0000      -0.497456       -13.5365
  50   2.0000      -0.493175       -13.4200
  51   2.0000      -0.478748       -13.0274
  52   2.0000      -0.475950       -12.9513
  53   2.0000      -0.463604       -12.6153
  54   2.0000      -0.456400       -12.4193
  55   2.0000      -0.452180       -12.3045
  56   2.0000      -0.442489       -12.0408
  57   2.0000      -0.441102       -12.0030
  58   2.0000      -0.430281       -11.7085
  59   2.0000      -0.428288       -11.6543
  60   2.0000      -0.427052       -11.6207
  61   2.0000      -0.408548       -11.1172
  62   2.0000      -0.404618       -11.0102
  63   2.0000      -0.351311        -9.5596
  64   2.0000      -0.331070        -9.0089
  65   2.0000      -0.323430        -8.8010
  66   2.0000      -0.287195        -7.8150
  67   0.0000       0.028401         0.7728
  68   0.0000       0.068856         1.8737
  69   0.0000       0.112488         3.0609
  70   0.0000       0.117206         3.1893
  71   0.0000       0.124378         3.3845

MULLIKEN ATOMIC CHARGES
-----------------------
   0 S :    0.124214
   1 C :   -0.108511
   2 C :   -0.101007
   3 C :    0.049706
   4 C :   -0.194675
   5 H :    0.018130
   6 C :    0.043368
   7 H :    0.033015
   8 H :    0.003249
   9 C :   -0.095825
  10 H :    0.035151
  11 H :    0.059313
  12 C :   -0.052507
  13 H :    0.038957
  14 H :    0.034083
  15 H :    0.028021
  16 S :    0.119637
  17 C :   -0.078202
  18 C :    0.024741
  19 C :   -0.013550
  20 C :   -0.143299
  21 H :   -0.015477
  22 C :   -0.002003
  23 H :    0.030280
  24 H :    0.027083
  25 C :   -0.054953
  26 H :    0.031629
  27 H :    0.028695
  28 C :   -0.036637
  29 H :    0.023364
  30 H :    0.031320
  31 H :    0.026271
  32 H :    0.050825
  33 H :    0.035596
Sum of atomic charges:    0.0000000

LOEWDIN ATOMIC CHARGES
----------------------
   0 S :    0.426451
   1 C :   -0.210528
   2 C :   -0.066670
   3 C :   -0.056912
   4 C :   -0.205373
   5 H :    0.033427
   6 C :   -0.039962
   7 H :    0.033057
   8 H :    0.023717
   9 C :   -0.049148
  10 H :    0.028215
  11 H :    0.038489
  12 C :   -0.074305
  13 H :    0.027752
  14 H :    0.026320
  15 H :    0.028932
  16 S :    0.429582
  17 C :   -0.162218
  18 C :   -0.050830
  19 C :   -0.058312
  20 C :   -0.232224
  21 H :    0.019405
  22 C :   -0.034523
  23 H :    0.030095
  24 H :    0.031745
  25 C :   -0.031856
  26 H :    0.024968
  27 H :    0.016806
  28 C :   -0.067006
  29 H :    0.025272
  30 H :    0.019668
  31 H :    0.030311
  32 H :    0.028858
  33 H :    0.016794

  Mayer bond orders larger than 0.100000
B(  0-S ,  1-C ) :   1.1701 B(  0-S ,  4-C ) :   1.1546 B(  1-C ,  2-C ) :   1.5698
B(  1-C ,  4-C ) :   0.1012 B(  1-C , 32-H ) :   0.9615 B(  2-C ,  3-C ) :   1.2789
B(  2-C ,  6-C ) :   1.0358 B(  3-C ,  4-C ) :   1.5355 B(  3-C ,  5-H ) :   0.9870
B(  4-C , 20-C ) :   1.0458 B(  6-C ,  7-H ) :   0.9396 B(  6-C ,  8-H ) :   0.9384
B(  6-C ,  9-C ) :   1.0414 B(  9-C , 10-H ) :   0.9573 B(  9-C , 11-H ) :   0.9564
B(  9-C , 12-C ) :   1.0795 B( 12-C , 13-H ) :   0.9737 B( 12-C , 14-H ) :   0.9748
B( 12-C , 15-H ) :   0.9715 B( 16-S , 17-C ) :   1.1404 B( 16-S , 20-C ) :   1.1778
B( 17-C , 18-C ) :   1.5909 B( 17-C , 33-H ) :   0.9772 B( 18-C , 19-C ) :   1.2617
B( 18-C , 21-H ) :   1.0029 B( 19-C , 20-C ) :   1.5402 B( 19-C , 22-C ) :   1.0399
B( 22-C , 23-H ) :   0.9465 B( 22-C , 24-H ) :   0.9397 B( 22-C , 25-C ) :   1.0506
B( 25-C , 26-H ) :   0.9600 B( 25-C , 27-H ) :   0.9604 B( 25-C , 28-C ) :   1.0707
B( 28-C , 29-H ) :   0.9738 B( 28-C , 30-H ) :   0.9777 B( 28-C , 31-H ) :   0.9735

Dispersion correction           -0.013688587
FINAL SINGLE POINT ENERGY     -1339.868249607902

DIPOLE MOMENT
-------------
                                X             Y             Z
Electronic contribution:     21.24526      -5.61306      19.23473
Nuclear contribution   :    -21.74747       5.57167     -19.59048
                        -----------------------------------------
Total Dipole Moment    :     -0.50222      -0.04139      -0.35575
                        -----------------------------------------
Magnitude (a.u.)       :      0.61684
Magnitude (Debye)      :      1.56788

Rotational constants in cm-1:     0.016826     0.008290     0.006534
Rotational constants in MHz :   504.416475   248.534617   195.887415

                             ****ORCA TERMINATED NORMALLY****
TOTAL RUN TIME: 0 days 0 hours 0 minutes 22 seconds 381 msec
