                         Program Version 4.2.1 -  RELEASE  -
|  1> ! wB97X-D3 SP def2-SVP
|  2> %pal
|  3> nprocs 24
|  4> end
|  5>
|  6> * xyz 0 1
|  7> S 	 -90.0016 	 -2.15347 	 8.19983
|  8> C 	 -89.3693 	 -1.19935 	 6.88831
|  9> C 	 -88.0139 	 -1.30325 	 6.76298
| 10> C 	 -87.4337 	 -2.06234 	 7.82697
| 11> C 	 -88.3639 	 -2.57506 	 8.71673
| 12> H 	 -86.3323 	 -2.16919 	 7.91302
| 13> C 	 -87.1513 	 -0.875739 	 5.62583
| 14> H 	 -87.6219 	 -1.11057 	 4.63559
| 15> H 	 -86.2615 	 -1.53298 	 5.46251
| 16> C 	 -86.8098 	 0.667947 	 5.55515
| 17> H 	 -86.236 	 0.782466 	 4.64454
| 18> H 	 -87.6962 	 1.27627 	 5.41434
| 19> C 	 -86.0275 	 1.12305 	 6.80668
| 20> H 	 -85.6846 	 2.11978 	 6.66152
| 21> H 	 -86.515 	 0.986077 	 7.77499
| 22> H 	 -85.1897 	 0.504274 	 6.89578
| 23> S 	 -89.265 	 -4.68842 	 10.1326
| 24> C 	 -88.4636 	 -5.30809 	 11.5682
| 25> C 	 -87.2593 	 -4.57974 	 11.7176
| 26> C 	 -87.1235 	 -3.47987 	 10.8065
| 27> C 	 -88.0977 	 -3.38622 	 9.89843
| 28> H 	 -86.5815 	 -4.70486 	 12.5444
| 29> C 	 -86.0089 	 -2.4595 	 11.164
| 30> H 	 -85.9997 	 -2.2587 	 12.2294
| 31> H 	 -86.3974 	 -1.52689 	 10.7158
| 32> C 	 -84.5891 	 -2.64034 	 10.6766
| 33> H 	 -84.5094 	 -2.58332 	 9.64661
| 34> H 	 -84.2898 	 -3.64057 	 10.8501
| 35> C 	 -83.6828 	 -1.71777 	 11.5058
| 36> H 	 -83.8936 	 -1.95911 	 12.5279
| 37> H 	 -83.9376 	 -0.66474 	 11.4158
| 38> H 	 -82.579 	 -1.92227 	 11.2874
| 39> H 	 -90.0573 	 -0.605325 	 6.28263
| 40> H 	 -88.7432 	 -6.17472 	 12.1949
| 41> *
| 42>
| 43>                          ****END OF INPUT****

CARTESIAN COORDINATES (ANGSTROEM)
---------------------------------
  S    -90.001600   -2.153470    8.199830
  C    -89.369300   -1.199350    6.888310
  C    -88.013900   -1.303250    6.762980
  C    -87.433700   -2.062340    7.826970
  C    -88.363900   -2.575060    8.716730
  H    -86.332300   -2.169190    7.913020
  C    -87.151300   -0.875739    5.625830
  H    -87.621900   -1.110570    4.635590
  H    -86.261500   -1.532980    5.462510
  C    -86.809800    0.667947    5.555150
  H    -86.236000    0.782466    4.644540
  H    -87.696200    1.276270    5.414340
  C    -86.027500    1.123050    6.806680
  H    -85.684600    2.119780    6.661520
  H    -86.515000    0.986077    7.774990
  H    -85.189700    0.504274    6.895780
  S    -89.265000   -4.688420   10.132600
  C    -88.463600   -5.308090   11.568200
  C    -87.259300   -4.579740   11.717600
  C    -87.123500   -3.479870   10.806500
  C    -88.097700   -3.386220    9.898430
  H    -86.581500   -4.704860   12.544400
  C    -86.008900   -2.459500   11.164000
  H    -85.999700   -2.258700   12.229400
  H    -86.397400   -1.526890   10.715800
  C    -84.589100   -2.640340   10.676600
  H    -84.509400   -2.583320    9.646610
  H    -84.289800   -3.640570   10.850100
  C    -83.682800   -1.717770   11.505800
  H    -83.893600   -1.959110   12.527900
  H    -83.937600   -0.664740   11.415800
  H    -82.579000   -1.922270   11.287400
  H    -90.057300   -0.605325    6.282630
  H    -88.743200   -6.174720   12.194900

 Total Charge           Charge          ....    0
 Multiplicity           Mult            ....    1
 Number of Electrons    NEL             ....  134
 Basis Dimension        Dim             ....  322

ORBITAL ENERGIES
----------------

  NO   OCC          E(Eh)            E(eV)
   0   2.0000     -88.968839     -2420.9652
   1   2.0000     -88.962160     -2420.7834
   2   2.0000     -10.333800      -281.1970
   3   2.0000     -10.326177      -280.9896
   4   2.0000     -10.324655      -280.9482
   5   2.0000     -10.315833      -280.7081
   6   2.0000     -10.299599      -280.2663
   7   2.0000     -10.298875      -280.2466
   8   2.0000     -10.298203      -280.2283
   9   2.0000     -10.297817      -280.2178
  10   2.0000     -10.294689      -280.1327
  11   2.0000     -10.290788      -280.0266
  12   2.0000     -10.290272      -280.0125
  13   2.0000     -10.283446      -279.8268
  14   2.0000     -10.277068      -279.6532
  15   2.0000     -10.269301      -279.4419
  16   2.0000      -8.083479      -219.9626
  17   2.0000      -8.076890      -219.7834
  18   2.0000      -6.042037      -164.4122
  19   2.0000      -6.038023      -164.3030
  20   2.0000      -6.035533      -164.2352
  21   2.0000      -6.034169      -164.1981
  22   2.0000      -6.031314      -164.1204
  23   2.0000      -6.027567      -164.0184
  24   2.0000      -1.008605       -27.4455
  25   2.0000      -0.985254       -26.8101
  26   2.0000      -0.913630       -24.8611
  27   2.0000      -0.907201       -24.6862
  28   2.0000      -0.868485       -23.6327
  29   2.0000      -0.854023       -23.2392
  30   2.0000      -0.845416       -23.0049
  31   2.0000      -0.811758       -22.0890
  32   2.0000      -0.779498       -21.2112
  33   2.0000      -0.772860       -21.0306
  34   2.0000      -0.711953       -19.3732
  35   2.0000      -0.708020       -19.2662
  36   2.0000      -0.696689       -18.9579
  37   2.0000      -0.671570       -18.2744
  38   2.0000      -0.640172       -17.4200
  39   2.0000      -0.617735       -16.8094
  40   2.0000      -0.594452       -16.1759
  41   2.0000      -0.570941       -15.5361
  42   2.0000      -0.568175       -15.4608
  43   2.0000      -0.545915       -14.8551
  44   2.0000      -0.537829       -14.6351
  45   2.0000      -0.524821       -14.2811
  46   2.0000      -0.513014       -13.9598
  47   2.0000      -0.509711       -13.8700
  48   2.0000      -0.509112       -13.8536
  49   2.0000      -0.500422       -13.6172
  50   2.0000      -0.495259       -13.4767
  51   2.0000      -0.475253       -12.9323
  52   2.0000      -0.472677       -12.8622
  53   2.0000      -0.471561       -12.8318
  54   2.0000      -0.457482       -12.4487
  55   2.0000      -0.450994       -12.2722
  56   2.0000      -0.446825       -12.1587
  57   2.0000      -0.439360       -11.9556
  58   2.0000      -0.435199       -11.8424
  59   2.0000      -0.426675       -11.6104
  60   2.0000      -0.418535       -11.3889
  61   2.0000      -0.414341       -11.2748
  62   2.0000      -0.407808       -11.0970
  63   2.0000      -0.356044        -9.6885
  64   2.0000      -0.332667        -9.0523
  65   2.0000      -0.329402        -8.9635
  66   2.0000      -0.289280        -7.8717
  67   0.0000       0.025108         0.6832
  68   0.0000       0.071420         1.9434
  69   0.0000       0.102791         2.7971
  70   0.0000       0.120916         3.2903
  71   0.0000       0.125207         3.4070

MULLIKEN ATOMIC CHARGES
-----------------------
   0 S :    0.111889
   1 C :   -0.130771
   2 C :   -0.030366
   3 C :   -0.002885
   4 C :   -0.124658
   5 H :    0.020835
   6 C :   -0.017335
   7 H :    0.031327
   8 H :    0.034639
   9 C :   -0.058080
  10 H :    0.025792
  11 H :    0.030593
  12 C :   -0.021776
  13 H :    0.029808
  14 H :    0.045124
  15 H :    0.002633
  16 S :    0.080230
  17 C :   -0.096806
  18 C :   -0.029320
  19 C :   -0.046570
  20 C :   -0.111725
  21 H :    0.014811
  22 C :   -0.004127
  23 H :    0.022660
  24 H :    0.022614
  25 C :    0.018878
  26 H :    0.004592
  27 H :    0.003401
  28 C :   -0.061181
  29 H :    0.020842
  30 H :    0.034252
  31 H :    0.050097
  32 H :    0.054118
  33 H :    0.076461
Sum of atomic charges:    0.0000000

LOEWDIN ATOMIC CHARGES
----------------------
   0 S :    0.403569
   1 C :   -0.188929
   2 C :   -0.071334
   3 C :   -0.061175
   4 C :   -0.189327
   5 H :    0.036349
   6 C :   -0.044296
   7 H :    0.036164
   8 H :    0.035394
   9 C :   -0.030364
  10 H :    0.023196
  11 H :    0.020804
  12 C :   -0.063229
  13 H :    0.023188
  14 H :    0.030252
  15 H :    0.015233
  16 S :    0.391183
  17 C :   -0.189145
  18 C :   -0.067282
  19 C :   -0.068969
  20 C :   -0.183494
  21 H :    0.025825
  22 C :   -0.028093
  23 H :    0.028177
  24 H :    0.031597
  25 C :   -0.034665
  26 H :    0.011017
  27 H :    0.018792
  28 C :   -0.061533
  29 H :    0.020857
  30 H :    0.024348
  31 H :    0.035594
  32 H :    0.029703
  33 H :    0.040593

  Mayer bond orders larger than 0.100000
B(  0-S ,  1-C ) :   1.1396 B(  0-S ,  4-C ) :   1.1468 B(  1-C ,  2-C ) :   1.6093
B(  1-C , 32-H ) :   0.9681 B(  2-C ,  3-C ) :   1.2461 B(  2-C ,  6-C ) :   1.0133
B(  3-C ,  4-C ) :   1.5607 B(  3-C ,  5-H ) :   0.9921 B(  4-C , 20-C ) :   1.0337
B(  6-C ,  7-H ) :   0.9425 B(  6-C ,  8-H ) :   0.9510 B(  6-C ,  9-C ) :   1.0703
B(  9-C , 10-H ) :   0.9556 B(  9-C , 11-H ) :   0.9607 B(  9-C , 12-C ) :   1.0725
B( 12-C , 13-H ) :   0.9741 B( 12-C , 14-H ) :   0.9740 B( 12-C , 15-H ) :   0.9726
B( 16-S , 17-C ) :   1.1477 B( 16-S , 20-C ) :   1.1200 B( 17-C , 18-C ) :   1.5959
B( 17-C , 33-H ) :   0.9674 B( 18-C , 19-C ) :   1.2398 B( 18-C , 21-H ) :   0.9863
B( 19-C , 20-C ) :   1.6598 B( 19-C , 22-C ) :   1.0145 B( 22-C , 23-H ) :   0.9518
B( 22-C , 24-H ) :   0.9354 B( 22-C , 25-C ) :   1.0639 B( 25-C , 26-H ) :   0.9488
B( 25-C , 27-H ) :   0.9481 B( 25-C , 28-C ) :   1.0719 B( 28-C , 29-H ) :   0.9750
B( 28-C , 30-H ) :   0.9771 B( 28-C , 31-H ) :   0.9733

Dispersion correction           -0.014256109
FINAL SINGLE POINT ENERGY     -1339.875264197801

DIPOLE MOMENT
-------------
                                X             Y             Z
Electronic contribution:    -26.42395     -16.80046       2.76103
Nuclear contribution   :     27.02830      17.06959      -2.86491
                        -----------------------------------------
Total Dipole Moment    :      0.60435       0.26913      -0.10388
                        -----------------------------------------
Magnitude (a.u.)       :      0.66967
Magnitude (Debye)      :      1.70217

Rotational constants in cm-1:     0.016594     0.009945     0.006552
Rotational constants in MHz :   497.479139   298.147260   196.436714

                             ****ORCA TERMINATED NORMALLY****
TOTAL RUN TIME: 0 days 0 hours 0 minutes 21 seconds 776 msec
