                         Program Version 4.2.1 -  RELEASE  -
|  1> ! wB97X-D3 SP def2-SVP
|  2> %pal
|  3> nprocs 24
|  4> end
|  5>
|  6> * xyz 0 1
|  7> S 	 -27.8157 	 16.3413 	 7.44096
|  8> C 	 -28.8467 	 15.7226 	 6.12552
|  9> C 	 -29.8569 	 16.6262 	 5.91681
| 10> C 	 -29.8532 	 17.7266 	 6.81011
| 11> C 	 -28.8258 	 17.7445 	 7.73092
| 12> H 	 -30.5569 	 18.499 	 6.93596
| 13> C 	 -30.7948 	 16.5957 	 4.76378
| 14> H 	 -30.2597 	 16.5545 	 3.78925
| 15> H 	 -31.419 	 17.5257 	 4.77951
| 16> C 	 -31.8956 	 15.4249 	 4.99814
| 17> H 	 -31.3655 	 14.4496 	 4.72167
| 18> H 	 -32.1496 	 15.2864 	 6.05932
| 19> C 	 -33.2092 	 15.6241 	 4.25539
| 20> H 	 -33.803 	 16.484 	 4.57759
| 21> H 	 -33.01 	 15.6476 	 3.24282
| 22> H 	 -33.8218 	 14.7913 	 4.50439
| 23> S 	 -28.0603 	 17.9129 	 10.3073
| 24> C 	 -27.9882 	 19.4465 	 11.1324
| 25> C 	 -28.3275 	 20.4569 	 10.2435
| 26> C 	 -28.8756 	 20.0051 	 9.02846
| 27> C 	 -28.6702 	 18.651 	 8.84508
| 28> H 	 -28.2027 	 21.469 	 10.5374
| 29> C 	 -29.2818 	 20.9745 	 7.90051
| 30> H 	 -29.7917 	 21.8087 	 8.42457
| 31> H 	 -30.0386 	 20.5393 	 7.29333
| 32> C 	 -28.0158 	 21.4015 	 7.06008
| 33> H 	 -27.2973 	 20.6169 	 7.01466
| 34> H 	 -27.4761 	 22.127 	 7.59173
| 35> C 	 -28.328 	 21.9599 	 5.61007
| 36> H 	 -28.6292 	 21.1203 	 5.04327
| 37> H 	 -27.4184 	 22.3733 	 5.18298
| 38> H 	 -29.0979 	 22.6833 	 5.5141
| 39> H 	 -28.6243 	 14.8966 	 5.49147
| 40> H 	 -27.3978 	 19.6922 	 12.0147
| 41> *
| 42>
| 43>                          ****END OF INPUT****

CARTESIAN COORDINATES (ANGSTROEM)
---------------------------------
  S    -27.815700   16.341300    7.440960
  C    -28.846700   15.722600    6.125520
  C    -29.856900   16.626200    5.916810
  C    -29.853200   17.726600    6.810110
  C    -28.825800   17.744500    7.730920
  H    -30.556900   18.499000    6.935960
  C    -30.794800   16.595700    4.763780
  H    -30.259700   16.554500    3.789250
  H    -31.419000   17.525700    4.779510
  C    -31.895600   15.424900    4.998140
  H    -31.365500   14.449600    4.721670
  H    -32.149600   15.286400    6.059320
  C    -33.209200   15.624100    4.255390
  H    -33.803000   16.484000    4.577590
  H    -33.010000   15.647600    3.242820
  H    -33.821800   14.791300    4.504390
  S    -28.060300   17.912900   10.307300
  C    -27.988200   19.446500   11.132400
  C    -28.327500   20.456900   10.243500
  C    -28.875600   20.005100    9.028460
  C    -28.670200   18.651000    8.845080
  H    -28.202700   21.469000   10.537400
  C    -29.281800   20.974500    7.900510
  H    -29.791700   21.808700    8.424570
  H    -30.038600   20.539300    7.293330
  C    -28.015800   21.401500    7.060080
  H    -27.297300   20.616900    7.014660
  H    -27.476100   22.127000    7.591730
  C    -28.328000   21.959900    5.610070
  H    -28.629200   21.120300    5.043270
  H    -27.418400   22.373300    5.182980
  H    -29.097900   22.683300    5.514100
  H    -28.624300   14.896600    5.491470
  H    -27.397800   19.692200   12.014700

 Total Charge           Charge          ....    0
 Multiplicity           Mult            ....    1
 Number of Electrons    NEL             ....  134
 Basis Dimension        Dim             ....  322

ORBITAL ENERGIES
----------------

  NO   OCC          E(Eh)            E(eV)
   0   2.0000     -88.966025     -2420.8886
   1   2.0000     -88.964803     -2420.8554
   2   2.0000     -10.329902      -281.0909
   3   2.0000     -10.327514      -281.0259
   4   2.0000     -10.313894      -280.6553
   5   2.0000     -10.313606      -280.6475
   6   2.0000     -10.302308      -280.3401
   7   2.0000     -10.298919      -280.2478
   8   2.0000     -10.298739      -280.2429
   9   2.0000     -10.296174      -280.1731
  10   2.0000     -10.295589      -280.1572
  11   2.0000     -10.290821      -280.0275
  12   2.0000     -10.287540      -279.9382
  13   2.0000     -10.284286      -279.8496
  14   2.0000     -10.273072      -279.5445
  15   2.0000     -10.270312      -279.4694
  16   2.0000      -8.080025      -219.8687
  17   2.0000      -8.079690      -219.8595
  18   2.0000      -6.038696      -164.3213
  19   2.0000      -6.038193      -164.3076
  20   2.0000      -6.034515      -164.2075
  21   2.0000      -6.034110      -164.1965
  22   2.0000      -6.030755      -164.1052
  23   2.0000      -6.030485      -164.0978
  24   2.0000      -1.010386       -27.4940
  25   2.0000      -0.986059       -26.8320
  26   2.0000      -0.906340       -24.6628
  27   2.0000      -0.900764       -24.5110
  28   2.0000      -0.872019       -23.7288
  29   2.0000      -0.851519       -23.1710
  30   2.0000      -0.845800       -23.0154
  31   2.0000      -0.817448       -22.2439
  32   2.0000      -0.781390       -21.2627
  33   2.0000      -0.771474       -20.9929
  34   2.0000      -0.713793       -19.4233
  35   2.0000      -0.704842       -19.1797
  36   2.0000      -0.696310       -18.9476
  37   2.0000      -0.666862       -18.1462
  38   2.0000      -0.644453       -17.5365
  39   2.0000      -0.617787       -16.8108
  40   2.0000      -0.591104       -16.0848
  41   2.0000      -0.568330       -15.4650
  42   2.0000      -0.558337       -15.1931
  43   2.0000      -0.553676       -15.0663
  44   2.0000      -0.533694       -14.5225
  45   2.0000      -0.528203       -14.3731
  46   2.0000      -0.520330       -14.1589
  47   2.0000      -0.510499       -13.8914
  48   2.0000      -0.508016       -13.8238
  49   2.0000      -0.501023       -13.6335
  50   2.0000      -0.491879       -13.3847
  51   2.0000      -0.484222       -13.1764
  52   2.0000      -0.475500       -12.9390
  53   2.0000      -0.467794       -12.7293
  54   2.0000      -0.458087       -12.4652
  55   2.0000      -0.452003       -12.2996
  56   2.0000      -0.443861       -12.0781
  57   2.0000      -0.441733       -12.0202
  58   2.0000      -0.435937       -11.8624
  59   2.0000      -0.422950       -11.5090
  60   2.0000      -0.421900       -11.4805
  61   2.0000      -0.410396       -11.1674
  62   2.0000      -0.408517       -11.1163
  63   2.0000      -0.354544        -9.6476
  64   2.0000      -0.332356        -9.0439
  65   2.0000      -0.327025        -8.8988
  66   2.0000      -0.286996        -7.8096
  67   0.0000       0.019950         0.5429
  68   0.0000       0.077014         2.0957
  69   0.0000       0.107709         2.9309
  70   0.0000       0.119217         3.2441
  71   0.0000       0.139425         3.7939

MULLIKEN ATOMIC CHARGES
-----------------------
   0 S :    0.099035
   1 C :   -0.114657
   2 C :   -0.050749
   3 C :    0.020735
   4 C :   -0.119730
   5 H :   -0.010636
   6 C :    0.032251
   7 H :    0.055010
   8 H :    0.023628
   9 C :   -0.132912
  10 H :    0.034946
  11 H :    0.041094
  12 C :   -0.002279
  13 H :    0.034815
  14 H :    0.021110
  15 H :    0.026045
  16 S :    0.102843
  17 C :   -0.084842
  18 C :   -0.048887
  19 C :   -0.061115
  20 C :   -0.151961
  21 H :    0.009147
  22 C :    0.082983
  23 H :    0.030009
  24 H :    0.003698
  25 C :   -0.040128
  26 H :    0.029750
  27 H :    0.008447
  28 C :   -0.031872
  29 H :    0.028397
  30 H :    0.033003
  31 H :    0.025318
  32 H :    0.041832
  33 H :    0.065673
Sum of atomic charges:   -0.0000000

LOEWDIN ATOMIC CHARGES
----------------------
   0 S :    0.390680
   1 C :   -0.184236
   2 C :   -0.064777
   3 C :   -0.065186
   4 C :   -0.188939
   5 H :    0.020827
   6 C :   -0.035969
   7 H :    0.036936
   8 H :    0.030650
   9 C :   -0.040679
  10 H :    0.026322
  11 H :    0.026700
  12 C :   -0.061517
  13 H :    0.028212
  14 H :    0.015250
  15 H :    0.027028
  16 S :    0.413998
  17 C :   -0.200713
  18 C :   -0.062992
  19 C :   -0.062499
  20 C :   -0.189931
  21 H :    0.025927
  22 C :   -0.023744
  23 H :    0.034688
  24 H :    0.017971
  25 C :   -0.026317
  26 H :    0.025064
  27 H :    0.015322
  28 C :   -0.057989
  29 H :    0.021241
  30 H :    0.028376
  31 H :    0.018950
  32 H :    0.026463
  33 H :    0.034882

  Mayer bond orders larger than 0.100000
B(  0-S ,  1-C ) :   1.1198 B(  0-S ,  4-C ) :   1.1476 B(  1-C ,  2-C ) :   1.5902
B(  1-C , 32-H ) :   0.9785 B(  2-C ,  3-C ) :   1.2463 B(  2-C ,  6-C ) :   1.0270
B(  3-C ,  4-C ) :   1.5628 B(  3-C ,  5-H ) :   0.9995 B(  4-C , 20-C ) :   1.0705
B(  6-C ,  7-H ) :   0.9443 B(  6-C ,  8-H ) :   0.9514 B(  6-C ,  9-C ) :   1.0290
B(  9-C , 10-H ) :   0.9561 B(  9-C , 11-H ) :   0.9642 B(  9-C , 12-C ) :   1.0901
B( 12-C , 13-H ) :   0.9726 B( 12-C , 14-H ) :   0.9732 B( 12-C , 15-H ) :   0.9703
B( 16-S , 17-C ) :   1.1496 B( 16-S , 20-C ) :   1.1537 B( 17-C , 18-C ) :   1.6079
B( 17-C , 20-C ) :   0.1058 B( 17-C , 33-H ) :   0.9618 B( 18-C , 19-C ) :   1.2589
B( 18-C , 21-H ) :   0.9906 B( 19-C , 20-C ) :   1.5608 B( 19-C , 22-C ) :   1.0543
B( 22-C , 23-H ) :   0.9294 B( 22-C , 24-H ) :   0.9446 B( 22-C , 25-C ) :   1.0366
B( 25-C , 26-H ) :   0.9630 B( 25-C , 27-H ) :   0.9564 B( 25-C , 28-C ) :   1.0726
B( 28-C , 29-H ) :   0.9791 B( 28-C , 30-H ) :   0.9753 B( 28-C , 31-H ) :   0.9792

Dispersion correction           -0.014047079
FINAL SINGLE POINT ENERGY     -1339.867698833599

DIPOLE MOMENT
-------------
                                X             Y             Z
Electronic contribution:     14.89881      -9.20678      21.21572
Nuclear contribution   :    -15.15441       9.61499     -21.69896
                        -----------------------------------------
Total Dipole Moment    :     -0.25560       0.40820      -0.48324
                        -----------------------------------------
Magnitude (a.u.)       :      0.68227
Magnitude (Debye)      :      1.73418

Rotational constants in cm-1:     0.018556     0.008243     0.006705
Rotational constants in MHz :   556.289016   247.131328   201.014950

                             ****ORCA TERMINATED NORMALLY****
TOTAL RUN TIME: 0 days 0 hours 0 minutes 20 seconds 339 msec
