                         Program Version 4.2.1 -  RELEASE  -
|  1> ! wB97X-D3 SP def2-SVP
|  2> %pal
|  3> nprocs 24
|  4> end
|  5>
|  6> * xyz 0 1
|  7> S 	 -54.1357 	 -51.155 	 -86.525
|  8> C 	 -55.6378 	 -50.8345 	 -87.4782
|  9> C 	 -55.9564 	 -49.4767 	 -87.4653
| 10> C 	 -55.0163 	 -48.7511 	 -86.7422
| 11> C 	 -54.008 	 -49.4633 	 -86.079
| 12> H 	 -55.0199 	 -47.7079 	 -86.7733
| 13> C 	 -57.1698 	 -48.9102 	 -88.1585
| 14> H 	 -57.9816 	 -49.6872 	 -88.2313
| 15> H 	 -56.8846 	 -48.7569 	 -89.1855
| 16> C 	 -57.6443 	 -47.5382 	 -87.576
| 17> H 	 -56.8042 	 -46.9106 	 -87.3785
| 18> H 	 -58.2122 	 -46.9618 	 -88.1644
| 19> C 	 -58.4405 	 -47.6687 	 -86.2581
| 20> H 	 -57.8257 	 -47.8792 	 -85.4054
| 21> H 	 -59.0417 	 -46.7507 	 -86.1507
| 22> H 	 -59.1955 	 -48.4527 	 -86.3479
| 23> S 	 -51.2702 	 -49.2543 	 -85.5753
| 24> C 	 -50.7181 	 -48.7074 	 -84.035
| 25> C 	 -51.7566 	 -48.0052 	 -83.4407
| 26> C 	 -53.0135 	 -48.2666 	 -84.0651
| 27> C 	 -52.9141 	 -48.9937 	 -85.2266
| 28> H 	 -51.6659 	 -47.3651 	 -82.6521
| 29> C 	 -54.2808 	 -47.762 	 -83.481
| 30> H 	 -55.2142 	 -48.069 	 -83.9432
| 31> H 	 -54.1919 	 -46.7282 	 -83.6726
| 32> C 	 -54.5222 	 -47.9514 	 -81.9744
| 33> H 	 -55.4783 	 -47.4545 	 -81.7262
| 34> H 	 -53.8601 	 -47.4251 	 -81.3462
| 35> C 	 -54.474 	 -49.3893 	 -81.5122
| 36> H 	 -54.9984 	 -49.9736 	 -82.2842
| 37> H 	 -54.9047 	 -49.6888 	 -80.5751
| 38> H 	 -53.4461 	 -49.7535 	 -81.5261
| 39> H 	 -56.0567 	 -51.5625 	 -88.082
| 40> H 	 -49.7209 	 -48.602 	 -83.6403
| 41> *
| 42>
| 43>                          ****END OF INPUT****

CARTESIAN COORDINATES (ANGSTROEM)
---------------------------------
  S    -54.135700  -51.155000  -86.525000
  C    -55.637800  -50.834500  -87.478200
  C    -55.956400  -49.476700  -87.465300
  C    -55.016300  -48.751100  -86.742200
  C    -54.008000  -49.463300  -86.079000
  H    -55.019900  -47.707900  -86.773300
  C    -57.169800  -48.910200  -88.158500
  H    -57.981600  -49.687200  -88.231300
  H    -56.884600  -48.756900  -89.185500
  C    -57.644300  -47.538200  -87.576000
  H    -56.804200  -46.910600  -87.378500
  H    -58.212200  -46.961800  -88.164400
  C    -58.440500  -47.668700  -86.258100
  H    -57.825700  -47.879200  -85.405400
  H    -59.041700  -46.750700  -86.150700
  H    -59.195500  -48.452700  -86.347900
  S    -51.270200  -49.254300  -85.575300
  C    -50.718100  -48.707400  -84.035000
  C    -51.756600  -48.005200  -83.440700
  C    -53.013500  -48.266600  -84.065100
  C    -52.914100  -48.993700  -85.226600
  H    -51.665900  -47.365100  -82.652100
  C    -54.280800  -47.762000  -83.481000
  H    -55.214200  -48.069000  -83.943200
  H    -54.191900  -46.728200  -83.672600
  C    -54.522200  -47.951400  -81.974400
  H    -55.478300  -47.454500  -81.726200
  H    -53.860100  -47.425100  -81.346200
  C    -54.474000  -49.389300  -81.512200
  H    -54.998400  -49.973600  -82.284200
  H    -54.904700  -49.688800  -80.575100
  H    -53.446100  -49.753500  -81.526100
  H    -56.056700  -51.562500  -88.082000
  H    -49.720900  -48.602000  -83.640300

 Total Charge           Charge          ....    0
 Multiplicity           Mult            ....    1
 Number of Electrons    NEL             ....  134
 Basis Dimension        Dim             ....  322

ORBITAL ENERGIES
----------------

  NO   OCC          E(Eh)            E(eV)
   0   2.0000     -88.965104     -2420.8636
   1   2.0000     -88.964273     -2420.8409
   2   2.0000     -10.332656      -281.1659
   3   2.0000     -10.319757      -280.8149
   4   2.0000     -10.317552      -280.7549
   5   2.0000     -10.312587      -280.6198
   6   2.0000     -10.300841      -280.3001
   7   2.0000     -10.299677      -280.2685
   8   2.0000     -10.296589      -280.1844
   9   2.0000     -10.289055      -279.9794
  10   2.0000     -10.287053      -279.9250
  11   2.0000     -10.282667      -279.8056
  12   2.0000     -10.280493      -279.7464
  13   2.0000     -10.279403      -279.7168
  14   2.0000     -10.276418      -279.6355
  15   2.0000     -10.267367      -279.3893
  16   2.0000      -8.080187      -219.8731
  17   2.0000      -8.078817      -219.8358
  18   2.0000      -6.038707      -164.3216
  19   2.0000      -6.037207      -164.2808
  20   2.0000      -6.034516      -164.2075
  21   2.0000      -6.033416      -164.1776
  22   2.0000      -6.030854      -164.1079
  23   2.0000      -6.029821      -164.0798
  24   2.0000      -1.012413       -27.5492
  25   2.0000      -0.985242       -26.8098
  26   2.0000      -0.913655       -24.8618
  27   2.0000      -0.912376       -24.8270
  28   2.0000      -0.871204       -23.7067
  29   2.0000      -0.850274       -23.1371
  30   2.0000      -0.844204       -22.9720
  31   2.0000      -0.818242       -22.2655
  32   2.0000      -0.785829       -21.3835
  33   2.0000      -0.774421       -21.0731
  34   2.0000      -0.717265       -19.5178
  35   2.0000      -0.701218       -19.0811
  36   2.0000      -0.698717       -19.0131
  37   2.0000      -0.663651       -18.0588
  38   2.0000      -0.643612       -17.5136
  39   2.0000      -0.630904       -17.1678
  40   2.0000      -0.601546       -16.3689
  41   2.0000      -0.572546       -15.5798
  42   2.0000      -0.560052       -15.2398
  43   2.0000      -0.556377       -15.1398
  44   2.0000      -0.542682       -14.7671
  45   2.0000      -0.538097       -14.6424
  46   2.0000      -0.520717       -14.1694
  47   2.0000      -0.516592       -14.0572
  48   2.0000      -0.502143       -13.6640
  49   2.0000      -0.497172       -13.5287
  50   2.0000      -0.487361       -13.2618
  51   2.0000      -0.480319       -13.0701
  52   2.0000      -0.472651       -12.8615
  53   2.0000      -0.465094       -12.6558
  54   2.0000      -0.460552       -12.5323
  55   2.0000      -0.452712       -12.3189
  56   2.0000      -0.444692       -12.1007
  57   2.0000      -0.440243       -11.9796
  58   2.0000      -0.432628       -11.7724
  59   2.0000      -0.426705       -11.6112
  60   2.0000      -0.421686       -11.4746
  61   2.0000      -0.413310       -11.2467
  62   2.0000      -0.411072       -11.1858
  63   2.0000      -0.338128        -9.2009
  64   2.0000      -0.332383        -9.0446
  65   2.0000      -0.323751        -8.8097
  66   2.0000      -0.295246        -8.0341
  67   0.0000       0.027565         0.7501
  68   0.0000       0.068197         1.8557
  69   0.0000       0.115336         3.1384
  70   0.0000       0.119980         3.2648
  71   0.0000       0.134653         3.6641

MULLIKEN ATOMIC CHARGES
-----------------------
   0 S :    0.104215
   1 C :   -0.115526
   2 C :   -0.075418
   3 C :    0.051190
   4 C :   -0.166095
   5 H :   -0.017950
   6 C :    0.068639
   7 H :    0.038000
   8 H :    0.038498
   9 C :   -0.023417
  10 H :    0.014502
  11 H :   -0.008089
  12 C :   -0.054970
  13 H :    0.041471
  14 H :    0.031095
  15 H :    0.022945
  16 S :    0.122149
  17 C :   -0.078432
  18 C :   -0.001795
  19 C :   -0.049975
  20 C :   -0.150447
  21 H :   -0.018562
  22 C :    0.079652
  23 H :    0.034271
  24 H :    0.022447
  25 C :   -0.064653
  26 H :    0.021953
  27 H :    0.005517
  28 C :   -0.037730
  29 H :    0.020487
  30 H :    0.032085
  31 H :    0.031643
  32 H :    0.023560
  33 H :    0.058743
Sum of atomic charges:   -0.0000000

LOEWDIN ATOMIC CHARGES
----------------------
   0 S :    0.392004
   1 C :   -0.168584
   2 C :   -0.060676
   3 C :   -0.061158
   4 C :   -0.185959
   5 H :    0.018697
   6 C :   -0.027939
   7 H :    0.037441
   8 H :    0.034668
   9 C :   -0.029738
  10 H :    0.021982
  11 H :    0.008338
  12 C :   -0.059248
  13 H :    0.020775
  14 H :    0.028913
  15 H :    0.023238
  16 S :    0.437468
  17 C :   -0.188697
  18 C :   -0.056934
  19 C :   -0.053263
  20 C :   -0.228856
  21 H :    0.013324
  22 C :   -0.030940
  23 H :    0.032036
  24 H :    0.033769
  25 C :   -0.041616
  26 H :    0.027124
  27 H :    0.010381
  28 C :   -0.067408
  29 H :    0.026620
  30 H :    0.023040
  31 H :    0.027284
  32 H :    0.010678
  33 H :    0.033236

  Mayer bond orders larger than 0.100000
B(  0-S ,  1-C ) :   1.1469 B(  0-S ,  4-C ) :   1.1661 B(  1-C ,  2-C ) :   1.5730
B(  1-C ,  4-C ) :   0.1177 B(  1-C , 32-H ) :   0.9813 B(  2-C ,  3-C ) :   1.2919
B(  2-C ,  6-C ) :   1.0018 B(  3-C ,  4-C ) :   1.5322 B(  3-C ,  5-H ) :   1.0006
B(  4-C , 20-C ) :   1.0349 B(  6-C ,  7-H ) :   0.9511 B(  6-C ,  8-H ) :   0.9281
B(  6-C ,  9-C ) :   1.0767 B(  9-C , 10-H ) :   0.9505 B(  9-C , 11-H ) :   0.9520
B(  9-C , 12-C ) :   1.0740 B( 12-C , 13-H ) :   0.9792 B( 12-C , 14-H ) :   0.9767
B( 12-C , 15-H ) :   0.9757 B( 16-S , 17-C ) :   1.1707 B( 16-S , 20-C ) :   1.1491
B( 17-C , 18-C ) :   1.5637 B( 17-C , 33-H ) :   0.9697 B( 18-C , 19-C ) :   1.2725
B( 18-C , 21-H ) :   1.0016 B( 19-C , 20-C ) :   1.5686 B( 19-C , 22-C ) :   1.0412
B( 22-C , 23-H ) :   0.9342 B( 22-C , 24-H ) :   0.9194 B( 22-C , 25-C ) :   1.0890
B( 25-C , 26-H ) :   0.9522 B( 25-C , 27-H ) :   0.9506 B( 25-C , 28-C ) :   1.0730
B( 28-C , 29-H ) :   0.9753 B( 28-C , 30-H ) :   0.9760 B( 28-C , 31-H ) :   0.9688

Dispersion correction           -0.015073313
FINAL SINGLE POINT ENERGY     -1339.860299835053

DIPOLE MOMENT
-------------
                                X             Y             Z
Electronic contribution:     22.32109     -11.86837      -9.92391
Nuclear contribution   :    -22.76328      12.48545       9.94236
                        -----------------------------------------
Total Dipole Moment    :     -0.44218       0.61708       0.01845
                        -----------------------------------------
Magnitude (a.u.)       :      0.75938
Magnitude (Debye)      :      1.93019

Rotational constants in cm-1:     0.018530     0.009475     0.007491
Rotational constants in MHz :   555.525232   284.062483   224.573297

                             ****ORCA TERMINATED NORMALLY****
TOTAL RUN TIME: 0 days 0 hours 0 minutes 22 seconds 443 msec
