                         Program Version 4.2.1 -  RELEASE  -
|  1> ! wB97X-D3 SP def2-SVP
|  2> %pal
|  3> nprocs 24
|  4> end
|  5>
|  6> * xyz 0 1
|  7> S 	 -89.7211 	 -36.7365 	 -64.2726
|  8> C 	 -91.2524 	 -37.4609 	 -64.5287
|  9> C 	 -92.164 	 -36.674 	 -65.0477
| 10> C 	 -91.597 	 -35.4069 	 -65.3319
| 11> C 	 -90.2291 	 -35.3298 	 -65.1331
| 12> H 	 -92.1261 	 -34.5748 	 -65.8195
| 13> C 	 -93.5879 	 -37.0118 	 -65.3971
| 14> H 	 -94.2526 	 -36.0844 	 -65.4423
| 15> H 	 -93.8977 	 -37.6852 	 -64.6327
| 16> C 	 -93.6665 	 -37.7568 	 -66.7793
| 17> H 	 -93.027 	 -38.6421 	 -66.6849
| 18> H 	 -94.7151 	 -38.1204 	 -66.8733
| 19> C 	 -93.1262 	 -36.9496 	 -67.9606
| 20> H 	 -93.6033 	 -36.0175 	 -67.9806
| 21> H 	 -92.0831 	 -36.6239 	 -67.732
| 22> H 	 -93.2064 	 -37.4192 	 -68.8628
| 23> S 	 -88.6286 	 -33.3064 	 -64.0928
| 24> C 	 -88.0914 	 -31.9333 	 -65.0421
| 25> C 	 -88.3186 	 -32.253 	 -66.3732
| 26> C 	 -89.1984 	 -33.3754 	 -66.5645
| 27> C 	 -89.4039 	 -34.1739 	 -65.4548
| 28> H 	 -88.0948 	 -31.4829 	 -67.0686
| 29> C 	 -89.6481 	 -33.6684 	 -67.9572
| 30> H 	 -89.8106 	 -34.7589 	 -67.9407
| 31> H 	 -88.8816 	 -33.492 	 -68.6814
| 32> C 	 -90.9533 	 -32.9309 	 -68.4112
| 33> H 	 -91.0425 	 -32.0163 	 -67.7719
| 34> H 	 -91.8145 	 -33.5612 	 -68.2807
| 35> C 	 -90.9278 	 -32.5373 	 -69.8529
| 36> H 	 -90.7904 	 -33.4052 	 -70.4735
| 37> H 	 -90.1113 	 -31.8685 	 -70.0189
| 38> H 	 -91.8547 	 -32.0098 	 -70.0987
| 39> H 	 -91.4443 	 -38.5038 	 -64.4666
| 40> H 	 -87.7472 	 -30.9803 	 -64.8269
| 41> *
| 42>
| 43>                          ****END OF INPUT****

CARTESIAN COORDINATES (ANGSTROEM)
---------------------------------
  S    -89.721100  -36.736500  -64.272600
  C    -91.252400  -37.460900  -64.528700
  C    -92.164000  -36.674000  -65.047700
  C    -91.597000  -35.406900  -65.331900
  C    -90.229100  -35.329800  -65.133100
  H    -92.126100  -34.574800  -65.819500
  C    -93.587900  -37.011800  -65.397100
  H    -94.252600  -36.084400  -65.442300
  H    -93.897700  -37.685200  -64.632700
  C    -93.666500  -37.756800  -66.779300
  H    -93.027000  -38.642100  -66.684900
  H    -94.715100  -38.120400  -66.873300
  C    -93.126200  -36.949600  -67.960600
  H    -93.603300  -36.017500  -67.980600
  H    -92.083100  -36.623900  -67.732000
  H    -93.206400  -37.419200  -68.862800
  S    -88.628600  -33.306400  -64.092800
  C    -88.091400  -31.933300  -65.042100
  C    -88.318600  -32.253000  -66.373200
  C    -89.198400  -33.375400  -66.564500
  C    -89.403900  -34.173900  -65.454800
  H    -88.094800  -31.482900  -67.068600
  C    -89.648100  -33.668400  -67.957200
  H    -89.810600  -34.758900  -67.940700
  H    -88.881600  -33.492000  -68.681400
  C    -90.953300  -32.930900  -68.411200
  H    -91.042500  -32.016300  -67.771900
  H    -91.814500  -33.561200  -68.280700
  C    -90.927800  -32.537300  -69.852900
  H    -90.790400  -33.405200  -70.473500
  H    -90.111300  -31.868500  -70.018900
  H    -91.854700  -32.009800  -70.098700
  H    -91.444300  -38.503800  -64.466600
  H    -87.747200  -30.980300  -64.826900

 Total Charge           Charge          ....    0
 Multiplicity           Mult            ....    1
 Number of Electrons    NEL             ....  134
 Basis Dimension        Dim             ....  322

ORBITAL ENERGIES
----------------

  NO   OCC          E(Eh)            E(eV)
   0   2.0000     -88.967755     -2420.9357
   1   2.0000     -88.960697     -2420.7436
   2   2.0000     -10.331047      -281.1221
   3   2.0000     -10.330235      -281.1000
   4   2.0000     -10.316110      -280.7156
   5   2.0000     -10.303910      -280.3837
   6   2.0000     -10.302160      -280.3360
   7   2.0000     -10.298383      -280.2332
   8   2.0000     -10.293249      -280.0936
   9   2.0000     -10.293151      -280.0909
  10   2.0000     -10.290913      -280.0300
  11   2.0000     -10.289177      -279.9828
  12   2.0000     -10.285271      -279.8765
  13   2.0000     -10.284746      -279.8622
  14   2.0000     -10.272653      -279.5331
  15   2.0000     -10.269793      -279.4553
  16   2.0000      -8.083720      -219.9692
  17   2.0000      -8.074924      -219.7298
  18   2.0000      -6.042223      -164.4173
  19   2.0000      -6.038151      -164.3064
  20   2.0000      -6.034310      -164.2019
  21   2.0000      -6.033674      -164.1846
  22   2.0000      -6.029338      -164.0666
  23   2.0000      -6.025569      -163.9641
  24   2.0000      -1.016788       -27.6682
  25   2.0000      -0.988880       -26.9088
  26   2.0000      -0.915958       -24.9245
  27   2.0000      -0.910021       -24.7629
  28   2.0000      -0.875475       -23.8229
  29   2.0000      -0.854361       -23.2483
  30   2.0000      -0.848098       -23.0779
  31   2.0000      -0.820237       -22.3198
  32   2.0000      -0.788987       -21.4694
  33   2.0000      -0.771606       -20.9965
  34   2.0000      -0.712670       -19.3927
  35   2.0000      -0.703418       -19.1410
  36   2.0000      -0.693810       -18.8795
  37   2.0000      -0.665505       -18.1093
  38   2.0000      -0.642362       -17.4796
  39   2.0000      -0.617720       -16.8090
  40   2.0000      -0.592630       -16.1263
  41   2.0000      -0.581692       -15.8286
  42   2.0000      -0.566574       -15.4173
  43   2.0000      -0.560482       -15.2515
  44   2.0000      -0.544920       -14.8280
  45   2.0000      -0.532614       -14.4932
  46   2.0000      -0.520804       -14.1718
  47   2.0000      -0.516769       -14.0620
  48   2.0000      -0.512721       -13.9518
  49   2.0000      -0.507401       -13.8071
  50   2.0000      -0.493904       -13.4398
  51   2.0000      -0.480677       -13.0799
  52   2.0000      -0.472750       -12.8642
  53   2.0000      -0.463155       -12.6031
  54   2.0000      -0.459588       -12.5060
  55   2.0000      -0.449908       -12.2426
  56   2.0000      -0.444058       -12.0834
  57   2.0000      -0.439996       -11.9729
  58   2.0000      -0.429053       -11.6751
  59   2.0000      -0.426659       -11.6100
  60   2.0000      -0.421147       -11.4600
  61   2.0000      -0.415758       -11.3133
  62   2.0000      -0.408911       -11.1270
  63   2.0000      -0.348974        -9.4961
  64   2.0000      -0.334269        -9.0959
  65   2.0000      -0.324359        -8.8263
  66   2.0000      -0.296470        -8.0674
  67   0.0000       0.034559         0.9404
  68   0.0000       0.058059         1.5799
  69   0.0000       0.115273         3.1367
  70   0.0000       0.119609         3.2547
  71   0.0000       0.128810         3.5051

MULLIKEN ATOMIC CHARGES
-----------------------
   0 S :    0.131548
   1 C :   -0.106293
   2 C :   -0.083460
   3 C :    0.008839
   4 C :   -0.167402
   5 H :    0.015585
   6 C :    0.065749
   7 H :    0.044857
   8 H :    0.023073
   9 C :   -0.091156
  10 H :    0.022473
  11 H :    0.038888
  12 C :   -0.006028
  13 H :    0.006810
  14 H :    0.045141
  15 H :    0.026764
  16 S :    0.083292
  17 C :   -0.056768
  18 C :   -0.024339
  19 C :   -0.081317
  20 C :   -0.108530
  21 H :    0.010943
  22 C :    0.052455
  23 H :    0.032062
  24 H :    0.018277
  25 C :   -0.076322
  26 H :    0.037547
  27 H :    0.025806
  28 C :   -0.037041
  29 H :    0.031133
  30 H :    0.021872
  31 H :    0.035299
  32 H :    0.028048
  33 H :    0.032193
Sum of atomic charges:   -0.0000000

LOEWDIN ATOMIC CHARGES
----------------------
   0 S :    0.429978
   1 C :   -0.197039
   2 C :   -0.074143
   3 C :   -0.057081
   4 C :   -0.207399
   5 H :    0.031500
   6 C :   -0.026096
   7 H :    0.038639
   8 H :    0.028173
   9 C :   -0.035849
  10 H :    0.020906
  11 H :    0.025419
  12 C :   -0.057910
  13 H :    0.015731
  14 H :    0.035829
  15 H :    0.015425
  16 S :    0.383835
  17 C :   -0.167140
  18 C :   -0.073391
  19 C :   -0.057699
  20 C :   -0.185301
  21 H :    0.024134
  22 C :   -0.033822
  23 H :    0.034065
  24 H :    0.026090
  25 C :   -0.039557
  26 H :    0.027021
  27 H :    0.018410
  28 C :   -0.060402
  29 H :    0.023454
  30 H :    0.018676
  31 H :    0.029260
  32 H :    0.023509
  33 H :    0.022774

  Mayer bond orders larger than 0.100000
B(  0-S ,  1-C ) :   1.1354 B(  0-S ,  4-C ) :   1.1542 B(  1-C ,  2-C ) :   1.6605
B(  1-C , 32-H ) :   0.9549 B(  2-C ,  3-C ) :   1.2301 B(  2-C ,  6-C ) :   1.0127
B(  3-C ,  4-C ) :   1.5737 B(  3-C ,  5-H ) :   0.9950 B(  4-C , 20-C ) :   1.0279
B(  6-C ,  7-H ) :   0.9455 B(  6-C ,  8-H ) :   0.9333 B(  6-C ,  9-C ) :   1.0737
B(  9-C , 10-H ) :   0.9560 B(  9-C , 11-H ) :   0.9581 B(  9-C , 12-C ) :   1.0749
B( 12-C , 13-H ) :   0.9715 B( 12-C , 14-H ) :   0.9660 B( 12-C , 15-H ) :   0.9713
B( 16-S , 17-C ) :   1.1576 B( 16-S , 20-C ) :   1.1075 B( 17-C , 18-C ) :   1.6181
B( 17-C , 33-H ) :   0.9748 B( 18-C , 19-C ) :   1.2295 B( 18-C , 21-H ) :   0.9865
B( 19-C , 20-C ) :   1.6204 B( 19-C , 22-C ) :   1.0590 B( 22-C , 23-H ) :   0.9309
B( 22-C , 24-H ) :   0.9492 B( 22-C , 25-C ) :   1.0313 B( 25-C , 26-H ) :   0.9657
B( 25-C , 27-H ) :   0.9500 B( 25-C , 28-C ) :   1.0937 B( 28-C , 29-H ) :   0.9721
B( 28-C , 30-H ) :   0.9760 B( 28-C , 31-H ) :   0.9709

Dispersion correction           -0.015522372
FINAL SINGLE POINT ENERGY     -1339.859599793745

DIPOLE MOMENT
-------------
                                X             Y             Z
Electronic contribution:     18.04709      -0.33626      24.91654
Nuclear contribution   :    -18.59442       0.44184     -25.55870
                        -----------------------------------------
Total Dipole Moment    :     -0.54733       0.10558      -0.64216
                        -----------------------------------------
Magnitude (a.u.)       :      0.85034
Magnitude (Debye)      :      2.16140

Rotational constants in cm-1:     0.017052     0.010591     0.007021
Rotational constants in MHz :   511.200104   317.517297   210.488506

                             ****ORCA TERMINATED NORMALLY****
TOTAL RUN TIME: 0 days 0 hours 0 minutes 22 seconds 910 msec
