                         Program Version 4.2.1 -  RELEASE  -
|  1> ! wB97X-D3 SP def2-SVP
|  2> %pal
|  3> nprocs 24
|  4> end
|  5>
|  6> * xyz 0 1
|  7> S 	 -63.8167 	 15.2061 	 -105.754
|  8> C 	 -64.4024 	 15.4177 	 -104.102
|  9> C 	 -63.9716 	 14.4139 	 -103.296
| 10> C 	 -63.2107 	 13.4058 	 -103.96
| 11> C 	 -62.9783 	 13.6313 	 -105.316
| 12> H 	 -62.7649 	 12.4701 	 -103.495
| 13> C 	 -64.3769 	 14.3873 	 -101.847
| 14> H 	 -64.6178 	 15.4249 	 -101.62
| 15> H 	 -63.5487 	 14.0522 	 -101.285
| 16> C 	 -65.6363 	 13.6336 	 -101.54
| 17> H 	 -66.4383 	 13.9873 	 -102.245
| 18> H 	 -65.5005 	 12.5819 	 -101.784
| 19> C 	 -66.069 	 13.7547 	 -100.155
| 20> H 	 -66.9111 	 13.1038 	 -99.89
| 21> H 	 -65.2706 	 13.4249 	 -99.4642
| 22> H 	 -66.2723 	 14.8022 	 -100.059
| 23> S 	 -62.2445 	 13.4885 	 -107.926
| 24> C 	 -60.8939 	 12.4937 	 -108.421
| 25> C 	 -60.6398 	 11.5342 	 -107.459
| 26> C 	 -61.2586 	 11.7804 	 -106.227
| 27> C 	 -62.148 	 12.8805 	 -106.272
| 28> H 	 -59.9843 	 10.6732 	 -107.723
| 29> C 	 -61.038 	 10.8308 	 -105.018
| 30> H 	 -60.9891 	 11.4166 	 -104.082
| 31> H 	 -60.2052 	 10.2211 	 -104.971
| 32> C 	 -62.2429 	 9.93188 	 -104.775
| 33> H 	 -63.0785 	 10.5338 	 -104.464
| 34> H 	 -62.0805 	 9.15838 	 -103.98
| 35> C 	 -62.8665 	 9.31412 	 -106.03
| 36> H 	 -63.7307 	 8.79915 	 -105.797
| 37> H 	 -62.0818 	 8.74069 	 -106.443
| 38> H 	 -63.1251 	 10.0905 	 -106.715
| 39> H 	 -65.0159 	 16.2606 	 -103.865
| 40> H 	 -60.466 	 12.5105 	 -109.407
| 41> *
| 42>
| 43>                          ****END OF INPUT****

CARTESIAN COORDINATES (ANGSTROEM)
---------------------------------
  S    -63.816700   15.206100  -105.754000
  C    -64.402400   15.417700  -104.102000
  C    -63.971600   14.413900  -103.296000
  C    -63.210700   13.405800  -103.960000
  C    -62.978300   13.631300  -105.316000
  H    -62.764900   12.470100  -103.495000
  C    -64.376900   14.387300  -101.847000
  H    -64.617800   15.424900  -101.620000
  H    -63.548700   14.052200  -101.285000
  C    -65.636300   13.633600  -101.540000
  H    -66.438300   13.987300  -102.245000
  H    -65.500500   12.581900  -101.784000
  C    -66.069000   13.754700  -100.155000
  H    -66.911100   13.103800  -99.890000
  H    -65.270600   13.424900  -99.464200
  H    -66.272300   14.802200  -100.059000
  S    -62.244500   13.488500  -107.926000
  C    -60.893900   12.493700  -108.421000
  C    -60.639800   11.534200  -107.459000
  C    -61.258600   11.780400  -106.227000
  C    -62.148000   12.880500  -106.272000
  H    -59.984300   10.673200  -107.723000
  C    -61.038000   10.830800  -105.018000
  H    -60.989100   11.416600  -104.082000
  H    -60.205200   10.221100  -104.971000
  C    -62.242900    9.931880  -104.775000
  H    -63.078500   10.533800  -104.464000
  H    -62.080500    9.158380  -103.980000
  C    -62.866500    9.314120  -106.030000
  H    -63.730700    8.799150  -105.797000
  H    -62.081800    8.740690  -106.443000
  H    -63.125100   10.090500  -106.715000
  H    -65.015900   16.260600  -103.865000
  H    -60.466000   12.510500  -109.407000

 Total Charge           Charge          ....    0
 Multiplicity           Mult            ....    1
 Number of Electrons    NEL             ....  134
 Basis Dimension        Dim             ....  322

ORBITAL ENERGIES
----------------

  NO   OCC          E(Eh)            E(eV)
   0   2.0000     -88.968998     -2420.9695
   1   2.0000     -88.963774     -2420.8274
   2   2.0000     -10.342969      -281.4465
   3   2.0000     -10.338572      -281.3268
   4   2.0000     -10.319884      -280.8183
   5   2.0000     -10.314323      -280.6670
   6   2.0000     -10.313945      -280.6567
   7   2.0000     -10.302852      -280.3549
   8   2.0000     -10.299399      -280.2609
   9   2.0000     -10.298786      -280.2442
  10   2.0000     -10.293126      -280.0902
  11   2.0000     -10.284704      -279.8610
  12   2.0000     -10.281216      -279.7661
  13   2.0000     -10.279368      -279.7158
  14   2.0000     -10.274122      -279.5731
  15   2.0000     -10.258046      -279.1356
  16   2.0000      -8.083575      -219.9653
  17   2.0000      -8.077194      -219.7916
  18   2.0000      -6.042073      -164.4132
  19   2.0000      -6.038170      -164.3070
  20   2.0000      -6.035954      -164.2467
  21   2.0000      -6.034291      -164.2014
  22   2.0000      -6.031955      -164.1378
  23   2.0000      -6.027690      -164.0218
  24   2.0000      -1.004952       -27.3461
  25   2.0000      -0.983160       -26.7531
  26   2.0000      -0.923662       -25.1341
  27   2.0000      -0.914336       -24.8803
  28   2.0000      -0.874735       -23.8027
  29   2.0000      -0.850434       -23.1415
  30   2.0000      -0.845384       -23.0041
  31   2.0000      -0.818723       -22.2786
  32   2.0000      -0.791693       -21.5431
  33   2.0000      -0.772281       -21.0148
  34   2.0000      -0.709916       -19.3178
  35   2.0000      -0.693597       -18.8737
  36   2.0000      -0.685762       -18.6605
  37   2.0000      -0.666683       -18.1414
  38   2.0000      -0.642040       -17.4708
  39   2.0000      -0.620154       -16.8752
  40   2.0000      -0.602065       -16.3830
  41   2.0000      -0.580491       -15.7960
  42   2.0000      -0.568083       -15.4583
  43   2.0000      -0.562262       -15.2999
  44   2.0000      -0.551674       -15.0118
  45   2.0000      -0.528402       -14.3786
  46   2.0000      -0.520212       -14.1557
  47   2.0000      -0.513444       -13.9715
  48   2.0000      -0.506696       -13.7879
  49   2.0000      -0.503460       -13.6998
  50   2.0000      -0.489438       -13.3183
  51   2.0000      -0.483076       -13.1452
  52   2.0000      -0.481170       -13.0933
  53   2.0000      -0.469082       -12.7644
  54   2.0000      -0.458929       -12.4881
  55   2.0000      -0.446646       -12.1539
  56   2.0000      -0.442992       -12.0544
  57   2.0000      -0.438552       -11.9336
  58   2.0000      -0.427965       -11.6455
  59   2.0000      -0.424851       -11.5608
  60   2.0000      -0.416199       -11.3253
  61   2.0000      -0.411561       -11.1991
  62   2.0000      -0.401839       -10.9346
  63   2.0000      -0.364728        -9.9247
  64   2.0000      -0.338169        -9.2021
  65   2.0000      -0.328501        -8.9390
  66   2.0000      -0.280840        -7.6421
  67   0.0000       0.009863         0.2684
  68   0.0000       0.083269         2.2659
  69   0.0000       0.087138         2.3712
  70   0.0000       0.121971         3.3190
  71   0.0000       0.135036         3.6745

MULLIKEN ATOMIC CHARGES
-----------------------
   0 S :    0.076149
   1 C :   -0.124226
   2 C :   -0.066129
   3 C :   -0.025155
   4 C :   -0.089238
   5 H :    0.030491
   6 C :    0.088802
   7 H :    0.006843
   8 H :    0.014056
   9 C :   -0.080821
  10 H :    0.026732
  11 H :    0.014717
  12 C :   -0.006854
  13 H :    0.038410
  14 H :    0.025216
  15 H :    0.021787
  16 S :    0.093392
  17 C :   -0.084515
  18 C :   -0.051871
  19 C :   -0.055542
  20 C :   -0.138034
  21 H :    0.038348
  22 C :    0.112613
  23 H :    0.027519
  24 H :    0.005238
  25 C :   -0.136056
  26 H :    0.018910
  27 H :    0.037028
  28 C :    0.004665
  29 H :    0.021203
  30 H :    0.010776
  31 H :    0.039778
  32 H :    0.047988
  33 H :    0.057780
Sum of atomic charges:    0.0000000

LOEWDIN ATOMIC CHARGES
----------------------
   0 S :    0.351531
   1 C :   -0.178270
   2 C :   -0.065162
   3 C :   -0.075217
   4 C :   -0.161286
   5 H :    0.040948
   6 C :   -0.023974
   7 H :    0.029261
   8 H :    0.023727
   9 C :   -0.048716
  10 H :    0.028316
  11 H :    0.018077
  12 C :   -0.062631
  13 H :    0.030504
  14 H :    0.027604
  15 H :    0.022611
  16 S :    0.406474
  17 C :   -0.179143
  18 C :   -0.076087
  19 C :   -0.052105
  20 C :   -0.185625
  21 H :    0.041357
  22 C :   -0.025049
  23 H :    0.034778
  24 H :    0.019495
  25 C :   -0.044933
  26 H :    0.015300
  27 H :    0.026466
  28 C :   -0.050594
  29 H :    0.017041
  30 H :    0.014839
  31 H :    0.026059
  32 H :    0.026154
  33 H :    0.028250

  Mayer bond orders larger than 0.100000
B(  0-S ,  1-C ) :   1.1189 B(  0-S ,  4-C ) :   1.1221 B(  1-C ,  2-C ) :   1.6210
B(  1-C , 32-H ) :   0.9727 B(  2-C ,  3-C ) :   1.2317 B(  2-C ,  6-C ) :   1.0294
B(  3-C ,  4-C ) :   1.5881 B(  3-C ,  5-H ) :   0.9729 B(  4-C , 20-C ) :   1.0936
B(  6-C ,  7-H ) :   0.9359 B(  6-C ,  8-H ) :   0.9293 B(  6-C ,  9-C ) :   1.0771
B(  9-C , 10-H ) :   0.9497 B(  9-C , 11-H ) :   0.9467 B(  9-C , 12-C ) :   1.0947
B( 12-C , 13-H ) :   0.9693 B( 12-C , 14-H ) :   0.9674 B( 12-C , 15-H ) :   0.9723
B( 16-S , 17-C ) :   1.1617 B( 16-S , 20-C ) :   1.1507 B( 17-C , 18-C ) :   1.5810
B( 17-C , 20-C ) :   0.1093 B( 17-C , 33-H ) :   0.9713 B( 18-C , 19-C ) :   1.2756
B( 18-C , 21-H ) :   0.9838 B( 19-C , 20-C ) :   1.5281 B( 19-C , 22-C ) :   1.0343
B( 22-C , 23-H ) :   0.9350 B( 22-C , 24-H ) :   0.9411 B( 22-C , 25-C ) :   1.0635
B( 25-C , 26-H ) :   0.9531 B( 25-C , 27-H ) :   0.9593 B( 25-C , 28-C ) :   1.0806
B( 28-C , 29-H ) :   0.9727 B( 28-C , 30-H ) :   0.9790 B( 28-C , 31-H ) :   0.9653

Dispersion correction           -0.014591813
FINAL SINGLE POINT ENERGY     -1339.864254669776

DIPOLE MOMENT
-------------
                                X             Y             Z
Electronic contribution:      7.18273      15.42633     -22.85457
Nuclear contribution   :     -7.11621     -15.88639      23.29789
                        -----------------------------------------
Total Dipole Moment    :      0.06652      -0.46006       0.44331
                        -----------------------------------------
Magnitude (a.u.)       :      0.64234
Magnitude (Debye)      :      1.63270

Rotational constants in cm-1:     0.021474     0.008389     0.006453
Rotational constants in MHz :   643.784083   251.498936   193.451954

                             ****ORCA TERMINATED NORMALLY****
TOTAL RUN TIME: 0 days 0 hours 0 minutes 21 seconds 902 msec
