                         Program Version 4.2.1 -  RELEASE  -
|  1> ! wB97X-D3 SP def2-SVP
|  2> %pal
|  3> nprocs 24
|  4> end
|  5>
|  6> * xyz 0 1
|  7> S 	 -95.7926 	 7.2042 	 0.277755
|  8> C 	 -94.3151 	 6.44295 	 0.896087
|  9> C 	 -93.8377 	 7.15437 	 1.95861
| 10> C 	 -94.6505 	 8.25968 	 2.30804
| 11> C 	 -95.8254 	 8.34853 	 1.58272
| 12> H 	 -94.3587 	 8.92029 	 3.14566
| 13> C 	 -92.4698 	 7.00264 	 2.58289
| 14> H 	 -92.2408 	 7.60341 	 3.47541
| 15> H 	 -91.6409 	 7.26375 	 1.92503
| 16> C 	 -92.2955 	 5.52235 	 3.02423
| 17> H 	 -93.1016 	 5.26436 	 3.71149
| 18> H 	 -92.4249 	 4.9517 	 2.08794
| 19> C 	 -90.9987 	 5.26048 	 3.77382
| 20> H 	 -90.666 	 5.95212 	 4.59973
| 21> H 	 -91.0792 	 4.25065 	 4.13981
| 22> H 	 -90.1306 	 5.17843 	 3.09864
| 23> S 	 -98.4223 	 9.02402 	 2.42004
| 24> C 	 -98.9328 	 10.701 	 2.17075
| 25> C 	 -98.0743 	 11.3103 	 1.2823
| 26> C 	 -96.9504 	 10.5548 	 0.875319
| 27> C 	 -96.8788 	 9.3492 	 1.58686
| 28> H 	 -98.3016 	 12.2959 	 0.927346
| 29> C 	 -95.8739 	 11.051 	 -0.03936
| 30> H 	 -96.346 	 11.27 	 -1.02925
| 31> H 	 -95.1852 	 10.2389 	 -0.361292
| 32> C 	 -95.0473 	 12.19 	 0.503291
| 33> H 	 -95.8191 	 12.8616 	 0.801478
| 34> H 	 -94.4299 	 12.6202 	 -0.30742
| 35> C 	 -94.2164 	 11.9412 	 1.77051
| 36> H 	 -93.4466 	 11.1607 	 1.67774
| 37> H 	 -94.8814 	 11.6125 	 2.5747
| 38> H 	 -93.7325 	 12.8721 	 2.12961
| 39> H 	 -93.8563 	 5.5908 	 0.404116
| 40> H 	 -99.8204 	 11.1603 	 2.58797
| 41> *
| 42>
| 43>                          ****END OF INPUT****

CARTESIAN COORDINATES (ANGSTROEM)
---------------------------------
  S    -95.792600    7.204200    0.277755
  C    -94.315100    6.442950    0.896087
  C    -93.837700    7.154370    1.958610
  C    -94.650500    8.259680    2.308040
  C    -95.825400    8.348530    1.582720
  H    -94.358700    8.920290    3.145660
  C    -92.469800    7.002640    2.582890
  H    -92.240800    7.603410    3.475410
  H    -91.640900    7.263750    1.925030
  C    -92.295500    5.522350    3.024230
  H    -93.101600    5.264360    3.711490
  H    -92.424900    4.951700    2.087940
  C    -90.998700    5.260480    3.773820
  H    -90.666000    5.952120    4.599730
  H    -91.079200    4.250650    4.139810
  H    -90.130600    5.178430    3.098640
  S    -98.422300    9.024020    2.420040
  C    -98.932800   10.701000    2.170750
  C    -98.074300   11.310300    1.282300
  C    -96.950400   10.554800    0.875319
  C    -96.878800    9.349200    1.586860
  H    -98.301600   12.295900    0.927346
  C    -95.873900   11.051000   -0.039360
  H    -96.346000   11.270000   -1.029250
  H    -95.185200   10.238900   -0.361292
  C    -95.047300   12.190000    0.503291
  H    -95.819100   12.861600    0.801478
  H    -94.429900   12.620200   -0.307420
  C    -94.216400   11.941200    1.770510
  H    -93.446600   11.160700    1.677740
  H    -94.881400   11.612500    2.574700
  H    -93.732500   12.872100    2.129610
  H    -93.856300    5.590800    0.404116
  H    -99.820400   11.160300    2.587970

 Total Charge           Charge          ....    0
 Multiplicity           Mult            ....    1
 Number of Electrons    NEL             ....  134
 Basis Dimension        Dim             ....  322

ORBITAL ENERGIES
----------------

  NO   OCC          E(Eh)            E(eV)
   0   2.0000     -88.964419     -2420.8449
   1   2.0000     -88.964307     -2420.8419
   2   2.0000     -10.327637      -281.0293
   3   2.0000     -10.327438      -281.0239
   4   2.0000     -10.320271      -280.8288
   5   2.0000     -10.315736      -280.7054
   6   2.0000     -10.303267      -280.3661
   7   2.0000     -10.298031      -280.2237
   8   2.0000     -10.295313      -280.1497
   9   2.0000     -10.292469      -280.0723
  10   2.0000     -10.290493      -280.0185
  11   2.0000     -10.290440      -280.0171
  12   2.0000     -10.287437      -279.9354
  13   2.0000     -10.282894      -279.8118
  14   2.0000     -10.280675      -279.7514
  15   2.0000     -10.277460      -279.6639
  16   2.0000      -8.078955      -219.8395
  17   2.0000      -8.078390      -219.8242
  18   2.0000      -6.037447      -164.2873
  19   2.0000      -6.036953      -164.2738
  20   2.0000      -6.033366      -164.1762
  21   2.0000      -6.033082      -164.1685
  22   2.0000      -6.029830      -164.0800
  23   2.0000      -6.029061      -164.0591
  24   2.0000      -1.005924       -27.3726
  25   2.0000      -0.983649       -26.7665
  26   2.0000      -0.912271       -24.8241
  27   2.0000      -0.910664       -24.7804
  28   2.0000      -0.868074       -23.6215
  29   2.0000      -0.845763       -23.0144
  30   2.0000      -0.843972       -22.9657
  31   2.0000      -0.813399       -22.1337
  32   2.0000      -0.783680       -21.3250
  33   2.0000      -0.772183       -21.0122
  34   2.0000      -0.708222       -19.2717
  35   2.0000      -0.696443       -18.9512
  36   2.0000      -0.692487       -18.8435
  37   2.0000      -0.654045       -17.7975
  38   2.0000      -0.643053       -17.4984
  39   2.0000      -0.619723       -16.8635
  40   2.0000      -0.602941       -16.4069
  41   2.0000      -0.573618       -15.6089
  42   2.0000      -0.558526       -15.1983
  43   2.0000      -0.549755       -14.9596
  44   2.0000      -0.541069       -14.7232
  45   2.0000      -0.522486       -14.2176
  46   2.0000      -0.517446       -14.0804
  47   2.0000      -0.511412       -13.9162
  48   2.0000      -0.508238       -13.8299
  49   2.0000      -0.494533       -13.4569
  50   2.0000      -0.486460       -13.2372
  51   2.0000      -0.477605       -12.9963
  52   2.0000      -0.473645       -12.8885
  53   2.0000      -0.466232       -12.6868
  54   2.0000      -0.457697       -12.4546
  55   2.0000      -0.452087       -12.3019
  56   2.0000      -0.442357       -12.0371
  57   2.0000      -0.439535       -11.9603
  58   2.0000      -0.428467       -11.6592
  59   2.0000      -0.423061       -11.5121
  60   2.0000      -0.418444       -11.3864
  61   2.0000      -0.410665       -11.1748
  62   2.0000      -0.404138       -10.9972
  63   2.0000      -0.335029        -9.1166
  64   2.0000      -0.328426        -8.9369
  65   2.0000      -0.318046        -8.6545
  66   2.0000      -0.312939        -8.5155
  67   0.0000       0.042138         1.1466
  68   0.0000       0.045746         1.2448
  69   0.0000       0.110569         3.0087
  70   0.0000       0.113866         3.0985
  71   0.0000       0.135865         3.6971

MULLIKEN ATOMIC CHARGES
-----------------------
   0 S :    0.110792
   1 C :   -0.148628
   2 C :   -0.050867
   3 C :    0.041256
   4 C :   -0.167724
   5 H :    0.023477
   6 C :    0.057506
   7 H :    0.014086
   8 H :    0.037166
   9 C :   -0.122666
  10 H :    0.038825
  11 H :    0.032222
  12 C :   -0.041229
  13 H :    0.046986
  14 H :    0.027939
  15 H :    0.022639
  16 S :    0.106441
  17 C :   -0.088626
  18 C :   -0.037671
  19 C :   -0.006505
  20 C :   -0.191559
  21 H :    0.013674
  22 C :    0.061875
  23 H :    0.036266
  24 H :    0.022503
  25 C :   -0.050098
  26 H :    0.012328
  27 H :    0.038472
  28 C :   -0.063361
  29 H :    0.033041
  30 H :    0.036703
  31 H :    0.038105
  32 H :    0.057294
  33 H :    0.059339
Sum of atomic charges:    0.0000000

LOEWDIN ATOMIC CHARGES
----------------------
   0 S :    0.410620
   1 C :   -0.188469
   2 C :   -0.067697
   3 C :   -0.057277
   4 C :   -0.200484
   5 H :    0.037737
   6 C :   -0.032751
   7 H :    0.025964
   8 H :    0.030601
   9 C :   -0.040686
  10 H :    0.026304
  11 H :    0.024987
  12 C :   -0.076885
  13 H :    0.033256
  14 H :    0.026686
  15 H :    0.024492
  16 S :    0.385373
  17 C :   -0.174429
  18 C :   -0.072447
  19 C :   -0.051832
  20 C :   -0.196905
  21 H :    0.027591
  22 C :   -0.041055
  23 H :    0.040048
  24 H :    0.029103
  25 C :   -0.040349
  26 H :    0.019446
  27 H :    0.028355
  28 C :   -0.067908
  29 H :    0.022135
  30 H :    0.026093
  31 H :    0.030631
  32 H :    0.027697
  33 H :    0.032058

  Mayer bond orders larger than 0.100000
B(  0-S ,  1-C ) :   1.1381 B(  0-S ,  4-C ) :   1.1685 B(  1-C ,  2-C ) :   1.5894
B(  1-C ,  4-C ) :   0.1018 B(  1-C , 32-H ) :   0.9705 B(  2-C ,  3-C ) :   1.2666
B(  2-C ,  6-C ) :   1.0166 B(  3-C ,  4-C ) :   1.5683 B(  3-C ,  5-H ) :   0.9937
B(  4-C , 20-C ) :   1.0118 B(  6-C ,  7-H ) :   0.9484 B(  6-C ,  8-H ) :   0.9429
B(  6-C ,  9-C ) :   1.0495 B(  9-C , 10-H ) :   0.9640 B(  9-C , 11-H ) :   0.9546
B(  9-C , 12-C ) :   1.0848 B( 12-C , 13-H ) :   0.9729 B( 12-C , 14-H ) :   0.9712
B( 12-C , 15-H ) :   0.9701 B( 16-S , 17-C ) :   1.1465 B( 16-S , 20-C ) :   1.1437
B( 17-C , 18-C ) :   1.6100 B( 17-C , 20-C ) :   0.1078 B( 17-C , 33-H ) :   0.9700
B( 18-C , 19-C ) :   1.2349 B( 18-C , 21-H ) :   0.9881 B( 19-C , 20-C ) :   1.5761
B( 19-C , 22-C ) :   1.0565 B( 22-C , 23-H ) :   0.9281 B( 22-C , 24-H ) :   0.9243
B( 22-C , 25-C ) :   1.0679 B( 25-C , 26-H ) :   0.9556 B( 25-C , 27-H ) :   0.9533
B( 25-C , 28-C ) :   1.0791 B( 28-C , 29-H ) :   0.9740 B( 28-C , 30-H ) :   0.9709
B( 28-C , 31-H ) :   0.9710

Dispersion correction           -0.015177679
FINAL SINGLE POINT ENERGY     -1339.885778922032

DIPOLE MOMENT
-------------
                                X             Y             Z
Electronic contribution:    -25.12994      -3.48906      -5.50471
Nuclear contribution   :     25.63566       3.79300       5.49135
                        -----------------------------------------
Total Dipole Moment    :      0.50572       0.30394      -0.01336
                        -----------------------------------------
Magnitude (a.u.)       :      0.59018
Magnitude (Debye)      :      1.50013

Rotational constants in cm-1:     0.022528     0.007707     0.006815
Rotational constants in MHz :   675.385320   231.063995   204.315818

                             ****ORCA TERMINATED NORMALLY****
TOTAL RUN TIME: 0 days 0 hours 0 minutes 22 seconds 30 msec
