                         Program Version 4.2.1 -  RELEASE  -
|  1> ! wB97X-D3 SP def2-SVP
|  2> %pal
|  3> nprocs 24
|  4> end
|  5>
|  6> * xyz 0 1
|  7> S 	 -42.7921 	 -8.56007 	 8.00681
|  8> C 	 -41.32 	 -8.24193 	 7.15606
|  9> C 	 -40.761 	 -6.99143 	 7.39703
| 10> C 	 -41.5745 	 -6.29402 	 8.27242
| 11> C 	 -42.7523 	 -6.93344 	 8.69942
| 12> H 	 -41.3622 	 -5.33945 	 8.86924
| 13> C 	 -39.4149 	 -6.36107 	 6.92224
| 14> H 	 -38.8209 	 -7.22445 	 6.60169
| 15> H 	 -38.8419 	 -5.92567 	 7.68838
| 16> C 	 -39.5541 	 -5.38449 	 5.70712
| 17> H 	 -38.5884 	 -5.11839 	 5.31382
| 18> H 	 -40.145 	 -5.72819 	 4.84395
| 19> C 	 -40.0638 	 -3.97206 	 6.2235
| 20> H 	 -40.4163 	 -3.3761 	 5.32733
| 21> H 	 -41.0011 	 -4.1657 	 6.77079
| 22> H 	 -39.2799 	 -3.39261 	 6.71849
| 23> S 	 -44.398 	 -7.60843 	 10.7749
| 24> C 	 -45.5525 	 -6.46028 	 11.4227
| 25> C 	 -45.3699 	 -5.20793 	 10.8537
| 26> C 	 -44.3439 	 -5.14968 	 9.81671
| 27> C 	 -43.7276 	 -6.41352 	 9.66185
| 28> H 	 -45.9369 	 -4.31657 	 11.1623
| 29> C 	 -43.9843 	 -3.78305 	 9.09565
| 30> H 	 -44.8952 	 -3.19787 	 9.1709
| 31> H 	 -43.8179 	 -4.01753 	 8.00511
| 32> C 	 -42.8582 	 -2.97912 	 9.7246
| 33> H 	 -41.9893 	 -3.34497 	 9.32006
| 34> H 	 -42.6737 	 -3.26711 	 10.7593
| 35> C 	 -43.084 	 -1.46563 	 9.54432
| 36> H 	 -42.1954 	 -0.882836 	 9.67271
| 37> H 	 -43.8225 	 -1.17441 	 10.2999
| 38> H 	 -43.4445 	 -1.07972 	 8.63092
| 39> H 	 -40.8789 	 -8.94592 	 6.43884
| 40> H 	 -46.2905 	 -6.67306 	 12.1592
| 41> *
| 42>
| 43>                          ****END OF INPUT****

CARTESIAN COORDINATES (ANGSTROEM)
---------------------------------
  S    -42.792100   -8.560070    8.006810
  C    -41.320000   -8.241930    7.156060
  C    -40.761000   -6.991430    7.397030
  C    -41.574500   -6.294020    8.272420
  C    -42.752300   -6.933440    8.699420
  H    -41.362200   -5.339450    8.869240
  C    -39.414900   -6.361070    6.922240
  H    -38.820900   -7.224450    6.601690
  H    -38.841900   -5.925670    7.688380
  C    -39.554100   -5.384490    5.707120
  H    -38.588400   -5.118390    5.313820
  H    -40.145000   -5.728190    4.843950
  C    -40.063800   -3.972060    6.223500
  H    -40.416300   -3.376100    5.327330
  H    -41.001100   -4.165700    6.770790
  H    -39.279900   -3.392610    6.718490
  S    -44.398000   -7.608430   10.774900
  C    -45.552500   -6.460280   11.422700
  C    -45.369900   -5.207930   10.853700
  C    -44.343900   -5.149680    9.816710
  C    -43.727600   -6.413520    9.661850
  H    -45.936900   -4.316570   11.162300
  C    -43.984300   -3.783050    9.095650
  H    -44.895200   -3.197870    9.170900
  H    -43.817900   -4.017530    8.005110
  C    -42.858200   -2.979120    9.724600
  H    -41.989300   -3.344970    9.320060
  H    -42.673700   -3.267110   10.759300
  C    -43.084000   -1.465630    9.544320
  H    -42.195400   -0.882836    9.672710
  H    -43.822500   -1.174410   10.299900
  H    -43.444500   -1.079720    8.630920
  H    -40.878900   -8.945920    6.438840
  H    -46.290500   -6.673060   12.159200

 Total Charge           Charge          ....    0
 Multiplicity           Mult            ....    1
 Number of Electrons    NEL             ....  134
 Basis Dimension        Dim             ....  322

ORBITAL ENERGIES
----------------

  NO   OCC          E(Eh)            E(eV)
   0   2.0000     -88.973188     -2421.0835
   1   2.0000     -88.965708     -2420.8800
   2   2.0000     -10.332442      -281.1600
   3   2.0000     -10.331069      -281.1227
   4   2.0000     -10.317989      -280.7668
   5   2.0000     -10.317330      -280.7488
   6   2.0000     -10.311792      -280.5981
   7   2.0000     -10.303528      -280.3732
   8   2.0000     -10.299325      -280.2589
   9   2.0000     -10.299157      -280.2543
  10   2.0000     -10.298082      -280.2251
  11   2.0000     -10.295401      -280.1521
  12   2.0000     -10.291936      -280.0578
  13   2.0000     -10.283787      -279.8361
  14   2.0000     -10.281515      -279.7742
  15   2.0000     -10.276349      -279.6337
  16   2.0000      -8.087472      -220.0713
  17   2.0000      -8.080174      -219.8727
  18   2.0000      -6.045848      -164.5159
  19   2.0000      -6.042063      -164.4129
  20   2.0000      -6.038735      -164.3223
  21   2.0000      -6.038379      -164.3126
  22   2.0000      -6.034699      -164.2125
  23   2.0000      -6.030928      -164.1099
  24   2.0000      -1.003853       -27.3162
  25   2.0000      -0.980117       -26.6703
  26   2.0000      -0.908630       -24.7251
  27   2.0000      -0.903823       -24.5943
  28   2.0000      -0.864904       -23.5352
  29   2.0000      -0.849872       -23.1262
  30   2.0000      -0.842696       -22.9309
  31   2.0000      -0.807951       -21.9855
  32   2.0000      -0.783244       -21.3131
  33   2.0000      -0.772702       -21.0263
  34   2.0000      -0.713896       -19.4261
  35   2.0000      -0.699642       -19.0382
  36   2.0000      -0.694046       -18.8860
  37   2.0000      -0.661976       -18.0133
  38   2.0000      -0.638840       -17.3837
  39   2.0000      -0.613166       -16.6851
  40   2.0000      -0.591643       -16.0994
  41   2.0000      -0.573204       -15.5977
  42   2.0000      -0.565880       -15.3984
  43   2.0000      -0.541576       -14.7370
  44   2.0000      -0.536898       -14.6097
  45   2.0000      -0.519147       -14.1267
  46   2.0000      -0.513362       -13.9693
  47   2.0000      -0.512842       -13.9551
  48   2.0000      -0.502720       -13.6797
  49   2.0000      -0.495621       -13.4865
  50   2.0000      -0.489767       -13.3272
  51   2.0000      -0.485285       -13.2053
  52   2.0000      -0.468491       -12.7483
  53   2.0000      -0.463240       -12.6054
  54   2.0000      -0.457828       -12.4581
  55   2.0000      -0.451599       -12.2886
  56   2.0000      -0.445258       -12.1161
  57   2.0000      -0.441799       -12.0220
  58   2.0000      -0.433319       -11.7912
  59   2.0000      -0.428696       -11.6654
  60   2.0000      -0.418174       -11.3791
  61   2.0000      -0.413915       -11.2632
  62   2.0000      -0.407778       -11.0962
  63   2.0000      -0.352038        -9.5794
  64   2.0000      -0.338905        -9.2221
  65   2.0000      -0.330262        -8.9869
  66   2.0000      -0.283613        -7.7175
  67   0.0000       0.022550         0.6136
  68   0.0000       0.073394         1.9972
  69   0.0000       0.105287         2.8650
  70   0.0000       0.127909         3.4806
  71   0.0000       0.130983         3.5642

MULLIKEN ATOMIC CHARGES
-----------------------
   0 S :    0.131465
   1 C :   -0.140178
   2 C :   -0.060295
   3 C :   -0.031197
   4 C :   -0.146211
   5 H :    0.040924
   6 C :    0.091408
   7 H :    0.018670
   8 H :    0.025001
   9 C :   -0.063699
  10 H :    0.024726
  11 H :    0.040859
  12 C :   -0.107385
  13 H :    0.035445
  14 H :    0.043448
  15 H :    0.047136
  16 S :    0.093448
  17 C :   -0.078491
  18 C :   -0.038100
  19 C :   -0.072395
  20 C :   -0.161463
  21 H :    0.026881
  22 C :    0.041102
  23 H :    0.015919
  24 H :    0.054148
  25 C :   -0.009002
  26 H :   -0.000965
  27 H :    0.029561
  28 C :   -0.036569
  29 H :    0.023868
  30 H :    0.035331
  31 H :    0.022647
  32 H :    0.052700
  33 H :    0.051259
Sum of atomic charges:   -0.0000000

LOEWDIN ATOMIC CHARGES
----------------------
   0 S :    0.418419
   1 C :   -0.202752
   2 C :   -0.068480
   3 C :   -0.077298
   4 C :   -0.199007
   5 H :    0.042982
   6 C :   -0.020110
   7 H :    0.030623
   8 H :    0.026835
   9 C :   -0.036178
  10 H :    0.020210
  11 H :    0.028390
  12 C :   -0.077346
  13 H :    0.030837
  14 H :    0.024282
  15 H :    0.024949
  16 S :    0.394947
  17 C :   -0.184489
  18 C :   -0.073048
  19 C :   -0.055800
  20 C :   -0.194060
  21 H :    0.033597
  22 C :   -0.025944
  23 H :    0.025738
  24 H :    0.039557
  25 C :   -0.038587
  26 H :    0.007395
  27 H :    0.031207
  28 C :   -0.060109
  29 H :    0.025281
  30 H :    0.030331
  31 H :    0.020759
  32 H :    0.030818
  33 H :    0.026053

  Mayer bond orders larger than 0.100000
B(  0-S ,  1-C ) :   1.1645 B(  0-S ,  4-C ) :   1.1496 B(  1-C ,  2-C ) :   1.5880
B(  1-C ,  4-C ) :   0.1062 B(  1-C , 32-H ) :   0.9594 B(  2-C ,  3-C ) :   1.2833
B(  2-C ,  6-C ) :   1.0095 B(  3-C ,  4-C ) :   1.5510 B(  3-C ,  5-H ) :   0.9692
B(  4-C , 20-C ) :   1.0689 B(  6-C ,  7-H ) :   0.9383 B(  6-C ,  8-H ) :   0.9493
B(  6-C ,  9-C ) :   1.0643 B(  9-C , 10-H ) :   0.9589 B(  9-C , 11-H ) :   0.9615
B(  9-C , 12-C ) :   1.0685 B( 12-C , 13-H ) :   0.9728 B( 12-C , 14-H ) :   0.9729
B( 12-C , 15-H ) :   0.9785 B( 16-S , 17-C ) :   1.1418 B( 16-S , 20-C ) :   1.1383
B( 17-C , 18-C ) :   1.6103 B( 17-C , 33-H ) :   0.9733 B( 18-C , 19-C ) :   1.2490
B( 18-C , 21-H ) :   0.9808 B( 19-C , 20-C ) :   1.5799 B( 19-C , 22-C ) :   1.0318
B( 22-C , 23-H ) :   0.9442 B( 22-C , 24-H ) :   0.9342 B( 22-C , 25-C ) :   1.0447
B( 25-C , 26-H ) :   0.9436 B( 25-C , 27-H ) :   0.9563 B( 25-C , 28-C ) :   1.0749
B( 28-C , 29-H ) :   0.9729 B( 28-C , 30-H ) :   0.9763 B( 28-C , 31-H ) :   0.9776

Dispersion correction           -0.014855814
FINAL SINGLE POINT ENERGY     -1339.868000827684

DIPOLE MOMENT
-------------
                                X             Y             Z
Electronic contribution:    -13.16854     -28.57491       9.52540
Nuclear contribution   :     13.49252      29.18700      -9.66628
                        -----------------------------------------
Total Dipole Moment    :      0.32398       0.61209      -0.14088
                        -----------------------------------------
Magnitude (a.u.)       :      0.70673
Magnitude (Debye)      :      1.79637

Rotational constants in cm-1:     0.015924     0.010757     0.006702
Rotational constants in MHz :   477.392486   322.489776   200.906731

                             ****ORCA TERMINATED NORMALLY****
TOTAL RUN TIME: 0 days 0 hours 0 minutes 22 seconds 74 msec
