                         Program Version 4.2.1 -  RELEASE  -
|  1> ! wB97X-D3 SP def2-SVP
|  2> %pal
|  3> nprocs 24
|  4> end
|  5>
|  6> * xyz 0 1
|  7> S 	 -64.2476 	 14.0456 	 -88.3253
|  8> C 	 -64.6788 	 14.787 	 -89.7919
|  9> C 	 -64.2736 	 16.097 	 -89.8622
| 10> C 	 -63.501 	 16.4268 	 -88.6968
| 11> C 	 -63.4181 	 15.384 	 -87.817
| 12> H 	 -63.0556 	 17.3675 	 -88.5211
| 13> C 	 -64.416 	 17.0388 	 -91.0245
| 14> H 	 -63.7033 	 16.7109 	 -91.7397
| 15> H 	 -63.7604 	 17.8553 	 -90.7843
| 16> C 	 -65.8147 	 17.4004 	 -91.5525
| 17> H 	 -66.4122 	 17.4133 	 -90.5984
| 18> H 	 -65.7742 	 18.4012 	 -92.0002
| 19> C 	 -66.392 	 16.4562 	 -92.6309
| 20> H 	 -65.8066 	 16.4401 	 -93.5425
| 21> H 	 -66.5622 	 15.5141 	 -92.0142
| 22> H 	 -67.3608 	 16.7563 	 -92.9247
| 23> S 	 -64.3754 	 15.1966 	 -85.3071
| 24> C 	 -63.2638 	 15.3369 	 -83.9356
| 25> C 	 -62.0009 	 15.6585 	 -84.3321
| 26> C 	 -61.812 	 15.5165 	 -85.7658
| 27> C 	 -63.068 	 15.4305 	 -86.3769
| 28> H 	 -61.2225 	 15.733 	 -83.5667
| 29> C 	 -60.4398 	 15.7165 	 -86.3683
| 30> H 	 -59.6825 	 16.4327 	 -85.8511
| 31> H 	 -60.6748 	 16.2523 	 -87.3358
| 32> C 	 -59.6969 	 14.4095 	 -86.6576
| 33> H 	 -58.9039 	 14.4405 	 -87.4086
| 34> H 	 -60.3708 	 13.7212 	 -87.1628
| 35> C 	 -59.1546 	 13.8821 	 -85.3113
| 36> H 	 -58.3938 	 14.4975 	 -84.9341
| 37> H 	 -58.7788 	 12.8887 	 -85.5501
| 38> H 	 -59.9603 	 13.7937 	 -84.6693
| 39> H 	 -65.3052 	 14.2451 	 -90.4865
| 40> H 	 -63.4647 	 15.135 	 -82.8887
| 41> *
| 42>
| 43>                          ****END OF INPUT****

CARTESIAN COORDINATES (ANGSTROEM)
---------------------------------
  S    -64.247600   14.045600  -88.325300
  C    -64.678800   14.787000  -89.791900
  C    -64.273600   16.097000  -89.862200
  C    -63.501000   16.426800  -88.696800
  C    -63.418100   15.384000  -87.817000
  H    -63.055600   17.367500  -88.521100
  C    -64.416000   17.038800  -91.024500
  H    -63.703300   16.710900  -91.739700
  H    -63.760400   17.855300  -90.784300
  C    -65.814700   17.400400  -91.552500
  H    -66.412200   17.413300  -90.598400
  H    -65.774200   18.401200  -92.000200
  C    -66.392000   16.456200  -92.630900
  H    -65.806600   16.440100  -93.542500
  H    -66.562200   15.514100  -92.014200
  H    -67.360800   16.756300  -92.924700
  S    -64.375400   15.196600  -85.307100
  C    -63.263800   15.336900  -83.935600
  C    -62.000900   15.658500  -84.332100
  C    -61.812000   15.516500  -85.765800
  C    -63.068000   15.430500  -86.376900
  H    -61.222500   15.733000  -83.566700
  C    -60.439800   15.716500  -86.368300
  H    -59.682500   16.432700  -85.851100
  H    -60.674800   16.252300  -87.335800
  C    -59.696900   14.409500  -86.657600
  H    -58.903900   14.440500  -87.408600
  H    -60.370800   13.721200  -87.162800
  C    -59.154600   13.882100  -85.311300
  H    -58.393800   14.497500  -84.934100
  H    -58.778800   12.888700  -85.550100
  H    -59.960300   13.793700  -84.669300
  H    -65.305200   14.245100  -90.486500
  H    -63.464700   15.135000  -82.888700

 Total Charge           Charge          ....    0
 Multiplicity           Mult            ....    1
 Number of Electrons    NEL             ....  134
 Basis Dimension        Dim             ....  322

ORBITAL ENERGIES
----------------

  NO   OCC          E(Eh)            E(eV)
   0   2.0000     -88.967206     -2420.9208
   1   2.0000     -88.962850     -2420.8022
   2   2.0000     -10.325003      -280.9576
   3   2.0000     -10.316877      -280.7365
   4   2.0000     -10.312509      -280.6176
   5   2.0000     -10.305682      -280.4319
   6   2.0000     -10.304653      -280.4039
   7   2.0000     -10.298431      -280.2346
   8   2.0000     -10.298131      -280.2264
   9   2.0000     -10.293876      -280.1106
  10   2.0000     -10.291097      -280.0350
  11   2.0000     -10.287798      -279.9452
  12   2.0000     -10.284107      -279.8448
  13   2.0000     -10.282512      -279.8014
  14   2.0000     -10.280172      -279.7377
  15   2.0000     -10.263464      -279.2831
  16   2.0000      -8.082324      -219.9312
  17   2.0000      -8.080717      -219.8875
  18   2.0000      -6.040840      -164.3796
  19   2.0000      -6.038783      -164.3236
  20   2.0000      -6.036831      -164.2705
  21   2.0000      -6.034666      -164.2116
  22   2.0000      -6.032974      -164.1656
  23   2.0000      -6.031860      -164.1352
  24   2.0000      -1.021573       -27.7984
  25   2.0000      -0.989913       -26.9369
  26   2.0000      -0.914287       -24.8790
  27   2.0000      -0.907425       -24.6923
  28   2.0000      -0.869011       -23.6470
  29   2.0000      -0.854394       -23.2492
  30   2.0000      -0.845443       -23.0057
  31   2.0000      -0.816267       -22.2118
  32   2.0000      -0.789400       -21.4807
  33   2.0000      -0.770090       -20.9552
  34   2.0000      -0.705560       -19.1993
  35   2.0000      -0.702729       -19.1222
  36   2.0000      -0.684273       -18.6200
  37   2.0000      -0.661325       -17.9956
  38   2.0000      -0.648200       -17.6384
  39   2.0000      -0.618234       -16.8230
  40   2.0000      -0.594060       -16.1652
  41   2.0000      -0.579307       -15.7638
  42   2.0000      -0.552856       -15.0440
  43   2.0000      -0.544865       -14.8265
  44   2.0000      -0.540148       -14.6982
  45   2.0000      -0.536160       -14.5897
  46   2.0000      -0.522465       -14.2170
  47   2.0000      -0.510589       -13.8938
  48   2.0000      -0.505113       -13.7448
  49   2.0000      -0.494803       -13.4643
  50   2.0000      -0.487169       -13.2565
  51   2.0000      -0.484853       -13.1935
  52   2.0000      -0.476011       -12.9529
  53   2.0000      -0.465928       -12.6785
  54   2.0000      -0.465102       -12.6561
  55   2.0000      -0.446528       -12.1506
  56   2.0000      -0.441263       -12.0074
  57   2.0000      -0.433267       -11.7898
  58   2.0000      -0.430508       -11.7147
  59   2.0000      -0.426130       -11.5956
  60   2.0000      -0.421726       -11.4757
  61   2.0000      -0.407420       -11.0864
  62   2.0000      -0.404816       -11.0156
  63   2.0000      -0.343160        -9.3379
  64   2.0000      -0.328858        -8.9487
  65   2.0000      -0.327206        -8.9037
  66   2.0000      -0.299577        -8.1519
  67   0.0000       0.043644         1.1876
  68   0.0000       0.067855         1.8464
  69   0.0000       0.113110         3.0779
  70   0.0000       0.122541         3.3345
  71   0.0000       0.126732         3.4486

MULLIKEN ATOMIC CHARGES
-----------------------
   0 S :    0.125857
   1 C :   -0.144420
   2 C :   -0.104961
   3 C :    0.046398
   4 C :   -0.151951
   5 H :   -0.004509
   6 C :    0.103801
   7 H :    0.016416
   8 H :   -0.010347
   9 C :   -0.080774
  10 H :    0.049209
  11 H :    0.031800
  12 C :   -0.026837
  13 H :    0.042412
  14 H :    0.033686
  15 H :    0.021579
  16 S :    0.127582
  17 C :   -0.102614
  18 C :   -0.022464
  19 C :   -0.028950
  20 C :   -0.165002
  21 H :    0.026383
  22 C :   -0.006891
  23 H :    0.049379
  24 H :    0.030281
  25 C :   -0.069427
  26 H :    0.022334
  27 H :    0.021588
  28 C :    0.004650
  29 H :    0.020913
  30 H :    0.027198
  31 H :    0.016556
  32 H :    0.048322
  33 H :    0.052803
Sum of atomic charges:    0.0000000

LOEWDIN ATOMIC CHARGES
----------------------
   0 S :    0.471162
   1 C :   -0.214930
   2 C :   -0.061428
   3 C :   -0.057601
   4 C :   -0.232956
   5 H :    0.024231
   6 C :   -0.047146
   7 H :    0.033659
   8 H :    0.032433
   9 C :   -0.041004
  10 H :    0.034817
  11 H :    0.024822
  12 C :   -0.064270
  13 H :    0.027879
  14 H :    0.034553
  15 H :    0.019413
  16 S :    0.418336
  17 C :   -0.187232
  18 C :   -0.069764
  19 C :   -0.059128
  20 C :   -0.211567
  21 H :    0.032407
  22 C :   -0.046809
  23 H :    0.040369
  24 H :    0.034127
  25 C :   -0.040190
  26 H :    0.021107
  27 H :    0.022937
  28 C :   -0.049753
  29 H :    0.017515
  30 H :    0.027970
  31 H :    0.014754
  32 H :    0.020801
  33 H :    0.030485

  Mayer bond orders larger than 0.100000
B(  0-S ,  1-C ) :   1.1674 B(  0-S ,  4-C ) :   1.2012 B(  1-C ,  2-C ) :   1.5698
B(  1-C , 32-H ) :   0.9724 B(  2-C ,  3-C ) :   1.2750 B(  2-C ,  6-C ) :   1.0227
B(  3-C ,  4-C ) :   1.5498 B(  3-C ,  5-H ) :   1.0032 B(  4-C , 20-C ) :   0.9773
B(  6-C ,  7-H ) :   0.9216 B(  6-C ,  8-H ) :   0.9212 B(  6-C ,  9-C ) :   1.0344
B(  9-C , 10-H ) :   0.9649 B(  9-C , 11-H ) :   0.9559 B(  9-C , 12-C ) :   1.0792
B( 12-C , 13-H ) :   0.9738 B( 12-C , 14-H ) :   0.9748 B( 12-C , 15-H ) :   0.9704
B( 16-S , 17-C ) :   1.1302 B( 16-S , 20-C ) :   1.1630 B( 17-C , 18-C ) :   1.6534
B( 17-C , 33-H ) :   0.9647 B( 18-C , 19-C ) :   1.2191 B( 18-C , 21-H ) :   0.9765
B( 19-C , 20-C ) :   1.6170 B( 19-C , 22-C ) :   1.0301 B( 22-C , 23-H ) :   0.9546
B( 22-C , 24-H ) :   0.9292 B( 22-C , 25-C ) :   1.0657 B( 25-C , 26-H ) :   0.9569
B( 25-C , 27-H ) :   0.9557 B( 25-C , 28-C ) :   1.0689 B( 28-C , 29-H ) :   0.9760
B( 28-C , 30-H ) :   0.9706 B( 28-C , 31-H ) :   0.9762

Dispersion correction           -0.014297291
FINAL SINGLE POINT ENERGY     -1339.851986036473

DIPOLE MOMENT
-------------
                                X             Y             Z
Electronic contribution:     -9.64884      -5.53812      13.32492
Nuclear contribution   :      9.85559       5.78998     -13.62954
                        -----------------------------------------
Total Dipole Moment    :      0.20675       0.25186      -0.30461
                        -----------------------------------------
Magnitude (a.u.)       :      0.44606
Magnitude (Debye)      :      1.13379

Rotational constants in cm-1:     0.026393     0.007053     0.006342
Rotational constants in MHz :   791.230088   211.442329   190.135914

                             ****ORCA TERMINATED NORMALLY****
TOTAL RUN TIME: 0 days 0 hours 0 minutes 21 seconds 307 msec
