                         Program Version 4.2.1 -  RELEASE  -
|  1> ! wB97X-D3 SP def2-SVP
|  2> %pal
|  3> nprocs 24
|  4> end
|  5>
|  6> * xyz 0 1
|  7> S 	 -47.4612 	 9.28898 	 -16.5337
|  8> C 	 -48.8118 	 9.43022 	 -15.3603
|  9> C 	 -48.5316 	 10.39 	 -14.3708
| 10> C 	 -47.2581 	 11.0054 	 -14.5208
| 11> C 	 -46.6996 	 10.6526 	 -15.7688
| 12> H 	 -46.8489 	 11.8881 	 -14.0043
| 13> C 	 -49.4498 	 10.612 	 -13.2494
| 14> H 	 -49.063 	 10.1566 	 -12.2976
| 15> H 	 -50.329 	 10.0054 	 -13.4578
| 16> C 	 -49.8721 	 12.0891 	 -12.98
| 17> H 	 -50.1642 	 12.1868 	 -11.9481
| 18> H 	 -48.9508 	 12.6342 	 -13.0446
| 19> C 	 -50.7579 	 12.6732 	 -14.0175
| 20> H 	 -51.5812 	 12.0638 	 -14.2259
| 21> H 	 -51.1847 	 13.6692 	 -13.6822
| 22> H 	 -50.3191 	 12.6769 	 -15.041
| 23> S 	 -43.9596 	 10.9296 	 -16.053
| 24> C 	 -43.4639 	 12.341 	 -17.0717
| 25> C 	 -44.5505 	 13.2063 	 -17.4105
| 26> C 	 -45.7489 	 12.7233 	 -16.9155
| 27> C 	 -45.6463 	 11.445 	 -16.3565
| 28> H 	 -44.3798 	 14.2309 	 -17.8036
| 29> C 	 -47.0222 	 13.5454 	 -17.0774
| 30> H 	 -47.8349 	 12.7684 	 -17.1927
| 31> H 	 -46.9201 	 14.0533 	 -18.0507
| 32> C 	 -47.3945 	 14.542 	 -15.9361
| 33> H 	 -46.5907 	 15.0964 	 -15.5517
| 34> H 	 -47.6248 	 13.891 	 -15.0333
| 35> C 	 -48.6529 	 15.4624 	 -16.2216
| 36> H 	 -49.5092 	 14.8254 	 -16.0255
| 37> H 	 -48.8071 	 16.0121 	 -17.1876
| 38> H 	 -48.7415 	 16.2171 	 -15.5042
| 39> H 	 -49.661 	 8.78978 	 -15.2456
| 40> H 	 -42.4439 	 12.6757 	 -17.3053
| 41> *
| 42>
| 43>                          ****END OF INPUT****

CARTESIAN COORDINATES (ANGSTROEM)
---------------------------------
  S    -47.461200    9.288980  -16.533700
  C    -48.811800    9.430220  -15.360300
  C    -48.531600   10.390000  -14.370800
  C    -47.258100   11.005400  -14.520800
  C    -46.699600   10.652600  -15.768800
  H    -46.848900   11.888100  -14.004300
  C    -49.449800   10.612000  -13.249400
  H    -49.063000   10.156600  -12.297600
  H    -50.329000   10.005400  -13.457800
  C    -49.872100   12.089100  -12.980000
  H    -50.164200   12.186800  -11.948100
  H    -48.950800   12.634200  -13.044600
  C    -50.757900   12.673200  -14.017500
  H    -51.581200   12.063800  -14.225900
  H    -51.184700   13.669200  -13.682200
  H    -50.319100   12.676900  -15.041000
  S    -43.959600   10.929600  -16.053000
  C    -43.463900   12.341000  -17.071700
  C    -44.550500   13.206300  -17.410500
  C    -45.748900   12.723300  -16.915500
  C    -45.646300   11.445000  -16.356500
  H    -44.379800   14.230900  -17.803600
  C    -47.022200   13.545400  -17.077400
  H    -47.834900   12.768400  -17.192700
  H    -46.920100   14.053300  -18.050700
  C    -47.394500   14.542000  -15.936100
  H    -46.590700   15.096400  -15.551700
  H    -47.624800   13.891000  -15.033300
  C    -48.652900   15.462400  -16.221600
  H    -49.509200   14.825400  -16.025500
  H    -48.807100   16.012100  -17.187600
  H    -48.741500   16.217100  -15.504200
  H    -49.661000    8.789780  -15.245600
  H    -42.443900   12.675700  -17.305300

 Total Charge           Charge          ....    0
 Multiplicity           Mult            ....    1
 Number of Electrons    NEL             ....  134
 Basis Dimension        Dim             ....  322

ORBITAL ENERGIES
----------------

  NO   OCC          E(Eh)            E(eV)
   0   2.0000     -88.973130     -2421.0820
   1   2.0000     -88.972480     -2421.0643
   2   2.0000     -10.328614      -281.0559
   3   2.0000     -10.326447      -280.9969
   4   2.0000     -10.324810      -280.9524
   5   2.0000     -10.316022      -280.7132
   6   2.0000     -10.301531      -280.3189
   7   2.0000     -10.301139      -280.3082
   8   2.0000     -10.297992      -280.2226
   9   2.0000     -10.297397      -280.2064
  10   2.0000     -10.296618      -280.1852
  11   2.0000     -10.294819      -280.1363
  12   2.0000     -10.291394      -280.0431
  13   2.0000     -10.283372      -279.8248
  14   2.0000     -10.279441      -279.7178
  15   2.0000     -10.277500      -279.6650
  16   2.0000      -8.086200      -220.0367
  17   2.0000      -8.085861      -220.0275
  18   2.0000      -6.044644      -164.4831
  19   2.0000      -6.044326      -164.4745
  20   2.0000      -6.040885      -164.3808
  21   2.0000      -6.040873      -164.3805
  22   2.0000      -6.037052      -164.2765
  23   2.0000      -6.036564      -164.2633
  24   2.0000      -1.001103       -27.2414
  25   2.0000      -0.976036       -26.5593
  26   2.0000      -0.917268       -24.9601
  27   2.0000      -0.897232       -24.4149
  28   2.0000      -0.866946       -23.5908
  29   2.0000      -0.850801       -23.1515
  30   2.0000      -0.848330       -23.0842
  31   2.0000      -0.808910       -22.0116
  32   2.0000      -0.782846       -21.3023
  33   2.0000      -0.768420       -20.9098
  34   2.0000      -0.713519       -19.4158
  35   2.0000      -0.703832       -19.1522
  36   2.0000      -0.691776       -18.8242
  37   2.0000      -0.661639       -18.0041
  38   2.0000      -0.637369       -17.3437
  39   2.0000      -0.615613       -16.7517
  40   2.0000      -0.586882       -15.9699
  41   2.0000      -0.565078       -15.3765
  42   2.0000      -0.556768       -15.1504
  43   2.0000      -0.549365       -14.9490
  44   2.0000      -0.533850       -14.5268
  45   2.0000      -0.522283       -14.2121
  46   2.0000      -0.514653       -14.0044
  47   2.0000      -0.509001       -13.8506
  48   2.0000      -0.504406       -13.7256
  49   2.0000      -0.497229       -13.5303
  50   2.0000      -0.488153       -13.2833
  51   2.0000      -0.478133       -13.0107
  52   2.0000      -0.468125       -12.7383
  53   2.0000      -0.464969       -12.6525
  54   2.0000      -0.455271       -12.3886
  55   2.0000      -0.454032       -12.3548
  56   2.0000      -0.449660       -12.2359
  57   2.0000      -0.437739       -11.9115
  58   2.0000      -0.433956       -11.8085
  59   2.0000      -0.424828       -11.5601
  60   2.0000      -0.423250       -11.5172
  61   2.0000      -0.416662       -11.3379
  62   2.0000      -0.409010       -11.1297
  63   2.0000      -0.340216        -9.2578
  64   2.0000      -0.332377        -9.0444
  65   2.0000      -0.310483        -8.4487
  66   2.0000      -0.303067        -8.2469
  67   0.0000       0.032281         0.8784
  68   0.0000       0.042200         1.1483
  69   0.0000       0.097660         2.6575
  70   0.0000       0.110184         2.9983
  71   0.0000       0.119582         3.2540

MULLIKEN ATOMIC CHARGES
-----------------------
   0 S :    0.132520
   1 C :   -0.105665
   2 C :   -0.109934
   3 C :    0.058441
   4 C :   -0.204131
   5 H :    0.038777
   6 C :    0.039207
   7 H :    0.047279
   8 H :    0.003065
   9 C :   -0.033696
  10 H :    0.023311
  11 H :    0.010506
  12 C :   -0.038223
  13 H :    0.003079
  14 H :    0.046674
  15 H :    0.043743
  16 S :    0.117103
  17 C :   -0.097487
  18 C :   -0.055221
  19 C :   -0.012570
  20 C :   -0.196312
  21 H :    0.039158
  22 C :    0.053991
  23 H :    0.043609
  24 H :    0.028377
  25 C :   -0.055333
  26 H :    0.015703
  27 H :    0.017785
  28 C :   -0.031646
  29 H :    0.021892
  30 H :    0.044314
  31 H :    0.014486
  32 H :    0.037875
  33 H :    0.059322
Sum of atomic charges:   -0.0000000

LOEWDIN ATOMIC CHARGES
----------------------
   0 S :    0.404585
   1 C :   -0.192738
   2 C :   -0.063370
   3 C :   -0.058689
   4 C :   -0.201759
   5 H :    0.035940
   6 C :   -0.036610
   7 H :    0.041056
   8 H :    0.024046
   9 C :   -0.040548
  10 H :    0.024609
  11 H :    0.019044
  12 C :   -0.069541
  13 H :    0.014441
  14 H :    0.037039
  15 H :    0.034313
  16 S :    0.381293
  17 C :   -0.172231
  18 C :   -0.073892
  19 C :   -0.054901
  20 C :   -0.198885
  21 H :    0.041272
  22 C :   -0.032077
  23 H :    0.039256
  24 H :    0.030327
  25 C :   -0.036227
  26 H :    0.013135
  27 H :    0.030223
  28 C :   -0.068759
  29 H :    0.026126
  30 H :    0.032763
  31 H :    0.018429
  32 H :    0.022964
  33 H :    0.029367

  Mayer bond orders larger than 0.100000
B(  0-S ,  1-C ) :   1.1181 B(  0-S ,  4-C ) :   1.1684 B(  1-C ,  2-C ) :   1.6061
B(  1-C , 32-H ) :   0.9655 B(  2-C ,  3-C ) :   1.2315 B(  2-C ,  6-C ) :   1.0472
B(  3-C ,  4-C ) :   1.5523 B(  3-C ,  5-H ) :   0.9800 B(  4-C , 20-C ) :   1.0330
B(  6-C ,  7-H ) :   0.9328 B(  6-C ,  8-H ) :   0.9373 B(  6-C ,  9-C ) :   1.0645
B(  9-C , 10-H ) :   0.9526 B(  9-C , 11-H ) :   0.9556 B(  9-C , 12-C ) :   1.0760
B( 12-C , 13-H ) :   0.9678 B( 12-C , 14-H ) :   0.9704 B( 12-C , 15-H ) :   0.9629
B( 16-S , 17-C ) :   1.1524 B( 16-S , 20-C ) :   1.1357 B( 17-C , 18-C ) :   1.5976
B( 17-C , 20-C ) :   0.1187 B( 17-C , 33-H ) :   0.9619 B( 18-C , 19-C ) :   1.2776
B( 18-C , 21-H ) :   0.9761 B( 19-C , 20-C ) :   1.5842 B( 19-C , 22-C ) :   1.0325
B( 22-C , 23-H ) :   0.9330 B( 22-C , 24-H ) :   0.9422 B( 22-C , 25-C ) :   1.0507
B( 25-C , 26-H ) :   0.9624 B( 25-C , 27-H ) :   0.9462 B( 25-C , 28-C ) :   1.0692
B( 28-C , 29-H ) :   0.9765 B( 28-C , 30-H ) :   0.9779 B( 28-C , 31-H ) :   0.9724

Dispersion correction           -0.016714091
FINAL SINGLE POINT ENERGY     -1339.849274665419

DIPOLE MOMENT
-------------
                                X             Y             Z
Electronic contribution:     22.25184     -21.49585      -8.87240
Nuclear contribution   :    -22.62224      22.07676       9.24128
                        -----------------------------------------
Total Dipole Moment    :     -0.37040       0.58091       0.36888
                        -----------------------------------------
Magnitude (a.u.)       :      0.78149
Magnitude (Debye)      :      1.98639

Rotational constants in cm-1:     0.017338     0.010809     0.007705
Rotational constants in MHz :   519.773112   324.059445   230.982136

                             ****ORCA TERMINATED NORMALLY****
TOTAL RUN TIME: 0 days 0 hours 0 minutes 22 seconds 179 msec
