                         Program Version 4.2.1 -  RELEASE  -
|  1> ! wB97X-D3 SP def2-SVP
|  2> %pal
|  3> nprocs 24
|  4> end
|  5>
|  6> * xyz 0 1
|  7> S 	 -99.3185 	 4.62704 	 -7.0601
|  8> C 	 -97.9339 	 5.7529 	 -7.06477
|  9> C 	 -98.3804 	 7.12216 	 -6.90619
| 10> C 	 -99.8015 	 7.15634 	 -6.73897
| 11> C 	 -100.495 	 5.9225 	 -6.82727
| 12> H 	 -100.383 	 8.06348 	 -6.65031
| 13> C 	 -97.5425 	 8.32473 	 -7.00913
| 14> H 	 -98.1651 	 9.19426 	 -7.04731
| 15> H 	 -96.9254 	 8.22008 	 -7.94034
| 16> C 	 -96.5891 	 8.55671 	 -5.81865
| 17> H 	 -95.9975 	 7.68025 	 -5.61339
| 18> H 	 -95.8264 	 9.32822 	 -6.09688
| 19> C 	 -97.3077 	 8.91597 	 -4.49191
| 20> H 	 -98.114 	 9.61546 	 -4.66242
| 21> H 	 -97.8199 	 8.08011 	 -4.04944
| 22> H 	 -96.5854 	 9.28177 	 -3.67937
| 23> S 	 -102.748 	 5.24282 	 -8.36568
| 24> C 	 -104.301 	 5.29528 	 -7.55451
| 25> C 	 -104.101 	 5.63644 	 -6.19787
| 26> C 	 -102.776 	 5.84594 	 -5.80672
| 27> C 	 -101.936 	 5.75435 	 -6.89125
| 28> H 	 -105.016 	 5.66398 	 -5.55118
| 29> C 	 -102.511 	 5.98233 	 -4.33964
| 30> H 	 -101.599 	 5.55735 	 -3.91077
| 31> H 	 -103.365 	 5.45154 	 -3.77126
| 32> C 	 -102.304 	 7.41719 	 -3.83636
| 33> H 	 -101.599 	 7.9158 	 -4.47403
| 34> H 	 -101.883 	 7.47217 	 -2.88541
| 35> C 	 -103.551 	 8.24043 	 -3.90564
| 36> H 	 -104.399 	 7.87453 	 -3.28008
| 37> H 	 -103.95 	 8.27807 	 -4.94141
| 38> H 	 -103.424 	 9.3206 	 -3.63976
| 39> H 	 -96.8193 	 5.451 	 -7.13791
| 40> H 	 -105.267 	 5.14627 	 -7.99037
| 41> *
| 42>
| 43>                          ****END OF INPUT****

CARTESIAN COORDINATES (ANGSTROEM)
---------------------------------
  S    -99.318500    4.627040   -7.060100
  C    -97.933900    5.752900   -7.064770
  C    -98.380400    7.122160   -6.906190
  C    -99.801500    7.156340   -6.738970
  C    -100.495000    5.922500   -6.827270
  H    -100.383000    8.063480   -6.650310
  C    -97.542500    8.324730   -7.009130
  H    -98.165100    9.194260   -7.047310
  H    -96.925400    8.220080   -7.940340
  C    -96.589100    8.556710   -5.818650
  H    -95.997500    7.680250   -5.613390
  H    -95.826400    9.328220   -6.096880
  C    -97.307700    8.915970   -4.491910
  H    -98.114000    9.615460   -4.662420
  H    -97.819900    8.080110   -4.049440
  H    -96.585400    9.281770   -3.679370
  S    -102.748000    5.242820   -8.365680
  C    -104.301000    5.295280   -7.554510
  C    -104.101000    5.636440   -6.197870
  C    -102.776000    5.845940   -5.806720
  C    -101.936000    5.754350   -6.891250
  H    -105.016000    5.663980   -5.551180
  C    -102.511000    5.982330   -4.339640
  H    -101.599000    5.557350   -3.910770
  H    -103.365000    5.451540   -3.771260
  C    -102.304000    7.417190   -3.836360
  H    -101.599000    7.915800   -4.474030
  H    -101.883000    7.472170   -2.885410
  C    -103.551000    8.240430   -3.905640
  H    -104.399000    7.874530   -3.280080
  H    -103.950000    8.278070   -4.941410
  H    -103.424000    9.320600   -3.639760
  H    -96.819300    5.451000   -7.137910
  H    -105.267000    5.146270   -7.990370

 Total Charge           Charge          ....    0
 Multiplicity           Mult            ....    1
 Number of Electrons    NEL             ....  134
 Basis Dimension        Dim             ....  322

ORBITAL ENERGIES
----------------

  NO   OCC          E(Eh)            E(eV)
   0   2.0000     -88.971624     -2421.0410
   1   2.0000     -88.971506     -2421.0378
   2   2.0000     -10.331833      -281.1435
   3   2.0000     -10.330249      -281.1004
   4   2.0000     -10.327488      -281.0252
   5   2.0000     -10.320402      -280.8324
   6   2.0000     -10.307651      -280.4854
   7   2.0000     -10.301323      -280.3132
   8   2.0000     -10.298256      -280.2298
   9   2.0000     -10.296713      -280.1878
  10   2.0000     -10.296227      -280.1746
  11   2.0000     -10.293989      -280.1137
  12   2.0000     -10.290520      -280.0193
  13   2.0000     -10.280940      -279.7586
  14   2.0000     -10.275958      -279.6230
  15   2.0000     -10.275597      -279.6132
  16   2.0000      -8.085837      -220.0268
  17   2.0000      -8.084743      -219.9970
  18   2.0000      -6.044363      -164.4755
  19   2.0000      -6.043286      -164.4462
  20   2.0000      -6.040358      -164.3665
  21   2.0000      -6.039221      -164.3355
  22   2.0000      -6.036664      -164.2660
  23   2.0000      -6.035799      -164.2425
  24   2.0000      -1.004397       -27.3310
  25   2.0000      -0.976892       -26.5826
  26   2.0000      -0.914541       -24.8859
  27   2.0000      -0.913363       -24.8539
  28   2.0000      -0.862050       -23.4576
  29   2.0000      -0.853666       -23.2294
  30   2.0000      -0.844037       -22.9674
  31   2.0000      -0.806423       -21.9439
  32   2.0000      -0.782712       -21.2987
  33   2.0000      -0.770238       -20.9592
  34   2.0000      -0.708795       -19.2873
  35   2.0000      -0.704774       -19.1779
  36   2.0000      -0.689407       -18.7597
  37   2.0000      -0.659343       -17.9416
  38   2.0000      -0.635167       -17.2838
  39   2.0000      -0.611995       -16.6532
  40   2.0000      -0.598632       -16.2896
  41   2.0000      -0.574070       -15.6212
  42   2.0000      -0.553605       -15.0644
  43   2.0000      -0.549556       -14.9542
  44   2.0000      -0.543677       -14.7942
  45   2.0000      -0.533746       -14.5240
  46   2.0000      -0.513609       -13.9760
  47   2.0000      -0.509040       -13.8517
  48   2.0000      -0.501250       -13.6397
  49   2.0000      -0.498954       -13.5772
  50   2.0000      -0.482971       -13.1423
  51   2.0000      -0.478177       -13.0118
  52   2.0000      -0.470739       -12.8095
  53   2.0000      -0.465566       -12.6687
  54   2.0000      -0.459606       -12.5065
  55   2.0000      -0.440092       -11.9755
  56   2.0000      -0.437063       -11.8931
  57   2.0000      -0.434633       -11.8270
  58   2.0000      -0.430204       -11.7064
  59   2.0000      -0.429459       -11.6862
  60   2.0000      -0.420921       -11.4538
  61   2.0000      -0.418332       -11.3834
  62   2.0000      -0.416664       -11.3380
  63   2.0000      -0.338117        -9.2006
  64   2.0000      -0.332311        -9.0426
  65   2.0000      -0.325353        -8.8533
  66   2.0000      -0.296023        -8.0552
  67   0.0000       0.029035         0.7901
  68   0.0000       0.051590         1.4038
  69   0.0000       0.113690         3.0937
  70   0.0000       0.115378         3.1396
  71   0.0000       0.121550         3.3076

MULLIKEN ATOMIC CHARGES
-----------------------
   0 S :    0.122309
   1 C :   -0.160329
   2 C :   -0.096520
   3 C :    0.042424
   4 C :   -0.187683
   5 H :    0.016226
   6 C :    0.067697
   7 H :    0.017737
   8 H :    0.050221
   9 C :   -0.073085
  10 H :    0.021146
  11 H :    0.036222
  12 C :   -0.072395
  13 H :    0.020655
  14 H :    0.034717
  15 H :    0.049728
  16 S :    0.131738
  17 C :   -0.099643
  18 C :   -0.065196
  19 C :    0.031605
  20 C :   -0.186831
  21 H :    0.035551
  22 C :    0.035187
  23 H :    0.032843
  24 H :    0.042665
  25 C :   -0.007919
  26 H :    0.009662
  27 H :    0.013973
  28 C :   -0.095327
  29 H :    0.025580
  30 H :    0.034166
  31 H :    0.033622
  32 H :    0.085819
  33 H :    0.053434
Sum of atomic charges:    0.0000000

LOEWDIN ATOMIC CHARGES
----------------------
   0 S :    0.402571
   1 C :   -0.211355
   2 C :   -0.064730
   3 C :   -0.059287
   4 C :   -0.199501
   5 H :    0.027368
   6 C :   -0.034525
   7 H :    0.027453
   8 H :    0.044903
   9 C :   -0.040748
  10 H :    0.018741
  11 H :    0.027608
  12 C :   -0.072695
  13 H :    0.018670
  14 H :    0.024153
  15 H :    0.037716
  16 S :    0.414012
  17 C :   -0.187998
  18 C :   -0.072352
  19 C :   -0.057634
  20 C :   -0.203226
  21 H :    0.037326
  22 C :   -0.030485
  23 H :    0.036469
  24 H :    0.040727
  25 C :   -0.036076
  26 H :    0.023806
  27 H :    0.016393
  28 C :   -0.078260
  29 H :    0.022063
  30 H :    0.026537
  31 H :    0.026837
  32 H :    0.047658
  33 H :    0.027860

  Mayer bond orders larger than 0.100000
B(  0-S ,  1-C ) :   1.1599 B(  0-S ,  4-C ) :   1.1567 B(  1-C ,  2-C ) :   1.5435
B(  1-C ,  4-C ) :   0.1154 B(  1-C , 32-H ) :   0.9555 B(  2-C ,  3-C ) :   1.2871
B(  2-C ,  6-C ) :   1.0325 B(  3-C ,  4-C ) :   1.5453 B(  3-C ,  5-H ) :   0.9795
B(  4-C , 20-C ) :   1.0446 B(  6-C ,  7-H ) :   0.9430 B(  6-C ,  8-H ) :   0.9350
B(  6-C ,  9-C ) :   1.0729 B(  9-C , 10-H ) :   0.9580 B(  9-C , 11-H ) :   0.9584
B(  9-C , 12-C ) :   1.0634 B( 12-C , 13-H ) :   0.9777 B( 12-C , 14-H ) :   0.9747
B( 12-C , 15-H ) :   0.9744 B( 16-S , 17-C ) :   1.1576 B( 16-S , 20-C ) :   1.1497
B( 17-C , 18-C ) :   1.5935 B( 17-C , 20-C ) :   0.1050 B( 17-C , 33-H ) :   0.9711
B( 18-C , 19-C ) :   1.2611 B( 18-C , 21-H ) :   0.9790 B( 19-C , 20-C ) :   1.5782
B( 19-C , 22-C ) :   1.0301 B( 22-C , 23-H ) :   0.9311 B( 22-C , 24-H ) :   0.9468
B( 22-C , 25-C ) :   1.0695 B( 25-C , 26-H ) :   0.9459 B( 25-C , 27-H ) :   0.9540
B( 25-C , 28-C ) :   1.0826 B( 28-C , 29-H ) :   0.9740 B( 28-C , 30-H ) :   0.9713
B( 28-C , 31-H ) :   0.9722

Dispersion correction           -0.015203904
FINAL SINGLE POINT ENERGY     -1339.874442291992

DIPOLE MOMENT
-------------
                                X             Y             Z
Electronic contribution:     -5.91349     -20.40459     -19.45134
Nuclear contribution   :      5.99177      20.78726      19.76356
                        -----------------------------------------
Total Dipole Moment    :      0.07828       0.38266       0.31222
                        -----------------------------------------
Magnitude (a.u.)       :      0.50004
Magnitude (Debye)      :      1.27100

Rotational constants in cm-1:     0.019117     0.009277     0.007027
Rotational constants in MHz :   573.120128   278.112793   210.663210

                             ****ORCA TERMINATED NORMALLY****
TOTAL RUN TIME: 0 days 0 hours 0 minutes 22 seconds 133 msec
