                         Program Version 4.2.1 -  RELEASE  -
|  1> ! wB97X-D3 SP def2-SVP
|  2> %pal
|  3> nprocs 24
|  4> end
|  5>
|  6> * xyz 0 1
|  7> S 	 -40.123 	 -45.1695 	 -74.5866
|  8> C 	 -41.514 	 -44.4594 	 -73.9452
|  9> C 	 -41.8877 	 -43.2709 	 -74.6525
| 10> C 	 -40.8477 	 -42.955 	 -75.6498
| 11> C 	 -39.8251 	 -43.8822 	 -75.7135
| 12> H 	 -40.83 	 -42.1792 	 -76.402
| 13> C 	 -43.0288 	 -42.2969 	 -74.2581
| 14> H 	 -43.7712 	 -42.9123 	 -73.7494
| 15> H 	 -43.5838 	 -41.899 	 -75.1327
| 16> C 	 -42.6372 	 -41.2182 	 -73.3173
| 17> H 	 -42.4749 	 -41.6249 	 -72.3178
| 18> H 	 -41.6705 	 -40.8153 	 -73.5016
| 19> C 	 -43.6007 	 -40.0067 	 -73.1335
| 20> H 	 -43.4268 	 -39.2879 	 -72.3256
| 21> H 	 -43.3464 	 -39.4308 	 -73.9667
| 22> H 	 -44.6294 	 -40.3992 	 -73.0413
| 23> S 	 -37.1244 	 -44.2543 	 -75.7865
| 24> C 	 -36.2277 	 -44.0185 	 -77.2673
| 25> C 	 -37.1049 	 -43.7526 	 -78.2747
| 26> C 	 -38.4985 	 -43.7167 	 -77.9414
| 27> C 	 -38.672 	 -43.9226 	 -76.576
| 28> H 	 -36.747 	 -43.5411 	 -79.2756
| 29> C 	 -39.6649 	 -43.4278 	 -78.8644
| 30> H 	 -39.1743 	 -42.7466 	 -79.6164
| 31> H 	 -40.4212 	 -42.8738 	 -78.3184
| 32> C 	 -40.2368 	 -44.6461 	 -79.5989
| 33> H 	 -40.9112 	 -45.27 	 -79.0477
| 34> H 	 -39.3889 	 -45.283 	 -80.0063
| 35> C 	 -41.0307 	 -44.2278 	 -80.8908
| 36> H 	 -41.9195 	 -43.6656 	 -80.6596
| 37> H 	 -41.2247 	 -45.17 	 -81.4223
| 38> H 	 -40.5173 	 -43.6346 	 -81.6496
| 39> H 	 -42.15 	 -44.8049 	 -73.2295
| 40> H 	 -35.1546 	 -44.038 	 -77.2446
| 41> *
| 42>
| 43>                          ****END OF INPUT****

CARTESIAN COORDINATES (ANGSTROEM)
---------------------------------
  S    -40.123000  -45.169500  -74.586600
  C    -41.514000  -44.459400  -73.945200
  C    -41.887700  -43.270900  -74.652500
  C    -40.847700  -42.955000  -75.649800
  C    -39.825100  -43.882200  -75.713500
  H    -40.830000  -42.179200  -76.402000
  C    -43.028800  -42.296900  -74.258100
  H    -43.771200  -42.912300  -73.749400
  H    -43.583800  -41.899000  -75.132700
  C    -42.637200  -41.218200  -73.317300
  H    -42.474900  -41.624900  -72.317800
  H    -41.670500  -40.815300  -73.501600
  C    -43.600700  -40.006700  -73.133500
  H    -43.426800  -39.287900  -72.325600
  H    -43.346400  -39.430800  -73.966700
  H    -44.629400  -40.399200  -73.041300
  S    -37.124400  -44.254300  -75.786500
  C    -36.227700  -44.018500  -77.267300
  C    -37.104900  -43.752600  -78.274700
  C    -38.498500  -43.716700  -77.941400
  C    -38.672000  -43.922600  -76.576000
  H    -36.747000  -43.541100  -79.275600
  C    -39.664900  -43.427800  -78.864400
  H    -39.174300  -42.746600  -79.616400
  H    -40.421200  -42.873800  -78.318400
  C    -40.236800  -44.646100  -79.598900
  H    -40.911200  -45.270000  -79.047700
  H    -39.388900  -45.283000  -80.006300
  C    -41.030700  -44.227800  -80.890800
  H    -41.919500  -43.665600  -80.659600
  H    -41.224700  -45.170000  -81.422300
  H    -40.517300  -43.634600  -81.649600
  H    -42.150000  -44.804900  -73.229500
  H    -35.154600  -44.038000  -77.244600

 Total Charge           Charge          ....    0
 Multiplicity           Mult            ....    1
 Number of Electrons    NEL             ....  134
 Basis Dimension        Dim             ....  322

ORBITAL ENERGIES
----------------

  NO   OCC          E(Eh)            E(eV)
   0   2.0000     -88.968059     -2420.9440
   1   2.0000     -88.961383     -2420.7623
   2   2.0000     -10.326861      -281.0082
   3   2.0000     -10.326067      -280.9866
   4   2.0000     -10.317583      -280.7557
   5   2.0000     -10.313187      -280.6361
   6   2.0000     -10.310856      -280.5726
   7   2.0000     -10.304582      -280.4019
   8   2.0000     -10.298239      -280.2293
   9   2.0000     -10.297669      -280.2138
  10   2.0000     -10.297366      -280.2056
  11   2.0000     -10.295593      -280.1573
  12   2.0000     -10.292502      -280.0732
  13   2.0000     -10.278031      -279.6794
  14   2.0000     -10.277383      -279.6618
  15   2.0000     -10.276229      -279.6304
  16   2.0000      -8.083822      -219.9720
  17   2.0000      -8.076326      -219.7680
  18   2.0000      -6.042202      -164.4167
  19   2.0000      -6.038025      -164.3030
  20   2.0000      -6.034817      -164.2157
  21   2.0000      -6.034801      -164.2153
  22   2.0000      -6.030740      -164.1048
  23   2.0000      -6.027163      -164.0075
  24   2.0000      -1.009263       -27.4634
  25   2.0000      -0.984866       -26.7996
  26   2.0000      -0.912947       -24.8426
  27   2.0000      -0.906642       -24.6710
  28   2.0000      -0.873762       -23.7763
  29   2.0000      -0.850903       -23.1543
  30   2.0000      -0.843973       -22.9657
  31   2.0000      -0.816743       -22.2247
  32   2.0000      -0.783808       -21.3285
  33   2.0000      -0.772792       -21.0287
  34   2.0000      -0.706954       -19.2372
  35   2.0000      -0.698973       -19.0200
  36   2.0000      -0.696633       -18.9564
  37   2.0000      -0.665360       -18.1054
  38   2.0000      -0.649371       -17.6703
  39   2.0000      -0.617669       -16.8076
  40   2.0000      -0.598774       -16.2935
  41   2.0000      -0.568870       -15.4797
  42   2.0000      -0.565140       -15.3782
  43   2.0000      -0.559543       -15.2259
  44   2.0000      -0.531654       -14.4670
  45   2.0000      -0.528306       -14.3759
  46   2.0000      -0.523471       -14.2444
  47   2.0000      -0.511577       -13.9207
  48   2.0000      -0.507201       -13.8016
  49   2.0000      -0.502522       -13.6743
  50   2.0000      -0.495723       -13.4893
  51   2.0000      -0.478362       -13.0169
  52   2.0000      -0.475813       -12.9475
  53   2.0000      -0.462970       -12.5981
  54   2.0000      -0.459127       -12.4935
  55   2.0000      -0.457084       -12.4379
  56   2.0000      -0.440903       -11.9976
  57   2.0000      -0.437870       -11.9150
  58   2.0000      -0.432257       -11.7623
  59   2.0000      -0.425405       -11.5759
  60   2.0000      -0.418275       -11.3818
  61   2.0000      -0.408130       -11.1058
  62   2.0000      -0.402917       -10.9639
  63   2.0000      -0.352945        -9.6041
  64   2.0000      -0.330470        -8.9925
  65   2.0000      -0.328861        -8.9488
  66   2.0000      -0.291145        -7.9225
  67   0.0000       0.030757         0.8369
  68   0.0000       0.071492         1.9454
  69   0.0000       0.111171         3.0251
  70   0.0000       0.118275         3.2184
  71   0.0000       0.135596         3.6898

MULLIKEN ATOMIC CHARGES
-----------------------
   0 S :    0.134109
   1 C :   -0.055697
   2 C :   -0.125839
   3 C :    0.031819
   4 C :   -0.158008
   5 H :    0.012304
   6 C :    0.072461
   7 H :    0.016188
   8 H :    0.030786
   9 C :   -0.061222
  10 H :    0.013559
  11 H :    0.015074
  12 C :   -0.045767
  13 H :    0.034451
  14 H :    0.022220
  15 H :    0.040491
  16 S :    0.088481
  17 C :   -0.082633
  18 C :   -0.029851
  19 C :   -0.027236
  20 C :   -0.170719
  21 H :    0.012557
  22 C :    0.082369
  23 H :    0.026780
  24 H :    0.017320
  25 C :   -0.065961
  26 H :    0.041168
  27 H :    0.038464
  28 C :   -0.070471
  29 H :    0.032479
  30 H :    0.034909
  31 H :    0.025260
  32 H :    0.010531
  33 H :    0.059622
Sum of atomic charges:   -0.0000000

LOEWDIN ATOMIC CHARGES
----------------------
   0 S :    0.444405
   1 C :   -0.204075
   2 C :   -0.051723
   3 C :   -0.064068
   4 C :   -0.205437
   5 H :    0.026714
   6 C :   -0.035232
   7 H :    0.030356
   8 H :    0.032747
   9 C :   -0.046063
  10 H :    0.021812
  11 H :    0.018487
  12 C :   -0.065133
  13 H :    0.030515
  14 H :    0.018999
  15 H :    0.027914
  16 S :    0.394055
  17 C :   -0.178275
  18 C :   -0.073116
  19 C :   -0.057043
  20 C :   -0.193349
  21 H :    0.028803
  22 C :   -0.032320
  23 H :    0.038706
  24 H :    0.027926
  25 C :   -0.033971
  26 H :    0.025510
  27 H :    0.033130
  28 C :   -0.070345
  29 H :    0.020262
  30 H :    0.029112
  31 H :    0.021026
  32 H :    0.010480
  33 H :    0.029191

  Mayer bond orders larger than 0.100000
B(  0-S ,  1-C ) :   1.1652 B(  0-S ,  4-C ) :   1.1579 B(  1-C ,  2-C ) :   1.5803
B(  1-C , 32-H ) :   0.9775 B(  2-C ,  3-C ) :   1.2368 B(  2-C ,  6-C ) :   1.0390
B(  3-C ,  4-C ) :   1.5837 B(  3-C ,  5-H ) :   0.9880 B(  4-C , 20-C ) :   1.0394
B(  6-C ,  7-H ) :   0.9316 B(  6-C ,  8-H ) :   0.9452 B(  6-C ,  9-C ) :   1.0567
B(  9-C , 10-H ) :   0.9507 B(  9-C , 11-H ) :   0.9630 B(  9-C , 12-C ) :   1.0658
B( 12-C , 13-H ) :   0.9749 B( 12-C , 14-H ) :   0.9794 B( 12-C , 15-H ) :   0.9773
B( 16-S , 17-C ) :   1.1494 B( 16-S , 20-C ) :   1.1473 B( 17-C , 18-C ) :   1.5899
B( 17-C , 20-C ) :   0.1015 B( 17-C , 33-H ) :   0.9769 B( 18-C , 19-C ) :   1.2438
B( 18-C , 21-H ) :   0.9898 B( 19-C , 20-C ) :   1.5817 B( 19-C , 22-C ) :   1.0387
B( 22-C , 23-H ) :   0.9342 B( 22-C , 24-H ) :   0.9305 B( 22-C , 25-C ) :   1.0627
B( 25-C , 26-H ) :   0.9562 B( 25-C , 27-H ) :   0.9595 B( 25-C , 28-C ) :   1.0738
B( 28-C , 29-H ) :   0.9771 B( 28-C , 30-H ) :   0.9767 B( 28-C , 31-H ) :   0.9772

Dispersion correction           -0.013496949
FINAL SINGLE POINT ENERGY     -1339.870696107939

DIPOLE MOMENT
-------------
                                X             Y             Z
Electronic contribution:     20.45553     -14.05813       9.52548
Nuclear contribution   :    -20.73120      14.39508      -9.87667
                        -----------------------------------------
Total Dipole Moment    :     -0.27568       0.33695      -0.35120
                        -----------------------------------------
Magnitude (a.u.)       :      0.55935
Magnitude (Debye)      :      1.42176

Rotational constants in cm-1:     0.017634     0.007889     0.006534
Rotational constants in MHz :   528.667986   236.515637   195.885193

                             ****ORCA TERMINATED NORMALLY****
TOTAL RUN TIME: 0 days 0 hours 0 minutes 19 seconds 775 msec
