                         Program Version 4.2.1 -  RELEASE  -
|  1> ! wB97X-D3 SP def2-SVP
|  2> %pal
|  3> nprocs 24
|  4> end
|  5>
|  6> * xyz 0 1
|  7> S 	 -1.52452 	 -21.7742 	 -103.861
|  8> C 	 -1.30332 	 -23.2309 	 -104.761
|  9> C 	 -2.43521 	 -24.0431 	 -104.873
| 10> C 	 -3.55813 	 -23.4807 	 -104.147
| 11> C 	 -3.16984 	 -22.3682 	 -103.387
| 12> H 	 -4.66986 	 -23.8591 	 -104.032
| 13> C 	 -2.52847 	 -25.2296 	 -105.745
| 14> H 	 -1.98966 	 -26.0978 	 -105.333
| 15> H 	 -2.06822 	 -25.1124 	 -106.692
| 16> C 	 -3.98332 	 -25.6157 	 -106.053
| 17> H 	 -4.436 	 -26.0362 	 -105.093
| 18> H 	 -4.56181 	 -24.6937 	 -106.343
| 19> C 	 -4.09553 	 -26.6467 	 -107.185
| 20> H 	 -3.33082 	 -27.3871 	 -107.057
| 21> H 	 -5.13514 	 -26.9659 	 -107.166
| 22> H 	 -3.81454 	 -26.2722 	 -108.192
| 23> S 	 -4.33139 	 -19.9683 	 -102.667
| 24> C 	 -5.45739 	 -19.9431 	 -101.36
| 25> C 	 -5.52363 	 -21.2082 	 -100.767
| 26> C 	 -4.71127 	 -22.1601 	 -101.371
| 27> C 	 -3.99752 	 -21.6673 	 -102.427
| 28> H 	 -6.19152 	 -21.4455 	 -99.9662
| 29> C 	 -4.77205 	 -23.627 	 -100.901
| 30> H 	 -4.93113 	 -24.1272 	 -101.859
| 31> H 	 -5.78849 	 -23.7573 	 -100.402
| 32> C 	 -3.60404 	 -24.1166 	 -100.137
| 33> H 	 -2.67946 	 -23.9935 	 -100.696
| 34> H 	 -3.68168 	 -25.2051 	 -99.9034
| 35> C 	 -3.64387 	 -23.2199 	 -98.83
| 36> H 	 -2.80604 	 -23.6504 	 -98.2449
| 37> H 	 -4.66674 	 -23.292 	 -98.4387
| 38> H 	 -3.29863 	 -22.2592 	 -98.9674
| 39> H 	 -0.372309 	 -23.5155 	 -105.192
| 40> H 	 -6.00628 	 -19.0921 	 -100.928
| 41> *
| 42>
| 43>                          ****END OF INPUT****

CARTESIAN COORDINATES (ANGSTROEM)
---------------------------------
  S     -1.524520  -21.774200  -103.861000
  C     -1.303320  -23.230900  -104.761000
  C     -2.435210  -24.043100  -104.873000
  C     -3.558130  -23.480700  -104.147000
  C     -3.169840  -22.368200  -103.387000
  H     -4.669860  -23.859100  -104.032000
  C     -2.528470  -25.229600  -105.745000
  H     -1.989660  -26.097800  -105.333000
  H     -2.068220  -25.112400  -106.692000
  C     -3.983320  -25.615700  -106.053000
  H     -4.436000  -26.036200  -105.093000
  H     -4.561810  -24.693700  -106.343000
  C     -4.095530  -26.646700  -107.185000
  H     -3.330820  -27.387100  -107.057000
  H     -5.135140  -26.965900  -107.166000
  H     -3.814540  -26.272200  -108.192000
  S     -4.331390  -19.968300  -102.667000
  C     -5.457390  -19.943100  -101.360000
  C     -5.523630  -21.208200  -100.767000
  C     -4.711270  -22.160100  -101.371000
  C     -3.997520  -21.667300  -102.427000
  H     -6.191520  -21.445500  -99.966200
  C     -4.772050  -23.627000  -100.901000
  H     -4.931130  -24.127200  -101.859000
  H     -5.788490  -23.757300  -100.402000
  C     -3.604040  -24.116600  -100.137000
  H     -2.679460  -23.993500  -100.696000
  H     -3.681680  -25.205100  -99.903400
  C     -3.643870  -23.219900  -98.830000
  H     -2.806040  -23.650400  -98.244900
  H     -4.666740  -23.292000  -98.438700
  H     -3.298630  -22.259200  -98.967400
  H     -0.372309  -23.515500  -105.192000
  H     -6.006280  -19.092100  -100.928000

 Total Charge           Charge          ....    0
 Multiplicity           Mult            ....    1
 Number of Electrons    NEL             ....  134
 Basis Dimension        Dim             ....  322

ORBITAL ENERGIES
----------------

  NO   OCC          E(Eh)            E(eV)
   0   2.0000     -88.969110     -2420.9726
   1   2.0000     -88.966114     -2420.8910
   2   2.0000     -10.332569      -281.1635
   3   2.0000     -10.319707      -280.8135
   4   2.0000     -10.316867      -280.7362
   5   2.0000     -10.311276      -280.5841
   6   2.0000     -10.308695      -280.5138
   7   2.0000     -10.303567      -280.3743
   8   2.0000     -10.294668      -280.1322
   9   2.0000     -10.293706      -280.1060
  10   2.0000     -10.289554      -279.9930
  11   2.0000     -10.287176      -279.9283
  12   2.0000     -10.285920      -279.8941
  13   2.0000     -10.284697      -279.8608
  14   2.0000     -10.280291      -279.7410
  15   2.0000     -10.271544      -279.5029
  16   2.0000      -8.083197      -219.9550
  17   2.0000      -8.081144      -219.8991
  18   2.0000      -6.041608      -164.4005
  19   2.0000      -6.039583      -164.3454
  20   2.0000      -6.037976      -164.3017
  21   2.0000      -6.035476      -164.2337
  22   2.0000      -6.033925      -164.1914
  23   2.0000      -6.032109      -164.1420
  24   2.0000      -1.007018       -27.4023
  25   2.0000      -0.982172       -26.7263
  26   2.0000      -0.914793       -24.8928
  27   2.0000      -0.912145       -24.8207
  28   2.0000      -0.868445       -23.6316
  29   2.0000      -0.849679       -23.1209
  30   2.0000      -0.844599       -22.9827
  31   2.0000      -0.810125       -22.0446
  32   2.0000      -0.779797       -21.2194
  33   2.0000      -0.768923       -20.9235
  34   2.0000      -0.712681       -19.3930
  35   2.0000      -0.696461       -18.9517
  36   2.0000      -0.683452       -18.5977
  37   2.0000      -0.662752       -18.0344
  38   2.0000      -0.640584       -17.4312
  39   2.0000      -0.613183       -16.6856
  40   2.0000      -0.588477       -16.0133
  41   2.0000      -0.567680       -15.4474
  42   2.0000      -0.565331       -15.3834
  43   2.0000      -0.559088       -15.2136
  44   2.0000      -0.545819       -14.8525
  45   2.0000      -0.533236       -14.5101
  46   2.0000      -0.512666       -13.9504
  47   2.0000      -0.502980       -13.6868
  48   2.0000      -0.501829       -13.6555
  49   2.0000      -0.492370       -13.3981
  50   2.0000      -0.485766       -13.2184
  51   2.0000      -0.479491       -13.0476
  52   2.0000      -0.473059       -12.8726
  53   2.0000      -0.470828       -12.8119
  54   2.0000      -0.454616       -12.3707
  55   2.0000      -0.452151       -12.3037
  56   2.0000      -0.446279       -12.1439
  57   2.0000      -0.436607       -11.8807
  58   2.0000      -0.431039       -11.7292
  59   2.0000      -0.427580       -11.6351
  60   2.0000      -0.414657       -11.2834
  61   2.0000      -0.413284       -11.2460
  62   2.0000      -0.399615       -10.8741
  63   2.0000      -0.344494        -9.3742
  64   2.0000      -0.334495        -9.1021
  65   2.0000      -0.328400        -8.9362
  66   2.0000      -0.286122        -7.7858
  67   0.0000       0.028099         0.7646
  68   0.0000       0.063553         1.7294
  69   0.0000       0.106833         2.9071
  70   0.0000       0.122173         3.3245
  71   0.0000       0.131902         3.5892

MULLIKEN ATOMIC CHARGES
-----------------------
   0 S :    0.115893
   1 C :   -0.097030
   2 C :   -0.089123
   3 C :   -0.016825
   4 C :   -0.172913
   5 H :    0.080460
   6 C :    0.085567
   7 H :    0.036120
   8 H :    0.013701
   9 C :   -0.172756
  10 H :    0.042500
  11 H :    0.050418
  12 C :   -0.005309
  13 H :    0.018281
  14 H :    0.044803
  15 H :    0.030676
  16 S :    0.119219
  17 C :   -0.097685
  18 C :   -0.046178
  19 C :   -0.050576
  20 C :   -0.172427
  21 H :    0.004379
  22 C :    0.060656
  23 H :   -0.001098
  24 H :    0.029821
  25 C :   -0.048841
  26 H :    0.041567
  27 H :    0.039082
  28 C :   -0.042227
  29 H :    0.029236
  30 H :    0.037463
  31 H :    0.034963
  32 H :    0.032842
  33 H :    0.065340
Sum of atomic charges:   -0.0000000

LOEWDIN ATOMIC CHARGES
----------------------
   0 S :    0.389983
   1 C :   -0.196319
   2 C :   -0.065053
   3 C :   -0.068516
   4 C :   -0.179758
   5 H :    0.057728
   6 C :   -0.040177
   7 H :    0.036500
   8 H :    0.025402
   9 C :   -0.047944
  10 H :    0.027551
  11 H :    0.029901
  12 C :   -0.065346
  13 H :    0.020875
  14 H :    0.031446
  15 H :    0.027975
  16 S :    0.422412
  17 C :   -0.200972
  18 C :   -0.073442
  19 C :   -0.058399
  20 C :   -0.210146
  21 H :    0.025304
  22 C :   -0.037692
  23 H :    0.021229
  24 H :    0.033062
  25 C :   -0.037755
  26 H :    0.028721
  27 H :    0.028843
  28 C :   -0.056936
  29 H :    0.030123
  30 H :    0.026861
  31 H :    0.016352
  32 H :    0.020583
  33 H :    0.037607

  Mayer bond orders larger than 0.100000
B(  0-S ,  1-C ) :   1.1397 B(  0-S ,  4-C ) :   1.1320 B(  1-C ,  2-C ) :   1.6245
B(  1-C ,  4-C ) :   0.1012 B(  1-C , 32-H ) :   0.9714 B(  2-C ,  3-C ) :   1.2290
B(  2-C ,  6-C ) :   1.0253 B(  3-C ,  4-C ) :   1.5839 B(  3-C ,  5-H ) :   0.9567
B(  4-C , 20-C ) :   1.0459 B(  6-C ,  7-H ) :   0.9140 B(  6-C ,  8-H ) :   0.9420
B(  6-C ,  9-C ) :   1.0911 B(  9-C , 10-H ) :   0.9454 B(  9-C , 11-H ) :   0.9534
B(  9-C , 12-C ) :   1.0784 B( 12-C , 13-H ) :   0.9712 B( 12-C , 14-H ) :   0.9719
B( 12-C , 15-H ) :   0.9724 B( 16-S , 17-C ) :   1.1716 B( 16-S , 20-C ) :   1.1488
B( 17-C , 18-C ) :   1.5669 B( 17-C , 20-C ) :   0.1060 B( 17-C , 33-H ) :   0.9648
B( 18-C , 19-C ) :   1.2866 B( 18-C , 21-H ) :   0.9910 B( 19-C , 20-C ) :   1.5886
B( 19-C , 22-C ) :   1.0008 B( 22-C , 23-H ) :   0.9214 B( 22-C , 24-H ) :   0.9443
B( 22-C , 25-C ) :   1.0794 B( 25-C , 26-H ) :   0.9519 B( 25-C , 27-H ) :   0.9563
B( 25-C , 28-C ) :   1.0609 B( 28-C , 29-H ) :   0.9722 B( 28-C , 30-H ) :   0.9767
B( 28-C , 31-H ) :   0.9738

Dispersion correction           -0.014719303
FINAL SINGLE POINT ENERGY     -1339.862113480976

DIPOLE MOMENT
-------------
                                X             Y             Z
Electronic contribution:      5.72990      24.82065      -0.71766
Nuclear contribution   :     -5.90993     -25.43091       0.66761
                        -----------------------------------------
Total Dipole Moment    :     -0.18003      -0.61026      -0.05005
                        -----------------------------------------
Magnitude (a.u.)       :      0.63823
Magnitude (Debye)      :      1.62224

Rotational constants in cm-1:     0.019321     0.008305     0.007380
Rotational constants in MHz :   579.221414   248.978290   221.246038

                             ****ORCA TERMINATED NORMALLY****
TOTAL RUN TIME: 0 days 0 hours 0 minutes 21 seconds 107 msec
