                         Program Version 4.2.1 -  RELEASE  -
|  1> ! wB97X-D3 SP def2-SVP
|  2> %pal
|  3> nprocs 24
|  4> end
|  5>
|  6> * xyz 0 1
|  7> S 	 -48.7484 	 19.2987 	 33.0211
|  8> C 	 -49.5138 	 20.6826 	 33.8009
|  9> C 	 -48.8567 	 21.7987 	 33.478
| 10> C 	 -47.911 	 21.6241 	 32.4308
| 11> C 	 -47.776 	 20.3346 	 31.9943
| 12> H 	 -47.3417 	 22.4863 	 32.0022
| 13> C 	 -49.1887 	 23.1469 	 33.9532
| 14> H 	 -48.2926 	 23.6105 	 34.2856
| 15> H 	 -49.8306 	 22.9481 	 34.9043
| 16> C 	 -49.9652 	 23.9368 	 32.8907
| 17> H 	 -49.3066 	 24.2115 	 31.972
| 18> H 	 -50.9491 	 23.4281 	 32.7591
| 19> C 	 -50.3206 	 25.3368 	 33.4242
| 20> H 	 -50.6274 	 25.882 	 32.4803
| 21> H 	 -51.252 	 25.2473 	 34.0287
| 22> H 	 -49.4786 	 25.8239 	 33.9494
| 23> S 	 -46.5825 	 20.2686 	 29.5793
| 24> C 	 -45.1925 	 19.2146 	 29.4195
| 25> C 	 -44.8031 	 18.6296 	 30.5969
| 26> C 	 -45.6761 	 18.9191 	 31.6465
| 27> C 	 -46.68 	 19.8056 	 31.2399
| 28> H 	 -43.9033 	 18.0584 	 30.7102
| 29> C 	 -45.4135 	 18.4779 	 33.0577
| 30> H 	 -45.8721 	 19.273 	 33.72
| 31> H 	 -44.3375 	 18.4205 	 33.3548
| 32> C 	 -46.0001 	 17.0588 	 33.4212
| 33> H 	 -45.3795 	 16.3636 	 32.8852
| 34> H 	 -46.9858 	 16.8452 	 33.0786
| 35> C 	 -46.0252 	 16.9126 	 34.9574
| 36> H 	 -46.5628 	 17.7343 	 35.4879
| 37> H 	 -45.0705 	 17.0082 	 35.352
| 38> H 	 -46.4712 	 15.9803 	 35.2069
| 39> H 	 -50.2433 	 20.6635 	 34.6333
| 40> H 	 -44.6331 	 19.1113 	 28.5209
| 41> *
| 42>
| 43>                          ****END OF INPUT****

CARTESIAN COORDINATES (ANGSTROEM)
---------------------------------
  S    -48.748400   19.298700   33.021100
  C    -49.513800   20.682600   33.800900
  C    -48.856700   21.798700   33.478000
  C    -47.911000   21.624100   32.430800
  C    -47.776000   20.334600   31.994300
  H    -47.341700   22.486300   32.002200
  C    -49.188700   23.146900   33.953200
  H    -48.292600   23.610500   34.285600
  H    -49.830600   22.948100   34.904300
  C    -49.965200   23.936800   32.890700
  H    -49.306600   24.211500   31.972000
  H    -50.949100   23.428100   32.759100
  C    -50.320600   25.336800   33.424200
  H    -50.627400   25.882000   32.480300
  H    -51.252000   25.247300   34.028700
  H    -49.478600   25.823900   33.949400
  S    -46.582500   20.268600   29.579300
  C    -45.192500   19.214600   29.419500
  C    -44.803100   18.629600   30.596900
  C    -45.676100   18.919100   31.646500
  C    -46.680000   19.805600   31.239900
  H    -43.903300   18.058400   30.710200
  C    -45.413500   18.477900   33.057700
  H    -45.872100   19.273000   33.720000
  H    -44.337500   18.420500   33.354800
  C    -46.000100   17.058800   33.421200
  H    -45.379500   16.363600   32.885200
  H    -46.985800   16.845200   33.078600
  C    -46.025200   16.912600   34.957400
  H    -46.562800   17.734300   35.487900
  H    -45.070500   17.008200   35.352000
  H    -46.471200   15.980300   35.206900
  H    -50.243300   20.663500   34.633300
  H    -44.633100   19.111300   28.520900

 Total Charge           Charge          ....    0
 Multiplicity           Mult            ....    1
 Number of Electrons    NEL             ....  134
 Basis Dimension        Dim             ....  322

ORBITAL ENERGIES
----------------

  NO   OCC          E(Eh)            E(eV)
   0   2.0000     -88.968538     -2420.9570
   1   2.0000     -88.961421     -2420.7633
   2   2.0000     -10.323543      -280.9179
   3   2.0000     -10.320337      -280.8306
   4   2.0000     -10.310749      -280.5697
   5   2.0000     -10.310486      -280.5626
   6   2.0000     -10.298035      -280.2238
   7   2.0000     -10.296196      -280.1737
   8   2.0000     -10.294251      -280.1208
   9   2.0000     -10.292088      -280.0620
  10   2.0000     -10.291889      -280.0565
  11   2.0000     -10.287339      -279.9327
  12   2.0000     -10.286877      -279.9202
  13   2.0000     -10.284723      -279.8615
  14   2.0000     -10.279870      -279.7295
  15   2.0000     -10.267841      -279.4022
  16   2.0000      -8.083517      -219.9637
  17   2.0000      -8.075753      -219.7524
  18   2.0000      -6.041805      -164.4059
  19   2.0000      -6.038111      -164.3054
  20   2.0000      -6.034396      -164.2042
  21   2.0000      -6.034383      -164.2039
  22   2.0000      -6.030351      -164.0942
  23   2.0000      -6.026338      -163.9850
  24   2.0000      -1.012384       -27.5484
  25   2.0000      -0.989394       -26.9228
  26   2.0000      -0.916977       -24.9522
  27   2.0000      -0.902598       -24.5610
  28   2.0000      -0.874098       -23.7854
  29   2.0000      -0.853960       -23.2374
  30   2.0000      -0.844474       -22.9793
  31   2.0000      -0.814197       -22.1554
  32   2.0000      -0.778323       -21.1793
  33   2.0000      -0.765383       -20.8271
  34   2.0000      -0.708068       -19.2675
  35   2.0000      -0.697254       -18.9733
  36   2.0000      -0.685972       -18.6662
  37   2.0000      -0.667632       -18.1672
  38   2.0000      -0.632281       -17.2052
  39   2.0000      -0.618196       -16.8220
  40   2.0000      -0.598927       -16.2976
  41   2.0000      -0.577316       -15.7096
  42   2.0000      -0.561623       -15.2825
  43   2.0000      -0.556091       -15.1320
  44   2.0000      -0.531161       -14.4536
  45   2.0000      -0.524187       -14.2638
  46   2.0000      -0.513866       -13.9830
  47   2.0000      -0.510667       -13.8959
  48   2.0000      -0.503203       -13.6928
  49   2.0000      -0.499133       -13.5821
  50   2.0000      -0.491609       -13.3773
  51   2.0000      -0.474649       -12.9159
  52   2.0000      -0.468902       -12.7595
  53   2.0000      -0.464244       -12.6327
  54   2.0000      -0.454482       -12.3671
  55   2.0000      -0.447641       -12.1809
  56   2.0000      -0.441910       -12.0250
  57   2.0000      -0.439529       -11.9602
  58   2.0000      -0.431389       -11.7387
  59   2.0000      -0.421043       -11.4572
  60   2.0000      -0.419664       -11.4196
  61   2.0000      -0.413761       -11.2590
  62   2.0000      -0.409333       -11.1385
  63   2.0000      -0.347310        -9.4508
  64   2.0000      -0.334053        -9.0900
  65   2.0000      -0.324326        -8.8254
  66   2.0000      -0.291196        -7.9238
  67   0.0000       0.035120         0.9557
  68   0.0000       0.070190         1.9100
  69   0.0000       0.104614         2.8467
  70   0.0000       0.120628         3.2825
  71   0.0000       0.132135         3.5956

MULLIKEN ATOMIC CHARGES
-----------------------
   0 S :    0.089811
   1 C :   -0.119589
   2 C :   -0.082741
   3 C :    0.011521
   4 C :   -0.120926
   5 H :    0.026682
   6 C :    0.050637
   7 H :    0.019832
   8 H :    0.023864
   9 C :   -0.112132
  10 H :    0.055756
  11 H :    0.045942
  12 C :   -0.065664
  13 H :    0.041142
  14 H :    0.036886
  15 H :    0.044296
  16 S :    0.126153
  17 C :   -0.081018
  18 C :   -0.020538
  19 C :    0.008219
  20 C :   -0.188548
  21 H :    0.009106
  22 C :   -0.017086
  23 H :    0.041735
  24 H :    0.036575
  25 C :   -0.048960
  26 H :    0.018435
  27 H :    0.021453
  28 C :   -0.007727
  29 H :    0.030038
  30 H :    0.005392
  31 H :    0.028888
  32 H :    0.051933
  33 H :    0.040635
Sum of atomic charges:    0.0000000

LOEWDIN ATOMIC CHARGES
----------------------
   0 S :    0.404867
   1 C :   -0.195660
   2 C :   -0.078421
   3 C :   -0.061902
   4 C :   -0.194918
   5 H :    0.036385
   6 C :   -0.038453
   7 H :    0.024122
   8 H :    0.036795
   9 C :   -0.045710
  10 H :    0.038106
  11 H :    0.036034
  12 C :   -0.075872
  13 H :    0.032000
  14 H :    0.025522
  15 H :    0.025405
  16 S :    0.425655
  17 C :   -0.182475
  18 C :   -0.063674
  19 C :   -0.061393
  20 C :   -0.207132
  21 H :    0.031121
  22 C :   -0.039713
  23 H :    0.032363
  24 H :    0.034675
  25 C :   -0.032986
  26 H :    0.019368
  27 H :    0.012313
  28 C :   -0.057225
  29 H :    0.031123
  30 H :    0.012376
  31 H :    0.021641
  32 H :    0.035637
  33 H :    0.020023

  Mayer bond orders larger than 0.100000
B(  0-S ,  1-C ) :   1.1154 B(  0-S ,  4-C ) :   1.1408 B(  1-C ,  2-C ) :   1.6452
B(  1-C , 32-H ) :   0.9594 B(  2-C ,  3-C ) :   1.2354 B(  2-C ,  6-C ) :   1.0390
B(  3-C ,  4-C ) :   1.5766 B(  3-C ,  5-H ) :   0.9854 B(  4-C , 20-C ) :   1.0158
B(  6-C ,  7-H ) :   0.9265 B(  6-C ,  8-H ) :   0.9411 B(  6-C ,  9-C ) :   1.0714
B(  9-C , 10-H ) :   0.9569 B(  9-C , 11-H ) :   0.9541 B(  9-C , 12-C ) :   1.0721
B( 12-C , 13-H ) :   0.9778 B( 12-C , 14-H ) :   0.9777 B( 12-C , 15-H ) :   0.9731
B( 16-S , 17-C ) :   1.1552 B( 16-S , 20-C ) :   1.1613 B( 17-C , 18-C ) :   1.5925
B( 17-C , 20-C ) :   0.1022 B( 17-C , 33-H ) :   0.9703 B( 18-C , 19-C ) :   1.2665
B( 18-C , 21-H ) :   0.9932 B( 19-C , 20-C ) :   1.5708 B( 19-C , 22-C ) :   1.0361
B( 22-C , 23-H ) :   0.9406 B( 22-C , 24-H ) :   0.9451 B( 22-C , 25-C ) :   1.0415
B( 25-C , 26-H ) :   0.9553 B( 25-C , 27-H ) :   0.9603 B( 25-C , 28-C ) :   1.0783
B( 28-C , 29-H ) :   0.9734 B( 28-C , 30-H ) :   0.9720 B( 28-C , 31-H ) :   0.9751

Dispersion correction           -0.014569640
FINAL SINGLE POINT ENERGY     -1339.868063111169

DIPOLE MOMENT
-------------
                                X             Y             Z
Electronic contribution:      2.20141      -7.28660     -16.30443
Nuclear contribution   :     -1.97001       7.59875      16.65575
                        -----------------------------------------
Total Dipole Moment    :      0.23141       0.31215       0.35132
                        -----------------------------------------
Magnitude (a.u.)       :      0.52385
Magnitude (Debye)      :      1.33151

Rotational constants in cm-1:     0.020136     0.008625     0.006589
Rotational constants in MHz :   603.647634   258.572162   197.523708

                             ****ORCA TERMINATED NORMALLY****
TOTAL RUN TIME: 0 days 0 hours 0 minutes 21 seconds 721 msec
