                         Program Version 4.2.1 -  RELEASE  -
|  1> ! wB97X-D3 SP def2-SVP
|  2> %pal
|  3> nprocs 24
|  4> end
|  5>
|  6> * xyz 0 1
|  7> S 	 -46.1267 	 -2.94908 	 -18.8082
|  8> C 	 -46.1744 	 -2.88145 	 -17.0355
|  9> C 	 -45.0515 	 -3.58884 	 -16.5597
| 10> C 	 -44.1991 	 -4.07984 	 -17.5977
| 11> C 	 -44.6034 	 -3.81518 	 -18.8886
| 12> H 	 -43.3037 	 -4.66771 	 -17.5903
| 13> C 	 -44.8494 	 -3.86968 	 -15.1101
| 14> H 	 -43.8175 	 -4.15237 	 -15.0772
| 15> H 	 -45.4427 	 -4.6859 	 -14.8272
| 16> C 	 -45.0145 	 -2.68029 	 -14.1227
| 17> H 	 -44.2896 	 -2.53112 	 -13.398
| 18> H 	 -44.8449 	 -1.82653 	 -14.7727
| 19> C 	 -46.3341 	 -2.62243 	 -13.4759
| 20> H 	 -47.1817 	 -2.56942 	 -14.2032
| 21> H 	 -46.5092 	 -3.43147 	 -12.7944
| 22> H 	 -46.4844 	 -1.67459 	 -12.9647
| 23> S 	 -44.9604 	 -5.35228 	 -21.128
| 24> C 	 -43.5245 	 -5.60278 	 -22.1242
| 25> C 	 -42.4733 	 -4.80363 	 -21.774
| 26> C 	 -42.7081 	 -4.14059 	 -20.5512
| 27> C 	 -44.0069 	 -4.29143 	 -20.0957
| 28> H 	 -41.626 	 -4.86757 	 -22.4222
| 29> C 	 -41.5643 	 -3.31505 	 -20.0192
| 30> H 	 -40.6946 	 -3.90538 	 -20.3911
| 31> H 	 -41.4663 	 -3.55773 	 -18.9656
| 32> C 	 -41.411 	 -1.89373 	 -20.4294
| 33> H 	 -41.1837 	 -1.78536 	 -21.4963
| 34> H 	 -40.5632 	 -1.52159 	 -19.9107
| 35> C 	 -42.6557 	 -1.03464 	 -20.0553
| 36> H 	 -43.5848 	 -1.53329 	 -20.5158
| 37> H 	 -42.5632 	 0.0300144 	 -20.4234
| 38> H 	 -42.9139 	 -1.01698 	 -19.0068
| 39> H 	 -47.0275 	 -2.60959 	 -16.4675
| 40> H 	 -43.5846 	 -6.10754 	 -23.0626
| 41> *
| 42>
| 43>                          ****END OF INPUT****

CARTESIAN COORDINATES (ANGSTROEM)
---------------------------------
  S    -46.126700   -2.949080  -18.808200
  C    -46.174400   -2.881450  -17.035500
  C    -45.051500   -3.588840  -16.559700
  C    -44.199100   -4.079840  -17.597700
  C    -44.603400   -3.815180  -18.888600
  H    -43.303700   -4.667710  -17.590300
  C    -44.849400   -3.869680  -15.110100
  H    -43.817500   -4.152370  -15.077200
  H    -45.442700   -4.685900  -14.827200
  C    -45.014500   -2.680290  -14.122700
  H    -44.289600   -2.531120  -13.398000
  H    -44.844900   -1.826530  -14.772700
  C    -46.334100   -2.622430  -13.475900
  H    -47.181700   -2.569420  -14.203200
  H    -46.509200   -3.431470  -12.794400
  H    -46.484400   -1.674590  -12.964700
  S    -44.960400   -5.352280  -21.128000
  C    -43.524500   -5.602780  -22.124200
  C    -42.473300   -4.803630  -21.774000
  C    -42.708100   -4.140590  -20.551200
  C    -44.006900   -4.291430  -20.095700
  H    -41.626000   -4.867570  -22.422200
  C    -41.564300   -3.315050  -20.019200
  H    -40.694600   -3.905380  -20.391100
  H    -41.466300   -3.557730  -18.965600
  C    -41.411000   -1.893730  -20.429400
  H    -41.183700   -1.785360  -21.496300
  H    -40.563200   -1.521590  -19.910700
  C    -42.655700   -1.034640  -20.055300
  H    -43.584800   -1.533290  -20.515800
  H    -42.563200    0.030014  -20.423400
  H    -42.913900   -1.016980  -19.006800
  H    -47.027500   -2.609590  -16.467500
  H    -43.584600   -6.107540  -23.062600

 Total Charge           Charge          ....    0
 Multiplicity           Mult            ....    1
 Number of Electrons    NEL             ....  134
 Basis Dimension        Dim             ....  322

ORBITAL ENERGIES
----------------

  NO   OCC          E(Eh)            E(eV)
   0   2.0000     -88.966978     -2420.9145
   1   2.0000     -88.962578     -2420.7948
   2   2.0000     -10.326756      -281.0053
   3   2.0000     -10.326083      -280.9870
   4   2.0000     -10.315296      -280.6935
   5   2.0000     -10.314424      -280.6698
   6   2.0000     -10.304411      -280.3973
   7   2.0000     -10.303047      -280.3602
   8   2.0000     -10.291465      -280.0450
   9   2.0000     -10.290229      -280.0114
  10   2.0000     -10.289004      -279.9780
  11   2.0000     -10.284164      -279.8463
  12   2.0000     -10.281916      -279.7852
  13   2.0000     -10.277708      -279.6707
  14   2.0000     -10.275935      -279.6224
  15   2.0000     -10.275780      -279.6182
  16   2.0000      -8.081584      -219.9111
  17   2.0000      -8.076734      -219.7791
  18   2.0000      -6.040050      -164.3581
  19   2.0000      -6.036204      -164.2535
  20   2.0000      -6.035277      -164.2282
  21   2.0000      -6.032289      -164.1469
  22   2.0000      -6.031125      -164.1152
  23   2.0000      -6.027673      -164.0213
  24   2.0000      -1.008253       -27.4360
  25   2.0000      -0.983137       -26.7525
  26   2.0000      -0.918626       -24.9971
  27   2.0000      -0.912324       -24.8256
  28   2.0000      -0.874979       -23.8094
  29   2.0000      -0.850985       -23.1565
  30   2.0000      -0.847458       -23.0605
  31   2.0000      -0.815659       -22.1952
  32   2.0000      -0.783486       -21.3197
  33   2.0000      -0.772614       -21.0239
  34   2.0000      -0.711230       -19.3536
  35   2.0000      -0.708291       -19.2736
  36   2.0000      -0.694797       -18.9064
  37   2.0000      -0.664475       -18.0813
  38   2.0000      -0.648254       -17.6399
  39   2.0000      -0.613495       -16.6940
  40   2.0000      -0.595743       -16.2110
  41   2.0000      -0.578033       -15.7291
  42   2.0000      -0.554196       -15.0804
  43   2.0000      -0.551184       -14.9985
  44   2.0000      -0.544741       -14.8232
  45   2.0000      -0.532631       -14.4936
  46   2.0000      -0.522374       -14.2145
  47   2.0000      -0.519547       -14.1376
  48   2.0000      -0.511011       -13.9053
  49   2.0000      -0.502014       -13.6605
  50   2.0000      -0.494290       -13.4503
  51   2.0000      -0.483561       -13.1584
  52   2.0000      -0.464050       -12.6274
  53   2.0000      -0.462383       -12.5821
  54   2.0000      -0.456250       -12.4152
  55   2.0000      -0.448367       -12.2007
  56   2.0000      -0.445031       -12.1099
  57   2.0000      -0.440380       -11.9834
  58   2.0000      -0.427751       -11.6397
  59   2.0000      -0.423815       -11.5326
  60   2.0000      -0.413031       -11.2391
  61   2.0000      -0.411825       -11.2063
  62   2.0000      -0.400939       -10.9101
  63   2.0000      -0.345744        -9.4082
  64   2.0000      -0.334328        -9.0975
  65   2.0000      -0.326833        -8.8936
  66   2.0000      -0.295110        -8.0303
  67   0.0000       0.027556         0.7498
  68   0.0000       0.063501         1.7279
  69   0.0000       0.114170         3.1067
  70   0.0000       0.124127         3.3777
  71   0.0000       0.126748         3.4490

MULLIKEN ATOMIC CHARGES
-----------------------
   0 S :    0.093910
   1 C :   -0.109130
   2 C :   -0.115277
   3 C :    0.046759
   4 C :   -0.175572
   5 H :    0.002700
   6 C :    0.113467
   7 H :    0.009832
   8 H :    0.031932
   9 C :   -0.038528
  10 H :    0.012813
  11 H :    0.019811
  12 C :   -0.049675
  13 H :    0.013542
  14 H :    0.035097
  15 H :    0.027387
  16 S :    0.112954
  17 C :   -0.089150
  18 C :   -0.031178
  19 C :   -0.054465
  20 C :   -0.161094
  21 H :    0.016325
  22 C :    0.077049
  23 H :    0.012692
  24 H :    0.013132
  25 C :    0.010107
  26 H :    0.027330
  27 H :    0.021409
  28 C :   -0.098562
  29 H :    0.046352
  30 H :    0.045048
  31 H :    0.036222
  32 H :    0.048105
  33 H :    0.048654
Sum of atomic charges:   -0.0000000

LOEWDIN ATOMIC CHARGES
----------------------
   0 S :    0.393888
   1 C :   -0.191243
   2 C :   -0.057204
   3 C :   -0.067428
   4 C :   -0.193152
   5 H :    0.029348
   6 C :   -0.024232
   7 H :    0.030735
   8 H :    0.027203
   9 C :   -0.039904
  10 H :    0.017117
  11 H :    0.027674
  12 C :   -0.064425
  13 H :    0.022697
  14 H :    0.022407
  15 H :    0.028174
  16 S :    0.398302
  17 C :   -0.169782
  18 C :   -0.066805
  19 C :   -0.053019
  20 C :   -0.201060
  21 H :    0.033244
  22 C :   -0.037862
  23 H :    0.036710
  24 H :    0.028629
  25 C :   -0.034991
  26 H :    0.027758
  27 H :    0.023391
  28 C :   -0.076543
  29 H :    0.033082
  30 H :    0.030324
  31 H :    0.022863
  32 H :    0.022289
  33 H :    0.021814

  Mayer bond orders larger than 0.100000
B(  0-S ,  1-C ) :   1.1357 B(  0-S ,  4-C ) :   1.1480 B(  1-C ,  2-C ) :   1.5700
B(  1-C ,  4-C ) :   0.1044 B(  1-C , 32-H ) :   0.9773 B(  2-C ,  3-C ) :   1.2439
B(  2-C ,  6-C ) :   1.0329 B(  3-C ,  4-C ) :   1.5788 B(  3-C ,  5-H ) :   0.9938
B(  4-C , 20-C ) :   1.0581 B(  6-C ,  7-H ) :   0.9305 B(  6-C ,  8-H ) :   0.9370
B(  6-C ,  9-C ) :   1.0532 B(  9-C , 10-H ) :   0.9562 B(  9-C , 11-H ) :   0.9553
B(  9-C , 12-C ) :   1.0908 B( 12-C , 13-H ) :   0.9725 B( 12-C , 14-H ) :   0.9730
B( 12-C , 15-H ) :   0.9665 B( 16-S , 17-C ) :   1.1498 B( 16-S , 20-C ) :   1.1347
B( 17-C , 18-C ) :   1.6398 B( 17-C , 33-H ) :   0.9632 B( 18-C , 19-C ) :   1.2188
B( 18-C , 21-H ) :   0.9936 B( 19-C , 20-C ) :   1.5978 B( 19-C , 22-C ) :   1.0312
B( 22-C , 23-H ) :   0.9223 B( 22-C , 24-H ) :   0.9240 B( 22-C , 25-C ) :   1.0853
B( 25-C , 26-H ) :   0.9505 B( 25-C , 27-H ) :   0.9455 B( 25-C , 28-C ) :   1.0746
B( 28-C , 29-H ) :   0.9708 B( 28-C , 30-H ) :   0.9746 B( 28-C , 31-H ) :   0.9746

Dispersion correction           -0.015288367
FINAL SINGLE POINT ENERGY     -1339.864564256507

DIPOLE MOMENT
-------------
                                X             Y             Z
Electronic contribution:     -9.31863     -11.80484     -18.00246
Nuclear contribution   :      9.86789      11.74878      18.27864
                        -----------------------------------------
Total Dipole Moment    :      0.54926      -0.05606       0.27618
                        -----------------------------------------
Magnitude (a.u.)       :      0.61734
Magnitude (Debye)      :      1.56915

Rotational constants in cm-1:     0.023666     0.007877     0.006897
Rotational constants in MHz :   709.497194   236.144037   206.775671

                             ****ORCA TERMINATED NORMALLY****
TOTAL RUN TIME: 0 days 0 hours 0 minutes 22 seconds 309 msec
