                         Program Version 4.2.1 -  RELEASE  -
|  1> ! wB97X-D3 SP def2-SVP
|  2> %pal
|  3> nprocs 24
|  4> end
|  5>
|  6> * xyz 0 1
|  7> S 	 -45.8411 	 18.9077 	 24.9068
|  8> C 	 -46.2669 	 18.0808 	 23.5072
|  9> C 	 -47.1442 	 17.0145 	 23.76
| 10> C 	 -47.4444 	 16.9569 	 25.1572
| 11> C 	 -46.7734 	 17.8814 	 25.8706
| 12> H 	 -48.2108 	 16.4692 	 25.7214
| 13> C 	 -47.656 	 15.8921 	 22.7844
| 14> H 	 -46.8715 	 15.7778 	 22.0188
| 15> H 	 -48.5733 	 16.293 	 22.3678
| 16> C 	 -47.8949 	 14.4958 	 23.4258
| 17> H 	 -48.5396 	 14.5504 	 24.2788
| 18> H 	 -48.4704 	 13.8788 	 22.8022
| 19> C 	 -46.5939 	 13.6964 	 23.7801
| 20> H 	 -46.0013 	 14.0683 	 24.578
| 21> H 	 -47.0079 	 12.6526 	 24.0454
| 22> H 	 -45.9227 	 13.4688 	 22.8833
| 23> S 	 -47.5052 	 19.5447 	 27.9484
| 24> C 	 -47.3745 	 19.0302 	 29.5799
| 25> C 	 -46.878 	 17.7958 	 29.696
| 26> C 	 -46.512 	 17.2715 	 28.387
| 27> C 	 -46.8683 	 18.0888 	 27.3312
| 28> H 	 -46.8531 	 17.3993 	 30.7531
| 29> C 	 -45.9157 	 15.8576 	 28.2555
| 30> H 	 -44.8431 	 16.0273 	 28.392
| 31> H 	 -45.9542 	 15.5631 	 27.2225
| 32> C 	 -46.4297 	 14.7293 	 29.2392
| 33> H 	 -46.0862 	 15.0581 	 30.2403
| 34> H 	 -45.9879 	 13.7817 	 29.1984
| 35> C 	 -47.9266 	 14.5041 	 29.3118
| 36> H 	 -48.2162 	 14.0239 	 30.2099
| 37> H 	 -48.2778 	 13.854 	 28.4752
| 38> H 	 -48.5388 	 15.3969 	 29.2792
| 39> H 	 -45.7443 	 18.258 	 22.5919
| 40> H 	 -47.7787 	 19.6515 	 30.3831
| 41> *
| 42>
| 43>                          ****END OF INPUT****

CARTESIAN COORDINATES (ANGSTROEM)
---------------------------------
  S    -45.841100   18.907700   24.906800
  C    -46.266900   18.080800   23.507200
  C    -47.144200   17.014500   23.760000
  C    -47.444400   16.956900   25.157200
  C    -46.773400   17.881400   25.870600
  H    -48.210800   16.469200   25.721400
  C    -47.656000   15.892100   22.784400
  H    -46.871500   15.777800   22.018800
  H    -48.573300   16.293000   22.367800
  C    -47.894900   14.495800   23.425800
  H    -48.539600   14.550400   24.278800
  H    -48.470400   13.878800   22.802200
  C    -46.593900   13.696400   23.780100
  H    -46.001300   14.068300   24.578000
  H    -47.007900   12.652600   24.045400
  H    -45.922700   13.468800   22.883300
  S    -47.505200   19.544700   27.948400
  C    -47.374500   19.030200   29.579900
  C    -46.878000   17.795800   29.696000
  C    -46.512000   17.271500   28.387000
  C    -46.868300   18.088800   27.331200
  H    -46.853100   17.399300   30.753100
  C    -45.915700   15.857600   28.255500
  H    -44.843100   16.027300   28.392000
  H    -45.954200   15.563100   27.222500
  C    -46.429700   14.729300   29.239200
  H    -46.086200   15.058100   30.240300
  H    -45.987900   13.781700   29.198400
  C    -47.926600   14.504100   29.311800
  H    -48.216200   14.023900   30.209900
  H    -48.277800   13.854000   28.475200
  H    -48.538800   15.396900   29.279200
  H    -45.744300   18.258000   22.591900
  H    -47.778700   19.651500   30.383100

 Total Charge           Charge          ....    0
 Multiplicity           Mult            ....    1
 Number of Electrons    NEL             ....  134
 Basis Dimension        Dim             ....  322

ORBITAL ENERGIES
----------------

  NO   OCC          E(Eh)            E(eV)
   0   2.0000     -88.963771     -2420.8273
   1   2.0000     -88.957944     -2420.6687
   2   2.0000     -10.321184      -280.8537
   3   2.0000     -10.318634      -280.7843
   4   2.0000     -10.309395      -280.5329
   5   2.0000     -10.308526      -280.5093
   6   2.0000     -10.306742      -280.4607
   7   2.0000     -10.305623      -280.4302
   8   2.0000     -10.298417      -280.2342
   9   2.0000     -10.294886      -280.1381
  10   2.0000     -10.290536      -280.0197
  11   2.0000     -10.288168      -279.9553
  12   2.0000     -10.286989      -279.9232
  13   2.0000     -10.286369      -279.9063
  14   2.0000     -10.285319      -279.8778
  15   2.0000     -10.271370      -279.4982
  16   2.0000      -8.081137      -219.8989
  17   2.0000      -8.074732      -219.7246
  18   2.0000      -6.039280      -164.3372
  19   2.0000      -6.035186      -164.2258
  20   2.0000      -6.033124      -164.1696
  21   2.0000      -6.032220      -164.1451
  22   2.0000      -6.028898      -164.0547
  23   2.0000      -6.025551      -163.9636
  24   2.0000      -1.019209       -27.7341
  25   2.0000      -0.996507       -27.1163
  26   2.0000      -0.903688       -24.5906
  27   2.0000      -0.900491       -24.5036
  28   2.0000      -0.874017       -23.7832
  29   2.0000      -0.850210       -23.1354
  30   2.0000      -0.844659       -22.9843
  31   2.0000      -0.820401       -22.3243
  32   2.0000      -0.782035       -21.2803
  33   2.0000      -0.771905       -21.0046
  34   2.0000      -0.710007       -19.3203
  35   2.0000      -0.702109       -19.1054
  36   2.0000      -0.689911       -18.7734
  37   2.0000      -0.654845       -17.8192
  38   2.0000      -0.647132       -17.6094
  39   2.0000      -0.619860       -16.8672
  40   2.0000      -0.592972       -16.1356
  41   2.0000      -0.566716       -15.4211
  42   2.0000      -0.551615       -15.0102
  43   2.0000      -0.547539       -14.8993
  44   2.0000      -0.540209       -14.6998
  45   2.0000      -0.537816       -14.6347
  46   2.0000      -0.515790       -14.0354
  47   2.0000      -0.513097       -13.9621
  48   2.0000      -0.500841       -13.6286
  49   2.0000      -0.491431       -13.3725
  50   2.0000      -0.491035       -13.3618
  51   2.0000      -0.481475       -13.1016
  52   2.0000      -0.471261       -12.8237
  53   2.0000      -0.460258       -12.5243
  54   2.0000      -0.458218       -12.4688
  55   2.0000      -0.450621       -12.2620
  56   2.0000      -0.444894       -12.1062
  57   2.0000      -0.439887       -11.9699
  58   2.0000      -0.438714       -11.9380
  59   2.0000      -0.424062       -11.5393
  60   2.0000      -0.417844       -11.3701
  61   2.0000      -0.416099       -11.3226
  62   2.0000      -0.407494       -11.0885
  63   2.0000      -0.347785        -9.4637
  64   2.0000      -0.329906        -8.9772
  65   2.0000      -0.325693        -8.8626
  66   2.0000      -0.301510        -8.2045
  67   0.0000       0.050072         1.3625
  68   0.0000       0.072563         1.9746
  69   0.0000       0.123503         3.3607
  70   0.0000       0.131129         3.5682
  71   0.0000       0.133111         3.6221

MULLIKEN ATOMIC CHARGES
-----------------------
   0 S :    0.136040
   1 C :   -0.124974
   2 C :   -0.097802
   3 C :    0.037687
   4 C :   -0.183333
   5 H :    0.012213
   6 C :    0.087112
   7 H :    0.027381
   8 H :    0.043154
   9 C :   -0.041185
  10 H :    0.019575
  11 H :    0.011821
  12 C :   -0.100069
  13 H :    0.051110
  14 H :    0.037614
  15 H :    0.042349
  16 S :    0.103942
  17 C :   -0.107228
  18 C :   -0.049741
  19 C :   -0.065102
  20 C :   -0.157974
  21 H :    0.045930
  22 C :    0.099985
  23 H :    0.036391
  24 H :    0.013119
  25 C :   -0.049811
  26 H :    0.015493
  27 H :    0.017754
  28 C :   -0.047147
  29 H :    0.020386
  30 H :    0.030003
  31 H :    0.032373
  32 H :    0.042407
  33 H :    0.060529
Sum of atomic charges:   -0.0000000

LOEWDIN ATOMIC CHARGES
----------------------
   0 S :    0.462258
   1 C :   -0.220734
   2 C :   -0.059893
   3 C :   -0.067302
   4 C :   -0.214483
   5 H :    0.033084
   6 C :   -0.025628
   7 H :    0.030910
   8 H :    0.033454
   9 C :   -0.038632
  10 H :    0.020966
  11 H :    0.020506
  12 C :   -0.070218
  13 H :    0.018139
  14 H :    0.035387
  15 H :    0.031456
  16 S :    0.424876
  17 C :   -0.193014
  18 C :   -0.087641
  19 C :   -0.053227
  20 C :   -0.221524
  21 H :    0.048490
  22 C :   -0.031359
  23 H :    0.038419
  24 H :    0.022577
  25 C :   -0.039542
  26 H :    0.022872
  27 H :    0.021209
  28 C :   -0.067844
  29 H :    0.021599
  30 H :    0.027451
  31 H :    0.023798
  32 H :    0.022350
  33 H :    0.031245

  Mayer bond orders larger than 0.100000
B(  0-S ,  1-C ) :   1.1727 B(  0-S ,  4-C ) :   1.1870 B(  1-C ,  2-C ) :   1.5919
B(  1-C , 32-H ) :   0.9738 B(  2-C ,  3-C ) :   1.2419 B(  2-C ,  6-C ) :   0.9911
B(  3-C ,  4-C ) :   1.5964 B(  3-C ,  5-H ) :   0.9925 B(  4-C , 20-C ) :   0.9760
B(  6-C ,  7-H ) :   0.9516 B(  6-C ,  8-H ) :   0.9357 B(  6-C ,  9-C ) :   1.0849
B(  9-C , 10-H ) :   0.9470 B(  9-C , 11-H ) :   0.9520 B(  9-C , 12-C ) :   1.0704
B( 12-C , 13-H ) :   0.9800 B( 12-C , 14-H ) :   0.9749 B( 12-C , 15-H ) :   0.9740
B( 16-S , 17-C ) :   1.1677 B( 16-S , 20-C ) :   1.1504 B( 17-C , 18-C ) :   1.6389
B( 17-C , 33-H ) :   0.9618 B( 18-C , 19-C ) :   1.1996 B( 18-C , 21-H ) :   0.9856
B( 19-C , 20-C ) :   1.6279 B( 19-C , 22-C ) :   1.0306 B( 22-C , 23-H ) :   0.9283
B( 22-C , 24-H ) :   0.9395 B( 22-C , 25-C ) :   1.0569 B( 25-C , 26-H ) :   0.9509
B( 25-C , 27-H ) :   0.9565 B( 25-C , 28-C ) :   1.0848 B( 28-C , 29-H ) :   0.9724
B( 28-C , 30-H ) :   0.9752 B( 28-C , 31-H ) :   0.9730

Dispersion correction           -0.015085754
FINAL SINGLE POINT ENERGY     -1339.872718027040

DIPOLE MOMENT
-------------
                                X             Y             Z
Electronic contribution:      3.19143      29.64609       0.38587
Nuclear contribution   :     -3.32139     -30.27257      -0.30271
                        -----------------------------------------
Total Dipole Moment    :     -0.12996      -0.62648       0.08316
                        -----------------------------------------
Magnitude (a.u.)       :      0.64520
Magnitude (Debye)      :      1.63996

Rotational constants in cm-1:     0.017372     0.010414     0.007233
Rotational constants in MHz :   520.809539   312.196494   216.854292

                             ****ORCA TERMINATED NORMALLY****
TOTAL RUN TIME: 0 days 0 hours 0 minutes 22 seconds 304 msec
