                         Program Version 4.2.1 -  RELEASE  -
|  1> ! wB97X-D3 SP def2-SVP
|  2> %pal
|  3> nprocs 24
|  4> end
|  5>
|  6> * xyz 0 1
|  7> S 	 46.8371 	 -13.9032 	 -104.926
|  8> C 	 47.9692 	 -14.0889 	 -106.257
|  9> C 	 47.2552 	 -14.2818 	 -107.422
| 10> C 	 45.8394 	 -14.2633 	 -107.224
| 11> C 	 45.4548 	 -13.9993 	 -105.932
| 12> H 	 45.1188 	 -14.4462 	 -108.03
| 13> C 	 47.8651 	 -14.7208 	 -108.76
| 14> H 	 48.0679 	 -15.7638 	 -108.956
| 15> H 	 48.8334 	 -14.1297 	 -108.643
| 16> C 	 47.132 	 -14.2299 	 -109.987
| 17> H 	 46.1971 	 -14.7479 	 -110.253
| 18> H 	 46.9192 	 -13.1599 	 -109.827
| 19> C 	 48.0775 	 -14.1846 	 -111.266
| 20> H 	 47.5429 	 -13.7136 	 -112.09
| 21> H 	 48.9077 	 -13.4193 	 -111.053
| 22> H 	 48.4459 	 -15.1143 	 -111.684
| 23> S 	 42.9478 	 -14.6452 	 -104.925
| 24> C 	 41.9381 	 -13.3156 	 -104.308
| 25> C 	 42.473 	 -12.1648 	 -104.636
| 26> C 	 43.7702 	 -12.2364 	 -105.224
| 27> C 	 44.1474 	 -13.5269 	 -105.577
| 28> H 	 41.96 	 -11.1998 	 -104.497
| 29> C 	 44.7281 	 -11.1175 	 -105.414
| 30> H 	 45.2092 	 -11.4102 	 -106.355
| 31> H 	 45.5573 	 -11.2714 	 -104.715
| 32> C 	 44.3031 	 -9.67225 	 -105.501
| 33> H 	 45.2483 	 -9.12322 	 -105.446
| 34> H 	 43.7082 	 -9.27692 	 -104.653
| 35> C 	 43.7512 	 -9.28616 	 -106.905
| 36> H 	 43.6781 	 -8.22253 	 -107.036
| 37> H 	 42.7544 	 -9.63175 	 -107.073
| 38> H 	 44.3695 	 -9.64325 	 -107.75
| 39> H 	 49.0601 	 -14.2453 	 -106.131
| 40> H 	 40.9378 	 -13.5144 	 -103.909
| 41> *
| 42>
| 43>                          ****END OF INPUT****

CARTESIAN COORDINATES (ANGSTROEM)
---------------------------------
  S     46.837100  -13.903200  -104.926000
  C     47.969200  -14.088900  -106.257000
  C     47.255200  -14.281800  -107.422000
  C     45.839400  -14.263300  -107.224000
  C     45.454800  -13.999300  -105.932000
  H     45.118800  -14.446200  -108.030000
  C     47.865100  -14.720800  -108.760000
  H     48.067900  -15.763800  -108.956000
  H     48.833400  -14.129700  -108.643000
  C     47.132000  -14.229900  -109.987000
  H     46.197100  -14.747900  -110.253000
  H     46.919200  -13.159900  -109.827000
  C     48.077500  -14.184600  -111.266000
  H     47.542900  -13.713600  -112.090000
  H     48.907700  -13.419300  -111.053000
  H     48.445900  -15.114300  -111.684000
  S     42.947800  -14.645200  -104.925000
  C     41.938100  -13.315600  -104.308000
  C     42.473000  -12.164800  -104.636000
  C     43.770200  -12.236400  -105.224000
  C     44.147400  -13.526900  -105.577000
  H     41.960000  -11.199800  -104.497000
  C     44.728100  -11.117500  -105.414000
  H     45.209200  -11.410200  -106.355000
  H     45.557300  -11.271400  -104.715000
  C     44.303100   -9.672250  -105.501000
  H     45.248300   -9.123220  -105.446000
  H     43.708200   -9.276920  -104.653000
  C     43.751200   -9.286160  -106.905000
  H     43.678100   -8.222530  -107.036000
  H     42.754400   -9.631750  -107.073000
  H     44.369500   -9.643250  -107.750000
  H     49.060100  -14.245300  -106.131000
  H     40.937800  -13.514400  -103.909000

 Total Charge           Charge          ....    0
 Multiplicity           Mult            ....    1
 Number of Electrons    NEL             ....  134
 Basis Dimension        Dim             ....  322

ORBITAL ENERGIES
----------------

  NO   OCC          E(Eh)            E(eV)
   0   2.0000     -88.967828     -2420.9377
   1   2.0000     -88.955912     -2420.6134
   2   2.0000     -10.323331      -280.9121
   3   2.0000     -10.320807      -280.8434
   4   2.0000     -10.317958      -280.7659
   5   2.0000     -10.314280      -280.6658
   6   2.0000     -10.303023      -280.3595
   7   2.0000     -10.298510      -280.2367
   8   2.0000     -10.295964      -280.1674
   9   2.0000     -10.292987      -280.0864
  10   2.0000     -10.292696      -280.0785
  11   2.0000     -10.290061      -280.0068
  12   2.0000     -10.287851      -279.9467
  13   2.0000     -10.286422      -279.9078
  14   2.0000     -10.283399      -279.8255
  15   2.0000     -10.274996      -279.5969
  16   2.0000      -8.082680      -219.9409
  17   2.0000      -8.070503      -219.6095
  18   2.0000      -6.041211      -164.3897
  19   2.0000      -6.036974      -164.2744
  20   2.0000      -6.033583      -164.1821
  21   2.0000      -6.029155      -164.0616
  22   2.0000      -6.025026      -163.9493
  23   2.0000      -6.021121      -163.8430
  24   2.0000      -1.011803       -27.5326
  25   2.0000      -0.987360       -26.8674
  26   2.0000      -0.912287       -24.8246
  27   2.0000      -0.908000       -24.7079
  28   2.0000      -0.875718       -23.8295
  29   2.0000      -0.844288       -22.9742
  30   2.0000      -0.842717       -22.9315
  31   2.0000      -0.819426       -22.2977
  32   2.0000      -0.780387       -21.2354
  33   2.0000      -0.771750       -21.0004
  34   2.0000      -0.712593       -19.3906
  35   2.0000      -0.703504       -19.1433
  36   2.0000      -0.689115       -18.7518
  37   2.0000      -0.651951       -17.7405
  38   2.0000      -0.637853       -17.3569
  39   2.0000      -0.618325       -16.8255
  40   2.0000      -0.600029       -16.3276
  41   2.0000      -0.580971       -15.8090
  42   2.0000      -0.564681       -15.3658
  43   2.0000      -0.552063       -15.0224
  44   2.0000      -0.536645       -14.6028
  45   2.0000      -0.522843       -14.2273
  46   2.0000      -0.517603       -14.0847
  47   2.0000      -0.512189       -13.9374
  48   2.0000      -0.504245       -13.7212
  49   2.0000      -0.499315       -13.5871
  50   2.0000      -0.492161       -13.3924
  51   2.0000      -0.478852       -13.0302
  52   2.0000      -0.467112       -12.7108
  53   2.0000      -0.462578       -12.5874
  54   2.0000      -0.457722       -12.4553
  55   2.0000      -0.446614       -12.1530
  56   2.0000      -0.437787       -11.9128
  57   2.0000      -0.432348       -11.7648
  58   2.0000      -0.430964       -11.7271
  59   2.0000      -0.427687       -11.6380
  60   2.0000      -0.427278       -11.6268
  61   2.0000      -0.411569       -11.1994
  62   2.0000      -0.404125       -10.9968
  63   2.0000      -0.340129        -9.2554
  64   2.0000      -0.330640        -8.9972
  65   2.0000      -0.317305        -8.6343
  66   2.0000      -0.308368        -8.3911
  67   0.0000       0.040504         1.1022
  68   0.0000       0.055136         1.5003
  69   0.0000       0.117825         3.2062
  70   0.0000       0.128798         3.5048
  71   0.0000       0.135210         3.6792

MULLIKEN ATOMIC CHARGES
-----------------------
   0 S :    0.120860
   1 C :   -0.146561
   2 C :   -0.082741
   3 C :    0.028796
   4 C :   -0.154424
   5 H :    0.024009
   6 C :    0.061318
   7 H :    0.050129
   8 H :    0.029892
   9 C :   -0.122261
  10 H :    0.048139
  11 H :    0.031647
  12 C :   -0.073620
  13 H :    0.028065
  14 H :    0.038741
  15 H :    0.039130
  16 S :    0.070421
  17 C :   -0.091975
  18 C :   -0.012134
  19 C :   -0.084713
  20 C :   -0.145278
  21 H :    0.026656
  22 C :    0.065969
  23 H :    0.024774
  24 H :    0.035867
  25 C :   -0.044005
  26 H :    0.026393
  27 H :    0.038447
  28 C :   -0.048417
  29 H :    0.025423
  30 H :    0.024630
  31 H :    0.033998
  32 H :    0.067878
  33 H :    0.064947
Sum of atomic charges:   -0.0000000

LOEWDIN ATOMIC CHARGES
----------------------
   0 S :    0.431199
   1 C :   -0.199798
   2 C :   -0.071843
   3 C :   -0.057508
   4 C :   -0.214821
   5 H :    0.035632
   6 C :   -0.037861
   7 H :    0.031761
   8 H :    0.040703
   9 C :   -0.047803
  10 H :    0.024680
  11 H :    0.028122
  12 C :   -0.071644
  13 H :    0.024416
  14 H :    0.033186
  15 H :    0.020297
  16 S :    0.373466
  17 C :   -0.165582
  18 C :   -0.081802
  19 C :   -0.047812
  20 C :   -0.206200
  21 H :    0.037271
  22 C :   -0.046700
  23 H :    0.040446
  24 H :    0.032086
  25 C :   -0.044738
  26 H :    0.032876
  27 H :    0.027346
  28 C :   -0.064969
  29 H :    0.022621
  30 H :    0.018764
  31 H :    0.030194
  32 H :    0.039382
  33 H :    0.034633

  Mayer bond orders larger than 0.100000
B(  0-S ,  1-C ) :   1.1467 B(  0-S ,  4-C ) :   1.1648 B(  1-C ,  2-C ) :   1.5982
B(  1-C , 32-H ) :   0.9672 B(  2-C ,  3-C ) :   1.2632 B(  2-C ,  6-C ) :   0.9973
B(  3-C ,  4-C ) :   1.5504 B(  3-C ,  5-H ) :   0.9941 B(  4-C , 20-C ) :   0.9977
B(  6-C ,  7-H ) :   0.9466 B(  6-C ,  8-H ) :   0.9437 B(  6-C ,  9-C ) :   1.0698
B(  9-C , 10-H ) :   0.9497 B(  9-C , 11-H ) :   0.9589 B(  9-C , 12-C ) :   1.0787
B( 12-C , 13-H ) :   0.9754 B( 12-C , 14-H ) :   0.9761 B( 12-C , 15-H ) :   0.9773
B( 16-S , 17-C ) :   1.1470 B( 16-S , 20-C ) :   1.1198 B( 17-C , 18-C ) :   1.6251
B( 17-C , 33-H ) :   0.9616 B( 18-C , 19-C ) :   1.2348 B( 18-C , 21-H ) :   0.9844
B( 19-C , 20-C ) :   1.6118 B( 19-C , 22-C ) :   1.0415 B( 22-C , 23-H ) :   0.9191
B( 22-C , 24-H ) :   0.9121 B( 22-C , 25-C ) :   1.0821 B( 25-C , 26-H ) :   0.9441
B( 25-C , 27-H ) :   0.9516 B( 25-C , 28-C ) :   1.0779 B( 28-C , 29-H ) :   0.9761
B( 28-C , 30-H ) :   0.9786 B( 28-C , 31-H ) :   0.9723

Dispersion correction           -0.014244876
FINAL SINGLE POINT ENERGY     -1339.867890571383

DIPOLE MOMENT
-------------
                                X             Y             Z
Electronic contribution:     -7.38577     -14.80911      22.06028
Nuclear contribution   :      7.56656      15.24460     -22.48801
                        -----------------------------------------
Total Dipole Moment    :      0.18079       0.43548      -0.42773
                        -----------------------------------------
Magnitude (a.u.)       :      0.63662
Magnitude (Debye)      :      1.61817

Rotational constants in cm-1:     0.018167     0.008167     0.007113
Rotational constants in MHz :   544.619479   244.847308   213.230061

                             ****ORCA TERMINATED NORMALLY****
TOTAL RUN TIME: 0 days 0 hours 0 minutes 20 seconds 610 msec
