                         Program Version 4.2.1 -  RELEASE  -
|  1> ! wB97X-D3 SP def2-SVP
|  2> %pal
|  3> nprocs 24
|  4> end
|  5>
|  6> * xyz 0 1
|  7> S 	 -69.4101 	 -41.9379 	 -94.056
|  8> C 	 -68.8071 	 -40.3444 	 -94.1326
|  9> C 	 -68.254 	 -40.0673 	 -95.4335
| 10> C 	 -68.3736 	 -41.2211 	 -96.2883
| 11> C 	 -68.9192 	 -42.3166 	 -95.6203
| 12> H 	 -68.0533 	 -41.2927 	 -97.3273
| 13> C 	 -67.6538 	 -38.7198 	 -95.7644
| 14> H 	 -67.5905 	 -38.0169 	 -94.911
| 15> H 	 -68.3086 	 -38.2001 	 -96.5147
| 16> C 	 -66.2053 	 -38.7928 	 -96.1794
| 17> H 	 -65.5977 	 -38.0369 	 -95.6999
| 18> H 	 -65.9595 	 -39.829 	 -95.7688
| 19> C 	 -65.9131 	 -38.7089 	 -97.6677
| 20> H 	 -65.8027 	 -37.6641 	 -97.9739
| 21> H 	 -64.9695 	 -39.2951 	 -97.8708
| 22> H 	 -66.7489 	 -39.1367 	 -98.2015
| 23> S 	 -67.7894 	 -44.3866 	 -97.0819
| 24> C 	 -68.8795 	 -45.4804 	 -97.7798
| 25> C 	 -70.1837 	 -45.4324 	 -97.2997
| 26> C 	 -70.3292 	 -44.2177 	 -96.5267
| 27> C 	 -69.144 	 -43.6327 	 -96.1831
| 28> H 	 -70.9296 	 -46.0912 	 -97.6907
| 29> C 	 -71.6936 	 -43.814 	 -96.0275
| 30> H 	 -71.8678 	 -42.9125 	 -96.6348
| 31> H 	 -71.5764 	 -43.5569 	 -94.9723
| 32> C 	 -72.8663 	 -44.8415 	 -96.1996
| 33> H 	 -72.7138 	 -45.7365 	 -95.7009
| 34> H 	 -72.925 	 -45.108 	 -97.313
| 35> C 	 -74.1952 	 -44.1836 	 -95.802
| 36> H 	 -74.4241 	 -43.201 	 -96.3134
| 37> H 	 -74.2624 	 -44.2007 	 -94.7256
| 38> H 	 -75.0225 	 -44.8296 	 -96.1601
| 39> H 	 -68.7356 	 -39.6482 	 -93.2834
| 40> H 	 -68.6817 	 -46.2312 	 -98.582
| 41> *
| 42>
| 43>                          ****END OF INPUT****

CARTESIAN COORDINATES (ANGSTROEM)
---------------------------------
  S    -69.410100  -41.937900  -94.056000
  C    -68.807100  -40.344400  -94.132600
  C    -68.254000  -40.067300  -95.433500
  C    -68.373600  -41.221100  -96.288300
  C    -68.919200  -42.316600  -95.620300
  H    -68.053300  -41.292700  -97.327300
  C    -67.653800  -38.719800  -95.764400
  H    -67.590500  -38.016900  -94.911000
  H    -68.308600  -38.200100  -96.514700
  C    -66.205300  -38.792800  -96.179400
  H    -65.597700  -38.036900  -95.699900
  H    -65.959500  -39.829000  -95.768800
  C    -65.913100  -38.708900  -97.667700
  H    -65.802700  -37.664100  -97.973900
  H    -64.969500  -39.295100  -97.870800
  H    -66.748900  -39.136700  -98.201500
  S    -67.789400  -44.386600  -97.081900
  C    -68.879500  -45.480400  -97.779800
  C    -70.183700  -45.432400  -97.299700
  C    -70.329200  -44.217700  -96.526700
  C    -69.144000  -43.632700  -96.183100
  H    -70.929600  -46.091200  -97.690700
  C    -71.693600  -43.814000  -96.027500
  H    -71.867800  -42.912500  -96.634800
  H    -71.576400  -43.556900  -94.972300
  C    -72.866300  -44.841500  -96.199600
  H    -72.713800  -45.736500  -95.700900
  H    -72.925000  -45.108000  -97.313000
  C    -74.195200  -44.183600  -95.802000
  H    -74.424100  -43.201000  -96.313400
  H    -74.262400  -44.200700  -94.725600
  H    -75.022500  -44.829600  -96.160100
  H    -68.735600  -39.648200  -93.283400
  H    -68.681700  -46.231200  -98.582000

 Total Charge           Charge          ....    0
 Multiplicity           Mult            ....    1
 Number of Electrons    NEL             ....  134
 Basis Dimension        Dim             ....  322

ORBITAL ENERGIES
----------------

  NO   OCC          E(Eh)            E(eV)
   0   2.0000     -88.967741     -2420.9353
   1   2.0000     -88.966620     -2420.9048
   2   2.0000     -10.322643      -280.8934
   3   2.0000     -10.317922      -280.7649
   4   2.0000     -10.316203      -280.7182
   5   2.0000     -10.313711      -280.6503
   6   2.0000     -10.306649      -280.4582
   7   2.0000     -10.300934      -280.3027
   8   2.0000     -10.295946      -280.1669
   9   2.0000     -10.291583      -280.0482
  10   2.0000     -10.291250      -280.0392
  11   2.0000     -10.291027      -280.0331
  12   2.0000     -10.289657      -279.9958
  13   2.0000     -10.283462      -279.8272
  14   2.0000     -10.280533      -279.7475
  15   2.0000     -10.276958      -279.6502
  16   2.0000      -8.083883      -219.9736
  17   2.0000      -8.081508      -219.9090
  18   2.0000      -6.042043      -164.4123
  19   2.0000      -6.039908      -164.3543
  20   2.0000      -6.037984      -164.3019
  21   2.0000      -6.036092      -164.2504
  22   2.0000      -6.035163      -164.2251
  23   2.0000      -6.032283      -164.1468
  24   2.0000      -1.011254       -27.5176
  25   2.0000      -0.986761       -26.8511
  26   2.0000      -0.915095       -24.9010
  27   2.0000      -0.907263       -24.6879
  28   2.0000      -0.868021       -23.6200
  29   2.0000      -0.852667       -23.2022
  30   2.0000      -0.846489       -23.0341
  31   2.0000      -0.810968       -22.0676
  32   2.0000      -0.782998       -21.3065
  33   2.0000      -0.766616       -20.8607
  34   2.0000      -0.706103       -19.2140
  35   2.0000      -0.694290       -18.8926
  36   2.0000      -0.683124       -18.5888
  37   2.0000      -0.654503       -17.8099
  38   2.0000      -0.637962       -17.3598
  39   2.0000      -0.618993       -16.8436
  40   2.0000      -0.592102       -16.1119
  41   2.0000      -0.573225       -15.5982
  42   2.0000      -0.570052       -15.5119
  43   2.0000      -0.552192       -15.0259
  44   2.0000      -0.531382       -14.4596
  45   2.0000      -0.520886       -14.1740
  46   2.0000      -0.520170       -14.1546
  47   2.0000      -0.512106       -13.9351
  48   2.0000      -0.508084       -13.8257
  49   2.0000      -0.496191       -13.5020
  50   2.0000      -0.489361       -13.3162
  51   2.0000      -0.482063       -13.1176
  52   2.0000      -0.468890       -12.7591
  53   2.0000      -0.465636       -12.6706
  54   2.0000      -0.463100       -12.6016
  55   2.0000      -0.453138       -12.3305
  56   2.0000      -0.444295       -12.0899
  57   2.0000      -0.436355       -11.8738
  58   2.0000      -0.431072       -11.7301
  59   2.0000      -0.416915       -11.3448
  60   2.0000      -0.416551       -11.3349
  61   2.0000      -0.410426       -11.1682
  62   2.0000      -0.403227       -10.9724
  63   2.0000      -0.340421        -9.2633
  64   2.0000      -0.329470        -8.9653
  65   2.0000      -0.329058        -8.9541
  66   2.0000      -0.291088        -7.9209
  67   0.0000       0.034978         0.9518
  68   0.0000       0.072487         1.9725
  69   0.0000       0.108778         2.9600
  70   0.0000       0.125006         3.4016
  71   0.0000       0.132789         3.6134

MULLIKEN ATOMIC CHARGES
-----------------------
   0 S :    0.136799
   1 C :   -0.130905
   2 C :   -0.109309
   3 C :    0.025621
   4 C :   -0.175996
   5 H :    0.020023
   6 C :    0.046640
   7 H :    0.020377
   8 H :    0.044829
   9 C :   -0.113358
  10 H :    0.030786
  11 H :    0.048005
  12 C :   -0.052672
  13 H :    0.036708
  14 H :    0.047663
  15 H :    0.025998
  16 S :    0.117439
  17 C :   -0.089547
  18 C :   -0.035645
  19 C :   -0.066389
  20 C :   -0.147363
  21 H :    0.016073
  22 C :    0.069005
  23 H :    0.043317
  24 H :    0.034096
  25 C :   -0.096018
  26 H :    0.025692
  27 H :    0.036162
  28 C :   -0.043039
  29 H :    0.047046
  30 H :    0.037704
  31 H :    0.028353
  32 H :    0.059637
  33 H :    0.062270
Sum of atomic charges:   -0.0000000

LOEWDIN ATOMIC CHARGES
----------------------
   0 S :    0.469515
   1 C :   -0.227923
   2 C :   -0.058920
   3 C :   -0.070740
   4 C :   -0.219749
   5 H :    0.031625
   6 C :   -0.043839
   7 H :    0.036003
   8 H :    0.034316
   9 C :   -0.053327
  10 H :    0.021242
  11 H :    0.035055
  12 C :   -0.067797
  13 H :    0.025644
  14 H :    0.036002
  15 H :    0.018109
  16 S :    0.414815
  17 C :   -0.198438
  18 C :   -0.082367
  19 C :   -0.043809
  20 C :   -0.209769
  21 H :    0.027935
  22 C :   -0.035861
  23 H :    0.042590
  24 H :    0.024739
  25 C :   -0.038350
  26 H :    0.015137
  27 H :    0.028525
  28 C :   -0.067780
  29 H :    0.034876
  30 H :    0.024419
  31 H :    0.028208
  32 H :    0.032149
  33 H :    0.037764

  Mayer bond orders larger than 0.100000
B(  0-S ,  1-C ) :   1.1754 B(  0-S ,  4-C ) :   1.2041 B(  1-C ,  2-C ) :   1.5517
B(  1-C , 32-H ) :   0.9678 B(  2-C ,  3-C ) :   1.2701 B(  2-C ,  6-C ) :   1.0476
B(  3-C ,  4-C ) :   1.5291 B(  3-C ,  5-H ) :   0.9924 B(  4-C , 20-C ) :   1.0122
B(  6-C ,  7-H ) :   0.9429 B(  6-C ,  8-H ) :   0.9435 B(  6-C ,  9-C ) :   1.0338
B(  9-C , 10-H ) :   0.9638 B(  9-C , 11-H ) :   0.9643 B(  9-C , 12-C ) :   1.0699
B( 12-C , 13-H ) :   0.9755 B( 12-C , 14-H ) :   0.9748 B( 12-C , 15-H ) :   0.9778
B( 16-S , 17-C ) :   1.1876 B( 16-S , 20-C ) :   1.0981 B( 17-C , 18-C ) :   1.6106
B( 17-C , 33-H ) :   0.9506 B( 18-C , 19-C ) :   1.2332 B( 18-C , 21-H ) :   0.9844
B( 19-C , 20-C ) :   1.6362 B( 19-C , 22-C ) :   1.0158 B( 22-C , 23-H ) :   0.9148
B( 22-C , 24-H ) :   0.9418 B( 22-C , 25-C ) :   1.0863 B( 25-C , 26-H ) :   0.9542
B( 25-C , 27-H ) :   0.9475 B( 25-C , 28-C ) :   1.0852 B( 28-C , 29-H ) :   0.9741
B( 28-C , 30-H ) :   0.9747 B( 28-C , 31-H ) :   0.9723

Dispersion correction           -0.013958524
FINAL SINGLE POINT ENERGY     -1339.866618370826

DIPOLE MOMENT
-------------
                                X             Y             Z
Electronic contribution:      7.64309     -10.57111       5.93973
Nuclear contribution   :     -7.96769      10.74369      -6.19153
                        -----------------------------------------
Total Dipole Moment    :     -0.32460       0.17258      -0.25179
                        -----------------------------------------
Magnitude (a.u.)       :      0.44559
Magnitude (Debye)      :      1.13259

Rotational constants in cm-1:     0.020666     0.007877     0.006421
Rotational constants in MHz :   619.556301   236.145169   192.485161

                             ****ORCA TERMINATED NORMALLY****
TOTAL RUN TIME: 0 days 0 hours 0 minutes 20 seconds 17 msec
