                         Program Version 4.2.1 -  RELEASE  -
|  1> ! wB97X-D3 SP def2-SVP
|  2> %pal
|  3> nprocs 24
|  4> end
|  5>
|  6> * xyz 0 1
|  7> S 	 -126.152 	 25.2381 	 -109.687
|  8> C 	 -124.491 	 25.3816 	 -109.199
|  9> C 	 -123.728 	 25.7589 	 -110.294
| 10> C 	 -124.473 	 25.8269 	 -111.532
| 11> C 	 -125.821 	 25.492 	 -111.343
| 12> H 	 -123.923 	 26.0941 	 -112.472
| 13> C 	 -122.18 	 26.0384 	 -110.167
| 14> H 	 -121.766 	 26.1269 	 -111.163
| 15> H 	 -121.676 	 25.2236 	 -109.651
| 16> C 	 -121.827 	 27.3716 	 -109.438
| 17> H 	 -122.42 	 27.4801 	 -108.48
| 18> H 	 -120.812 	 27.3055 	 -109.172
| 19> C 	 -121.993 	 28.676 	 -110.173
| 20> H 	 -121.363 	 28.7861 	 -111.064
| 21> H 	 -123.021 	 28.6792 	 -110.532
| 22> H 	 -121.971 	 29.5736 	 -109.621
| 23> S 	 -127.927 	 23.9964 	 -112.236
| 24> C 	 -128.669 	 24.4469 	 -113.8
| 25> C 	 -128.002 	 25.5019 	 -114.381
| 26> C 	 -126.855 	 25.9165 	 -113.652
| 27> C 	 -126.837 	 25.3795 	 -112.322
| 28> H 	 -128.335 	 25.8648 	 -115.365
| 29> C 	 -125.973 	 27.0705 	 -114.175
| 30> H 	 -126.123 	 27.2047 	 -115.288
| 31> H 	 -124.89 	 26.89 	 -113.947
| 32> C 	 -126.424 	 28.3759 	 -113.435
| 33> H 	 -126.261 	 28.2648 	 -112.321
| 34> H 	 -127.514 	 28.3482 	 -113.369
| 35> C 	 -125.756 	 29.633 	 -114.101
| 36> H 	 -124.658 	 29.4823 	 -114.09
| 37> H 	 -126.042 	 30.5922 	 -113.689
| 38> H 	 -126.045 	 29.5678 	 -115.136
| 39> H 	 -124.225 	 25.3278 	 -108.2
| 40> H 	 -129.592 	 24.0652 	 -114.182
| 41> *
| 42>
| 43>                          ****END OF INPUT****

CARTESIAN COORDINATES (ANGSTROEM)
---------------------------------
  S    -126.152000   25.238100  -109.687000
  C    -124.491000   25.381600  -109.199000
  C    -123.728000   25.758900  -110.294000
  C    -124.473000   25.826900  -111.532000
  C    -125.821000   25.492000  -111.343000
  H    -123.923000   26.094100  -112.472000
  C    -122.180000   26.038400  -110.167000
  H    -121.766000   26.126900  -111.163000
  H    -121.676000   25.223600  -109.651000
  C    -121.827000   27.371600  -109.438000
  H    -122.420000   27.480100  -108.480000
  H    -120.812000   27.305500  -109.172000
  C    -121.993000   28.676000  -110.173000
  H    -121.363000   28.786100  -111.064000
  H    -123.021000   28.679200  -110.532000
  H    -121.971000   29.573600  -109.621000
  S    -127.927000   23.996400  -112.236000
  C    -128.669000   24.446900  -113.800000
  C    -128.002000   25.501900  -114.381000
  C    -126.855000   25.916500  -113.652000
  C    -126.837000   25.379500  -112.322000
  H    -128.335000   25.864800  -115.365000
  C    -125.973000   27.070500  -114.175000
  H    -126.123000   27.204700  -115.288000
  H    -124.890000   26.890000  -113.947000
  C    -126.424000   28.375900  -113.435000
  H    -126.261000   28.264800  -112.321000
  H    -127.514000   28.348200  -113.369000
  C    -125.756000   29.633000  -114.101000
  H    -124.658000   29.482300  -114.090000
  H    -126.042000   30.592200  -113.689000
  H    -126.045000   29.567800  -115.136000
  H    -124.225000   25.327800  -108.200000
  H    -129.592000   24.065200  -114.182000

 Total Charge           Charge          ....    0
 Multiplicity           Mult            ....    1
 Number of Electrons    NEL             ....  134
 Basis Dimension        Dim             ....  322

ORBITAL ENERGIES
----------------

  NO   OCC          E(Eh)            E(eV)
   0   2.0000     -88.967786     -2420.9365
   1   2.0000     -88.966280     -2420.8956
   2   2.0000     -10.329513      -281.0803
   3   2.0000     -10.329183      -281.0714
   4   2.0000     -10.318686      -280.7857
   5   2.0000     -10.310310      -280.5578
   6   2.0000     -10.309544      -280.5369
   7   2.0000     -10.306591      -280.4566
   8   2.0000     -10.304174      -280.3908
   9   2.0000     -10.301786      -280.3259
  10   2.0000     -10.298257      -280.2298
  11   2.0000     -10.297565      -280.2110
  12   2.0000     -10.290753      -280.0256
  13   2.0000     -10.285468      -279.8818
  14   2.0000     -10.282113      -279.7905
  15   2.0000     -10.270332      -279.4699
  16   2.0000      -8.082097      -219.9250
  17   2.0000      -8.081585      -219.9111
  18   2.0000      -6.040524      -164.3710
  19   2.0000      -6.040194      -164.3620
  20   2.0000      -6.036299      -164.2560
  21   2.0000      -6.036239      -164.2544
  22   2.0000      -6.033037      -164.1673
  23   2.0000      -6.032266      -164.1463
  24   2.0000      -1.010065       -27.4853
  25   2.0000      -0.981194       -26.6996
  26   2.0000      -0.907847       -24.7038
  27   2.0000      -0.900916       -24.5152
  28   2.0000      -0.874725       -23.8025
  29   2.0000      -0.848030       -23.0761
  30   2.0000      -0.841183       -22.8898
  31   2.0000      -0.812389       -22.1062
  32   2.0000      -0.784913       -21.3586
  33   2.0000      -0.767854       -20.8944
  34   2.0000      -0.710367       -19.3301
  35   2.0000      -0.699578       -19.0365
  36   2.0000      -0.693005       -18.8576
  37   2.0000      -0.662592       -18.0300
  38   2.0000      -0.639586       -17.4040
  39   2.0000      -0.618783       -16.8379
  40   2.0000      -0.592440       -16.1211
  41   2.0000      -0.572374       -15.5751
  42   2.0000      -0.556803       -15.1514
  43   2.0000      -0.549828       -14.9616
  44   2.0000      -0.542234       -14.7549
  45   2.0000      -0.523183       -14.2365
  46   2.0000      -0.513916       -13.9844
  47   2.0000      -0.510422       -13.8893
  48   2.0000      -0.506014       -13.7693
  49   2.0000      -0.497223       -13.5301
  50   2.0000      -0.490965       -13.3598
  51   2.0000      -0.482740       -13.1360
  52   2.0000      -0.474246       -12.9049
  53   2.0000      -0.463765       -12.6197
  54   2.0000      -0.455430       -12.3929
  55   2.0000      -0.450147       -12.2491
  56   2.0000      -0.448237       -12.1971
  57   2.0000      -0.438070       -11.9205
  58   2.0000      -0.433137       -11.7863
  59   2.0000      -0.424437       -11.5495
  60   2.0000      -0.416904       -11.3445
  61   2.0000      -0.410279       -11.1643
  62   2.0000      -0.409605       -11.1459
  63   2.0000      -0.357557        -9.7296
  64   2.0000      -0.332138        -9.0379
  65   2.0000      -0.329894        -8.9769
  66   2.0000      -0.281728        -7.6662
  67   0.0000       0.014484         0.3941
  68   0.0000       0.077232         2.1016
  69   0.0000       0.107729         2.9315
  70   0.0000       0.114802         3.1239
  71   0.0000       0.130294         3.5455

MULLIKEN ATOMIC CHARGES
-----------------------
   0 S :    0.110526
   1 C :   -0.103295
   2 C :   -0.105043
   3 C :    0.000122
   4 C :   -0.130959
   5 H :    0.029370
   6 C :    0.075388
   7 H :    0.013571
   8 H :    0.040956
   9 C :   -0.075168
  10 H :    0.031894
  11 H :    0.018150
  12 C :   -0.035618
  13 H :    0.026278
  14 H :    0.017235
  15 H :    0.026604
  16 S :    0.098219
  17 C :   -0.078846
  18 C :   -0.029651
  19 C :   -0.053884
  20 C :   -0.113637
  21 H :    0.028263
  22 C :    0.005642
  23 H :    0.036930
  24 H :    0.036888
  25 C :   -0.102023
  26 H :    0.041016
  27 H :    0.025785
  28 C :   -0.012048
  29 H :    0.033636
  30 H :    0.043652
  31 H :    0.022229
  32 H :    0.028155
  33 H :    0.049661
Sum of atomic charges:   -0.0000000

LOEWDIN ATOMIC CHARGES
----------------------
   0 S :    0.434554
   1 C :   -0.193982
   2 C :   -0.058361
   3 C :   -0.075112
   4 C :   -0.210166
   5 H :    0.038419
   6 C :   -0.022972
   7 H :    0.025129
   8 H :    0.034821
   9 C :   -0.041963
  10 H :    0.029454
  11 H :    0.014793
  12 C :   -0.069385
  13 H :    0.023117
  14 H :    0.026412
  15 H :    0.022939
  16 S :    0.391086
  17 C :   -0.171457
  18 C :   -0.070997
  19 C :   -0.047315
  20 C :   -0.202196
  21 H :    0.037381
  22 C :   -0.034898
  23 H :    0.033797
  24 H :    0.028592
  25 C :   -0.048226
  26 H :    0.030386
  27 H :    0.022233
  28 C :   -0.063378
  29 H :    0.029745
  30 H :    0.025899
  31 H :    0.022432
  32 H :    0.013605
  33 H :    0.025616

  Mayer bond orders larger than 0.100000
B(  0-S ,  1-C ) :   1.1432 B(  0-S ,  4-C ) :   1.1782 B(  1-C ,  2-C ) :   1.5744
B(  1-C , 32-H ) :   0.9860 B(  2-C ,  3-C ) :   1.2927 B(  2-C ,  6-C ) :   1.0121
B(  3-C ,  4-C ) :   1.4989 B(  3-C ,  5-H ) :   0.9797 B(  4-C , 20-C ) :   1.0889
B(  6-C ,  7-H ) :   0.9436 B(  6-C ,  8-H ) :   0.9479 B(  6-C ,  9-C ) :   1.0652
B(  9-C , 10-H ) :   0.9574 B(  9-C , 11-H ) :   0.9560 B(  9-C , 12-C ) :   1.0844
B( 12-C , 13-H ) :   0.9728 B( 12-C , 14-H ) :   0.9718 B( 12-C , 15-H ) :   0.9720
B( 16-S , 17-C ) :   1.1432 B( 16-S , 20-C ) :   1.1399 B( 17-C , 18-C ) :   1.6134
B( 17-C , 20-C ) :   0.1125 B( 17-C , 33-H ) :   0.9665 B( 18-C , 19-C ) :   1.2539
B( 18-C , 21-H ) :   0.9832 B( 19-C , 20-C ) :   1.5334 B( 19-C , 22-C ) :   1.0520
B( 22-C , 23-H ) :   0.9431 B( 22-C , 24-H ) :   0.9343 B( 22-C , 25-C ) :   1.0458
B( 25-C , 26-H ) :   0.9528 B( 25-C , 27-H ) :   0.9579 B( 25-C , 28-C ) :   1.0541
B( 28-C , 29-H ) :   0.9749 B( 28-C , 30-H ) :   0.9758 B( 28-C , 31-H ) :   0.9765

Dispersion correction           -0.014782108
FINAL SINGLE POINT ENERGY     -1339.872487642053

DIPOLE MOMENT
-------------
                                X             Y             Z
Electronic contribution:    -19.14041     -23.46024       5.74198
Nuclear contribution   :     19.50150      23.88802      -6.04181
                        -----------------------------------------
Total Dipole Moment    :      0.36109       0.42777      -0.29982
                        -----------------------------------------
Magnitude (a.u.)       :      0.63504
Magnitude (Debye)      :      1.61413

Rotational constants in cm-1:     0.018649     0.009588     0.006890
Rotational constants in MHz :   559.068894   287.451294   206.556053

                             ****ORCA TERMINATED NORMALLY****
TOTAL RUN TIME: 0 days 0 hours 0 minutes 22 seconds 253 msec
