                         Program Version 4.2.1 -  RELEASE  -
|  1> ! wB97X-D3 SP def2-SVP
|  2> %pal
|  3> nprocs 24
|  4> end
|  5>
|  6> * xyz 0 1
|  7> S 	 15.8935 	 -13.5832 	 -120.512
|  8> C 	 14.8943 	 -12.2334 	 -120.104
|  9> C 	 13.6208 	 -12.5892 	 -119.802
| 10> C 	 13.5771 	 -14.0179 	 -119.671
| 11> C 	 14.6356 	 -14.726 	 -120.169
| 12> H 	 12.7124 	 -14.6824 	 -119.464
| 13> C 	 12.3866 	 -11.7745 	 -119.567
| 14> H 	 11.6023 	 -12.2838 	 -119.134
| 15> H 	 12.0062 	 -11.5145 	 -120.611
| 16> C 	 12.6407 	 -10.4232 	 -118.989
| 17> H 	 13.4081 	 -10.5152 	 -118.185
| 18> H 	 13.0286 	 -9.7265 	 -119.664
| 19> C 	 11.4713 	 -9.66328 	 -118.323
| 20> H 	 11.874 	 -8.79685 	 -117.798
| 21> H 	 10.8169 	 -9.25305 	 -119.17
| 22> H 	 10.8527 	 -10.3199 	 -117.651
| 23> S 	 15.0288 	 -16.9761 	 -121.703
| 24> C 	 15.4294 	 -18.433 	 -120.901
| 25> C 	 15.4145 	 -18.3341 	 -119.532
| 26> C 	 15.014 	 -17.0166 	 -119.076
| 27> C 	 14.8856 	 -16.134 	 -120.153
| 28> H 	 15.5377 	 -19.1519 	 -118.826
| 29> C 	 14.9339 	 -16.6416 	 -117.612
| 30> H 	 15.0112 	 -15.5502 	 -117.59
| 31> H 	 15.8275 	 -17.0373 	 -117.133
| 32> C 	 13.6548 	 -16.9298 	 -116.793
| 33> H 	 13.5705 	 -17.9929 	 -116.775
| 34> H 	 12.8963 	 -16.5612 	 -117.534
| 35> C 	 13.5375 	 -16.203 	 -115.442
| 36> H 	 14.117 	 -16.621 	 -114.656
| 37> H 	 12.5187 	 -16.1104 	 -115.038
| 38> H 	 13.8778 	 -15.1722 	 -115.634
| 39> H 	 15.1381 	 -11.1852 	 -120.172
| 40> H 	 15.6721 	 -19.3593 	 -121.356
| 41> *
| 42>
| 43>                          ****END OF INPUT****

CARTESIAN COORDINATES (ANGSTROEM)
---------------------------------
  S     15.893500  -13.583200  -120.512000
  C     14.894300  -12.233400  -120.104000
  C     13.620800  -12.589200  -119.802000
  C     13.577100  -14.017900  -119.671000
  C     14.635600  -14.726000  -120.169000
  H     12.712400  -14.682400  -119.464000
  C     12.386600  -11.774500  -119.567000
  H     11.602300  -12.283800  -119.134000
  H     12.006200  -11.514500  -120.611000
  C     12.640700  -10.423200  -118.989000
  H     13.408100  -10.515200  -118.185000
  H     13.028600   -9.726500  -119.664000
  C     11.471300   -9.663280  -118.323000
  H     11.874000   -8.796850  -117.798000
  H     10.816900   -9.253050  -119.170000
  H     10.852700  -10.319900  -117.651000
  S     15.028800  -16.976100  -121.703000
  C     15.429400  -18.433000  -120.901000
  C     15.414500  -18.334100  -119.532000
  C     15.014000  -17.016600  -119.076000
  C     14.885600  -16.134000  -120.153000
  H     15.537700  -19.151900  -118.826000
  C     14.933900  -16.641600  -117.612000
  H     15.011200  -15.550200  -117.590000
  H     15.827500  -17.037300  -117.133000
  C     13.654800  -16.929800  -116.793000
  H     13.570500  -17.992900  -116.775000
  H     12.896300  -16.561200  -117.534000
  C     13.537500  -16.203000  -115.442000
  H     14.117000  -16.621000  -114.656000
  H     12.518700  -16.110400  -115.038000
  H     13.877800  -15.172200  -115.634000
  H     15.138100  -11.185200  -120.172000
  H     15.672100  -19.359300  -121.356000

 Total Charge           Charge          ....    0
 Multiplicity           Mult            ....    1
 Number of Electrons    NEL             ....  134
 Basis Dimension        Dim             ....  322

ORBITAL ENERGIES
----------------

  NO   OCC          E(Eh)            E(eV)
   0   2.0000     -88.967294     -2420.9231
   1   2.0000     -88.962184     -2420.7841
   2   2.0000     -10.325020      -280.9581
   3   2.0000     -10.320395      -280.8322
   4   2.0000     -10.313130      -280.6345
   5   2.0000     -10.309391      -280.5328
   6   2.0000     -10.305831      -280.4359
   7   2.0000     -10.299598      -280.2663
   8   2.0000     -10.292996      -280.0867
   9   2.0000     -10.292232      -280.0659
  10   2.0000     -10.291599      -280.0486
  11   2.0000     -10.290195      -280.0105
  12   2.0000     -10.288318      -279.9594
  13   2.0000     -10.287321      -279.9322
  14   2.0000     -10.283124      -279.8180
  15   2.0000     -10.280714      -279.7525
  16   2.0000      -8.082414      -219.9337
  17   2.0000      -8.077728      -219.8061
  18   2.0000      -6.040874      -164.3805
  19   2.0000      -6.036909      -164.2726
  20   2.0000      -6.036303      -164.2561
  21   2.0000      -6.033167      -164.1708
  22   2.0000      -6.032058      -164.1406
  23   2.0000      -6.028399      -164.0411
  24   2.0000      -1.011834       -27.5334
  25   2.0000      -0.988595       -26.9010
  26   2.0000      -0.921100       -25.0644
  27   2.0000      -0.907340       -24.6900
  28   2.0000      -0.873992       -23.7825
  29   2.0000      -0.851555       -23.1720
  30   2.0000      -0.847530       -23.0625
  31   2.0000      -0.814118       -22.1533
  32   2.0000      -0.787462       -21.4279
  33   2.0000      -0.775442       -21.1008
  34   2.0000      -0.711823       -19.3697
  35   2.0000      -0.701380       -19.0855
  36   2.0000      -0.691620       -18.8199
  37   2.0000      -0.660773       -17.9805
  38   2.0000      -0.645030       -17.5522
  39   2.0000      -0.609963       -16.5979
  40   2.0000      -0.595921       -16.2158
  41   2.0000      -0.577362       -15.7108
  42   2.0000      -0.571947       -15.5635
  43   2.0000      -0.566978       -15.4283
  44   2.0000      -0.528449       -14.3798
  45   2.0000      -0.522533       -14.2188
  46   2.0000      -0.520574       -14.1656
  47   2.0000      -0.513752       -13.9799
  48   2.0000      -0.507009       -13.7964
  49   2.0000      -0.500564       -13.6210
  50   2.0000      -0.489231       -13.3127
  51   2.0000      -0.478346       -13.0165
  52   2.0000      -0.473777       -12.8921
  53   2.0000      -0.469564       -12.7775
  54   2.0000      -0.459621       -12.5069
  55   2.0000      -0.454662       -12.3720
  56   2.0000      -0.443014       -12.0550
  57   2.0000      -0.439344       -11.9552
  58   2.0000      -0.430425       -11.7124
  59   2.0000      -0.424311       -11.5461
  60   2.0000      -0.418957       -11.4004
  61   2.0000      -0.416907       -11.3446
  62   2.0000      -0.408799       -11.1240
  63   2.0000      -0.336960        -9.1691
  64   2.0000      -0.332172        -9.0389
  65   2.0000      -0.326213        -8.8767
  66   2.0000      -0.302773        -8.2389
  67   0.0000       0.041042         1.1168
  68   0.0000       0.063563         1.7296
  69   0.0000       0.117165         3.1882
  70   0.0000       0.122155         3.3240
  71   0.0000       0.128590         3.4991

MULLIKEN ATOMIC CHARGES
-----------------------
   0 S :    0.120023
   1 C :   -0.114052
   2 C :   -0.089615
   3 C :   -0.006871
   4 C :   -0.163818
   5 H :    0.024223
   6 C :    0.157193
   7 H :   -0.000500
   8 H :    0.043868
   9 C :   -0.129934
  10 H :    0.031371
  11 H :    0.022399
  12 C :   -0.070815
  13 H :    0.041441
  14 H :    0.035948
  15 H :    0.044015
  16 S :    0.125298
  17 C :   -0.061083
  18 C :   -0.030333
  19 C :   -0.024676
  20 C :   -0.197474
  21 H :    0.019087
  22 C :    0.036364
  23 H :    0.022431
  24 H :    0.026893
  25 C :   -0.057697
  26 H :    0.018586
  27 H :    0.025116
  28 C :   -0.028207
  29 H :    0.031516
  30 H :    0.039534
  31 H :    0.028931
  32 H :    0.037520
  33 H :    0.043319
Sum of atomic charges:    0.0000000

LOEWDIN ATOMIC CHARGES
----------------------
   0 S :    0.420930
   1 C :   -0.200638
   2 C :   -0.063695
   3 C :   -0.067102
   4 C :   -0.212137
   5 H :    0.033400
   6 C :   -0.026730
   7 H :    0.019835
   8 H :    0.051002
   9 C :   -0.050002
  10 H :    0.024037
  11 H :    0.016403
  12 C :   -0.066577
  13 H :    0.028149
  14 H :    0.029275
  15 H :    0.026950
  16 S :    0.418425
  17 C :   -0.188879
  18 C :   -0.072557
  19 C :   -0.044261
  20 C :   -0.204705
  21 H :    0.031618
  22 C :   -0.036962
  23 H :    0.029816
  24 H :    0.027292
  25 C :   -0.039244
  26 H :    0.014717
  27 H :    0.029016
  28 C :   -0.063500
  29 H :    0.021764
  30 H :    0.031758
  31 H :    0.030462
  32 H :    0.027636
  33 H :    0.024503

  Mayer bond orders larger than 0.100000
B(  0-S ,  1-C ) :   1.1452 B(  0-S ,  4-C ) :   1.1394 B(  1-C ,  2-C ) :   1.6272
B(  1-C , 32-H ) :   0.9618 B(  2-C ,  3-C ) :   1.2176 B(  2-C ,  6-C ) :   1.0301
B(  3-C ,  4-C ) :   1.6168 B(  3-C ,  5-H ) :   0.9848 B(  4-C , 20-C ) :   1.0255
B(  6-C ,  7-H ) :   0.9442 B(  6-C ,  8-H ) :   0.9165 B(  6-C ,  9-C ) :   1.0568
B(  9-C , 10-H ) :   0.9650 B(  9-C , 11-H ) :   0.9477 B(  9-C , 12-C ) :   1.0897
B( 12-C , 13-H ) :   0.9738 B( 12-C , 14-H ) :   0.9750 B( 12-C , 15-H ) :   0.9768
B( 16-S , 17-C ) :   1.1584 B( 16-S , 20-C ) :   1.1386 B( 17-C , 18-C ) :   1.6098
B( 17-C , 33-H ) :   0.9685 B( 18-C , 19-C ) :   1.2405 B( 18-C , 21-H ) :   0.9864
B( 19-C , 20-C ) :   1.5958 B( 19-C , 22-C ) :   1.0551 B( 22-C , 23-H ) :   0.9268
B( 22-C , 24-H ) :   0.9348 B( 22-C , 25-C ) :   1.0521 B( 25-C , 26-H ) :   0.9580
B( 25-C , 27-H ) :   0.9529 B( 25-C , 28-C ) :   1.0745 B( 28-C , 29-H ) :   0.9764
B( 28-C , 30-H ) :   0.9754 B( 28-C , 31-H ) :   0.9721

Dispersion correction           -0.013999631
FINAL SINGLE POINT ENERGY     -1339.872730820263

DIPOLE MOMENT
-------------
                                X             Y             Z
Electronic contribution:     16.09944     -12.96346     -22.45580
Nuclear contribution   :    -16.49627      13.09427      22.89836
                        -----------------------------------------
Total Dipole Moment    :     -0.39682       0.13081       0.44256
                        -----------------------------------------
Magnitude (a.u.)       :      0.60864
Magnitude (Debye)      :      1.54704

Rotational constants in cm-1:     0.018973     0.008145     0.006310
Rotational constants in MHz :   568.810265   244.172335   189.183901

                             ****ORCA TERMINATED NORMALLY****
TOTAL RUN TIME: 0 days 0 hours 0 minutes 21 seconds 460 msec
