                         Program Version 4.2.1 -  RELEASE  -
|  1> ! wB97X-D3 SP def2-SVP
|  2> %pal
|  3> nprocs 24
|  4> end
|  5>
|  6> * xyz 0 1
|  7> S 	 -120.567 	 24.5004 	 -26.0391
|  8> C 	 -119.959 	 25.1064 	 -27.5283
|  9> C 	 -120.722 	 26.1893 	 -27.9742
| 10> C 	 -121.778 	 26.5265 	 -27.0784
| 11> C 	 -121.868 	 25.6778 	 -25.9784
| 12> H 	 -122.491 	 27.3081 	 -27.192
| 13> C 	 -120.435 	 26.8169 	 -29.3438
| 14> H 	 -120.855 	 27.7815 	 -29.4222
| 15> H 	 -120.883 	 26.2875 	 -30.1604
| 16> C 	 -118.996 	 26.8842 	 -29.8229
| 17> H 	 -118.461 	 27.4357 	 -29.0207
| 18> H 	 -118.537 	 25.9142 	 -29.7375
| 19> C 	 -118.827 	 27.4838 	 -31.1984
| 20> H 	 -119.41 	 27.0063 	 -31.9453
| 21> H 	 -119.188 	 28.4889 	 -31.236
| 22> H 	 -117.793 	 27.5505 	 -31.4665
| 23> S 	 -122.556 	 25.306 	 -23.3574
| 24> C 	 -124.142 	 25.8966 	 -22.7618
| 25> C 	 -124.961 	 25.9842 	 -23.9
| 26> C 	 -124.324 	 25.8983 	 -25.166
| 27> C 	 -122.929 	 25.7339 	 -24.9807
| 28> H 	 -126.023 	 26.1871 	 -23.8123
| 29> C 	 -124.977 	 26.168 	 -26.4205
| 30> H 	 -124.696 	 27.1714 	 -26.7884
| 31> H 	 -126.001 	 26.3232 	 -26.3158
| 32> C 	 -124.816 	 25.0562 	 -27.501
| 33> H 	 -125.588 	 24.3195 	 -27.342
| 34> H 	 -123.822 	 24.5909 	 -27.5342
| 35> C 	 -124.942 	 25.5489 	 -28.9338
| 36> H 	 -125.132 	 24.7358 	 -29.5646
| 37> H 	 -124.115 	 26.1432 	 -29.2229
| 38> H 	 -125.805 	 26.1501 	 -29.0809
| 39> H 	 -119.098 	 24.6615 	 -28.0642
| 40> H 	 -124.422 	 25.9958 	 -21.7428
| 41> *
| 42>
| 43>                          ****END OF INPUT****

CARTESIAN COORDINATES (ANGSTROEM)
---------------------------------
  S    -120.567000   24.500400  -26.039100
  C    -119.959000   25.106400  -27.528300
  C    -120.722000   26.189300  -27.974200
  C    -121.778000   26.526500  -27.078400
  C    -121.868000   25.677800  -25.978400
  H    -122.491000   27.308100  -27.192000
  C    -120.435000   26.816900  -29.343800
  H    -120.855000   27.781500  -29.422200
  H    -120.883000   26.287500  -30.160400
  C    -118.996000   26.884200  -29.822900
  H    -118.461000   27.435700  -29.020700
  H    -118.537000   25.914200  -29.737500
  C    -118.827000   27.483800  -31.198400
  H    -119.410000   27.006300  -31.945300
  H    -119.188000   28.488900  -31.236000
  H    -117.793000   27.550500  -31.466500
  S    -122.556000   25.306000  -23.357400
  C    -124.142000   25.896600  -22.761800
  C    -124.961000   25.984200  -23.900000
  C    -124.324000   25.898300  -25.166000
  C    -122.929000   25.733900  -24.980700
  H    -126.023000   26.187100  -23.812300
  C    -124.977000   26.168000  -26.420500
  H    -124.696000   27.171400  -26.788400
  H    -126.001000   26.323200  -26.315800
  C    -124.816000   25.056200  -27.501000
  H    -125.588000   24.319500  -27.342000
  H    -123.822000   24.590900  -27.534200
  C    -124.942000   25.548900  -28.933800
  H    -125.132000   24.735800  -29.564600
  H    -124.115000   26.143200  -29.222900
  H    -125.805000   26.150100  -29.080900
  H    -119.098000   24.661500  -28.064200
  H    -124.422000   25.995800  -21.742800

 Total Charge           Charge          ....    0
 Multiplicity           Mult            ....    1
 Number of Electrons    NEL             ....  134
 Basis Dimension        Dim             ....  322

ORBITAL ENERGIES
----------------

  NO   OCC          E(Eh)            E(eV)
   0   2.0000     -88.968537     -2420.9570
   1   2.0000     -88.964708     -2420.8528
   2   2.0000     -10.331264      -281.1280
   3   2.0000     -10.327633      -281.0292
   4   2.0000     -10.321368      -280.8587
   5   2.0000     -10.315532      -280.6999
   6   2.0000     -10.305239      -280.4198
   7   2.0000     -10.300730      -280.2971
   8   2.0000     -10.297272      -280.2030
   9   2.0000     -10.294151      -280.1181
  10   2.0000     -10.285461      -279.8816
  11   2.0000     -10.284683      -279.8605
  12   2.0000     -10.283585      -279.8306
  13   2.0000     -10.280299      -279.7411
  14   2.0000     -10.273271      -279.5499
  15   2.0000     -10.261791      -279.2375
  16   2.0000      -8.083402      -219.9605
  17   2.0000      -8.079353      -219.8504
  18   2.0000      -6.041861      -164.4074
  19   2.0000      -6.037864      -164.2986
  20   2.0000      -6.037727      -164.2949
  21   2.0000      -6.034390      -164.2041
  22   2.0000      -6.033924      -164.1914
  23   2.0000      -6.030080      -164.0868
  24   2.0000      -1.008169       -27.4337
  25   2.0000      -0.984701       -26.7951
  26   2.0000      -0.916586       -24.9416
  27   2.0000      -0.913382       -24.8544
  28   2.0000      -0.869569       -23.6622
  29   2.0000      -0.857244       -23.3268
  30   2.0000      -0.851278       -23.1644
  31   2.0000      -0.816603       -22.2209
  32   2.0000      -0.785160       -21.3653
  33   2.0000      -0.772048       -21.0085
  34   2.0000      -0.712653       -19.3923
  35   2.0000      -0.704480       -19.1699
  36   2.0000      -0.690783       -18.7972
  37   2.0000      -0.669188       -18.2095
  38   2.0000      -0.643232       -17.5032
  39   2.0000      -0.617701       -16.8085
  40   2.0000      -0.600765       -16.3476
  41   2.0000      -0.572905       -15.5895
  42   2.0000      -0.570676       -15.5289
  43   2.0000      -0.564660       -15.3652
  44   2.0000      -0.530595       -14.4382
  45   2.0000      -0.525184       -14.2910
  46   2.0000      -0.523339       -14.2408
  47   2.0000      -0.518559       -14.1107
  48   2.0000      -0.505371       -13.7518
  49   2.0000      -0.501787       -13.6543
  50   2.0000      -0.495845       -13.4926
  51   2.0000      -0.492864       -13.4115
  52   2.0000      -0.479303       -13.0425
  53   2.0000      -0.465328       -12.6622
  54   2.0000      -0.460118       -12.5205
  55   2.0000      -0.449896       -12.2423
  56   2.0000      -0.440560       -11.9882
  57   2.0000      -0.434846       -11.8328
  58   2.0000      -0.430137       -11.7046
  59   2.0000      -0.428318       -11.6551
  60   2.0000      -0.422123       -11.4865
  61   2.0000      -0.416131       -11.3235
  62   2.0000      -0.411845       -11.2069
  63   2.0000      -0.351950        -9.5770
  64   2.0000      -0.333562        -9.0767
  65   2.0000      -0.324466        -8.8292
  66   2.0000      -0.282328        -7.6825
  67   0.0000       0.018762         0.5105
  68   0.0000       0.070495         1.9183
  69   0.0000       0.102029         2.7764
  70   0.0000       0.122924         3.3449
  71   0.0000       0.135676         3.6919

MULLIKEN ATOMIC CHARGES
-----------------------
   0 S :    0.122153
   1 C :   -0.155634
   2 C :   -0.054541
   3 C :    0.014030
   4 C :   -0.132575
   5 H :   -0.007180
   6 C :    0.097479
   7 H :    0.000485
   8 H :    0.023434
   9 C :   -0.113539
  10 H :    0.027250
  11 H :    0.018493
  12 C :    0.006734
  13 H :    0.019436
  14 H :    0.015376
  15 H :    0.033247
  16 S :    0.096135
  17 C :   -0.084865
  18 C :   -0.031856
  19 C :   -0.006088
  20 C :   -0.158879
  21 H :    0.016697
  22 C :    0.071470
  23 H :    0.033664
  24 H :   -0.009824
  25 C :   -0.084605
  26 H :    0.027635
  27 H :    0.058139
  28 C :   -0.006313
  29 H :    0.017979
  30 H :    0.022765
  31 H :    0.001673
  32 H :    0.069979
  33 H :    0.051647
Sum of atomic charges:    0.0000000

LOEWDIN ATOMIC CHARGES
----------------------
   0 S :    0.418933
   1 C :   -0.215015
   2 C :   -0.059994
   3 C :   -0.061027
   4 C :   -0.191996
   5 H :    0.025448
   6 C :   -0.030916
   7 H :    0.020638
   8 H :    0.028864
   9 C :   -0.043410
  10 H :    0.026263
  11 H :    0.015653
  12 C :   -0.056302
  13 H :    0.021797
  14 H :    0.024638
  15 H :    0.029277
  16 S :    0.402754
  17 C :   -0.172653
  18 C :   -0.062592
  19 C :   -0.059283
  20 C :   -0.197885
  21 H :    0.029016
  22 C :   -0.037112
  23 H :    0.035224
  24 H :    0.024634
  25 C :   -0.030930
  26 H :    0.022978
  27 H :    0.031578
  28 C :   -0.055619
  29 H :    0.021898
  30 H :    0.018678
  31 H :    0.015244
  32 H :    0.036284
  33 H :    0.024935

  Mayer bond orders larger than 0.100000
B(  0-S ,  1-C ) :   1.1523 B(  0-S ,  4-C ) :   1.1540 B(  1-C ,  2-C ) :   1.5731
B(  1-C , 32-H ) :   0.9652 B(  2-C ,  3-C ) :   1.2627 B(  2-C ,  6-C ) :   1.0176
B(  3-C ,  4-C ) :   1.5336 B(  3-C ,  5-H ) :   1.0082 B(  4-C , 20-C ) :   1.0775
B(  6-C ,  7-H ) :   0.9423 B(  6-C ,  8-H ) :   0.9327 B(  6-C ,  9-C ) :   1.0658
B(  9-C , 10-H ) :   0.9558 B(  9-C , 11-H ) :   0.9469 B(  9-C , 12-C ) :   1.0907
B( 12-C , 13-H ) :   0.9710 B( 12-C , 14-H ) :   0.9698 B( 12-C , 15-H ) :   0.9700
B( 16-S , 17-C ) :   1.1451 B( 16-S , 20-C ) :   1.1600 B( 17-C , 18-C ) :   1.5617
B( 17-C , 20-C ) :   0.1151 B( 17-C , 33-H ) :   0.9818 B( 18-C , 19-C ) :   1.2783
B( 18-C , 21-H ) :   0.9848 B( 19-C , 20-C ) :   1.5046 B( 19-C , 22-C ) :   1.0659
B( 22-C , 23-H ) :   0.9358 B( 22-C , 24-H ) :   0.9087 B( 22-C , 25-C ) :   1.0363
B( 25-C , 26-H ) :   0.9559 B( 25-C , 27-H ) :   0.9659 B( 25-C , 28-C ) :   1.0870
B( 28-C , 29-H ) :   0.9689 B( 28-C , 30-H ) :   0.9774 B( 28-C , 31-H ) :   0.9671

Dispersion correction           -0.014934284
FINAL SINGLE POINT ENERGY     -1339.869838610603

DIPOLE MOMENT
-------------
                                X             Y             Z
Electronic contribution:      2.45662      -8.99423      29.56464
Nuclear contribution   :     -2.83446       9.27318     -30.16174
                        -----------------------------------------
Total Dipole Moment    :     -0.37784       0.27896      -0.59710
                        -----------------------------------------
Magnitude (a.u.)       :      0.75967
Magnitude (Debye)      :      1.93094

Rotational constants in cm-1:     0.022749     0.008111     0.006563
Rotational constants in MHz :   682.008632   243.160374   196.759165

                             ****ORCA TERMINATED NORMALLY****
TOTAL RUN TIME: 0 days 0 hours 0 minutes 21 seconds 203 msec
