                         Program Version 4.2.1 -  RELEASE  -
|  1> ! wB97X-D3 SP def2-SVP
|  2> %pal
|  3> nprocs 24
|  4> end
|  5>
|  6> * xyz 0 1
|  7> S 	 -51.4942 	 19.8571 	 22.3404
|  8> C 	 -51.5729 	 21.137 	 23.5066
|  9> C 	 -50.346 	 21.6982 	 23.6701
| 10> C 	 -49.3646 	 21.2955 	 22.7285
| 11> C 	 -49.8273 	 20.2681 	 21.9258
| 12> H 	 -48.3157 	 21.4702 	 22.6156
| 13> C 	 -50.0895 	 22.7756 	 24.7279
| 14> H 	 -50.6737 	 22.43 	 25.606
| 15> H 	 -50.4627 	 23.7189 	 24.2821
| 16> C 	 -48.6272 	 23.0402 	 25.0902
| 17> H 	 -48.0731 	 23.4187 	 24.1872
| 18> H 	 -48.7452 	 23.8988 	 25.6914
| 19> C 	 -47.9988 	 21.7882 	 25.7609
| 20> H 	 -48.5808 	 21.4855 	 26.7081
| 21> H 	 -48.1339 	 20.8695 	 25.0772
| 22> H 	 -46.963 	 21.9642 	 26.1076
| 23> S 	 -48.5194 	 20.3798 	 19.5085
| 24> C 	 -47.6887 	 19.0065 	 18.917
| 25> C 	 -47.9097 	 17.8977 	 19.7201
| 26> C 	 -48.6946 	 18.1337 	 20.8967
| 27> C 	 -49.1071 	 19.4869 	 20.9203
| 28> H 	 -47.5309 	 16.967 	 19.4185
| 29> C 	 -48.997 	 17.1174 	 21.9565
| 30> H 	 -49.3594 	 16.1848 	 21.5082
| 31> H 	 -49.8812 	 17.4909 	 22.5868
| 32> C 	 -47.7594 	 16.8267 	 22.7766
| 33> H 	 -46.9158 	 16.5108 	 22.1916
| 34> H 	 -47.9138 	 15.8555 	 23.2503
| 35> C 	 -47.4732 	 18.0174 	 23.7139
| 36> H 	 -48.2743 	 18.0985 	 24.4832
| 37> H 	 -47.2944 	 18.895 	 23.2272
| 38> H 	 -46.5839 	 17.6796 	 24.2953
| 39> H 	 -52.6012 	 21.4121 	 23.9398
| 40> H 	 -47.0063 	 19.0467 	 18.0791
| 41> *
| 42>
| 43>                          ****END OF INPUT****

CARTESIAN COORDINATES (ANGSTROEM)
---------------------------------
  S    -51.494200   19.857100   22.340400
  C    -51.572900   21.137000   23.506600
  C    -50.346000   21.698200   23.670100
  C    -49.364600   21.295500   22.728500
  C    -49.827300   20.268100   21.925800
  H    -48.315700   21.470200   22.615600
  C    -50.089500   22.775600   24.727900
  H    -50.673700   22.430000   25.606000
  H    -50.462700   23.718900   24.282100
  C    -48.627200   23.040200   25.090200
  H    -48.073100   23.418700   24.187200
  H    -48.745200   23.898800   25.691400
  C    -47.998800   21.788200   25.760900
  H    -48.580800   21.485500   26.708100
  H    -48.133900   20.869500   25.077200
  H    -46.963000   21.964200   26.107600
  S    -48.519400   20.379800   19.508500
  C    -47.688700   19.006500   18.917000
  C    -47.909700   17.897700   19.720100
  C    -48.694600   18.133700   20.896700
  C    -49.107100   19.486900   20.920300
  H    -47.530900   16.967000   19.418500
  C    -48.997000   17.117400   21.956500
  H    -49.359400   16.184800   21.508200
  H    -49.881200   17.490900   22.586800
  C    -47.759400   16.826700   22.776600
  H    -46.915800   16.510800   22.191600
  H    -47.913800   15.855500   23.250300
  C    -47.473200   18.017400   23.713900
  H    -48.274300   18.098500   24.483200
  H    -47.294400   18.895000   23.227200
  H    -46.583900   17.679600   24.295300
  H    -52.601200   21.412100   23.939800
  H    -47.006300   19.046700   18.079100

 Total Charge           Charge          ....    0
 Multiplicity           Mult            ....    1
 Number of Electrons    NEL             ....  134
 Basis Dimension        Dim             ....  322

ORBITAL ENERGIES
----------------

  NO   OCC          E(Eh)            E(eV)
   0   2.0000     -88.964762     -2420.8542
   1   2.0000     -88.961092     -2420.7544
   2   2.0000     -10.327979      -281.0386
   3   2.0000     -10.326461      -280.9973
   4   2.0000     -10.314829      -280.6808
   5   2.0000     -10.313870      -280.6547
   6   2.0000     -10.305097      -280.4159
   7   2.0000     -10.298886      -280.2469
   8   2.0000     -10.293188      -280.0919
   9   2.0000     -10.292084      -280.0618
  10   2.0000     -10.291947      -280.0581
  11   2.0000     -10.291704      -280.0515
  12   2.0000     -10.289761      -279.9986
  13   2.0000     -10.288479      -279.9638
  14   2.0000     -10.281300      -279.7684
  15   2.0000     -10.272097      -279.5180
  16   2.0000      -8.079783      -219.8621
  17   2.0000      -8.075941      -219.7575
  18   2.0000      -6.038145      -164.3063
  19   2.0000      -6.034280      -164.2011
  20   2.0000      -6.034163      -164.1979
  21   2.0000      -6.030781      -164.1059
  22   2.0000      -6.030337      -164.0938
  23   2.0000      -6.026974      -164.0023
  24   2.0000      -1.005549       -27.3624
  25   2.0000      -0.984995       -26.8031
  26   2.0000      -0.913146       -24.8480
  27   2.0000      -0.909359       -24.7449
  28   2.0000      -0.867851       -23.6154
  29   2.0000      -0.846719       -23.0404
  30   2.0000      -0.839976       -22.8569
  31   2.0000      -0.812014       -22.0960
  32   2.0000      -0.781253       -21.2590
  33   2.0000      -0.767882       -20.8951
  34   2.0000      -0.709313       -19.3014
  35   2.0000      -0.701674       -19.0935
  36   2.0000      -0.683006       -18.5855
  37   2.0000      -0.658682       -17.9236
  38   2.0000      -0.641972       -17.4690
  39   2.0000      -0.616361       -16.7720
  40   2.0000      -0.596967       -16.2443
  41   2.0000      -0.560485       -15.2516
  42   2.0000      -0.555326       -15.1112
  43   2.0000      -0.553380       -15.0582
  44   2.0000      -0.538681       -14.6583
  45   2.0000      -0.529981       -14.4215
  46   2.0000      -0.518561       -14.1108
  47   2.0000      -0.514642       -14.0041
  48   2.0000      -0.501965       -13.6592
  49   2.0000      -0.497880       -13.5480
  50   2.0000      -0.489356       -13.3160
  51   2.0000      -0.474808       -12.9202
  52   2.0000      -0.467219       -12.7137
  53   2.0000      -0.466730       -12.7004
  54   2.0000      -0.453355       -12.3364
  55   2.0000      -0.447802       -12.1853
  56   2.0000      -0.442588       -12.0434
  57   2.0000      -0.435870       -11.8606
  58   2.0000      -0.430175       -11.7057
  59   2.0000      -0.422039       -11.4843
  60   2.0000      -0.417329       -11.3561
  61   2.0000      -0.411072       -11.1858
  62   2.0000      -0.408580       -11.1180
  63   2.0000      -0.339669        -9.2429
  64   2.0000      -0.330494        -8.9932
  65   2.0000      -0.326278        -8.8785
  66   2.0000      -0.294468        -8.0129
  67   0.0000       0.035667         0.9705
  68   0.0000       0.066218         1.8019
  69   0.0000       0.112613         3.0644
  70   0.0000       0.116533         3.1710
  71   0.0000       0.135169         3.6781

MULLIKEN ATOMIC CHARGES
-----------------------
   0 S :    0.103048
   1 C :   -0.169588
   2 C :   -0.088635
   3 C :    0.051837
   4 C :   -0.176860
   5 H :    0.014136
   6 C :    0.033947
   7 H :    0.035191
   8 H :    0.047133
   9 C :   -0.050448
  10 H :    0.038254
  11 H :    0.020584
  12 C :   -0.100722
  13 H :    0.036027
  14 H :    0.062028
  15 H :    0.048942
  16 S :    0.116789
  17 C :   -0.093198
  18 C :   -0.023156
  19 C :   -0.006855
  20 C :   -0.198010
  21 H :   -0.006291
  22 C :    0.051942
  23 H :    0.025178
  24 H :    0.034642
  25 C :   -0.056170
  26 H :    0.016504
  27 H :    0.013811
  28 C :   -0.024071
  29 H :    0.040700
  30 H :    0.030698
  31 H :    0.030133
  32 H :    0.083426
  33 H :    0.059054
Sum of atomic charges:   -0.0000000

LOEWDIN ATOMIC CHARGES
----------------------
   0 S :    0.405776
   1 C :   -0.214619
   2 C :   -0.073851
   3 C :   -0.065578
   4 C :   -0.186429
   5 H :    0.032157
   6 C :   -0.032884
   7 H :    0.032964
   8 H :    0.037702
   9 C :   -0.048331
  10 H :    0.029688
  11 H :    0.021379
  12 C :   -0.080736
  13 H :    0.033267
  14 H :    0.038682
  15 H :    0.027380
  16 S :    0.419323
  17 C :   -0.197890
  18 C :   -0.066866
  19 C :   -0.049456
  20 C :   -0.205494
  21 H :    0.019994
  22 C :   -0.039670
  23 H :    0.030924
  24 H :    0.032216
  25 C :   -0.042403
  26 H :    0.021068
  27 H :    0.024053
  28 C :   -0.052771
  29 H :    0.031613
  30 H :    0.010232
  31 H :    0.031470
  32 H :    0.047417
  33 H :    0.029670

  Mayer bond orders larger than 0.100000
B(  0-S ,  1-C ) :   1.1411 B(  0-S ,  4-C ) :   1.1629 B(  1-C ,  2-C ) :   1.6169
B(  1-C , 32-H ) :   0.9649 B(  2-C ,  3-C ) :   1.2204 B(  2-C ,  6-C ) :   0.9943
B(  3-C ,  4-C ) :   1.5805 B(  3-C ,  5-H ) :   0.9922 B(  4-C , 20-C ) :   1.0127
B(  6-C ,  7-H ) :   0.9469 B(  6-C ,  8-H ) :   0.9371 B(  6-C ,  9-C ) :   1.0924
B(  9-C , 10-H ) :   0.9428 B(  9-C , 11-H ) :   0.9527 B(  9-C , 12-C ) :   1.0614
B( 12-C , 13-H ) :   0.9709 B( 12-C , 14-H ) :   0.9705 B( 12-C , 15-H ) :   0.9752
B( 16-S , 17-C ) :   1.1668 B( 16-S , 20-C ) :   1.1575 B( 17-C , 18-C ) :   1.5882
B( 17-C , 33-H ) :   0.9688 B( 18-C , 19-C ) :   1.2466 B( 18-C , 21-H ) :   0.9974
B( 19-C , 20-C ) :   1.5583 B( 19-C , 22-C ) :   1.0502 B( 22-C , 23-H ) :   0.9267
B( 22-C , 24-H ) :   0.9315 B( 22-C , 25-C ) :   1.0786 B( 25-C , 26-H ) :   0.9534
B( 25-C , 27-H ) :   0.9496 B( 25-C , 28-C ) :   1.0642 B( 28-C , 29-H ) :   0.9733
B( 28-C , 30-H ) :   0.9789 B( 28-C , 31-H ) :   0.9703

Dispersion correction           -0.016523420
FINAL SINGLE POINT ENERGY     -1339.877172833980

DIPOLE MOMENT
-------------
                                X             Y             Z
Electronic contribution:    -11.21985       1.49014     -21.33399
Nuclear contribution   :     11.52233      -1.56369      21.71216
                        -----------------------------------------
Total Dipole Moment    :      0.30248      -0.07355       0.37818
                        -----------------------------------------
Magnitude (a.u.)       :      0.48982
Magnitude (Debye)      :      1.24502

Rotational constants in cm-1:     0.019345     0.009486     0.008676
Rotational constants in MHz :   579.957760   284.394349   260.086668

                             ****ORCA TERMINATED NORMALLY****
TOTAL RUN TIME: 0 days 0 hours 0 minutes 22 seconds 52 msec
