                         Program Version 4.2.1 -  RELEASE  -
|  1> ! wB97X-D3 SP def2-SVP
|  2> %pal
|  3> nprocs 24
|  4> end
|  5>
|  6> * xyz 0 1
|  7> S 	 -58.6226 	 -54.853 	 -86.1494
|  8> C 	 -60.0998 	 -54.0134 	 -85.6551
|  9> C 	 -60.4788 	 -54.3453 	 -84.371
| 10> C 	 -59.8139 	 -55.5705 	 -84.029
| 11> C 	 -58.8965 	 -56.0232 	 -84.9713
| 12> H 	 -60.0164 	 -56.1233 	 -83.1309
| 13> C 	 -61.7412 	 -53.9167 	 -83.5531
| 14> H 	 -62.6017 	 -54.5381 	 -83.6818
| 15> H 	 -62.0439 	 -53.0101 	 -83.9661
| 16> C 	 -61.4548 	 -53.5374 	 -82.1202
| 17> H 	 -61.2371 	 -54.5458 	 -81.6005
| 18> H 	 -60.5532 	 -52.9068 	 -81.905
| 19> C 	 -62.6897 	 -53.099 	 -81.2504
| 20> H 	 -63.528 	 -53.6918 	 -81.5699
| 21> H 	 -62.7093 	 -53.2065 	 -80.1595
| 22> H 	 -63.0609 	 -52.0805 	 -81.5275
| 23> S 	 -56.3379 	 -56.8905 	 -84.6911
| 24> C 	 -55.9802 	 -58.5191 	 -84.3435
| 25> C 	 -57.1288 	 -59.3239 	 -84.3337
| 26> C 	 -58.3114 	 -58.4975 	 -84.4983
| 27> C 	 -58.042 	 -57.211 	 -84.8095
| 28> H 	 -57.2106 	 -60.3732 	 -84.1126
| 29> C 	 -59.7025 	 -59.0989 	 -84.5926
| 30> H 	 -59.726 	 -59.7662 	 -85.503
| 31> H 	 -60.3741 	 -58.2423 	 -84.8514
| 32> C 	 -60.1379 	 -59.898 	 -83.3163
| 33> H 	 -60.1597 	 -59.2575 	 -82.3707
| 34> H 	 -59.3986 	 -60.6692 	 -83.1319
| 35> C 	 -61.3809 	 -60.6775 	 -83.6684
| 36> H 	 -62.1408 	 -59.8571 	 -83.599
| 37> H 	 -61.6884 	 -61.3531 	 -82.8537
| 38> H 	 -61.2746 	 -61.1905 	 -84.6388
| 39> H 	 -60.5242 	 -53.2605 	 -86.3993
| 40> H 	 -55.0056 	 -58.9784 	 -84.1393
| 41> *
| 42>
| 43>                          ****END OF INPUT****

CARTESIAN COORDINATES (ANGSTROEM)
---------------------------------
  S    -58.622600  -54.853000  -86.149400
  C    -60.099800  -54.013400  -85.655100
  C    -60.478800  -54.345300  -84.371000
  C    -59.813900  -55.570500  -84.029000
  C    -58.896500  -56.023200  -84.971300
  H    -60.016400  -56.123300  -83.130900
  C    -61.741200  -53.916700  -83.553100
  H    -62.601700  -54.538100  -83.681800
  H    -62.043900  -53.010100  -83.966100
  C    -61.454800  -53.537400  -82.120200
  H    -61.237100  -54.545800  -81.600500
  H    -60.553200  -52.906800  -81.905000
  C    -62.689700  -53.099000  -81.250400
  H    -63.528000  -53.691800  -81.569900
  H    -62.709300  -53.206500  -80.159500
  H    -63.060900  -52.080500  -81.527500
  S    -56.337900  -56.890500  -84.691100
  C    -55.980200  -58.519100  -84.343500
  C    -57.128800  -59.323900  -84.333700
  C    -58.311400  -58.497500  -84.498300
  C    -58.042000  -57.211000  -84.809500
  H    -57.210600  -60.373200  -84.112600
  C    -59.702500  -59.098900  -84.592600
  H    -59.726000  -59.766200  -85.503000
  H    -60.374100  -58.242300  -84.851400
  C    -60.137900  -59.898000  -83.316300
  H    -60.159700  -59.257500  -82.370700
  H    -59.398600  -60.669200  -83.131900
  C    -61.380900  -60.677500  -83.668400
  H    -62.140800  -59.857100  -83.599000
  H    -61.688400  -61.353100  -82.853700
  H    -61.274600  -61.190500  -84.638800
  H    -60.524200  -53.260500  -86.399300
  H    -55.005600  -58.978400  -84.139300

 Total Charge           Charge          ....    0
 Multiplicity           Mult            ....    1
 Number of Electrons    NEL             ....  134
 Basis Dimension        Dim             ....  322

ORBITAL ENERGIES
----------------

  NO   OCC          E(Eh)            E(eV)
   0   2.0000     -88.965715     -2420.8802
   1   2.0000     -88.962977     -2420.8057
   2   2.0000     -10.325135      -280.9612
   3   2.0000     -10.324777      -280.9515
   4   2.0000     -10.318546      -280.7819
   5   2.0000     -10.317449      -280.7521
   6   2.0000     -10.309331      -280.5312
   7   2.0000     -10.300406      -280.2883
   8   2.0000     -10.295322      -280.1500
   9   2.0000     -10.295137      -280.1449
  10   2.0000     -10.294263      -280.1211
  11   2.0000     -10.293291      -280.0947
  12   2.0000     -10.291850      -280.0555
  13   2.0000     -10.291060      -280.0340
  14   2.0000     -10.285040      -279.8702
  15   2.0000     -10.281956      -279.7862
  16   2.0000      -8.081930      -219.9205
  17   2.0000      -8.078949      -219.8394
  18   2.0000      -6.040249      -164.3635
  19   2.0000      -6.037432      -164.2869
  20   2.0000      -6.036443      -164.2600
  21   2.0000      -6.033258      -164.1733
  22   2.0000      -6.032578      -164.1548
  23   2.0000      -6.029688      -164.0762
  24   2.0000      -1.014255       -27.5993
  25   2.0000      -0.989775       -26.9331
  26   2.0000      -0.913292       -24.8519
  27   2.0000      -0.907877       -24.7046
  28   2.0000      -0.868109       -23.6224
  29   2.0000      -0.854814       -23.2607
  30   2.0000      -0.843922       -22.9643
  31   2.0000      -0.808714       -22.0062
  32   2.0000      -0.786859       -21.4115
  33   2.0000      -0.766891       -20.8682
  34   2.0000      -0.702703       -19.1215
  35   2.0000      -0.693918       -18.8825
  36   2.0000      -0.687683       -18.7128
  37   2.0000      -0.661840       -18.0096
  38   2.0000      -0.642986       -17.4966
  39   2.0000      -0.623333       -16.9617
  40   2.0000      -0.592194       -16.1144
  41   2.0000      -0.570220       -15.5165
  42   2.0000      -0.566864       -15.4252
  43   2.0000      -0.556526       -15.1438
  44   2.0000      -0.524192       -14.2640
  45   2.0000      -0.523467       -14.2443
  46   2.0000      -0.514918       -14.0116
  47   2.0000      -0.512715       -13.9517
  48   2.0000      -0.508602       -13.8398
  49   2.0000      -0.502211       -13.6659
  50   2.0000      -0.490629       -13.3507
  51   2.0000      -0.478815       -13.0292
  52   2.0000      -0.466371       -12.6906
  53   2.0000      -0.461435       -12.5563
  54   2.0000      -0.458446       -12.4749
  55   2.0000      -0.454273       -12.3614
  56   2.0000      -0.447676       -12.1819
  57   2.0000      -0.439503       -11.9595
  58   2.0000      -0.438297       -11.9267
  59   2.0000      -0.429388       -11.6843
  60   2.0000      -0.414610       -11.2821
  61   2.0000      -0.406458       -11.0603
  62   2.0000      -0.397608       -10.8195
  63   2.0000      -0.346096        -9.4178
  64   2.0000      -0.333629        -9.0785
  65   2.0000      -0.327493        -8.9115
  66   2.0000      -0.292376        -7.9560
  67   0.0000       0.036596         0.9958
  68   0.0000       0.064616         1.7583
  69   0.0000       0.107534         2.9261
  70   0.0000       0.118746         3.2312
  71   0.0000       0.125421         3.4129

MULLIKEN ATOMIC CHARGES
-----------------------
   0 S :    0.110106
   1 C :   -0.171727
   2 C :   -0.031557
   3 C :    0.022266
   4 C :   -0.159045
   5 H :    0.007908
   6 C :    0.114516
   7 H :    0.038497
   8 H :   -0.004633
   9 C :   -0.143380
  10 H :    0.033156
  11 H :    0.056612
  12 C :   -0.051714
  13 H :    0.009505
  14 H :    0.049597
  15 H :    0.028371
  16 S :    0.110988
  17 C :   -0.084265
  18 C :   -0.024677
  19 C :   -0.046824
  20 C :   -0.131100
  21 H :    0.016424
  22 C :   -0.005385
  23 H :    0.043857
  24 H :    0.037262
  25 C :   -0.102244
  26 H :    0.049119
  27 H :    0.019590
  28 C :   -0.046369
  29 H :    0.030823
  30 H :    0.035660
  31 H :    0.048758
  32 H :    0.077616
  33 H :    0.062285
Sum of atomic charges:   -0.0000000

LOEWDIN ATOMIC CHARGES
----------------------
   0 S :    0.420338
   1 C :   -0.187480
   2 C :   -0.060079
   3 C :   -0.057856
   4 C :   -0.217942
   5 H :    0.025659
   6 C :   -0.024169
   7 H :    0.032960
   8 H :    0.020335
   9 C :   -0.049433
  10 H :    0.028079
  11 H :    0.033832
  12 C :   -0.076099
  13 H :    0.021205
  14 H :    0.031290
  15 H :    0.024142
  16 S :    0.424305
  17 C :   -0.200397
  18 C :   -0.069758
  19 C :   -0.065447
  20 C :   -0.204931
  21 H :    0.027436
  22 C :   -0.036139
  23 H :    0.037411
  24 H :    0.032097
  25 C :   -0.048735
  26 H :    0.033329
  27 H :    0.015743
  28 C :   -0.071116
  29 H :    0.030936
  30 H :    0.025466
  31 H :    0.030837
  32 H :    0.039014
  33 H :    0.035167

  Mayer bond orders larger than 0.100000
B(  0-S ,  1-C ) :   1.1484 B(  0-S ,  4-C ) :   1.1607 B(  1-C ,  2-C ) :   1.5989
B(  1-C , 32-H ) :   0.9649 B(  2-C ,  3-C ) :   1.2212 B(  2-C ,  6-C ) :   1.0190
B(  3-C ,  4-C ) :   1.5715 B(  3-C ,  5-H ) :   0.9996 B(  4-C , 20-C ) :   0.9997
B(  6-C ,  7-H ) :   0.9461 B(  6-C ,  8-H ) :   0.9349 B(  6-C ,  9-C ) :   1.0465
B(  9-C , 10-H ) :   0.9567 B(  9-C , 11-H ) :   0.9616 B(  9-C , 12-C ) :   1.0647
B( 12-C , 13-H ) :   0.9692 B( 12-C , 14-H ) :   0.9791 B( 12-C , 15-H ) :   0.9744
B( 16-S , 17-C ) :   1.1701 B( 16-S , 20-C ) :   1.1334 B( 17-C , 18-C ) :   1.5952
B( 17-C , 33-H ) :   0.9652 B( 18-C , 19-C ) :   1.2313 B( 18-C , 21-H ) :   0.9879
B( 19-C , 20-C ) :   1.6491 B( 19-C , 22-C ) :   1.0391 B( 22-C , 23-H ) :   0.9445
B( 22-C , 24-H ) :   0.9401 B( 22-C , 25-C ) :   1.0420 B( 25-C , 26-H ) :   0.9567
B( 25-C , 27-H ) :   0.9568 B( 25-C , 28-C ) :   1.0742 B( 28-C , 29-H ) :   0.9760
B( 28-C , 30-H ) :   0.9730 B( 28-C , 31-H ) :   0.9710

Dispersion correction           -0.013536299
FINAL SINGLE POINT ENERGY     -1339.850190899575

DIPOLE MOMENT
-------------
                                X             Y             Z
Electronic contribution:     25.31868       5.58912     -16.66790
Nuclear contribution   :    -25.88295      -5.80574      17.00174
                        -----------------------------------------
Total Dipole Moment    :     -0.56427      -0.21662       0.33383
                        -----------------------------------------
Magnitude (a.u.)       :      0.69049
Magnitude (Debye)      :      1.75508

Rotational constants in cm-1:     0.015995     0.008722     0.006589
Rotational constants in MHz :   479.527699   261.474039   197.545464

                             ****ORCA TERMINATED NORMALLY****
TOTAL RUN TIME: 0 days 0 hours 0 minutes 21 seconds 59 msec
