                         Program Version 4.2.1 -  RELEASE  -
|  1> ! wB97X-D3 SP def2-SVP
|  2> %pal
|  3> nprocs 24
|  4> end
|  5>
|  6> * xyz 0 1
|  7> S 	 -108.033 	 63.8621 	 -10.3552
|  8> C 	 -107.132 	 65.3941 	 -10.4652
|  9> C 	 -105.9 	 65.2113 	 -9.85727
| 10> C 	 -105.62 	 63.9475 	 -9.36815
| 11> C 	 -106.752 	 63.1383 	 -9.38046
| 12> H 	 -104.793 	 63.5973 	 -8.92524
| 13> C 	 -104.716 	 66.2285 	 -10.037
| 14> H 	 -105.081 	 67.0255 	 -10.6159
| 15> H 	 -103.906 	 65.8413 	 -10.7165
| 16> C 	 -104.016 	 66.6752 	 -8.67841
| 17> H 	 -104.611 	 67.4575 	 -8.21915
| 18> H 	 -103.832 	 65.8464 	 -8.01652
| 19> C 	 -102.66 	 67.3136 	 -9.00362
| 20> H 	 -102.834 	 68.2841 	 -9.41937
| 21> H 	 -102.132 	 67.4018 	 -8.084
| 22> H 	 -102.181 	 66.733 	 -9.80701
| 23> S 	 -106.859 	 60.5522 	 -9.9243
| 24> C 	 -106.644 	 59.322 	 -8.75129
| 25> C 	 -106.529 	 59.8662 	 -7.50911
| 26> C 	 -106.539 	 61.3072 	 -7.51643
| 27> C 	 -106.803 	 61.7989 	 -8.81505
| 28> H 	 -106.389 	 59.2493 	 -6.63266
| 29> C 	 -106.352 	 62.1243 	 -6.22119
| 30> H 	 -106.448 	 63.189 	 -6.5609
| 31> H 	 -105.391 	 61.9227 	 -5.91877
| 32> C 	 -107.44 	 61.7961 	 -5.15967
| 33> H 	 -107.185 	 62.2393 	 -4.27612
| 34> H 	 -107.328 	 60.7351 	 -4.96555
| 35> C 	 -108.866 	 62.3124 	 -5.51854
| 36> H 	 -109.616 	 61.9608 	 -4.81678
| 37> H 	 -109.197 	 62.0639 	 -6.48803
| 38> H 	 -108.976 	 63.4652 	 -5.52501
| 39> H 	 -107.441 	 66.2113 	 -11.0525
| 40> H 	 -106.647 	 58.2701 	 -8.89259
| 41> *
| 42>
| 43>                          ****END OF INPUT****

CARTESIAN COORDINATES (ANGSTROEM)
---------------------------------
  S    -108.033000   63.862100  -10.355200
  C    -107.132000   65.394100  -10.465200
  C    -105.900000   65.211300   -9.857270
  C    -105.620000   63.947500   -9.368150
  C    -106.752000   63.138300   -9.380460
  H    -104.793000   63.597300   -8.925240
  C    -104.716000   66.228500  -10.037000
  H    -105.081000   67.025500  -10.615900
  H    -103.906000   65.841300  -10.716500
  C    -104.016000   66.675200   -8.678410
  H    -104.611000   67.457500   -8.219150
  H    -103.832000   65.846400   -8.016520
  C    -102.660000   67.313600   -9.003620
  H    -102.834000   68.284100   -9.419370
  H    -102.132000   67.401800   -8.084000
  H    -102.181000   66.733000   -9.807010
  S    -106.859000   60.552200   -9.924300
  C    -106.644000   59.322000   -8.751290
  C    -106.529000   59.866200   -7.509110
  C    -106.539000   61.307200   -7.516430
  C    -106.803000   61.798900   -8.815050
  H    -106.389000   59.249300   -6.632660
  C    -106.352000   62.124300   -6.221190
  H    -106.448000   63.189000   -6.560900
  H    -105.391000   61.922700   -5.918770
  C    -107.440000   61.796100   -5.159670
  H    -107.185000   62.239300   -4.276120
  H    -107.328000   60.735100   -4.965550
  C    -108.866000   62.312400   -5.518540
  H    -109.616000   61.960800   -4.816780
  H    -109.197000   62.063900   -6.488030
  H    -108.976000   63.465200   -5.525010
  H    -107.441000   66.211300  -11.052500
  H    -106.647000   58.270100   -8.892590

 Total Charge           Charge          ....    0
 Multiplicity           Mult            ....    1
 Number of Electrons    NEL             ....  134
 Basis Dimension        Dim             ....  322

ORBITAL ENERGIES
----------------

  NO   OCC          E(Eh)            E(eV)
   0   2.0000     -88.967381     -2420.9255
   1   2.0000     -88.962024     -2420.7797
   2   2.0000     -10.330064      -281.0953
   3   2.0000     -10.320082      -280.8237
   4   2.0000     -10.315174      -280.6901
   5   2.0000     -10.308920      -280.5200
   6   2.0000     -10.303891      -280.3831
   7   2.0000     -10.300148      -280.2813
   8   2.0000     -10.294348      -280.1234
   9   2.0000     -10.289777      -279.9991
  10   2.0000     -10.288627      -279.9678
  11   2.0000     -10.285876      -279.8929
  12   2.0000     -10.282762      -279.8082
  13   2.0000     -10.282313      -279.7959
  14   2.0000     -10.277418      -279.6628
  15   2.0000     -10.272502      -279.5290
  16   2.0000      -8.081308      -219.9036
  17   2.0000      -8.079040      -219.8418
  18   2.0000      -6.039793      -164.3511
  19   2.0000      -6.037445      -164.2872
  20   2.0000      -6.035917      -164.2457
  21   2.0000      -6.032942      -164.1647
  22   2.0000      -6.032159      -164.1434
  23   2.0000      -6.030059      -164.0863
  24   2.0000      -1.014164       -27.5968
  25   2.0000      -0.987093       -26.8602
  26   2.0000      -0.905412       -24.6375
  27   2.0000      -0.902812       -24.5668
  28   2.0000      -0.873999       -23.7827
  29   2.0000      -0.851310       -23.1653
  30   2.0000      -0.842364       -22.9219
  31   2.0000      -0.817197       -22.2371
  32   2.0000      -0.779552       -21.2127
  33   2.0000      -0.768225       -20.9045
  34   2.0000      -0.712481       -19.3876
  35   2.0000      -0.702145       -19.1063
  36   2.0000      -0.694625       -18.9017
  37   2.0000      -0.659446       -17.9444
  38   2.0000      -0.651481       -17.7277
  39   2.0000      -0.623418       -16.9641
  40   2.0000      -0.592758       -16.1298
  41   2.0000      -0.568787       -15.4775
  42   2.0000      -0.562858       -15.3161
  43   2.0000      -0.555612       -15.1190
  44   2.0000      -0.540366       -14.7041
  45   2.0000      -0.532787       -14.4979
  46   2.0000      -0.521518       -14.1912
  47   2.0000      -0.512403       -13.9432
  48   2.0000      -0.500203       -13.6112
  49   2.0000      -0.498202       -13.5568
  50   2.0000      -0.493269       -13.4225
  51   2.0000      -0.479958       -13.0603
  52   2.0000      -0.466590       -12.6965
  53   2.0000      -0.460233       -12.5236
  54   2.0000      -0.452436       -12.3114
  55   2.0000      -0.446241       -12.1428
  56   2.0000      -0.444397       -12.0927
  57   2.0000      -0.442957       -12.0535
  58   2.0000      -0.439338       -11.9550
  59   2.0000      -0.426138       -11.5958
  60   2.0000      -0.423135       -11.5141
  61   2.0000      -0.412342       -11.2204
  62   2.0000      -0.409478       -11.1425
  63   2.0000      -0.344337        -9.3699
  64   2.0000      -0.333358        -9.0711
  65   2.0000      -0.323210        -8.7950
  66   2.0000      -0.298591        -8.1251
  67   0.0000       0.034445         0.9373
  68   0.0000       0.069450         1.8898
  69   0.0000       0.113303         3.0831
  70   0.0000       0.127692         3.4747
  71   0.0000       0.136384         3.7112

MULLIKEN ATOMIC CHARGES
-----------------------
   0 S :    0.104706
   1 C :   -0.109902
   2 C :   -0.041536
   3 C :    0.100690
   4 C :   -0.173937
   5 H :   -0.035539
   6 C :    0.030741
   7 H :   -0.001828
   8 H :    0.037857
   9 C :   -0.081865
  10 H :    0.035887
  11 H :    0.033373
  12 C :   -0.033554
  13 H :    0.021452
  14 H :    0.034430
  15 H :    0.028565
  16 S :    0.122853
  17 C :   -0.069753
  18 C :   -0.047326
  19 C :   -0.076144
  20 C :   -0.166663
  21 H :    0.017484
  22 C :    0.095561
  23 H :    0.033879
  24 H :    0.012663
  25 C :   -0.016367
  26 H :    0.005577
  27 H :    0.020225
  28 C :   -0.062643
  29 H :    0.034476
  30 H :    0.029002
  31 H :    0.038251
  32 H :    0.038205
  33 H :    0.041182
Sum of atomic charges:    0.0000000

LOEWDIN ATOMIC CHARGES
----------------------
   0 S :    0.390949
   1 C :   -0.183650
   2 C :   -0.060546
   3 C :   -0.043297
   4 C :   -0.185378
   5 H :    0.012558
   6 C :   -0.027774
   7 H :    0.016719
   8 H :    0.034032
   9 C :   -0.034731
  10 H :    0.026032
  11 H :    0.019116
  12 C :   -0.060734
  13 H :    0.020790
  14 H :    0.023098
  15 H :    0.024055
  16 S :    0.459881
  17 C :   -0.195894
  18 C :   -0.074078
  19 C :   -0.053901
  20 C :   -0.236936
  21 H :    0.029126
  22 C :   -0.021141
  23 H :    0.035118
  24 H :    0.018144
  25 C :   -0.028600
  26 H :    0.012353
  27 H :    0.022228
  28 C :   -0.064994
  29 H :    0.026176
  30 H :    0.017433
  31 H :    0.036981
  32 H :    0.020990
  33 H :    0.025876

  Mayer bond orders larger than 0.100000
B(  0-S ,  1-C ) :   1.1300 B(  0-S ,  4-C ) :   1.1643 B(  1-C ,  2-C ) :   1.5897
B(  1-C ,  4-C ) :   0.1076 B(  1-C , 32-H ) :   0.9783 B(  2-C ,  3-C ) :   1.2463
B(  2-C ,  6-C ) :   1.0184 B(  3-C ,  4-C ) :   1.5482 B(  3-C ,  5-H ) :   1.0169
B(  4-C , 20-C ) :   1.0080 B(  6-C ,  7-H ) :   0.9439 B(  6-C ,  8-H ) :   0.9546
B(  6-C ,  9-C ) :   1.0431 B(  9-C , 10-H ) :   0.9563 B(  9-C , 11-H ) :   0.9674
B(  9-C , 12-C ) :   1.0815 B( 12-C , 13-H ) :   0.9759 B( 12-C , 14-H ) :   0.9747
B( 12-C , 15-H ) :   0.9769 B( 16-S , 17-C ) :   1.1694 B( 16-S , 20-C ) :   1.1906
B( 17-C , 18-C ) :   1.5948 B( 17-C , 33-H ) :   0.9720 B( 18-C , 19-C ) :   1.2600
B( 18-C , 21-H ) :   0.9889 B( 19-C , 20-C ) :   1.5612 B( 19-C , 22-C ) :   1.0250
B( 22-C , 23-H ) :   0.9391 B( 22-C , 24-H ) :   0.9309 B( 22-C , 25-C ) :   1.0785
B( 25-C , 26-H ) :   0.9521 B( 25-C , 27-H ) :   0.9564 B( 25-C , 28-C ) :   1.0622
B( 28-C , 29-H ) :   0.9752 B( 28-C , 30-H ) :   0.9806 B( 28-C , 31-H ) :   0.9737

Dispersion correction           -0.014167832
FINAL SINGLE POINT ENERGY     -1339.858280875029

DIPOLE MOMENT
-------------
                                X             Y             Z
Electronic contribution:    -10.95612     -14.97241     -16.83225
Nuclear contribution   :     11.39633      15.10905      17.21119
                        -----------------------------------------
Total Dipole Moment    :      0.44021       0.13664       0.37894
                        -----------------------------------------
Magnitude (a.u.)       :      0.59670
Magnitude (Debye)      :      1.51670

Rotational constants in cm-1:     0.018305     0.008137     0.007202
Rotational constants in MHz :   548.758597   243.944850   215.902548

                             ****ORCA TERMINATED NORMALLY****
TOTAL RUN TIME: 0 days 0 hours 0 minutes 21 seconds 625 msec
