                         Program Version 4.2.1 -  RELEASE  -
|  1> ! wB97X-D3 SP def2-SVP
|  2> %pal
|  3> nprocs 24
|  4> end
|  5>
|  6> * xyz 0 1
|  7> S 	 -59.8618 	 0.544844 	 -32.9299
|  8> C 	 -60.8582 	 0.76488 	 -34.3385
|  9> C 	 -60.8329 	 2.08729 	 -34.7724
| 10> C 	 -59.9635 	 2.85524 	 -33.9658
| 11> C 	 -59.3674 	 2.16995 	 -32.9643
| 12> H 	 -59.7988 	 3.90655 	 -34.0611
| 13> C 	 -61.5495 	 2.57324 	 -36.0279
| 14> H 	 -62.3553 	 3.22278 	 -35.7538
| 15> H 	 -62.0765 	 1.73815 	 -36.5374
| 16> C 	 -60.5541 	 3.27729 	 -36.986
| 17> H 	 -61.0914 	 3.67707 	 -37.8317
| 18> H 	 -60.0798 	 4.19257 	 -36.4751
| 19> C 	 -59.3833 	 2.25209 	 -37.2252
| 20> H 	 -58.5999 	 2.58974 	 -37.8668
| 21> H 	 -58.8707 	 1.82452 	 -36.3404
| 22> H 	 -59.7768 	 1.36579 	 -37.6581
| 23> S 	 -58.8008 	 4.16547 	 -31.2003
| 24> C 	 -57.5029 	 4.11089 	 -30.0896
| 25> C 	 -56.8672 	 2.91287 	 -30.1355
| 26> C 	 -57.3581 	 2.10024 	 -31.2271
| 27> C 	 -58.4672 	 2.62446 	 -31.8997
| 28> H 	 -56.0317 	 2.6844 	 -29.4285
| 29> C 	 -56.6725 	 0.788294 	 -31.5612
| 30> H 	 -55.6495 	 0.959048 	 -31.4555
| 31> H 	 -56.7554 	 0.590041 	 -32.6418
| 32> C 	 -57.1057 	 -0.485306 	 -30.8925
| 33> H 	 -58.1461 	 -0.672219 	 -31.2295
| 34> H 	 -57.1458 	 -0.242536 	 -29.814
| 35> C 	 -56.2201 	 -1.73756 	 -31.0475
| 36> H 	 -56.8571 	 -2.61509 	 -30.7829
| 37> H 	 -55.3053 	 -1.65275 	 -30.4036
| 38> H 	 -55.8317 	 -1.8523 	 -32.0724
| 39> H 	 -61.498 	 -0.017772 	 -34.6819
| 40> H 	 -57.2991 	 4.75458 	 -29.3334
| 41> *
| 42>
| 43>                          ****END OF INPUT****

CARTESIAN COORDINATES (ANGSTROEM)
---------------------------------
  S    -59.861800    0.544844  -32.929900
  C    -60.858200    0.764880  -34.338500
  C    -60.832900    2.087290  -34.772400
  C    -59.963500    2.855240  -33.965800
  C    -59.367400    2.169950  -32.964300
  H    -59.798800    3.906550  -34.061100
  C    -61.549500    2.573240  -36.027900
  H    -62.355300    3.222780  -35.753800
  H    -62.076500    1.738150  -36.537400
  C    -60.554100    3.277290  -36.986000
  H    -61.091400    3.677070  -37.831700
  H    -60.079800    4.192570  -36.475100
  C    -59.383300    2.252090  -37.225200
  H    -58.599900    2.589740  -37.866800
  H    -58.870700    1.824520  -36.340400
  H    -59.776800    1.365790  -37.658100
  S    -58.800800    4.165470  -31.200300
  C    -57.502900    4.110890  -30.089600
  C    -56.867200    2.912870  -30.135500
  C    -57.358100    2.100240  -31.227100
  C    -58.467200    2.624460  -31.899700
  H    -56.031700    2.684400  -29.428500
  C    -56.672500    0.788294  -31.561200
  H    -55.649500    0.959048  -31.455500
  H    -56.755400    0.590041  -32.641800
  C    -57.105700   -0.485306  -30.892500
  H    -58.146100   -0.672219  -31.229500
  H    -57.145800   -0.242536  -29.814000
  C    -56.220100   -1.737560  -31.047500
  H    -56.857100   -2.615090  -30.782900
  H    -55.305300   -1.652750  -30.403600
  H    -55.831700   -1.852300  -32.072400
  H    -61.498000   -0.017772  -34.681900
  H    -57.299100    4.754580  -29.333400

 Total Charge           Charge          ....    0
 Multiplicity           Mult            ....    1
 Number of Electrons    NEL             ....  134
 Basis Dimension        Dim             ....  322

ORBITAL ENERGIES
----------------

  NO   OCC          E(Eh)            E(eV)
   0   2.0000     -88.966459     -2420.9004
   1   2.0000     -88.962850     -2420.8022
   2   2.0000     -10.328009      -281.0394
   3   2.0000     -10.327258      -281.0190
   4   2.0000     -10.311429      -280.5882
   5   2.0000     -10.305595      -280.4295
   6   2.0000     -10.305041      -280.4144
   7   2.0000     -10.303213      -280.3647
   8   2.0000     -10.297880      -280.2196
   9   2.0000     -10.295392      -280.1519
  10   2.0000     -10.295365      -280.1511
  11   2.0000     -10.289435      -279.9897
  12   2.0000     -10.284198      -279.8472
  13   2.0000     -10.281425      -279.7718
  14   2.0000     -10.278239      -279.6851
  15   2.0000     -10.270826      -279.4834
  16   2.0000      -8.081999      -219.9224
  17   2.0000      -8.078738      -219.8336
  18   2.0000      -6.040290      -164.3647
  19   2.0000      -6.037188      -164.2802
  20   2.0000      -6.036364      -164.2578
  21   2.0000      -6.032973      -164.1655
  22   2.0000      -6.032900      -164.1636
  23   2.0000      -6.029686      -164.0761
  24   2.0000      -1.017503       -27.6877
  25   2.0000      -0.994381       -27.0585
  26   2.0000      -0.912967       -24.8431
  27   2.0000      -0.907442       -24.6928
  28   2.0000      -0.872174       -23.7331
  29   2.0000      -0.848473       -23.0881
  30   2.0000      -0.841713       -22.9042
  31   2.0000      -0.819175       -22.2909
  32   2.0000      -0.784825       -21.3562
  33   2.0000      -0.772973       -21.0337
  34   2.0000      -0.713475       -19.4146
  35   2.0000      -0.694598       -18.9010
  36   2.0000      -0.688848       -18.7445
  37   2.0000      -0.669996       -18.2315
  38   2.0000      -0.641521       -17.4567
  39   2.0000      -0.626197       -17.0397
  40   2.0000      -0.598307       -16.2808
  41   2.0000      -0.574535       -15.6339
  42   2.0000      -0.561270       -15.2729
  43   2.0000      -0.554475       -15.0880
  44   2.0000      -0.535557       -14.5732
  45   2.0000      -0.524196       -14.2641
  46   2.0000      -0.515768       -14.0348
  47   2.0000      -0.512642       -13.9497
  48   2.0000      -0.504559       -13.7297
  49   2.0000      -0.502870       -13.6838
  50   2.0000      -0.486589       -13.2407
  51   2.0000      -0.478273       -13.0145
  52   2.0000      -0.476204       -12.9582
  53   2.0000      -0.465181       -12.6582
  54   2.0000      -0.460503       -12.5309
  55   2.0000      -0.452505       -12.3133
  56   2.0000      -0.445483       -12.1222
  57   2.0000      -0.438323       -11.9274
  58   2.0000      -0.433194       -11.7878
  59   2.0000      -0.421351       -11.4655
  60   2.0000      -0.414016       -11.2659
  61   2.0000      -0.411546       -11.1987
  62   2.0000      -0.403677       -10.9846
  63   2.0000      -0.356492        -9.7006
  64   2.0000      -0.334465        -9.1012
  65   2.0000      -0.328053        -8.9268
  66   2.0000      -0.293331        -7.9819
  67   0.0000       0.032129         0.8743
  68   0.0000       0.081685         2.2228
  69   0.0000       0.113891         3.0991
  70   0.0000       0.126008         3.4289
  71   0.0000       0.136351         3.7103

MULLIKEN ATOMIC CHARGES
-----------------------
   0 S :    0.105240
   1 C :   -0.118109
   2 C :   -0.101486
   3 C :    0.005825
   4 C :   -0.117843
   5 H :    0.002244
   6 C :    0.088177
   7 H :    0.030421
   8 H :    0.024391
   9 C :   -0.093956
  10 H :    0.036870
  11 H :    0.044035
  12 C :   -0.039900
  13 H :    0.027579
  14 H :    0.055161
  15 H :    0.008838
  16 S :    0.102264
  17 C :   -0.034255
  18 C :   -0.055682
  19 C :   -0.073743
  20 C :   -0.115244
  21 H :    0.039040
  22 C :    0.069139
  23 H :   -0.001970
  24 H :    0.015089
  25 C :   -0.079726
  26 H :    0.031515
  27 H :    0.021984
  28 C :   -0.053810
  29 H :    0.049459
  30 H :    0.038831
  31 H :    0.030960
  32 H :    0.042572
  33 H :    0.016091
Sum of atomic charges:   -0.0000000

LOEWDIN ATOMIC CHARGES
----------------------
   0 S :    0.451517
   1 C :   -0.199676
   2 C :   -0.056046
   3 C :   -0.069343
   4 C :   -0.201731
   5 H :    0.026824
   6 C :   -0.029412
   7 H :    0.027680
   8 H :    0.032313
   9 C :   -0.037871
  10 H :    0.023673
  11 H :    0.030292
  12 C :   -0.068420
  13 H :    0.019500
  14 H :    0.037953
  15 H :    0.018019
  16 S :    0.434480
  17 C :   -0.184145
  18 C :   -0.073004
  19 C :   -0.059367
  20 C :   -0.205751
  21 H :    0.042018
  22 C :   -0.043789
  23 H :    0.019396
  24 H :    0.027312
  25 C :   -0.051041
  26 H :    0.012259
  27 H :    0.023023
  28 C :   -0.069081
  29 H :    0.035730
  30 H :    0.029471
  31 H :    0.023803
  32 H :    0.021468
  33 H :    0.011947

  Mayer bond orders larger than 0.100000
B(  0-S ,  1-C ) :   1.1494 B(  0-S ,  4-C ) :   1.1743 B(  1-C ,  2-C ) :   1.5921
B(  1-C , 32-H ) :   0.9738 B(  2-C ,  3-C ) :   1.2468 B(  2-C ,  6-C ) :   1.0182
B(  3-C ,  4-C ) :   1.5711 B(  3-C ,  5-H ) :   1.0018 B(  4-C , 20-C ) :   1.0139
B(  6-C ,  7-H ) :   0.9328 B(  6-C ,  8-H ) :   0.9469 B(  6-C ,  9-C ) :   1.0658
B(  9-C , 10-H ) :   0.9611 B(  9-C , 11-H ) :   0.9555 B(  9-C , 12-C ) :   1.0541
B( 12-C , 13-H ) :   0.9773 B( 12-C , 14-H ) :   0.9685 B( 12-C , 15-H ) :   0.9757
B( 16-S , 17-C ) :   1.1662 B( 16-S , 20-C ) :   1.1459 B( 17-C , 18-C ) :   1.6093
B( 17-C , 33-H ) :   0.9741 B( 18-C , 19-C ) :   1.2482 B( 18-C , 21-H ) :   0.9833
B( 19-C , 20-C ) :   1.5799 B( 19-C , 22-C ) :   1.0493 B( 22-C , 23-H ) :   0.9284
B( 22-C , 24-H ) :   0.9263 B( 22-C , 25-C ) :   1.0681 B( 25-C , 26-H ) :   0.9472
B( 25-C , 27-H ) :   0.9537 B( 25-C , 28-C ) :   1.0776 B( 28-C , 29-H ) :   0.9738
B( 28-C , 30-H ) :   0.9742 B( 28-C , 31-H ) :   0.9759

Dispersion correction           -0.014838001
FINAL SINGLE POINT ENERGY     -1339.883732999006

DIPOLE MOMENT
-------------
                                X             Y             Z
Electronic contribution:     -6.42934      10.17044      12.00924
Nuclear contribution   :      6.47205     -10.22509     -12.19263
                        -----------------------------------------
Total Dipole Moment    :      0.04271      -0.05465      -0.18339
                        -----------------------------------------
Magnitude (a.u.)       :      0.19607
Magnitude (Debye)      :      0.49836

Rotational constants in cm-1:     0.019579     0.009016     0.007050
Rotational constants in MHz :   586.970914   270.285204   211.348571

                             ****ORCA TERMINATED NORMALLY****
TOTAL RUN TIME: 0 days 0 hours 0 minutes 21 seconds 971 msec
