                         Program Version 4.2.1 -  RELEASE  -
|  1> ! wB97X-D3 SP def2-SVP
|  2> %pal
|  3> nprocs 24
|  4> end
|  5>
|  6> * xyz 0 1
|  7> S 	 -55.0124 	 -0.152786 	 -25.5596
|  8> C 	 -54.2244 	 1.117 	 -24.796
|  9> C 	 -53.5687 	 1.96314 	 -25.6924
| 10> C 	 -53.6948 	 1.5523 	 -27.0079
| 11> C 	 -54.4268 	 0.372983 	 -27.1402
| 12> H 	 -53.2965 	 2.00398 	 -27.8618
| 13> C 	 -52.9622 	 3.2676 	 -25.232
| 14> H 	 -51.9208 	 2.94742 	 -24.9897
| 15> H 	 -53.5168 	 3.59101 	 -24.3277
| 16> C 	 -52.8778 	 4.35584 	 -26.3264
| 17> H 	 -52.2624 	 4.07929 	 -27.1588
| 18> H 	 -53.8276 	 4.359 	 -26.8793
| 19> C 	 -52.5638 	 5.729 	 -25.8563
| 20> H 	 -52.4443 	 6.49275 	 -26.6084
| 21> H 	 -53.252 	 6.06418 	 -25.0266
| 22> H 	 -51.5927 	 5.73064 	 -25.4103
| 23> S 	 -54.151 	 -1.84561 	 -28.699
| 24> C 	 -54.5547 	 -1.90575 	 -30.3623
| 25> C 	 -55.3564 	 -0.800081 	 -30.6056
| 26> C 	 -55.4526 	 0.170957 	 -29.5281
| 27> C 	 -54.7834 	 -0.297475 	 -28.3896
| 28> H 	 -55.8726 	 -0.712182 	 -31.5302
| 29> C 	 -56.2771 	 1.46944 	 -29.5011
| 30> H 	 -56.2384 	 1.91864 	 -30.4356
| 31> H 	 -55.8644 	 2.08577 	 -28.6867
| 32> C 	 -57.7894 	 1.2185 	 -29.0005
| 33> H 	 -58.4383 	 2.14276 	 -29.113
| 34> H 	 -57.6896 	 0.973603 	 -27.9428
| 35> C 	 -58.5372 	 0.117439 	 -29.7118
| 36> H 	 -58.732 	 0.431524 	 -30.7291
| 37> H 	 -59.4027 	 -0.256974 	 -29.1786
| 38> H 	 -57.859 	 -0.75237 	 -29.895
| 39> H 	 -54.3707 	 1.43464 	 -23.8064
| 40> H 	 -54.3029 	 -2.6137 	 -31.16
| 41> *
| 42>
| 43>                          ****END OF INPUT****

CARTESIAN COORDINATES (ANGSTROEM)
---------------------------------
  S    -55.012400   -0.152786  -25.559600
  C    -54.224400    1.117000  -24.796000
  C    -53.568700    1.963140  -25.692400
  C    -53.694800    1.552300  -27.007900
  C    -54.426800    0.372983  -27.140200
  H    -53.296500    2.003980  -27.861800
  C    -52.962200    3.267600  -25.232000
  H    -51.920800    2.947420  -24.989700
  H    -53.516800    3.591010  -24.327700
  C    -52.877800    4.355840  -26.326400
  H    -52.262400    4.079290  -27.158800
  H    -53.827600    4.359000  -26.879300
  C    -52.563800    5.729000  -25.856300
  H    -52.444300    6.492750  -26.608400
  H    -53.252000    6.064180  -25.026600
  H    -51.592700    5.730640  -25.410300
  S    -54.151000   -1.845610  -28.699000
  C    -54.554700   -1.905750  -30.362300
  C    -55.356400   -0.800081  -30.605600
  C    -55.452600    0.170957  -29.528100
  C    -54.783400   -0.297475  -28.389600
  H    -55.872600   -0.712182  -31.530200
  C    -56.277100    1.469440  -29.501100
  H    -56.238400    1.918640  -30.435600
  H    -55.864400    2.085770  -28.686700
  C    -57.789400    1.218500  -29.000500
  H    -58.438300    2.142760  -29.113000
  H    -57.689600    0.973603  -27.942800
  C    -58.537200    0.117439  -29.711800
  H    -58.732000    0.431524  -30.729100
  H    -59.402700   -0.256974  -29.178600
  H    -57.859000   -0.752370  -29.895000
  H    -54.370700    1.434640  -23.806400
  H    -54.302900   -2.613700  -31.160000

 Total Charge           Charge          ....    0
 Multiplicity           Mult            ....    1
 Number of Electrons    NEL             ....  134
 Basis Dimension        Dim             ....  322

ORBITAL ENERGIES
----------------

  NO   OCC          E(Eh)            E(eV)
   0   2.0000     -88.970657     -2421.0147
   1   2.0000     -88.963042     -2420.8074
   2   2.0000     -10.330799      -281.1153
   3   2.0000     -10.323182      -280.9081
   4   2.0000     -10.317948      -280.7656
   5   2.0000     -10.306225      -280.4466
   6   2.0000     -10.304428      -280.3977
   7   2.0000     -10.298513      -280.2368
   8   2.0000     -10.295941      -280.1668
   9   2.0000     -10.293633      -280.1040
  10   2.0000     -10.291631      -280.0495
  11   2.0000     -10.289911      -280.0027
  12   2.0000     -10.288283      -279.9584
  13   2.0000     -10.285378      -279.8794
  14   2.0000     -10.277727      -279.6712
  15   2.0000     -10.268752      -279.4269
  16   2.0000      -8.085997      -220.0312
  17   2.0000      -8.079188      -219.8459
  18   2.0000      -6.044230      -164.4719
  19   2.0000      -6.040262      -164.3639
  20   2.0000      -6.037561      -164.2904
  21   2.0000      -6.037177      -164.2799
  22   2.0000      -6.033262      -164.1734
  23   2.0000      -6.030197      -164.0900
  24   2.0000      -1.013933       -27.5905
  25   2.0000      -0.993811       -27.0430
  26   2.0000      -0.915589       -24.9144
  27   2.0000      -0.900355       -24.4999
  28   2.0000      -0.873982       -23.7823
  29   2.0000      -0.859566       -23.3900
  30   2.0000      -0.841629       -22.9019
  31   2.0000      -0.821382       -22.3509
  32   2.0000      -0.781760       -21.2728
  33   2.0000      -0.770221       -20.9588
  34   2.0000      -0.717253       -19.5175
  35   2.0000      -0.694479       -18.8977
  36   2.0000      -0.685403       -18.6508
  37   2.0000      -0.660842       -17.9824
  38   2.0000      -0.647199       -17.6112
  39   2.0000      -0.624632       -16.9971
  40   2.0000      -0.586035       -15.9468
  41   2.0000      -0.573441       -15.6041
  42   2.0000      -0.569315       -15.4918
  43   2.0000      -0.558429       -15.1956
  44   2.0000      -0.536183       -14.5903
  45   2.0000      -0.527570       -14.3559
  46   2.0000      -0.523007       -14.2317
  47   2.0000      -0.512808       -13.9542
  48   2.0000      -0.508993       -13.8504
  49   2.0000      -0.502104       -13.6629
  50   2.0000      -0.488397       -13.2900
  51   2.0000      -0.482364       -13.1258
  52   2.0000      -0.477172       -12.9845
  53   2.0000      -0.473344       -12.8804
  54   2.0000      -0.462358       -12.5814
  55   2.0000      -0.452089       -12.3020
  56   2.0000      -0.439396       -11.9566
  57   2.0000      -0.429346       -11.6831
  58   2.0000      -0.427733       -11.6392
  59   2.0000      -0.425821       -11.5872
  60   2.0000      -0.422321       -11.4919
  61   2.0000      -0.410729       -11.1765
  62   2.0000      -0.408687       -11.1209
  63   2.0000      -0.347573        -9.4580
  64   2.0000      -0.332223        -9.0403
  65   2.0000      -0.323594        -8.8055
  66   2.0000      -0.293929        -7.9982
  67   0.0000       0.038301         1.0422
  68   0.0000       0.057638         1.5684
  69   0.0000       0.118521         3.2251
  70   0.0000       0.126288         3.4365
  71   0.0000       0.134580         3.6621

MULLIKEN ATOMIC CHARGES
-----------------------
   0 S :    0.139126
   1 C :   -0.094420
   2 C :   -0.119571
   3 C :    0.064705
   4 C :   -0.175855
   5 H :   -0.009720
   6 C :    0.079804
   7 H :    0.049115
   8 H :    0.033292
   9 C :   -0.095873
  10 H :    0.022401
  11 H :    0.020154
  12 C :   -0.010903
  13 H :    0.030082
  14 H :    0.035829
  15 H :    0.012829
  16 S :    0.123890
  17 C :   -0.098142
  18 C :   -0.048663
  19 C :   -0.065245
  20 C :   -0.171069
  21 H :    0.007672
  22 C :    0.105367
  23 H :    0.013458
  24 H :    0.037411
  25 C :   -0.093909
  26 H :    0.042399
  27 H :    0.029800
  28 C :   -0.051940
  29 H :    0.017361
  30 H :    0.041341
  31 H :    0.034272
  32 H :    0.025608
  33 H :    0.069394
Sum of atomic charges:    0.0000000

LOEWDIN ATOMIC CHARGES
----------------------
   0 S :    0.443711
   1 C :   -0.219764
   2 C :   -0.066111
   3 C :   -0.052675
   4 C :   -0.195214
   5 H :    0.024994
   6 C :   -0.028394
   7 H :    0.042148
   8 H :    0.033997
   9 C :   -0.052602
  10 H :    0.022628
  11 H :    0.023260
  12 C :   -0.065675
  13 H :    0.027155
  14 H :    0.031952
  15 H :    0.021659
  16 S :    0.449193
  17 C :   -0.208926
  18 C :   -0.076714
  19 C :   -0.057253
  20 C :   -0.224985
  21 H :    0.021691
  22 C :   -0.021832
  23 H :    0.015852
  24 H :    0.037785
  25 C :   -0.039415
  26 H :    0.029571
  27 H :    0.021611
  28 C :   -0.075588
  29 H :    0.020128
  30 H :    0.027202
  31 H :    0.029542
  32 H :    0.018176
  33 H :    0.042892

  Mayer bond orders larger than 0.100000
B(  0-S ,  1-C ) :   1.1728 B(  0-S ,  4-C ) :   1.1819 B(  1-C ,  2-C ) :   1.5664
B(  1-C ,  4-C ) :   0.1095 B(  1-C , 32-H ) :   0.9717 B(  2-C ,  3-C ) :   1.3002
B(  2-C ,  6-C ) :   0.9999 B(  3-C ,  4-C ) :   1.5187 B(  3-C ,  5-H ) :   1.0074
B(  4-C , 20-C ) :   1.0038 B(  6-C ,  7-H ) :   0.9223 B(  6-C ,  8-H ) :   0.9503
B(  6-C ,  9-C ) :   1.0771 B(  9-C , 10-H ) :   0.9379 B(  9-C , 11-H ) :   0.9552
B(  9-C , 12-C ) :   1.0978 B( 12-C , 13-H ) :   0.9693 B( 12-C , 14-H ) :   0.9727
B( 12-C , 15-H ) :   0.9675 B( 16-S , 17-C ) :   1.1724 B( 16-S , 20-C ) :   1.1806
B( 17-C , 18-C ) :   1.5695 B( 17-C , 20-C ) :   0.1022 B( 17-C , 33-H ) :   0.9703
B( 18-C , 19-C ) :   1.2614 B( 18-C , 21-H ) :   0.9919 B( 19-C , 20-C ) :   1.5491
B( 19-C , 22-C ) :   1.0506 B( 22-C , 23-H ) :   0.9354 B( 22-C , 24-H ) :   0.9337
B( 22-C , 25-C ) :   1.0553 B( 25-C , 26-H ) :   0.9594 B( 25-C , 27-H ) :   0.9581
B( 25-C , 28-C ) :   1.0822 B( 28-C , 29-H ) :   0.9737 B( 28-C , 30-H ) :   0.9719
B( 28-C , 31-H ) :   0.9683

Dispersion correction           -0.014820060
FINAL SINGLE POINT ENERGY     -1339.872908491120

DIPOLE MOMENT
-------------
                                X             Y             Z
Electronic contribution:      4.96954     -23.72836       3.06968
Nuclear contribution   :     -4.96160      24.31465      -3.26514
                        -----------------------------------------
Total Dipole Moment    :      0.00795       0.58629      -0.19546
                        -----------------------------------------
Magnitude (a.u.)       :      0.61806
Magnitude (Debye)      :      1.57100

Rotational constants in cm-1:     0.019921     0.008045     0.007274
Rotational constants in MHz :   597.218198   241.183565   218.083799

                             ****ORCA TERMINATED NORMALLY****
TOTAL RUN TIME: 0 days 0 hours 0 minutes 22 seconds 22 msec
