                         Program Version 4.2.1 -  RELEASE  -
|  1> ! wB97X-D3 SP def2-SVP
|  2> %pal
|  3> nprocs 24
|  4> end
|  5>
|  6> * xyz 0 1
|  7> S 	 -57.4877 	 5.44194 	 -20.2386
|  8> C 	 -57.2417 	 4.42332 	 -18.7872
|  9> C 	 -55.9033 	 4.00685 	 -18.6912
| 10> C 	 -55.0477 	 4.51562 	 -19.6663
| 11> C 	 -55.7036 	 5.28735 	 -20.637
| 12> H 	 -54.0043 	 4.37327 	 -19.8374
| 13> C 	 -55.3844 	 3.05957 	 -17.6274
| 14> H 	 -54.5386 	 2.58276 	 -18.1151
| 15> H 	 -56.0231 	 2.23656 	 -17.4436
| 16> C 	 -55.018 	 3.73512 	 -16.2691
| 17> H 	 -54.3962 	 4.55275 	 -16.5661
| 18> H 	 -55.9637 	 4.08193 	 -15.8335
| 19> C 	 -54.2803 	 2.79862 	 -15.2046
| 20> H 	 -54.8372 	 1.98857 	 -14.7532
| 21> H 	 -53.5197 	 2.27061 	 -15.7317
| 22> H 	 -53.8022 	 3.36897 	 -14.4194
| 23> S 	 -53.9815 	 5.0733 	 -22.875
| 24> C 	 -53.6459 	 6.54713 	 -23.7594
| 25> C 	 -54.3474 	 7.6234 	 -23.2589
| 26> C 	 -55.2084 	 7.27838 	 -22.2032
| 27> C 	 -55.0622 	 5.94152 	 -21.8015
| 28> H 	 -54.2647 	 8.64597 	 -23.6618
| 29> C 	 -56.1364 	 8.31202 	 -21.5967
| 30> H 	 -57.1519 	 7.87951 	 -21.4778
| 31> H 	 -56.3911 	 9.03883 	 -22.3809
| 32> C 	 -55.6122 	 9.10568 	 -20.3163
| 33> H 	 -54.6841 	 9.53356 	 -20.4631
| 34> H 	 -55.3599 	 8.36848 	 -19.5689
| 35> C 	 -56.5325 	 10.1003 	 -19.709
| 36> H 	 -57.4083 	 9.5829 	 -19.3183
| 37> H 	 -56.8444 	 10.7583 	 -20.5241
| 38> H 	 -56.1222 	 10.7555 	 -18.9272
| 39> H 	 -58.143 	 4.13906 	 -18.219
| 40> H 	 -53.1052 	 6.59034 	 -24.7089
| 41> *
| 42>
| 43>                          ****END OF INPUT****

CARTESIAN COORDINATES (ANGSTROEM)
---------------------------------
  S    -57.487700    5.441940  -20.238600
  C    -57.241700    4.423320  -18.787200
  C    -55.903300    4.006850  -18.691200
  C    -55.047700    4.515620  -19.666300
  C    -55.703600    5.287350  -20.637000
  H    -54.004300    4.373270  -19.837400
  C    -55.384400    3.059570  -17.627400
  H    -54.538600    2.582760  -18.115100
  H    -56.023100    2.236560  -17.443600
  C    -55.018000    3.735120  -16.269100
  H    -54.396200    4.552750  -16.566100
  H    -55.963700    4.081930  -15.833500
  C    -54.280300    2.798620  -15.204600
  H    -54.837200    1.988570  -14.753200
  H    -53.519700    2.270610  -15.731700
  H    -53.802200    3.368970  -14.419400
  S    -53.981500    5.073300  -22.875000
  C    -53.645900    6.547130  -23.759400
  C    -54.347400    7.623400  -23.258900
  C    -55.208400    7.278380  -22.203200
  C    -55.062200    5.941520  -21.801500
  H    -54.264700    8.645970  -23.661800
  C    -56.136400    8.312020  -21.596700
  H    -57.151900    7.879510  -21.477800
  H    -56.391100    9.038830  -22.380900
  C    -55.612200    9.105680  -20.316300
  H    -54.684100    9.533560  -20.463100
  H    -55.359900    8.368480  -19.568900
  C    -56.532500   10.100300  -19.709000
  H    -57.408300    9.582900  -19.318300
  H    -56.844400   10.758300  -20.524100
  H    -56.122200   10.755500  -18.927200
  H    -58.143000    4.139060  -18.219000
  H    -53.105200    6.590340  -24.708900

 Total Charge           Charge          ....    0
 Multiplicity           Mult            ....    1
 Number of Electrons    NEL             ....  134
 Basis Dimension        Dim             ....  322

ORBITAL ENERGIES
----------------

  NO   OCC          E(Eh)            E(eV)
   0   2.0000     -88.972787     -2421.0726
   1   2.0000     -88.968661     -2420.9604
   2   2.0000     -10.339061      -281.3401
   3   2.0000     -10.330680      -281.1121
   4   2.0000     -10.322740      -280.8960
   5   2.0000     -10.319333      -280.8033
   6   2.0000     -10.304514      -280.4001
   7   2.0000     -10.302487      -280.3449
   8   2.0000     -10.295928      -280.1664
   9   2.0000     -10.294690      -280.1328
  10   2.0000     -10.294486      -280.1272
  11   2.0000     -10.290825      -280.0276
  12   2.0000     -10.286198      -279.9017
  13   2.0000     -10.277749      -279.6718
  14   2.0000     -10.275211      -279.6027
  15   2.0000     -10.272604      -279.5318
  16   2.0000      -8.086998      -220.0584
  17   2.0000      -8.081080      -219.8974
  18   2.0000      -6.045512      -164.5068
  19   2.0000      -6.041510      -164.3979
  20   2.0000      -6.039656      -164.3474
  21   2.0000      -6.037869      -164.2988
  22   2.0000      -6.035920      -164.2457
  23   2.0000      -6.031914      -164.1367
  24   2.0000      -1.001791       -27.2601
  25   2.0000      -0.977841       -26.6084
  26   2.0000      -0.904078       -24.6012
  27   2.0000      -0.901028       -24.5182
  28   2.0000      -0.863487       -23.4967
  29   2.0000      -0.857031       -23.3210
  30   2.0000      -0.845570       -23.0091
  31   2.0000      -0.812200       -22.1011
  32   2.0000      -0.780822       -21.2473
  33   2.0000      -0.766437       -20.8558
  34   2.0000      -0.705856       -19.2073
  35   2.0000      -0.705730       -19.2039
  36   2.0000      -0.693072       -18.8594
  37   2.0000      -0.666358       -18.1325
  38   2.0000      -0.641048       -17.4438
  39   2.0000      -0.616267       -16.7695
  40   2.0000      -0.596544       -16.2328
  41   2.0000      -0.560509       -15.2522
  42   2.0000      -0.557676       -15.1751
  43   2.0000      -0.554703       -15.0942
  44   2.0000      -0.525995       -14.3130
  45   2.0000      -0.520961       -14.1761
  46   2.0000      -0.517473       -14.0811
  47   2.0000      -0.512329       -13.9412
  48   2.0000      -0.506390       -13.7796
  49   2.0000      -0.499932       -13.6038
  50   2.0000      -0.487593       -13.2681
  51   2.0000      -0.475906       -12.9501
  52   2.0000      -0.467503       -12.7214
  53   2.0000      -0.464009       -12.6263
  54   2.0000      -0.458251       -12.4696
  55   2.0000      -0.449129       -12.2214
  56   2.0000      -0.441576       -12.0159
  57   2.0000      -0.435736       -11.8570
  58   2.0000      -0.433367       -11.7925
  59   2.0000      -0.429054       -11.6751
  60   2.0000      -0.428651       -11.6642
  61   2.0000      -0.414057       -11.2671
  62   2.0000      -0.404678       -11.0119
  63   2.0000      -0.347691        -9.4612
  64   2.0000      -0.337758        -9.1909
  65   2.0000      -0.332429        -9.0459
  66   2.0000      -0.285498        -7.7688
  67   0.0000       0.021926         0.5966
  68   0.0000       0.064699         1.7606
  69   0.0000       0.101975         2.7749
  70   0.0000       0.113554         3.0900
  71   0.0000       0.126842         3.4515

MULLIKEN ATOMIC CHARGES
-----------------------
   0 S :    0.082856
   1 C :   -0.145555
   2 C :   -0.058077
   3 C :    0.021503
   4 C :   -0.145810
   5 H :    0.009980
   6 C :    0.071142
   7 H :    0.011171
   8 H :    0.013535
   9 C :   -0.059242
  10 H :    0.028940
  11 H :    0.033057
  12 C :   -0.033442
  13 H :    0.029879
  14 H :    0.012785
  15 H :    0.039080
  16 S :    0.122220
  17 C :   -0.104936
  18 C :   -0.032844
  19 C :   -0.039455
  20 C :   -0.157778
  21 H :    0.029149
  22 C :    0.039982
  23 H :    0.026969
  24 H :    0.010600
  25 C :   -0.017578
  26 H :    0.000936
  27 H :    0.021643
  28 C :   -0.039801
  29 H :    0.033463
  30 H :    0.020085
  31 H :    0.040120
  32 H :    0.068996
  33 H :    0.066429
Sum of atomic charges:   -0.0000000

LOEWDIN ATOMIC CHARGES
----------------------
   0 S :    0.365070
   1 C :   -0.186116
   2 C :   -0.062590
   3 C :   -0.063801
   4 C :   -0.156384
   5 H :    0.030897
   6 C :   -0.031016
   7 H :    0.026918
   8 H :    0.022004
   9 C :   -0.028333
  10 H :    0.022299
  11 H :    0.024379
  12 C :   -0.066809
  13 H :    0.024746
  14 H :    0.019846
  15 H :    0.027769
  16 S :    0.414184
  17 C :   -0.192023
  18 C :   -0.069605
  19 C :   -0.058461
  20 C :   -0.202259
  21 H :    0.038269
  22 C :   -0.037133
  23 H :    0.024854
  24 H :    0.028170
  25 C :   -0.036460
  26 H :    0.013437
  27 H :    0.024870
  28 C :   -0.065358
  29 H :    0.026582
  30 H :    0.023148
  31 H :    0.030864
  32 H :    0.033698
  33 H :    0.034345

  Mayer bond orders larger than 0.100000
B(  0-S ,  1-C ) :   1.1330 B(  0-S ,  4-C ) :   1.1398 B(  1-C ,  2-C ) :   1.5790
B(  1-C ,  4-C ) :   0.1089 B(  1-C , 32-H ) :   0.9708 B(  2-C ,  3-C ) :   1.2452
B(  2-C ,  6-C ) :   1.0228 B(  3-C ,  4-C ) :   1.5695 B(  3-C ,  5-H ) :   0.9950
B(  4-C , 20-C ) :   1.0525 B(  6-C ,  7-H ) :   0.9389 B(  6-C ,  8-H ) :   0.9419
B(  6-C ,  9-C ) :   1.0538 B(  9-C , 10-H ) :   0.9597 B(  9-C , 11-H ) :   0.9602
B(  9-C , 12-C ) :   1.0672 B( 12-C , 13-H ) :   0.9776 B( 12-C , 14-H ) :   0.9759
B( 12-C , 15-H ) :   0.9783 B( 16-S , 17-C ) :   1.1577 B( 16-S , 20-C ) :   1.1473
B( 17-C , 18-C ) :   1.5816 B( 17-C , 33-H ) :   0.9639 B( 18-C , 19-C ) :   1.2909
B( 18-C , 21-H ) :   0.9835 B( 19-C , 20-C ) :   1.5453 B( 19-C , 22-C ) :   1.0468
B( 22-C , 23-H ) :   0.9333 B( 22-C , 24-H ) :   0.9297 B( 22-C , 25-C ) :   1.0392
B( 25-C , 26-H ) :   0.9522 B( 25-C , 27-H ) :   0.9528 B( 25-C , 28-C ) :   1.0924
B( 28-C , 29-H ) :   0.9743 B( 28-C , 30-H ) :   0.9723 B( 28-C , 31-H ) :   0.9718

Dispersion correction           -0.014110710
FINAL SINGLE POINT ENERGY     -1339.876679089663

DIPOLE MOMENT
-------------
                                X             Y             Z
Electronic contribution:     -1.48264      -6.52645     -21.93593
Nuclear contribution   :      1.63425       6.65506      22.12883
                        -----------------------------------------
Total Dipole Moment    :      0.15160       0.12861       0.19290
                        -----------------------------------------
Magnitude (a.u.)       :      0.27701
Magnitude (Debye)      :      0.70410

Rotational constants in cm-1:     0.017948     0.007954     0.006626
Rotational constants in MHz :   538.059843   238.442319   198.629492

                             ****ORCA TERMINATED NORMALLY****
TOTAL RUN TIME: 0 days 0 hours 0 minutes 21 seconds 903 msec
