                         Program Version 4.2.1 -  RELEASE  -
|  1> ! wB97X-D3 SP def2-SVP
|  2> %pal
|  3> nprocs 24
|  4> end
|  5>
|  6> * xyz 0 1
|  7> S 	 -78.8801 	 -0.63236 	 6.28962
|  8> C 	 -79.0818 	 0.754504 	 7.3723
|  9> C 	 -78.8588 	 1.95664 	 6.71217
| 10> C 	 -78.4259 	 1.75704 	 5.37822
| 11> C 	 -78.3135 	 0.436694 	 4.97678
| 12> H 	 -78.1776 	 2.44889 	 4.68707
| 13> C 	 -79.0075 	 3.3086 	 7.33617
| 14> H 	 -79.9137 	 3.25095 	 7.97739
| 15> H 	 -79.2295 	 4.04154 	 6.59486
| 16> C 	 -77.907 	 3.75684 	 8.37454
| 17> H 	 -78.3053 	 4.63526 	 8.97982
| 18> H 	 -77.8959 	 3.03991 	 9.16756
| 19> C 	 -76.5634 	 4.3021 	 7.75127
| 20> H 	 -76.0372 	 3.51349 	 7.18389
| 21> H 	 -76.7348 	 5.1598 	 7.04518
| 22> H 	 -75.8869 	 4.54213 	 8.53837
| 23> S 	 -76.2304 	 0.371011 	 3.1923
| 24> C 	 -76.4145 	 -0.526665 	 1.71203
| 25> C 	 -77.65 	 -1.13023 	 1.66751
| 26> C 	 -78.5117 	 -0.863213 	 2.77928
| 27> C 	 -77.9001 	 0.0272321 	 3.67765
| 28> H 	 -77.8427 	 -1.76107 	 0.851417
| 29> C 	 -79.8918 	 -1.52271 	 2.99484
| 30> H 	 -80.0764 	 -1.88033 	 3.9982
| 31> H 	 -79.9204 	 -2.43808 	 2.38448
| 32> C 	 -81.0065 	 -0.595961 	 2.60526
| 33> H 	 -80.6258 	 -0.181231 	 1.66884
| 34> H 	 -81.1147 	 0.191114 	 3.31769
| 35> C 	 -82.3429 	 -1.35185 	 2.36091
| 36> H 	 -82.5703 	 -2.13996 	 3.10372
| 37> H 	 -82.2972 	 -1.91384 	 1.40836
| 38> H 	 -83.1423 	 -0.664701 	 2.51662
| 39> H 	 -79.5789 	 0.806006 	 8.34332
| 40> H 	 -75.6737 	 -0.565994 	 0.924058
| 41> *
| 42>
| 43>                          ****END OF INPUT****

CARTESIAN COORDINATES (ANGSTROEM)
---------------------------------
  S    -78.880100   -0.632360    6.289620
  C    -79.081800    0.754504    7.372300
  C    -78.858800    1.956640    6.712170
  C    -78.425900    1.757040    5.378220
  C    -78.313500    0.436694    4.976780
  H    -78.177600    2.448890    4.687070
  C    -79.007500    3.308600    7.336170
  H    -79.913700    3.250950    7.977390
  H    -79.229500    4.041540    6.594860
  C    -77.907000    3.756840    8.374540
  H    -78.305300    4.635260    8.979820
  H    -77.895900    3.039910    9.167560
  C    -76.563400    4.302100    7.751270
  H    -76.037200    3.513490    7.183890
  H    -76.734800    5.159800    7.045180
  H    -75.886900    4.542130    8.538370
  S    -76.230400    0.371011    3.192300
  C    -76.414500   -0.526665    1.712030
  C    -77.650000   -1.130230    1.667510
  C    -78.511700   -0.863213    2.779280
  C    -77.900100    0.027232    3.677650
  H    -77.842700   -1.761070    0.851417
  C    -79.891800   -1.522710    2.994840
  H    -80.076400   -1.880330    3.998200
  H    -79.920400   -2.438080    2.384480
  C    -81.006500   -0.595961    2.605260
  H    -80.625800   -0.181231    1.668840
  H    -81.114700    0.191114    3.317690
  C    -82.342900   -1.351850    2.360910
  H    -82.570300   -2.139960    3.103720
  H    -82.297200   -1.913840    1.408360
  H    -83.142300   -0.664701    2.516620
  H    -79.578900    0.806006    8.343320
  H    -75.673700   -0.565994    0.924058

 Total Charge           Charge          ....    0
 Multiplicity           Mult            ....    1
 Number of Electrons    NEL             ....  134
 Basis Dimension        Dim             ....  322

ORBITAL ENERGIES
----------------

  NO   OCC          E(Eh)            E(eV)
   0   2.0000     -88.969785     -2420.9909
   1   2.0000     -88.966115     -2420.8911
   2   2.0000     -10.327215      -281.0178
   3   2.0000     -10.325556      -280.9727
   4   2.0000     -10.317367      -280.7498
   5   2.0000     -10.315586      -280.7014
   6   2.0000     -10.307400      -280.4786
   7   2.0000     -10.298783      -280.2441
   8   2.0000     -10.296092      -280.1709
   9   2.0000     -10.293152      -280.0909
  10   2.0000     -10.291513      -280.0463
  11   2.0000     -10.288796      -279.9724
  12   2.0000     -10.284485      -279.8551
  13   2.0000     -10.282734      -279.8074
  14   2.0000     -10.278088      -279.6810
  15   2.0000     -10.277512      -279.6653
  16   2.0000      -8.082882      -219.9464
  17   2.0000      -8.080620      -219.8848
  18   2.0000      -6.041562      -164.3993
  19   2.0000      -6.039113      -164.3326
  20   2.0000      -6.037588      -164.2911
  21   2.0000      -6.035097      -164.2233
  22   2.0000      -6.033589      -164.1823
  23   2.0000      -6.031462      -164.1244
  24   2.0000      -1.003815       -27.3152
  25   2.0000      -0.980284       -26.6749
  26   2.0000      -0.910578       -24.7781
  27   2.0000      -0.904058       -24.6007
  28   2.0000      -0.869705       -23.6659
  29   2.0000      -0.847790       -23.0695
  30   2.0000      -0.842652       -22.9297
  31   2.0000      -0.814049       -22.1514
  32   2.0000      -0.783139       -21.3103
  33   2.0000      -0.770843       -20.9757
  34   2.0000      -0.709555       -19.3080
  35   2.0000      -0.705261       -19.1911
  36   2.0000      -0.692360       -18.8401
  37   2.0000      -0.663837       -18.0639
  38   2.0000      -0.641416       -17.4538
  39   2.0000      -0.614068       -16.7096
  40   2.0000      -0.596876       -16.2418
  41   2.0000      -0.572105       -15.5678
  42   2.0000      -0.570092       -15.5130
  43   2.0000      -0.540890       -14.7184
  44   2.0000      -0.536137       -14.5890
  45   2.0000      -0.521487       -14.1904
  46   2.0000      -0.512217       -13.9381
  47   2.0000      -0.510998       -13.9050
  48   2.0000      -0.506012       -13.7693
  49   2.0000      -0.493920       -13.4402
  50   2.0000      -0.490598       -13.3499
  51   2.0000      -0.481346       -13.0981
  52   2.0000      -0.473077       -12.8731
  53   2.0000      -0.468568       -12.7504
  54   2.0000      -0.461074       -12.5465
  55   2.0000      -0.445848       -12.1321
  56   2.0000      -0.443610       -12.0712
  57   2.0000      -0.437309       -11.8998
  58   2.0000      -0.432391       -11.7659
  59   2.0000      -0.428085       -11.6488
  60   2.0000      -0.420536       -11.4434
  61   2.0000      -0.411165       -11.1884
  62   2.0000      -0.407192       -11.0803
  63   2.0000      -0.340785        -9.2732
  64   2.0000      -0.333422        -9.0729
  65   2.0000      -0.328070        -8.9272
  66   2.0000      -0.294037        -8.0012
  67   0.0000       0.025205         0.6859
  68   0.0000       0.064552         1.7566
  69   0.0000       0.108114         2.9419
  70   0.0000       0.110836         3.0160
  71   0.0000       0.134025         3.6470

MULLIKEN ATOMIC CHARGES
-----------------------
   0 S :    0.115282
   1 C :   -0.119338
   2 C :   -0.063689
   3 C :    0.056483
   4 C :   -0.142151
   5 H :   -0.038661
   6 C :    0.060909
   7 H :    0.023354
   8 H :    0.018072
   9 C :   -0.073986
  10 H :    0.028030
  11 H :    0.017197
  12 C :   -0.051228
  13 H :    0.039437
  14 H :    0.044530
  15 H :    0.033931
  16 S :    0.113201
  17 C :   -0.092938
  18 C :   -0.025281
  19 C :   -0.032056
  20 C :   -0.178486
  21 H :   -0.001153
  22 C :    0.076868
  23 H :    0.019421
  24 H :    0.014825
  25 C :   -0.065312
  26 H :    0.028145
  27 H :    0.032976
  28 C :   -0.039532
  29 H :    0.022566
  30 H :    0.040583
  31 H :    0.030870
  32 H :    0.049100
  33 H :    0.058031
Sum of atomic charges:    0.0000000

LOEWDIN ATOMIC CHARGES
----------------------
   0 S :    0.393114
   1 C :   -0.196309
   2 C :   -0.064234
   3 C :   -0.046391
   4 C :   -0.185190
   5 H :    0.011672
   6 C :   -0.033150
   7 H :    0.036852
   8 H :    0.025125
   9 C :   -0.039486
  10 H :    0.029404
  11 H :    0.018283
  12 C :   -0.070081
  13 H :    0.027479
  14 H :    0.033000
  15 H :    0.023231
  16 S :    0.408298
  17 C :   -0.185738
  18 C :   -0.068572
  19 C :   -0.047372
  20 C :   -0.196760
  21 H :    0.022861
  22 C :   -0.031059
  23 H :    0.018412
  24 H :    0.029567
  25 C :   -0.035953
  26 H :    0.025748
  27 H :    0.021910
  28 C :   -0.067405
  29 H :    0.025584
  30 H :    0.030402
  31 H :    0.023689
  32 H :    0.032375
  33 H :    0.030696

  Mayer bond orders larger than 0.100000
B(  0-S ,  1-C ) :   1.1357 B(  0-S ,  4-C ) :   1.1199 B(  1-C ,  2-C ) :   1.6091
B(  1-C , 32-H ) :   0.9583 B(  2-C ,  3-C ) :   1.2265 B(  2-C ,  6-C ) :   1.0341
B(  3-C ,  4-C ) :   1.5576 B(  3-C ,  5-H ) :   1.0176 B(  4-C , 20-C ) :   1.0857
B(  6-C ,  7-H ) :   0.9317 B(  6-C ,  8-H ) :   0.9459 B(  6-C ,  9-C ) :   1.0715
B(  9-C , 10-H ) :   0.9559 B(  9-C , 11-H ) :   0.9567 B(  9-C , 12-C ) :   1.0608
B( 12-C , 13-H ) :   0.9790 B( 12-C , 14-H ) :   0.9753 B( 12-C , 15-H ) :   0.9749
B( 16-S , 17-C ) :   1.1555 B( 16-S , 20-C ) :   1.1465 B( 17-C , 18-C ) :   1.6001
B( 17-C , 20-C ) :   0.1017 B( 17-C , 33-H ) :   0.9677 B( 18-C , 19-C ) :   1.2478
B( 18-C , 21-H ) :   0.9981 B( 19-C , 20-C ) :   1.5530 B( 19-C , 22-C ) :   1.0391
B( 22-C , 23-H ) :   0.9300 B( 22-C , 24-H ) :   0.9376 B( 22-C , 25-C ) :   1.0584
B( 25-C , 26-H ) :   0.9575 B( 25-C , 27-H ) :   0.9585 B( 25-C , 28-C ) :   1.0780
B( 28-C , 29-H ) :   0.9736 B( 28-C , 30-H ) :   0.9754 B( 28-C , 31-H ) :   0.9754

Dispersion correction           -0.014395088
FINAL SINGLE POINT ENERGY     -1339.873768955589

DIPOLE MOMENT
-------------
                                X             Y             Z
Electronic contribution:     11.98512      -9.53211      -3.52480
Nuclear contribution   :    -12.27026       9.73096       3.46352
                        -----------------------------------------
Total Dipole Moment    :     -0.28515       0.19885      -0.06128
                        -----------------------------------------
Magnitude (a.u.)       :      0.35299
Magnitude (Debye)      :      0.89723

Rotational constants in cm-1:     0.019484     0.008434     0.006690
Rotational constants in MHz :   584.116305   252.845140   200.561758

                             ****ORCA TERMINATED NORMALLY****
TOTAL RUN TIME: 0 days 0 hours 0 minutes 20 seconds 185 msec
