                         Program Version 4.2.1 -  RELEASE  -
|  1> ! wB97X-D3 SP def2-SVP
|  2> %pal
|  3> nprocs 24
|  4> end
|  5>
|  6> * xyz 0 1
|  7> S 	 -94.4828 	 14.8308 	 -118.599
|  8> C 	 -92.7205 	 14.9768 	 -118.491
|  9> C 	 -92.1398 	 13.7679 	 -118.287
| 10> C 	 -93.0674 	 12.6902 	 -118.059
| 11> C 	 -94.3943 	 13.0393 	 -118.356
| 12> H 	 -92.8093 	 11.6214 	 -117.955
| 13> C 	 -90.6891 	 13.5833 	 -118.115
| 14> H 	 -90.2528 	 13.7507 	 -119.106
| 15> H 	 -90.491 	 12.4987 	 -118.016
| 16> C 	 -89.9388 	 14.3848 	 -117.048
| 17> H 	 -88.8423 	 14.1966 	 -117.256
| 18> H 	 -90.1618 	 15.414 	 -117.108
| 19> C 	 -90.1796 	 13.7816 	 -115.636
| 20> H 	 -89.9689 	 12.7049 	 -115.617
| 21> H 	 -89.6234 	 14.2454 	 -114.817
| 22> H 	 -91.1874 	 13.9055 	 -115.413
| 23> S 	 -95.8785 	 11.1945 	 -116.897
| 24> C 	 -97.4195 	 10.6681 	 -117.522
| 25> C 	 -97.8262 	 11.3896 	 -118.6
| 26> C 	 -96.7768 	 12.2554 	 -119.045
| 27> C 	 -95.6061 	 12.1545 	 -118.31
| 28> H 	 -98.8249 	 11.2164 	 -119.043
| 29> C 	 -96.9922 	 12.9241 	 -120.406
| 30> H 	 -96.9963 	 13.991 	 -120.118
| 31> H 	 -97.9119 	 12.7015 	 -120.903
| 32> C 	 -95.902 	 12.6628 	 -121.437
| 33> H 	 -95.5958 	 11.6539 	 -121.418
| 34> H 	 -94.9682 	 13.1176 	 -121.17
| 35> C 	 -96.4052 	 12.9124 	 -122.88
| 36> H 	 -97.1317 	 12.1697 	 -123.103
| 37> H 	 -95.4757 	 12.6837 	 -123.548
| 38> H 	 -96.7761 	 13.9439 	 -123.016
| 39> H 	 -92.2123 	 15.8755 	 -118.777
| 40> H 	 -98.0446 	 10.0487 	 -116.996
| 41> *
| 42>
| 43>                          ****END OF INPUT****

CARTESIAN COORDINATES (ANGSTROEM)
---------------------------------
  S    -94.482800   14.830800  -118.599000
  C    -92.720500   14.976800  -118.491000
  C    -92.139800   13.767900  -118.287000
  C    -93.067400   12.690200  -118.059000
  C    -94.394300   13.039300  -118.356000
  H    -92.809300   11.621400  -117.955000
  C    -90.689100   13.583300  -118.115000
  H    -90.252800   13.750700  -119.106000
  H    -90.491000   12.498700  -118.016000
  C    -89.938800   14.384800  -117.048000
  H    -88.842300   14.196600  -117.256000
  H    -90.161800   15.414000  -117.108000
  C    -90.179600   13.781600  -115.636000
  H    -89.968900   12.704900  -115.617000
  H    -89.623400   14.245400  -114.817000
  H    -91.187400   13.905500  -115.413000
  S    -95.878500   11.194500  -116.897000
  C    -97.419500   10.668100  -117.522000
  C    -97.826200   11.389600  -118.600000
  C    -96.776800   12.255400  -119.045000
  C    -95.606100   12.154500  -118.310000
  H    -98.824900   11.216400  -119.043000
  C    -96.992200   12.924100  -120.406000
  H    -96.996300   13.991000  -120.118000
  H    -97.911900   12.701500  -120.903000
  C    -95.902000   12.662800  -121.437000
  H    -95.595800   11.653900  -121.418000
  H    -94.968200   13.117600  -121.170000
  C    -96.405200   12.912400  -122.880000
  H    -97.131700   12.169700  -123.103000
  H    -95.475700   12.683700  -123.548000
  H    -96.776100   13.943900  -123.016000
  H    -92.212300   15.875500  -118.777000
  H    -98.044600   10.048700  -116.996000

 Total Charge           Charge          ....    0
 Multiplicity           Mult            ....    1
 Number of Electrons    NEL             ....  134
 Basis Dimension        Dim             ....  322

ORBITAL ENERGIES
----------------

  NO   OCC          E(Eh)            E(eV)
   0   2.0000     -88.966389     -2420.8985
   1   2.0000     -88.966084     -2420.8902
   2   2.0000     -10.341165      -281.3974
   3   2.0000     -10.327983      -281.0387
   4   2.0000     -10.312164      -280.6082
   5   2.0000     -10.309991      -280.5491
   6   2.0000     -10.303539      -280.3735
   7   2.0000     -10.299735      -280.2700
   8   2.0000     -10.298098      -280.2255
   9   2.0000     -10.294225      -280.1201
  10   2.0000     -10.289948      -280.0037
  11   2.0000     -10.288277      -279.9582
  12   2.0000     -10.286102      -279.8991
  13   2.0000     -10.282085      -279.7898
  14   2.0000     -10.271042      -279.4893
  15   2.0000     -10.270737      -279.4810
  16   2.0000      -8.081593      -219.9113
  17   2.0000      -8.079262      -219.8479
  18   2.0000      -6.040019      -164.3573
  19   2.0000      -6.037991      -164.3021
  20   2.0000      -6.036110      -164.2509
  21   2.0000      -6.034004      -164.1936
  22   2.0000      -6.032327      -164.1480
  23   2.0000      -6.029877      -164.0813
  24   2.0000      -1.005926       -27.3726
  25   2.0000      -0.983598       -26.7651
  26   2.0000      -0.911694       -24.8085
  27   2.0000      -0.906931       -24.6788
  28   2.0000      -0.867952       -23.6182
  29   2.0000      -0.849283       -23.1102
  30   2.0000      -0.842658       -22.9299
  31   2.0000      -0.817115       -22.2348
  32   2.0000      -0.779188       -21.2028
  33   2.0000      -0.768762       -20.9191
  34   2.0000      -0.709301       -19.3011
  35   2.0000      -0.706785       -19.2326
  36   2.0000      -0.690263       -18.7830
  37   2.0000      -0.664631       -18.0855
  38   2.0000      -0.637880       -17.3576
  39   2.0000      -0.609064       -16.5735
  40   2.0000      -0.596174       -16.2227
  41   2.0000      -0.578994       -15.7552
  42   2.0000      -0.564335       -15.3563
  43   2.0000      -0.549100       -14.9418
  44   2.0000      -0.538192       -14.6449
  45   2.0000      -0.519572       -14.1383
  46   2.0000      -0.516065       -14.0428
  47   2.0000      -0.515162       -14.0183
  48   2.0000      -0.505785       -13.7631
  49   2.0000      -0.492797       -13.4097
  50   2.0000      -0.488501       -13.2928
  51   2.0000      -0.474806       -12.9201
  52   2.0000      -0.471878       -12.8404
  53   2.0000      -0.467003       -12.7078
  54   2.0000      -0.457622       -12.4525
  55   2.0000      -0.449809       -12.2399
  56   2.0000      -0.444696       -12.1008
  57   2.0000      -0.440958       -11.9991
  58   2.0000      -0.429727       -11.6935
  59   2.0000      -0.427141       -11.6231
  60   2.0000      -0.420536       -11.4434
  61   2.0000      -0.411367       -11.1939
  62   2.0000      -0.399167       -10.8619
  63   2.0000      -0.350775        -9.5451
  64   2.0000      -0.331941        -9.0326
  65   2.0000      -0.327474        -8.9110
  66   2.0000      -0.293618        -7.9897
  67   0.0000       0.022895         0.6230
  68   0.0000       0.072948         1.9850
  69   0.0000       0.106271         2.8918
  70   0.0000       0.110899         3.0177
  71   0.0000       0.132150         3.5960

MULLIKEN ATOMIC CHARGES
-----------------------
   0 S :    0.087581
   1 C :   -0.127346
   2 C :   -0.077514
   3 C :    0.005218
   4 C :   -0.142606
   5 H :    0.032278
   6 C :    0.041282
   7 H :    0.032202
   8 H :    0.010402
   9 C :   -0.047079
  10 H :    0.036252
  11 H :    0.026962
  12 C :   -0.037231
  13 H :    0.025062
  14 H :    0.035107
  15 H :    0.022499
  16 S :    0.110435
  17 C :   -0.053078
  18 C :   -0.043433
  19 C :   -0.064880
  20 C :   -0.128031
  21 H :    0.035311
  22 C :    0.075751
  23 H :    0.035724
  24 H :    0.007083
  25 C :   -0.051875
  26 H :    0.011389
  27 H :    0.023633
  28 C :   -0.078589
  29 H :    0.033665
  30 H :    0.045726
  31 H :    0.046352
  32 H :    0.050274
  33 H :    0.021474
Sum of atomic charges:   -0.0000000

LOEWDIN ATOMIC CHARGES
----------------------
   0 S :    0.373409
   1 C :   -0.186568
   2 C :   -0.068259
   3 C :   -0.071766
   4 C :   -0.165776
   5 H :    0.037256
   6 C :   -0.041938
   7 H :    0.036241
   8 H :    0.030697
   9 C :   -0.030367
  10 H :    0.032205
  11 H :    0.016389
  12 C :   -0.061498
  13 H :    0.026203
  14 H :    0.026435
  15 H :    0.016819
  16 S :    0.420677
  17 C :   -0.166546
  18 C :   -0.069959
  19 C :   -0.052650
  20 C :   -0.215642
  21 H :    0.040955
  22 C :   -0.031584
  23 H :    0.033183
  24 H :    0.023408
  25 C :   -0.043163
  26 H :    0.018785
  27 H :    0.017857
  28 C :   -0.065169
  29 H :    0.018411
  30 H :    0.039829
  31 H :    0.026122
  32 H :    0.026284
  33 H :    0.009718

  Mayer bond orders larger than 0.100000
B(  0-S ,  1-C ) :   1.1180 B(  0-S ,  4-C ) :   1.1317 B(  1-C ,  2-C ) :   1.6327
B(  1-C , 32-H ) :   0.9691 B(  2-C ,  3-C ) :   1.2250 B(  2-C ,  6-C ) :   1.0308
B(  3-C ,  4-C ) :   1.5821 B(  3-C ,  5-H ) :   0.9824 B(  4-C , 20-C ) :   1.0478
B(  6-C ,  7-H ) :   0.9252 B(  6-C ,  8-H ) :   0.9393 B(  6-C ,  9-C ) :   1.0758
B(  9-C , 10-H ) :   0.9538 B(  9-C , 11-H ) :   0.9589 B(  9-C , 12-C ) :   1.0687
B( 12-C , 13-H ) :   0.9745 B( 12-C , 14-H ) :   0.9754 B( 12-C , 15-H ) :   0.9797
B( 16-S , 17-C ) :   1.1647 B( 16-S , 20-C ) :   1.1356 B( 17-C , 18-C ) :   1.6087
B( 17-C , 33-H ) :   0.9747 B( 18-C , 19-C ) :   1.2472 B( 18-C , 21-H ) :   0.9905
B( 19-C , 20-C ) :   1.5811 B( 19-C , 22-C ) :   1.0297 B( 22-C , 23-H ) :   0.9139
B( 22-C , 24-H ) :   0.9534 B( 22-C , 25-C ) :   1.0673 B( 25-C , 26-H ) :   0.9550
B( 25-C , 27-H ) :   0.9452 B( 25-C , 28-C ) :   1.0848 B( 28-C , 29-H ) :   0.9751
B( 28-C , 30-H ) :   0.9739 B( 28-C , 31-H ) :   0.9774

Dispersion correction           -0.014587787
FINAL SINGLE POINT ENERGY     -1339.869500675176

DIPOLE MOMENT
-------------
                                X             Y             Z
Electronic contribution:    -12.43073      -2.24415       9.51924
Nuclear contribution   :     12.54450       2.11171      -9.74257
                        -----------------------------------------
Total Dipole Moment    :      0.11377      -0.13243      -0.22333
                        -----------------------------------------
Magnitude (a.u.)       :      0.28347
Magnitude (Debye)      :      0.72053

Rotational constants in cm-1:     0.020714     0.008336     0.006606
Rotational constants in MHz :   621.004153   249.895898   198.029465

                             ****ORCA TERMINATED NORMALLY****
TOTAL RUN TIME: 0 days 0 hours 0 minutes 21 seconds 549 msec
