                         Program Version 4.2.1 -  RELEASE  -
|  1> ! wB97X-D3 SP def2-SVP
|  2> %pal
|  3> nprocs 24
|  4> end
|  5>
|  6> * xyz 0 1
|  7> S 	 -42.3672 	 14.6579 	 24.7666
|  8> C 	 -43.4583 	 15.7459 	 25.5585
|  9> C 	 -44.5919 	 16.0137 	 24.832
| 10> C 	 -44.5376 	 15.3149 	 23.5919
| 11> C 	 -43.3791 	 14.6475 	 23.3367
| 12> H 	 -45.4346 	 15.2623 	 22.9333
| 13> C 	 -45.8614 	 16.5803 	 25.3972
| 14> H 	 -46.1218 	 16.0106 	 26.2922
| 15> H 	 -46.6836 	 16.5474 	 24.6435
| 16> C 	 -45.615 	 18.0563 	 25.7994
| 17> H 	 -44.6249 	 18.2237 	 26.33
| 18> H 	 -45.4842 	 18.5832 	 24.852
| 19> C 	 -46.783 	 18.6734 	 26.5697
| 20> H 	 -47.2635 	 17.8904 	 27.1254
| 21> H 	 -46.5058 	 19.5403 	 27.2536
| 22> H 	 -47.4748 	 19.0001 	 25.8878
| 23> S 	 -43.1198 	 12.0724 	 22.5237
| 24> C 	 -42.5743 	 11.7028 	 20.8824
| 25> C 	 -42.6712 	 12.8194 	 20.0828
| 26> C 	 -42.997 	 13.9924 	 20.8439
| 27> C 	 -43.0229 	 13.766 	 22.2284
| 28> H 	 -42.3053 	 12.6757 	 19.0408
| 29> C 	 -43.1566 	 15.3806 	 20.2051
| 30> H 	 -42.3308 	 15.5156 	 19.4804
| 31> H 	 -42.7916 	 16.1706 	 20.8509
| 32> C 	 -44.4073 	 15.6639 	 19.3674
| 33> H 	 -45.2306 	 15.5869 	 20.0645
| 34> H 	 -44.6037 	 14.8926 	 18.5751
| 35> C 	 -44.5793 	 17.0762 	 18.8401
| 36> H 	 -44.1792 	 17.2365 	 17.8836
| 37> H 	 -44.163 	 17.8271 	 19.5127
| 38> H 	 -45.5999 	 17.3912 	 18.6396
| 39> H 	 -43.3986 	 16.0152 	 26.5715
| 40> H 	 -42.3951 	 10.8071 	 20.3385
| 41> *
| 42>
| 43>                          ****END OF INPUT****

CARTESIAN COORDINATES (ANGSTROEM)
---------------------------------
  S    -42.367200   14.657900   24.766600
  C    -43.458300   15.745900   25.558500
  C    -44.591900   16.013700   24.832000
  C    -44.537600   15.314900   23.591900
  C    -43.379100   14.647500   23.336700
  H    -45.434600   15.262300   22.933300
  C    -45.861400   16.580300   25.397200
  H    -46.121800   16.010600   26.292200
  H    -46.683600   16.547400   24.643500
  C    -45.615000   18.056300   25.799400
  H    -44.624900   18.223700   26.330000
  H    -45.484200   18.583200   24.852000
  C    -46.783000   18.673400   26.569700
  H    -47.263500   17.890400   27.125400
  H    -46.505800   19.540300   27.253600
  H    -47.474800   19.000100   25.887800
  S    -43.119800   12.072400   22.523700
  C    -42.574300   11.702800   20.882400
  C    -42.671200   12.819400   20.082800
  C    -42.997000   13.992400   20.843900
  C    -43.022900   13.766000   22.228400
  H    -42.305300   12.675700   19.040800
  C    -43.156600   15.380600   20.205100
  H    -42.330800   15.515600   19.480400
  H    -42.791600   16.170600   20.850900
  C    -44.407300   15.663900   19.367400
  H    -45.230600   15.586900   20.064500
  H    -44.603700   14.892600   18.575100
  C    -44.579300   17.076200   18.840100
  H    -44.179200   17.236500   17.883600
  H    -44.163000   17.827100   19.512700
  H    -45.599900   17.391200   18.639600
  H    -43.398600   16.015200   26.571500
  H    -42.395100   10.807100   20.338500

 Total Charge           Charge          ....    0
 Multiplicity           Mult            ....    1
 Number of Electrons    NEL             ....  134
 Basis Dimension        Dim             ....  322

ORBITAL ENERGIES
----------------

  NO   OCC          E(Eh)            E(eV)
   0   2.0000     -88.966686     -2420.9066
   1   2.0000     -88.965774     -2420.8818
   2   2.0000     -10.326610      -281.0013
   3   2.0000     -10.325303      -280.9658
   4   2.0000     -10.313249      -280.6378
   5   2.0000     -10.308456      -280.5073
   6   2.0000     -10.308426      -280.5065
   7   2.0000     -10.298205      -280.2284
   8   2.0000     -10.295999      -280.1684
   9   2.0000     -10.295733      -280.1611
  10   2.0000     -10.295242      -280.1478
  11   2.0000     -10.289298      -279.9860
  12   2.0000     -10.289210      -279.9836
  13   2.0000     -10.287714      -279.9429
  14   2.0000     -10.273785      -279.5639
  15   2.0000     -10.271697      -279.5071
  16   2.0000      -8.081722      -219.9148
  17   2.0000      -8.080483      -219.8811
  18   2.0000      -6.040137      -164.3605
  19   2.0000      -6.039067      -164.3314
  20   2.0000      -6.036233      -164.2543
  21   2.0000      -6.035104      -164.2235
  22   2.0000      -6.032519      -164.1532
  23   2.0000      -6.031018      -164.1123
  24   2.0000      -1.010659       -27.5014
  25   2.0000      -0.987445       -26.8697
  26   2.0000      -0.914821       -24.8936
  27   2.0000      -0.904587       -24.6151
  28   2.0000      -0.871944       -23.7268
  29   2.0000      -0.851242       -23.1635
  30   2.0000      -0.847398       -23.0589
  31   2.0000      -0.819648       -22.3037
  32   2.0000      -0.783150       -21.3106
  33   2.0000      -0.771741       -21.0002
  34   2.0000      -0.707897       -19.2629
  35   2.0000      -0.700006       -19.0481
  36   2.0000      -0.696251       -18.9460
  37   2.0000      -0.654134       -17.7999
  38   2.0000      -0.642513       -17.4837
  39   2.0000      -0.622114       -16.9286
  40   2.0000      -0.592222       -16.1152
  41   2.0000      -0.573998       -15.6193
  42   2.0000      -0.563886       -15.3441
  43   2.0000      -0.556190       -15.1347
  44   2.0000      -0.526540       -14.3279
  45   2.0000      -0.522833       -14.2270
  46   2.0000      -0.517452       -14.0806
  47   2.0000      -0.512886       -13.9563
  48   2.0000      -0.508331       -13.8324
  49   2.0000      -0.502742       -13.6803
  50   2.0000      -0.492047       -13.3893
  51   2.0000      -0.479071       -13.0362
  52   2.0000      -0.469880       -12.7861
  53   2.0000      -0.465149       -12.6573
  54   2.0000      -0.457526       -12.4499
  55   2.0000      -0.447303       -12.1717
  56   2.0000      -0.445394       -12.1198
  57   2.0000      -0.434631       -11.8269
  58   2.0000      -0.433282       -11.7902
  59   2.0000      -0.426899       -11.6165
  60   2.0000      -0.424520       -11.5518
  61   2.0000      -0.419893       -11.4259
  62   2.0000      -0.398124       -10.8335
  63   2.0000      -0.344346        -9.3701
  64   2.0000      -0.329790        -8.9741
  65   2.0000      -0.323831        -8.8119
  66   2.0000      -0.300160        -8.1678
  67   0.0000       0.031037         0.8446
  68   0.0000       0.063872         1.7381
  69   0.0000       0.111346         3.0299
  70   0.0000       0.113562         3.0902
  71   0.0000       0.131609         3.5813

MULLIKEN ATOMIC CHARGES
-----------------------
   0 S :    0.119112
   1 C :   -0.092589
   2 C :   -0.093694
   3 C :    0.028237
   4 C :   -0.178698
   5 H :    0.027201
   6 C :    0.054903
   7 H :    0.043977
   8 H :    0.032577
   9 C :   -0.145443
  10 H :    0.041254
  11 H :    0.028427
  12 C :    0.008250
  13 H :    0.017085
  14 H :    0.048434
  15 H :    0.010594
  16 S :    0.114294
  17 C :   -0.067693
  18 C :   -0.068788
  19 C :   -0.012259
  20 C :   -0.139044
  21 H :    0.042272
  22 C :    0.042843
  23 H :    0.011521
  24 H :    0.023551
  25 C :   -0.056975
  26 H :    0.016915
  27 H :    0.038283
  28 C :   -0.028786
  29 H :    0.013701
  30 H :    0.029367
  31 H :    0.022369
  32 H :    0.029083
  33 H :    0.039718
Sum of atomic charges:    0.0000000

LOEWDIN ATOMIC CHARGES
----------------------
   0 S :    0.419696
   1 C :   -0.187426
   2 C :   -0.069552
   3 C :   -0.058441
   4 C :   -0.204723
   5 H :    0.036892
   6 C :   -0.027326
   7 H :    0.032010
   8 H :    0.033468
   9 C :   -0.047303
  10 H :    0.027582
  11 H :    0.024200
  12 C :   -0.064710
  13 H :    0.021098
  14 H :    0.037591
  15 H :    0.014052
  16 S :    0.413708
  17 C :   -0.182730
  18 C :   -0.075706
  19 C :   -0.050533
  20 C :   -0.212544
  21 H :    0.042676
  22 C :   -0.044952
  23 H :    0.030545
  24 H :    0.032652
  25 C :   -0.043706
  26 H :    0.019781
  27 H :    0.031257
  28 C :   -0.065027
  29 H :    0.016131
  30 H :    0.028387
  31 H :    0.028384
  32 H :    0.016560
  33 H :    0.028011

  Mayer bond orders larger than 0.100000
B(  0-S ,  1-C ) :   1.1572 B(  0-S ,  4-C ) :   1.1497 B(  1-C ,  2-C ) :   1.6054
B(  1-C , 32-H ) :   0.9652 B(  2-C ,  3-C ) :   1.2622 B(  2-C ,  6-C ) :   1.0212
B(  3-C ,  4-C ) :   1.5819 B(  3-C ,  5-H ) :   0.9883 B(  4-C , 20-C ) :   1.0104
B(  6-C ,  7-H ) :   0.9410 B(  6-C ,  8-H ) :   0.9470 B(  6-C ,  9-C ) :   1.0446
B(  9-C , 10-H ) :   0.9673 B(  9-C , 11-H ) :   0.9594 B(  9-C , 12-C ) :   1.0649
B( 12-C , 13-H ) :   0.9744 B( 12-C , 14-H ) :   0.9748 B( 12-C , 15-H ) :   0.9710
B( 16-S , 17-C ) :   1.1402 B( 16-S , 20-C ) :   1.1529 B( 17-C , 18-C ) :   1.6452
B( 17-C , 33-H ) :   0.9658 B( 18-C , 19-C ) :   1.2261 B( 18-C , 21-H ) :   0.9809
B( 19-C , 20-C ) :   1.5977 B( 19-C , 22-C ) :   1.0474 B( 22-C , 23-H ) :   0.9357
B( 22-C , 24-H ) :   0.9354 B( 22-C , 25-C ) :   1.0510 B( 25-C , 26-H ) :   0.9568
B( 25-C , 27-H ) :   0.9544 B( 25-C , 28-C ) :   1.0814 B( 28-C , 29-H ) :   0.9732
B( 28-C , 30-H ) :   0.9727 B( 28-C , 31-H ) :   0.9738

Dispersion correction           -0.013554466
FINAL SINGLE POINT ENERGY     -1339.855921779963

DIPOLE MOMENT
-------------
                                X             Y             Z
Electronic contribution:     16.37042     -24.33885       5.69044
Nuclear contribution   :    -16.86804      24.66824      -5.93744
                        -----------------------------------------
Total Dipole Moment    :     -0.49762       0.32940      -0.24700
                        -----------------------------------------
Magnitude (a.u.)       :      0.64586
Magnitude (Debye)      :      1.64165

Rotational constants in cm-1:     0.018238     0.008178     0.006153
Rotational constants in MHz :   546.754126   245.184344   184.461589

                             ****ORCA TERMINATED NORMALLY****
TOTAL RUN TIME: 0 days 0 hours 0 minutes 21 seconds 81 msec
