                         Program Version 4.2.1 -  RELEASE  -
|  1> ! wB97X-D3 SP def2-SVP
|  2> %pal
|  3> nprocs 24
|  4> end
|  5>
|  6> * xyz 0 1
|  7> S 	 -81.9999 	 -8.16929 	 -57.4243
|  8> C 	 -83.0427 	 -9.53484 	 -57.1565
|  9> C 	 -84.2984 	 -9.16386 	 -57.6325
| 10> C 	 -84.4431 	 -7.81248 	 -58.0657
| 11> C 	 -83.213 	 -7.12765 	 -58.1034
| 12> H 	 -85.28 	 -7.32043 	 -58.5081
| 13> C 	 -85.53 	 -10.0758 	 -57.7065
| 14> H 	 -86.4172 	 -9.46576 	 -58.0083
| 15> H 	 -85.7125 	 -10.7085 	 -56.8318
| 16> C 	 -85.497 	 -11.1754 	 -58.7414
| 17> H 	 -85.2122 	 -10.6821 	 -59.6558
| 18> H 	 -84.6352 	 -11.8673 	 -58.4404
| 19> C 	 -86.7838 	 -11.9885 	 -58.8096
| 20> H 	 -86.6517 	 -12.7255 	 -59.5839
| 21> H 	 -87.0038 	 -12.3856 	 -57.7792
| 22> H 	 -87.7082 	 -11.4741 	 -59.0385
| 23> S 	 -82.9002 	 -4.51749 	 -57.4953
| 24> C 	 -82.5716 	 -3.32659 	 -58.6965
| 25> C 	 -82.5997 	 -3.87657 	 -59.9997
| 26> C 	 -82.9107 	 -5.31772 	 -59.9827
| 27> C 	 -82.9492 	 -5.82166 	 -58.6638
| 28> H 	 -82.3644 	 -3.21911 	 -60.8207
| 29> C 	 -83.1203 	 -6.12848 	 -61.3284
| 30> H 	 -83.2278 	 -5.46602 	 -62.124
| 31> H 	 -84.1173 	 -6.60891 	 -61.2485
| 32> C 	 -82.0224 	 -7.14545 	 -61.6763
| 33> H 	 -81.8775 	 -7.68705 	 -60.7876
| 34> H 	 -81.0964 	 -6.60544 	 -61.7584
| 35> C 	 -82.3732 	 -7.90144 	 -62.9279
| 36> H 	 -81.6897 	 -8.74153 	 -63.1809
| 37> H 	 -82.5571 	 -7.29702 	 -63.807
| 38> H 	 -83.2952 	 -8.46822 	 -62.8852
| 39> H 	 -82.7459 	 -10.511 	 -56.6851
| 40> H 	 -82.3085 	 -2.27163 	 -58.5395
| 41> *
| 42>
| 43>                          ****END OF INPUT****

CARTESIAN COORDINATES (ANGSTROEM)
---------------------------------
  S    -81.999900   -8.169290  -57.424300
  C    -83.042700   -9.534840  -57.156500
  C    -84.298400   -9.163860  -57.632500
  C    -84.443100   -7.812480  -58.065700
  C    -83.213000   -7.127650  -58.103400
  H    -85.280000   -7.320430  -58.508100
  C    -85.530000  -10.075800  -57.706500
  H    -86.417200   -9.465760  -58.008300
  H    -85.712500  -10.708500  -56.831800
  C    -85.497000  -11.175400  -58.741400
  H    -85.212200  -10.682100  -59.655800
  H    -84.635200  -11.867300  -58.440400
  C    -86.783800  -11.988500  -58.809600
  H    -86.651700  -12.725500  -59.583900
  H    -87.003800  -12.385600  -57.779200
  H    -87.708200  -11.474100  -59.038500
  S    -82.900200   -4.517490  -57.495300
  C    -82.571600   -3.326590  -58.696500
  C    -82.599700   -3.876570  -59.999700
  C    -82.910700   -5.317720  -59.982700
  C    -82.949200   -5.821660  -58.663800
  H    -82.364400   -3.219110  -60.820700
  C    -83.120300   -6.128480  -61.328400
  H    -83.227800   -5.466020  -62.124000
  H    -84.117300   -6.608910  -61.248500
  C    -82.022400   -7.145450  -61.676300
  H    -81.877500   -7.687050  -60.787600
  H    -81.096400   -6.605440  -61.758400
  C    -82.373200   -7.901440  -62.927900
  H    -81.689700   -8.741530  -63.180900
  H    -82.557100   -7.297020  -63.807000
  H    -83.295200   -8.468220  -62.885200
  H    -82.745900  -10.511000  -56.685100
  H    -82.308500   -2.271630  -58.539500

 Total Charge           Charge          ....    0
 Multiplicity           Mult            ....    1
 Number of Electrons    NEL             ....  134
 Basis Dimension        Dim             ....  322

ORBITAL ENERGIES
----------------

  NO   OCC          E(Eh)            E(eV)
   0   2.0000     -88.968024     -2420.9430
   1   2.0000     -88.966534     -2420.9025
   2   2.0000     -10.330798      -281.1153
   3   2.0000     -10.329541      -281.0811
   4   2.0000     -10.323344      -280.9125
   5   2.0000     -10.320851      -280.8446
   6   2.0000     -10.318650      -280.7847
   7   2.0000     -10.306080      -280.4427
   8   2.0000     -10.300844      -280.3002
   9   2.0000     -10.296110      -280.1714
  10   2.0000     -10.291922      -280.0574
  11   2.0000     -10.289435      -279.9898
  12   2.0000     -10.285777      -279.8902
  13   2.0000     -10.281969      -279.7866
  14   2.0000     -10.277345      -279.6608
  15   2.0000     -10.276437      -279.6361
  16   2.0000      -8.082654      -219.9402
  17   2.0000      -8.081611      -219.9118
  18   2.0000      -6.041112      -164.3870
  19   2.0000      -6.040128      -164.3602
  20   2.0000      -6.036799      -164.2697
  21   2.0000      -6.035872      -164.2444
  22   2.0000      -6.033809      -164.1883
  23   2.0000      -6.032537      -164.1537
  24   2.0000      -1.006117       -27.3778
  25   2.0000      -0.982084       -26.7239
  26   2.0000      -0.914514       -24.8852
  27   2.0000      -0.907827       -24.7032
  28   2.0000      -0.870343       -23.6832
  29   2.0000      -0.848303       -23.0835
  30   2.0000      -0.845302       -23.0018
  31   2.0000      -0.810878       -22.0651
  32   2.0000      -0.782032       -21.2802
  33   2.0000      -0.771645       -20.9975
  34   2.0000      -0.711840       -19.3701
  35   2.0000      -0.695883       -18.9359
  36   2.0000      -0.690289       -18.7837
  37   2.0000      -0.658805       -17.9270
  38   2.0000      -0.647452       -17.6181
  39   2.0000      -0.618313       -16.8251
  40   2.0000      -0.589972       -16.0539
  41   2.0000      -0.571466       -15.5504
  42   2.0000      -0.567251       -15.4357
  43   2.0000      -0.561351       -15.2751
  44   2.0000      -0.523466       -14.2442
  45   2.0000      -0.521712       -14.1965
  46   2.0000      -0.520478       -14.1629
  47   2.0000      -0.509579       -13.8664
  48   2.0000      -0.506433       -13.7807
  49   2.0000      -0.504593       -13.7307
  50   2.0000      -0.494221       -13.4484
  51   2.0000      -0.487722       -13.2716
  52   2.0000      -0.471732       -12.8365
  53   2.0000      -0.466592       -12.6966
  54   2.0000      -0.462470       -12.5844
  55   2.0000      -0.448917       -12.2157
  56   2.0000      -0.444007       -12.0820
  57   2.0000      -0.430719       -11.7205
  58   2.0000      -0.424661       -11.5556
  59   2.0000      -0.419845       -11.4246
  60   2.0000      -0.417866       -11.3707
  61   2.0000      -0.415194       -11.2980
  62   2.0000      -0.410784       -11.1780
  63   2.0000      -0.335406        -9.1269
  64   2.0000      -0.327086        -8.9005
  65   2.0000      -0.322380        -8.7724
  66   2.0000      -0.310960        -8.4617
  67   0.0000       0.036361         0.9894
  68   0.0000       0.053051         1.4436
  69   0.0000       0.111783         3.0418
  70   0.0000       0.124335         3.3833
  71   0.0000       0.129933         3.5357

MULLIKEN ATOMIC CHARGES
-----------------------
   0 S :    0.123399
   1 C :   -0.139334
   2 C :   -0.065327
   3 C :    0.068016
   4 C :   -0.187669
   5 H :    0.009597
   6 C :    0.037416
   7 H :    0.024991
   8 H :    0.021154
   9 C :   -0.098879
  10 H :    0.019628
  11 H :    0.030183
  12 C :   -0.030504
  13 H :    0.041081
  14 H :    0.029539
  15 H :    0.025358
  16 S :    0.126187
  17 C :   -0.102360
  18 C :   -0.052607
  19 C :   -0.022690
  20 C :   -0.192533
  21 H :    0.022677
  22 C :    0.077095
  23 H :   -0.006560
  24 H :    0.028734
  25 C :   -0.005749
  26 H :    0.016182
  27 H :    0.020534
  28 C :   -0.040498
  29 H :    0.036994
  30 H :    0.025591
  31 H :    0.013616
  32 H :    0.079180
  33 H :    0.067560
Sum of atomic charges:   -0.0000000

LOEWDIN ATOMIC CHARGES
----------------------
   0 S :    0.430808
   1 C :   -0.213452
   2 C :   -0.066091
   3 C :   -0.057125
   4 C :   -0.213827
   5 H :    0.030381
   6 C :   -0.040389
   7 H :    0.031172
   8 H :    0.027383
   9 C :   -0.045927
  10 H :    0.015906
  11 H :    0.026649
  12 C :   -0.066757
  13 H :    0.028824
  14 H :    0.031260
  15 H :    0.022875
  16 S :    0.429085
  17 C :   -0.200990
  18 C :   -0.075780
  19 C :   -0.039630
  20 C :   -0.216026
  21 H :    0.030557
  22 C :   -0.020689
  23 H :    0.015328
  24 H :    0.032903
  25 C :   -0.034930
  26 H :    0.018903
  27 H :    0.025506
  28 C :   -0.071888
  29 H :    0.032888
  30 H :    0.025279
  31 H :    0.024619
  32 H :    0.047287
  33 H :    0.035890

  Mayer bond orders larger than 0.100000
B(  0-S ,  1-C ) :   1.1533 B(  0-S ,  4-C ) :   1.1802 B(  1-C ,  2-C ) :   1.5549
B(  1-C ,  4-C ) :   0.1077 B(  1-C , 32-H ) :   0.9694 B(  2-C ,  3-C ) :   1.2677
B(  2-C ,  6-C ) :   1.0264 B(  3-C ,  4-C ) :   1.5348 B(  3-C ,  5-H ) :   0.9987
B(  4-C , 20-C ) :   1.0190 B(  6-C ,  7-H ) :   0.9475 B(  6-C ,  8-H ) :   0.9435
B(  6-C ,  9-C ) :   1.0563 B(  9-C , 10-H ) :   0.9538 B(  9-C , 11-H ) :   0.9539
B(  9-C , 12-C ) :   1.0812 B( 12-C , 13-H ) :   0.9734 B( 12-C , 14-H ) :   0.9688
B( 12-C , 15-H ) :   0.9737 B( 16-S , 17-C ) :   1.1715 B( 16-S , 20-C ) :   1.1596
B( 17-C , 18-C ) :   1.6050 B( 17-C , 20-C ) :   0.1028 B( 17-C , 33-H ) :   0.9633
B( 18-C , 19-C ) :   1.2361 B( 18-C , 21-H ) :   0.9899 B( 19-C , 20-C ) :   1.5863
B( 19-C , 22-C ) :   1.0284 B( 22-C , 23-H ) :   0.9353 B( 22-C , 24-H ) :   0.9384
B( 22-C , 25-C ) :   1.0617 B( 25-C , 26-H ) :   0.9554 B( 25-C , 27-H ) :   0.9498
B( 25-C , 28-C ) :   1.0801 B( 28-C , 29-H ) :   0.9716 B( 28-C , 30-H ) :   0.9731
B( 28-C , 31-H ) :   0.9706

Dispersion correction           -0.014059835
FINAL SINGLE POINT ENERGY     -1339.867442581203

DIPOLE MOMENT
-------------
                                X             Y             Z
Electronic contribution:     11.86144      19.82616      18.80099
Nuclear contribution   :    -12.17243     -20.03137     -19.30011
                        -----------------------------------------
Total Dipole Moment    :     -0.31098      -0.20520      -0.49912
                        -----------------------------------------
Magnitude (a.u.)       :      0.62285
Magnitude (Debye)      :      1.58315

Rotational constants in cm-1:     0.018300     0.008340     0.006788
Rotational constants in MHz :   548.626489   250.032843   203.492183

                             ****ORCA TERMINATED NORMALLY****
TOTAL RUN TIME: 0 days 0 hours 0 minutes 22 seconds 190 msec
