                         Program Version 4.2.1 -  RELEASE  -
|  1> ! wB97X-D3 SP def2-SVP
|  2> %pal
|  3> nprocs 24
|  4> end
|  5>
|  6> * xyz 0 1
|  7> S 	 41.2103 	 -18.4873 	 -114.224
|  8> C 	 40.0462 	 -19.578 	 -114.837
|  9> C 	 38.8655 	 -19.6093 	 -114.105
| 10> C 	 39.0495 	 -18.9862 	 -112.813
| 11> C 	 40.2668 	 -18.3048 	 -112.712
| 12> H 	 38.3231 	 -18.9316 	 -112.05
| 13> C 	 37.6482 	 -20.3909 	 -114.466
| 14> H 	 37.4399 	 -20.3446 	 -115.521
| 15> H 	 36.7804 	 -19.9201 	 -114.082
| 16> C 	 37.6677 	 -21.8601 	 -113.997
| 17> H 	 38.7406 	 -22.1103 	 -113.93
| 18> H 	 37.3264 	 -21.9141 	 -112.939
| 19> C 	 36.8926 	 -22.7542 	 -114.989
| 20> H 	 37.2956 	 -22.5923 	 -115.978
| 21> H 	 36.9919 	 -23.8424 	 -114.736
| 22> H 	 35.8156 	 -22.5462 	 -114.958
| 23> S 	 41.1567 	 -15.7236 	 -111.771
| 24> C 	 41.313 	 -15.5297 	 -110.065
| 25> C 	 41.0187 	 -16.6688 	 -109.383
| 26> C 	 40.5315 	 -17.7607 	 -110.177
| 27> C 	 40.6267 	 -17.4347 	 -111.558
| 28> H 	 41.114 	 -16.736 	 -108.29
| 29> C 	 40.0799 	 -19.0706 	 -109.538
| 30> H 	 40.7373 	 -19.2111 	 -108.664
| 31> H 	 40.3213 	 -19.8931 	 -110.183
| 32> C 	 38.6382 	 -19.1332 	 -108.996
| 33> H 	 37.9571 	 -18.4706 	 -109.535
| 34> H 	 38.61 	 -18.6919 	 -107.959
| 35> C 	 37.9455 	 -20.4904 	 -108.948
| 36> H 	 38.5431 	 -21.3264 	 -108.514
| 37> H 	 37.6566 	 -20.7481 	 -109.989
| 38> H 	 37.0281 	 -20.392 	 -108.381
| 39> H 	 40.0776 	 -20.0104 	 -115.849
| 40> H 	 41.6913 	 -14.673 	 -109.555
| 41> *
| 42>
| 43>                          ****END OF INPUT****

CARTESIAN COORDINATES (ANGSTROEM)
---------------------------------
  S     41.210300  -18.487300  -114.224000
  C     40.046200  -19.578000  -114.837000
  C     38.865500  -19.609300  -114.105000
  C     39.049500  -18.986200  -112.813000
  C     40.266800  -18.304800  -112.712000
  H     38.323100  -18.931600  -112.050000
  C     37.648200  -20.390900  -114.466000
  H     37.439900  -20.344600  -115.521000
  H     36.780400  -19.920100  -114.082000
  C     37.667700  -21.860100  -113.997000
  H     38.740600  -22.110300  -113.930000
  H     37.326400  -21.914100  -112.939000
  C     36.892600  -22.754200  -114.989000
  H     37.295600  -22.592300  -115.978000
  H     36.991900  -23.842400  -114.736000
  H     35.815600  -22.546200  -114.958000
  S     41.156700  -15.723600  -111.771000
  C     41.313000  -15.529700  -110.065000
  C     41.018700  -16.668800  -109.383000
  C     40.531500  -17.760700  -110.177000
  C     40.626700  -17.434700  -111.558000
  H     41.114000  -16.736000  -108.290000
  C     40.079900  -19.070600  -109.538000
  H     40.737300  -19.211100  -108.664000
  H     40.321300  -19.893100  -110.183000
  C     38.638200  -19.133200  -108.996000
  H     37.957100  -18.470600  -109.535000
  H     38.610000  -18.691900  -107.959000
  C     37.945500  -20.490400  -108.948000
  H     38.543100  -21.326400  -108.514000
  H     37.656600  -20.748100  -109.989000
  H     37.028100  -20.392000  -108.381000
  H     40.077600  -20.010400  -115.849000
  H     41.691300  -14.673000  -109.555000

 Total Charge           Charge          ....    0
 Multiplicity           Mult            ....    1
 Number of Electrons    NEL             ....  134
 Basis Dimension        Dim             ....  322

ORBITAL ENERGIES
----------------

  NO   OCC          E(Eh)            E(eV)
   0   2.0000     -88.970184     -2421.0018
   1   2.0000     -88.967768     -2420.9361
   2   2.0000     -10.335620      -281.2465
   3   2.0000     -10.335271      -281.2370
   4   2.0000     -10.313221      -280.6370
   5   2.0000     -10.311587      -280.5926
   6   2.0000     -10.307274      -280.4752
   7   2.0000     -10.300814      -280.2994
   8   2.0000     -10.295763      -280.1620
   9   2.0000     -10.293709      -280.1061
  10   2.0000     -10.291491      -280.0457
  11   2.0000     -10.291270      -280.0397
  12   2.0000     -10.289820      -280.0002
  13   2.0000     -10.285138      -279.8728
  14   2.0000     -10.284290      -279.8498
  15   2.0000     -10.283905      -279.8393
  16   2.0000      -8.084688      -219.9955
  17   2.0000      -8.081962      -219.9214
  18   2.0000      -6.043221      -164.4444
  19   2.0000      -6.040568      -164.3722
  20   2.0000      -6.039277      -164.3371
  21   2.0000      -6.036607      -164.2644
  22   2.0000      -6.035395      -164.2315
  23   2.0000      -6.032603      -164.1555
  24   2.0000      -0.999674       -27.2025
  25   2.0000      -0.982207       -26.7272
  26   2.0000      -0.912111       -24.8198
  27   2.0000      -0.906966       -24.6798
  28   2.0000      -0.865178       -23.5427
  29   2.0000      -0.851885       -23.1810
  30   2.0000      -0.848088       -23.0776
  31   2.0000      -0.811877       -22.0923
  32   2.0000      -0.783726       -21.3263
  33   2.0000      -0.769747       -20.9459
  34   2.0000      -0.704165       -19.1613
  35   2.0000      -0.699599       -19.0371
  36   2.0000      -0.692346       -18.8397
  37   2.0000      -0.657391       -17.8885
  38   2.0000      -0.639890       -17.4123
  39   2.0000      -0.619742       -16.8640
  40   2.0000      -0.597522       -16.2594
  41   2.0000      -0.572877       -15.5888
  42   2.0000      -0.560442       -15.2504
  43   2.0000      -0.554257       -15.0821
  44   2.0000      -0.526431       -14.3249
  45   2.0000      -0.519414       -14.1340
  46   2.0000      -0.516476       -14.0540
  47   2.0000      -0.509953       -13.8765
  48   2.0000      -0.506416       -13.7803
  49   2.0000      -0.493578       -13.4309
  50   2.0000      -0.492148       -13.3920
  51   2.0000      -0.482404       -13.1269
  52   2.0000      -0.472945       -12.8695
  53   2.0000      -0.464291       -12.6340
  54   2.0000      -0.462829       -12.5942
  55   2.0000      -0.447854       -12.1867
  56   2.0000      -0.440872       -11.9967
  57   2.0000      -0.439436       -11.9577
  58   2.0000      -0.436944       -11.8899
  59   2.0000      -0.433016       -11.7830
  60   2.0000      -0.427018       -11.6198
  61   2.0000      -0.415339       -11.3020
  62   2.0000      -0.408104       -11.1051
  63   2.0000      -0.350402        -9.5349
  64   2.0000      -0.331648        -9.0246
  65   2.0000      -0.328637        -8.9427
  66   2.0000      -0.287599        -7.8260
  67   0.0000       0.028163         0.7664
  68   0.0000       0.068408         1.8615
  69   0.0000       0.114738         3.1222
  70   0.0000       0.118848         3.2340
  71   0.0000       0.121222         3.2986

MULLIKEN ATOMIC CHARGES
-----------------------
   0 S :    0.124709
   1 C :   -0.113720
   2 C :   -0.111540
   3 C :    0.046586
   4 C :   -0.149990
   5 H :   -0.013058
   6 C :    0.081273
   7 H :    0.010840
   8 H :    0.010472
   9 C :   -0.078447
  10 H :    0.035684
  11 H :    0.034589
  12 C :   -0.064185
  13 H :    0.035605
  14 H :    0.042937
  15 H :    0.039478
  16 S :    0.109450
  17 C :   -0.075707
  18 C :   -0.035161
  19 C :   -0.054438
  20 C :   -0.159566
  21 H :    0.021176
  22 C :    0.085467
  23 H :    0.027119
  24 H :    0.028320
  25 C :   -0.095839
  26 H :    0.032772
  27 H :    0.028839
  28 C :   -0.057556
  29 H :    0.042826
  30 H :    0.031166
  31 H :    0.035323
  32 H :    0.056346
  33 H :    0.048233
Sum of atomic charges:   -0.0000000

LOEWDIN ATOMIC CHARGES
----------------------
   0 S :    0.409874
   1 C :   -0.212573
   2 C :   -0.061957
   3 C :   -0.047873
   4 C :   -0.183463
   5 H :    0.022698
   6 C :   -0.036098
   7 H :    0.026832
   8 H :    0.026192
   9 C :   -0.041297
  10 H :    0.025438
  11 H :    0.025366
  12 C :   -0.067086
  13 H :    0.023423
  14 H :    0.031858
  15 H :    0.027338
  16 S :    0.393992
  17 C :   -0.192425
  18 C :   -0.075158
  19 C :   -0.051099
  20 C :   -0.184300
  21 H :    0.033174
  22 C :   -0.033824
  23 H :    0.036914
  24 H :    0.028780
  25 C :   -0.049234
  26 H :    0.022267
  27 H :    0.027116
  28 C :   -0.067187
  29 H :    0.028421
  30 H :    0.024621
  31 H :    0.027866
  32 H :    0.033065
  33 H :    0.028339

  Mayer bond orders larger than 0.100000
B(  0-S ,  1-C ) :   1.1500 B(  0-S ,  4-C ) :   1.1409 B(  1-C ,  2-C ) :   1.6033
B(  1-C , 32-H ) :   0.9590 B(  2-C ,  3-C ) :   1.2353 B(  2-C ,  6-C ) :   1.0595
B(  3-C ,  4-C ) :   1.5594 B(  3-C ,  5-H ) :   0.9992 B(  4-C , 20-C ) :   1.0599
B(  6-C ,  7-H ) :   0.9417 B(  6-C ,  8-H ) :   0.9269 B(  6-C ,  9-C ) :   1.0353
B(  9-C , 10-H ) :   0.9654 B(  9-C , 11-H ) :   0.9536 B(  9-C , 12-C ) :   1.0731
B( 12-C , 13-H ) :   0.9770 B( 12-C , 14-H ) :   0.9748 B( 12-C , 15-H ) :   0.9760
B( 16-S , 17-C ) :   1.1435 B( 16-S , 20-C ) :   1.1333 B( 17-C , 18-C ) :   1.6256
B( 17-C , 33-H ) :   0.9657 B( 18-C , 19-C ) :   1.2509 B( 18-C , 21-H ) :   0.9820
B( 19-C , 20-C ) :   1.5807 B( 19-C , 22-C ) :   1.0492 B( 22-C , 23-H ) :   0.9315
B( 22-C , 24-H ) :   0.9403 B( 22-C , 25-C ) :   1.0379 B( 25-C , 26-H ) :   0.9598
B( 25-C , 27-H ) :   0.9535 B( 25-C , 28-C ) :   1.0888 B( 28-C , 29-H ) :   0.9745
B( 28-C , 30-H ) :   0.9756 B( 28-C , 31-H ) :   0.9708

Dispersion correction           -0.014505220
FINAL SINGLE POINT ENERGY     -1339.889629947458

DIPOLE MOMENT
-------------
                                X             Y             Z
Electronic contribution:     21.04658      24.32534      -7.16023
Nuclear contribution   :    -21.55325     -24.72202       7.46697
                        -----------------------------------------
Total Dipole Moment    :     -0.50667      -0.39669       0.30674
                        -----------------------------------------
Magnitude (a.u.)       :      0.71286
Magnitude (Debye)      :      1.81194

Rotational constants in cm-1:     0.018497     0.008849     0.006336
Rotational constants in MHz :   554.539621   265.292037   189.946118

                             ****ORCA TERMINATED NORMALLY****
TOTAL RUN TIME: 0 days 0 hours 0 minutes 21 seconds 781 msec
