                         Program Version 4.2.1 -  RELEASE  -
|  1> ! wB97X-D3 SP def2-SVP
|  2> %pal
|  3> nprocs 24
|  4> end
|  5>
|  6> * xyz 0 1
|  7> S 	 -135.737 	 70.5012 	 -63.3532
|  8> C 	 -136.945 	 70.6967 	 -64.6008
|  9> C 	 -138.174 	 70.1085 	 -64.1801
| 10> C 	 -137.964 	 69.349 	 -62.9894
| 11> C 	 -136.714 	 69.4277 	 -62.4035
| 12> H 	 -138.716 	 68.7365 	 -62.4451
| 13> C 	 -139.517 	 70.2778 	 -64.7856
| 14> H 	 -140.272 	 69.8 	 -64.1473
| 15> H 	 -139.547 	 69.7062 	 -65.7509
| 16> C 	 -140.107 	 71.7218 	 -64.9965
| 17> H 	 -139.475 	 72.2676 	 -65.6907
| 18> H 	 -141.122 	 71.5957 	 -65.4017
| 19> C 	 -140.097 	 72.5341 	 -63.6725
| 20> H 	 -140.58 	 73.5195 	 -63.7957
| 21> H 	 -140.655 	 72.0646 	 -62.8747
| 22> H 	 -139.058 	 72.6826 	 -63.2946
| 23> S 	 -134.775 	 67.6268 	 -61.5177
| 24> C 	 -134.669 	 67.1841 	 -59.7869
| 25> C 	 -135.576 	 67.9042 	 -59.0542
| 26> C 	 -136.443 	 68.8033 	 -59.8417
| 27> C 	 -136.112 	 68.8182 	 -61.2185
| 28> H 	 -135.828 	 67.7185 	 -58.0182
| 29> C 	 -137.525 	 69.6278 	 -59.2446
| 30> H 	 -138.341 	 69.8132 	 -59.9222
| 31> H 	 -137.091 	 70.5758 	 -59.1052
| 32> C 	 -138.416 	 69.0205 	 -58.1048
| 33> H 	 -139.322 	 69.7057 	 -57.9605
| 34> H 	 -137.816 	 69.044 	 -57.1747
| 35> C 	 -138.987 	 67.5667 	 -58.3361
| 36> H 	 -138.258 	 66.7857 	 -58.2437
| 37> H 	 -139.314 	 67.4235 	 -59.3533
| 38> H 	 -139.922 	 67.4411 	 -57.6939
| 39> H 	 -136.893 	 71.4564 	 -65.3491
| 40> H 	 -134.177 	 66.3474 	 -59.3746
| 41> *
| 42>
| 43>                          ****END OF INPUT****

CARTESIAN COORDINATES (ANGSTROEM)
---------------------------------
  S    -135.737000   70.501200  -63.353200
  C    -136.945000   70.696700  -64.600800
  C    -138.174000   70.108500  -64.180100
  C    -137.964000   69.349000  -62.989400
  C    -136.714000   69.427700  -62.403500
  H    -138.716000   68.736500  -62.445100
  C    -139.517000   70.277800  -64.785600
  H    -140.272000   69.800000  -64.147300
  H    -139.547000   69.706200  -65.750900
  C    -140.107000   71.721800  -64.996500
  H    -139.475000   72.267600  -65.690700
  H    -141.122000   71.595700  -65.401700
  C    -140.097000   72.534100  -63.672500
  H    -140.580000   73.519500  -63.795700
  H    -140.655000   72.064600  -62.874700
  H    -139.058000   72.682600  -63.294600
  S    -134.775000   67.626800  -61.517700
  C    -134.669000   67.184100  -59.786900
  C    -135.576000   67.904200  -59.054200
  C    -136.443000   68.803300  -59.841700
  C    -136.112000   68.818200  -61.218500
  H    -135.828000   67.718500  -58.018200
  C    -137.525000   69.627800  -59.244600
  H    -138.341000   69.813200  -59.922200
  H    -137.091000   70.575800  -59.105200
  C    -138.416000   69.020500  -58.104800
  H    -139.322000   69.705700  -57.960500
  H    -137.816000   69.044000  -57.174700
  C    -138.987000   67.566700  -58.336100
  H    -138.258000   66.785700  -58.243700
  H    -139.314000   67.423500  -59.353300
  H    -139.922000   67.441100  -57.693900
  H    -136.893000   71.456400  -65.349100
  H    -134.177000   66.347400  -59.374600

 Total Charge           Charge          ....    0
 Multiplicity           Mult            ....    1
 Number of Electrons    NEL             ....  134
 Basis Dimension        Dim             ....  322

ORBITAL ENERGIES
----------------

  NO   OCC          E(Eh)            E(eV)
   0   2.0000     -88.965354     -2420.8704
   1   2.0000     -88.964598     -2420.8498
   2   2.0000     -10.335810      -281.2517
   3   2.0000     -10.330514      -281.1076
   4   2.0000     -10.321883      -280.8727
   5   2.0000     -10.316887      -280.7368
   6   2.0000     -10.313318      -280.6397
   7   2.0000     -10.307323      -280.4765
   8   2.0000     -10.303786      -280.3803
   9   2.0000     -10.299656      -280.2679
  10   2.0000     -10.298010      -280.2231
  11   2.0000     -10.296616      -280.1852
  12   2.0000     -10.294869      -280.1376
  13   2.0000     -10.287395      -279.9342
  14   2.0000     -10.286670      -279.9145
  15   2.0000     -10.280270      -279.7404
  16   2.0000      -8.080329      -219.8769
  17   2.0000      -8.077765      -219.8072
  18   2.0000      -6.038726      -164.3221
  19   2.0000      -6.036536      -164.2625
  20   2.0000      -6.034597      -164.2097
  21   2.0000      -6.032475      -164.1520
  22   2.0000      -6.031381      -164.1222
  23   2.0000      -6.028312      -164.0387
  24   2.0000      -1.001809       -27.2606
  25   2.0000      -0.975391       -26.5417
  26   2.0000      -0.909432       -24.7469
  27   2.0000      -0.904590       -24.6151
  28   2.0000      -0.866412       -23.5763
  29   2.0000      -0.846478       -23.0338
  30   2.0000      -0.839314       -22.8389
  31   2.0000      -0.814898       -22.1745
  32   2.0000      -0.784436       -21.3456
  33   2.0000      -0.773230       -21.0407
  34   2.0000      -0.706943       -19.2369
  35   2.0000      -0.705301       -19.1922
  36   2.0000      -0.696257       -18.9461
  37   2.0000      -0.655017       -17.8239
  38   2.0000      -0.642086       -17.4721
  39   2.0000      -0.608675       -16.5629
  40   2.0000      -0.597858       -16.2685
  41   2.0000      -0.577234       -15.7073
  42   2.0000      -0.559549       -15.2261
  43   2.0000      -0.548217       -14.9177
  44   2.0000      -0.543614       -14.7925
  45   2.0000      -0.538983       -14.6665
  46   2.0000      -0.512118       -13.9354
  47   2.0000      -0.507940       -13.8218
  48   2.0000      -0.504008       -13.7147
  49   2.0000      -0.492988       -13.4149
  50   2.0000      -0.492253       -13.3949
  51   2.0000      -0.475307       -12.9337
  52   2.0000      -0.469158       -12.7664
  53   2.0000      -0.466659       -12.6984
  54   2.0000      -0.456246       -12.4151
  55   2.0000      -0.447169       -12.1681
  56   2.0000      -0.443221       -12.0607
  57   2.0000      -0.440299       -11.9811
  58   2.0000      -0.434425       -11.8213
  59   2.0000      -0.427248       -11.6260
  60   2.0000      -0.419698       -11.4206
  61   2.0000      -0.415020       -11.2933
  62   2.0000      -0.404156       -10.9976
  63   2.0000      -0.343202        -9.3390
  64   2.0000      -0.326895        -8.8953
  65   2.0000      -0.325899        -8.8682
  66   2.0000      -0.298365        -8.1189
  67   0.0000       0.031332         0.8526
  68   0.0000       0.051563         1.4031
  69   0.0000       0.110862         3.0167
  70   0.0000       0.113668         3.0931
  71   0.0000       0.126489         3.4419

MULLIKEN ATOMIC CHARGES
-----------------------
   0 S :    0.111827
   1 C :   -0.097183
   2 C :   -0.113905
   3 C :    0.038207
   4 C :   -0.183908
   5 H :    0.019938
   6 C :    0.031055
   7 H :    0.020546
   8 H :    0.053327
   9 C :   -0.064314
  10 H :    0.030008
  11 H :    0.040349
  12 C :   -0.076446
  13 H :    0.038264
  14 H :    0.022288
  15 H :    0.050703
  16 S :    0.092165
  17 C :   -0.063846
  18 C :   -0.024465
  19 C :   -0.052060
  20 C :   -0.148086
  21 H :    0.023252
  22 C :    0.086628
  23 H :    0.016422
  24 H :    0.039979
  25 C :   -0.134614
  26 H :    0.048278
  27 H :    0.039500
  28 C :   -0.050206
  29 H :    0.033320
  30 H :    0.021156
  31 H :    0.052745
  32 H :    0.047443
  33 H :    0.051634
Sum of atomic charges:    0.0000000

LOEWDIN ATOMIC CHARGES
----------------------
   0 S :    0.425425
   1 C :   -0.199964
   2 C :   -0.064149
   3 C :   -0.067447
   4 C :   -0.207320
   5 H :    0.035377
   6 C :   -0.042190
   7 H :    0.030396
   8 H :    0.041740
   9 C :   -0.034628
  10 H :    0.019421
  11 H :    0.028655
  12 C :   -0.072251
  13 H :    0.028142
  14 H :    0.019299
  15 H :    0.032615
  16 S :    0.366761
  17 C :   -0.162806
  18 C :   -0.071413
  19 C :   -0.044550
  20 C :   -0.189808
  21 H :    0.029833
  22 C :   -0.041267
  23 H :    0.032069
  24 H :    0.035204
  25 C :   -0.043365
  26 H :    0.035294
  27 H :    0.018824
  28 C :   -0.070267
  29 H :    0.021979
  30 H :    0.022457
  31 H :    0.039566
  32 H :    0.021380
  33 H :    0.026986

  Mayer bond orders larger than 0.100000
B(  0-S ,  1-C ) :   1.1617 B(  0-S ,  4-C ) :   1.1753 B(  1-C ,  2-C ) :   1.5505
B(  1-C ,  4-C ) :   0.1099 B(  1-C , 32-H ) :   0.9723 B(  2-C ,  3-C ) :   1.2685
B(  2-C ,  6-C ) :   1.0296 B(  3-C ,  4-C ) :   1.5709 B(  3-C ,  5-H ) :   0.9867
B(  4-C , 20-C ) :   1.0123 B(  6-C ,  7-H ) :   0.9459 B(  6-C ,  8-H ) :   0.9337
B(  6-C ,  9-C ) :   1.0670 B(  9-C , 10-H ) :   0.9579 B(  9-C , 11-H ) :   0.9570
B(  9-C , 12-C ) :   1.0719 B( 12-C , 13-H ) :   0.9751 B( 12-C , 14-H ) :   0.9774
B( 12-C , 15-H ) :   0.9725 B( 16-S , 17-C ) :   1.1379 B( 16-S , 20-C ) :   1.1182
B( 17-C , 18-C ) :   1.6311 B( 17-C , 33-H ) :   0.9698 B( 18-C , 19-C ) :   1.2196
B( 18-C , 21-H ) :   0.9798 B( 19-C , 20-C ) :   1.6127 B( 19-C , 22-C ) :   1.0500
B( 22-C , 23-H ) :   0.9353 B( 22-C , 24-H ) :   0.9321 B( 22-C , 25-C ) :   1.0463
B( 25-C , 26-H ) :   0.9645 B( 25-C , 27-H ) :   0.9563 B( 25-C , 28-C ) :   1.0648
B( 28-C , 29-H ) :   0.9720 B( 28-C , 30-H ) :   0.9742 B( 28-C , 31-H ) :   0.9765

Dispersion correction           -0.014841609
FINAL SINGLE POINT ENERGY     -1339.870008942142

DIPOLE MOMENT
-------------
                                X             Y             Z
Electronic contribution:     25.79287      -6.72141      -6.78177
Nuclear contribution   :    -26.60271       6.81898       7.09528
                        -----------------------------------------
Total Dipole Moment    :     -0.80984       0.09757       0.31351
                        -----------------------------------------
Magnitude (a.u.)       :      0.87387
Magnitude (Debye)      :      2.22120

Rotational constants in cm-1:     0.019760     0.008553     0.006604
Rotational constants in MHz :   592.389466   256.405132   197.981720

                             ****ORCA TERMINATED NORMALLY****
TOTAL RUN TIME: 0 days 0 hours 0 minutes 21 seconds 564 msec
