                         Program Version 4.2.1 -  RELEASE  -
|  1> ! wB97X-D3 SP def2-SVP
|  2> %pal
|  3> nprocs 24
|  4> end
|  5>
|  6> * xyz 0 1
|  7> S 	 -81.8194 	 -39.8015 	 -74.472
|  8> C 	 -82.5476 	 -40.5802 	 -75.8575
|  9> C 	 -83.4805 	 -39.7255 	 -76.3819
| 10> C 	 -83.4086 	 -38.4256 	 -75.8735
| 11> C 	 -82.4455 	 -38.2626 	 -74.9328
| 12> H 	 -84.0045 	 -37.5694 	 -76.1975
| 13> C 	 -84.5523 	 -40.1402 	 -77.379
| 14> H 	 -85.4214 	 -39.6133 	 -77.0842
| 15> H 	 -84.7522 	 -41.2078 	 -77.4613
| 16> C 	 -84.2751 	 -39.5487 	 -78.7429
| 17> H 	 -85.0594 	 -39.75 	 -79.4979
| 18> H 	 -84.1501 	 -38.439 	 -78.7165
| 19> C 	 -83.0061 	 -40.2083 	 -79.1955
| 20> H 	 -82.1849 	 -39.7933 	 -78.743
| 21> H 	 -83.0339 	 -41.3528 	 -78.9839
| 22> H 	 -82.7716 	 -39.8864 	 -80.2007
| 23> S 	 -81.8324 	 -36.9432 	 -72.6008
| 24> C 	 -81.4881 	 -35.2391 	 -72.6692
| 25> C 	 -81.5924 	 -34.7206 	 -73.912
| 26> C 	 -81.9822 	 -35.7176 	 -74.8619
| 27> C 	 -82.1717 	 -36.978 	 -74.2876
| 28> H 	 -81.4168 	 -33.6644 	 -74.0515
| 29> C 	 -81.9991 	 -35.4082 	 -76.3744
| 30> H 	 -81.9238 	 -34.3255 	 -76.3972
| 31> H 	 -82.9674 	 -35.658 	 -76.8391
| 32> C 	 -80.9388 	 -36.1405 	 -77.1754
| 33> H 	 -80.6646 	 -37.0785 	 -76.7372
| 34> H 	 -80.0402 	 -35.5795 	 -77.0364
| 35> C 	 -81.2036 	 -36.1544 	 -78.6699
| 36> H 	 -81.2998 	 -35.1528 	 -79.0808
| 37> H 	 -82.0622 	 -36.699 	 -79.0309
| 38> H 	 -80.2949 	 -36.6603 	 -79.1076
| 39> H 	 -82.5768 	 -41.5938 	 -76.0838
| 40> H 	 -81.2088 	 -34.6738 	 -71.8542
| 41> *
| 42>
| 43>                          ****END OF INPUT****

CARTESIAN COORDINATES (ANGSTROEM)
---------------------------------
  S    -81.819400  -39.801500  -74.472000
  C    -82.547600  -40.580200  -75.857500
  C    -83.480500  -39.725500  -76.381900
  C    -83.408600  -38.425600  -75.873500
  C    -82.445500  -38.262600  -74.932800
  H    -84.004500  -37.569400  -76.197500
  C    -84.552300  -40.140200  -77.379000
  H    -85.421400  -39.613300  -77.084200
  H    -84.752200  -41.207800  -77.461300
  C    -84.275100  -39.548700  -78.742900
  H    -85.059400  -39.750000  -79.497900
  H    -84.150100  -38.439000  -78.716500
  C    -83.006100  -40.208300  -79.195500
  H    -82.184900  -39.793300  -78.743000
  H    -83.033900  -41.352800  -78.983900
  H    -82.771600  -39.886400  -80.200700
  S    -81.832400  -36.943200  -72.600800
  C    -81.488100  -35.239100  -72.669200
  C    -81.592400  -34.720600  -73.912000
  C    -81.982200  -35.717600  -74.861900
  C    -82.171700  -36.978000  -74.287600
  H    -81.416800  -33.664400  -74.051500
  C    -81.999100  -35.408200  -76.374400
  H    -81.923800  -34.325500  -76.397200
  H    -82.967400  -35.658000  -76.839100
  C    -80.938800  -36.140500  -77.175400
  H    -80.664600  -37.078500  -76.737200
  H    -80.040200  -35.579500  -77.036400
  C    -81.203600  -36.154400  -78.669900
  H    -81.299800  -35.152800  -79.080800
  H    -82.062200  -36.699000  -79.030900
  H    -80.294900  -36.660300  -79.107600
  H    -82.576800  -41.593800  -76.083800
  H    -81.208800  -34.673800  -71.854200

 Total Charge           Charge          ....    0
 Multiplicity           Mult            ....    1
 Number of Electrons    NEL             ....  134
 Basis Dimension        Dim             ....  322

ORBITAL ENERGIES
----------------

  NO   OCC          E(Eh)            E(eV)
   0   2.0000     -88.966385     -2420.8984
   1   2.0000     -88.966327     -2420.8968
   2   2.0000     -10.326497      -280.9983
   3   2.0000     -10.325947      -280.9833
   4   2.0000     -10.308526      -280.5092
   5   2.0000     -10.306386      -280.4510
   6   2.0000     -10.304617      -280.4029
   7   2.0000     -10.296227      -280.1746
   8   2.0000     -10.292198      -280.0649
   9   2.0000     -10.290833      -280.0278
  10   2.0000     -10.286809      -279.9183
  11   2.0000     -10.286137      -279.9000
  12   2.0000     -10.284947      -279.8676
  13   2.0000     -10.278936      -279.7041
  14   2.0000     -10.276419      -279.6356
  15   2.0000     -10.268216      -279.4124
  16   2.0000      -8.081948      -219.9210
  17   2.0000      -8.081482      -219.9083
  18   2.0000      -6.040366      -164.3667
  19   2.0000      -6.040102      -164.3595
  20   2.0000      -6.036366      -164.2579
  21   2.0000      -6.036043      -164.2491
  22   2.0000      -6.032743      -164.1593
  23   2.0000      -6.031993      -164.1389
  24   2.0000      -1.016371       -27.6569
  25   2.0000      -0.993833       -27.0436
  26   2.0000      -0.923576       -25.1318
  27   2.0000      -0.910697       -24.7813
  28   2.0000      -0.875187       -23.8151
  29   2.0000      -0.853781       -23.2326
  30   2.0000      -0.845823       -23.0160
  31   2.0000      -0.819982       -22.3128
  32   2.0000      -0.783970       -21.3329
  33   2.0000      -0.774892       -21.0859
  34   2.0000      -0.714242       -19.4355
  35   2.0000      -0.697240       -18.9729
  36   2.0000      -0.693010       -18.8578
  37   2.0000      -0.664817       -18.0906
  38   2.0000      -0.640875       -17.4391
  39   2.0000      -0.628571       -17.1043
  40   2.0000      -0.598661       -16.2904
  41   2.0000      -0.574508       -15.6332
  42   2.0000      -0.564610       -15.3638
  43   2.0000      -0.560901       -15.2629
  44   2.0000      -0.544543       -14.8178
  45   2.0000      -0.525048       -14.2873
  46   2.0000      -0.521579       -14.1929
  47   2.0000      -0.513425       -13.9710
  48   2.0000      -0.504051       -13.7159
  49   2.0000      -0.499197       -13.5838
  50   2.0000      -0.495975       -13.4962
  51   2.0000      -0.485093       -13.2000
  52   2.0000      -0.472663       -12.8618
  53   2.0000      -0.470531       -12.8038
  54   2.0000      -0.458183       -12.4678
  55   2.0000      -0.452374       -12.3097
  56   2.0000      -0.444073       -12.0838
  57   2.0000      -0.437677       -11.9098
  58   2.0000      -0.435780       -11.8582
  59   2.0000      -0.422894       -11.5075
  60   2.0000      -0.416640       -11.3373
  61   2.0000      -0.413588       -11.2543
  62   2.0000      -0.408877       -11.1261
  63   2.0000      -0.356427        -9.6989
  64   2.0000      -0.335364        -9.1257
  65   2.0000      -0.328130        -8.9289
  66   2.0000      -0.289542        -7.8788
  67   0.0000       0.026117         0.7107
  68   0.0000       0.077722         2.1149
  69   0.0000       0.105537         2.8718
  70   0.0000       0.123818         3.3693
  71   0.0000       0.130118         3.5407

MULLIKEN ATOMIC CHARGES
-----------------------
   0 S :    0.107086
   1 C :   -0.084171
   2 C :   -0.093081
   3 C :   -0.006343
   4 C :   -0.119811
   5 H :    0.016233
   6 C :    0.107943
   7 H :    0.012636
   8 H :    0.029529
   9 C :   -0.111469
  10 H :    0.036193
  11 H :    0.031968
  12 C :   -0.022714
  13 H :    0.016707
  14 H :    0.038345
  15 H :    0.013602
  16 S :    0.109025
  17 C :   -0.059512
  18 C :   -0.029077
  19 C :   -0.063810
  20 C :   -0.153468
  21 H :    0.019675
  22 C :    0.075035
  23 H :    0.013248
  24 H :    0.017688
  25 C :   -0.035592
  26 H :    0.038906
  27 H :    0.011964
  28 C :   -0.058256
  29 H :    0.030021
  30 H :    0.029039
  31 H :    0.040025
  32 H :    0.020018
  33 H :    0.022416
Sum of atomic charges:    0.0000000

LOEWDIN ATOMIC CHARGES
----------------------
   0 S :    0.411780
   1 C :   -0.192302
   2 C :   -0.054367
   3 C :   -0.067749
   4 C :   -0.196055
   5 H :    0.033935
   6 C :   -0.025051
   7 H :    0.026810
   8 H :    0.029210
   9 C :   -0.045047
  10 H :    0.024205
  11 H :    0.024538
  12 C :   -0.067379
  13 H :    0.013205
  14 H :    0.034475
  15 H :    0.022378
  16 S :    0.419665
  17 C :   -0.172150
  18 C :   -0.070866
  19 C :   -0.055292
  20 C :   -0.204174
  21 H :    0.035309
  22 C :   -0.030459
  23 H :    0.026964
  24 H :    0.023941
  25 C :   -0.040930
  26 H :    0.026113
  27 H :    0.024906
  28 C :   -0.065228
  29 H :    0.025038
  30 H :    0.017919
  31 H :    0.036656
  32 H :    0.016644
  33 H :    0.013361

  Mayer bond orders larger than 0.100000
B(  0-S ,  1-C ) :   1.1251 B(  0-S ,  4-C ) :   1.1516 B(  1-C ,  2-C ) :   1.5985
B(  1-C , 32-H ) :   0.9770 B(  2-C ,  3-C ) :   1.2503 B(  2-C ,  6-C ) :   1.0216
B(  3-C ,  4-C ) :   1.5481 B(  3-C ,  5-H ) :   0.9997 B(  4-C , 20-C ) :   1.0600
B(  6-C ,  7-H ) :   0.9308 B(  6-C ,  8-H ) :   0.9485 B(  6-C ,  9-C ) :   1.0741
B(  9-C , 10-H ) :   0.9562 B(  9-C , 11-H ) :   0.9506 B(  9-C , 12-C ) :   1.0789
B( 12-C , 13-H ) :   0.9652 B( 12-C , 14-H ) :   0.9718 B( 12-C , 15-H ) :   0.9638
B( 16-S , 17-C ) :   1.1566 B( 16-S , 20-C ) :   1.1436 B( 17-C , 18-C ) :   1.6220
B( 17-C , 33-H ) :   0.9725 B( 18-C , 19-C ) :   1.2517 B( 18-C , 21-H ) :   0.9912
B( 19-C , 20-C ) :   1.5846 B( 19-C , 22-C ) :   1.0359 B( 22-C , 23-H ) :   0.9286
B( 22-C , 24-H ) :   0.9418 B( 22-C , 25-C ) :   1.0517 B( 25-C , 26-H ) :   0.9612
B( 25-C , 27-H ) :   0.9431 B( 25-C , 28-C ) :   1.0831 B( 28-C , 29-H ) :   0.9714
B( 28-C , 30-H ) :   0.9759 B( 28-C , 31-H ) :   0.9719

Dispersion correction           -0.016247199
FINAL SINGLE POINT ENERGY     -1339.868423654040

DIPOLE MOMENT
-------------
                                X             Y             Z
Electronic contribution:      3.42835      -2.05620      30.27079
Nuclear contribution   :     -3.59523       2.40688     -30.74237
                        -----------------------------------------
Total Dipole Moment    :     -0.16689       0.35068      -0.47158
                        -----------------------------------------
Magnitude (a.u.)       :      0.61092
Magnitude (Debye)      :      1.55282

Rotational constants in cm-1:     0.020775     0.010197     0.007663
Rotational constants in MHz :   622.816337   305.702406   229.725946

                             ****ORCA TERMINATED NORMALLY****
TOTAL RUN TIME: 0 days 0 hours 0 minutes 23 seconds 831 msec
