                         Program Version 4.2.1 -  RELEASE  -
|  1> ! wB97X-D3 SP def2-SVP
|  2> %pal
|  3> nprocs 24
|  4> end
|  5>
|  6> * xyz 0 1
|  7> S 	 -0.291434 	 -19.0082 	 -103.181
|  8> C 	 0.798759 	 -20.341 	 -102.929
|  9> C 	 2.0761 	 -19.9005 	 -102.671
| 10> C 	 2.12652 	 -18.4474 	 -102.539
| 11> C 	 0.910923 	 -17.8683 	 -102.79
| 12> H 	 2.99555 	 -17.8968 	 -102.246
| 13> C 	 3.25568 	 -20.7788 	 -102.293
| 14> H 	 3.13851 	 -21.164 	 -101.298
| 15> H 	 4.07799 	 -20.1552 	 -102.072
| 16> C 	 3.79073 	 -21.7296 	 -103.364
| 17> H 	 3.10718 	 -22.4755 	 -103.697
| 18> H 	 4.04511 	 -21.1827 	 -104.262
| 19> C 	 5.00783 	 -22.4211 	 -102.817
| 20> H 	 5.50414 	 -23.0628 	 -103.608
| 21> H 	 5.68197 	 -21.63 	 -102.695
| 22> H 	 4.82752 	 -22.922 	 -101.818
| 23> S 	 0.268222 	 -15.9507 	 -104.691
| 24> C 	 0.453401 	 -14.247 	 -104.334
| 25> C 	 0.899747 	 -14.0607 	 -103.056
| 26> C 	 0.991781 	 -15.2831 	 -102.321
| 27> C 	 0.764275 	 -16.444 	 -103.07
| 28> H 	 1.21018 	 -13.0834 	 -102.731
| 29> C 	 1.364 	 -15.1811 	 -100.89
| 30> H 	 0.725725 	 -15.8066 	 -100.268
| 31> H 	 1.10707 	 -14.2002 	 -100.61
| 32> C 	 2.82663 	 -15.3405 	 -100.548
| 33> H 	 3.43058 	 -14.6408 	 -101.169
| 34> H 	 3.22061 	 -16.3259 	 -100.817
| 35> C 	 3.19028 	 -15.4582 	 -99.0155
| 36> H 	 4.26463 	 -15.7413 	 -98.9938
| 37> H 	 2.65123 	 -16.3232 	 -98.5166
| 38> H 	 3.08788 	 -14.5265 	 -98.5518
| 39> H 	 0.459627 	 -21.3945 	 -102.902
| 40> H 	 0.134525 	 -13.4229 	 -104.957
| 41> *
| 42>
| 43>                          ****END OF INPUT****

CARTESIAN COORDINATES (ANGSTROEM)
---------------------------------
  S     -0.291434  -19.008200  -103.181000
  C      0.798759  -20.341000  -102.929000
  C      2.076100  -19.900500  -102.671000
  C      2.126520  -18.447400  -102.539000
  C      0.910923  -17.868300  -102.790000
  H      2.995550  -17.896800  -102.246000
  C      3.255680  -20.778800  -102.293000
  H      3.138510  -21.164000  -101.298000
  H      4.077990  -20.155200  -102.072000
  C      3.790730  -21.729600  -103.364000
  H      3.107180  -22.475500  -103.697000
  H      4.045110  -21.182700  -104.262000
  C      5.007830  -22.421100  -102.817000
  H      5.504140  -23.062800  -103.608000
  H      5.681970  -21.630000  -102.695000
  H      4.827520  -22.922000  -101.818000
  S      0.268222  -15.950700  -104.691000
  C      0.453401  -14.247000  -104.334000
  C      0.899747  -14.060700  -103.056000
  C      0.991781  -15.283100  -102.321000
  C      0.764275  -16.444000  -103.070000
  H      1.210180  -13.083400  -102.731000
  C      1.364000  -15.181100  -100.890000
  H      0.725725  -15.806600  -100.268000
  H      1.107070  -14.200200  -100.610000
  C      2.826630  -15.340500  -100.548000
  H      3.430580  -14.640800  -101.169000
  H      3.220610  -16.325900  -100.817000
  C      3.190280  -15.458200  -99.015500
  H      4.264630  -15.741300  -98.993800
  H      2.651230  -16.323200  -98.516600
  H      3.087880  -14.526500  -98.551800
  H      0.459627  -21.394500  -102.902000
  H      0.134525  -13.422900  -104.957000

 Total Charge           Charge          ....    0
 Multiplicity           Mult            ....    1
 Number of Electrons    NEL             ....  134
 Basis Dimension        Dim             ....  322

ORBITAL ENERGIES
----------------

  NO   OCC          E(Eh)            E(eV)
   0   2.0000     -88.966851     -2420.9111
   1   2.0000     -88.961540     -2420.7666
   2   2.0000     -10.327232      -281.0183
   3   2.0000     -10.325481      -280.9706
   4   2.0000     -10.316512      -280.7266
   5   2.0000     -10.313141      -280.6348
   6   2.0000     -10.303043      -280.3601
   7   2.0000     -10.298153      -280.2270
   8   2.0000     -10.294410      -280.1251
   9   2.0000     -10.288726      -279.9705
  10   2.0000     -10.288059      -279.9523
  11   2.0000     -10.286824      -279.9187
  12   2.0000     -10.284176      -279.8467
  13   2.0000     -10.280905      -279.7576
  14   2.0000     -10.279905      -279.7304
  15   2.0000     -10.279264      -279.7130
  16   2.0000      -8.082774      -219.9435
  17   2.0000      -8.076104      -219.7620
  18   2.0000      -6.041264      -164.3912
  19   2.0000      -6.037028      -164.2759
  20   2.0000      -6.034693      -164.2124
  21   2.0000      -6.033556      -164.1814
  22   2.0000      -6.030533      -164.0991
  23   2.0000      -6.026881      -163.9998
  24   2.0000      -1.010437       -27.4954
  25   2.0000      -0.985155       -26.8074
  26   2.0000      -0.920017       -25.0349
  27   2.0000      -0.908943       -24.7336
  28   2.0000      -0.872878       -23.7522
  29   2.0000      -0.853139       -23.2151
  30   2.0000      -0.846463       -23.0334
  31   2.0000      -0.815546       -22.1921
  32   2.0000      -0.781788       -21.2735
  33   2.0000      -0.771708       -20.9992
  34   2.0000      -0.708142       -19.2695
  35   2.0000      -0.702287       -19.1102
  36   2.0000      -0.690102       -18.7786
  37   2.0000      -0.664094       -18.0709
  38   2.0000      -0.645297       -17.5594
  39   2.0000      -0.618770       -16.8376
  40   2.0000      -0.595803       -16.2126
  41   2.0000      -0.575250       -15.6533
  42   2.0000      -0.568060       -15.4577
  43   2.0000      -0.562897       -15.3172
  44   2.0000      -0.532050       -14.4778
  45   2.0000      -0.525049       -14.2873
  46   2.0000      -0.515626       -14.0309
  47   2.0000      -0.509227       -13.8568
  48   2.0000      -0.508681       -13.8419
  49   2.0000      -0.502513       -13.6741
  50   2.0000      -0.493531       -13.4297
  51   2.0000      -0.487007       -13.2521
  52   2.0000      -0.470294       -12.7974
  53   2.0000      -0.466771       -12.7015
  54   2.0000      -0.458958       -12.4889
  55   2.0000      -0.448407       -12.2018
  56   2.0000      -0.443527       -12.0690
  57   2.0000      -0.436934       -11.8896
  58   2.0000      -0.433211       -11.7883
  59   2.0000      -0.424462       -11.5502
  60   2.0000      -0.422230       -11.4895
  61   2.0000      -0.416879       -11.3439
  62   2.0000      -0.401053       -10.9132
  63   2.0000      -0.345639        -9.4053
  64   2.0000      -0.330979        -9.0064
  65   2.0000      -0.326357        -8.8806
  66   2.0000      -0.295958        -8.0534
  67   0.0000       0.035497         0.9659
  68   0.0000       0.068576         1.8661
  69   0.0000       0.118066         3.2128
  70   0.0000       0.121031         3.2934
  71   0.0000       0.132768         3.6128

MULLIKEN ATOMIC CHARGES
-----------------------
   0 S :    0.118173
   1 C :   -0.131324
   2 C :   -0.078846
   3 C :    0.042599
   4 C :   -0.141348
   5 H :    0.008247
   6 C :    0.071928
   7 H :    0.028487
   8 H :   -0.017023
   9 C :   -0.046346
  10 H :    0.021113
  11 H :    0.028027
  12 C :   -0.056192
  13 H :    0.043062
  14 H :    0.008975
  15 H :    0.046279
  16 S :    0.097091
  17 C :   -0.091353
  18 C :   -0.034724
  19 C :   -0.066549
  20 C :   -0.139243
  21 H :    0.017455
  22 C :    0.140269
  23 H :    0.017818
  24 H :   -0.007769
  25 C :   -0.108462
  26 H :    0.028002
  27 H :    0.014295
  28 C :   -0.049254
  29 H :    0.034144
  30 H :    0.050525
  31 H :    0.029368
  32 H :    0.064112
  33 H :    0.058468
Sum of atomic charges:   -0.0000000

LOEWDIN ATOMIC CHARGES
----------------------
   0 S :    0.431619
   1 C :   -0.198696
   2 C :   -0.060851
   3 C :   -0.049804
   4 C :   -0.215515
   5 H :    0.025388
   6 C :   -0.034547
   7 H :    0.032463
   8 H :    0.023537
   9 C :   -0.035981
  10 H :    0.015001
  11 H :    0.028084
  12 C :   -0.067570
  13 H :    0.034056
  14 H :    0.014314
  15 H :    0.033053
  16 S :    0.396935
  17 C :   -0.185777
  18 C :   -0.072897
  19 C :   -0.059733
  20 C :   -0.190368
  21 H :    0.030635
  22 C :   -0.034096
  23 H :    0.031792
  24 H :    0.023376
  25 C :   -0.045065
  26 H :    0.026223
  27 H :    0.018603
  28 C :   -0.061566
  29 H :    0.030875
  30 H :    0.036592
  31 H :    0.011623
  32 H :    0.036301
  33 H :    0.031995

  Mayer bond orders larger than 0.100000
B(  0-S ,  1-C ) :   1.1399 B(  0-S ,  4-C ) :   1.1640 B(  1-C ,  2-C ) :   1.6066
B(  1-C , 32-H ) :   0.9692 B(  2-C ,  3-C ) :   1.2517 B(  2-C ,  6-C ) :   1.0170
B(  3-C ,  4-C ) :   1.5605 B(  3-C ,  5-H ) :   0.9903 B(  4-C , 20-C ) :   1.0243
B(  6-C ,  7-H ) :   0.9388 B(  6-C ,  8-H ) :   0.9326 B(  6-C ,  9-C ) :   1.0550
B(  9-C , 10-H ) :   0.9584 B(  9-C , 11-H ) :   0.9521 B(  9-C , 12-C ) :   1.0843
B( 12-C , 13-H ) :   0.9705 B( 12-C , 14-H ) :   0.9742 B( 12-C , 15-H ) :   0.9725
B( 16-S , 17-C ) :   1.1571 B( 16-S , 20-C ) :   1.1308 B( 17-C , 18-C ) :   1.6123
B( 17-C , 33-H ) :   0.9641 B( 18-C , 19-C ) :   1.2505 B( 18-C , 21-H ) :   0.9898
B( 19-C , 20-C ) :   1.5957 B( 19-C , 22-C ) :   1.0578 B( 22-C , 23-H ) :   0.9247
B( 22-C , 24-H ) :   0.9196 B( 22-C , 25-C ) :   1.0678 B( 25-C , 26-H ) :   0.9527
B( 25-C , 27-H ) :   0.9559 B( 25-C , 28-C ) :   1.0663 B( 28-C , 29-H ) :   0.9770
B( 28-C , 30-H ) :   0.9737 B( 28-C , 31-H ) :   0.9791

Dispersion correction           -0.013734644
FINAL SINGLE POINT ENERGY     -1339.868456812995

DIPOLE MOMENT
-------------
                                X             Y             Z
Electronic contribution:    -23.24587       7.56579     -15.97342
Nuclear contribution   :     23.79680      -7.60570      16.36548
                        -----------------------------------------
Total Dipole Moment    :      0.55093      -0.03991       0.39205
                        -----------------------------------------
Magnitude (a.u.)       :      0.67736
Magnitude (Debye)      :      1.72172

Rotational constants in cm-1:     0.017922     0.008232     0.006462
Rotational constants in MHz :   537.287043   246.782994   193.729370

                             ****ORCA TERMINATED NORMALLY****
TOTAL RUN TIME: 0 days 0 hours 0 minutes 21 seconds 256 msec
