                         Program Version 4.2.1 -  RELEASE  -
|  1> ! wB97X-D3 SP def2-SVP
|  2> %pal
|  3> nprocs 24
|  4> end
|  5>
|  6> * xyz 0 1
|  7> S 	 -119.881 	 49.5187 	 -34.5759
|  8> C 	 -118.624 	 48.2348 	 -34.2237
|  9> C 	 -119.108 	 47.2203 	 -33.3483
| 10> C 	 -120.346 	 47.6243 	 -32.8435
| 11> C 	 -120.966 	 48.7519 	 -33.4168
| 12> H 	 -121.001 	 47.048 	 -32.1904
| 13> C 	 -118.325 	 45.9523 	 -32.835
| 14> H 	 -117.533 	 45.7775 	 -33.5922
| 15> H 	 -119.023 	 45.1529 	 -32.9263
| 16> C 	 -117.695 	 45.9547 	 -31.4435
| 17> H 	 -118.513 	 45.9641 	 -30.7257
| 18> H 	 -117.123 	 45.0086 	 -31.2493
| 19> C 	 -116.812 	 47.1836 	 -31.138
| 20> H 	 -117.315 	 48.1793 	 -31.4108
| 21> H 	 -116.508 	 47.1898 	 -30.1142
| 22> H 	 -115.868 	 47.2099 	 -31.6672
| 23> S 	 -123.369 	 49.5769 	 -34.5079
| 24> C 	 -124.728 	 49.7442 	 -33.3931
| 25> C 	 -124.372 	 49.7983 	 -32.0657
| 26> C 	 -122.972 	 49.5364 	 -31.8888
| 27> C 	 -122.274 	 49.303 	 -33.0999
| 28> H 	 -125.175 	 49.9428 	 -31.2763
| 29> C 	 -122.259 	 49.4191 	 -30.5541
| 30> H 	 -122.695 	 50.0459 	 -29.7578
| 31> H 	 -121.213 	 49.6749 	 -30.6117
| 32> C 	 -122.139 	 48.0316 	 -29.935
| 33> H 	 -121.954 	 48.2331 	 -28.894
| 34> H 	 -121.156 	 47.611 	 -30.229
| 35> C 	 -123.358 	 47.1429 	 -30.2361
| 36> H 	 -123.571 	 46.7603 	 -31.2875
| 37> H 	 -124.22 	 47.6458 	 -29.7907
| 38> H 	 -123.227 	 46.2262 	 -29.6702
| 39> H 	 -117.674 	 48.0674 	 -34.7115
| 40> H 	 -125.771 	 50.0308 	 -33.5023
| 41> *
| 42>
| 43>                          ****END OF INPUT****

CARTESIAN COORDINATES (ANGSTROEM)
---------------------------------
  S    -119.881000   49.518700  -34.575900
  C    -118.624000   48.234800  -34.223700
  C    -119.108000   47.220300  -33.348300
  C    -120.346000   47.624300  -32.843500
  C    -120.966000   48.751900  -33.416800
  H    -121.001000   47.048000  -32.190400
  C    -118.325000   45.952300  -32.835000
  H    -117.533000   45.777500  -33.592200
  H    -119.023000   45.152900  -32.926300
  C    -117.695000   45.954700  -31.443500
  H    -118.513000   45.964100  -30.725700
  H    -117.123000   45.008600  -31.249300
  C    -116.812000   47.183600  -31.138000
  H    -117.315000   48.179300  -31.410800
  H    -116.508000   47.189800  -30.114200
  H    -115.868000   47.209900  -31.667200
  S    -123.369000   49.576900  -34.507900
  C    -124.728000   49.744200  -33.393100
  C    -124.372000   49.798300  -32.065700
  C    -122.972000   49.536400  -31.888800
  C    -122.274000   49.303000  -33.099900
  H    -125.175000   49.942800  -31.276300
  C    -122.259000   49.419100  -30.554100
  H    -122.695000   50.045900  -29.757800
  H    -121.213000   49.674900  -30.611700
  C    -122.139000   48.031600  -29.935000
  H    -121.954000   48.233100  -28.894000
  H    -121.156000   47.611000  -30.229000
  C    -123.358000   47.142900  -30.236100
  H    -123.571000   46.760300  -31.287500
  H    -124.220000   47.645800  -29.790700
  H    -123.227000   46.226200  -29.670200
  H    -117.674000   48.067400  -34.711500
  H    -125.771000   50.030800  -33.502300

 Total Charge           Charge          ....    0
 Multiplicity           Mult            ....    1
 Number of Electrons    NEL             ....  134
 Basis Dimension        Dim             ....  322

ORBITAL ENERGIES
----------------

  NO   OCC          E(Eh)            E(eV)
   0   2.0000     -88.974198     -2421.1110
   1   2.0000     -88.969477     -2420.9825
   2   2.0000     -10.334888      -281.2266
   3   2.0000     -10.333283      -281.1829
   4   2.0000     -10.325387      -280.9681
   5   2.0000     -10.318329      -280.7760
   6   2.0000     -10.311178      -280.5814
   7   2.0000     -10.310303      -280.5576
   8   2.0000     -10.301190      -280.3096
   9   2.0000     -10.300877      -280.3011
  10   2.0000     -10.295819      -280.1635
  11   2.0000     -10.294528      -280.1283
  12   2.0000     -10.285412      -279.8803
  13   2.0000     -10.284887      -279.8660
  14   2.0000     -10.281985      -279.7870
  15   2.0000     -10.278713      -279.6980
  16   2.0000      -8.086977      -220.0578
  17   2.0000      -8.082920      -219.9474
  18   2.0000      -6.045627      -164.5099
  19   2.0000      -6.041747      -164.4043
  20   2.0000      -6.041642      -164.4014
  21   2.0000      -6.037710      -164.2944
  22   2.0000      -6.037702      -164.2942
  23   2.0000      -6.033424      -164.1778
  24   2.0000      -0.997671       -27.1480
  25   2.0000      -0.974279       -26.5115
  26   2.0000      -0.910519       -24.7765
  27   2.0000      -0.908163       -24.7124
  28   2.0000      -0.866249       -23.5718
  29   2.0000      -0.844083       -22.9687
  30   2.0000      -0.841095       -22.8874
  31   2.0000      -0.810314       -22.0498
  32   2.0000      -0.788329       -21.4515
  33   2.0000      -0.776700       -21.1351
  34   2.0000      -0.712581       -19.3903
  35   2.0000      -0.698414       -19.0048
  36   2.0000      -0.685595       -18.6560
  37   2.0000      -0.654111       -17.7993
  38   2.0000      -0.639340       -17.3973
  39   2.0000      -0.613390       -16.6912
  40   2.0000      -0.583210       -15.8700
  41   2.0000      -0.564201       -15.3527
  42   2.0000      -0.560923       -15.2635
  43   2.0000      -0.551010       -14.9937
  44   2.0000      -0.543439       -14.7877
  45   2.0000      -0.538921       -14.6648
  46   2.0000      -0.514804       -14.0085
  47   2.0000      -0.505102       -13.7445
  48   2.0000      -0.501001       -13.6329
  49   2.0000      -0.488031       -13.2800
  50   2.0000      -0.481798       -13.1104
  51   2.0000      -0.475691       -12.9442
  52   2.0000      -0.469883       -12.7862
  53   2.0000      -0.460488       -12.5305
  54   2.0000      -0.458678       -12.4813
  55   2.0000      -0.449674       -12.2362
  56   2.0000      -0.443290       -12.0625
  57   2.0000      -0.441399       -12.0111
  58   2.0000      -0.430570       -11.7164
  59   2.0000      -0.424092       -11.5401
  60   2.0000      -0.421241       -11.4625
  61   2.0000      -0.417633       -11.3644
  62   2.0000      -0.402975       -10.9655
  63   2.0000      -0.344586        -9.3767
  64   2.0000      -0.339139        -9.2284
  65   2.0000      -0.330203        -8.9853
  66   2.0000      -0.286806        -7.8044
  67   0.0000       0.019821         0.5394
  68   0.0000       0.059350         1.6150
  69   0.0000       0.097475         2.6524
  70   0.0000       0.118048         3.2123
  71   0.0000       0.121647         3.3102

MULLIKEN ATOMIC CHARGES
-----------------------
   0 S :    0.114397
   1 C :   -0.115212
   2 C :   -0.111959
   3 C :    0.015934
   4 C :   -0.145107
   5 H :    0.015920
   6 C :    0.084800
   7 H :    0.023142
   8 H :    0.029518
   9 C :   -0.064126
  10 H :    0.026616
  11 H :    0.043663
  12 C :   -0.072915
  13 H :    0.057675
  14 H :    0.028584
  15 H :    0.022696
  16 S :    0.103562
  17 C :   -0.067252
  18 C :   -0.083986
  19 C :   -0.027226
  20 C :   -0.157291
  21 H :    0.049064
  22 C :    0.065229
  23 H :    0.025927
  24 H :    0.027083
  25 C :   -0.097300
  26 H :    0.019824
  27 H :    0.020236
  28 C :   -0.045324
  29 H :    0.063425
  30 H :    0.027030
  31 H :    0.025868
  32 H :    0.045706
  33 H :    0.051798
Sum of atomic charges:    0.0000000

LOEWDIN ATOMIC CHARGES
----------------------
   0 S :    0.381887
   1 C :   -0.178527
   2 C :   -0.058376
   3 C :   -0.067305
   4 C :   -0.193435
   5 H :    0.030739
   6 C :   -0.024351
   7 H :    0.031136
   8 H :    0.029130
   9 C :   -0.042666
  10 H :    0.021759
  11 H :    0.034675
  12 C :   -0.074153
  13 H :    0.038599
  14 H :    0.022288
  15 H :    0.020932
  16 S :    0.380204
  17 C :   -0.186416
  18 C :   -0.079635
  19 C :   -0.046288
  20 C :   -0.184570
  21 H :    0.045681
  22 C :   -0.039878
  23 H :    0.031084
  24 H :    0.034321
  25 C :   -0.044662
  26 H :    0.024782
  27 H :    0.017451
  28 C :   -0.075680
  29 H :    0.039450
  30 H :    0.026233
  31 H :    0.024072
  32 H :    0.025734
  33 H :    0.035786

  Mayer bond orders larger than 0.100000
B(  0-S ,  1-C ) :   1.1377 B(  0-S ,  4-C ) :   1.1363 B(  1-C ,  2-C ) :   1.5922
B(  1-C ,  4-C ) :   0.1164 B(  1-C , 32-H ) :   0.9609 B(  2-C ,  3-C ) :   1.2557
B(  2-C ,  6-C ) :   1.0139 B(  3-C ,  4-C ) :   1.5700 B(  3-C ,  5-H ) :   0.9801
B(  4-C , 20-C ) :   1.0552 B(  6-C ,  7-H ) :   0.9406 B(  6-C ,  8-H ) :   0.9397
B(  6-C ,  9-C ) :   1.0723 B(  9-C , 10-H ) :   0.9543 B(  9-C , 11-H ) :   0.9517
B(  9-C , 12-C ) :   1.0780 B( 12-C , 13-H ) :   0.9709 B( 12-C , 14-H ) :   0.9740
B( 12-C , 15-H ) :   0.9753 B( 16-S , 17-C ) :   1.1419 B( 16-S , 20-C ) :   1.1070
B( 17-C , 18-C ) :   1.6542 B( 17-C , 33-H ) :   0.9545 B( 18-C , 19-C ) :   1.2205
B( 18-C , 21-H ) :   0.9751 B( 19-C , 20-C ) :   1.5902 B( 19-C , 22-C ) :   1.0652
B( 22-C , 23-H ) :   0.9404 B( 22-C , 24-H ) :   0.9327 B( 22-C , 25-C ) :   1.0619
B( 25-C , 26-H ) :   0.9500 B( 25-C , 27-H ) :   0.9543 B( 25-C , 28-C ) :   1.0827
B( 28-C , 29-H ) :   0.9652 B( 28-C , 30-H ) :   0.9718 B( 28-C , 31-H ) :   0.9715

Dispersion correction           -0.016027897
FINAL SINGLE POINT ENERGY     -1339.857018907073

DIPOLE MOMENT
-------------
                                X             Y             Z
Electronic contribution:    -10.00285      15.00196     -23.13860
Nuclear contribution   :     10.07553     -15.45607      23.84247
                        -----------------------------------------
Total Dipole Moment    :      0.07268      -0.45411       0.70388
                        -----------------------------------------
Magnitude (a.u.)       :      0.84080
Magnitude (Debye)      :      2.13714

Rotational constants in cm-1:     0.020194     0.009594     0.007225
Rotational constants in MHz :   605.413403   287.626697   216.600170

                             ****ORCA TERMINATED NORMALLY****
TOTAL RUN TIME: 0 days 0 hours 0 minutes 22 seconds 973 msec
