                         Program Version 4.2.1 -  RELEASE  -
|  1> ! wB97X-D3 SP def2-SVP
|  2> %pal
|  3> nprocs 24
|  4> end
|  5>
|  6> * xyz 0 1
|  7> S 	 -100.156 	 2.01072 	 -123.687
|  8> C 	 -101.201 	 2.32931 	 -122.272
|  9> C 	 -101.278 	 1.21753 	 -121.443
| 10> C 	 -100.509 	 0.103613 	 -121.935
| 11> C 	 -99.7082 	 0.417781 	 -122.985
| 12> H 	 -100.49 	 -0.882215 	 -121.516
| 13> C 	 -102.124 	 1.1813 	 -120.195
| 14> H 	 -102.44 	 0.239688 	 -119.909
| 15> H 	 -103.038 	 1.72094 	 -120.414
| 16> C 	 -101.364 	 1.79623 	 -118.955
| 17> H 	 -101.773 	 1.36916 	 -117.982
| 18> H 	 -100.307 	 1.41049 	 -118.983
| 19> C 	 -101.538 	 3.34148 	 -118.927
| 20> H 	 -100.941 	 3.79106 	 -119.726
| 21> H 	 -102.61 	 3.54941 	 -119.005
| 22> H 	 -101.305 	 3.76791 	 -117.992
| 23> S 	 -99.2805 	 -1.06669 	 -125.266
| 24> C 	 -98.1024 	 -2.33747 	 -125.306
| 25> C 	 -97.2883 	 -2.27208 	 -124.213
| 26> C 	 -97.7962 	 -1.35386 	 -123.189
| 27> C 	 -98.802 	 -0.519053 	 -123.652
| 28> H 	 -96.4352 	 -2.97671 	 -124.153
| 29> C 	 -97.2352 	 -1.35341 	 -121.798
| 30> H 	 -96.4537 	 -2.19747 	 -121.749
| 31> H 	 -98.0635 	 -1.61851 	 -121.179
| 32> C 	 -96.6548 	 0.0282818 	 -121.355
| 33> H 	 -96.1374 	 -0.416968 	 -120.444
| 34> H 	 -97.5772 	 0.701493 	 -121.174
| 35> C 	 -95.54 	 0.668304 	 -122.23
| 36> H 	 -94.6968 	 -0.0405202 	 -122.074
| 37> H 	 -95.2485 	 1.55024 	 -121.731
| 38> H 	 -95.6012 	 0.637352 	 -123.365
| 39> H 	 -101.819 	 3.23275 	 -122.253
| 40> H 	 -97.9495 	 -3.0043 	 -126.105
| 41> *
| 42>
| 43>                          ****END OF INPUT****

CARTESIAN COORDINATES (ANGSTROEM)
---------------------------------
  S    -100.156000    2.010720  -123.687000
  C    -101.201000    2.329310  -122.272000
  C    -101.278000    1.217530  -121.443000
  C    -100.509000    0.103613  -121.935000
  C    -99.708200    0.417781  -122.985000
  H    -100.490000   -0.882215  -121.516000
  C    -102.124000    1.181300  -120.195000
  H    -102.440000    0.239688  -119.909000
  H    -103.038000    1.720940  -120.414000
  C    -101.364000    1.796230  -118.955000
  H    -101.773000    1.369160  -117.982000
  H    -100.307000    1.410490  -118.983000
  C    -101.538000    3.341480  -118.927000
  H    -100.941000    3.791060  -119.726000
  H    -102.610000    3.549410  -119.005000
  H    -101.305000    3.767910  -117.992000
  S    -99.280500   -1.066690  -125.266000
  C    -98.102400   -2.337470  -125.306000
  C    -97.288300   -2.272080  -124.213000
  C    -97.796200   -1.353860  -123.189000
  C    -98.802000   -0.519053  -123.652000
  H    -96.435200   -2.976710  -124.153000
  C    -97.235200   -1.353410  -121.798000
  H    -96.453700   -2.197470  -121.749000
  H    -98.063500   -1.618510  -121.179000
  C    -96.654800    0.028282  -121.355000
  H    -96.137400   -0.416968  -120.444000
  H    -97.577200    0.701493  -121.174000
  C    -95.540000    0.668304  -122.230000
  H    -94.696800   -0.040520  -122.074000
  H    -95.248500    1.550240  -121.731000
  H    -95.601200    0.637352  -123.365000
  H    -101.819000    3.232750  -122.253000
  H    -97.949500   -3.004300  -126.105000

 Total Charge           Charge          ....    0
 Multiplicity           Mult            ....    1
 Number of Electrons    NEL             ....  134
 Basis Dimension        Dim             ....  322

ORBITAL ENERGIES
----------------

  NO   OCC          E(Eh)            E(eV)
   0   2.0000     -88.965201     -2420.8662
   1   2.0000     -88.959324     -2420.7063
   2   2.0000     -10.332692      -281.1668
   3   2.0000     -10.324622      -280.9472
   4   2.0000     -10.319957      -280.8203
   5   2.0000     -10.312930      -280.6291
   6   2.0000     -10.305697      -280.4323
   7   2.0000     -10.305122      -280.4166
   8   2.0000     -10.298028      -280.2236
   9   2.0000     -10.297995      -280.2227
  10   2.0000     -10.296223      -280.1745
  11   2.0000     -10.294669      -280.1322
  12   2.0000     -10.294208      -280.1196
  13   2.0000     -10.287282      -279.9312
  14   2.0000     -10.279642      -279.7233
  15   2.0000     -10.276337      -279.6333
  16   2.0000      -8.078844      -219.8365
  17   2.0000      -8.074351      -219.7143
  18   2.0000      -6.037435      -164.2870
  19   2.0000      -6.033684      -164.1849
  20   2.0000      -6.032965      -164.1653
  21   2.0000      -6.029398      -164.0683
  22   2.0000      -6.028688      -164.0489
  23   2.0000      -6.025109      -163.9515
  24   2.0000      -1.002604       -27.2822
  25   2.0000      -0.979967       -26.6663
  26   2.0000      -0.907148       -24.6848
  27   2.0000      -0.903888       -24.5961
  28   2.0000      -0.866625       -23.5821
  29   2.0000      -0.845284       -23.0013
  30   2.0000      -0.839425       -22.8419
  31   2.0000      -0.816075       -22.2065
  32   2.0000      -0.782859       -21.3027
  33   2.0000      -0.773445       -21.0465
  34   2.0000      -0.707638       -19.2558
  35   2.0000      -0.695083       -18.9142
  36   2.0000      -0.679810       -18.4986
  37   2.0000      -0.660113       -17.9626
  38   2.0000      -0.645347       -17.5608
  39   2.0000      -0.618302       -16.8248
  40   2.0000      -0.583924       -15.8894
  41   2.0000      -0.573257       -15.5991
  42   2.0000      -0.559221       -15.2172
  43   2.0000      -0.545667       -14.8483
  44   2.0000      -0.539521       -14.6811
  45   2.0000      -0.539182       -14.6719
  46   2.0000      -0.513327       -13.9683
  47   2.0000      -0.509030       -13.8514
  48   2.0000      -0.502818       -13.6824
  49   2.0000      -0.491911       -13.3856
  50   2.0000      -0.488286       -13.2869
  51   2.0000      -0.484142       -13.1742
  52   2.0000      -0.476602       -12.9690
  53   2.0000      -0.460755       -12.5378
  54   2.0000      -0.457690       -12.4544
  55   2.0000      -0.442675       -12.0458
  56   2.0000      -0.439597       -11.9620
  57   2.0000      -0.436993       -11.8912
  58   2.0000      -0.426267       -11.5993
  59   2.0000      -0.423548       -11.5253
  60   2.0000      -0.416221       -11.3260
  61   2.0000      -0.411676       -11.2023
  62   2.0000      -0.402134       -10.9426
  63   2.0000      -0.344929        -9.3860
  64   2.0000      -0.328864        -8.9489
  65   2.0000      -0.321593        -8.7510
  66   2.0000      -0.298034        -8.1099
  67   0.0000       0.031415         0.8548
  68   0.0000       0.062474         1.7000
  69   0.0000       0.108227         2.9450
  70   0.0000       0.122765         3.3406
  71   0.0000       0.126859         3.4520

MULLIKEN ATOMIC CHARGES
-----------------------
   0 S :    0.092732
   1 C :   -0.134058
   2 C :   -0.087893
   3 C :    0.041345
   4 C :   -0.158464
   5 H :    0.014572
   6 C :    0.109985
   7 H :   -0.002995
   8 H :    0.021485
   9 C :   -0.117991
  10 H :    0.033074
  11 H :    0.042736
  12 C :   -0.026727
  13 H :    0.048105
  14 H :    0.022396
  15 H :    0.022656
  16 S :    0.091876
  17 C :   -0.071805
  18 C :   -0.043205
  19 C :   -0.080489
  20 C :   -0.126311
  21 H :    0.030798
  22 C :    0.056255
  23 H :    0.025121
  24 H :    0.027857
  25 C :   -0.138118
  26 H :    0.045835
  27 H :    0.072178
  28 C :   -0.028336
  29 H :    0.011376
  30 H :    0.037352
  31 H :    0.062908
  32 H :    0.063686
  33 H :    0.042064
Sum of atomic charges:   -0.0000000

LOEWDIN ATOMIC CHARGES
----------------------
   0 S :    0.365528
   1 C :   -0.185692
   2 C :   -0.057600
   3 C :   -0.056092
   4 C :   -0.177364
   5 H :    0.031684
   6 C :   -0.025255
   7 H :    0.018328
   8 H :    0.029701
   9 C :   -0.039709
  10 H :    0.025335
  11 H :    0.027915
  12 C :   -0.064711
  13 H :    0.028770
  14 H :    0.026274
  15 H :    0.018763
  16 S :    0.398252
  17 C :   -0.176686
  18 C :   -0.081852
  19 C :   -0.052700
  20 C :   -0.203005
  21 H :    0.036326
  22 C :   -0.040903
  23 H :    0.033295
  24 H :    0.029497
  25 C :   -0.049961
  26 H :    0.037038
  27 H :    0.035680
  28 C :   -0.074867
  29 H :    0.027463
  30 H :    0.024402
  31 H :    0.038732
  32 H :    0.030985
  33 H :    0.022431

  Mayer bond orders larger than 0.100000
B(  0-S ,  1-C ) :   1.1214 B(  0-S ,  4-C ) :   1.1296 B(  1-C ,  2-C ) :   1.6283
B(  1-C , 32-H ) :   0.9642 B(  2-C ,  3-C ) :   1.2135 B(  2-C ,  6-C ) :   1.0318
B(  3-C ,  4-C ) :   1.6052 B(  3-C ,  5-H ) :   0.9960 B(  4-C , 20-C ) :   1.0252
B(  6-C ,  7-H ) :   0.9380 B(  6-C ,  8-H ) :   0.9448 B(  6-C ,  9-C ) :   1.0484
B(  9-C , 10-H ) :   0.9602 B(  9-C , 11-H ) :   0.9588 B(  9-C , 12-C ) :   1.0703
B( 12-C , 13-H ) :   0.9736 B( 12-C , 14-H ) :   0.9745 B( 12-C , 15-H ) :   0.9748
B( 16-S , 17-C ) :   1.1638 B( 16-S , 20-C ) :   1.1220 B( 17-C , 18-C ) :   1.6298
B( 17-C , 33-H ) :   0.9700 B( 18-C , 19-C ) :   1.2135 B( 18-C , 21-H ) :   0.9835
B( 19-C , 20-C ) :   1.6167 B( 19-C , 22-C ) :   1.0395 B( 22-C , 23-H ) :   0.9386
B( 22-C , 24-H ) :   0.9253 B( 22-C , 25-C ) :   1.0605 B( 25-C , 26-H ) :   0.9621
B( 25-C , 27-H ) :   0.9484 B( 25-C , 28-C ) :   1.0629 B( 28-C , 29-H ) :   0.9713
B( 28-C , 30-H ) :   0.9730 B( 28-C , 31-H ) :   0.9724

Dispersion correction           -0.015322278
FINAL SINGLE POINT ENERGY     -1339.858730245932

DIPOLE MOMENT
-------------
                                X             Y             Z
Electronic contribution:     -4.89084      -5.10981     -24.67752
Nuclear contribution   :      4.90092       4.74705      25.32339
                        -----------------------------------------
Total Dipole Moment    :      0.01008      -0.36276       0.64586
                        -----------------------------------------
Magnitude (a.u.)       :      0.74084
Magnitude (Debye)      :      1.88305

Rotational constants in cm-1:     0.021455     0.008583     0.007299
Rotational constants in MHz :   643.199815   257.298462   218.827853

                             ****ORCA TERMINATED NORMALLY****
TOTAL RUN TIME: 0 days 0 hours 0 minutes 22 seconds 281 msec
