                         Program Version 4.2.1 -  RELEASE  -
|  1> ! wB97X-D3 SP def2-SVP
|  2> %pal
|  3> nprocs 24
|  4> end
|  5>
|  6> * xyz 0 1
|  7> S 	 -39.1336 	 -47.9362 	 -75.088
|  8> C 	 -40.5262 	 -47.3334 	 -75.9631
|  9> C 	 -41.7087 	 -47.4218 	 -75.2103
| 10> C 	 -41.5615 	 -48.1684 	 -74.0067
| 11> C 	 -40.2251 	 -48.5072 	 -73.797
| 12> H 	 -42.2967 	 -48.4362 	 -73.2559
| 13> C 	 -43.067 	 -46.8671 	 -75.5813
| 14> H 	 -42.8309 	 -46.2989 	 -76.5227
| 15> H 	 -43.4358 	 -46.1722 	 -74.8681
| 16> C 	 -44.0568 	 -47.9961 	 -75.7922
| 17> H 	 -44.2553 	 -48.5483 	 -74.8907
| 18> H 	 -45.0673 	 -47.6198 	 -76.0814
| 19> C 	 -43.6244 	 -48.9792 	 -76.8737
| 20> H 	 -44.3435 	 -49.7145 	 -77.1336
| 21> H 	 -43.3976 	 -48.4025 	 -77.7959
| 22> H 	 -42.7258 	 -49.5304 	 -76.6585
| 23> S 	 -38.5632 	 -48.0976 	 -71.5918
| 24> C 	 -38.4015 	 -49.3429 	 -70.3961
| 25> C 	 -38.9654 	 -50.5304 	 -70.8132
| 26> C 	 -39.7792 	 -50.3693 	 -72.0108
| 27> C 	 -39.6141 	 -49.1095 	 -72.57
| 28> H 	 -38.771 	 -51.4718 	 -70.2806
| 29> C 	 -40.4213 	 -51.4518 	 -72.7826
| 30> H 	 -39.7573 	 -52.323 	 -72.8965
| 31> H 	 -40.6093 	 -51.1269 	 -73.7954
| 32> C 	 -41.7597 	 -51.899 	 -72.2787
| 33> H 	 -42.2613 	 -52.6212 	 -72.8903
| 34> H 	 -42.3881 	 -50.9863 	 -72.1751
| 35> C 	 -41.7196 	 -52.6497 	 -70.9346
| 36> H 	 -41.5626 	 -52.0721 	 -69.9997
| 37> H 	 -40.9616 	 -53.5117 	 -71.0006
| 38> H 	 -42.7291 	 -53.0766 	 -70.6358
| 39> H 	 -40.424 	 -46.7443 	 -76.9047
| 40> H 	 -37.6754 	 -49.3636 	 -69.5852
| 41> *
| 42>
| 43>                          ****END OF INPUT****

CARTESIAN COORDINATES (ANGSTROEM)
---------------------------------
  S    -39.133600  -47.936200  -75.088000
  C    -40.526200  -47.333400  -75.963100
  C    -41.708700  -47.421800  -75.210300
  C    -41.561500  -48.168400  -74.006700
  C    -40.225100  -48.507200  -73.797000
  H    -42.296700  -48.436200  -73.255900
  C    -43.067000  -46.867100  -75.581300
  H    -42.830900  -46.298900  -76.522700
  H    -43.435800  -46.172200  -74.868100
  C    -44.056800  -47.996100  -75.792200
  H    -44.255300  -48.548300  -74.890700
  H    -45.067300  -47.619800  -76.081400
  C    -43.624400  -48.979200  -76.873700
  H    -44.343500  -49.714500  -77.133600
  H    -43.397600  -48.402500  -77.795900
  H    -42.725800  -49.530400  -76.658500
  S    -38.563200  -48.097600  -71.591800
  C    -38.401500  -49.342900  -70.396100
  C    -38.965400  -50.530400  -70.813200
  C    -39.779200  -50.369300  -72.010800
  C    -39.614100  -49.109500  -72.570000
  H    -38.771000  -51.471800  -70.280600
  C    -40.421300  -51.451800  -72.782600
  H    -39.757300  -52.323000  -72.896500
  H    -40.609300  -51.126900  -73.795400
  C    -41.759700  -51.899000  -72.278700
  H    -42.261300  -52.621200  -72.890300
  H    -42.388100  -50.986300  -72.175100
  C    -41.719600  -52.649700  -70.934600
  H    -41.562600  -52.072100  -69.999700
  H    -40.961600  -53.511700  -71.000600
  H    -42.729100  -53.076600  -70.635800
  H    -40.424000  -46.744300  -76.904700
  H    -37.675400  -49.363600  -69.585200

 Total Charge           Charge          ....    0
 Multiplicity           Mult            ....    1
 Number of Electrons    NEL             ....  134
 Basis Dimension        Dim             ....  322

ORBITAL ENERGIES
----------------

  NO   OCC          E(Eh)            E(eV)
   0   2.0000     -88.970516     -2421.0108
   1   2.0000     -88.964837     -2420.8563
   2   2.0000     -10.336240      -281.2634
   3   2.0000     -10.327707      -281.0312
   4   2.0000     -10.320855      -280.8447
   5   2.0000     -10.315304      -280.6937
   6   2.0000     -10.304839      -280.4089
   7   2.0000     -10.302268      -280.3390
   8   2.0000     -10.299194      -280.2553
   9   2.0000     -10.297642      -280.2131
  10   2.0000     -10.293248      -280.0935
  11   2.0000     -10.287480      -279.9366
  12   2.0000     -10.286223      -279.9023
  13   2.0000     -10.284266      -279.8491
  14   2.0000     -10.283693      -279.8335
  15   2.0000     -10.269756      -279.4543
  16   2.0000      -8.084560      -219.9921
  17   2.0000      -8.079791      -219.8623
  18   2.0000      -6.043029      -164.4392
  19   2.0000      -6.039240      -164.3361
  20   2.0000      -6.038324      -164.3112
  21   2.0000      -6.035332      -164.2297
  22   2.0000      -6.034253      -164.2004
  23   2.0000      -6.030524      -164.0989
  24   2.0000      -1.003242       -27.2996
  25   2.0000      -0.982492       -26.7350
  26   2.0000      -0.915681       -24.9169
  27   2.0000      -0.914743       -24.8914
  28   2.0000      -0.863128       -23.4869
  29   2.0000      -0.848747       -23.0956
  30   2.0000      -0.843620       -22.9561
  31   2.0000      -0.814460       -22.1626
  32   2.0000      -0.783184       -21.3115
  33   2.0000      -0.770824       -20.9752
  34   2.0000      -0.707440       -19.2504
  35   2.0000      -0.694588       -18.9007
  36   2.0000      -0.685607       -18.6563
  37   2.0000      -0.657006       -17.8780
  38   2.0000      -0.641988       -17.4694
  39   2.0000      -0.620007       -16.8712
  40   2.0000      -0.596005       -16.2181
  41   2.0000      -0.568548       -15.4710
  42   2.0000      -0.560076       -15.2404
  43   2.0000      -0.553385       -15.0584
  44   2.0000      -0.544696       -14.8219
  45   2.0000      -0.540019       -14.6947
  46   2.0000      -0.515654       -14.0317
  47   2.0000      -0.504364       -13.7244
  48   2.0000      -0.497940       -13.5496
  49   2.0000      -0.493209       -13.4209
  50   2.0000      -0.485323       -13.2063
  51   2.0000      -0.480729       -13.0813
  52   2.0000      -0.466466       -12.6932
  53   2.0000      -0.462237       -12.5781
  54   2.0000      -0.453650       -12.3444
  55   2.0000      -0.448686       -12.2094
  56   2.0000      -0.444118       -12.0851
  57   2.0000      -0.436741       -11.8843
  58   2.0000      -0.430636       -11.7182
  59   2.0000      -0.429343       -11.6830
  60   2.0000      -0.418688       -11.3931
  61   2.0000      -0.415130       -11.2963
  62   2.0000      -0.412750       -11.2315
  63   2.0000      -0.342770        -9.3272
  64   2.0000      -0.330647        -8.9974
  65   2.0000      -0.327734        -8.9181
  66   2.0000      -0.299628        -8.1533
  67   0.0000       0.034266         0.9324
  68   0.0000       0.060731         1.6526
  69   0.0000       0.108663         2.9569
  70   0.0000       0.116381         3.1669
  71   0.0000       0.125001         3.4014

MULLIKEN ATOMIC CHARGES
-----------------------
   0 S :    0.112165
   1 C :   -0.129548
   2 C :   -0.122593
   3 C :    0.048216
   4 C :   -0.179827
   5 H :    0.025782
   6 C :    0.105195
   7 H :    0.020701
   8 H :    0.034444
   9 C :   -0.081544
  10 H :    0.025856
  11 H :    0.030607
  12 C :   -0.044962
  13 H :    0.025287
  14 H :    0.020272
  15 H :    0.037834
  16 S :    0.113703
  17 C :   -0.086070
  18 C :   -0.046416
  19 C :   -0.011694
  20 C :   -0.169543
  21 H :    0.031890
  22 C :    0.057070
  23 H :    0.029433
  24 H :    0.027275
  25 C :   -0.044735
  26 H :    0.029796
  27 H :    0.024981
  28 C :   -0.119210
  29 H :    0.040004
  30 H :    0.037457
  31 H :    0.032773
  32 H :    0.066136
  33 H :    0.059264
Sum of atomic charges:    0.0000000

LOEWDIN ATOMIC CHARGES
----------------------
   0 S :    0.395929
   1 C :   -0.209485
   2 C :   -0.059788
   3 C :   -0.056230
   4 C :   -0.178491
   5 H :    0.036522
   6 C :   -0.027944
   7 H :    0.033905
   8 H :    0.029406
   9 C :   -0.042240
  10 H :    0.019520
  11 H :    0.028123
  12 C :   -0.064435
  13 H :    0.020640
  14 H :    0.026418
  15 H :    0.023877
  16 S :    0.407527
  17 C :   -0.196933
  18 C :   -0.066787
  19 C :   -0.056874
  20 C :   -0.199443
  21 H :    0.035606
  22 C :   -0.036444
  23 H :    0.033004
  24 H :    0.032846
  25 C :   -0.041541
  26 H :    0.024454
  27 H :    0.025654
  28 C :   -0.086758
  29 H :    0.024363
  30 H :    0.028436
  31 H :    0.029624
  32 H :    0.035442
  33 H :    0.032097

  Mayer bond orders larger than 0.100000
B(  0-S ,  1-C ) :   1.1347 B(  0-S ,  4-C ) :   1.1570 B(  1-C ,  2-C ) :   1.6188
B(  1-C , 32-H ) :   0.9575 B(  2-C ,  3-C ) :   1.2167 B(  2-C ,  6-C ) :   1.0201
B(  3-C ,  4-C ) :   1.5907 B(  3-C ,  5-H ) :   0.9915 B(  4-C , 20-C ) :   0.9989
B(  6-C ,  7-H ) :   0.9406 B(  6-C ,  8-H ) :   0.9401 B(  6-C ,  9-C ) :   1.0689
B(  9-C , 10-H ) :   0.9540 B(  9-C , 11-H ) :   0.9549 B(  9-C , 12-C ) :   1.0760
B( 12-C , 13-H ) :   0.9734 B( 12-C , 14-H ) :   0.9750 B( 12-C , 15-H ) :   0.9704
B( 16-S , 17-C ) :   1.1499 B( 16-S , 20-C ) :   1.1457 B( 17-C , 18-C ) :   1.6326
B( 17-C , 33-H ) :   0.9607 B( 18-C , 19-C ) :   1.2165 B( 18-C , 21-H ) :   0.9828
B( 19-C , 20-C ) :   1.6132 B( 19-C , 22-C ) :   1.0470 B( 22-C , 23-H ) :   0.9409
B( 22-C , 24-H ) :   0.9250 B( 22-C , 25-C ) :   1.0804 B( 25-C , 26-H ) :   0.9545
B( 25-C , 27-H ) :   0.9467 B( 25-C , 28-C ) :   1.0730 B( 28-C , 29-H ) :   0.9721
B( 28-C , 30-H ) :   0.9725 B( 28-C , 31-H ) :   0.9731

Dispersion correction           -0.015218053
FINAL SINGLE POINT ENERGY     -1339.886584565359

DIPOLE MOMENT
-------------
                                X             Y             Z
Electronic contribution:     23.04213      14.26301       4.43932
Nuclear contribution   :    -23.46764     -14.50395      -4.49526
                        -----------------------------------------
Total Dipole Moment    :     -0.42552      -0.24094      -0.05594
                        -----------------------------------------
Magnitude (a.u.)       :      0.49218
Magnitude (Debye)      :      1.25103

Rotational constants in cm-1:     0.018875     0.009463     0.007068
Rotational constants in MHz :   565.853722   283.707945   211.887376

                             ****ORCA TERMINATED NORMALLY****
TOTAL RUN TIME: 0 days 0 hours 0 minutes 22 seconds 200 msec
