                         Program Version 4.2.1 -  RELEASE  -
|  1> ! wB97X-D3 SP def2-SVP
|  2> %pal
|  3> nprocs 24
|  4> end
|  5>
|  6> * xyz 0 1
|  7> S 	 -129.833 	 66.5429 	 -56.5616
|  8> C 	 -128.261 	 67.1236 	 -56.1609
|  9> C 	 -127.573 	 67.6674 	 -57.2656
| 10> C 	 -128.382 	 67.5931 	 -58.4495
| 11> C 	 -129.673 	 67.0856 	 -58.2263
| 12> H 	 -128.035 	 67.8598 	 -59.4413
| 13> C 	 -126.171 	 68.164 	 -57.2561
| 14> H 	 -125.709 	 67.8828 	 -58.1251
| 15> H 	 -125.564 	 67.717 	 -56.4674
| 16> C 	 -126.041 	 69.7037 	 -57.1647
| 17> H 	 -126.74 	 70.2091 	 -57.885
| 18> H 	 -126.333 	 70.1622 	 -56.2103
| 19> C 	 -124.614 	 70.1155 	 -57.5341
| 20> H 	 -124.413 	 69.5752 	 -58.5017
| 21> H 	 -124.518 	 71.1543 	 -57.802
| 22> H 	 -123.8 	 69.7466 	 -56.8539
| 23> S 	 -132.462 	 67.615 	 -58.4869
| 24> C 	 -133.383 	 66.8504 	 -59.7832
| 25> C 	 -132.536 	 66.1914 	 -60.598
| 26> C 	 -131.162 	 66.1832 	 -60.157
| 27> C 	 -130.903 	 66.9752 	 -59.0534
| 28> H 	 -132.945 	 65.6307 	 -61.4205
| 29> C 	 -130.049 	 65.4388 	 -60.837
| 30> H 	 -129.114 	 66.0039 	 -60.7624
| 31> H 	 -130.21 	 65.4099 	 -61.9332
| 32> C 	 -129.786 	 63.9987 	 -60.2564
| 33> H 	 -130.549 	 63.2592 	 -60.3718
| 34> H 	 -129.736 	 64.1777 	 -59.1931
| 35> C 	 -128.448 	 63.2992 	 -60.6642
| 36> H 	 -127.511 	 63.9111 	 -60.4865
| 37> H 	 -128.365 	 63.1217 	 -61.7717
| 38> H 	 -128.474 	 62.3738 	 -60.0934
| 39> H 	 -127.856 	 67.0421 	 -55.1569
| 40> H 	 -134.444 	 67.0443 	 -59.997
| 41> *
| 42>
| 43>                          ****END OF INPUT****

CARTESIAN COORDINATES (ANGSTROEM)
---------------------------------
  S    -129.833000   66.542900  -56.561600
  C    -128.261000   67.123600  -56.160900
  C    -127.573000   67.667400  -57.265600
  C    -128.382000   67.593100  -58.449500
  C    -129.673000   67.085600  -58.226300
  H    -128.035000   67.859800  -59.441300
  C    -126.171000   68.164000  -57.256100
  H    -125.709000   67.882800  -58.125100
  H    -125.564000   67.717000  -56.467400
  C    -126.041000   69.703700  -57.164700
  H    -126.740000   70.209100  -57.885000
  H    -126.333000   70.162200  -56.210300
  C    -124.614000   70.115500  -57.534100
  H    -124.413000   69.575200  -58.501700
  H    -124.518000   71.154300  -57.802000
  H    -123.800000   69.746600  -56.853900
  S    -132.462000   67.615000  -58.486900
  C    -133.383000   66.850400  -59.783200
  C    -132.536000   66.191400  -60.598000
  C    -131.162000   66.183200  -60.157000
  C    -130.903000   66.975200  -59.053400
  H    -132.945000   65.630700  -61.420500
  C    -130.049000   65.438800  -60.837000
  H    -129.114000   66.003900  -60.762400
  H    -130.210000   65.409900  -61.933200
  C    -129.786000   63.998700  -60.256400
  H    -130.549000   63.259200  -60.371800
  H    -129.736000   64.177700  -59.193100
  C    -128.448000   63.299200  -60.664200
  H    -127.511000   63.911100  -60.486500
  H    -128.365000   63.121700  -61.771700
  H    -128.474000   62.373800  -60.093400
  H    -127.856000   67.042100  -55.156900
  H    -134.444000   67.044300  -59.997000

 Total Charge           Charge          ....    0
 Multiplicity           Mult            ....    1
 Number of Electrons    NEL             ....  134
 Basis Dimension        Dim             ....  322

ORBITAL ENERGIES
----------------

  NO   OCC          E(Eh)            E(eV)
   0   2.0000     -88.968598     -2420.9586
   1   2.0000     -88.961743     -2420.7721
   2   2.0000     -10.336960      -281.2830
   3   2.0000     -10.330311      -281.1020
   4   2.0000     -10.319459      -280.8068
   5   2.0000     -10.315622      -280.7023
   6   2.0000     -10.304729      -280.4059
   7   2.0000     -10.303062      -280.3606
   8   2.0000     -10.302587      -280.3476
   9   2.0000     -10.292444      -280.0716
  10   2.0000     -10.291878      -280.0562
  11   2.0000     -10.291170      -280.0370
  12   2.0000     -10.287674      -279.9418
  13   2.0000     -10.284125      -279.8453
  14   2.0000     -10.283398      -279.8255
  15   2.0000     -10.283264      -279.8218
  16   2.0000      -8.083368      -219.9596
  17   2.0000      -8.076038      -219.7602
  18   2.0000      -6.041722      -164.4036
  19   2.0000      -6.037727      -164.2949
  20   2.0000      -6.034751      -164.2139
  21   2.0000      -6.034426      -164.2051
  22   2.0000      -6.030473      -164.0975
  23   2.0000      -6.026698      -163.9948
  24   2.0000      -1.004176       -27.3250
  25   2.0000      -0.983688       -26.7675
  26   2.0000      -0.915839       -24.9213
  27   2.0000      -0.899171       -24.4677
  28   2.0000      -0.867823       -23.6147
  29   2.0000      -0.850764       -23.1505
  30   2.0000      -0.841688       -22.9035
  31   2.0000      -0.818032       -22.2598
  32   2.0000      -0.779803       -21.2195
  33   2.0000      -0.765396       -20.8275
  34   2.0000      -0.703936       -19.1551
  35   2.0000      -0.699148       -19.0248
  36   2.0000      -0.692586       -18.8462
  37   2.0000      -0.659000       -17.9323
  38   2.0000      -0.646187       -17.5836
  39   2.0000      -0.623771       -16.9737
  40   2.0000      -0.594578       -16.1793
  41   2.0000      -0.574227       -15.6255
  42   2.0000      -0.560349       -15.2479
  43   2.0000      -0.553097       -15.0505
  44   2.0000      -0.530353       -14.4316
  45   2.0000      -0.524863       -14.2822
  46   2.0000      -0.517433       -14.0801
  47   2.0000      -0.507046       -13.7974
  48   2.0000      -0.503364       -13.6972
  49   2.0000      -0.499868       -13.6021
  50   2.0000      -0.496309       -13.5053
  51   2.0000      -0.474569       -12.9137
  52   2.0000      -0.469988       -12.7890
  53   2.0000      -0.462589       -12.5877
  54   2.0000      -0.452195       -12.3049
  55   2.0000      -0.449886       -12.2420
  56   2.0000      -0.441390       -12.0108
  57   2.0000      -0.438536       -11.9332
  58   2.0000      -0.435518       -11.8510
  59   2.0000      -0.427656       -11.6371
  60   2.0000      -0.418246       -11.3811
  61   2.0000      -0.414559       -11.2807
  62   2.0000      -0.408591       -11.1183
  63   2.0000      -0.345853        -9.4111
  64   2.0000      -0.331194        -9.0123
  65   2.0000      -0.327771        -8.9191
  66   2.0000      -0.296305        -8.0629
  67   0.0000       0.031534         0.8581
  68   0.0000       0.063308         1.7227
  69   0.0000       0.109252         2.9729
  70   0.0000       0.123131         3.3506
  71   0.0000       0.136170         3.7054

MULLIKEN ATOMIC CHARGES
-----------------------
   0 S :    0.126297
   1 C :   -0.123773
   2 C :   -0.090900
   3 C :    0.052749
   4 C :   -0.180928
   5 H :    0.015180
   6 C :    0.114449
   7 H :   -0.009681
   8 H :    0.023507
   9 C :   -0.092657
  10 H :    0.033395
  11 H :    0.032589
  12 C :   -0.061148
  13 H :    0.017553
  14 H :    0.037922
  15 H :    0.043577
  16 S :    0.085655
  17 C :   -0.103094
  18 C :   -0.007213
  19 C :   -0.045650
  20 C :   -0.139465
  21 H :    0.016781
  22 C :    0.075627
  23 H :    0.009488
  24 H :    0.022996
  25 C :   -0.069372
  26 H :    0.025559
  27 H :    0.027571
  28 C :   -0.078420
  29 H :    0.037967
  30 H :    0.034398
  31 H :    0.045455
  32 H :    0.050803
  33 H :    0.072785
Sum of atomic charges:   -0.0000000

LOEWDIN ATOMIC CHARGES
----------------------
   0 S :    0.427462
   1 C :   -0.204743
   2 C :   -0.060819
   3 C :   -0.057470
   4 C :   -0.190775
   5 H :    0.029968
   6 C :   -0.025877
   7 H :    0.018099
   8 H :    0.034156
   9 C :   -0.041529
  10 H :    0.029348
  11 H :    0.022909
  12 C :   -0.074039
  13 H :    0.026434
  14 H :    0.024280
  15 H :    0.029770
  16 S :    0.380935
  17 C :   -0.177473
  18 C :   -0.073783
  19 C :   -0.056217
  20 C :   -0.198846
  21 H :    0.031855
  22 C :   -0.036005
  23 H :    0.029994
  24 H :    0.028646
  25 C :   -0.037684
  26 H :    0.020203
  27 H :    0.023756
  28 C :   -0.073325
  29 H :    0.028297
  30 H :    0.025553
  31 H :    0.029563
  32 H :    0.027376
  33 H :    0.039984

  Mayer bond orders larger than 0.100000
B(  0-S ,  1-C ) :   1.1612 B(  0-S ,  4-C ) :   1.1695 B(  1-C ,  2-C ) :   1.5762
B(  1-C ,  4-C ) :   0.1026 B(  1-C , 32-H ) :   0.9690 B(  2-C ,  3-C ) :   1.2623
B(  2-C ,  6-C ) :   1.0395 B(  3-C ,  4-C ) :   1.5594 B(  3-C ,  5-H ) :   0.9897
B(  4-C , 20-C ) :   1.0161 B(  6-C ,  7-H ) :   0.9328 B(  6-C ,  8-H ) :   0.9389
B(  6-C ,  9-C ) :   1.0506 B(  9-C , 10-H ) :   0.9578 B(  9-C , 11-H ) :   0.9558
B(  9-C , 12-C ) :   1.0763 B( 12-C , 13-H ) :   0.9730 B( 12-C , 14-H ) :   0.9740
B( 12-C , 15-H ) :   0.9738 B( 16-S , 17-C ) :   1.1483 B( 16-S , 20-C ) :   1.1249
B( 17-C , 18-C ) :   1.6238 B( 17-C , 33-H ) :   0.9612 B( 18-C , 19-C ) :   1.2333
B( 18-C , 21-H ) :   0.9928 B( 19-C , 20-C ) :   1.6006 B( 19-C , 22-C ) :   1.0581
B( 22-C , 23-H ) :   0.9343 B( 22-C , 24-H ) :   0.9337 B( 22-C , 25-C ) :   1.0432
B( 25-C , 26-H ) :   0.9600 B( 25-C , 27-H ) :   0.9558 B( 25-C , 28-C ) :   1.0791
B( 28-C , 29-H ) :   0.9748 B( 28-C , 30-H ) :   0.9761 B( 28-C , 31-H ) :   0.9753

Dispersion correction           -0.014060977
FINAL SINGLE POINT ENERGY     -1339.886089394639

DIPOLE MOMENT
-------------
                                X             Y             Z
Electronic contribution:    -25.14735       2.16168       8.63242
Nuclear contribution   :     25.56370      -2.28183      -8.95013
                        -----------------------------------------
Total Dipole Moment    :      0.41635      -0.12015      -0.31771
                        -----------------------------------------
Magnitude (a.u.)       :      0.53733
Magnitude (Debye)      :      1.36577

Rotational constants in cm-1:     0.019096     0.007890     0.006697
Rotational constants in MHz :   572.481562   236.535028   200.776889

                             ****ORCA TERMINATED NORMALLY****
TOTAL RUN TIME: 0 days 0 hours 0 minutes 21 seconds 188 msec
