                         Program Version 4.2.1 -  RELEASE  -
|  1> ! wB97X-D3 SP def2-SVP
|  2> %pal
|  3> nprocs 24
|  4> end
|  5>
|  6> * xyz 0 1
|  7> S 	 -135.157 	 28.1552 	 -20.5567
|  8> C 	 -134.044 	 28.2622 	 -19.1858
|  9> C 	 -133.156 	 29.3288 	 -19.3649
| 10> C 	 -133.399 	 30.0108 	 -20.5605
| 11> C 	 -134.571 	 29.6533 	 -21.2219
| 12> H 	 -132.769 	 30.8343 	 -21.0466
| 13> C 	 -132.163 	 29.7796 	 -18.4052
| 14> H 	 -131.222 	 29.8851 	 -18.88
| 15> H 	 -131.964 	 28.9008 	 -17.8703
| 16> C 	 -132.567 	 30.9833 	 -17.5206
| 17> H 	 -131.721 	 31.5569 	 -17.1845
| 18> H 	 -133.131 	 31.7633 	 -18.0354
| 19> C 	 -133.404 	 30.6084 	 -16.2747
| 20> H 	 -133.397 	 31.3673 	 -15.4699
| 21> H 	 -134.403 	 30.3123 	 -16.5399
| 22> H 	 -132.907 	 29.7914 	 -15.77
| 23> S 	 -135.806 	 29.0404 	 -23.5784
| 24> C 	 -136.52 	 30.2992 	 -24.5959
| 25> C 	 -136.184 	 31.5496 	 -24.1278
| 26> C 	 -135.264 	 31.4842 	 -23.0063
| 27> C 	 -135.125 	 30.1987 	 -22.4623
| 28> H 	 -136.519 	 32.3591 	 -24.773
| 29> C 	 -134.711 	 32.8333 	 -22.4654
| 30> H 	 -134.588 	 32.717 	 -21.4201
| 31> H 	 -135.427 	 33.603 	 -22.6822
| 32> C 	 -133.363 	 33.2066 	 -23.0111
| 33> H 	 -133.575 	 33.2774 	 -24.049
| 34> H 	 -132.586 	 32.4652 	 -22.8203
| 35> C 	 -132.801 	 34.4736 	 -22.4371
| 36> H 	 -131.856 	 34.6922 	 -22.9185
| 37> H 	 -132.415 	 34.2499 	 -21.3923
| 38> H 	 -133.423 	 35.3341 	 -22.601
| 39> H 	 -134.259 	 27.5782 	 -18.3876
| 40> H 	 -136.975 	 30.0018 	 -25.5354
| 41> *
| 42>
| 43>                          ****END OF INPUT****

CARTESIAN COORDINATES (ANGSTROEM)
---------------------------------
  S    -135.157000   28.155200  -20.556700
  C    -134.044000   28.262200  -19.185800
  C    -133.156000   29.328800  -19.364900
  C    -133.399000   30.010800  -20.560500
  C    -134.571000   29.653300  -21.221900
  H    -132.769000   30.834300  -21.046600
  C    -132.163000   29.779600  -18.405200
  H    -131.222000   29.885100  -18.880000
  H    -131.964000   28.900800  -17.870300
  C    -132.567000   30.983300  -17.520600
  H    -131.721000   31.556900  -17.184500
  H    -133.131000   31.763300  -18.035400
  C    -133.404000   30.608400  -16.274700
  H    -133.397000   31.367300  -15.469900
  H    -134.403000   30.312300  -16.539900
  H    -132.907000   29.791400  -15.770000
  S    -135.806000   29.040400  -23.578400
  C    -136.520000   30.299200  -24.595900
  C    -136.184000   31.549600  -24.127800
  C    -135.264000   31.484200  -23.006300
  C    -135.125000   30.198700  -22.462300
  H    -136.519000   32.359100  -24.773000
  C    -134.711000   32.833300  -22.465400
  H    -134.588000   32.717000  -21.420100
  H    -135.427000   33.603000  -22.682200
  C    -133.363000   33.206600  -23.011100
  H    -133.575000   33.277400  -24.049000
  H    -132.586000   32.465200  -22.820300
  C    -132.801000   34.473600  -22.437100
  H    -131.856000   34.692200  -22.918500
  H    -132.415000   34.249900  -21.392300
  H    -133.423000   35.334100  -22.601000
  H    -134.259000   27.578200  -18.387600
  H    -136.975000   30.001800  -25.535400

 Total Charge           Charge          ....    0
 Multiplicity           Mult            ....    1
 Number of Electrons    NEL             ....  134
 Basis Dimension        Dim             ....  322

ORBITAL ENERGIES
----------------

  NO   OCC          E(Eh)            E(eV)
   0   2.0000     -88.964272     -2420.8409
   1   2.0000     -88.960997     -2420.7518
   2   2.0000     -10.332120      -281.1513
   3   2.0000     -10.331655      -281.1386
   4   2.0000     -10.319095      -280.7969
   5   2.0000     -10.317678      -280.7583
   6   2.0000     -10.311309      -280.5850
   7   2.0000     -10.300951      -280.3031
   8   2.0000     -10.298735      -280.2428
   9   2.0000     -10.296750      -280.1888
  10   2.0000     -10.288096      -279.9533
  11   2.0000     -10.284521      -279.8560
  12   2.0000     -10.282327      -279.7964
  13   2.0000     -10.279343      -279.7151
  14   2.0000     -10.278326      -279.6875
  15   2.0000     -10.275910      -279.6217
  16   2.0000      -8.079138      -219.8445
  17   2.0000      -8.075960      -219.7581
  18   2.0000      -6.037601      -164.2915
  19   2.0000      -6.034471      -164.2063
  20   2.0000      -6.033583      -164.1821
  21   2.0000      -6.030412      -164.0958
  22   2.0000      -6.029977      -164.0840
  23   2.0000      -6.026727      -163.9956
  24   2.0000      -1.007123       -27.4052
  25   2.0000      -0.983835       -26.7715
  26   2.0000      -0.918603       -24.9965
  27   2.0000      -0.915515       -24.9124
  28   2.0000      -0.868592       -23.6356
  29   2.0000      -0.851494       -23.1703
  30   2.0000      -0.845926       -23.0188
  31   2.0000      -0.817185       -22.2367
  32   2.0000      -0.784914       -21.3586
  33   2.0000      -0.774581       -21.0774
  34   2.0000      -0.713461       -19.4143
  35   2.0000      -0.700097       -19.0506
  36   2.0000      -0.690509       -18.7897
  37   2.0000      -0.663805       -18.0631
  38   2.0000      -0.642968       -17.4960
  39   2.0000      -0.622162       -16.9299
  40   2.0000      -0.595443       -16.2028
  41   2.0000      -0.584079       -15.8936
  42   2.0000      -0.573690       -15.6109
  43   2.0000      -0.551629       -15.0106
  44   2.0000      -0.534729       -14.5507
  45   2.0000      -0.530409       -14.4332
  46   2.0000      -0.516615       -14.0578
  47   2.0000      -0.513902       -13.9840
  48   2.0000      -0.512335       -13.9413
  49   2.0000      -0.499727       -13.5983
  50   2.0000      -0.492674       -13.4063
  51   2.0000      -0.480136       -13.0652
  52   2.0000      -0.476201       -12.9581
  53   2.0000      -0.465490       -12.6666
  54   2.0000      -0.455376       -12.3914
  55   2.0000      -0.446769       -12.1572
  56   2.0000      -0.438120       -11.9218
  57   2.0000      -0.436117       -11.8674
  58   2.0000      -0.433922       -11.8076
  59   2.0000      -0.424336       -11.5468
  60   2.0000      -0.420374       -11.4390
  61   2.0000      -0.416186       -11.3250
  62   2.0000      -0.409829       -11.1520
  63   2.0000      -0.354912        -9.6576
  64   2.0000      -0.331189        -9.0121
  65   2.0000      -0.328185        -8.9304
  66   2.0000      -0.284987        -7.7549
  67   0.0000       0.020076         0.5463
  68   0.0000       0.073645         2.0040
  69   0.0000       0.104732         2.8499
  70   0.0000       0.122094         3.3224
  71   0.0000       0.123535         3.3616

MULLIKEN ATOMIC CHARGES
-----------------------
   0 S :    0.091369
   1 C :   -0.134596
   2 C :   -0.085501
   3 C :   -0.011064
   4 C :   -0.123735
   5 H :    0.030806
   6 C :    0.136430
   7 H :    0.013162
   8 H :   -0.005391
   9 C :   -0.045324
  10 H :    0.018863
  11 H :    0.028840
  12 C :   -0.054716
  13 H :    0.034032
  14 H :    0.041152
  15 H :    0.014376
  16 S :    0.078339
  17 C :   -0.108746
  18 C :   -0.025676
  19 C :   -0.060841
  20 C :   -0.130606
  21 H :    0.030640
  22 C :    0.095628
  23 H :    0.003811
  24 H :    0.018125
  25 C :   -0.076237
  26 H :    0.012074
  27 H :    0.029386
  28 C :   -0.025137
  29 H :    0.022861
  30 H :    0.033842
  31 H :    0.033802
  32 H :    0.053724
  33 H :    0.066307
Sum of atomic charges:   -0.0000000

LOEWDIN ATOMIC CHARGES
----------------------
   0 S :    0.400782
   1 C :   -0.186577
   2 C :   -0.063201
   3 C :   -0.074037
   4 C :   -0.191316
   5 H :    0.042147
   6 C :   -0.031411
   7 H :    0.032402
   8 H :    0.027414
   9 C :   -0.035063
  10 H :    0.022613
  11 H :    0.025872
  12 C :   -0.064371
  13 H :    0.029731
  14 H :    0.023014
  15 H :    0.020108
  16 S :    0.389156
  17 C :   -0.174916
  18 C :   -0.075703
  19 C :   -0.050511
  20 C :   -0.195893
  21 H :    0.037349
  22 C :   -0.023924
  23 H :    0.019227
  24 H :    0.027915
  25 C :   -0.042930
  26 H :    0.017824
  27 H :    0.023792
  28 C :   -0.065008
  29 H :    0.026266
  30 H :    0.034178
  31 H :    0.022220
  32 H :    0.023904
  33 H :    0.028949

  Mayer bond orders larger than 0.100000
B(  0-S ,  1-C ) :   1.1426 B(  0-S ,  4-C ) :   1.1638 B(  1-C ,  2-C ) :   1.5533
B(  1-C ,  4-C ) :   0.1071 B(  1-C , 32-H ) :   0.9797 B(  2-C ,  3-C ) :   1.2625
B(  2-C ,  6-C ) :   1.0398 B(  3-C ,  4-C ) :   1.5427 B(  3-C ,  5-H ) :   0.9802
B(  4-C , 20-C ) :   1.0633 B(  6-C ,  7-H ) :   0.9249 B(  6-C ,  8-H ) :   0.9290
B(  6-C ,  9-C ) :   1.0462 B(  9-C , 10-H ) :   0.9557 B(  9-C , 11-H ) :   0.9611
B(  9-C , 12-C ) :   1.0766 B( 12-C , 13-H ) :   0.9748 B( 12-C , 14-H ) :   0.9791
B( 12-C , 15-H ) :   0.9754 B( 16-S , 17-C ) :   1.1490 B( 16-S , 20-C ) :   1.1399
B( 17-C , 18-C ) :   1.6112 B( 17-C , 33-H ) :   0.9685 B( 18-C , 19-C ) :   1.2270
B( 18-C , 21-H ) :   0.9902 B( 19-C , 20-C ) :   1.5860 B( 19-C , 22-C ) :   1.0444
B( 22-C , 23-H ) :   0.9287 B( 22-C , 24-H ) :   0.9373 B( 22-C , 25-C ) :   1.0720
B( 25-C , 26-H ) :   0.9489 B( 25-C , 27-H ) :   0.9500 B( 25-C , 28-C ) :   1.1030
B( 28-C , 29-H ) :   0.9692 B( 28-C , 30-H ) :   0.9687 B( 28-C , 31-H ) :   0.9718

Dispersion correction           -0.014209225
FINAL SINGLE POINT ENERGY     -1339.862397539842

DIPOLE MOMENT
-------------
                                X             Y             Z
Electronic contribution:    -14.79971     -22.05026     -14.33365
Nuclear contribution   :     15.21122      22.60805      14.42576
                        -----------------------------------------
Total Dipole Moment    :      0.41151       0.55779       0.09210
                        -----------------------------------------
Magnitude (a.u.)       :      0.69925
Magnitude (Debye)      :      1.77735

Rotational constants in cm-1:     0.017380     0.009564     0.006597
Rotational constants in MHz :   521.039684   286.710991   197.765360

                             ****ORCA TERMINATED NORMALLY****
TOTAL RUN TIME: 0 days 0 hours 0 minutes 21 seconds 677 msec
