                         Program Version 4.2.1 -  RELEASE  -
|  1> ! wB97X-D3 SP def2-SVP
|  2> %pal
|  3> nprocs 24
|  4> end
|  5>
|  6> * xyz 0 1
|  7> S 	 24.6129 	 3.42202 	 -113.277
|  8> C 	 23.0703 	 4.10647 	 -113.864
|  9> C 	 22.0049 	 3.42216 	 -113.25
| 10> C 	 22.4449 	 2.45503 	 -112.299
| 11> C 	 23.8247 	 2.31262 	 -112.219
| 12> H 	 21.7637 	 1.87452 	 -111.656
| 13> C 	 20.5143 	 3.62887 	 -113.554
| 14> H 	 20.2365 	 4.62825 	 -113.256
| 15> H 	 19.9295 	 3.05224 	 -112.882
| 16> C 	 20.1751 	 3.42058 	 -115.049
| 17> H 	 20.9173 	 3.92827 	 -115.769
| 18> H 	 20.2904 	 2.32946 	 -115.272
| 19> C 	 18.7951 	 4.01319 	 -115.366
| 20> H 	 18.0113 	 3.5168 	 -114.757
| 21> H 	 18.8015 	 5.09536 	 -115.046
| 22> H 	 18.5151 	 3.97524 	 -116.39
| 23> S 	 25.8829 	 0.32401 	 -112.208
| 24> C 	 26.015 	 -0.648221 	 -110.83
| 25> C 	 25.1527 	 -0.200669 	 -109.859
| 26> C 	 24.3784 	 0.979299 	 -110.185
| 27> C 	 24.5984 	 1.35203 	 -111.471
| 28> H 	 25.2662 	 -0.763687 	 -108.864
| 29> C 	 23.4519 	 1.59999 	 -109.211
| 30> H 	 23.3527 	 0.924477 	 -108.417
| 31> H 	 22.4571 	 1.71883 	 -109.572
| 32> C 	 23.8601 	 3.04616 	 -108.802
| 33> H 	 23.8242 	 3.62024 	 -109.705
| 34> H 	 24.9156 	 3.06491 	 -108.363
| 35> C 	 22.9762 	 3.765 	 -107.703
| 36> H 	 23.2714 	 4.79291 	 -107.577
| 37> H 	 23.1005 	 3.31939 	 -106.734
| 38> H 	 21.9646 	 3.80766 	 -107.863
| 39> H 	 22.918 	 4.91508 	 -114.484
| 40> H 	 26.7457 	 -1.45598 	 -110.694
| 41> *
| 42>
| 43>                          ****END OF INPUT****

CARTESIAN COORDINATES (ANGSTROEM)
---------------------------------
  S     24.612900    3.422020  -113.277000
  C     23.070300    4.106470  -113.864000
  C     22.004900    3.422160  -113.250000
  C     22.444900    2.455030  -112.299000
  C     23.824700    2.312620  -112.219000
  H     21.763700    1.874520  -111.656000
  C     20.514300    3.628870  -113.554000
  H     20.236500    4.628250  -113.256000
  H     19.929500    3.052240  -112.882000
  C     20.175100    3.420580  -115.049000
  H     20.917300    3.928270  -115.769000
  H     20.290400    2.329460  -115.272000
  C     18.795100    4.013190  -115.366000
  H     18.011300    3.516800  -114.757000
  H     18.801500    5.095360  -115.046000
  H     18.515100    3.975240  -116.390000
  S     25.882900    0.324010  -112.208000
  C     26.015000   -0.648221  -110.830000
  C     25.152700   -0.200669  -109.859000
  C     24.378400    0.979299  -110.185000
  C     24.598400    1.352030  -111.471000
  H     25.266200   -0.763687  -108.864000
  C     23.451900    1.599990  -109.211000
  H     23.352700    0.924477  -108.417000
  H     22.457100    1.718830  -109.572000
  C     23.860100    3.046160  -108.802000
  H     23.824200    3.620240  -109.705000
  H     24.915600    3.064910  -108.363000
  C     22.976200    3.765000  -107.703000
  H     23.271400    4.792910  -107.577000
  H     23.100500    3.319390  -106.734000
  H     21.964600    3.807660  -107.863000
  H     22.918000    4.915080  -114.484000
  H     26.745700   -1.455980  -110.694000

 Total Charge           Charge          ....    0
 Multiplicity           Mult            ....    1
 Number of Electrons    NEL             ....  134
 Basis Dimension        Dim             ....  322

ORBITAL ENERGIES
----------------

  NO   OCC          E(Eh)            E(eV)
   0   2.0000     -88.968321     -2420.9511
   1   2.0000     -88.963881     -2420.8303
   2   2.0000     -10.329572      -281.0819
   3   2.0000     -10.325420      -280.9690
   4   2.0000     -10.315334      -280.6945
   5   2.0000     -10.313694      -280.6499
   6   2.0000     -10.304918      -280.4111
   7   2.0000     -10.301375      -280.3147
   8   2.0000     -10.297895      -280.2200
   9   2.0000     -10.297376      -280.2058
  10   2.0000     -10.296839      -280.1912
  11   2.0000     -10.292268      -280.0668
  12   2.0000     -10.290854      -280.0284
  13   2.0000     -10.284014      -279.8423
  14   2.0000     -10.282818      -279.8097
  15   2.0000     -10.268588      -279.4225
  16   2.0000      -8.082606      -219.9389
  17   2.0000      -8.079059      -219.8424
  18   2.0000      -6.041167      -164.3885
  19   2.0000      -6.037634      -164.2924
  20   2.0000      -6.036975      -164.2744
  21   2.0000      -6.033549      -164.1812
  22   2.0000      -6.033427      -164.1779
  23   2.0000      -6.029782      -164.0787
  24   2.0000      -1.009033       -27.4572
  25   2.0000      -0.984449       -26.7882
  26   2.0000      -0.912205       -24.8224
  27   2.0000      -0.908275       -24.7154
  28   2.0000      -0.868337       -23.6286
  29   2.0000      -0.850797       -23.1514
  30   2.0000      -0.841753       -22.9053
  31   2.0000      -0.810560       -22.0565
  32   2.0000      -0.789197       -21.4751
  33   2.0000      -0.776134       -21.1197
  34   2.0000      -0.713167       -19.4063
  35   2.0000      -0.701934       -19.1006
  36   2.0000      -0.693392       -18.8682
  37   2.0000      -0.657954       -17.9039
  38   2.0000      -0.640835       -17.4380
  39   2.0000      -0.619509       -16.8577
  40   2.0000      -0.597164       -16.2497
  41   2.0000      -0.568293       -15.4640
  42   2.0000      -0.561700       -15.2846
  43   2.0000      -0.554752       -15.0956
  44   2.0000      -0.526753       -14.3337
  45   2.0000      -0.525807       -14.3079
  46   2.0000      -0.518213       -14.1013
  47   2.0000      -0.515249       -14.0206
  48   2.0000      -0.504315       -13.7231
  49   2.0000      -0.503430       -13.6990
  50   2.0000      -0.492502       -13.4017
  51   2.0000      -0.485303       -13.2058
  52   2.0000      -0.477062       -12.9815
  53   2.0000      -0.459104       -12.4929
  54   2.0000      -0.456622       -12.4253
  55   2.0000      -0.443576       -12.0703
  56   2.0000      -0.441841       -12.0231
  57   2.0000      -0.440247       -11.9797
  58   2.0000      -0.430741       -11.7211
  59   2.0000      -0.427136       -11.6229
  60   2.0000      -0.422043       -11.4844
  61   2.0000      -0.419741       -11.4217
  62   2.0000      -0.413388       -11.2489
  63   2.0000      -0.349847        -9.5198
  64   2.0000      -0.332441        -9.0462
  65   2.0000      -0.328736        -8.9454
  66   2.0000      -0.289887        -7.8882
  67   0.0000       0.025489         0.6936
  68   0.0000       0.072795         1.9808
  69   0.0000       0.111890         3.0447
  70   0.0000       0.125699         3.4204
  71   0.0000       0.129990         3.5372

MULLIKEN ATOMIC CHARGES
-----------------------
   0 S :    0.112390
   1 C :   -0.090188
   2 C :   -0.103301
   3 C :    0.018980
   4 C :   -0.182547
   5 H :    0.021115
   6 C :    0.111484
   7 H :    0.017349
   8 H :    0.004800
   9 C :   -0.120992
  10 H :    0.043730
  11 H :    0.045192
  12 C :   -0.046858
  13 H :    0.032729
  14 H :    0.034265
  15 H :    0.035095
  16 S :    0.111405
  17 C :   -0.099895
  18 C :   -0.077862
  19 C :   -0.032452
  20 C :   -0.128383
  21 H :    0.042204
  22 C :    0.149463
  23 H :   -0.004726
  24 H :    0.003218
  25 C :   -0.115692
  26 H :    0.045245
  27 H :    0.043155
  28 C :   -0.009626
  29 H :    0.026909
  30 H :    0.021358
  31 H :    0.006846
  32 H :    0.017513
  33 H :    0.068079
Sum of atomic charges:    0.0000000

LOEWDIN ATOMIC CHARGES
----------------------
   0 S :    0.413491
   1 C :   -0.181961
   2 C :   -0.052917
   3 C :   -0.070432
   4 C :   -0.198174
   5 H :    0.032890
   6 C :   -0.027511
   7 H :    0.028044
   8 H :    0.023908
   9 C :   -0.045912
  10 H :    0.031405
  11 H :    0.029878
  12 C :   -0.069479
  13 H :    0.026522
  14 H :    0.030665
  15 H :    0.020384
  16 S :    0.403416
  17 C :   -0.205527
  18 C :   -0.088142
  19 C :   -0.051524
  20 C :   -0.188666
  21 H :    0.042495
  22 C :   -0.027360
  23 H :    0.021835
  24 H :    0.026184
  25 C :   -0.029100
  26 H :    0.022524
  27 H :    0.032594
  28 C :   -0.061890
  29 H :    0.028688
  30 H :    0.022917
  31 H :    0.009790
  32 H :    0.012153
  33 H :    0.038812

  Mayer bond orders larger than 0.100000
B(  0-S ,  1-C ) :   1.1335 B(  0-S ,  4-C ) :   1.1635 B(  1-C ,  2-C ) :   1.5844
B(  1-C ,  4-C ) :   0.1077 B(  1-C , 32-H ) :   0.9810 B(  2-C ,  3-C ) :   1.2773
B(  2-C ,  6-C ) :   1.0147 B(  3-C ,  4-C ) :   1.5422 B(  3-C ,  5-H ) :   0.9839
B(  4-C , 20-C ) :   1.0580 B(  6-C ,  7-H ) :   0.9373 B(  6-C ,  8-H ) :   0.9398
B(  6-C ,  9-C ) :   1.0441 B(  9-C , 10-H ) :   0.9612 B(  9-C , 11-H ) :   0.9565
B(  9-C , 12-C ) :   1.0723 B( 12-C , 13-H ) :   0.9735 B( 12-C , 14-H ) :   0.9742
B( 12-C , 15-H ) :   0.9755 B( 16-S , 17-C ) :   1.1606 B( 16-S , 20-C ) :   1.1179
B( 17-C , 18-C ) :   1.6267 B( 17-C , 33-H ) :   0.9625 B( 18-C , 19-C ) :   1.2229
B( 18-C , 21-H ) :   0.9760 B( 19-C , 20-C ) :   1.5961 B( 19-C , 22-C ) :   1.0654
B( 22-C , 23-H ) :   0.9220 B( 22-C , 24-H ) :   0.9193 B( 22-C , 25-C ) :   1.0494
B( 25-C , 26-H ) :   0.9584 B( 25-C , 27-H ) :   0.9593 B( 25-C , 28-C ) :   1.0802
B( 28-C , 29-H ) :   0.9740 B( 28-C , 30-H ) :   0.9762 B( 28-C , 31-H ) :   0.9747

Dispersion correction           -0.014102350
FINAL SINGLE POINT ENERGY     -1339.876726963973

DIPOLE MOMENT
-------------
                                X             Y             Z
Electronic contribution:     24.05175     -10.48813      -6.98336
Nuclear contribution   :    -24.64398      10.54109       7.31284
                        -----------------------------------------
Total Dipole Moment    :     -0.59223       0.05297       0.32947
                        -----------------------------------------
Magnitude (a.u.)       :      0.67978
Magnitude (Debye)      :      1.72785

Rotational constants in cm-1:     0.019101     0.007940     0.006571
Rotational constants in MHz :   572.630596   238.049377   196.998170

                             ****ORCA TERMINATED NORMALLY****
TOTAL RUN TIME: 0 days 0 hours 0 minutes 20 seconds 227 msec
