                         Program Version 4.2.1 -  RELEASE  -
|  1> ! wB97X-D3 SP def2-SVP
|  2> %pal
|  3> nprocs 24
|  4> end
|  5>
|  6> * xyz 0 1
|  7> S 	 -66.863 	 5.58109 	 -71.4409
|  8> C 	 -65.9491 	 6.47827 	 -72.603
|  9> C 	 -65.1322 	 5.70138 	 -73.3622
| 10> C 	 -65.254 	 4.26862 	 -72.9949
| 11> C 	 -66.1484 	 4.02891 	 -71.9968
| 12> H 	 -64.6762 	 3.49083 	 -73.4278
| 13> C 	 -64.2621 	 6.02934 	 -74.5253
| 14> H 	 -63.3057 	 5.49661 	 -74.3447
| 15> H 	 -63.8295 	 7.0377 	 -74.3829
| 16> C 	 -64.924 	 5.73889 	 -75.8652
| 17> H 	 -65.6531 	 6.52806 	 -76.0191
| 18> H 	 -64.129 	 5.81754 	 -76.6479
| 19> C 	 -65.73 	 4.36896 	 -76.1445
| 20> H 	 -66.6397 	 4.20162 	 -75.5425
| 21> H 	 -66.1223 	 4.23708 	 -77.2057
| 22> H 	 -65.1776 	 3.46063 	 -75.9746
| 23> S 	 -66.0072 	 2.83664 	 -69.6232
| 24> C 	 -66.423 	 1.09459 	 -69.4974
| 25> C 	 -66.9077 	 0.639552 	 -70.69
| 26> C 	 -66.9594 	 1.58643 	 -71.6946
| 27> C 	 -66.5676 	 2.82641 	 -71.2865
| 28> H 	 -67.1771 	 -0.393274 	 -70.7809
| 29> C 	 -67.3904 	 1.15245 	 -73.0359
| 30> H 	 -67.1375 	 2.03734 	 -73.706
| 31> H 	 -68.472 	 0.894978 	 -73.01
| 32> C 	 -66.6424 	 -0.0493486 	 -73.5871
| 33> H 	 -67.0964 	 -0.411384 	 -74.5279
| 34> H 	 -66.7819 	 -0.916311 	 -72.8909
| 35> C 	 -65.0938 	 0.11821 	 -73.7814
| 36> H 	 -64.5207 	 -0.654629 	 -73.3688
| 37> H 	 -64.672 	 0.955471 	 -73.1938
| 38> H 	 -64.815 	 0.359657 	 -74.7919
| 39> H 	 -65.9949 	 7.51276 	 -72.6737
| 40> H 	 -66.3519 	 0.405711 	 -68.6682
| 41> *
| 42>
| 43>                          ****END OF INPUT****

CARTESIAN COORDINATES (ANGSTROEM)
---------------------------------
  S    -66.863000    5.581090  -71.440900
  C    -65.949100    6.478270  -72.603000
  C    -65.132200    5.701380  -73.362200
  C    -65.254000    4.268620  -72.994900
  C    -66.148400    4.028910  -71.996800
  H    -64.676200    3.490830  -73.427800
  C    -64.262100    6.029340  -74.525300
  H    -63.305700    5.496610  -74.344700
  H    -63.829500    7.037700  -74.382900
  C    -64.924000    5.738890  -75.865200
  H    -65.653100    6.528060  -76.019100
  H    -64.129000    5.817540  -76.647900
  C    -65.730000    4.368960  -76.144500
  H    -66.639700    4.201620  -75.542500
  H    -66.122300    4.237080  -77.205700
  H    -65.177600    3.460630  -75.974600
  S    -66.007200    2.836640  -69.623200
  C    -66.423000    1.094590  -69.497400
  C    -66.907700    0.639552  -70.690000
  C    -66.959400    1.586430  -71.694600
  C    -66.567600    2.826410  -71.286500
  H    -67.177100   -0.393274  -70.780900
  C    -67.390400    1.152450  -73.035900
  H    -67.137500    2.037340  -73.706000
  H    -68.472000    0.894978  -73.010000
  C    -66.642400   -0.049349  -73.587100
  H    -67.096400   -0.411384  -74.527900
  H    -66.781900   -0.916311  -72.890900
  C    -65.093800    0.118210  -73.781400
  H    -64.520700   -0.654629  -73.368800
  H    -64.672000    0.955471  -73.193800
  H    -64.815000    0.359657  -74.791900
  H    -65.994900    7.512760  -72.673700
  H    -66.351900    0.405711  -68.668200

 Total Charge           Charge          ....    0
 Multiplicity           Mult            ....    1
 Number of Electrons    NEL             ....  134
 Basis Dimension        Dim             ....  322

ORBITAL ENERGIES
----------------

  NO   OCC          E(Eh)            E(eV)
   0   2.0000     -88.965977     -2420.8873
   1   2.0000     -88.957792     -2420.6646
   2   2.0000     -10.329533      -281.0809
   3   2.0000     -10.323598      -280.9194
   4   2.0000     -10.317987      -280.7667
   5   2.0000     -10.306612      -280.4572
   6   2.0000     -10.300524      -280.2915
   7   2.0000     -10.298786      -280.2442
   8   2.0000     -10.296200      -280.1739
   9   2.0000     -10.294812      -280.1361
  10   2.0000     -10.294656      -280.1318
  11   2.0000     -10.294318      -280.1226
  12   2.0000     -10.292932      -280.0849
  13   2.0000     -10.288566      -279.9661
  14   2.0000     -10.284560      -279.8571
  15   2.0000     -10.275301      -279.6052
  16   2.0000      -8.079944      -219.8664
  17   2.0000      -8.072809      -219.6723
  18   2.0000      -6.038597      -164.3186
  19   2.0000      -6.034606      -164.2100
  20   2.0000      -6.031459      -164.1243
  21   2.0000      -6.030507      -164.0984
  22   2.0000      -6.027302      -164.0112
  23   2.0000      -6.023373      -163.9043
  24   2.0000      -1.008508       -27.4429
  25   2.0000      -0.983767       -26.7697
  26   2.0000      -0.913241       -24.8506
  27   2.0000      -0.906900       -24.6780
  28   2.0000      -0.871166       -23.7056
  29   2.0000      -0.847174       -23.0528
  30   2.0000      -0.835496       -22.7350
  31   2.0000      -0.819280       -22.2938
  32   2.0000      -0.785626       -21.3780
  33   2.0000      -0.777791       -21.1648
  34   2.0000      -0.710197       -19.3254
  35   2.0000      -0.706325       -19.2201
  36   2.0000      -0.697091       -18.9688
  37   2.0000      -0.666029       -18.1236
  38   2.0000      -0.648014       -17.6334
  39   2.0000      -0.616479       -16.7752
  40   2.0000      -0.591921       -16.1070
  41   2.0000      -0.571147       -15.5417
  42   2.0000      -0.558457       -15.1964
  43   2.0000      -0.546055       -14.8589
  44   2.0000      -0.540413       -14.7054
  45   2.0000      -0.536040       -14.5864
  46   2.0000      -0.519402       -14.1336
  47   2.0000      -0.513653       -13.9772
  48   2.0000      -0.500754       -13.6262
  49   2.0000      -0.494667       -13.4606
  50   2.0000      -0.489599       -13.3227
  51   2.0000      -0.473754       -12.8915
  52   2.0000      -0.469984       -12.7889
  53   2.0000      -0.464610       -12.6427
  54   2.0000      -0.455273       -12.3886
  55   2.0000      -0.450273       -12.2526
  56   2.0000      -0.443971       -12.0811
  57   2.0000      -0.438718       -11.9381
  58   2.0000      -0.436321       -11.8729
  59   2.0000      -0.425416       -11.5762
  60   2.0000      -0.415834       -11.3154
  61   2.0000      -0.412680       -11.2296
  62   2.0000      -0.408267       -11.1095
  63   2.0000      -0.348100        -9.4723
  64   2.0000      -0.330443        -8.9918
  65   2.0000      -0.323417        -8.8006
  66   2.0000      -0.300374        -8.1736
  67   0.0000       0.038068         1.0359
  68   0.0000       0.067322         1.8319
  69   0.0000       0.109214         2.9719
  70   0.0000       0.123602         3.3634
  71   0.0000       0.125183         3.4064

MULLIKEN ATOMIC CHARGES
-----------------------
   0 S :    0.084720
   1 C :   -0.082398
   2 C :   -0.116427
   3 C :    0.044643
   4 C :   -0.159961
   5 H :   -0.006226
   6 C :    0.063865
   7 H :    0.025807
   8 H :    0.023358
   9 C :   -0.041459
  10 H :    0.034950
  11 H :    0.042391
  12 C :   -0.094698
  13 H :    0.052411
  14 H :    0.043066
  15 H :    0.021594
  16 S :    0.107369
  17 C :   -0.073520
  18 C :   -0.051121
  19 C :   -0.018967
  20 C :   -0.137532
  21 H :    0.010107
  22 C :    0.079540
  23 H :    0.033827
  24 H :    0.048926
  25 C :   -0.109064
  26 H :    0.036938
  27 H :    0.026239
  28 C :   -0.037642
  29 H :    0.023118
  30 H :    0.027132
  31 H :    0.034032
  32 H :    0.018142
  33 H :    0.046842
Sum of atomic charges:   -0.0000000

LOEWDIN ATOMIC CHARGES
----------------------
   0 S :    0.378506
   1 C :   -0.186917
   2 C :   -0.063817
   3 C :   -0.050827
   4 C :   -0.178702
   5 H :    0.023261
   6 C :   -0.046865
   7 H :    0.034868
   8 H :    0.036466
   9 C :   -0.033792
  10 H :    0.027770
  11 H :    0.031057
  12 C :   -0.081453
  13 H :    0.028905
  14 H :    0.037228
  15 H :    0.016553
  16 S :    0.395610
  17 C :   -0.165418
  18 C :   -0.069331
  19 C :   -0.065885
  20 C :   -0.199695
  21 H :    0.028946
  22 C :   -0.035218
  23 H :    0.037447
  24 H :    0.042326
  25 C :   -0.044099
  26 H :    0.028275
  27 H :    0.022385
  28 C :   -0.069234
  29 H :    0.022825
  30 H :    0.029657
  31 H :    0.023710
  32 H :    0.015043
  33 H :    0.030417

  Mayer bond orders larger than 0.100000
B(  0-S ,  1-C ) :   1.1226 B(  0-S ,  4-C ) :   1.1237 B(  1-C ,  2-C ) :   1.6637
B(  1-C , 32-H ) :   0.9756 B(  2-C ,  3-C ) :   1.1784 B(  2-C ,  6-C ) :   1.0282
B(  3-C ,  4-C ) :   1.6406 B(  3-C ,  5-H ) :   1.0009 B(  4-C , 20-C ) :   0.9797
B(  6-C ,  7-H ) :   0.9326 B(  6-C ,  8-H ) :   0.9373 B(  6-C ,  9-C ) :   1.0584
B(  9-C , 10-H ) :   0.9553 B(  9-C , 11-H ) :   0.9567 B(  9-C , 12-C ) :   1.0713
B( 12-C , 13-H ) :   0.9694 B( 12-C , 14-H ) :   0.9728 B( 12-C , 15-H ) :   0.9758
B( 16-S , 17-C ) :   1.1372 B( 16-S , 20-C ) :   1.1403 B( 17-C , 18-C ) :   1.6340
B( 17-C , 33-H ) :   0.9643 B( 18-C , 19-C ) :   1.2267 B( 18-C , 21-H ) :   0.9923
B( 19-C , 20-C ) :   1.6194 B( 19-C , 22-C ) :   1.0467 B( 22-C , 23-H ) :   0.9342
B( 22-C , 24-H ) :   0.9276 B( 22-C , 25-C ) :   1.0769 B( 25-C , 26-H ) :   0.9587
B( 25-C , 27-H ) :   0.9577 B( 25-C , 28-C ) :   1.0504 B( 28-C , 29-H ) :   0.9729
B( 28-C , 30-H ) :   0.9752 B( 28-C , 31-H ) :   0.9787

Dispersion correction           -0.016169857
FINAL SINGLE POINT ENERGY     -1339.869349423504

DIPOLE MOMENT
-------------
                                X             Y             Z
Electronic contribution:     -5.88813       9.88746      25.90319
Nuclear contribution   :      6.14465     -10.30876     -26.46689
                        -----------------------------------------
Total Dipole Moment    :      0.25652      -0.42130      -0.56370
                        -----------------------------------------
Magnitude (a.u.)       :      0.74904
Magnitude (Debye)      :      1.90391

Rotational constants in cm-1:     0.018701     0.010610     0.007525
Rotational constants in MHz :   560.648933   318.083218   225.602756

                             ****ORCA TERMINATED NORMALLY****
TOTAL RUN TIME: 0 days 0 hours 0 minutes 23 seconds 43 msec
