                         Program Version 4.2.1 -  RELEASE  -
|  1> ! wB97X-D3 SP def2-SVP
|  2> %pal
|  3> nprocs 24
|  4> end
|  5>
|  6> * xyz 0 1
|  7> S 	 -126.872 	 68.7177 	 -60.3114
|  8> C 	 -126.366 	 70.3921 	 -60.2148
|  9> C 	 -127.471 	 71.1918 	 -60.4731
| 10> C 	 -128.466 	 70.4604 	 -61.2379
| 11> C 	 -128.299 	 69.0876 	 -61.3031
| 12> H 	 -129.335 	 70.8883 	 -61.6594
| 13> C 	 -127.465 	 72.6779 	 -60.1158
| 14> H 	 -126.554 	 72.9429 	 -59.4867
| 15> H 	 -128.415 	 72.8824 	 -59.6481
| 16> C 	 -127.555 	 73.497 	 -61.447
| 17> H 	 -126.729 	 73.1846 	 -62.024
| 18> H 	 -128.457 	 73.187 	 -61.9416
| 19> C 	 -127.552 	 74.9281 	 -61.1934
| 20> H 	 -126.604 	 75.192 	 -60.5569
| 21> H 	 -127.702 	 75.4099 	 -62.1683
| 22> H 	 -128.377 	 75.3022 	 -60.5277
| 23> S 	 -130.24 	 67.2291 	 -60.7264
| 24> C 	 -131.036 	 66.4013 	 -62.0071
| 25> C 	 -130.625 	 66.8086 	 -63.2383
| 26> C 	 -129.563 	 67.7584 	 -63.1985
| 27> C 	 -129.235 	 68.099 	 -61.8631
| 28> H 	 -131.071 	 66.2715 	 -64.0465
| 29> C 	 -129.07 	 68.4302 	 -64.4723
| 30> H 	 -128.012 	 68.7353 	 -64.4252
| 31> H 	 -129.572 	 69.4654 	 -64.4464
| 32> C 	 -129.345 	 67.6404 	 -65.7623
| 33> H 	 -129.19 	 68.311 	 -66.5923
| 34> H 	 -130.385 	 67.2907 	 -65.8634
| 35> C 	 -128.453 	 66.4633 	 -65.9472
| 36> H 	 -127.435 	 66.6552 	 -66.1836
| 37> H 	 -128.865 	 65.8312 	 -66.7029
| 38> H 	 -128.427 	 65.7595 	 -65.1653
| 39> H 	 -125.419 	 70.6536 	 -59.7416
| 40> H 	 -131.709 	 65.5661 	 -61.8355
| 41> *
| 42>
| 43>                          ****END OF INPUT****

CARTESIAN COORDINATES (ANGSTROEM)
---------------------------------
  S    -126.872000   68.717700  -60.311400
  C    -126.366000   70.392100  -60.214800
  C    -127.471000   71.191800  -60.473100
  C    -128.466000   70.460400  -61.237900
  C    -128.299000   69.087600  -61.303100
  H    -129.335000   70.888300  -61.659400
  C    -127.465000   72.677900  -60.115800
  H    -126.554000   72.942900  -59.486700
  H    -128.415000   72.882400  -59.648100
  C    -127.555000   73.497000  -61.447000
  H    -126.729000   73.184600  -62.024000
  H    -128.457000   73.187000  -61.941600
  C    -127.552000   74.928100  -61.193400
  H    -126.604000   75.192000  -60.556900
  H    -127.702000   75.409900  -62.168300
  H    -128.377000   75.302200  -60.527700
  S    -130.240000   67.229100  -60.726400
  C    -131.036000   66.401300  -62.007100
  C    -130.625000   66.808600  -63.238300
  C    -129.563000   67.758400  -63.198500
  C    -129.235000   68.099000  -61.863100
  H    -131.071000   66.271500  -64.046500
  C    -129.070000   68.430200  -64.472300
  H    -128.012000   68.735300  -64.425200
  H    -129.572000   69.465400  -64.446400
  C    -129.345000   67.640400  -65.762300
  H    -129.190000   68.311000  -66.592300
  H    -130.385000   67.290700  -65.863400
  C    -128.453000   66.463300  -65.947200
  H    -127.435000   66.655200  -66.183600
  H    -128.865000   65.831200  -66.702900
  H    -128.427000   65.759500  -65.165300
  H    -125.419000   70.653600  -59.741600
  H    -131.709000   65.566100  -61.835500

 Total Charge           Charge          ....    0
 Multiplicity           Mult            ....    1
 Number of Electrons    NEL             ....  134
 Basis Dimension        Dim             ....  322

ORBITAL ENERGIES
----------------

  NO   OCC          E(Eh)            E(eV)
   0   2.0000     -88.963647     -2420.8239
   1   2.0000     -88.957448     -2420.6552
   2   2.0000     -10.330987      -281.1204
   3   2.0000     -10.327491      -281.0253
   4   2.0000     -10.314937      -280.6837
   5   2.0000     -10.311246      -280.5833
   6   2.0000     -10.308886      -280.5190
   7   2.0000     -10.304950      -280.4120
   8   2.0000     -10.298211      -280.2286
   9   2.0000     -10.297781      -280.2169
  10   2.0000     -10.295331      -280.1502
  11   2.0000     -10.287755      -279.9440
  12   2.0000     -10.285730      -279.8889
  13   2.0000     -10.285563      -279.8844
  14   2.0000     -10.277091      -279.6539
  15   2.0000     -10.262604      -279.2596
  16   2.0000      -8.079056      -219.8423
  17   2.0000      -8.072136      -219.6540
  18   2.0000      -6.037365      -164.2850
  19   2.0000      -6.033438      -164.1782
  20   2.0000      -6.030688      -164.1034
  21   2.0000      -6.030022      -164.0852
  22   2.0000      -6.026781      -163.9970
  23   2.0000      -6.022696      -163.8859
  24   2.0000      -1.003383       -27.3034
  25   2.0000      -0.983410       -26.7600
  26   2.0000      -0.917517       -24.9669
  27   2.0000      -0.912105       -24.8196
  28   2.0000      -0.871048       -23.7024
  29   2.0000      -0.851654       -23.1747
  30   2.0000      -0.842833       -22.9347
  31   2.0000      -0.817536       -22.2463
  32   2.0000      -0.783037       -21.3075
  33   2.0000      -0.766543       -20.8587
  34   2.0000      -0.709067       -19.2947
  35   2.0000      -0.698112       -18.9966
  36   2.0000      -0.688875       -18.7453
  37   2.0000      -0.650975       -17.7139
  38   2.0000      -0.645367       -17.5613
  39   2.0000      -0.620011       -16.8714
  40   2.0000      -0.602423       -16.3928
  41   2.0000      -0.575132       -15.6501
  42   2.0000      -0.566735       -15.4217
  43   2.0000      -0.550436       -14.9781
  44   2.0000      -0.536454       -14.5976
  45   2.0000      -0.529332       -14.4039
  46   2.0000      -0.522659       -14.2223
  47   2.0000      -0.508951       -13.8493
  48   2.0000      -0.503336       -13.6965
  49   2.0000      -0.500331       -13.6147
  50   2.0000      -0.493236       -13.4216
  51   2.0000      -0.479384       -13.0447
  52   2.0000      -0.476616       -12.9694
  53   2.0000      -0.464175       -12.6309
  54   2.0000      -0.456257       -12.4154
  55   2.0000      -0.449139       -12.2217
  56   2.0000      -0.444042       -12.0830
  57   2.0000      -0.434922       -11.8348
  58   2.0000      -0.428975       -11.6730
  59   2.0000      -0.426279       -11.5996
  60   2.0000      -0.417914       -11.3720
  61   2.0000      -0.414024       -11.2662
  62   2.0000      -0.412299       -11.2192
  63   2.0000      -0.338208        -9.2031
  64   2.0000      -0.325793        -8.8653
  65   2.0000      -0.317464        -8.6386
  66   2.0000      -0.298902        -8.1335
  67   0.0000       0.039157         1.0655
  68   0.0000       0.054984         1.4962
  69   0.0000       0.109772         2.9870
  70   0.0000       0.125163         3.4059
  71   0.0000       0.134040         3.6474

MULLIKEN ATOMIC CHARGES
-----------------------
   0 S :    0.092979
   1 C :   -0.136735
   2 C :   -0.083054
   3 C :    0.046563
   4 C :   -0.149384
   5 H :   -0.003449
   6 C :    0.054596
   7 H :    0.040546
   8 H :    0.027895
   9 C :   -0.080783
  10 H :    0.025667
  11 H :    0.024112
  12 C :   -0.043898
  13 H :    0.037910
  14 H :    0.042747
  15 H :    0.028749
  16 S :    0.118713
  17 C :   -0.098019
  18 C :   -0.043875
  19 C :   -0.010508
  20 C :   -0.189294
  21 H :    0.012122
  22 C :    0.045154
  23 H :    0.035010
  24 H :    0.049664
  25 C :   -0.057724
  26 H :    0.023323
  27 H :    0.029465
  28 C :   -0.004796
  29 H :    0.023982
  30 H :    0.011809
  31 H :    0.013180
  32 H :    0.060487
  33 H :    0.056847
Sum of atomic charges:   -0.0000000

LOEWDIN ATOMIC CHARGES
----------------------
   0 S :    0.382899
   1 C :   -0.193558
   2 C :   -0.060305
   3 C :   -0.057876
   4 C :   -0.192881
   5 H :    0.021535
   6 C :   -0.027325
   7 H :    0.036782
   8 H :    0.030466
   9 C :   -0.043723
  10 H :    0.020165
  11 H :    0.021347
  12 C :   -0.075336
  13 H :    0.036070
  14 H :    0.030640
  15 H :    0.026516
  16 S :    0.422735
  17 C :   -0.190824
  18 C :   -0.079797
  19 C :   -0.047884
  20 C :   -0.209778
  21 H :    0.030005
  22 C :   -0.038175
  23 H :    0.035572
  24 H :    0.044580
  25 C :   -0.041309
  26 H :    0.027179
  27 H :    0.026123
  28 C :   -0.062363
  29 H :    0.022445
  30 H :    0.026626
  31 H :    0.020407
  32 H :    0.029281
  33 H :    0.029757

  Mayer bond orders larger than 0.100000
B(  0-S ,  1-C ) :   1.1451 B(  0-S ,  4-C ) :   1.1364 B(  1-C ,  2-C ) :   1.5916
B(  1-C , 32-H ) :   0.9728 B(  2-C ,  3-C ) :   1.2151 B(  2-C ,  6-C ) :   1.0388
B(  3-C ,  4-C ) :   1.5930 B(  3-C ,  5-H ) :   0.9966 B(  4-C , 20-C ) :   1.0330
B(  6-C ,  7-H ) :   0.9479 B(  6-C ,  8-H ) :   0.9292 B(  6-C ,  9-C ) :   1.0603
B(  9-C , 10-H ) :   0.9543 B(  9-C , 11-H ) :   0.9491 B(  9-C , 12-C ) :   1.1038
B( 12-C , 13-H ) :   0.9670 B( 12-C , 14-H ) :   0.9679 B( 12-C , 15-H ) :   0.9688
B( 16-S , 17-C ) :   1.1689 B( 16-S , 20-C ) :   1.1625 B( 17-C , 18-C ) :   1.6149
B( 17-C , 20-C ) :   0.1010 B( 17-C , 33-H ) :   0.9615 B( 18-C , 19-C ) :   1.2361
B( 18-C , 21-H ) :   0.9907 B( 19-C , 20-C ) :   1.5799 B( 19-C , 22-C ) :   1.0360
B( 22-C , 23-H ) :   0.9326 B( 22-C , 24-H ) :   0.9318 B( 22-C , 25-C ) :   1.0769
B( 25-C , 26-H ) :   0.9483 B( 25-C , 27-H ) :   0.9504 B( 25-C , 28-C ) :   1.0897
B( 28-C , 29-H ) :   0.9721 B( 28-C , 30-H ) :   0.9662 B( 28-C , 31-H ) :   0.9703

Dispersion correction           -0.013684908
FINAL SINGLE POINT ENERGY     -1339.861275797515

DIPOLE MOMENT
-------------
                                X             Y             Z
Electronic contribution:     -2.29886     -16.49633      17.23920
Nuclear contribution   :      2.10202      16.89736     -17.66753
                        -----------------------------------------
Total Dipole Moment    :     -0.19684       0.40103      -0.42833
                        -----------------------------------------
Magnitude (a.u.)       :      0.61890
Magnitude (Debye)      :      1.57312

Rotational constants in cm-1:     0.019689     0.007345     0.006381
Rotational constants in MHz :   590.259448   220.197983   191.305169

                             ****ORCA TERMINATED NORMALLY****
TOTAL RUN TIME: 0 days 0 hours 0 minutes 21 seconds 37 msec
