                         Program Version 4.2.1 -  RELEASE  -
|  1> ! wB97X-D3 SP def2-SVP
|  2> %pal
|  3> nprocs 24
|  4> end
|  5>
|  6> * xyz 0 1
|  7> S 	 -96.2513 	 47.898 	 -101.489
|  8> C 	 -95.7407 	 46.6995 	 -100.221
|  9> C 	 -94.9922 	 47.3413 	 -99.2836
| 10> C 	 -94.8923 	 48.7377 	 -99.475
| 11> C 	 -95.4636 	 49.2054 	 -100.635
| 12> H 	 -94.3307 	 49.4974 	 -98.88
| 13> C 	 -94.2067 	 46.6492 	 -98.2199
| 14> H 	 -93.3325 	 47.2199 	 -97.9452
| 15> H 	 -93.9554 	 45.7228 	 -98.6961
| 16> C 	 -95.0262 	 46.4594 	 -96.9335
| 17> H 	 -95.4947 	 47.4083 	 -96.7238
| 18> H 	 -95.9672 	 45.9003 	 -97.0933
| 19> C 	 -94.2996 	 45.8357 	 -95.7687
| 20> H 	 -95.0803 	 45.6855 	 -95.0052
| 21> H 	 -93.9675 	 44.8594 	 -95.9879
| 22> H 	 -93.5771 	 46.4641 	 -95.3635
| 23> S 	 -94.5489 	 50.4556 	 -102.805
| 24> C 	 -94.8233 	 52.1496 	 -102.962
| 25> C 	 -95.4352 	 52.7659 	 -101.888
| 26> C 	 -95.6814 	 51.7896 	 -100.856
| 27> C 	 -95.3788 	 50.5236 	 -101.309
| 28> H 	 -95.506 	 53.7995 	 -101.916
| 29> C 	 -96.2425 	 52.0469 	 -99.5291
| 30> H 	 -95.4906 	 51.835 	 -98.8414
| 31> H 	 -97.0142 	 51.288 	 -99.3309
| 32> C 	 -96.7277 	 53.4699 	 -99.2178
| 33> H 	 -97.4436 	 53.7598 	 -99.956
| 34> H 	 -95.854 	 54.1467 	 -99.3207
| 35> C 	 -97.263 	 53.6739 	 -97.725
| 36> H 	 -97.663 	 54.5873 	 -97.3552
| 37> H 	 -96.5988 	 53.2169 	 -96.9882
| 38> H 	 -98.0789 	 52.99 	 -97.6177
| 39> H 	 -96.119 	 45.6905 	 -100.212
| 40> H 	 -94.3707 	 52.7374 	 -103.719
| 41> *
| 42>
| 43>                          ****END OF INPUT****

CARTESIAN COORDINATES (ANGSTROEM)
---------------------------------
  S    -96.251300   47.898000  -101.489000
  C    -95.740700   46.699500  -100.221000
  C    -94.992200   47.341300  -99.283600
  C    -94.892300   48.737700  -99.475000
  C    -95.463600   49.205400  -100.635000
  H    -94.330700   49.497400  -98.880000
  C    -94.206700   46.649200  -98.219900
  H    -93.332500   47.219900  -97.945200
  H    -93.955400   45.722800  -98.696100
  C    -95.026200   46.459400  -96.933500
  H    -95.494700   47.408300  -96.723800
  H    -95.967200   45.900300  -97.093300
  C    -94.299600   45.835700  -95.768700
  H    -95.080300   45.685500  -95.005200
  H    -93.967500   44.859400  -95.987900
  H    -93.577100   46.464100  -95.363500
  S    -94.548900   50.455600  -102.805000
  C    -94.823300   52.149600  -102.962000
  C    -95.435200   52.765900  -101.888000
  C    -95.681400   51.789600  -100.856000
  C    -95.378800   50.523600  -101.309000
  H    -95.506000   53.799500  -101.916000
  C    -96.242500   52.046900  -99.529100
  H    -95.490600   51.835000  -98.841400
  H    -97.014200   51.288000  -99.330900
  C    -96.727700   53.469900  -99.217800
  H    -97.443600   53.759800  -99.956000
  H    -95.854000   54.146700  -99.320700
  C    -97.263000   53.673900  -97.725000
  H    -97.663000   54.587300  -97.355200
  H    -96.598800   53.216900  -96.988200
  H    -98.078900   52.990000  -97.617700
  H    -96.119000   45.690500  -100.212000
  H    -94.370700   52.737400  -103.719000

 Total Charge           Charge          ....    0
 Multiplicity           Mult            ....    1
 Number of Electrons    NEL             ....  134
 Basis Dimension        Dim             ....  322

ORBITAL ENERGIES
----------------

  NO   OCC          E(Eh)            E(eV)
   0   2.0000     -88.966819     -2420.9102
   1   2.0000     -88.960333     -2420.7337
   2   2.0000     -10.328148      -281.0432
   3   2.0000     -10.319103      -280.7971
   4   2.0000     -10.314209      -280.6639
   5   2.0000     -10.308973      -280.5214
   6   2.0000     -10.302804      -280.3536
   7   2.0000     -10.297332      -280.2046
   8   2.0000     -10.293929      -280.1120
   9   2.0000     -10.293021      -280.0873
  10   2.0000     -10.290647      -280.0227
  11   2.0000     -10.285283      -279.8768
  12   2.0000     -10.284712      -279.8612
  13   2.0000     -10.282231      -279.7937
  14   2.0000     -10.278808      -279.7006
  15   2.0000     -10.270267      -279.4682
  16   2.0000      -8.082753      -219.9429
  17   2.0000      -8.074434      -219.7165
  18   2.0000      -6.040966      -164.3831
  19   2.0000      -6.037267      -164.2824
  20   2.0000      -6.033558      -164.1814
  21   2.0000      -6.033012      -164.1666
  22   2.0000      -6.029011      -164.0577
  23   2.0000      -6.025172      -163.9533
  24   2.0000      -1.011536       -27.5253
  25   2.0000      -0.985417       -26.8145
  26   2.0000      -0.915816       -24.9206
  27   2.0000      -0.913406       -24.8550
  28   2.0000      -0.871226       -23.7073
  29   2.0000      -0.851920       -23.1819
  30   2.0000      -0.844621       -22.9833
  31   2.0000      -0.818883       -22.2829
  32   2.0000      -0.787650       -21.4330
  33   2.0000      -0.774890       -21.0858
  34   2.0000      -0.715766       -19.4770
  35   2.0000      -0.703657       -19.1475
  36   2.0000      -0.697566       -18.9817
  37   2.0000      -0.657757       -17.8985
  38   2.0000      -0.643444       -17.5090
  39   2.0000      -0.618343       -16.8260
  40   2.0000      -0.601092       -16.3565
  41   2.0000      -0.575079       -15.6487
  42   2.0000      -0.570103       -15.5133
  43   2.0000      -0.560987       -15.2652
  44   2.0000      -0.531048       -14.4505
  45   2.0000      -0.526344       -14.3225
  46   2.0000      -0.521140       -14.1810
  47   2.0000      -0.517521       -14.0825
  48   2.0000      -0.505856       -13.7650
  49   2.0000      -0.495028       -13.4704
  50   2.0000      -0.488171       -13.2838
  51   2.0000      -0.476087       -12.9550
  52   2.0000      -0.473045       -12.8722
  53   2.0000      -0.465435       -12.6651
  54   2.0000      -0.462301       -12.5798
  55   2.0000      -0.461465       -12.5571
  56   2.0000      -0.446534       -12.1508
  57   2.0000      -0.439458       -11.9583
  58   2.0000      -0.433887       -11.8067
  59   2.0000      -0.427638       -11.6366
  60   2.0000      -0.419010       -11.4018
  61   2.0000      -0.416099       -11.3226
  62   2.0000      -0.415499       -11.3063
  63   2.0000      -0.343709        -9.3528
  64   2.0000      -0.331590        -9.0230
  65   2.0000      -0.326337        -8.8801
  66   2.0000      -0.293394        -7.9837
  67   0.0000       0.037261         1.0139
  68   0.0000       0.064900         1.7660
  69   0.0000       0.113697         3.0938
  70   0.0000       0.120930         3.2907
  71   0.0000       0.135250         3.6803

MULLIKEN ATOMIC CHARGES
-----------------------
   0 S :    0.083998
   1 C :   -0.138552
   2 C :   -0.081685
   3 C :    0.029280
   4 C :   -0.179994
   5 H :    0.023433
   6 C :    0.118427
   7 H :    0.018323
   8 H :    0.019488
   9 C :   -0.114391
  10 H :    0.011070
  11 H :    0.015259
  12 C :    0.029634
  13 H :    0.025068
  14 H :    0.021425
  15 H :    0.023526
  16 S :    0.136680
  17 C :   -0.069515
  18 C :   -0.032037
  19 C :   -0.025742
  20 C :   -0.162584
  21 H :   -0.004984
  22 C :    0.084381
  23 H :    0.009616
  24 H :    0.041473
  25 C :   -0.090051
  26 H :    0.034531
  27 H :    0.034826
  28 C :   -0.013878
  29 H :    0.037006
  30 H :    0.020122
  31 H :    0.007869
  32 H :    0.051762
  33 H :    0.036220
Sum of atomic charges:   -0.0000000

LOEWDIN ATOMIC CHARGES
----------------------
   0 S :    0.372184
   1 C :   -0.177695
   2 C :   -0.062637
   3 C :   -0.077802
   4 C :   -0.189770
   5 H :    0.037753
   6 C :   -0.023484
   7 H :    0.029932
   8 H :    0.028527
   9 C :   -0.046380
  10 H :    0.020886
  11 H :    0.024231
  12 C :   -0.054082
  13 H :    0.033893
  14 H :    0.021210
  15 H :    0.016115
  16 S :    0.441709
  17 C :   -0.184599
  18 C :   -0.062513
  19 C :   -0.047838
  20 C :   -0.218060
  21 H :    0.022490
  22 C :   -0.035230
  23 H :    0.025907
  24 H :    0.039952
  25 C :   -0.031808
  26 H :    0.019981
  27 H :    0.025373
  28 C :   -0.069133
  29 H :    0.024271
  30 H :    0.027256
  31 H :    0.022840
  32 H :    0.028290
  33 H :    0.018231

  Mayer bond orders larger than 0.100000
B(  0-S ,  1-C ) :   1.1118 B(  0-S ,  4-C ) :   1.1600 B(  1-C ,  2-C ) :   1.6252
B(  1-C ,  4-C ) :   0.1015 B(  1-C , 32-H ) :   0.9742 B(  2-C ,  3-C ) :   1.2232
B(  2-C ,  6-C ) :   1.0190 B(  3-C ,  4-C ) :   1.5996 B(  3-C ,  5-H ) :   0.9857
B(  4-C , 20-C ) :   0.9908 B(  6-C ,  7-H ) :   0.9400 B(  6-C ,  8-H ) :   0.9370
B(  6-C ,  9-C ) :   1.0584 B(  9-C , 10-H ) :   0.9519 B(  9-C , 11-H ) :   0.9545
B(  9-C , 12-C ) :   1.0894 B( 12-C , 13-H ) :   0.9691 B( 12-C , 14-H ) :   0.9705
B( 12-C , 15-H ) :   0.9740 B( 16-S , 17-C ) :   1.1673 B( 16-S , 20-C ) :   1.1629
B( 17-C , 18-C ) :   1.6166 B( 17-C , 33-H ) :   0.9633 B( 18-C , 19-C ) :   1.2146
B( 18-C , 21-H ) :   1.0042 B( 19-C , 20-C ) :   1.6112 B( 19-C , 22-C ) :   1.0506
B( 22-C , 23-H ) :   0.9079 B( 22-C , 24-H ) :   0.9228 B( 22-C , 25-C ) :   1.0812
B( 25-C , 26-H ) :   0.9594 B( 25-C , 27-H ) :   0.9508 B( 25-C , 28-C ) :   1.0672
B( 28-C , 29-H ) :   0.9789 B( 28-C , 30-H ) :   0.9732 B( 28-C , 31-H ) :   0.9711

Dispersion correction           -0.013530590
FINAL SINGLE POINT ENERGY     -1339.864314113442

DIPOLE MOMENT
-------------
                                X             Y             Z
Electronic contribution:      2.01400      -2.78387     -29.18974
Nuclear contribution   :     -1.83848       2.95825      29.83625
                        -----------------------------------------
Total Dipole Moment    :      0.17552       0.17437       0.64651
                        -----------------------------------------
Magnitude (a.u.)       :      0.69223
Magnitude (Debye)      :      1.75952

Rotational constants in cm-1:     0.017316     0.008148     0.006093
Rotational constants in MHz :   519.115326   244.270343   182.665114

                             ****ORCA TERMINATED NORMALLY****
TOTAL RUN TIME: 0 days 0 hours 0 minutes 21 seconds 73 msec
