                         Program Version 4.2.1 -  RELEASE  -
|  1> ! wB97X-D3 SP def2-SVP
|  2> %pal
|  3> nprocs 24
|  4> end
|  5>
|  6> * xyz 0 1
|  7> S 	 26.0487 	 -0.336283 	 -109.837
|  8> C 	 27.3204 	 -0.820008 	 -110.937
|  9> C 	 26.8273 	 -1.18057 	 -112.158
| 10> C 	 25.4212 	 -1.08742 	 -112.26
| 11> C 	 24.8 	 -0.607424 	 -111.084
| 12> H 	 24.7749 	 -1.22833 	 -113.169
| 13> C 	 27.7321 	 -1.68279 	 -113.286
| 14> H 	 27.2263 	 -2.32624 	 -114.01
| 15> H 	 28.3 	 -2.38178 	 -112.578
| 16> C 	 28.6298 	 -0.639721 	 -113.946
| 17> H 	 28.0223 	 0.312925 	 -114.177
| 18> H 	 29.3464 	 -0.246335 	 -113.226
| 19> C 	 29.3303 	 -1.27497 	 -115.194
| 20> H 	 29.8325 	 -0.494316 	 -115.806
| 21> H 	 30.1023 	 -2.0292 	 -115.084
| 22> H 	 28.5615 	 -1.76562 	 -115.774
| 23> S 	 23.0589 	 0.553044 	 -109.304
| 24> C 	 21.444 	 0.969634 	 -109.83
| 25> C 	 21.1871 	 0.604542 	 -111.137
| 26> C 	 22.3262 	 0.107965 	 -111.812
| 27> C 	 23.4256 	 -0.12874 	 -110.929
| 28> H 	 20.2122 	 0.782045 	 -111.545
| 29> C 	 22.2808 	 -0.299556 	 -113.251
| 30> H 	 21.2522 	 -0.563157 	 -113.491
| 31> H 	 22.718 	 -1.27252 	 -113.379
| 32> C 	 22.7736 	 0.656744 	 -114.368
| 33> H 	 23.7362 	 1.08324 	 -114.113
| 34> H 	 22.0827 	 1.48944 	 -114.25
| 35> C 	 22.7544 	 0.0039245 	 -115.739
| 36> H 	 23.2004 	 -1.01649 	 -115.757
| 37> H 	 23.2241 	 0.65001 	 -116.486
| 38> H 	 21.7054 	 -0.179776 	 -115.988
| 39> H 	 28.3122 	 -0.764948 	 -110.706
| 40> H 	 20.6898 	 1.46585 	 -109.222
| 41> *
| 42>
| 43>                          ****END OF INPUT****

CARTESIAN COORDINATES (ANGSTROEM)
---------------------------------
  S     26.048700   -0.336283  -109.837000
  C     27.320400   -0.820008  -110.937000
  C     26.827300   -1.180570  -112.158000
  C     25.421200   -1.087420  -112.260000
  C     24.800000   -0.607424  -111.084000
  H     24.774900   -1.228330  -113.169000
  C     27.732100   -1.682790  -113.286000
  H     27.226300   -2.326240  -114.010000
  H     28.300000   -2.381780  -112.578000
  C     28.629800   -0.639721  -113.946000
  H     28.022300    0.312925  -114.177000
  H     29.346400   -0.246335  -113.226000
  C     29.330300   -1.274970  -115.194000
  H     29.832500   -0.494316  -115.806000
  H     30.102300   -2.029200  -115.084000
  H     28.561500   -1.765620  -115.774000
  S     23.058900    0.553044  -109.304000
  C     21.444000    0.969634  -109.830000
  C     21.187100    0.604542  -111.137000
  C     22.326200    0.107965  -111.812000
  C     23.425600   -0.128740  -110.929000
  H     20.212200    0.782045  -111.545000
  C     22.280800   -0.299556  -113.251000
  H     21.252200   -0.563157  -113.491000
  H     22.718000   -1.272520  -113.379000
  C     22.773600    0.656744  -114.368000
  H     23.736200    1.083240  -114.113000
  H     22.082700    1.489440  -114.250000
  C     22.754400    0.003925  -115.739000
  H     23.200400   -1.016490  -115.757000
  H     23.224100    0.650010  -116.486000
  H     21.705400   -0.179776  -115.988000
  H     28.312200   -0.764948  -110.706000
  H     20.689800    1.465850  -109.222000

 Total Charge           Charge          ....    0
 Multiplicity           Mult            ....    1
 Number of Electrons    NEL             ....  134
 Basis Dimension        Dim             ....  322

ORBITAL ENERGIES
----------------

  NO   OCC          E(Eh)            E(eV)
   0   2.0000     -88.967708     -2420.9344
   1   2.0000     -88.967327     -2420.9241
   2   2.0000     -10.337396      -281.2948
   3   2.0000     -10.336975      -281.2834
   4   2.0000     -10.318512      -280.7810
   5   2.0000     -10.309438      -280.5341
   6   2.0000     -10.305901      -280.4378
   7   2.0000     -10.299637      -280.2674
   8   2.0000     -10.298166      -280.2274
   9   2.0000     -10.297910      -280.2204
  10   2.0000     -10.296626      -280.1854
  11   2.0000     -10.293439      -280.0987
  12   2.0000     -10.289740      -279.9981
  13   2.0000     -10.287440      -279.9355
  14   2.0000     -10.285576      -279.8848
  15   2.0000     -10.283143      -279.8186
  16   2.0000      -8.081736      -219.9152
  17   2.0000      -8.081423      -219.9067
  18   2.0000      -6.040222      -164.3628
  19   2.0000      -6.040132      -164.3604
  20   2.0000      -6.036412      -164.2591
  21   2.0000      -6.036023      -164.2485
  22   2.0000      -6.032513      -164.1530
  23   2.0000      -6.032011      -164.1394
  24   2.0000      -1.001675       -27.2570
  25   2.0000      -0.981039       -26.6954
  26   2.0000      -0.912635       -24.8341
  27   2.0000      -0.907842       -24.7036
  28   2.0000      -0.868127       -23.6229
  29   2.0000      -0.856054       -23.2944
  30   2.0000      -0.843960       -22.9653
  31   2.0000      -0.814209       -22.1557
  32   2.0000      -0.781944       -21.2778
  33   2.0000      -0.768887       -20.9225
  34   2.0000      -0.711882       -19.3713
  35   2.0000      -0.706243       -19.2178
  36   2.0000      -0.697723       -18.9860
  37   2.0000      -0.664942       -18.0940
  38   2.0000      -0.639590       -17.4041
  39   2.0000      -0.616246       -16.7689
  40   2.0000      -0.597096       -16.2478
  41   2.0000      -0.575102       -15.6493
  42   2.0000      -0.565228       -15.3806
  43   2.0000      -0.547702       -14.9037
  44   2.0000      -0.527608       -14.3570
  45   2.0000      -0.520711       -14.1693
  46   2.0000      -0.518164       -14.1000
  47   2.0000      -0.511009       -13.9053
  48   2.0000      -0.505773       -13.7628
  49   2.0000      -0.503085       -13.6896
  50   2.0000      -0.490580       -13.3494
  51   2.0000      -0.484579       -13.1861
  52   2.0000      -0.473876       -12.8948
  53   2.0000      -0.464874       -12.6499
  54   2.0000      -0.457840       -12.4585
  55   2.0000      -0.453658       -12.3447
  56   2.0000      -0.447960       -12.1896
  57   2.0000      -0.442534       -12.0420
  58   2.0000      -0.434728       -11.8295
  59   2.0000      -0.426522       -11.6062
  60   2.0000      -0.420070       -11.4307
  61   2.0000      -0.409216       -11.1353
  62   2.0000      -0.407612       -11.0917
  63   2.0000      -0.360824        -9.8185
  64   2.0000      -0.338932        -9.2228
  65   2.0000      -0.328428        -8.9370
  66   2.0000      -0.274053        -7.4574
  67   0.0000       0.010677         0.2905
  68   0.0000       0.083716         2.2780
  69   0.0000       0.089094         2.4244
  70   0.0000       0.121694         3.3115
  71   0.0000       0.130255         3.5444

MULLIKEN ATOMIC CHARGES
-----------------------
   0 S :    0.093650
   1 C :   -0.086369
   2 C :   -0.064158
   3 C :   -0.020613
   4 C :   -0.102249
   5 H :    0.023090
   6 C :    0.018458
   7 H :    0.024505
   8 H :    0.047002
   9 C :   -0.069836
  10 H :    0.048209
  11 H :    0.026496
  12 C :   -0.048729
  13 H :    0.038281
  14 H :    0.034571
  15 H :    0.024546
  16 S :    0.085508
  17 C :   -0.085594
  18 C :   -0.018523
  19 C :   -0.027015
  20 C :   -0.119845
  21 H :    0.012365
  22 C :   -0.007023
  23 H :    0.006629
  24 H :    0.015881
  25 C :   -0.039126
  26 H :    0.029124
  27 H :    0.023956
  28 C :   -0.040035
  29 H :    0.033226
  30 H :    0.048260
  31 H :    0.027089
  32 H :    0.010138
  33 H :    0.058131
Sum of atomic charges:   -0.0000000

LOEWDIN ATOMIC CHARGES
----------------------
   0 S :    0.388211
   1 C :   -0.184529
   2 C :   -0.063537
   3 C :   -0.075405
   4 C :   -0.178918
   5 H :    0.039531
   6 C :   -0.040537
   7 H :    0.026285
   8 H :    0.046079
   9 C :   -0.044962
  10 H :    0.036562
  11 H :    0.022168
  12 C :   -0.069955
  13 H :    0.030585
  14 H :    0.026321
  15 H :    0.022423
  16 S :    0.385774
  17 C :   -0.182922
  18 C :   -0.069695
  19 C :   -0.053971
  20 C :   -0.171757
  21 H :    0.031252
  22 C :   -0.040584
  23 H :    0.029646
  24 H :    0.021478
  25 C :   -0.038696
  26 H :    0.020983
  27 H :    0.025862
  28 C :   -0.065437
  29 H :    0.028524
  30 H :    0.031263
  31 H :    0.027175
  32 H :    0.009259
  33 H :    0.031521

  Mayer bond orders larger than 0.100000
B(  0-S ,  1-C ) :   1.1288 B(  0-S ,  4-C ) :   1.1451 B(  1-C ,  2-C ) :   1.6079
B(  1-C , 32-H ) :   0.9814 B(  2-C ,  3-C ) :   1.2641 B(  2-C ,  6-C ) :   0.9826
B(  3-C ,  4-C ) :   1.5421 B(  3-C ,  5-H ) :   0.9821 B(  4-C , 20-C ) :   1.1083
B(  6-C ,  7-H ) :   0.9548 B(  6-C ,  8-H ) :   0.9466 B(  6-C ,  9-C ) :   1.0520
B(  9-C , 10-H ) :   0.9585 B(  9-C , 11-H ) :   0.9532 B(  9-C , 12-C ) :   1.0662
B( 12-C , 13-H ) :   0.9758 B( 12-C , 14-H ) :   0.9780 B( 12-C , 15-H ) :   0.9765
B( 16-S , 17-C ) :   1.1576 B( 16-S , 20-C ) :   1.1294 B( 17-C , 18-C ) :   1.6047
B( 17-C , 33-H ) :   0.9635 B( 18-C , 19-C ) :   1.2617 B( 18-C , 21-H ) :   0.9906
B( 19-C , 20-C ) :   1.5453 B( 19-C , 22-C ) :   1.0362 B( 22-C , 23-H ) :   0.9314
B( 22-C , 24-H ) :   0.9393 B( 22-C , 25-C ) :   1.0446 B( 25-C , 26-H ) :   0.9589
B( 25-C , 27-H ) :   0.9511 B( 25-C , 28-C ) :   1.0745 B( 28-C , 29-H ) :   0.9745
B( 28-C , 30-H ) :   0.9729 B( 28-C , 31-H ) :   0.9724

Dispersion correction           -0.013795441
FINAL SINGLE POINT ENERGY     -1339.871259343103

DIPOLE MOMENT
-------------
                                X             Y             Z
Electronic contribution:     -7.90867       3.55442      31.97403
Nuclear contribution   :      7.84522      -3.51770     -32.72421
                        -----------------------------------------
Total Dipole Moment    :     -0.06345       0.03672      -0.75018
                        -----------------------------------------
Magnitude (a.u.)       :      0.75375
Magnitude (Debye)      :      1.91588

Rotational constants in cm-1:     0.018093     0.008909     0.006177
Rotational constants in MHz :   542.423717   267.097914   185.193048

                             ****ORCA TERMINATED NORMALLY****
TOTAL RUN TIME: 0 days 0 hours 0 minutes 21 seconds 317 msec
