                         Program Version 4.2.1 -  RELEASE  -
|  1> ! wB97X-D3 SP def2-SVP
|  2> %pal
|  3> nprocs 24
|  4> end
|  5>
|  6> * xyz 0 1
|  7> S 	 -118.293 	 28.057 	 -13.8818
|  8> C 	 -118.378 	 27.6804 	 -15.5637
|  9> C 	 -117.688 	 28.5366 	 -16.317
| 10> C 	 -116.92 	 29.452 	 -15.479
| 11> C 	 -117.284 	 29.4266 	 -14.1502
| 12> H 	 -116.295 	 30.2268 	 -15.9684
| 13> C 	 -117.751 	 28.5326 	 -17.8617
| 14> H 	 -117.484 	 29.5345 	 -18.1863
| 15> H 	 -118.831 	 28.3913 	 -18.1355
| 16> C 	 -116.934 	 27.5443 	 -18.6564
| 17> H 	 -115.853 	 27.6898 	 -18.4713
| 18> H 	 -117.103 	 26.4807 	 -18.3558
| 19> C 	 -117.093 	 27.7385 	 -20.2442
| 20> H 	 -118.091 	 27.5748 	 -20.6225
| 21> H 	 -116.897 	 28.7477 	 -20.3392
| 22> H 	 -116.375 	 27.0767 	 -20.803
| 23> S 	 -114.921 	 29.4499 	 -12.8337
| 24> C 	 -114.482 	 30.7544 	 -11.7349
| 25> C 	 -115.547 	 31.6483 	 -11.6214
| 26> C 	 -116.676 	 31.3128 	 -12.4712
| 27> C 	 -116.538 	 30.1045 	 -13.1508
| 28> H 	 -115.437 	 32.5233 	 -10.9442
| 29> C 	 -117.913 	 32.2015 	 -12.538
| 30> H 	 -118.633 	 31.8152 	 -13.2066
| 31> H 	 -117.591 	 33.2421 	 -12.8514
| 32> C 	 -118.664 	 32.4601 	 -11.2822
| 33> H 	 -119.425 	 33.1426 	 -11.4841
| 34> H 	 -117.973 	 32.9509 	 -10.6698
| 35> C 	 -119.342 	 31.2016 	 -10.717
| 36> H 	 -120.012 	 30.7636 	 -11.4387
| 37> H 	 -119.779 	 31.4352 	 -9.70798
| 38> H 	 -118.624 	 30.3927 	 -10.5386
| 39> H 	 -119.057 	 26.9483 	 -16.0727
| 40> H 	 -113.634 	 30.7619 	 -11.1278
| 41> *
| 42>
| 43>                          ****END OF INPUT****

CARTESIAN COORDINATES (ANGSTROEM)
---------------------------------
  S    -118.293000   28.057000  -13.881800
  C    -118.378000   27.680400  -15.563700
  C    -117.688000   28.536600  -16.317000
  C    -116.920000   29.452000  -15.479000
  C    -117.284000   29.426600  -14.150200
  H    -116.295000   30.226800  -15.968400
  C    -117.751000   28.532600  -17.861700
  H    -117.484000   29.534500  -18.186300
  H    -118.831000   28.391300  -18.135500
  C    -116.934000   27.544300  -18.656400
  H    -115.853000   27.689800  -18.471300
  H    -117.103000   26.480700  -18.355800
  C    -117.093000   27.738500  -20.244200
  H    -118.091000   27.574800  -20.622500
  H    -116.897000   28.747700  -20.339200
  H    -116.375000   27.076700  -20.803000
  S    -114.921000   29.449900  -12.833700
  C    -114.482000   30.754400  -11.734900
  C    -115.547000   31.648300  -11.621400
  C    -116.676000   31.312800  -12.471200
  C    -116.538000   30.104500  -13.150800
  H    -115.437000   32.523300  -10.944200
  C    -117.913000   32.201500  -12.538000
  H    -118.633000   31.815200  -13.206600
  H    -117.591000   33.242100  -12.851400
  C    -118.664000   32.460100  -11.282200
  H    -119.425000   33.142600  -11.484100
  H    -117.973000   32.950900  -10.669800
  C    -119.342000   31.201600  -10.717000
  H    -120.012000   30.763600  -11.438700
  H    -119.779000   31.435200   -9.707980
  H    -118.624000   30.392700  -10.538600
  H    -119.057000   26.948300  -16.072700
  H    -113.634000   30.761900  -11.127800

 Total Charge           Charge          ....    0
 Multiplicity           Mult            ....    1
 Number of Electrons    NEL             ....  134
 Basis Dimension        Dim             ....  322

ORBITAL ENERGIES
----------------

  NO   OCC          E(Eh)            E(eV)
   0   2.0000     -88.966786     -2420.9093
   1   2.0000     -88.961063     -2420.7536
   2   2.0000     -10.325951      -280.9834
   3   2.0000     -10.324985      -280.9571
   4   2.0000     -10.317559      -280.7550
   5   2.0000     -10.310999      -280.5766
   6   2.0000     -10.308444      -280.5070
   7   2.0000     -10.301011      -280.3048
   8   2.0000     -10.299488      -280.2633
   9   2.0000     -10.299458      -280.2625
  10   2.0000     -10.298037      -280.2238
  11   2.0000     -10.294267      -280.1212
  12   2.0000     -10.284975      -279.8684
  13   2.0000     -10.281506      -279.7740
  14   2.0000     -10.273587      -279.5585
  15   2.0000     -10.269928      -279.4589
  16   2.0000      -8.082397      -219.9332
  17   2.0000      -8.075453      -219.7442
  18   2.0000      -6.040932      -164.3821
  19   2.0000      -6.036758      -164.2685
  20   2.0000      -6.034036      -164.1945
  21   2.0000      -6.033069      -164.1681
  22   2.0000      -6.029898      -164.0819
  23   2.0000      -6.026237      -163.9822
  24   2.0000      -1.012849       -27.5610
  25   2.0000      -0.982821       -26.7439
  26   2.0000      -0.915598       -24.9147
  27   2.0000      -0.910087       -24.7647
  28   2.0000      -0.875886       -23.8341
  29   2.0000      -0.845800       -23.0154
  30   2.0000      -0.840341       -22.8668
  31   2.0000      -0.811965       -22.0947
  32   2.0000      -0.783040       -21.3076
  33   2.0000      -0.774909       -21.0863
  34   2.0000      -0.710887       -19.3442
  35   2.0000      -0.700419       -19.0594
  36   2.0000      -0.697379       -18.9767
  37   2.0000      -0.656567       -17.8661
  38   2.0000      -0.638233       -17.3672
  39   2.0000      -0.615512       -16.7489
  40   2.0000      -0.601564       -16.3694
  41   2.0000      -0.575274       -15.6540
  42   2.0000      -0.557413       -15.1680
  43   2.0000      -0.549374       -14.9492
  44   2.0000      -0.543174       -14.7805
  45   2.0000      -0.526459       -14.3257
  46   2.0000      -0.521929       -14.2024
  47   2.0000      -0.509589       -13.8666
  48   2.0000      -0.506602       -13.7853
  49   2.0000      -0.499273       -13.5859
  50   2.0000      -0.496096       -13.4994
  51   2.0000      -0.474471       -12.9110
  52   2.0000      -0.469732       -12.7821
  53   2.0000      -0.466428       -12.6922
  54   2.0000      -0.458665       -12.4809
  55   2.0000      -0.448759       -12.2113
  56   2.0000      -0.440020       -11.9735
  57   2.0000      -0.437735       -11.9114
  58   2.0000      -0.427135       -11.6229
  59   2.0000      -0.423698       -11.5294
  60   2.0000      -0.420185       -11.4338
  61   2.0000      -0.415391       -11.3034
  62   2.0000      -0.410135       -11.1603
  63   2.0000      -0.336327        -9.1519
  64   2.0000      -0.327697        -8.9171
  65   2.0000      -0.322851        -8.7852
  66   2.0000      -0.314478        -8.5574
  67   0.0000       0.045840         1.2474
  68   0.0000       0.050176         1.3654
  69   0.0000       0.108949         2.9647
  70   0.0000       0.122458         3.3323
  71   0.0000       0.127721         3.4755

MULLIKEN ATOMIC CHARGES
-----------------------
   0 S :    0.122314
   1 C :   -0.124224
   2 C :   -0.093973
   3 C :    0.014278
   4 C :   -0.156187
   5 H :    0.030187
   6 C :    0.051028
   7 H :    0.013450
   8 H :    0.035163
   9 C :   -0.087784
  10 H :    0.031977
  11 H :    0.032171
  12 C :   -0.038953
  13 H :    0.029907
  14 H :    0.014146
  15 H :    0.050957
  16 S :    0.103025
  17 C :   -0.073340
  18 C :   -0.056746
  19 C :   -0.016351
  20 C :   -0.163363
  21 H :    0.038794
  22 C :    0.053376
  23 H :    0.010251
  24 H :    0.034120
  25 C :   -0.014844
  26 H :    0.014450
  27 H :    0.003694
  28 C :   -0.064132
  29 H :    0.028590
  30 H :    0.043542
  31 H :    0.032231
  32 H :    0.059376
  33 H :    0.042873
Sum of atomic charges:   -0.0000000

LOEWDIN ATOMIC CHARGES
----------------------
   0 S :    0.427550
   1 C :   -0.204215
   2 C :   -0.072523
   3 C :   -0.051815
   4 C :   -0.224835
   5 H :    0.036657
   6 C :   -0.035359
   7 H :    0.026772
   8 H :    0.036774
   9 C :   -0.043849
  10 H :    0.026302
  11 H :    0.022616
  12 C :   -0.058048
  13 H :    0.021072
  14 H :    0.013141
  15 H :    0.035656
  16 S :    0.396811
  17 C :   -0.170318
  18 C :   -0.077058
  19 C :   -0.048791
  20 C :   -0.196903
  21 H :    0.037478
  22 C :   -0.028655
  23 H :    0.020587
  24 H :    0.039666
  25 C :   -0.035557
  26 H :    0.019767
  27 H :    0.012339
  28 C :   -0.067545
  29 H :    0.024018
  30 H :    0.032562
  31 H :    0.025422
  32 H :    0.041217
  33 H :    0.019065

  Mayer bond orders larger than 0.100000
B(  0-S ,  1-C ) :   1.1436 B(  0-S ,  4-C ) :   1.1474 B(  1-C ,  2-C ) :   1.6464
B(  1-C , 32-H ) :   0.9542 B(  2-C ,  3-C ) :   1.2438 B(  2-C ,  6-C ) :   1.0110
B(  3-C ,  4-C ) :   1.5724 B(  3-C ,  5-H ) :   0.9895 B(  4-C , 20-C ) :   1.0284
B(  6-C ,  7-H ) :   0.9364 B(  6-C ,  8-H ) :   0.9448 B(  6-C ,  9-C ) :   1.0700
B(  9-C , 10-H ) :   0.9555 B(  9-C , 11-H ) :   0.9582 B(  9-C , 12-C ) :   1.0598
B( 12-C , 13-H ) :   0.9799 B( 12-C , 14-H ) :   0.9769 B( 12-C , 15-H ) :   0.9769
B( 16-S , 17-C ) :   1.1588 B( 16-S , 20-C ) :   1.1313 B( 17-C , 18-C ) :   1.6171
B( 17-C , 20-C ) :   0.1001 B( 17-C , 33-H ) :   0.9741 B( 18-C , 19-C ) :   1.2180
B( 18-C , 21-H ) :   0.9834 B( 19-C , 20-C ) :   1.6076 B( 19-C , 22-C ) :   1.0540
B( 22-C , 23-H ) :   0.9368 B( 22-C , 24-H ) :   0.9315 B( 22-C , 25-C ) :   1.0866
B( 25-C , 26-H ) :   0.9478 B( 25-C , 27-H ) :   0.9515 B( 25-C , 28-C ) :   1.0708
B( 28-C , 29-H ) :   0.9723 B( 28-C , 30-H ) :   0.9738 B( 28-C , 31-H ) :   0.9766

Dispersion correction           -0.013998650
FINAL SINGLE POINT ENERGY     -1339.868168775693

DIPOLE MOMENT
-------------
                                X             Y             Z
Electronic contribution:      8.69737      -5.95461      12.51765
Nuclear contribution   :     -8.78175       6.31574     -12.86406
                        -----------------------------------------
Total Dipole Moment    :     -0.08438       0.36113      -0.34641
                        -----------------------------------------
Magnitude (a.u.)       :      0.50748
Magnitude (Debye)      :      1.28992

Rotational constants in cm-1:     0.023737     0.006975     0.006279
Rotational constants in MHz :   711.614338   209.111416   188.231381

                             ****ORCA TERMINATED NORMALLY****
TOTAL RUN TIME: 0 days 0 hours 0 minutes 20 seconds 45 msec
