                         Program Version 4.2.1 -  RELEASE  -
|  1> ! wB97X-D3 SP def2-SVP
|  2> %pal
|  3> nprocs 24
|  4> end
|  5>
|  6> * xyz 0 1
|  7> S 	 -119.772 	 24.7576 	 -11.8146
|  8> C 	 -118.547 	 23.824 	 -12.613
|  9> C 	 -117.462 	 24.5949 	 -12.8498
| 10> C 	 -117.542 	 25.8951 	 -12.3584
| 11> C 	 -118.734 	 26.1542 	 -11.6749
| 12> H 	 -116.779 	 26.6428 	 -12.2993
| 13> C 	 -116.193 	 24.1934 	 -13.6112
| 14> H 	 -116.251 	 23.189 	 -13.9687
| 15> H 	 -115.35 	 24.3506 	 -12.8752
| 16> C 	 -115.81 	 25.0904 	 -14.7739
| 17> H 	 -116.484 	 24.7912 	 -15.5872
| 18> H 	 -116.038 	 26.1273 	 -14.5872
| 19> C 	 -114.406 	 24.8606 	 -15.193
| 20> H 	 -113.598 	 25.1679 	 -14.5114
| 21> H 	 -114.299 	 23.7457 	 -15.3478
| 22> H 	 -114.122 	 25.3938 	 -16.1197
| 23> S 	 -119.239 	 27.3306 	 -9.21032
| 24> C 	 -119.669 	 29.0375 	 -9.16193
| 25> C 	 -119.559 	 29.6177 	 -10.3843
| 26> C 	 -119.074 	 28.7469 	 -11.3916
| 27> C 	 -119.065 	 27.4243 	 -11.003
| 28> H 	 -119.844 	 30.6271 	 -10.6268
| 29> C 	 -118.815 	 29.2505 	 -12.8254
| 30> H 	 -118.041 	 28.6261 	 -13.2617
| 31> H 	 -118.368 	 30.2176 	 -12.8401
| 32> C 	 -119.97 	 29.159 	 -13.7527
| 33> H 	 -120.787 	 29.7443 	 -13.3
| 34> H 	 -120.298 	 28.169 	 -13.7842
| 35> C 	 -119.57 	 29.5479 	 -15.2028
| 36> H 	 -118.998 	 28.7731 	 -15.5947
| 37> H 	 -118.976 	 30.4635 	 -15.2399
| 38> H 	 -120.49 	 29.7259 	 -15.7915
| 39> H 	 -118.658 	 22.8165 	 -13.0121
| 40> H 	 -120.159 	 29.5178 	 -8.32574
| 41> *
| 42>
| 43>                          ****END OF INPUT****

CARTESIAN COORDINATES (ANGSTROEM)
---------------------------------
  S    -119.772000   24.757600  -11.814600
  C    -118.547000   23.824000  -12.613000
  C    -117.462000   24.594900  -12.849800
  C    -117.542000   25.895100  -12.358400
  C    -118.734000   26.154200  -11.674900
  H    -116.779000   26.642800  -12.299300
  C    -116.193000   24.193400  -13.611200
  H    -116.251000   23.189000  -13.968700
  H    -115.350000   24.350600  -12.875200
  C    -115.810000   25.090400  -14.773900
  H    -116.484000   24.791200  -15.587200
  H    -116.038000   26.127300  -14.587200
  C    -114.406000   24.860600  -15.193000
  H    -113.598000   25.167900  -14.511400
  H    -114.299000   23.745700  -15.347800
  H    -114.122000   25.393800  -16.119700
  S    -119.239000   27.330600   -9.210320
  C    -119.669000   29.037500   -9.161930
  C    -119.559000   29.617700  -10.384300
  C    -119.074000   28.746900  -11.391600
  C    -119.065000   27.424300  -11.003000
  H    -119.844000   30.627100  -10.626800
  C    -118.815000   29.250500  -12.825400
  H    -118.041000   28.626100  -13.261700
  H    -118.368000   30.217600  -12.840100
  C    -119.970000   29.159000  -13.752700
  H    -120.787000   29.744300  -13.300000
  H    -120.298000   28.169000  -13.784200
  C    -119.570000   29.547900  -15.202800
  H    -118.998000   28.773100  -15.594700
  H    -118.976000   30.463500  -15.239900
  H    -120.490000   29.725900  -15.791500
  H    -118.658000   22.816500  -13.012100
  H    -120.159000   29.517800   -8.325740

 Total Charge           Charge          ....    0
 Multiplicity           Mult            ....    1
 Number of Electrons    NEL             ....  134
 Basis Dimension        Dim             ....  322

ORBITAL ENERGIES
----------------

  NO   OCC          E(Eh)            E(eV)
   0   2.0000     -88.968809     -2420.9644
   1   2.0000     -88.962169     -2420.7837
   2   2.0000     -10.331826      -281.1433
   3   2.0000     -10.330989      -281.1205
   4   2.0000     -10.315683      -280.7040
   5   2.0000     -10.312718      -280.6233
   6   2.0000     -10.303624      -280.3759
   7   2.0000     -10.295746      -280.1615
   8   2.0000     -10.292653      -280.0773
   9   2.0000     -10.290428      -280.0168
  10   2.0000     -10.290351      -280.0147
  11   2.0000     -10.284281      -279.8495
  12   2.0000     -10.283416      -279.8260
  13   2.0000     -10.282551      -279.8024
  14   2.0000     -10.276642      -279.6416
  15   2.0000     -10.275484      -279.6101
  16   2.0000      -8.083580      -219.9654
  17   2.0000      -8.076289      -219.7670
  18   2.0000      -6.042067      -164.4130
  19   2.0000      -6.037969      -164.3015
  20   2.0000      -6.034923      -164.2186
  21   2.0000      -6.034459      -164.2060
  22   2.0000      -6.031007      -164.1120
  23   2.0000      -6.026824      -163.9982
  24   2.0000      -1.008803       -27.4509
  25   2.0000      -0.987351       -26.8672
  26   2.0000      -0.919460       -25.0198
  27   2.0000      -0.914031       -24.8721
  28   2.0000      -0.872097       -23.7310
  29   2.0000      -0.853069       -23.2132
  30   2.0000      -0.846433       -23.0326
  31   2.0000      -0.814183       -22.1550
  32   2.0000      -0.781999       -21.2793
  33   2.0000      -0.773496       -21.0479
  34   2.0000      -0.709905       -19.3175
  35   2.0000      -0.698042       -18.9947
  36   2.0000      -0.694245       -18.8914
  37   2.0000      -0.663812       -18.0633
  38   2.0000      -0.644971       -17.5505
  39   2.0000      -0.624560       -16.9951
  40   2.0000      -0.600696       -16.3458
  41   2.0000      -0.572707       -15.5841
  42   2.0000      -0.570349       -15.5200
  43   2.0000      -0.566072       -15.4036
  44   2.0000      -0.527798       -14.3621
  45   2.0000      -0.524946       -14.2845
  46   2.0000      -0.517872       -14.0920
  47   2.0000      -0.509475       -13.8635
  48   2.0000      -0.505975       -13.7683
  49   2.0000      -0.502397       -13.6709
  50   2.0000      -0.494559       -13.4576
  51   2.0000      -0.483776       -13.1642
  52   2.0000      -0.474155       -12.9024
  53   2.0000      -0.467420       -12.7191
  54   2.0000      -0.459629       -12.5071
  55   2.0000      -0.449922       -12.2430
  56   2.0000      -0.443802       -12.0765
  57   2.0000      -0.438710       -11.9379
  58   2.0000      -0.433829       -11.8051
  59   2.0000      -0.423613       -11.5271
  60   2.0000      -0.418347       -11.3838
  61   2.0000      -0.418208       -11.3800
  62   2.0000      -0.415360       -11.3025
  63   2.0000      -0.341468        -9.2918
  64   2.0000      -0.332160        -9.0385
  65   2.0000      -0.329500        -8.9661
  66   2.0000      -0.301311        -8.1991
  67   0.0000       0.029271         0.7965
  68   0.0000       0.067640         1.8406
  69   0.0000       0.111680         3.0390
  70   0.0000       0.123676         3.3654
  71   0.0000       0.129106         3.5131

MULLIKEN ATOMIC CHARGES
-----------------------
   0 S :    0.122819
   1 C :   -0.132187
   2 C :   -0.047311
   3 C :    0.025050
   4 C :   -0.164526
   5 H :    0.015435
   6 C :    0.058558
   7 H :    0.012029
   8 H :    0.038738
   9 C :   -0.059492
  10 H :    0.026303
  11 H :    0.024846
  12 C :   -0.068370
  13 H :    0.034806
  14 H :    0.032826
  15 H :    0.035530
  16 S :    0.089509
  17 C :   -0.075041
  18 C :   -0.023694
  19 C :   -0.032634
  20 C :   -0.175542
  21 H :    0.013944
  22 C :    0.072877
  23 H :   -0.003484
  24 H :    0.010458
  25 C :   -0.039042
  26 H :    0.019369
  27 H :    0.016098
  28 C :   -0.028142
  29 H :    0.025477
  30 H :    0.024973
  31 H :    0.041843
  32 H :    0.048113
  33 H :    0.059866
Sum of atomic charges:    0.0000000

LOEWDIN ATOMIC CHARGES
----------------------
   0 S :    0.420590
   1 C :   -0.204475
   2 C :   -0.070793
   3 C :   -0.059363
   4 C :   -0.201362
   5 H :    0.029035
   6 C :   -0.025498
   7 H :    0.021951
   8 H :    0.037782
   9 C :   -0.047399
  10 H :    0.028138
  11 H :    0.018260
  12 C :   -0.071930
  13 H :    0.025317
  14 H :    0.031628
  15 H :    0.029095
  16 S :    0.375620
  17 C :   -0.176323
  18 C :   -0.070497
  19 C :   -0.049841
  20 C :   -0.179119
  21 H :    0.030917
  22 C :   -0.031091
  23 H :    0.025502
  24 H :    0.023457
  25 C :   -0.033506
  26 H :    0.021914
  27 H :    0.018891
  28 C :   -0.055961
  29 H :    0.017902
  30 H :    0.023042
  31 H :    0.032694
  32 H :    0.034596
  33 H :    0.030827

  Mayer bond orders larger than 0.100000
B(  0-S ,  1-C ) :   1.1347 B(  0-S ,  4-C ) :   1.1684 B(  1-C ,  2-C ) :   1.6128
B(  1-C , 32-H ) :   0.9664 B(  2-C ,  3-C ) :   1.2509 B(  2-C ,  6-C ) :   1.0183
B(  3-C ,  4-C ) :   1.5567 B(  3-C ,  5-H ) :   0.9942 B(  4-C , 20-C ) :   1.0221
B(  6-C ,  7-H ) :   0.9422 B(  6-C ,  8-H ) :   0.9441 B(  6-C ,  9-C ) :   1.0564
B(  9-C , 10-H ) :   0.9480 B(  9-C , 11-H ) :   0.9544 B(  9-C , 12-C ) :   1.0901
B( 12-C , 13-H ) :   0.9734 B( 12-C , 14-H ) :   0.9698 B( 12-C , 15-H ) :   0.9707
B( 16-S , 17-C ) :   1.1408 B( 16-S , 20-C ) :   1.1290 B( 17-C , 18-C ) :   1.6272
B( 17-C , 20-C ) :   0.1013 B( 17-C , 33-H ) :   0.9637 B( 18-C , 19-C ) :   1.2286
B( 18-C , 21-H ) :   0.9886 B( 19-C , 20-C ) :   1.6260 B( 19-C , 22-C ) :   1.0433
B( 22-C , 23-H ) :   0.9264 B( 22-C , 24-H ) :   0.9304 B( 22-C , 25-C ) :   1.0784
B( 25-C , 26-H ) :   0.9549 B( 25-C , 27-H ) :   0.9508 B( 25-C , 28-C ) :   1.0734
B( 28-C , 29-H ) :   0.9757 B( 28-C , 30-H ) :   0.9769 B( 28-C , 31-H ) :   0.9741

Dispersion correction           -0.014156388
FINAL SINGLE POINT ENERGY     -1339.882384412854

DIPOLE MOMENT
-------------
                                X             Y             Z
Electronic contribution:    -13.85711      -6.22957      25.85390
Nuclear contribution   :     14.14781       6.48021     -26.44335
                        -----------------------------------------
Total Dipole Moment    :      0.29070       0.25064      -0.58945
                        -----------------------------------------
Magnitude (a.u.)       :      0.70340
Magnitude (Debye)      :      1.78791

Rotational constants in cm-1:     0.016943     0.008990     0.007125
Rotational constants in MHz :   507.934188   269.506983   213.588385

                             ****ORCA TERMINATED NORMALLY****
TOTAL RUN TIME: 0 days 0 hours 0 minutes 22 seconds 571 msec
