                         Program Version 4.2.1 -  RELEASE  -
|  1> ! wB97X-D3 SP def2-SVP
|  2> %pal
|  3> nprocs 24
|  4> end
|  5>
|  6> * xyz 0 1
|  7> S 	 -132.958 	 56.9781 	 -60.9548
|  8> C 	 -132.729 	 57.9606 	 -62.3895
|  9> C 	 -131.952 	 57.2789 	 -63.3101
| 10> C 	 -131.598 	 55.982 	 -62.9057
| 11> C 	 -132.123 	 55.6387 	 -61.712
| 12> H 	 -130.985 	 55.2811 	 -63.3707
| 13> C 	 -131.727 	 57.7753 	 -64.746
| 14> H 	 -131.085 	 57.0468 	 -65.2344
| 15> H 	 -131.129 	 58.6916 	 -64.7132
| 16> C 	 -133.019 	 58.0134 	 -65.5696
| 17> H 	 -133.735 	 57.2225 	 -65.5712
| 18> H 	 -133.489 	 58.8444 	 -65.0316
| 19> C 	 -132.665 	 58.3851 	 -67.0107
| 20> H 	 -132.195 	 57.4789 	 -67.444
| 21> H 	 -133.568 	 58.6904 	 -67.5472
| 22> H 	 -131.901 	 59.1647 	 -67.1528
| 23> S 	 -132.095 	 54.4469 	 -59.1759
| 24> C 	 -131.877 	 52.7524 	 -59.0058
| 25> C 	 -131.473 	 52.211 	 -60.1806
| 26> C 	 -131.548 	 53.1074 	 -61.3345
| 27> C 	 -131.964 	 54.3859 	 -60.947
| 28> H 	 -131.208 	 51.1897 	 -60.1393
| 29> C 	 -131.238 	 52.5832 	 -62.7212
| 30> H 	 -130.898 	 51.5449 	 -62.6061
| 31> H 	 -130.36 	 53.1366 	 -63.1194
| 32> C 	 -132.442 	 52.3864 	 -63.6905
| 33> H 	 -132.782 	 53.4035 	 -63.9448
| 34> H 	 -133.22 	 51.7276 	 -63.3487
| 35> C 	 -132.078 	 51.8938 	 -65.0601
| 36> H 	 -131.901 	 50.7959 	 -64.998
| 37> H 	 -131.276 	 52.475 	 -65.5868
| 38> H 	 -132.929 	 52.0006 	 -65.7502
| 39> H 	 -133.052 	 59.0294 	 -62.5076
| 40> H 	 -132.048 	 52.1256 	 -58.1117
| 41> *
| 42>
| 43>                          ****END OF INPUT****

CARTESIAN COORDINATES (ANGSTROEM)
---------------------------------
  S    -132.958000   56.978100  -60.954800
  C    -132.729000   57.960600  -62.389500
  C    -131.952000   57.278900  -63.310100
  C    -131.598000   55.982000  -62.905700
  C    -132.123000   55.638700  -61.712000
  H    -130.985000   55.281100  -63.370700
  C    -131.727000   57.775300  -64.746000
  H    -131.085000   57.046800  -65.234400
  H    -131.129000   58.691600  -64.713200
  C    -133.019000   58.013400  -65.569600
  H    -133.735000   57.222500  -65.571200
  H    -133.489000   58.844400  -65.031600
  C    -132.665000   58.385100  -67.010700
  H    -132.195000   57.478900  -67.444000
  H    -133.568000   58.690400  -67.547200
  H    -131.901000   59.164700  -67.152800
  S    -132.095000   54.446900  -59.175900
  C    -131.877000   52.752400  -59.005800
  C    -131.473000   52.211000  -60.180600
  C    -131.548000   53.107400  -61.334500
  C    -131.964000   54.385900  -60.947000
  H    -131.208000   51.189700  -60.139300
  C    -131.238000   52.583200  -62.721200
  H    -130.898000   51.544900  -62.606100
  H    -130.360000   53.136600  -63.119400
  C    -132.442000   52.386400  -63.690500
  H    -132.782000   53.403500  -63.944800
  H    -133.220000   51.727600  -63.348700
  C    -132.078000   51.893800  -65.060100
  H    -131.901000   50.795900  -64.998000
  H    -131.276000   52.475000  -65.586800
  H    -132.929000   52.000600  -65.750200
  H    -133.052000   59.029400  -62.507600
  H    -132.048000   52.125600  -58.111700

 Total Charge           Charge          ....    0
 Multiplicity           Mult            ....    1
 Number of Electrons    NEL             ....  134
 Basis Dimension        Dim             ....  322

ORBITAL ENERGIES
----------------

  NO   OCC          E(Eh)            E(eV)
   0   2.0000     -88.965854     -2420.8840
   1   2.0000     -88.962893     -2420.8034
   2   2.0000     -10.332310      -281.1565
   3   2.0000     -10.328556      -281.0543
   4   2.0000     -10.316670      -280.7309
   5   2.0000     -10.313552      -280.6460
   6   2.0000     -10.308809      -280.5170
   7   2.0000     -10.299575      -280.2657
   8   2.0000     -10.299298      -280.2582
   9   2.0000     -10.292735      -280.0796
  10   2.0000     -10.288910      -279.9755
  11   2.0000     -10.286921      -279.9214
  12   2.0000     -10.286339      -279.9055
  13   2.0000     -10.285582      -279.8849
  14   2.0000     -10.282245      -279.7941
  15   2.0000     -10.282227      -279.7936
  16   2.0000      -8.080547      -219.8829
  17   2.0000      -8.077952      -219.8123
  18   2.0000      -6.039052      -164.3309
  19   2.0000      -6.036602      -164.2643
  20   2.0000      -6.035107      -164.2236
  21   2.0000      -6.032481      -164.1522
  22   2.0000      -6.031264      -164.1190
  23   2.0000      -6.028477      -164.0432
  24   2.0000      -1.009214       -27.4621
  25   2.0000      -0.986445       -26.8425
  26   2.0000      -0.910799       -24.7841
  27   2.0000      -0.910087       -24.7647
  28   2.0000      -0.869376       -23.6569
  29   2.0000      -0.857592       -23.3363
  30   2.0000      -0.847583       -23.0639
  31   2.0000      -0.818770       -22.2799
  32   2.0000      -0.780983       -21.2516
  33   2.0000      -0.768636       -20.9157
  34   2.0000      -0.706533       -19.2257
  35   2.0000      -0.701396       -19.0860
  36   2.0000      -0.686036       -18.6680
  37   2.0000      -0.664443       -18.0804
  38   2.0000      -0.639643       -17.4056
  39   2.0000      -0.623068       -16.9546
  40   2.0000      -0.592119       -16.1124
  41   2.0000      -0.576013       -15.6741
  42   2.0000      -0.569058       -15.4849
  43   2.0000      -0.559807       -15.2331
  44   2.0000      -0.527207       -14.3460
  45   2.0000      -0.525477       -14.2990
  46   2.0000      -0.518781       -14.1168
  47   2.0000      -0.511450       -13.9173
  48   2.0000      -0.508302       -13.8316
  49   2.0000      -0.499498       -13.5920
  50   2.0000      -0.493812       -13.4373
  51   2.0000      -0.488373       -13.2893
  52   2.0000      -0.475359       -12.9352
  53   2.0000      -0.462765       -12.5925
  54   2.0000      -0.459040       -12.4911
  55   2.0000      -0.452279       -12.3071
  56   2.0000      -0.443530       -12.0691
  57   2.0000      -0.441424       -12.0118
  58   2.0000      -0.434985       -11.8365
  59   2.0000      -0.423210       -11.5161
  60   2.0000      -0.418729       -11.3942
  61   2.0000      -0.414400       -11.2764
  62   2.0000      -0.399256       -10.8643
  63   2.0000      -0.359453        -9.7812
  64   2.0000      -0.335124        -9.1192
  65   2.0000      -0.326627        -8.8880
  66   2.0000      -0.285656        -7.7731
  67   0.0000       0.021134         0.5751
  68   0.0000       0.086516         2.3542
  69   0.0000       0.098566         2.6821
  70   0.0000       0.120491         3.2787
  71   0.0000       0.133505         3.6329

MULLIKEN ATOMIC CHARGES
-----------------------
   0 S :    0.102935
   1 C :   -0.148094
   2 C :   -0.060922
   3 C :    0.026203
   4 C :   -0.114432
   5 H :   -0.033915
   6 C :    0.048350
   7 H :    0.007970
   8 H :    0.032614
   9 C :   -0.051215
  10 H :    0.032189
  11 H :    0.020984
  12 C :   -0.058239
  13 H :    0.031591
  14 H :    0.042793
  15 H :    0.029976
  16 S :    0.091513
  17 C :   -0.092987
  18 C :   -0.027886
  19 C :   -0.054227
  20 C :   -0.104295
  21 H :    0.001511
  22 C :    0.037533
  23 H :    0.010018
  24 H :    0.048982
  25 C :   -0.050598
  26 H :    0.028399
  27 H :    0.038826
  28 C :   -0.077448
  29 H :    0.032561
  30 H :    0.034772
  31 H :    0.033555
  32 H :    0.072016
  33 H :    0.068967
Sum of atomic charges:   -0.0000000

LOEWDIN ATOMIC CHARGES
----------------------
   0 S :    0.401962
   1 C :   -0.205023
   2 C :   -0.063118
   3 C :   -0.064300
   4 C :   -0.176627
   5 H :    0.021515
   6 C :   -0.029650
   7 H :    0.021401
   8 H :    0.032351
   9 C :   -0.034522
  10 H :    0.023142
  11 H :    0.021390
  12 C :   -0.068524
  13 H :    0.028175
  14 H :    0.028344
  15 H :    0.024893
  16 S :    0.396381
  17 C :   -0.198659
  18 C :   -0.072061
  19 C :   -0.057878
  20 C :   -0.183526
  21 H :    0.024351
  22 C :   -0.038824
  23 H :    0.031022
  24 H :    0.034436
  25 C :   -0.040398
  26 H :    0.025092
  27 H :    0.029413
  28 C :   -0.073080
  29 H :    0.023465
  30 H :    0.027319
  31 H :    0.028485
  32 H :    0.040920
  33 H :    0.042135

  Mayer bond orders larger than 0.100000
B(  0-S ,  1-C ) :   1.1339 B(  0-S ,  4-C ) :   1.1499 B(  1-C ,  2-C ) :   1.6029
B(  1-C , 32-H ) :   0.9640 B(  2-C ,  3-C ) :   1.2427 B(  2-C ,  6-C ) :   1.0197
B(  3-C ,  4-C ) :   1.5791 B(  3-C ,  5-H ) :   1.0033 B(  4-C , 20-C ) :   1.0607
B(  6-C ,  7-H ) :   0.9499 B(  6-C ,  8-H ) :   0.9348 B(  6-C ,  9-C ) :   1.0561
B(  9-C , 10-H ) :   0.9604 B(  9-C , 11-H ) :   0.9520 B(  9-C , 12-C ) :   1.0790
B( 12-C , 13-H ) :   0.9750 B( 12-C , 14-H ) :   0.9737 B( 12-C , 15-H ) :   0.9756
B( 16-S , 17-C ) :   1.1426 B( 16-S , 20-C ) :   1.1310 B( 17-C , 18-C ) :   1.6405
B( 17-C , 33-H ) :   0.9602 B( 18-C , 19-C ) :   1.2278 B( 18-C , 21-H ) :   0.9936
B( 19-C , 20-C ) :   1.5960 B( 19-C , 22-C ) :   1.0471 B( 22-C , 23-H ) :   0.9290
B( 22-C , 24-H ) :   0.9301 B( 22-C , 25-C ) :   1.0626 B( 25-C , 26-H ) :   0.9533
B( 25-C , 27-H ) :   0.9555 B( 25-C , 28-C ) :   1.0909 B( 28-C , 29-H ) :   0.9739
B( 28-C , 30-H ) :   0.9724 B( 28-C , 31-H ) :   0.9723

Dispersion correction           -0.013807103
FINAL SINGLE POINT ENERGY     -1339.878548410689

DIPOLE MOMENT
-------------
                                X             Y             Z
Electronic contribution:     -1.00195       3.25027      32.63997
Nuclear contribution   :      1.11594      -3.52862     -33.26359
                        -----------------------------------------
Total Dipole Moment    :      0.11399      -0.27835      -0.62362
                        -----------------------------------------
Magnitude (a.u.)       :      0.69237
Magnitude (Debye)      :      1.75986

Rotational constants in cm-1:     0.018758     0.008860     0.006280
Rotational constants in MHz :   562.361842   265.621598   188.270695

                             ****ORCA TERMINATED NORMALLY****
TOTAL RUN TIME: 0 days 0 hours 0 minutes 20 seconds 472 msec
