                         Program Version 4.2.1 -  RELEASE  -
|  1> ! wB97X-D3 SP def2-SVP
|  2> %pal
|  3> nprocs 24
|  4> end
|  5>
|  6> * xyz 0 1
|  7> S 	 -121.192 	 49.4122 	 -26.8773
|  8> C 	 -120.599 	 48.0992 	 -27.9201
|  9> C 	 -121.535 	 47.7153 	 -28.8714
| 10> C 	 -122.717 	 48.511 	 -28.8151
| 11> C 	 -122.687 	 49.4322 	 -27.789
| 12> H 	 -123.583 	 48.3052 	 -29.4527
| 13> C 	 -121.376 	 46.4889 	 -29.7561
| 14> H 	 -120.358 	 46.149 	 -30.0027
| 15> H 	 -121.549 	 46.7687 	 -30.8415
| 16> C 	 -122.374 	 45.3231 	 -29.4528
| 17> H 	 -122.351 	 45.0568 	 -28.3694
| 18> H 	 -123.387 	 45.5768 	 -29.5973
| 19> C 	 -121.984 	 44.0556 	 -30.2448
| 20> H 	 -122.742 	 43.2824 	 -30.0036
| 21> H 	 -121.85 	 44.2171 	 -31.2311
| 22> H 	 -121.087 	 43.6403 	 -29.8485
| 23> S 	 -123.027 	 52.0067 	 -26.7462
| 24> C 	 -124.539 	 52.4763 	 -26.0858
| 25> C 	 -125.52 	 51.6213 	 -26.5028
| 26> C 	 -125.031 	 50.4768 	 -27.2096
| 27> C 	 -123.662 	 50.4661 	 -27.2978
| 28> H 	 -126.529 	 51.7624 	 -26.2998
| 29> C 	 -125.941 	 49.2772 	 -27.4353
| 30> H 	 -126.811 	 49.1487 	 -26.6864
| 31> H 	 -125.311 	 48.4212 	 -27.247
| 32> C 	 -126.545 	 49.1481 	 -28.8896
| 33> H 	 -125.759 	 48.9781 	 -29.7142
| 34> H 	 -127.062 	 50.0872 	 -29.2335
| 35> C 	 -127.518 	 47.8957 	 -29.0764
| 36> H 	 -126.958 	 46.9936 	 -29.3624
| 37> H 	 -128.205 	 48.2005 	 -29.8268
| 38> H 	 -127.976 	 47.8067 	 -28.1375
| 39> H 	 -119.657 	 47.5867 	 -27.7107
| 40> H 	 -124.755 	 53.3511 	 -25.5214
| 41> *
| 42>
| 43>                          ****END OF INPUT****

CARTESIAN COORDINATES (ANGSTROEM)
---------------------------------
  S    -121.192000   49.412200  -26.877300
  C    -120.599000   48.099200  -27.920100
  C    -121.535000   47.715300  -28.871400
  C    -122.717000   48.511000  -28.815100
  C    -122.687000   49.432200  -27.789000
  H    -123.583000   48.305200  -29.452700
  C    -121.376000   46.488900  -29.756100
  H    -120.358000   46.149000  -30.002700
  H    -121.549000   46.768700  -30.841500
  C    -122.374000   45.323100  -29.452800
  H    -122.351000   45.056800  -28.369400
  H    -123.387000   45.576800  -29.597300
  C    -121.984000   44.055600  -30.244800
  H    -122.742000   43.282400  -30.003600
  H    -121.850000   44.217100  -31.231100
  H    -121.087000   43.640300  -29.848500
  S    -123.027000   52.006700  -26.746200
  C    -124.539000   52.476300  -26.085800
  C    -125.520000   51.621300  -26.502800
  C    -125.031000   50.476800  -27.209600
  C    -123.662000   50.466100  -27.297800
  H    -126.529000   51.762400  -26.299800
  C    -125.941000   49.277200  -27.435300
  H    -126.811000   49.148700  -26.686400
  H    -125.311000   48.421200  -27.247000
  C    -126.545000   49.148100  -28.889600
  H    -125.759000   48.978100  -29.714200
  H    -127.062000   50.087200  -29.233500
  C    -127.518000   47.895700  -29.076400
  H    -126.958000   46.993600  -29.362400
  H    -128.205000   48.200500  -29.826800
  H    -127.976000   47.806700  -28.137500
  H    -119.657000   47.586700  -27.710700
  H    -124.755000   53.351100  -25.521400

 Total Charge           Charge          ....    0
 Multiplicity           Mult            ....    1
 Number of Electrons    NEL             ....  134
 Basis Dimension        Dim             ....  322

ORBITAL ENERGIES
----------------

  NO   OCC          E(Eh)            E(eV)
   0   2.0000     -88.966884     -2420.9120
   1   2.0000     -88.964719     -2420.8531
   2   2.0000     -10.336403      -281.2678
   3   2.0000     -10.329333      -281.0754
   4   2.0000     -10.315676      -280.7038
   5   2.0000     -10.310965      -280.5756
   6   2.0000     -10.305124      -280.4167
   7   2.0000     -10.301388      -280.3150
   8   2.0000     -10.300973      -280.3037
   9   2.0000     -10.300289      -280.2851
  10   2.0000     -10.299732      -280.2699
  11   2.0000     -10.299218      -280.2560
  12   2.0000     -10.289701      -279.9970
  13   2.0000     -10.285628      -279.8862
  14   2.0000     -10.276434      -279.6360
  15   2.0000     -10.271758      -279.5087
  16   2.0000      -8.081259      -219.9022
  17   2.0000      -8.079982      -219.8675
  18   2.0000      -6.039739      -164.3497
  19   2.0000      -6.038486      -164.3156
  20   2.0000      -6.035864      -164.2442
  21   2.0000      -6.034404      -164.2045
  22   2.0000      -6.031998      -164.1390
  23   2.0000      -6.030713      -164.1040
  24   2.0000      -1.008820       -27.4514
  25   2.0000      -0.985282       -26.8109
  26   2.0000      -0.908191       -24.7131
  27   2.0000      -0.898484       -24.4490
  28   2.0000      -0.867619       -23.6091
  29   2.0000      -0.851640       -23.1743
  30   2.0000      -0.844367       -22.9764
  31   2.0000      -0.817056       -22.2332
  32   2.0000      -0.781807       -21.2741
  33   2.0000      -0.771416       -20.9913
  34   2.0000      -0.711233       -19.3536
  35   2.0000      -0.696323       -18.9479
  36   2.0000      -0.689659       -18.7666
  37   2.0000      -0.665961       -18.1217
  38   2.0000      -0.643107       -17.4998
  39   2.0000      -0.624775       -17.0010
  40   2.0000      -0.598500       -16.2860
  41   2.0000      -0.569266       -15.4905
  42   2.0000      -0.557649       -15.1744
  43   2.0000      -0.553584       -15.0638
  44   2.0000      -0.532831       -14.4991
  45   2.0000      -0.527702       -14.3595
  46   2.0000      -0.518664       -14.1136
  47   2.0000      -0.508912       -13.8482
  48   2.0000      -0.506555       -13.7841
  49   2.0000      -0.499238       -13.5850
  50   2.0000      -0.489818       -13.3286
  51   2.0000      -0.478932       -13.0324
  52   2.0000      -0.470604       -12.8058
  53   2.0000      -0.468317       -12.7436
  54   2.0000      -0.458589       -12.4788
  55   2.0000      -0.454617       -12.3708
  56   2.0000      -0.446489       -12.1496
  57   2.0000      -0.442881       -12.0514
  58   2.0000      -0.432434       -11.7671
  59   2.0000      -0.424554       -11.5527
  60   2.0000      -0.418553       -11.3894
  61   2.0000      -0.410807       -11.1786
  62   2.0000      -0.407307       -11.0834
  63   2.0000      -0.350641        -9.5414
  64   2.0000      -0.334677        -9.1070
  65   2.0000      -0.328903        -8.9499
  66   2.0000      -0.291385        -7.9290
  67   0.0000       0.026369         0.7175
  68   0.0000       0.077768         2.1162
  69   0.0000       0.105156         2.8615
  70   0.0000       0.120507         3.2792
  71   0.0000       0.121019         3.2931

MULLIKEN ATOMIC CHARGES
-----------------------
   0 S :    0.098168
   1 C :   -0.127423
   2 C :   -0.054287
   3 C :    0.028580
   4 C :   -0.124453
   5 H :    0.010003
   6 C :    0.018040
   7 H :    0.019279
   8 H :    0.024626
   9 C :   -0.072642
  10 H :    0.033895
  11 H :    0.020179
  12 C :   -0.009603
  13 H :    0.035720
  14 H :    0.012973
  15 H :    0.020675
  16 S :    0.107338
  17 C :   -0.069089
  18 C :   -0.014184
  19 C :    0.002666
  20 C :   -0.142903
  21 H :   -0.010096
  22 C :    0.013354
  23 H :    0.043996
  24 H :    0.030673
  25 C :   -0.158765
  26 H :    0.037860
  27 H :    0.040327
  28 C :   -0.009832
  29 H :    0.043557
  30 H :    0.034322
  31 H :    0.016611
  32 H :    0.053129
  33 H :    0.047305
Sum of atomic charges:   -0.0000000

LOEWDIN ATOMIC CHARGES
----------------------
   0 S :    0.396393
   1 C :   -0.188557
   2 C :   -0.061743
   3 C :   -0.065494
   4 C :   -0.177614
   5 H :    0.034423
   6 C :   -0.046539
   7 H :    0.032232
   8 H :    0.036877
   9 C :   -0.034523
  10 H :    0.028918
  11 H :    0.013885
  12 C :   -0.052341
  13 H :    0.034264
  14 H :    0.007140
  15 H :    0.023208
  16 S :    0.411878
  17 C :   -0.189091
  18 C :   -0.060567
  19 C :   -0.063198
  20 C :   -0.194238
  21 H :    0.019105
  22 C :   -0.038115
  23 H :    0.037994
  24 H :    0.029725
  25 C :   -0.050296
  26 H :    0.024592
  27 H :    0.025011
  28 C :   -0.057247
  29 H :    0.028153
  30 H :    0.025184
  31 H :    0.014494
  32 H :    0.028660
  33 H :    0.027425

  Mayer bond orders larger than 0.100000
B(  0-S ,  1-C ) :   1.1263 B(  0-S ,  4-C ) :   1.1616 B(  1-C ,  2-C ) :   1.6191
B(  1-C , 32-H ) :   0.9687 B(  2-C ,  3-C ) :   1.2350 B(  2-C ,  6-C ) :   1.0256
B(  3-C ,  4-C ) :   1.5710 B(  3-C ,  5-H ) :   0.9926 B(  4-C , 20-C ) :   1.0059
B(  6-C ,  7-H ) :   0.9519 B(  6-C ,  8-H ) :   0.9310 B(  6-C ,  9-C ) :   1.0427
B(  9-C , 10-H ) :   0.9595 B(  9-C , 11-H ) :   0.9581 B(  9-C , 12-C ) :   1.0820
B( 12-C , 13-H ) :   0.9726 B( 12-C , 14-H ) :   0.9773 B( 12-C , 15-H ) :   0.9755
B( 16-S , 17-C ) :   1.1446 B( 16-S , 20-C ) :   1.1467 B( 17-C , 18-C ) :   1.6029
B( 17-C , 33-H ) :   0.9734 B( 18-C , 19-C ) :   1.2436 B( 18-C , 21-H ) :   1.0026
B( 19-C , 20-C ) :   1.6078 B( 19-C , 22-C ) :   1.0351 B( 22-C , 23-H ) :   0.9481
B( 22-C , 24-H ) :   0.9394 B( 22-C , 25-C ) :   1.0430 B( 25-C , 26-H ) :   0.9565
B( 25-C , 27-H ) :   0.9636 B( 25-C , 28-C ) :   1.0589 B( 28-C , 29-H ) :   0.9804
B( 28-C , 30-H ) :   0.9777 B( 28-C , 31-H ) :   0.9779

Dispersion correction           -0.013894912
FINAL SINGLE POINT ENERGY     -1339.865936313151

DIPOLE MOMENT
-------------
                                X             Y             Z
Electronic contribution:     14.47393      26.10591      15.41850
Nuclear contribution   :    -14.88293     -26.63095     -15.61961
                        -----------------------------------------
Total Dipole Moment    :     -0.40900      -0.52504      -0.20110
                        -----------------------------------------
Magnitude (a.u.)       :      0.69526
Magnitude (Debye)      :      1.76722

Rotational constants in cm-1:     0.017601     0.009138     0.006245
Rotational constants in MHz :   527.673659   273.942563   187.208612

                             ****ORCA TERMINATED NORMALLY****
TOTAL RUN TIME: 0 days 0 hours 0 minutes 20 seconds 228 msec
