                         Program Version 4.2.1 -  RELEASE  -
|  1> ! wB97X-D3 SP def2-SVP
|  2> %pal
|  3> nprocs 24
|  4> end
|  5>
|  6> * xyz 0 1
|  7> S 	 -90.617 	 -34.8356 	 -66.4632
|  8> C 	 -91.5699 	 -35.8452 	 -67.5568
|  9> C 	 -92.9223 	 -35.4087 	 -67.6777
| 10> C 	 -93.0919 	 -34.1154 	 -66.9998
| 11> C 	 -91.9866 	 -33.722 	 -66.2839
| 12> H 	 -93.9459 	 -33.4738 	 -66.9872
| 13> C 	 -94.0502 	 -36.084 	 -68.3947
| 14> H 	 -93.6031 	 -36.6745 	 -69.1512
| 15> H 	 -94.6557 	 -35.3166 	 -68.8371
| 16> C 	 -94.8918 	 -36.9524 	 -67.4217
| 17> H 	 -94.2375 	 -37.7735 	 -67.007
| 18> H 	 -95.1789 	 -36.3333 	 -66.5545
| 19> C 	 -96.0634 	 -37.6422 	 -68.0933
| 20> H 	 -95.8689 	 -38.4161 	 -68.9335
| 21> H 	 -96.5772 	 -38.2315 	 -67.363
| 22> H 	 -96.6861 	 -36.8374 	 -68.5808
| 23> S 	 -91.1225 	 -32.3519 	 -64.0189
| 24> C 	 -91.046 	 -30.6032 	 -64.1072
| 25> C 	 -91.5274 	 -30.0785 	 -65.2646
| 26> C 	 -91.8295 	 -31.1316 	 -66.2392
| 27> C 	 -91.7832 	 -32.39 	 -65.6844
| 28> H 	 -91.5487 	 -29.0446 	 -65.4376
| 29> C 	 -92.3014 	 -30.8032 	 -67.6379
| 30> H 	 -93.3473 	 -30.654 	 -67.5976
| 31> H 	 -92.1317 	 -31.6847 	 -68.2966
| 32> C 	 -91.4982 	 -29.6427 	 -68.3434
| 33> H 	 -90.5502 	 -30.013 	 -68.6526
| 34> H 	 -91.3463 	 -28.6823 	 -67.7099
| 35> C 	 -92.2179 	 -29.3845 	 -69.7242
| 36> H 	 -91.8595 	 -28.5396 	 -70.1867
| 37> H 	 -93.2906 	 -29.1552 	 -69.4221
| 38> H 	 -92.2898 	 -30.3101 	 -70.3639
| 39> H 	 -91.2492 	 -36.7046 	 -68.1194
| 40> H 	 -90.8916 	 -29.966 	 -63.2271
| 41> *
| 42>
| 43>                          ****END OF INPUT****

CARTESIAN COORDINATES (ANGSTROEM)
---------------------------------
  S    -90.617000  -34.835600  -66.463200
  C    -91.569900  -35.845200  -67.556800
  C    -92.922300  -35.408700  -67.677700
  C    -93.091900  -34.115400  -66.999800
  C    -91.986600  -33.722000  -66.283900
  H    -93.945900  -33.473800  -66.987200
  C    -94.050200  -36.084000  -68.394700
  H    -93.603100  -36.674500  -69.151200
  H    -94.655700  -35.316600  -68.837100
  C    -94.891800  -36.952400  -67.421700
  H    -94.237500  -37.773500  -67.007000
  H    -95.178900  -36.333300  -66.554500
  C    -96.063400  -37.642200  -68.093300
  H    -95.868900  -38.416100  -68.933500
  H    -96.577200  -38.231500  -67.363000
  H    -96.686100  -36.837400  -68.580800
  S    -91.122500  -32.351900  -64.018900
  C    -91.046000  -30.603200  -64.107200
  C    -91.527400  -30.078500  -65.264600
  C    -91.829500  -31.131600  -66.239200
  C    -91.783200  -32.390000  -65.684400
  H    -91.548700  -29.044600  -65.437600
  C    -92.301400  -30.803200  -67.637900
  H    -93.347300  -30.654000  -67.597600
  H    -92.131700  -31.684700  -68.296600
  C    -91.498200  -29.642700  -68.343400
  H    -90.550200  -30.013000  -68.652600
  H    -91.346300  -28.682300  -67.709900
  C    -92.217900  -29.384500  -69.724200
  H    -91.859500  -28.539600  -70.186700
  H    -93.290600  -29.155200  -69.422100
  H    -92.289800  -30.310100  -70.363900
  H    -91.249200  -36.704600  -68.119400
  H    -90.891600  -29.966000  -63.227100

 Total Charge           Charge          ....    0
 Multiplicity           Mult            ....    1
 Number of Electrons    NEL             ....  134
 Basis Dimension        Dim             ....  322

ORBITAL ENERGIES
----------------

  NO   OCC          E(Eh)            E(eV)
   0   2.0000     -88.968178     -2420.9472
   1   2.0000     -88.961442     -2420.7639
   2   2.0000     -10.328747      -281.0595
   3   2.0000     -10.326066      -280.9865
   4   2.0000     -10.319281      -280.8019
   5   2.0000     -10.315887      -280.7096
   6   2.0000     -10.308210      -280.5006
   7   2.0000     -10.304708      -280.4054
   8   2.0000     -10.296849      -280.1915
   9   2.0000     -10.295737      -280.1613
  10   2.0000     -10.293266      -280.0940
  11   2.0000     -10.292902      -280.0841
  12   2.0000     -10.290995      -280.0322
  13   2.0000     -10.289564      -279.9933
  14   2.0000     -10.287000      -279.9235
  15   2.0000     -10.282638      -279.8048
  16   2.0000      -8.081957      -219.9212
  17   2.0000      -8.075916      -219.7569
  18   2.0000      -6.040618      -164.3736
  19   2.0000      -6.036623      -164.2649
  20   2.0000      -6.034520      -164.2076
  21   2.0000      -6.032576      -164.1547
  22   2.0000      -6.030629      -164.1018
  23   2.0000      -6.026439      -163.9877
  24   2.0000      -0.998170       -27.1616
  25   2.0000      -0.975160       -26.5354
  26   2.0000      -0.912576       -24.8325
  27   2.0000      -0.902763       -24.5654
  28   2.0000      -0.865375       -23.5480
  29   2.0000      -0.849056       -23.1040
  30   2.0000      -0.842851       -22.9351
  31   2.0000      -0.815709       -22.1966
  32   2.0000      -0.779394       -21.2084
  33   2.0000      -0.765725       -20.8364
  34   2.0000      -0.702770       -19.1234
  35   2.0000      -0.696226       -18.9453
  36   2.0000      -0.693214       -18.8633
  37   2.0000      -0.656800       -17.8724
  38   2.0000      -0.642592       -17.4858
  39   2.0000      -0.616456       -16.7746
  40   2.0000      -0.595198       -16.1962
  41   2.0000      -0.572255       -15.5718
  42   2.0000      -0.562756       -15.3134
  43   2.0000      -0.556739       -15.1496
  44   2.0000      -0.526936       -14.3387
  45   2.0000      -0.526552       -14.3282
  46   2.0000      -0.518315       -14.1041
  47   2.0000      -0.510025       -13.8785
  48   2.0000      -0.505905       -13.7664
  49   2.0000      -0.497847       -13.5471
  50   2.0000      -0.491634       -13.3780
  51   2.0000      -0.469560       -12.7774
  52   2.0000      -0.466661       -12.6985
  53   2.0000      -0.462297       -12.5797
  54   2.0000      -0.456936       -12.4339
  55   2.0000      -0.452557       -12.3147
  56   2.0000      -0.442418       -12.0388
  57   2.0000      -0.437065       -11.8931
  58   2.0000      -0.431632       -11.7453
  59   2.0000      -0.427957       -11.6453
  60   2.0000      -0.423064       -11.5122
  61   2.0000      -0.413189       -11.2434
  62   2.0000      -0.411522       -11.1981
  63   2.0000      -0.343101        -9.3362
  64   2.0000      -0.329797        -8.9742
  65   2.0000      -0.327962        -8.9243
  66   2.0000      -0.293524        -7.9872
  67   0.0000       0.037183         1.0118
  68   0.0000       0.062704         1.7063
  69   0.0000       0.109456         2.9784
  70   0.0000       0.119053         3.2396
  71   0.0000       0.129374         3.5204

MULLIKEN ATOMIC CHARGES
-----------------------
   0 S :    0.117644
   1 C :   -0.109796
   2 C :   -0.123927
   3 C :    0.014989
   4 C :   -0.119245
   5 H :    0.007977
   6 C :    0.117942
   7 H :    0.009039
   8 H :    0.018215
   9 C :   -0.097785
  10 H :    0.033670
  11 H :    0.040628
  12 C :   -0.056811
  13 H :    0.041060
  14 H :    0.036358
  15 H :    0.035341
  16 S :    0.085555
  17 C :   -0.083176
  18 C :   -0.009579
  19 C :   -0.023144
  20 C :   -0.181965
  21 H :    0.003601
  22 C :    0.034060
  23 H :    0.034992
  24 H :    0.042735
  25 C :   -0.109040
  26 H :    0.034653
  27 H :    0.052098
  28 C :   -0.045604
  29 H :    0.024232
  30 H :    0.023073
  31 H :    0.047312
  32 H :    0.041346
  33 H :    0.063551
Sum of atomic charges:    0.0000000

LOEWDIN ATOMIC CHARGES
----------------------
   0 S :    0.391177
   1 C :   -0.197189
   2 C :   -0.051794
   3 C :   -0.059489
   4 C :   -0.188938
   5 H :    0.028653
   6 C :   -0.028400
   7 H :    0.025413
   8 H :    0.027682
   9 C :   -0.042550
  10 H :    0.030334
  11 H :    0.029390
  12 C :   -0.077156
  13 H :    0.034331
  14 H :    0.023690
  15 H :    0.028270
  16 S :    0.372389
  17 C :   -0.177811
  18 C :   -0.065270
  19 C :   -0.048864
  20 C :   -0.190166
  21 H :    0.022641
  22 C :   -0.032412
  23 H :    0.024962
  24 H :    0.040156
  25 C :   -0.037828
  26 H :    0.020958
  27 H :    0.031053
  28 C :   -0.064285
  29 H :    0.011068
  30 H :    0.027319
  31 H :    0.033809
  32 H :    0.025698
  33 H :    0.033159

  Mayer bond orders larger than 0.100000
B(  0-S ,  1-C ) :   1.1306 B(  0-S ,  4-C ) :   1.1302 B(  1-C ,  2-C ) :   1.6279
B(  1-C , 32-H ) :   0.9667 B(  2-C ,  3-C ) :   1.1927 B(  2-C ,  6-C ) :   1.0406
B(  3-C ,  4-C ) :   1.6163 B(  3-C ,  5-H ) :   0.9988 B(  4-C , 20-C ) :   1.0209
B(  6-C ,  7-H ) :   0.9317 B(  6-C ,  8-H ) :   0.9349 B(  6-C ,  9-C ) :   1.0610
B(  9-C , 10-H ) :   0.9532 B(  9-C , 11-H ) :   0.9563 B(  9-C , 12-C ) :   1.0811
B( 12-C , 13-H ) :   0.9735 B( 12-C , 14-H ) :   0.9727 B( 12-C , 15-H ) :   0.9719
B( 16-S , 17-C ) :   1.1388 B( 16-S , 20-C ) :   1.1093 B( 17-C , 18-C ) :   1.6688
B( 17-C , 33-H ) :   0.9568 B( 18-C , 19-C ) :   1.1840 B( 18-C , 21-H ) :   0.9927
B( 19-C , 20-C ) :   1.6509 B( 19-C , 22-C ) :   1.0368 B( 22-C , 23-H ) :   0.9450
B( 22-C , 24-H ) :   0.9339 B( 22-C , 25-C ) :   1.0478 B( 25-C , 26-H ) :   0.9581
B( 25-C , 27-H ) :   0.9583 B( 25-C , 28-C ) :   1.0708 B( 28-C , 29-H ) :   0.9749
B( 28-C , 30-H ) :   0.9781 B( 28-C , 31-H ) :   0.9734

Dispersion correction           -0.013647317
FINAL SINGLE POINT ENERGY     -1339.870312461619

DIPOLE MOMENT
-------------
                                X             Y             Z
Electronic contribution:     17.61890      -0.53537      20.28281
Nuclear contribution   :    -18.09367       0.73175     -20.82745
                        -----------------------------------------
Total Dipole Moment    :     -0.47476       0.19638      -0.54464
                        -----------------------------------------
Magnitude (a.u.)       :      0.74873
Magnitude (Debye)      :      1.90312

Rotational constants in cm-1:     0.017962     0.007707     0.006313
Rotational constants in MHz :   538.485475   231.061765   189.252489

                             ****ORCA TERMINATED NORMALLY****
TOTAL RUN TIME: 0 days 0 hours 0 minutes 20 seconds 964 msec
