                         Program Version 4.2.1 -  RELEASE  -
|  1> ! wB97X-D3 SP def2-SVP
|  2> %pal
|  3> nprocs 24
|  4> end
|  5>
|  6> * xyz 0 1
|  7> S 	 45.409 	 -14.9641 	 -117.41
|  8> C 	 46.5204 	 -15.0446 	 -116.068
|  9> C 	 47.7981 	 -15.1956 	 -116.554
| 10> C 	 47.8985 	 -15.3619 	 -117.982
| 11> C 	 46.6743 	 -15.275 	 -118.562
| 12> H 	 48.8105 	 -15.4801 	 -118.584
| 13> C 	 49.0027 	 -15.1659 	 -115.752
| 14> H 	 49.8178 	 -15.5412 	 -116.371
| 15> H 	 48.9699 	 -15.893 	 -114.901
| 16> C 	 49.4125 	 -13.7769 	 -115.222
| 17> H 	 48.6242 	 -13.3703 	 -114.564
| 18> H 	 50.303 	 -13.8278 	 -114.599
| 19> C 	 49.6519 	 -12.7082 	 -116.28
| 20> H 	 48.8025 	 -12.7024 	 -116.978
| 21> H 	 49.8899 	 -11.7481 	 -115.906
| 22> H 	 50.4865 	 -13.0351 	 -116.941
| 23> S 	 46.427 	 -17.1511 	 -120.563
| 24> C 	 46.2172 	 -16.5231 	 -122.19
| 25> C 	 46.0916 	 -15.2015 	 -122.243
| 26> C 	 46.1053 	 -14.597 	 -120.951
| 27> C 	 46.2975 	 -15.4867 	 -119.948
| 28> H 	 46.0408 	 -14.7109 	 -123.174
| 29> C 	 46.0026 	 -13.0899 	 -120.845
| 30> H 	 45.124 	 -13.0599 	 -120.218
| 31> H 	 45.7232 	 -12.6564 	 -121.791
| 32> C 	 47.1852 	 -12.2346 	 -120.234
| 33> H 	 48.0691 	 -12.1076 	 -120.905
| 34> H 	 47.5767 	 -12.8097 	 -119.339
| 35> C 	 46.7714 	 -10.8346 	 -119.74
| 36> H 	 45.8515 	 -10.6397 	 -120.316
| 37> H 	 47.4512 	 -10.0108 	 -119.837
| 38> H 	 46.4331 	 -10.9831 	 -118.781
| 39> H 	 46.2536 	 -14.9281 	 -115.036
| 40> H 	 46.2591 	 -17.3336 	 -122.992
| 41> *
| 42>
| 43>                          ****END OF INPUT****

CARTESIAN COORDINATES (ANGSTROEM)
---------------------------------
  S     45.409000  -14.964100  -117.410000
  C     46.520400  -15.044600  -116.068000
  C     47.798100  -15.195600  -116.554000
  C     47.898500  -15.361900  -117.982000
  C     46.674300  -15.275000  -118.562000
  H     48.810500  -15.480100  -118.584000
  C     49.002700  -15.165900  -115.752000
  H     49.817800  -15.541200  -116.371000
  H     48.969900  -15.893000  -114.901000
  C     49.412500  -13.776900  -115.222000
  H     48.624200  -13.370300  -114.564000
  H     50.303000  -13.827800  -114.599000
  C     49.651900  -12.708200  -116.280000
  H     48.802500  -12.702400  -116.978000
  H     49.889900  -11.748100  -115.906000
  H     50.486500  -13.035100  -116.941000
  S     46.427000  -17.151100  -120.563000
  C     46.217200  -16.523100  -122.190000
  C     46.091600  -15.201500  -122.243000
  C     46.105300  -14.597000  -120.951000
  C     46.297500  -15.486700  -119.948000
  H     46.040800  -14.710900  -123.174000
  C     46.002600  -13.089900  -120.845000
  H     45.124000  -13.059900  -120.218000
  H     45.723200  -12.656400  -121.791000
  C     47.185200  -12.234600  -120.234000
  H     48.069100  -12.107600  -120.905000
  H     47.576700  -12.809700  -119.339000
  C     46.771400  -10.834600  -119.740000
  H     45.851500  -10.639700  -120.316000
  H     47.451200  -10.010800  -119.837000
  H     46.433100  -10.983100  -118.781000
  H     46.253600  -14.928100  -115.036000
  H     46.259100  -17.333600  -122.992000

 Total Charge           Charge          ....    0
 Multiplicity           Mult            ....    1
 Number of Electrons    NEL             ....  134
 Basis Dimension        Dim             ....  322

ORBITAL ENERGIES
----------------

  NO   OCC          E(Eh)            E(eV)
   0   2.0000     -88.963779     -2420.8275
   1   2.0000     -88.959950     -2420.7233
   2   2.0000     -10.324962      -280.9565
   3   2.0000     -10.320057      -280.8230
   4   2.0000     -10.319154      -280.7985
   5   2.0000     -10.311749      -280.5970
   6   2.0000     -10.301476      -280.3174
   7   2.0000     -10.296535      -280.1830
   8   2.0000     -10.294531      -280.1284
   9   2.0000     -10.292660      -280.0775
  10   2.0000     -10.291852      -280.0555
  11   2.0000     -10.287972      -279.9500
  12   2.0000     -10.286610      -279.9129
  13   2.0000     -10.285496      -279.8826
  14   2.0000     -10.273264      -279.5497
  15   2.0000     -10.267790      -279.4008
  16   2.0000      -8.078932      -219.8389
  17   2.0000      -8.074928      -219.7300
  18   2.0000      -6.037437      -164.2870
  19   2.0000      -6.033436      -164.1781
  20   2.0000      -6.033276      -164.1738
  21   2.0000      -6.029784      -164.0788
  22   2.0000      -6.029576      -164.0731
  23   2.0000      -6.025505      -163.9623
  24   2.0000      -1.011417       -27.5220
  25   2.0000      -0.989408       -26.9232
  26   2.0000      -0.916206       -24.9312
  27   2.0000      -0.901865       -24.5410
  28   2.0000      -0.871508       -23.7149
  29   2.0000      -0.852970       -23.2105
  30   2.0000      -0.848804       -23.0971
  31   2.0000      -0.819587       -22.3021
  32   2.0000      -0.784430       -21.3454
  33   2.0000      -0.770382       -20.9632
  34   2.0000      -0.705967       -19.2103
  35   2.0000      -0.702396       -19.1132
  36   2.0000      -0.688281       -18.7291
  37   2.0000      -0.664136       -18.0721
  38   2.0000      -0.645343       -17.5607
  39   2.0000      -0.610374       -16.6091
  40   2.0000      -0.596898       -16.2424
  41   2.0000      -0.574703       -15.6385
  42   2.0000      -0.563351       -15.3296
  43   2.0000      -0.554975       -15.1016
  44   2.0000      -0.541365       -14.7313
  45   2.0000      -0.528267       -14.3749
  46   2.0000      -0.520549       -14.1649
  47   2.0000      -0.513680       -13.9779
  48   2.0000      -0.510675       -13.8962
  49   2.0000      -0.489543       -13.3212
  50   2.0000      -0.487637       -13.2693
  51   2.0000      -0.486834       -13.2474
  52   2.0000      -0.469932       -12.7875
  53   2.0000      -0.466060       -12.6821
  54   2.0000      -0.458323       -12.4716
  55   2.0000      -0.450662       -12.2631
  56   2.0000      -0.445879       -12.1330
  57   2.0000      -0.433674       -11.8009
  58   2.0000      -0.430258       -11.7079
  59   2.0000      -0.421848       -11.4791
  60   2.0000      -0.415985       -11.3195
  61   2.0000      -0.410980       -11.1833
  62   2.0000      -0.407419       -11.0864
  63   2.0000      -0.337884        -9.1943
  64   2.0000      -0.332853        -9.0574
  65   2.0000      -0.325864        -8.8672
  66   2.0000      -0.307106        -8.3568
  67   0.0000       0.044193         1.2025
  68   0.0000       0.059407         1.6166
  69   0.0000       0.107894         2.9359
  70   0.0000       0.118119         3.2142
  71   0.0000       0.130950         3.5633

MULLIKEN ATOMIC CHARGES
-----------------------
   0 S :    0.107986
   1 C :   -0.106830
   2 C :   -0.105033
   3 C :    0.045169
   4 C :   -0.188741
   5 H :    0.028758
   6 C :    0.064047
   7 H :    0.011487
   8 H :    0.038441
   9 C :   -0.068347
  10 H :    0.023121
  11 H :    0.027081
  12 C :   -0.051189
  13 H :    0.040911
  14 H :    0.032812
  15 H :    0.016804
  16 S :    0.093902
  17 C :   -0.115033
  18 C :   -0.003701
  19 C :   -0.015090
  20 C :   -0.178103
  21 H :    0.003372
  22 C :    0.097807
  23 H :    0.026961
  24 H :    0.013682
  25 C :   -0.119980
  26 H :    0.035709
  27 H :    0.052699
  28 C :   -0.007395
  29 H :    0.020120
  30 H :    0.039786
  31 H :    0.016025
  32 H :    0.042206
  33 H :    0.080553
Sum of atomic charges:    0.0000000

LOEWDIN ATOMIC CHARGES
----------------------
   0 S :    0.411927
   1 C :   -0.194326
   2 C :   -0.068557
   3 C :   -0.063375
   4 C :   -0.194798
   5 H :    0.040935
   6 C :   -0.039462
   7 H :    0.028149
   8 H :    0.038917
   9 C :   -0.039500
  10 H :    0.021680
  11 H :    0.022000
  12 C :   -0.065461
  13 H :    0.026254
  14 H :    0.020810
  15 H :    0.024551
  16 S :    0.381341
  17 C :   -0.173014
  18 C :   -0.073298
  19 C :   -0.047431
  20 C :   -0.201070
  21 H :    0.028986
  22 C :   -0.031287
  23 H :    0.035417
  24 H :    0.025878
  25 C :   -0.045030
  26 H :    0.025044
  27 H :    0.028092
  28 C :   -0.059737
  29 H :    0.027937
  30 H :    0.025283
  31 H :    0.016722
  32 H :    0.027337
  33 H :    0.039086

  Mayer bond orders larger than 0.100000
B(  0-S ,  1-C ) :   1.1286 B(  0-S ,  4-C ) :   1.1721 B(  1-C ,  2-C ) :   1.6040
B(  1-C , 32-H ) :   0.9784 B(  2-C ,  3-C ) :   1.2153 B(  2-C ,  6-C ) :   1.0443
B(  3-C ,  4-C ) :   1.5971 B(  3-C ,  5-H ) :   0.9964 B(  4-C , 20-C ) :   0.9937
B(  6-C ,  7-H ) :   0.9372 B(  6-C ,  8-H ) :   0.9327 B(  6-C ,  9-C ) :   1.0684
B(  9-C , 10-H ) :   0.9562 B(  9-C , 11-H ) :   0.9562 B(  9-C , 12-C ) :   1.0785
B( 12-C , 13-H ) :   0.9738 B( 12-C , 14-H ) :   0.9720 B( 12-C , 15-H ) :   0.9713
B( 16-S , 17-C ) :   1.1503 B( 16-S , 20-C ) :   1.1228 B( 17-C , 18-C ) :   1.6303
B( 17-C , 33-H ) :   0.9565 B( 18-C , 19-C ) :   1.2117 B( 18-C , 21-H ) :   1.0056
B( 19-C , 20-C ) :   1.6539 B( 19-C , 22-C ) :   1.0184 B( 22-C , 23-H ) :   0.9294
B( 22-C , 24-H ) :   0.9298 B( 22-C , 25-C ) :   1.0529 B( 25-C , 26-H ) :   0.9580
B( 25-C , 27-H ) :   0.9623 B( 25-C , 28-C ) :   1.0618 B( 28-C , 29-H ) :   0.9770
B( 28-C , 30-H ) :   0.9773 B( 28-C , 31-H ) :   0.9742

Dispersion correction           -0.016005404
FINAL SINGLE POINT ENERGY     -1339.878358694423

DIPOLE MOMENT
-------------
                                X             Y             Z
Electronic contribution:    -14.01275     -21.98327      -6.60442
Nuclear contribution   :     14.40532      22.33039       6.54513
                        -----------------------------------------
Total Dipole Moment    :      0.39257       0.34711      -0.05929
                        -----------------------------------------
Magnitude (a.u.)       :      0.52737
Magnitude (Debye)      :      1.34046

Rotational constants in cm-1:     0.018865     0.009876     0.007896
Rotational constants in MHz :   565.559320   296.079486   236.705152

                             ****ORCA TERMINATED NORMALLY****
TOTAL RUN TIME: 0 days 0 hours 0 minutes 23 seconds 58 msec
