                         Program Version 4.2.1 -  RELEASE  -
|  1> ! wB97X-D3 SP def2-SVP
|  2> %pal
|  3> nprocs 24
|  4> end
|  5>
|  6> * xyz 0 1
|  7> S 	 5.40037 	 -26.8364 	 -113.026
|  8> C 	 6.75653 	 -25.8002 	 -112.824
|  9> C 	 7.22719 	 -25.3438 	 -114.01
| 10> C 	 6.45677 	 -25.7416 	 -115.151
| 11> C 	 5.39038 	 -26.578 	 -114.806
| 12> H 	 6.63421 	 -25.3968 	 -116.205
| 13> C 	 8.1683 	 -24.1258 	 -114.128
| 14> H 	 8.029 	 -23.7903 	 -115.165
| 15> H 	 9.18907 	 -24.4142 	 -113.97
| 16> C 	 7.93264 	 -22.94 	 -113.244
| 17> H 	 6.87168 	 -22.6891 	 -113.297
| 18> H 	 8.05052 	 -23.2843 	 -112.214
| 19> C 	 8.70649 	 -21.5737 	 -113.259
| 20> H 	 8.12736 	 -20.8461 	 -112.61
| 21> H 	 9.73458 	 -21.8085 	 -112.958
| 22> H 	 8.68708 	 -21.0866 	 -114.24
| 23> S 	 2.8835 	 -26.0982 	 -115.6
| 24> C 	 2.15031 	 -26.8789 	 -117
| 25> C 	 2.92005 	 -27.968 	 -117.292
| 26> C 	 4.16165 	 -28.1217 	 -116.504
| 27> C 	 4.30934 	 -27.0092 	 -115.697
| 28> H 	 2.75024 	 -28.7576 	 -118.057
| 29> C 	 5.13918 	 -29.2297 	 -116.762
| 30> H 	 5.95701 	 -29.0643 	 -116.056
| 31> H 	 5.59902 	 -29.1201 	 -117.724
| 32> C 	 4.62146 	 -30.658 	 -116.655
| 33> H 	 3.86847 	 -30.9109 	 -117.269
| 34> H 	 4.18059 	 -30.8068 	 -115.67
| 35> C 	 5.6236 	 -31.8283 	 -116.775
| 36> H 	 6.37514 	 -31.923 	 -115.958
| 37> H 	 6.16554 	 -31.7547 	 -117.667
| 38> H 	 5.08311 	 -32.7667 	 -116.711
| 39> H 	 7.21466 	 -25.4837 	 -111.906
| 40> H 	 1.15008 	 -26.7757 	 -117.392
| 41> *
| 42>
| 43>                          ****END OF INPUT****

CARTESIAN COORDINATES (ANGSTROEM)
---------------------------------
  S      5.400370  -26.836400  -113.026000
  C      6.756530  -25.800200  -112.824000
  C      7.227190  -25.343800  -114.010000
  C      6.456770  -25.741600  -115.151000
  C      5.390380  -26.578000  -114.806000
  H      6.634210  -25.396800  -116.205000
  C      8.168300  -24.125800  -114.128000
  H      8.029000  -23.790300  -115.165000
  H      9.189070  -24.414200  -113.970000
  C      7.932640  -22.940000  -113.244000
  H      6.871680  -22.689100  -113.297000
  H      8.050520  -23.284300  -112.214000
  C      8.706490  -21.573700  -113.259000
  H      8.127360  -20.846100  -112.610000
  H      9.734580  -21.808500  -112.958000
  H      8.687080  -21.086600  -114.240000
  S      2.883500  -26.098200  -115.600000
  C      2.150310  -26.878900  -117.000000
  C      2.920050  -27.968000  -117.292000
  C      4.161650  -28.121700  -116.504000
  C      4.309340  -27.009200  -115.697000
  H      2.750240  -28.757600  -118.057000
  C      5.139180  -29.229700  -116.762000
  H      5.957010  -29.064300  -116.056000
  H      5.599020  -29.120100  -117.724000
  C      4.621460  -30.658000  -116.655000
  H      3.868470  -30.910900  -117.269000
  H      4.180590  -30.806800  -115.670000
  C      5.623600  -31.828300  -116.775000
  H      6.375140  -31.923000  -115.958000
  H      6.165540  -31.754700  -117.667000
  H      5.083110  -32.766700  -116.711000
  H      7.214660  -25.483700  -111.906000
  H      1.150080  -26.775700  -117.392000

 Total Charge           Charge          ....    0
 Multiplicity           Mult            ....    1
 Number of Electrons    NEL             ....  134
 Basis Dimension        Dim             ....  322

ORBITAL ENERGIES
----------------

  NO   OCC          E(Eh)            E(eV)
   0   2.0000     -88.968626     -2420.9594
   1   2.0000     -88.961398     -2420.7627
   2   2.0000     -10.334241      -281.2090
   3   2.0000     -10.323796      -280.9248
   4   2.0000     -10.317488      -280.7531
   5   2.0000     -10.310956      -280.5754
   6   2.0000     -10.303949      -280.3847
   7   2.0000     -10.303202      -280.3644
   8   2.0000     -10.297496      -280.2091
   9   2.0000     -10.297209      -280.2013
  10   2.0000     -10.289815      -280.0001
  11   2.0000     -10.289157      -279.9822
  12   2.0000     -10.288970      -279.9771
  13   2.0000     -10.283137      -279.8184
  14   2.0000     -10.276879      -279.6481
  15   2.0000     -10.275020      -279.5975
  16   2.0000      -8.082960      -219.9485
  17   2.0000      -8.077236      -219.7928
  18   2.0000      -6.041505      -164.3977
  19   2.0000      -6.037460      -164.2876
  20   2.0000      -6.035909      -164.2454
  21   2.0000      -6.033758      -164.1869
  22   2.0000      -6.031559      -164.1271
  23   2.0000      -6.027736      -164.0230
  24   2.0000      -1.008786       -27.4504
  25   2.0000      -0.986986       -26.8573
  26   2.0000      -0.911061       -24.7912
  27   2.0000      -0.907954       -24.7067
  28   2.0000      -0.870944       -23.6996
  29   2.0000      -0.850050       -23.1310
  30   2.0000      -0.847253       -23.0549
  31   2.0000      -0.816536       -22.2191
  32   2.0000      -0.782643       -21.2968
  33   2.0000      -0.774052       -21.0630
  34   2.0000      -0.709936       -19.3183
  35   2.0000      -0.704878       -19.1807
  36   2.0000      -0.691411       -18.8143
  37   2.0000      -0.658197       -17.9104
  38   2.0000      -0.639905       -17.4127
  39   2.0000      -0.613679       -16.6991
  40   2.0000      -0.598404       -16.2834
  41   2.0000      -0.568065       -15.4578
  42   2.0000      -0.566080       -15.4038
  43   2.0000      -0.565175       -15.3792
  44   2.0000      -0.531550       -14.4642
  45   2.0000      -0.519976       -14.1493
  46   2.0000      -0.515042       -14.0150
  47   2.0000      -0.511570       -13.9205
  48   2.0000      -0.508866       -13.8469
  49   2.0000      -0.503764       -13.7081
  50   2.0000      -0.497656       -13.5419
  51   2.0000      -0.478103       -13.0098
  52   2.0000      -0.471766       -12.8374
  53   2.0000      -0.467702       -12.7268
  54   2.0000      -0.457842       -12.4585
  55   2.0000      -0.450534       -12.2596
  56   2.0000      -0.448174       -12.1954
  57   2.0000      -0.435059       -11.8386
  58   2.0000      -0.432243       -11.7619
  59   2.0000      -0.418558       -11.3896
  60   2.0000      -0.417196       -11.3525
  61   2.0000      -0.414114       -11.2686
  62   2.0000      -0.404832       -11.0160
  63   2.0000      -0.339666        -9.2428
  64   2.0000      -0.328959        -8.9514
  65   2.0000      -0.319375        -8.6906
  66   2.0000      -0.313680        -8.5357
  67   0.0000       0.043425         1.1817
  68   0.0000       0.052813         1.4371
  69   0.0000       0.112022         3.0483
  70   0.0000       0.121337         3.3018
  71   0.0000       0.132470         3.6047

MULLIKEN ATOMIC CHARGES
-----------------------
   0 S :    0.124265
   1 C :   -0.113405
   2 C :   -0.076538
   3 C :    0.023610
   4 C :   -0.182454
   5 H :    0.043515
   6 C :    0.104484
   7 H :    0.016120
   8 H :    0.022574
   9 C :   -0.129391
  10 H :    0.025834
  11 H :    0.014636
  12 C :   -0.053199
  13 H :    0.049507
  14 H :    0.042579
  15 H :    0.033464
  16 S :    0.111161
  17 C :   -0.074436
  18 C :   -0.044080
  19 C :   -0.032525
  20 C :   -0.192696
  21 H :    0.027330
  22 C :    0.107459
  23 H :    0.022962
  24 H :    0.025956
  25 C :   -0.061794
  26 H :   -0.000175
  27 H :    0.021893
  28 C :   -0.042995
  29 H :    0.030893
  30 H :    0.018138
  31 H :    0.030904
  32 H :    0.044517
  33 H :    0.061889
Sum of atomic charges:   -0.0000000

LOEWDIN ATOMIC CHARGES
----------------------
   0 S :    0.402705
   1 C :   -0.195490
   2 C :   -0.073648
   3 C :   -0.053664
   4 C :   -0.192829
   5 H :    0.044513
   6 C :   -0.030486
   7 H :    0.028423
   8 H :    0.025392
   9 C :   -0.054835
  10 H :    0.022475
  11 H :    0.017699
  12 C :   -0.063978
  13 H :    0.040129
  14 H :    0.025788
  15 H :    0.022625
  16 S :    0.424666
  17 C :   -0.189569
  18 C :   -0.069997
  19 C :   -0.053530
  20 C :   -0.219177
  21 H :    0.032004
  22 C :   -0.031757
  23 H :    0.035291
  24 H :    0.030180
  25 C :   -0.034521
  26 H :    0.006271
  27 H :    0.028842
  28 C :   -0.057480
  29 H :    0.027159
  30 H :    0.013499
  31 H :    0.028820
  32 H :    0.029366
  33 H :    0.035113

  Mayer bond orders larger than 0.100000
B(  0-S ,  1-C ) :   1.1459 B(  0-S ,  4-C ) :   1.1402 B(  1-C ,  2-C ) :   1.6269
B(  1-C , 32-H ) :   0.9656 B(  2-C ,  3-C ) :   1.2496 B(  2-C ,  6-C ) :   1.0149
B(  3-C ,  4-C ) :   1.5956 B(  3-C ,  5-H ) :   0.9795 B(  4-C , 20-C ) :   1.0125
B(  6-C ,  7-H ) :   0.9486 B(  6-C ,  8-H ) :   0.9272 B(  6-C ,  9-C ) :   1.0748
B(  9-C , 10-H ) :   0.9579 B(  9-C , 11-H ) :   0.9486 B(  9-C , 12-C ) :   1.0798
B( 12-C , 13-H ) :   0.9723 B( 12-C , 14-H ) :   0.9760 B( 12-C , 15-H ) :   0.9769
B( 16-S , 17-C ) :   1.1296 B( 16-S , 20-C ) :   1.1663 B( 17-C , 18-C ) :   1.6212
B( 17-C , 33-H ) :   0.9706 B( 18-C , 19-C ) :   1.2267 B( 18-C , 21-H ) :   0.9774
B( 19-C , 20-C ) :   1.5996 B( 19-C , 22-C ) :   1.0623 B( 22-C , 23-H ) :   0.9266
B( 22-C , 24-H ) :   0.9301 B( 22-C , 25-C ) :   1.0546 B( 25-C , 26-H ) :   0.9558
B( 25-C , 27-H ) :   0.9522 B( 25-C , 28-C ) :   1.0926 B( 28-C , 29-H ) :   0.9767
B( 28-C , 30-H ) :   0.9750 B( 28-C , 31-H ) :   0.9743

Dispersion correction           -0.013289986
FINAL SINGLE POINT ENERGY     -1339.859632206288

DIPOLE MOMENT
-------------
                                X             Y             Z
Electronic contribution:    -16.39205       1.04410       3.84443
Nuclear contribution   :     16.62817      -1.08783      -4.09725
                        -----------------------------------------
Total Dipole Moment    :      0.23612      -0.04373      -0.25282
                        -----------------------------------------
Magnitude (a.u.)       :      0.34869
Magnitude (Debye)      :      0.88629

Rotational constants in cm-1:     0.022204     0.006734     0.005900
Rotational constants in MHz :   665.656299   201.866420   176.862609

                             ****ORCA TERMINATED NORMALLY****
TOTAL RUN TIME: 0 days 0 hours 0 minutes 20 seconds 403 msec
