                         Program Version 4.2.1 -  RELEASE  -
|  1> ! wB97X-D3 SP def2-SVP
|  2> %pal
|  3> nprocs 24
|  4> end
|  5>
|  6> * xyz 0 1
|  7> S 	 -97.3659 	 10.0729 	 -114.499
|  8> C 	 -97.711 	 11.7509 	 -114.346
|  9> C 	 -96.6344 	 12.4538 	 -114.899
| 10> C 	 -95.8847 	 11.6913 	 -115.865
| 11> C 	 -96.235 	 10.3603 	 -115.813
| 12> H 	 -95.1666 	 12.174 	 -116.557
| 13> C 	 -96.4329 	 13.9547 	 -114.756
| 14> H 	 -97.4416 	 14.4099 	 -114.917
| 15> H 	 -95.7276 	 14.3439 	 -115.431
| 16> C 	 -95.8787 	 14.2532 	 -113.318
| 17> H 	 -96.1067 	 15.2554 	 -113.086
| 18> H 	 -96.4761 	 13.728 	 -112.599
| 19> C 	 -94.3722 	 14.0454 	 -113.127
| 20> H 	 -93.8188 	 14.6921 	 -113.776
| 21> H 	 -93.997 	 14.0228 	 -112.149
| 22> H 	 -94.1419 	 13.0362 	 -113.543
| 23> S 	 -95.1706 	 7.92395 	 -115.539
| 24> C 	 -94.4546 	 7.14288 	 -116.927
| 25> C 	 -94.5006 	 7.94206 	 -118.065
| 26> C 	 -95.1699 	 9.15275 	 -117.808
| 27> C 	 -95.5984 	 9.23927 	 -116.477
| 28> H 	 -94.0916 	 7.56933 	 -118.904
| 29> C 	 -95.3017 	 10.1928 	 -118.894
| 30> H 	 -94.3925 	 10.2893 	 -119.443
| 31> H 	 -95.5693 	 11.2036 	 -118.547
| 32> C 	 -96.4313 	 9.94251 	 -119.885
| 33> H 	 -97.4189 	 10.1111 	 -119.459
| 34> H 	 -96.3278 	 8.94938 	 -120.232
| 35> C 	 -96.2602 	 10.8753 	 -121.112
| 36> H 	 -97.0802 	 10.6617 	 -121.872
| 37> H 	 -95.2858 	 10.9087 	 -121.6
| 38> H 	 -96.336 	 11.9346 	 -120.79
| 39> H 	 -98.3886 	 12.1788 	 -113.658
| 40> H 	 -93.9117 	 6.2317 	 -116.833
| 41> *
| 42>
| 43>                          ****END OF INPUT****

CARTESIAN COORDINATES (ANGSTROEM)
---------------------------------
  S    -97.365900   10.072900  -114.499000
  C    -97.711000   11.750900  -114.346000
  C    -96.634400   12.453800  -114.899000
  C    -95.884700   11.691300  -115.865000
  C    -96.235000   10.360300  -115.813000
  H    -95.166600   12.174000  -116.557000
  C    -96.432900   13.954700  -114.756000
  H    -97.441600   14.409900  -114.917000
  H    -95.727600   14.343900  -115.431000
  C    -95.878700   14.253200  -113.318000
  H    -96.106700   15.255400  -113.086000
  H    -96.476100   13.728000  -112.599000
  C    -94.372200   14.045400  -113.127000
  H    -93.818800   14.692100  -113.776000
  H    -93.997000   14.022800  -112.149000
  H    -94.141900   13.036200  -113.543000
  S    -95.170600    7.923950  -115.539000
  C    -94.454600    7.142880  -116.927000
  C    -94.500600    7.942060  -118.065000
  C    -95.169900    9.152750  -117.808000
  C    -95.598400    9.239270  -116.477000
  H    -94.091600    7.569330  -118.904000
  C    -95.301700   10.192800  -118.894000
  H    -94.392500   10.289300  -119.443000
  H    -95.569300   11.203600  -118.547000
  C    -96.431300    9.942510  -119.885000
  H    -97.418900   10.111100  -119.459000
  H    -96.327800    8.949380  -120.232000
  C    -96.260200   10.875300  -121.112000
  H    -97.080200   10.661700  -121.872000
  H    -95.285800   10.908700  -121.600000
  H    -96.336000   11.934600  -120.790000
  H    -98.388600   12.178800  -113.658000
  H    -93.911700    6.231700  -116.833000

 Total Charge           Charge          ....    0
 Multiplicity           Mult            ....    1
 Number of Electrons    NEL             ....  134
 Basis Dimension        Dim             ....  322

ORBITAL ENERGIES
----------------

  NO   OCC          E(Eh)            E(eV)
   0   2.0000     -88.967949     -2420.9410
   1   2.0000     -88.964264     -2420.8407
   2   2.0000     -10.328665      -281.0573
   3   2.0000     -10.320028      -280.8222
   4   2.0000     -10.311681      -280.5951
   5   2.0000     -10.308600      -280.5113
   6   2.0000     -10.301508      -280.3183
   7   2.0000     -10.299530      -280.2644
   8   2.0000     -10.296602      -280.1848
   9   2.0000     -10.292339      -280.0688
  10   2.0000     -10.286405      -279.9073
  11   2.0000     -10.286217      -279.9022
  12   2.0000     -10.282462      -279.8000
  13   2.0000     -10.279769      -279.7267
  14   2.0000     -10.279712      -279.7252
  15   2.0000     -10.272551      -279.5303
  16   2.0000      -8.084236      -219.9832
  17   2.0000      -8.079503      -219.8544
  18   2.0000      -6.042505      -164.4249
  19   2.0000      -6.038495      -164.3158
  20   2.0000      -6.037975      -164.3016
  21   2.0000      -6.035190      -164.2259
  22   2.0000      -6.034148      -164.1975
  23   2.0000      -6.030057      -164.0862
  24   2.0000      -1.015841       -27.6424
  25   2.0000      -0.989488       -26.9253
  26   2.0000      -0.913688       -24.8627
  27   2.0000      -0.908825       -24.7304
  28   2.0000      -0.872555       -23.7434
  29   2.0000      -0.854172       -23.2432
  30   2.0000      -0.844794       -22.9880
  31   2.0000      -0.815116       -22.1804
  32   2.0000      -0.780553       -21.2399
  33   2.0000      -0.767956       -20.8972
  34   2.0000      -0.708141       -19.2695
  35   2.0000      -0.703693       -19.1485
  36   2.0000      -0.693761       -18.8782
  37   2.0000      -0.673091       -18.3157
  38   2.0000      -0.639349       -17.3976
  39   2.0000      -0.619295       -16.8519
  40   2.0000      -0.601585       -16.3700
  41   2.0000      -0.576350       -15.6833
  42   2.0000      -0.568698       -15.4751
  43   2.0000      -0.552967       -15.0470
  44   2.0000      -0.541310       -14.7298
  45   2.0000      -0.524238       -14.2653
  46   2.0000      -0.516616       -14.0578
  47   2.0000      -0.510450       -13.8901
  48   2.0000      -0.504762       -13.7353
  49   2.0000      -0.500718       -13.6252
  50   2.0000      -0.493110       -13.4182
  51   2.0000      -0.477394       -12.9906
  52   2.0000      -0.472777       -12.8649
  53   2.0000      -0.463574       -12.6145
  54   2.0000      -0.455621       -12.3981
  55   2.0000      -0.454311       -12.3624
  56   2.0000      -0.447250       -12.1703
  57   2.0000      -0.442025       -12.0281
  58   2.0000      -0.434431       -11.8215
  59   2.0000      -0.429051       -11.6751
  60   2.0000      -0.420957       -11.4548
  61   2.0000      -0.415728       -11.3125
  62   2.0000      -0.406641       -11.0653
  63   2.0000      -0.355277        -9.6676
  64   2.0000      -0.335787        -9.1372
  65   2.0000      -0.323044        -8.7905
  66   2.0000      -0.281282        -7.6541
  67   0.0000       0.026853         0.7307
  68   0.0000       0.067950         1.8490
  69   0.0000       0.103997         2.8299
  70   0.0000       0.120194         3.2706
  71   0.0000       0.139600         3.7987

MULLIKEN ATOMIC CHARGES
-----------------------
   0 S :    0.100696
   1 C :   -0.080421
   2 C :   -0.134755
   3 C :    0.021484
   4 C :   -0.136526
   5 H :    0.033523
   6 C :    0.056265
   7 H :    0.046740
   8 H :    0.005603
   9 C :   -0.046831
  10 H :    0.008130
  11 H :    0.010881
  12 C :   -0.018998
  13 H :    0.020866
  14 H :    0.033458
  15 H :    0.021931
  16 S :    0.121500
  17 C :   -0.097891
  18 C :    0.009345
  19 C :   -0.006194
  20 C :   -0.136360
  21 H :   -0.028136
  22 C :    0.055143
  23 H :    0.016116
  24 H :    0.009607
  25 C :   -0.041948
  26 H :    0.041734
  27 H :    0.014928
  28 C :   -0.082348
  29 H :    0.050327
  30 H :    0.027532
  31 H :    0.020322
  32 H :    0.038119
  33 H :    0.046157
Sum of atomic charges:   -0.0000000

LOEWDIN ATOMIC CHARGES
----------------------
   0 S :    0.408633
   1 C :   -0.205967
   2 C :   -0.055770
   3 C :   -0.070817
   4 C :   -0.183709
   5 H :    0.037399
   6 C :   -0.024987
   7 H :    0.041382
   8 H :    0.017979
   9 C :   -0.034691
  10 H :    0.013421
  11 H :    0.017074
  12 C :   -0.060156
  13 H :    0.021213
  14 H :    0.021767
  15 H :    0.030520
  16 S :    0.447099
  17 C :   -0.185135
  18 C :   -0.047381
  19 C :   -0.058768
  20 C :   -0.222435
  21 H :    0.013841
  22 C :   -0.032036
  23 H :    0.026144
  24 H :    0.028504
  25 C :   -0.029832
  26 H :    0.029460
  27 H :    0.014029
  28 C :   -0.076021
  29 H :    0.034260
  30 H :    0.021585
  31 H :    0.023334
  32 H :    0.019652
  33 H :    0.020409

  Mayer bond orders larger than 0.100000
B(  0-S ,  1-C ) :   1.1349 B(  0-S ,  4-C ) :   1.1580 B(  1-C ,  2-C ) :   1.5906
B(  1-C ,  4-C ) :   0.1041 B(  1-C , 32-H ) :   0.9735 B(  2-C ,  3-C ) :   1.2452
B(  2-C ,  6-C ) :   1.0325 B(  3-C ,  4-C ) :   1.5440 B(  3-C ,  5-H ) :   0.9861
B(  4-C , 20-C ) :   1.0447 B(  6-C ,  7-H ) :   0.9442 B(  6-C ,  8-H ) :   0.9495
B(  6-C ,  9-C ) :   1.0584 B(  9-C , 10-H ) :   0.9545 B(  9-C , 11-H ) :   0.9594
B(  9-C , 12-C ) :   1.0721 B( 12-C , 13-H ) :   0.9733 B( 12-C , 14-H ) :   0.9750
B( 12-C , 15-H ) :   0.9746 B( 16-S , 17-C ) :   1.1637 B( 16-S , 20-C ) :   1.1805
B( 17-C , 18-C ) :   1.5757 B( 17-C , 20-C ) :   0.1004 B( 17-C , 33-H ) :   0.9732
B( 18-C , 19-C ) :   1.2542 B( 18-C , 21-H ) :   1.0163 B( 19-C , 20-C ) :   1.5565
B( 19-C , 22-C ) :   1.0459 B( 22-C , 23-H ) :   0.9399 B( 22-C , 24-H ) :   0.9318
B( 22-C , 25-C ) :   1.0672 B( 25-C , 26-H ) :   0.9550 B( 25-C , 27-H ) :   0.9578
B( 25-C , 28-C ) :   1.0764 B( 28-C , 29-H ) :   0.9744 B( 28-C , 30-H ) :   0.9743
B( 28-C , 31-H ) :   0.9725

Dispersion correction           -0.013970040
FINAL SINGLE POINT ENERGY     -1339.863471442347

DIPOLE MOMENT
-------------
                                X             Y             Z
Electronic contribution:     -3.85045     -21.01992      11.55828
Nuclear contribution   :      4.14366      21.47588     -11.79922
                        -----------------------------------------
Total Dipole Moment    :      0.29321       0.45596      -0.24094
                        -----------------------------------------
Magnitude (a.u.)       :      0.59323
Magnitude (Debye)      :      1.50788

Rotational constants in cm-1:     0.018251     0.008573     0.006974
Rotational constants in MHz :   547.145943   257.016110   209.070434

                             ****ORCA TERMINATED NORMALLY****
TOTAL RUN TIME: 0 days 0 hours 0 minutes 20 seconds 340 msec
