                         Program Version 4.2.1 -  RELEASE  -
|  1> ! wB97X-D3 SP def2-SVP
|  2> %pal
|  3> nprocs 24
|  4> end
|  5>
|  6> * xyz 0 1
|  7> S 	 -60.7539 	 -59.5412 	 -82.579
|  8> C 	 -60.3643 	 -60.2159 	 -81.0465
|  9> C 	 -59.8746 	 -59.1942 	 -80.2525
| 10> C 	 -59.8465 	 -57.9108 	 -80.8887
| 11> C 	 -60.2021 	 -57.9893 	 -82.1957
| 12> H 	 -59.3096 	 -57.0543 	 -80.4687
| 13> C 	 -59.1902 	 -59.3684 	 -78.8874
| 14> H 	 -59.4637 	 -58.5069 	 -78.3202
| 15> H 	 -58.1651 	 -59.4088 	 -79.0208
| 16> C 	 -59.6309 	 -60.6226 	 -78.1041
| 17> H 	 -60.6526 	 -60.5504 	 -77.842
| 18> H 	 -59.4169 	 -61.4794 	 -78.7285
| 19> C 	 -58.8032 	 -60.8148 	 -76.8425
| 20> H 	 -57.7609 	 -60.7288 	 -77.2017
| 21> H 	 -58.9316 	 -59.9813 	 -76.0365
| 22> H 	 -59.0477 	 -61.7953 	 -76.3387
| 23> S 	 -59.9235 	 -56.8935 	 -84.7231
| 24> C 	 -60.0129 	 -55.1521 	 -84.8693
| 25> C 	 -60.491 	 -54.5062 	 -83.7252
| 26> C 	 -60.7185 	 -55.4246 	 -82.6877
| 27> C 	 -60.3262 	 -56.7576 	 -82.9902
| 28> H 	 -60.5872 	 -53.4738 	 -83.7483
| 29> C 	 -61.2644 	 -54.9219 	 -81.3706
| 30> H 	 -61.6541 	 -55.7315 	 -80.7853
| 31> H 	 -62.1837 	 -54.3389 	 -81.8122
| 32> C 	 -60.2839 	 -54.0383 	 -80.545
| 33> H 	 -60.4216 	 -52.9831 	 -80.9033
| 34> H 	 -59.1649 	 -54.276 	 -80.6478
| 35> C 	 -60.4964 	 -54.1767 	 -79.0189
| 36> H 	 -59.7963 	 -53.5282 	 -78.4833
| 37> H 	 -60.4699 	 -55.2432 	 -78.6742
| 38> H 	 -61.548 	 -53.7651 	 -78.7894
| 39> H 	 -60.061 	 -61.2442 	 -80.7377
| 40> H 	 -59.7398 	 -54.5604 	 -85.7199
| 41> *
| 42>
| 43>                          ****END OF INPUT****

CARTESIAN COORDINATES (ANGSTROEM)
---------------------------------
  S    -60.753900  -59.541200  -82.579000
  C    -60.364300  -60.215900  -81.046500
  C    -59.874600  -59.194200  -80.252500
  C    -59.846500  -57.910800  -80.888700
  C    -60.202100  -57.989300  -82.195700
  H    -59.309600  -57.054300  -80.468700
  C    -59.190200  -59.368400  -78.887400
  H    -59.463700  -58.506900  -78.320200
  H    -58.165100  -59.408800  -79.020800
  C    -59.630900  -60.622600  -78.104100
  H    -60.652600  -60.550400  -77.842000
  H    -59.416900  -61.479400  -78.728500
  C    -58.803200  -60.814800  -76.842500
  H    -57.760900  -60.728800  -77.201700
  H    -58.931600  -59.981300  -76.036500
  H    -59.047700  -61.795300  -76.338700
  S    -59.923500  -56.893500  -84.723100
  C    -60.012900  -55.152100  -84.869300
  C    -60.491000  -54.506200  -83.725200
  C    -60.718500  -55.424600  -82.687700
  C    -60.326200  -56.757600  -82.990200
  H    -60.587200  -53.473800  -83.748300
  C    -61.264400  -54.921900  -81.370600
  H    -61.654100  -55.731500  -80.785300
  H    -62.183700  -54.338900  -81.812200
  C    -60.283900  -54.038300  -80.545000
  H    -60.421600  -52.983100  -80.903300
  H    -59.164900  -54.276000  -80.647800
  C    -60.496400  -54.176700  -79.018900
  H    -59.796300  -53.528200  -78.483300
  H    -60.469900  -55.243200  -78.674200
  H    -61.548000  -53.765100  -78.789400
  H    -60.061000  -61.244200  -80.737700
  H    -59.739800  -54.560400  -85.719900

 Total Charge           Charge          ....    0
 Multiplicity           Mult            ....    1
 Number of Electrons    NEL             ....  134
 Basis Dimension        Dim             ....  322

ORBITAL ENERGIES
----------------

  NO   OCC          E(Eh)            E(eV)
   0   2.0000     -88.967832     -2420.9378
   1   2.0000     -88.966313     -2420.8965
   2   2.0000     -10.331893      -281.1451
   3   2.0000     -10.325440      -280.9695
   4   2.0000     -10.319040      -280.7954
   5   2.0000     -10.310272      -280.5568
   6   2.0000     -10.308674      -280.5133
   7   2.0000     -10.301658      -280.3224
   8   2.0000     -10.299436      -280.2619
   9   2.0000     -10.298642      -280.2403
  10   2.0000     -10.291785      -280.0537
  11   2.0000     -10.290861      -280.0286
  12   2.0000     -10.290128      -280.0086
  13   2.0000     -10.286838      -279.9191
  14   2.0000     -10.284875      -279.8657
  15   2.0000     -10.282632      -279.8047
  16   2.0000      -8.082308      -219.9308
  17   2.0000      -8.081999      -219.9224
  18   2.0000      -6.040980      -164.3834
  19   2.0000      -6.040424      -164.3683
  20   2.0000      -6.036658      -164.2658
  21   2.0000      -6.036435      -164.2597
  22   2.0000      -6.033014      -164.1667
  23   2.0000      -6.032839      -164.1619
  24   2.0000      -1.013761       -27.5858
  25   2.0000      -0.985956       -26.8292
  26   2.0000      -0.916258       -24.9326
  27   2.0000      -0.905041       -24.6274
  28   2.0000      -0.870275       -23.6814
  29   2.0000      -0.854091       -23.2410
  30   2.0000      -0.849222       -23.1085
  31   2.0000      -0.813971       -22.1493
  32   2.0000      -0.778335       -21.1796
  33   2.0000      -0.767477       -20.8841
  34   2.0000      -0.709903       -19.3174
  35   2.0000      -0.695878       -18.9358
  36   2.0000      -0.687900       -18.7187
  37   2.0000      -0.664534       -18.0829
  38   2.0000      -0.634928       -17.2773
  39   2.0000      -0.618444       -16.8287
  40   2.0000      -0.592542       -16.1239
  41   2.0000      -0.582411       -15.8482
  42   2.0000      -0.573320       -15.6008
  43   2.0000      -0.557479       -15.1698
  44   2.0000      -0.528650       -14.3853
  45   2.0000      -0.524992       -14.2858
  46   2.0000      -0.521293       -14.1851
  47   2.0000      -0.511405       -13.9160
  48   2.0000      -0.505556       -13.7569
  49   2.0000      -0.495268       -13.4769
  50   2.0000      -0.486620       -13.2416
  51   2.0000      -0.481119       -13.0919
  52   2.0000      -0.474665       -12.9163
  53   2.0000      -0.468781       -12.7562
  54   2.0000      -0.461852       -12.5676
  55   2.0000      -0.448400       -12.2016
  56   2.0000      -0.442136       -12.0311
  57   2.0000      -0.436753       -11.8847
  58   2.0000      -0.433653       -11.8003
  59   2.0000      -0.429682       -11.6922
  60   2.0000      -0.417897       -11.3716
  61   2.0000      -0.416370       -11.3300
  62   2.0000      -0.403153       -10.9703
  63   2.0000      -0.351230        -9.5574
  64   2.0000      -0.333297        -9.0695
  65   2.0000      -0.329662        -8.9706
  66   2.0000      -0.288840        -7.8597
  67   0.0000       0.024450         0.6653
  68   0.0000       0.075513         2.0548
  69   0.0000       0.109416         2.9774
  70   0.0000       0.119500         3.2518
  71   0.0000       0.121700         3.3116

MULLIKEN ATOMIC CHARGES
-----------------------
   0 S :    0.117505
   1 C :   -0.117575
   2 C :   -0.126858
   3 C :   -0.037514
   4 C :   -0.065303
   5 H :    0.021823
   6 C :    0.082988
   7 H :    0.019419
   8 H :    0.022762
   9 C :   -0.070397
  10 H :    0.031178
  11 H :    0.025000
  12 C :   -0.090476
  13 H :    0.030496
  14 H :    0.041452
  15 H :    0.051492
  16 S :    0.104726
  17 C :   -0.077169
  18 C :   -0.026694
  19 C :   -0.025988
  20 C :   -0.179216
  21 H :   -0.004148
  22 C :    0.038054
  23 H :    0.027224
  24 H :    0.055395
  25 C :   -0.099852
  26 H :    0.042229
  27 H :    0.053505
  28 C :   -0.090582
  29 H :    0.043423
  30 H :    0.050014
  31 H :    0.037524
  32 H :    0.067158
  33 H :    0.048404
Sum of atomic charges:   -0.0000000

LOEWDIN ATOMIC CHARGES
----------------------
   0 S :    0.440223
   1 C :   -0.237535
   2 C :   -0.055672
   3 C :   -0.081586
   4 C :   -0.209387
   5 H :    0.034877
   6 C :   -0.021468
   7 H :    0.027515
   8 H :    0.021895
   9 C :   -0.038140
  10 H :    0.020524
  11 H :    0.020872
  12 C :   -0.075192
  13 H :    0.024701
  14 H :    0.030871
  15 H :    0.032402
  16 S :    0.393447
  17 C :   -0.172030
  18 C :   -0.066448
  19 C :   -0.047695
  20 C :   -0.190062
  21 H :    0.023291
  22 C :   -0.038512
  23 H :    0.024101
  24 H :    0.050894
  25 C :   -0.053136
  26 H :    0.029357
  27 H :    0.032571
  28 C :   -0.075169
  29 H :    0.026242
  30 H :    0.028574
  31 H :    0.030627
  32 H :    0.043742
  33 H :    0.025305

  Mayer bond orders larger than 0.100000
B(  0-S ,  1-C ) :   1.1244 B(  0-S ,  4-C ) :   1.1732 B(  1-C ,  2-C ) :   1.6149
B(  1-C , 32-H ) :   0.9545 B(  2-C ,  3-C ) :   1.2672 B(  2-C ,  6-C ) :   1.0091
B(  3-C ,  4-C ) :   1.5430 B(  3-C ,  5-H ) :   0.9976 B(  4-C , 20-C ) :   1.0383
B(  6-C ,  7-H ) :   0.9404 B(  6-C ,  8-H ) :   0.9369 B(  6-C ,  9-C ) :   1.0853
B(  9-C , 10-H ) :   0.9584 B(  9-C , 11-H ) :   0.9461 B(  9-C , 12-C ) :   1.0832
B( 12-C , 13-H ) :   0.9738 B( 12-C , 14-H ) :   0.9747 B( 12-C , 15-H ) :   0.9723
B( 16-S , 17-C ) :   1.1712 B( 16-S , 20-C ) :   1.1234 B( 17-C , 18-C ) :   1.6018
B( 17-C , 20-C ) :   0.1044 B( 17-C , 33-H ) :   0.9660 B( 18-C , 19-C ) :   1.2438
B( 18-C , 21-H ) :   1.0049 B( 19-C , 20-C ) :   1.5659 B( 19-C , 22-C ) :   1.0332
B( 22-C , 23-H ) :   0.9450 B( 22-C , 24-H ) :   0.9352 B( 22-C , 25-C ) :   1.0239
B( 25-C , 26-H ) :   0.9516 B( 25-C , 27-H ) :   0.9650 B( 25-C , 28-C ) :   1.0806
B( 28-C , 29-H ) :   0.9749 B( 28-C , 30-H ) :   0.9749 B( 28-C , 31-H ) :   0.9729

Dispersion correction           -0.014071618
FINAL SINGLE POINT ENERGY     -1339.858469021099

DIPOLE MOMENT
-------------
                                X             Y             Z
Electronic contribution:     -3.83492      -5.02720     -31.25298
Nuclear contribution   :      4.10884       5.50693      31.77802
                        -----------------------------------------
Total Dipole Moment    :      0.27392       0.47972       0.52504
                        -----------------------------------------
Magnitude (a.u.)       :      0.76212
Magnitude (Debye)      :      1.93717

Rotational constants in cm-1:     0.019215     0.008427     0.006162
Rotational constants in MHz :   576.062528   252.646326   184.729129

                             ****ORCA TERMINATED NORMALLY****
TOTAL RUN TIME: 0 days 0 hours 0 minutes 22 seconds 888 msec
