                         Program Version 4.2.1 -  RELEASE  -
|  1> ! wB97X-D3 SP def2-SVP
|  2> %pal
|  3> nprocs 24
|  4> end
|  5>
|  6> * xyz 0 1
|  7> S 	 -106.098 	 56.5774 	 -98.7608
|  8> C 	 -104.785 	 55.9063 	 -97.9509
|  9> C 	 -105.033 	 54.6519 	 -97.4001
| 10> C 	 -106.371 	 54.2462 	 -97.733
| 11> C 	 -107.017 	 55.1171 	 -98.5564
| 12> H 	 -106.833 	 53.3565 	 -97.5425
| 13> C 	 -103.991 	 53.6933 	 -96.7891
| 14> H 	 -103.259 	 53.526 	 -97.5721
| 15> H 	 -104.529 	 52.7489 	 -96.6076
| 16> C 	 -103.266 	 54.0791 	 -95.4706
| 17> H 	 -102.342 	 53.3821 	 -95.271
| 18> H 	 -102.889 	 55.0246 	 -95.7009
| 19> C 	 -104.22 	 53.9979 	 -94.249
| 20> H 	 -103.76 	 54.4655 	 -93.3349
| 21> H 	 -105.173 	 54.476 	 -94.4069
| 22> H 	 -104.361 	 52.9475 	 -93.9526
| 23> S 	 -108.466 	 55.0002 	 -100.804
| 24> C 	 -110.142 	 54.7868 	 -100.769
| 25> C 	 -110.618 	 54.6382 	 -99.4433
| 26> C 	 -109.556 	 54.7084 	 -98.473
| 27> C 	 -108.334 	 54.8929 	 -99.0882
| 28> H 	 -111.622 	 54.4361 	 -99.1223
| 29> C 	 -109.782 	 54.6726 	 -96.9291
| 30> H 	 -108.811 	 54.3844 	 -96.5148
| 31> H 	 -110.427 	 53.8401 	 -96.6406
| 32> C 	 -110.467 	 55.9007 	 -96.305
| 33> H 	 -111.462 	 56.0235 	 -96.6448
| 34> H 	 -109.92 	 56.7842 	 -96.5376
| 35> C 	 -110.564 	 55.7568 	 -94.7328
| 36> H 	 -109.674 	 55.5518 	 -94.184
| 37> H 	 -111.145 	 54.8756 	 -94.4729
| 38> H 	 -110.979 	 56.6912 	 -94.3665
| 39> H 	 -103.739 	 56.3119 	 -97.9814
| 40> H 	 -110.694 	 54.5846 	 -101.731
| 41> *
| 42>
| 43>                          ****END OF INPUT****

CARTESIAN COORDINATES (ANGSTROEM)
---------------------------------
  S    -106.098000   56.577400  -98.760800
  C    -104.785000   55.906300  -97.950900
  C    -105.033000   54.651900  -97.400100
  C    -106.371000   54.246200  -97.733000
  C    -107.017000   55.117100  -98.556400
  H    -106.833000   53.356500  -97.542500
  C    -103.991000   53.693300  -96.789100
  H    -103.259000   53.526000  -97.572100
  H    -104.529000   52.748900  -96.607600
  C    -103.266000   54.079100  -95.470600
  H    -102.342000   53.382100  -95.271000
  H    -102.889000   55.024600  -95.700900
  C    -104.220000   53.997900  -94.249000
  H    -103.760000   54.465500  -93.334900
  H    -105.173000   54.476000  -94.406900
  H    -104.361000   52.947500  -93.952600
  S    -108.466000   55.000200  -100.804000
  C    -110.142000   54.786800  -100.769000
  C    -110.618000   54.638200  -99.443300
  C    -109.556000   54.708400  -98.473000
  C    -108.334000   54.892900  -99.088200
  H    -111.622000   54.436100  -99.122300
  C    -109.782000   54.672600  -96.929100
  H    -108.811000   54.384400  -96.514800
  H    -110.427000   53.840100  -96.640600
  C    -110.467000   55.900700  -96.305000
  H    -111.462000   56.023500  -96.644800
  H    -109.920000   56.784200  -96.537600
  C    -110.564000   55.756800  -94.732800
  H    -109.674000   55.551800  -94.184000
  H    -111.145000   54.875600  -94.472900
  H    -110.979000   56.691200  -94.366500
  H    -103.739000   56.311900  -97.981400
  H    -110.694000   54.584600  -101.731000

 Total Charge           Charge          ....    0
 Multiplicity           Mult            ....    1
 Number of Electrons    NEL             ....  134
 Basis Dimension        Dim             ....  322

ORBITAL ENERGIES
----------------

  NO   OCC          E(Eh)            E(eV)
   0   2.0000     -88.967064     -2420.9169
   1   2.0000     -88.964903     -2420.8581
   2   2.0000     -10.321807      -280.8707
   3   2.0000     -10.319056      -280.7958
   4   2.0000     -10.318614      -280.7838
   5   2.0000     -10.311091      -280.5790
   6   2.0000     -10.304288      -280.3939
   7   2.0000     -10.302041      -280.3328
   8   2.0000     -10.297354      -280.2052
   9   2.0000     -10.294099      -280.1167
  10   2.0000     -10.294018      -280.1145
  11   2.0000     -10.293607      -280.1033
  12   2.0000     -10.284062      -279.8436
  13   2.0000     -10.283663      -279.8327
  14   2.0000     -10.281445      -279.7723
  15   2.0000     -10.275691      -279.6158
  16   2.0000      -8.083119      -219.9528
  17   2.0000      -8.081376      -219.9054
  18   2.0000      -6.041444      -164.3960
  19   2.0000      -6.039613      -164.3462
  20   2.0000      -6.037458      -164.2876
  21   2.0000      -6.035503      -164.2344
  22   2.0000      -6.033975      -164.1928
  23   2.0000      -6.032462      -164.1516
  24   2.0000      -1.015137       -27.6233
  25   2.0000      -0.990778       -26.9604
  26   2.0000      -0.905256       -24.6333
  27   2.0000      -0.903936       -24.5973
  28   2.0000      -0.871374       -23.7113
  29   2.0000      -0.852365       -23.1940
  30   2.0000      -0.847721       -23.0677
  31   2.0000      -0.808301       -21.9950
  32   2.0000      -0.781904       -21.2767
  33   2.0000      -0.769774       -20.9466
  34   2.0000      -0.707972       -19.2649
  35   2.0000      -0.702273       -19.1098
  36   2.0000      -0.688744       -18.7417
  37   2.0000      -0.666577       -18.1385
  38   2.0000      -0.647257       -17.6128
  39   2.0000      -0.610461       -16.6115
  40   2.0000      -0.594988       -16.1904
  41   2.0000      -0.569716       -15.5027
  42   2.0000      -0.562291       -15.3007
  43   2.0000      -0.547141       -14.8885
  44   2.0000      -0.541085       -14.7237
  45   2.0000      -0.526587       -14.3291
  46   2.0000      -0.515441       -14.0259
  47   2.0000      -0.505058       -13.7433
  48   2.0000      -0.501626       -13.6499
  49   2.0000      -0.495532       -13.4841
  50   2.0000      -0.486557       -13.2399
  51   2.0000      -0.475637       -12.9428
  52   2.0000      -0.470571       -12.8049
  53   2.0000      -0.468378       -12.7452
  54   2.0000      -0.461969       -12.5708
  55   2.0000      -0.450104       -12.2480
  56   2.0000      -0.445104       -12.1119
  57   2.0000      -0.442810       -12.0495
  58   2.0000      -0.432929       -11.7806
  59   2.0000      -0.426784       -11.6134
  60   2.0000      -0.423376       -11.5206
  61   2.0000      -0.416041       -11.3210
  62   2.0000      -0.414827       -11.2880
  63   2.0000      -0.343657        -9.3514
  64   2.0000      -0.334147        -9.0926
  65   2.0000      -0.326877        -8.8948
  66   2.0000      -0.295412        -8.0386
  67   0.0000       0.037776         1.0279
  68   0.0000       0.068374         1.8606
  69   0.0000       0.119757         3.2588
  70   0.0000       0.122783         3.3411
  71   0.0000       0.132601         3.6083

MULLIKEN ATOMIC CHARGES
-----------------------
   0 S :    0.143275
   1 C :   -0.142845
   2 C :   -0.084501
   3 C :    0.059664
   4 C :   -0.160055
   5 H :   -0.023451
   6 C :    0.043811
   7 H :    0.041856
   8 H :    0.017875
   9 C :   -0.058983
  10 H :    0.044764
  11 H :    0.013142
  12 C :   -0.068855
  13 H :    0.038228
  14 H :    0.041930
  15 H :    0.033183
  16 S :    0.126212
  17 C :   -0.112371
  18 C :   -0.027763
  19 C :   -0.030632
  20 C :   -0.207871
  21 H :    0.009530
  22 C :    0.076977
  23 H :    0.011822
  24 H :    0.014909
  25 C :   -0.037874
  26 H :    0.023617
  27 H :    0.029761
  28 C :   -0.048164
  29 H :    0.021910
  30 H :    0.021160
  31 H :    0.038762
  32 H :    0.065408
  33 H :    0.085570
Sum of atomic charges:   -0.0000000

LOEWDIN ATOMIC CHARGES
----------------------
   0 S :    0.439871
   1 C :   -0.230100
   2 C :   -0.065952
   3 C :   -0.052293
   4 C :   -0.206400
   5 H :    0.015065
   6 C :   -0.032173
   7 H :    0.034004
   8 H :    0.027828
   9 C :   -0.039975
  10 H :    0.036811
  11 H :    0.010082
  12 C :   -0.070503
  13 H :    0.031437
  14 H :    0.023886
  15 H :    0.027212
  16 S :    0.449205
  17 C :   -0.214839
  18 C :   -0.070697
  19 C :   -0.052278
  20 C :   -0.215840
  21 H :    0.026311
  22 C :   -0.030988
  23 H :    0.028827
  24 H :    0.028661
  25 C :   -0.025128
  26 H :    0.020555
  27 H :    0.021329
  28 C :   -0.062891
  29 H :    0.020005
  30 H :    0.022919
  31 H :    0.027763
  32 H :    0.037446
  33 H :    0.040839

  Mayer bond orders larger than 0.100000
B(  0-S ,  1-C ) :   1.1621 B(  0-S ,  4-C ) :   1.1529 B(  1-C ,  2-C ) :   1.5959
B(  1-C , 32-H ) :   0.9571 B(  2-C ,  3-C ) :   1.2440 B(  2-C ,  6-C ) :   1.0089
B(  3-C ,  4-C ) :   1.5836 B(  3-C ,  5-H ) :   1.0051 B(  4-C , 20-C ) :   1.0279
B(  6-C ,  7-H ) :   0.9422 B(  6-C ,  8-H ) :   0.9471 B(  6-C ,  9-C ) :   1.0622
B(  9-C , 10-H ) :   0.9568 B(  9-C , 11-H ) :   0.9600 B(  9-C , 12-C ) :   1.0677
B( 12-C , 13-H ) :   0.9749 B( 12-C , 14-H ) :   0.9797 B( 12-C , 15-H ) :   0.9748
B( 16-S , 17-C ) :   1.1911 B( 16-S , 20-C ) :   1.1690 B( 17-C , 18-C ) :   1.5421
B( 17-C , 20-C ) :   0.1014 B( 17-C , 33-H ) :   0.9624 B( 18-C , 19-C ) :   1.2772
B( 18-C , 21-H ) :   0.9938 B( 19-C , 20-C ) :   1.5777 B( 19-C , 22-C ) :   1.0363
B( 22-C , 23-H ) :   0.9324 B( 22-C , 24-H ) :   0.9325 B( 22-C , 25-C ) :   1.0667
B( 25-C , 26-H ) :   0.9541 B( 25-C , 27-H ) :   0.9587 B( 25-C , 28-C ) :   1.0762
B( 28-C , 29-H ) :   0.9781 B( 28-C , 30-H ) :   0.9746 B( 28-C , 31-H ) :   0.9767

Dispersion correction           -0.013946390
FINAL SINGLE POINT ENERGY     -1339.878475272007

DIPOLE MOMENT
-------------
                                X             Y             Z
Electronic contribution:     -1.33514       6.48089     -28.22822
Nuclear contribution   :      1.30157      -6.79779      28.58230
                        -----------------------------------------
Total Dipole Moment    :     -0.03357      -0.31690       0.35408
                        -----------------------------------------
Magnitude (a.u.)       :      0.47637
Magnitude (Debye)      :      1.21083

Rotational constants in cm-1:     0.017687     0.008829     0.006717
Rotational constants in MHz :   530.255258   264.700919   201.367435

                             ****ORCA TERMINATED NORMALLY****
TOTAL RUN TIME: 0 days 0 hours 0 minutes 21 seconds 137 msec
