                         Program Version 4.2.1 -  RELEASE  -
|  1> ! wB97X-D3 SP def2-SVP
|  2> %pal
|  3> nprocs 24
|  4> end
|  5>
|  6> * xyz 0 1
|  7> S 	 -110.543 	 54.8903 	 -90.3307
|  8> C 	 -109.108 	 54.2322 	 -89.5745
|  9> C 	 -107.987 	 54.6358 	 -90.302
| 10> C 	 -108.307 	 55.6001 	 -91.3143
| 11> C 	 -109.666 	 55.8316 	 -91.5277
| 12> H 	 -107.593 	 56.1191 	 -91.9091
| 13> C 	 -106.588 	 54.2325 	 -89.8812
| 14> H 	 -106.554 	 54.3202 	 -88.7592
| 15> H 	 -105.876 	 54.9888 	 -90.1769
| 16> C 	 -106.172 	 52.8488 	 -90.1091
| 17> H 	 -106.988 	 52.2003 	 -89.6833
| 18> H 	 -106.099 	 52.6214 	 -91.1687
| 19> C 	 -104.897 	 52.4302 	 -89.4027
| 20> H 	 -104.231 	 53.2646 	 -89.6174
| 21> H 	 -104.848 	 52.3223 	 -88.3571
| 22> H 	 -104.365 	 51.6228 	 -89.8934
| 23> S 	 -112.038 	 56.3841 	 -92.7736
| 24> C 	 -112.237 	 57.8404 	 -93.7555
| 25> C 	 -111.092 	 58.6558 	 -93.6849
| 26> C 	 -110.037 	 58.0396 	 -92.9945
| 27> C 	 -110.369 	 56.7807 	 -92.4862
| 28> H 	 -111.024 	 59.5331 	 -94.315
| 29> C 	 -108.743 	 58.8346 	 -92.7375
| 30> H 	 -108.76 	 59.8165 	 -93.2038
| 31> H 	 -107.901 	 58.277 	 -93.209
| 32> C 	 -108.504 	 59.1239 	 -91.2089
| 33> H 	 -108.377 	 58.2093 	 -90.5847
| 34> H 	 -109.43 	 59.5111 	 -90.6816
| 35> C 	 -107.272 	 59.886 	 -91.0474
| 36> H 	 -107.191 	 60.3353 	 -90.0532
| 37> H 	 -107.388 	 60.8031 	 -91.6985
| 38> H 	 -106.336 	 59.3132 	 -91.2955
| 39> H 	 -109.077 	 53.4764 	 -88.7912
| 40> H 	 -112.974 	 58.0496 	 -94.4509
| 41> *
| 42>
| 43>                          ****END OF INPUT****

CARTESIAN COORDINATES (ANGSTROEM)
---------------------------------
  S    -110.543000   54.890300  -90.330700
  C    -109.108000   54.232200  -89.574500
  C    -107.987000   54.635800  -90.302000
  C    -108.307000   55.600100  -91.314300
  C    -109.666000   55.831600  -91.527700
  H    -107.593000   56.119100  -91.909100
  C    -106.588000   54.232500  -89.881200
  H    -106.554000   54.320200  -88.759200
  H    -105.876000   54.988800  -90.176900
  C    -106.172000   52.848800  -90.109100
  H    -106.988000   52.200300  -89.683300
  H    -106.099000   52.621400  -91.168700
  C    -104.897000   52.430200  -89.402700
  H    -104.231000   53.264600  -89.617400
  H    -104.848000   52.322300  -88.357100
  H    -104.365000   51.622800  -89.893400
  S    -112.038000   56.384100  -92.773600
  C    -112.237000   57.840400  -93.755500
  C    -111.092000   58.655800  -93.684900
  C    -110.037000   58.039600  -92.994500
  C    -110.369000   56.780700  -92.486200
  H    -111.024000   59.533100  -94.315000
  C    -108.743000   58.834600  -92.737500
  H    -108.760000   59.816500  -93.203800
  H    -107.901000   58.277000  -93.209000
  C    -108.504000   59.123900  -91.208900
  H    -108.377000   58.209300  -90.584700
  H    -109.430000   59.511100  -90.681600
  C    -107.272000   59.886000  -91.047400
  H    -107.191000   60.335300  -90.053200
  H    -107.388000   60.803100  -91.698500
  H    -106.336000   59.313200  -91.295500
  H    -109.077000   53.476400  -88.791200
  H    -112.974000   58.049600  -94.450900

 Total Charge           Charge          ....    0
 Multiplicity           Mult            ....    1
 Number of Electrons    NEL             ....  134
 Basis Dimension        Dim             ....  322

ORBITAL ENERGIES
----------------

  NO   OCC          E(Eh)            E(eV)
   0   2.0000     -88.971783     -2421.0453
   1   2.0000     -88.966972     -2420.9144
   2   2.0000     -10.338621      -281.3282
   3   2.0000     -10.336688      -281.2756
   4   2.0000     -10.317563      -280.7552
   5   2.0000     -10.316774      -280.7337
   6   2.0000     -10.306785      -280.4619
   7   2.0000     -10.304010      -280.3864
   8   2.0000     -10.299857      -280.2733
   9   2.0000     -10.295982      -280.1679
  10   2.0000     -10.294675      -280.1323
  11   2.0000     -10.290191      -280.0103
  12   2.0000     -10.285221      -279.8751
  13   2.0000     -10.285100      -279.8718
  14   2.0000     -10.280034      -279.7340
  15   2.0000     -10.273084      -279.5448
  16   2.0000      -8.086114      -220.0343
  17   2.0000      -8.081285      -219.9029
  18   2.0000      -6.044596      -164.4818
  19   2.0000      -6.040651      -164.3745
  20   2.0000      -6.039947      -164.3553
  21   2.0000      -6.036953      -164.2738
  22   2.0000      -6.035633      -164.2379
  23   2.0000      -6.032119      -164.1423
  24   2.0000      -1.005121       -27.3507
  25   2.0000      -0.984444       -26.7881
  26   2.0000      -0.921921       -25.0867
  27   2.0000      -0.909672       -24.7534
  28   2.0000      -0.868489       -23.6328
  29   2.0000      -0.855261       -23.2728
  30   2.0000      -0.845995       -23.0207
  31   2.0000      -0.817832       -22.2543
  32   2.0000      -0.781608       -21.2686
  33   2.0000      -0.770057       -20.9543
  34   2.0000      -0.703330       -19.1386
  35   2.0000      -0.700833       -19.0706
  36   2.0000      -0.687571       -18.7097
  37   2.0000      -0.667824       -18.1724
  38   2.0000      -0.642225       -17.4758
  39   2.0000      -0.620730       -16.8909
  40   2.0000      -0.596085       -16.2203
  41   2.0000      -0.577270       -15.7083
  42   2.0000      -0.567767       -15.4497
  43   2.0000      -0.561154       -15.2698
  44   2.0000      -0.524783       -14.2801
  45   2.0000      -0.523675       -14.2499
  46   2.0000      -0.521146       -14.1811
  47   2.0000      -0.517319       -14.0770
  48   2.0000      -0.508998       -13.8505
  49   2.0000      -0.503070       -13.6892
  50   2.0000      -0.493112       -13.4183
  51   2.0000      -0.485192       -13.2027
  52   2.0000      -0.475109       -12.9284
  53   2.0000      -0.466138       -12.6843
  54   2.0000      -0.461084       -12.5467
  55   2.0000      -0.451540       -12.2870
  56   2.0000      -0.440414       -11.9843
  57   2.0000      -0.438391       -11.9292
  58   2.0000      -0.425865       -11.5884
  59   2.0000      -0.421422       -11.4675
  60   2.0000      -0.419576       -11.4173
  61   2.0000      -0.407929       -11.1003
  62   2.0000      -0.403252       -10.9730
  63   2.0000      -0.353863        -9.6291
  64   2.0000      -0.337725        -9.1900
  65   2.0000      -0.328753        -8.9458
  66   2.0000      -0.285199        -7.7607
  67   0.0000       0.019811         0.5391
  68   0.0000       0.070434         1.9166
  69   0.0000       0.100291         2.7291
  70   0.0000       0.117302         3.1919
  71   0.0000       0.137107         3.7309

MULLIKEN ATOMIC CHARGES
-----------------------
   0 S :    0.096529
   1 C :   -0.113405
   2 C :   -0.083719
   3 C :    0.017867
   4 C :   -0.113175
   5 H :   -0.009027
   6 C :    0.038900
   7 H :    0.028043
   8 H :    0.013810
   9 C :   -0.056035
  10 H :    0.024977
  11 H :    0.028899
  12 C :   -0.025223
  13 H :    0.007442
  14 H :    0.030291
  15 H :    0.030717
  16 S :    0.104433
  17 C :   -0.065854
  18 C :   -0.042929
  19 C :   -0.042530
  20 C :   -0.124005
  21 H :    0.025500
  22 C :    0.048615
  23 H :    0.015322
  24 H :    0.042741
  25 C :   -0.111920
  26 H :    0.042532
  27 H :    0.042098
  28 C :   -0.039853
  29 H :    0.032398
  30 H :    0.020206
  31 H :    0.044866
  32 H :    0.057193
  33 H :    0.034296
Sum of atomic charges:    0.0000000

LOEWDIN ATOMIC CHARGES
----------------------
   0 S :    0.402081
   1 C :   -0.198087
   2 C :   -0.061047
   3 C :   -0.071292
   4 C :   -0.187045
   5 H :    0.022740
   6 C :   -0.041740
   7 H :    0.038881
   8 H :    0.024503
   9 C :   -0.044372
  10 H :    0.026842
  11 H :    0.025154
  12 C :   -0.066413
  13 H :    0.025615
  14 H :    0.019435
  15 H :    0.030310
  16 S :    0.414012
  17 C :   -0.170842
  18 C :   -0.065847
  19 C :   -0.060729
  20 C :   -0.194202
  21 H :    0.033594
  22 C :   -0.027221
  23 H :    0.027593
  24 H :    0.033933
  25 C :   -0.059135
  26 H :    0.029053
  27 H :    0.034995
  28 C :   -0.073464
  29 H :    0.027801
  30 H :    0.024886
  31 H :    0.032004
  32 H :    0.032003
  33 H :    0.016001

  Mayer bond orders larger than 0.100000
B(  0-S ,  1-C ) :   1.1428 B(  0-S ,  4-C ) :   1.1612 B(  1-C ,  2-C ) :   1.5850
B(  1-C ,  4-C ) :   0.1038 B(  1-C , 32-H ) :   0.9667 B(  2-C ,  3-C ) :   1.2686
B(  2-C ,  6-C ) :   1.0194 B(  3-C ,  4-C ) :   1.5515 B(  3-C ,  5-H ) :   1.0025
B(  4-C , 20-C ) :   1.0289 B(  6-C ,  7-H ) :   0.9454 B(  6-C ,  8-H ) :   0.9367
B(  6-C ,  9-C ) :   1.0671 B(  9-C , 10-H ) :   0.9528 B(  9-C , 11-H ) :   0.9503
B(  9-C , 12-C ) :   1.0798 B( 12-C , 13-H ) :   0.9682 B( 12-C , 14-H ) :   0.9755
B( 12-C , 15-H ) :   0.9723 B( 16-S , 17-C ) :   1.1640 B( 16-S , 20-C ) :   1.1500
B( 17-C , 18-C ) :   1.5857 B( 17-C , 20-C ) :   0.1072 B( 17-C , 33-H ) :   0.9740
B( 18-C , 19-C ) :   1.2898 B( 18-C , 21-H ) :   0.9830 B( 19-C , 20-C ) :   1.5595
B( 19-C , 22-C ) :   1.0306 B( 22-C , 23-H ) :   0.9418 B( 22-C , 24-H ) :   0.9354
B( 22-C , 25-C ) :   1.0455 B( 25-C , 26-H ) :   0.9466 B( 25-C , 27-H ) :   0.9521
B( 25-C , 28-C ) :   1.0950 B( 28-C , 29-H ) :   0.9673 B( 28-C , 30-H ) :   0.9691
B( 28-C , 31-H ) :   0.9700

Dispersion correction           -0.014079090
FINAL SINGLE POINT ENERGY     -1339.864281647153

DIPOLE MOMENT
-------------
                                X             Y             Z
Electronic contribution:    -28.84475      -3.20840      -7.43215
Nuclear contribution   :     29.44111       3.47594       7.40763
                        -----------------------------------------
Total Dipole Moment    :      0.59636       0.26754      -0.02452
                        -----------------------------------------
Magnitude (a.u.)       :      0.65408
Magnitude (Debye)      :      1.66254

Rotational constants in cm-1:     0.020519     0.007993     0.006281
Rotational constants in MHz :   615.146871   239.610390   188.293662

                             ****ORCA TERMINATED NORMALLY****
TOTAL RUN TIME: 0 days 0 hours 0 minutes 21 seconds 376 msec
