                         Program Version 4.2.1 -  RELEASE  -
|  1> ! wB97X-D3 SP def2-SVP
|  2> %pal
|  3> nprocs 24
|  4> end
|  5>
|  6> * xyz 0 1
|  7> S 	 -43.8598 	 -51.4632 	 -67.7956
|  8> C 	 -42.6198 	 -50.8637 	 -68.8449
|  9> C 	 -42.4467 	 -49.488 	 -68.6161
| 10> C 	 -43.1815 	 -48.9377 	 -67.4693
| 11> C 	 -44.0198 	 -49.9208 	 -66.9673
| 12> H 	 -43.1569 	 -47.964 	 -67.0151
| 13> C 	 -41.4978 	 -48.5964 	 -69.3609
| 14> H 	 -40.5215 	 -49.0185 	 -69.3571
| 15> H 	 -41.337 	 -47.6858 	 -68.831
| 16> C 	 -41.8498 	 -48.3083 	 -70.8266
| 17> H 	 -41.2472 	 -47.4263 	 -71.0238
| 18> H 	 -41.6621 	 -49.2096 	 -71.3823
| 19> C 	 -43.3626 	 -47.9337 	 -71.0204
| 20> H 	 -43.6195 	 -47.9713 	 -72.0429
| 21> H 	 -43.9621 	 -48.6662 	 -70.4982
| 22> H 	 -43.5635 	 -46.9016 	 -70.6377
| 23> S 	 -44.7625 	 -51.1842 	 -64.678
| 24> C 	 -46.0082 	 -50.4845 	 -63.7384
| 25> C 	 -46.4563 	 -49.3236 	 -64.2192
| 26> C 	 -45.8331 	 -48.8669 	 -65.364
| 27> C 	 -44.9131 	 -49.8384 	 -65.7653
| 28> H 	 -47.3028 	 -48.8835 	 -63.6963
| 29> C 	 -46.3267 	 -47.6574 	 -66.1374
| 30> H 	 -45.538 	 -47.0278 	 -66.5933
| 31> H 	 -46.5279 	 -46.9483 	 -65.3378
| 32> C 	 -47.5404 	 -47.7955 	 -67.0686
| 33> H 	 -47.873 	 -46.7996 	 -67.3903
| 34> H 	 -48.3103 	 -48.336 	 -66.5373
| 35> C 	 -47.3205 	 -48.6855 	 -68.42
| 36> H 	 -47.0751 	 -49.7738 	 -68.275
| 37> H 	 -46.4599 	 -48.3696 	 -68.9788
| 38> H 	 -48.115 	 -48.6224 	 -69.1046
| 39> H 	 -42.103 	 -51.363 	 -69.6134
| 40> H 	 -46.4828 	 -50.8918 	 -62.8957
| 41> *
| 42>
| 43>                          ****END OF INPUT****

CARTESIAN COORDINATES (ANGSTROEM)
---------------------------------
  S    -43.859800  -51.463200  -67.795600
  C    -42.619800  -50.863700  -68.844900
  C    -42.446700  -49.488000  -68.616100
  C    -43.181500  -48.937700  -67.469300
  C    -44.019800  -49.920800  -66.967300
  H    -43.156900  -47.964000  -67.015100
  C    -41.497800  -48.596400  -69.360900
  H    -40.521500  -49.018500  -69.357100
  H    -41.337000  -47.685800  -68.831000
  C    -41.849800  -48.308300  -70.826600
  H    -41.247200  -47.426300  -71.023800
  H    -41.662100  -49.209600  -71.382300
  C    -43.362600  -47.933700  -71.020400
  H    -43.619500  -47.971300  -72.042900
  H    -43.962100  -48.666200  -70.498200
  H    -43.563500  -46.901600  -70.637700
  S    -44.762500  -51.184200  -64.678000
  C    -46.008200  -50.484500  -63.738400
  C    -46.456300  -49.323600  -64.219200
  C    -45.833100  -48.866900  -65.364000
  C    -44.913100  -49.838400  -65.765300
  H    -47.302800  -48.883500  -63.696300
  C    -46.326700  -47.657400  -66.137400
  H    -45.538000  -47.027800  -66.593300
  H    -46.527900  -46.948300  -65.337800
  C    -47.540400  -47.795500  -67.068600
  H    -47.873000  -46.799600  -67.390300
  H    -48.310300  -48.336000  -66.537300
  C    -47.320500  -48.685500  -68.420000
  H    -47.075100  -49.773800  -68.275000
  H    -46.459900  -48.369600  -68.978800
  H    -48.115000  -48.622400  -69.104600
  H    -42.103000  -51.363000  -69.613400
  H    -46.482800  -50.891800  -62.895700

 Total Charge           Charge          ....    0
 Multiplicity           Mult            ....    1
 Number of Electrons    NEL             ....  134
 Basis Dimension        Dim             ....  322

ORBITAL ENERGIES
----------------

  NO   OCC          E(Eh)            E(eV)
   0   2.0000     -88.968478     -2420.9554
   1   2.0000     -88.967740     -2420.9353
   2   2.0000     -10.331027      -281.1215
   3   2.0000     -10.327323      -281.0208
   4   2.0000     -10.310418      -280.5607
   5   2.0000     -10.303819      -280.3812
   6   2.0000     -10.301164      -280.3089
   7   2.0000     -10.300734      -280.2972
   8   2.0000     -10.295737      -280.1613
   9   2.0000     -10.295724      -280.1609
  10   2.0000     -10.295607      -280.1577
  11   2.0000     -10.284018      -279.8424
  12   2.0000     -10.281926      -279.7854
  13   2.0000     -10.278401      -279.6895
  14   2.0000     -10.272369      -279.5254
  15   2.0000     -10.271091      -279.4906
  16   2.0000      -8.084070      -219.9787
  17   2.0000      -8.082214      -219.9282
  18   2.0000      -6.042295      -164.4192
  19   2.0000      -6.040788      -164.3782
  20   2.0000      -6.038511      -164.3162
  21   2.0000      -6.036660      -164.2659
  22   2.0000      -6.035014      -164.2211
  23   2.0000      -6.033014      -164.1666
  24   2.0000      -1.013260       -27.5722
  25   2.0000      -0.986035       -26.8314
  26   2.0000      -0.910540       -24.7771
  27   2.0000      -0.903130       -24.5754
  28   2.0000      -0.866089       -23.5675
  29   2.0000      -0.848549       -23.0902
  30   2.0000      -0.840426       -22.8691
  31   2.0000      -0.813798       -22.1446
  32   2.0000      -0.785434       -21.3727
  33   2.0000      -0.775534       -21.1033
  34   2.0000      -0.707836       -19.2612
  35   2.0000      -0.700231       -19.0542
  36   2.0000      -0.693202       -18.8630
  37   2.0000      -0.659798       -17.9540
  38   2.0000      -0.641122       -17.4458
  39   2.0000      -0.612645       -16.6709
  40   2.0000      -0.600058       -16.3284
  41   2.0000      -0.580147       -15.7866
  42   2.0000      -0.552483       -15.0338
  43   2.0000      -0.544665       -14.8211
  44   2.0000      -0.540494       -14.7076
  45   2.0000      -0.530375       -14.4322
  46   2.0000      -0.515019       -14.0144
  47   2.0000      -0.505425       -13.7533
  48   2.0000      -0.498193       -13.5565
  49   2.0000      -0.495277       -13.4772
  50   2.0000      -0.486481       -13.2378
  51   2.0000      -0.478135       -13.0107
  52   2.0000      -0.469267       -12.7694
  53   2.0000      -0.461399       -12.5553
  54   2.0000      -0.459756       -12.5106
  55   2.0000      -0.450010       -12.2454
  56   2.0000      -0.447631       -12.1806
  57   2.0000      -0.443861       -12.0781
  58   2.0000      -0.433221       -11.7886
  59   2.0000      -0.427510       -11.6331
  60   2.0000      -0.418959       -11.4005
  61   2.0000      -0.409505       -11.1432
  62   2.0000      -0.403985       -10.9930
  63   2.0000      -0.350207        -9.5296
  64   2.0000      -0.339277        -9.2322
  65   2.0000      -0.325097        -8.8463
  66   2.0000      -0.289942        -7.8897
  67   0.0000       0.030452         0.8286
  68   0.0000       0.075868         2.0645
  69   0.0000       0.112069         3.0495
  70   0.0000       0.123265         3.3542
  71   0.0000       0.131322         3.5735

MULLIKEN ATOMIC CHARGES
-----------------------
   0 S :    0.109451
   1 C :   -0.089565
   2 C :   -0.142159
   3 C :    0.042585
   4 C :   -0.137928
   5 H :    0.016986
   6 C :    0.094841
   7 H :    0.022396
   8 H :    0.000936
   9 C :   -0.075411
  10 H :    0.035044
  11 H :    0.029550
  12 C :   -0.058295
  13 H :    0.025146
  14 H :    0.052203
  15 H :    0.030632
  16 S :    0.130848
  17 C :   -0.055030
  18 C :   -0.058564
  19 C :   -0.001211
  20 C :   -0.186164
  21 H :    0.012107
  22 C :    0.065453
  23 H :    0.015338
  24 H :    0.014370
  25 C :   -0.033565
  26 H :    0.037267
  27 H :    0.029860
  28 C :   -0.065443
  29 H :    0.041224
  30 H :    0.018797
  31 H :    0.023799
  32 H :    0.030609
  33 H :    0.023893
Sum of atomic charges:   -0.0000000

LOEWDIN ATOMIC CHARGES
----------------------
   0 S :    0.408372
   1 C :   -0.210558
   2 C :   -0.052447
   3 C :   -0.063364
   4 C :   -0.183722
   5 H :    0.032925
   6 C :   -0.038581
   7 H :    0.029458
   8 H :    0.022887
   9 C :   -0.031095
  10 H :    0.027505
  11 H :    0.019678
  12 C :   -0.063901
  13 H :    0.017889
  14 H :    0.024391
  15 H :    0.027416
  16 S :    0.433213
  17 C :   -0.194697
  18 C :   -0.072144
  19 C :   -0.062872
  20 C :   -0.194078
  21 H :    0.033905
  22 C :   -0.041205
  23 H :    0.031347
  24 H :    0.034862
  25 C :   -0.025379
  26 H :    0.028671
  27 H :    0.023269
  28 C :   -0.072920
  29 H :    0.032234
  30 H :    0.020317
  31 H :    0.017107
  32 H :    0.021486
  33 H :    0.020031

  Mayer bond orders larger than 0.100000
B(  0-S ,  1-C ) :   1.1192 B(  0-S ,  4-C ) :   1.1621 B(  1-C ,  2-C ) :   1.6049
B(  1-C , 32-H ) :   0.9787 B(  2-C ,  3-C ) :   1.2098 B(  2-C ,  6-C ) :   1.0321
B(  3-C ,  4-C ) :   1.5878 B(  3-C ,  5-H ) :   0.9944 B(  4-C , 20-C ) :   1.0093
B(  6-C ,  7-H ) :   0.9364 B(  6-C ,  8-H ) :   0.9398 B(  6-C ,  9-C ) :   1.0655
B(  9-C , 10-H ) :   0.9596 B(  9-C , 11-H ) :   0.9587 B(  9-C , 12-C ) :   1.0844
B( 12-C , 13-H ) :   0.9758 B( 12-C , 14-H ) :   0.9691 B( 12-C , 15-H ) :   0.9777
B( 16-S , 17-C ) :   1.1414 B( 16-S , 20-C ) :   1.1791 B( 17-C , 18-C ) :   1.6370
B( 17-C , 33-H ) :   0.9665 B( 18-C , 19-C ) :   1.2505 B( 18-C , 21-H ) :   0.9882
B( 19-C , 20-C ) :   1.5672 B( 19-C , 22-C ) :   1.0414 B( 22-C , 23-H ) :   0.9304
B( 22-C , 24-H ) :   0.9203 B( 22-C , 25-C ) :   1.0768 B( 25-C , 26-H ) :   0.9539
B( 25-C , 27-H ) :   0.9579 B( 25-C , 28-C ) :   1.0614 B( 28-C , 29-H ) :   0.9763
B( 28-C , 30-H ) :   0.9774 B( 28-C , 31-H ) :   0.9771

Dispersion correction           -0.015934417
FINAL SINGLE POINT ENERGY     -1339.869230933221

DIPOLE MOMENT
-------------
                                X             Y             Z
Electronic contribution:      3.81743     -19.01940      18.72115
Nuclear contribution   :     -3.87876      19.54010     -18.83965
                        -----------------------------------------
Total Dipole Moment    :     -0.06132       0.52070      -0.11850
                        -----------------------------------------
Magnitude (a.u.)       :      0.53752
Magnitude (Debye)      :      1.36627

Rotational constants in cm-1:     0.021013     0.009529     0.007569
Rotational constants in MHz :   629.943936   285.687205   226.914373

                             ****ORCA TERMINATED NORMALLY****
TOTAL RUN TIME: 0 days 0 hours 0 minutes 21 seconds 415 msec
