                         Program Version 4.2.1 -  RELEASE  -
|  1> ! wB97X-D3 SP def2-SVP
|  2> %pal
|  3> nprocs 24
|  4> end
|  5>
|  6> * xyz 0 1
|  7> S 	 -114.02 	 20.3105 	 -113.765
|  8> C 	 -115.406 	 21.2376 	 -114.168
|  9> C 	 -116.539 	 20.6805 	 -113.626
| 10> C 	 -116.225 	 19.6334 	 -112.725
| 11> C 	 -114.918 	 19.3519 	 -112.67
| 12> H 	 -116.941 	 19.067 	 -112.127
| 13> C 	 -117.911 	 21.2456 	 -113.819
| 14> H 	 -118.617 	 20.4366 	 -113.586
| 15> H 	 -118.134 	 21.3132 	 -114.839
| 16> C 	 -118.187 	 22.6467 	 -113.11
| 17> H 	 -117.962 	 22.4159 	 -112.029
| 18> H 	 -117.504 	 23.4097 	 -113.497
| 19> C 	 -119.717 	 22.8867 	 -113.267
| 20> H 	 -120.15 	 22.7861 	 -114.302
| 21> H 	 -120.226 	 22.1882 	 -112.605
| 22> H 	 -120.005 	 23.8528 	 -113.031
| 23> S 	 -113.705 	 18.5252 	 -110.298
| 24> C 	 -113.692 	 16.8005 	 -109.937
| 25> C 	 -113.756 	 16.1141 	 -111.132
| 26> C 	 -114.015 	 16.9272 	 -112.325
| 27> C 	 -114.31 	 18.2276 	 -111.906
| 28> H 	 -113.815 	 15.0237 	 -111.15
| 29> C 	 -114.383 	 16.3181 	 -113.672
| 30> H 	 -114.276 	 16.9439 	 -114.525
| 31> H 	 -115.426 	 16.1777 	 -113.682
| 32> C 	 -113.774 	 14.9632 	 -114.095
| 33> H 	 -114.186 	 14.5947 	 -115.031
| 34> H 	 -113.92 	 14.2119 	 -113.368
| 35> C 	 -112.237 	 14.9673 	 -114.195
| 36> H 	 -111.741 	 15.8393 	 -114.793
| 37> H 	 -111.858 	 14.0214 	 -114.742
| 38> H 	 -111.781 	 14.9706 	 -113.239
| 39> H 	 -115.33 	 22.0461 	 -114.87
| 40> H 	 -113.756 	 16.3758 	 -108.933
| 41> *
| 42>
| 43>                          ****END OF INPUT****

CARTESIAN COORDINATES (ANGSTROEM)
---------------------------------
  S    -114.020000   20.310500  -113.765000
  C    -115.406000   21.237600  -114.168000
  C    -116.539000   20.680500  -113.626000
  C    -116.225000   19.633400  -112.725000
  C    -114.918000   19.351900  -112.670000
  H    -116.941000   19.067000  -112.127000
  C    -117.911000   21.245600  -113.819000
  H    -118.617000   20.436600  -113.586000
  H    -118.134000   21.313200  -114.839000
  C    -118.187000   22.646700  -113.110000
  H    -117.962000   22.415900  -112.029000
  H    -117.504000   23.409700  -113.497000
  C    -119.717000   22.886700  -113.267000
  H    -120.150000   22.786100  -114.302000
  H    -120.226000   22.188200  -112.605000
  H    -120.005000   23.852800  -113.031000
  S    -113.705000   18.525200  -110.298000
  C    -113.692000   16.800500  -109.937000
  C    -113.756000   16.114100  -111.132000
  C    -114.015000   16.927200  -112.325000
  C    -114.310000   18.227600  -111.906000
  H    -113.815000   15.023700  -111.150000
  C    -114.383000   16.318100  -113.672000
  H    -114.276000   16.943900  -114.525000
  H    -115.426000   16.177700  -113.682000
  C    -113.774000   14.963200  -114.095000
  H    -114.186000   14.594700  -115.031000
  H    -113.920000   14.211900  -113.368000
  C    -112.237000   14.967300  -114.195000
  H    -111.741000   15.839300  -114.793000
  H    -111.858000   14.021400  -114.742000
  H    -111.781000   14.970600  -113.239000
  H    -115.330000   22.046100  -114.870000
  H    -113.756000   16.375800  -108.933000

 Total Charge           Charge          ....    0
 Multiplicity           Mult            ....    1
 Number of Electrons    NEL             ....  134
 Basis Dimension        Dim             ....  322

ORBITAL ENERGIES
----------------

  NO   OCC          E(Eh)            E(eV)
   0   2.0000     -88.961821     -2420.7742
   1   2.0000     -88.959692     -2420.7163
   2   2.0000     -10.326470      -280.9975
   3   2.0000     -10.319615      -280.8110
   4   2.0000     -10.318072      -280.7690
   5   2.0000     -10.310400      -280.5602
   6   2.0000     -10.307529      -280.4821
   7   2.0000     -10.299334      -280.2591
   8   2.0000     -10.298700      -280.2419
   9   2.0000     -10.294383      -280.1244
  10   2.0000     -10.287897      -279.9479
  11   2.0000     -10.286964      -279.9225
  12   2.0000     -10.285736      -279.8891
  13   2.0000     -10.285680      -279.8876
  14   2.0000     -10.282703      -279.8066
  15   2.0000     -10.279055      -279.7073
  16   2.0000      -8.078126      -219.8170
  17   2.0000      -8.074735      -219.7247
  18   2.0000      -6.036416      -164.2592
  19   2.0000      -6.033342      -164.1756
  20   2.0000      -6.032324      -164.1479
  21   2.0000      -6.029331      -164.0664
  22   2.0000      -6.029118      -164.0606
  23   2.0000      -6.025241      -163.9551
  24   2.0000      -1.012994       -27.5650
  25   2.0000      -0.986207       -26.8361
  26   2.0000      -0.907177       -24.6855
  27   2.0000      -0.906738       -24.6736
  28   2.0000      -0.865772       -23.5588
  29   2.0000      -0.851047       -23.1582
  30   2.0000      -0.841637       -22.9021
  31   2.0000      -0.816454       -22.2168
  32   2.0000      -0.782498       -21.2929
  33   2.0000      -0.770160       -20.9571
  34   2.0000      -0.707980       -19.2651
  35   2.0000      -0.699554       -19.0358
  36   2.0000      -0.691382       -18.8135
  37   2.0000      -0.653266       -17.7763
  38   2.0000      -0.648189       -17.6381
  39   2.0000      -0.619019       -16.8444
  40   2.0000      -0.604065       -16.4374
  41   2.0000      -0.569085       -15.4856
  42   2.0000      -0.557822       -15.1791
  43   2.0000      -0.546652       -14.8752
  44   2.0000      -0.540385       -14.7046
  45   2.0000      -0.522959       -14.2304
  46   2.0000      -0.516076       -14.0431
  47   2.0000      -0.510998       -13.9050
  48   2.0000      -0.504248       -13.7213
  49   2.0000      -0.497953       -13.5500
  50   2.0000      -0.488824       -13.3016
  51   2.0000      -0.475506       -12.9392
  52   2.0000      -0.469363       -12.7720
  53   2.0000      -0.462646       -12.5892
  54   2.0000      -0.458628       -12.4799
  55   2.0000      -0.454515       -12.3680
  56   2.0000      -0.439682       -11.9644
  57   2.0000      -0.432274       -11.7628
  58   2.0000      -0.431823       -11.7505
  59   2.0000      -0.428148       -11.6505
  60   2.0000      -0.418520       -11.3885
  61   2.0000      -0.417023       -11.3478
  62   2.0000      -0.415746       -11.3130
  63   2.0000      -0.336400        -9.1539
  64   2.0000      -0.325538        -8.8583
  65   2.0000      -0.316944        -8.6245
  66   2.0000      -0.309961        -8.4345
  67   0.0000       0.040862         1.1119
  68   0.0000       0.058016         1.5787
  69   0.0000       0.109125         2.9694
  70   0.0000       0.123944         3.3727
  71   0.0000       0.137445         3.7401

MULLIKEN ATOMIC CHARGES
-----------------------
   0 S :    0.123297
   1 C :   -0.130540
   2 C :   -0.072883
   3 C :    0.035383
   4 C :   -0.154459
   5 H :    0.012935
   6 C :    0.059095
   7 H :    0.009738
   8 H :    0.005902
   9 C :   -0.073771
  10 H :    0.048287
  11 H :    0.044235
  12 C :   -0.027734
  13 H :    0.032004
  14 H :    0.035052
  15 H :    0.014677
  16 S :    0.104277
  17 C :   -0.101675
  18 C :   -0.051268
  19 C :    0.014342
  20 C :   -0.203262
  21 H :    0.027427
  22 C :    0.097668
  23 H :    0.016462
  24 H :    0.025294
  25 C :   -0.047340
  26 H :    0.031030
  27 H :    0.013453
  28 C :   -0.115156
  29 H :    0.042559
  30 H :    0.039853
  31 H :    0.033877
  32 H :    0.042579
  33 H :    0.068663
Sum of atomic charges:    0.0000000

LOEWDIN ATOMIC CHARGES
----------------------
   0 S :    0.435280
   1 C :   -0.198493
   2 C :   -0.069009
   3 C :   -0.060459
   4 C :   -0.213966
   5 H :    0.036259
   6 C :   -0.038032
   7 H :    0.030770
   8 H :    0.020402
   9 C :   -0.029179
  10 H :    0.034670
  11 H :    0.024954
  12 C :   -0.065348
  13 H :    0.030435
  14 H :    0.029239
  15 H :    0.012684
  16 S :    0.392666
  17 C :   -0.186013
  18 C :   -0.071061
  19 C :   -0.049138
  20 C :   -0.195824
  21 H :    0.029385
  22 C :   -0.030541
  23 H :    0.028865
  24 H :    0.033494
  25 C :   -0.036611
  26 H :    0.028236
  27 H :    0.016247
  28 C :   -0.078635
  29 H :    0.031166
  30 H :    0.032895
  31 H :    0.016355
  32 H :    0.022715
  33 H :    0.035592

  Mayer bond orders larger than 0.100000
B(  0-S ,  1-C ) :   1.1604 B(  0-S ,  4-C ) :   1.1676 B(  1-C ,  2-C ) :   1.5792
B(  1-C , 32-H ) :   0.9787 B(  2-C ,  3-C ) :   1.2513 B(  2-C ,  6-C ) :   1.0308
B(  3-C ,  4-C ) :   1.5952 B(  3-C ,  5-H ) :   0.9970 B(  4-C , 20-C ) :   0.9890
B(  6-C ,  7-H ) :   0.9425 B(  6-C ,  8-H ) :   0.9295 B(  6-C ,  9-C ) :   1.0398
B(  9-C , 10-H ) :   0.9614 B(  9-C , 11-H ) :   0.9604 B(  9-C , 12-C ) :   1.0650
B( 12-C , 13-H ) :   0.9757 B( 12-C , 14-H ) :   0.9766 B( 12-C , 15-H ) :   0.9745
B( 16-S , 17-C ) :   1.1328 B( 16-S , 20-C ) :   1.1538 B( 17-C , 18-C ) :   1.6417
B( 17-C , 33-H ) :   0.9701 B( 18-C , 19-C ) :   1.1936 B( 18-C , 21-H ) :   0.9810
B( 19-C , 20-C ) :   1.6116 B( 19-C , 22-C ) :   1.0386 B( 22-C , 23-H ) :   0.9293
B( 22-C , 24-H ) :   0.9293 B( 22-C , 25-C ) :   1.0834 B( 25-C , 26-H ) :   0.9568
B( 25-C , 27-H ) :   0.9502 B( 25-C , 28-C ) :   1.0692 B( 28-C , 29-H ) :   0.9765
B( 28-C , 30-H ) :   0.9751 B( 28-C , 31-H ) :   0.9766

Dispersion correction           -0.014062944
FINAL SINGLE POINT ENERGY     -1339.858625508648

DIPOLE MOMENT
-------------
                                X             Y             Z
Electronic contribution:     13.79279       3.86934      10.57959
Nuclear contribution   :    -14.47820      -4.10216     -10.84803
                        -----------------------------------------
Total Dipole Moment    :     -0.68541      -0.23282      -0.26843
                        -----------------------------------------
Magnitude (a.u.)       :      0.77204
Magnitude (Debye)      :      1.96237

Rotational constants in cm-1:     0.023413     0.006827     0.006194
Rotational constants in MHz :   701.914979   204.674490   185.687611

                             ****ORCA TERMINATED NORMALLY****
TOTAL RUN TIME: 0 days 0 hours 0 minutes 21 seconds 16 msec
