                         Program Version 4.2.1 -  RELEASE  -
|  1> ! wB97X-D3 SP def2-SVP
|  2> %pal
|  3> nprocs 24
|  4> end
|  5>
|  6> * xyz 0 1
|  7> S 	 -30.9345 	 -34.2195 	 -92.2092
|  8> C 	 -31.2349 	 -35.332 	 -93.5252
|  9> C 	 -30.0593 	 -35.8633 	 -93.951
| 10> C 	 -28.907 	 -35.2743 	 -93.3296
| 11> C 	 -29.2578 	 -34.4647 	 -92.2999
| 12> H 	 -27.8923 	 -35.6335 	 -93.5536
| 13> C 	 -29.9732 	 -36.8726 	 -95.0433
| 14> H 	 -29.0775 	 -37.5071 	 -94.9281
| 15> H 	 -29.8118 	 -36.3934 	 -95.9891
| 16> C 	 -31.0743 	 -37.9099 	 -95.0834
| 17> H 	 -32.0734 	 -37.4753 	 -95.2403
| 18> H 	 -30.9213 	 -38.4143 	 -96.0903
| 19> C 	 -31.1225 	 -38.9127 	 -93.9306
| 20> H 	 -30.1317 	 -39.2861 	 -93.7689
| 21> H 	 -31.3866 	 -38.3709 	 -93.1004
| 22> H 	 -31.8426 	 -39.7172 	 -94.0227
| 23> S 	 -27.4478 	 -34.6352 	 -90.2395
| 24> C 	 -26.8282 	 -33.1047 	 -89.569
| 25> C 	 -27.1273 	 -32.0084 	 -90.3492
| 26> C 	 -27.9571 	 -32.3929 	 -91.4648
| 27> C 	 -28.3053 	 -33.773 	 -91.4659
| 28> H 	 -26.7256 	 -31.0482 	 -90.0198
| 29> C 	 -28.3139 	 -31.4353 	 -92.4804
| 30> H 	 -27.8374 	 -30.5164 	 -92.0705
| 31> H 	 -29.3518 	 -31.3763 	 -92.4868
| 32> C 	 -27.711 	 -31.7051 	 -93.8423
| 33> H 	 -28.3102 	 -32.4649 	 -94.3161
| 34> H 	 -26.7981 	 -32.2051 	 -93.6835
| 35> C 	 -27.4668 	 -30.479 	 -94.814
| 36> H 	 -26.8312 	 -30.6294 	 -95.7042
| 37> H 	 -27.0468 	 -29.5384 	 -94.2666
| 38> H 	 -28.3674 	 -30.2238 	 -95.3897
| 39> H 	 -32.2171 	 -35.5014 	 -93.9862
| 40> H 	 -26.2257 	 -33.0679 	 -88.6531
| 41> *
| 42>
| 43>                          ****END OF INPUT****

CARTESIAN COORDINATES (ANGSTROEM)
---------------------------------
  S    -30.934500  -34.219500  -92.209200
  C    -31.234900  -35.332000  -93.525200
  C    -30.059300  -35.863300  -93.951000
  C    -28.907000  -35.274300  -93.329600
  C    -29.257800  -34.464700  -92.299900
  H    -27.892300  -35.633500  -93.553600
  C    -29.973200  -36.872600  -95.043300
  H    -29.077500  -37.507100  -94.928100
  H    -29.811800  -36.393400  -95.989100
  C    -31.074300  -37.909900  -95.083400
  H    -32.073400  -37.475300  -95.240300
  H    -30.921300  -38.414300  -96.090300
  C    -31.122500  -38.912700  -93.930600
  H    -30.131700  -39.286100  -93.768900
  H    -31.386600  -38.370900  -93.100400
  H    -31.842600  -39.717200  -94.022700
  S    -27.447800  -34.635200  -90.239500
  C    -26.828200  -33.104700  -89.569000
  C    -27.127300  -32.008400  -90.349200
  C    -27.957100  -32.392900  -91.464800
  C    -28.305300  -33.773000  -91.465900
  H    -26.725600  -31.048200  -90.019800
  C    -28.313900  -31.435300  -92.480400
  H    -27.837400  -30.516400  -92.070500
  H    -29.351800  -31.376300  -92.486800
  C    -27.711000  -31.705100  -93.842300
  H    -28.310200  -32.464900  -94.316100
  H    -26.798100  -32.205100  -93.683500
  C    -27.466800  -30.479000  -94.814000
  H    -26.831200  -30.629400  -95.704200
  H    -27.046800  -29.538400  -94.266600
  H    -28.367400  -30.223800  -95.389700
  H    -32.217100  -35.501400  -93.986200
  H    -26.225700  -33.067900  -88.653100

 Total Charge           Charge          ....    0
 Multiplicity           Mult            ....    1
 Number of Electrons    NEL             ....  134
 Basis Dimension        Dim             ....  322

ORBITAL ENERGIES
----------------

  NO   OCC          E(Eh)            E(eV)
   0   2.0000     -88.966197     -2420.8933
   1   2.0000     -88.965657     -2420.8786
   2   2.0000     -10.322414      -280.8872
   3   2.0000     -10.321061      -280.8503
   4   2.0000     -10.318951      -280.7929
   5   2.0000     -10.311744      -280.5968
   6   2.0000     -10.300831      -280.2999
   7   2.0000     -10.296393      -280.1791
   8   2.0000     -10.295188      -280.1463
   9   2.0000     -10.291450      -280.0446
  10   2.0000     -10.289126      -279.9813
  11   2.0000     -10.288493      -279.9641
  12   2.0000     -10.287590      -279.9396
  13   2.0000     -10.278685      -279.6972
  14   2.0000     -10.276768      -279.6451
  15   2.0000     -10.267358      -279.3890
  16   2.0000      -8.081850      -219.9183
  17   2.0000      -8.080205      -219.8735
  18   2.0000      -6.040312      -164.3652
  19   2.0000      -6.038629      -164.3195
  20   2.0000      -6.036179      -164.2528
  21   2.0000      -6.034723      -164.2132
  22   2.0000      -6.032638      -164.1564
  23   2.0000      -6.031101      -164.1146
  24   2.0000      -1.014246       -27.5990
  25   2.0000      -0.986010       -26.8307
  26   2.0000      -0.918902       -25.0046
  27   2.0000      -0.912244       -24.8234
  28   2.0000      -0.871451       -23.7134
  29   2.0000      -0.851891       -23.1811
  30   2.0000      -0.841550       -22.8997
  31   2.0000      -0.816276       -22.2120
  32   2.0000      -0.789532       -21.4843
  33   2.0000      -0.767208       -20.8768
  34   2.0000      -0.713216       -19.4076
  35   2.0000      -0.704507       -19.1706
  36   2.0000      -0.690064       -18.7776
  37   2.0000      -0.660354       -17.9691
  38   2.0000      -0.641593       -17.4586
  39   2.0000      -0.612398       -16.6642
  40   2.0000      -0.593299       -16.1445
  41   2.0000      -0.578021       -15.7287
  42   2.0000      -0.566438       -15.4136
  43   2.0000      -0.562382       -15.3032
  44   2.0000      -0.539042       -14.6681
  45   2.0000      -0.518677       -14.1139
  46   2.0000      -0.514569       -14.0021
  47   2.0000      -0.510093       -13.8803
  48   2.0000      -0.503985       -13.7141
  49   2.0000      -0.493271       -13.4226
  50   2.0000      -0.490390       -13.3442
  51   2.0000      -0.488300       -13.2873
  52   2.0000      -0.471342       -12.8259
  53   2.0000      -0.463863       -12.6224
  54   2.0000      -0.456509       -12.4223
  55   2.0000      -0.451432       -12.2841
  56   2.0000      -0.451186       -12.2774
  57   2.0000      -0.437258       -11.8984
  58   2.0000      -0.432543       -11.7701
  59   2.0000      -0.420806       -11.4507
  60   2.0000      -0.414384       -11.2760
  61   2.0000      -0.413932       -11.2637
  62   2.0000      -0.410762       -11.1774
  63   2.0000      -0.337686        -9.1889
  64   2.0000      -0.333658        -9.0793
  65   2.0000      -0.323466        -8.8020
  66   2.0000      -0.300576        -8.1791
  67   0.0000       0.040743         1.1087
  68   0.0000       0.060764         1.6535
  69   0.0000       0.110617         3.0100
  70   0.0000       0.122685         3.3384
  71   0.0000       0.127963         3.4821

MULLIKEN ATOMIC CHARGES
-----------------------
   0 S :    0.127122
   1 C :   -0.149385
   2 C :   -0.086404
   3 C :    0.028351
   4 C :   -0.151447
   5 H :    0.020892
   6 C :    0.079563
   7 H :    0.015559
   8 H :    0.038523
   9 C :   -0.123753
  10 H :    0.017865
  11 H :    0.025396
  12 C :    0.023836
  13 H :    0.017027
  14 H :    0.013602
  15 H :    0.036408
  16 S :    0.115833
  17 C :   -0.113621
  18 C :   -0.030266
  19 C :   -0.085921
  20 C :   -0.171404
  21 H :    0.030278
  22 C :    0.157769
  23 H :    0.005657
  24 H :    0.015585
  25 C :   -0.043562
  26 H :    0.031839
  27 H :    0.017190
  28 C :   -0.089775
  29 H :    0.031932
  30 H :    0.046229
  31 H :    0.029523
  32 H :    0.058314
  33 H :    0.061246
Sum of atomic charges:   -0.0000000

LOEWDIN ATOMIC CHARGES
----------------------
   0 S :    0.431351
   1 C :   -0.203139
   2 C :   -0.068134
   3 C :   -0.063099
   4 C :   -0.214111
   5 H :    0.036127
   6 C :   -0.035456
   7 H :    0.032116
   8 H :    0.034214
   9 C :   -0.046280
  10 H :    0.016298
  11 H :    0.028111
  12 C :   -0.052251
  13 H :    0.022669
  14 H :    0.016651
  15 H :    0.029434
  16 S :    0.407041
  17 C :   -0.176136
  18 C :   -0.073949
  19 C :   -0.048863
  20 C :   -0.217180
  21 H :    0.038920
  22 C :   -0.031921
  23 H :    0.034592
  24 H :    0.023457
  25 C :   -0.035122
  26 H :    0.026585
  27 H :    0.018942
  28 C :   -0.083374
  29 H :    0.028724
  30 H :    0.034015
  31 H :    0.025592
  32 H :    0.033885
  33 H :    0.030290

  Mayer bond orders larger than 0.100000
B(  0-S ,  1-C ) :   1.1263 B(  0-S ,  4-C ) :   1.1667 B(  1-C ,  2-C ) :   1.6164
B(  1-C , 32-H ) :   0.9689 B(  2-C ,  3-C ) :   1.2437 B(  2-C ,  6-C ) :   1.0164
B(  3-C ,  4-C ) :   1.5706 B(  3-C ,  5-H ) :   0.9952 B(  4-C , 20-C ) :   1.0270
B(  6-C ,  7-H ) :   0.9404 B(  6-C ,  8-H ) :   0.9300 B(  6-C ,  9-C ) :   1.0856
B(  9-C , 10-H ) :   0.9505 B(  9-C , 11-H ) :   0.9522 B(  9-C , 12-C ) :   1.0699
B( 12-C , 13-H ) :   0.9722 B( 12-C , 14-H ) :   0.9710 B( 12-C , 15-H ) :   0.9741
B( 16-S , 17-C ) :   1.1590 B( 16-S , 20-C ) :   1.1489 B( 17-C , 18-C ) :   1.6167
B( 17-C , 33-H ) :   0.9622 B( 18-C , 19-C ) :   1.2413 B( 18-C , 21-H ) :   0.9870
B( 19-C , 20-C ) :   1.5533 B( 19-C , 22-C ) :   1.0658 B( 22-C , 23-H ) :   0.9232
B( 22-C , 24-H ) :   0.9042 B( 22-C , 25-C ) :   1.0660 B( 25-C , 26-H ) :   0.9479
B( 25-C , 27-H ) :   0.9596 B( 25-C , 28-C ) :   1.0711 B( 28-C , 29-H ) :   0.9759
B( 28-C , 30-H ) :   0.9758 B( 28-C , 31-H ) :   0.9756

Dispersion correction           -0.014992830
FINAL SINGLE POINT ENERGY     -1339.866967729315

DIPOLE MOMENT
-------------
                                X             Y             Z
Electronic contribution:      0.56157       1.70347      19.58234
Nuclear contribution   :     -0.43768      -1.70078     -19.99220
                        -----------------------------------------
Total Dipole Moment    :      0.12389       0.00269      -0.40986
                        -----------------------------------------
Magnitude (a.u.)       :      0.42819
Magnitude (Debye)      :      1.08836

Rotational constants in cm-1:     0.020782     0.008347     0.006920
Rotational constants in MHz :   623.043376   250.221937   207.459902

                             ****ORCA TERMINATED NORMALLY****
TOTAL RUN TIME: 0 days 0 hours 0 minutes 21 seconds 890 msec
