                         Program Version 4.2.1 -  RELEASE  -
|  1> ! wB97X-D3 SP def2-SVP
|  2> %pal
|  3> nprocs 24
|  4> end
|  5>
|  6> * xyz 0 1
|  7> S 	 -62.0329 	 20.6122 	 -118.242
|  8> C 	 -60.4078 	 21.198 	 -118.417
|  9> C 	 -59.9207 	 21.621 	 -117.244
| 10> C 	 -60.9148 	 21.5574 	 -116.177
| 11> C 	 -62.1605 	 21.0615 	 -116.566
| 12> H 	 -60.7515 	 21.9311 	 -115.169
| 13> C 	 -58.4909 	 21.9555 	 -116.982
| 14> H 	 -57.8681 	 22.2771 	 -117.818
| 15> H 	 -57.965 	 21.014 	 -116.786
| 16> C 	 -58.2053 	 22.8632 	 -115.754
| 17> H 	 -58.6181 	 22.4726 	 -114.783
| 18> H 	 -57.1329 	 22.9662 	 -115.679
| 19> C 	 -58.872 	 24.2058 	 -116.041
| 20> H 	 -58.5153 	 24.9942 	 -115.374
| 21> H 	 -58.6276 	 24.5881 	 -117.066
| 22> H 	 -59.9689 	 24.3182 	 -116.009
| 23> S 	 -64.224 	 19.4598 	 -115.603
| 24> C 	 -65.598 	 20.1575 	 -114.956
| 25> C 	 -65.3989 	 21.5124 	 -114.606
| 26> C 	 -64.0993 	 21.9877 	 -115.044
| 27> C 	 -63.4273 	 21.0253 	 -115.782
| 28> H 	 -66.0916 	 22.1129 	 -113.975
| 29> C 	 -63.5919 	 23.4692 	 -114.963
| 30> H 	 -62.4898 	 23.5064 	 -115.023
| 31> H 	 -63.846 	 23.71 	 -113.944
| 32> C 	 -64.2212 	 24.5429 	 -115.876
| 33> H 	 -65.2578 	 24.5417 	 -115.559
| 34> H 	 -64.1253 	 24.432 	 -116.992
| 35> C 	 -63.6215 	 25.8964 	 -115.544
| 36> H 	 -63.9337 	 26.6404 	 -116.28
| 37> H 	 -62.5391 	 25.834 	 -115.502
| 38> H 	 -63.9298 	 26.2507 	 -114.596
| 39> H 	 -59.8493 	 21.1782 	 -119.373
| 40> H 	 -66.4397 	 19.5939 	 -114.65
| 41> *
| 42>
| 43>                          ****END OF INPUT****

CARTESIAN COORDINATES (ANGSTROEM)
---------------------------------
  S    -62.032900   20.612200  -118.242000
  C    -60.407800   21.198000  -118.417000
  C    -59.920700   21.621000  -117.244000
  C    -60.914800   21.557400  -116.177000
  C    -62.160500   21.061500  -116.566000
  H    -60.751500   21.931100  -115.169000
  C    -58.490900   21.955500  -116.982000
  H    -57.868100   22.277100  -117.818000
  H    -57.965000   21.014000  -116.786000
  C    -58.205300   22.863200  -115.754000
  H    -58.618100   22.472600  -114.783000
  H    -57.132900   22.966200  -115.679000
  C    -58.872000   24.205800  -116.041000
  H    -58.515300   24.994200  -115.374000
  H    -58.627600   24.588100  -117.066000
  H    -59.968900   24.318200  -116.009000
  S    -64.224000   19.459800  -115.603000
  C    -65.598000   20.157500  -114.956000
  C    -65.398900   21.512400  -114.606000
  C    -64.099300   21.987700  -115.044000
  C    -63.427300   21.025300  -115.782000
  H    -66.091600   22.112900  -113.975000
  C    -63.591900   23.469200  -114.963000
  H    -62.489800   23.506400  -115.023000
  H    -63.846000   23.710000  -113.944000
  C    -64.221200   24.542900  -115.876000
  H    -65.257800   24.541700  -115.559000
  H    -64.125300   24.432000  -116.992000
  C    -63.621500   25.896400  -115.544000
  H    -63.933700   26.640400  -116.280000
  H    -62.539100   25.834000  -115.502000
  H    -63.929800   26.250700  -114.596000
  H    -59.849300   21.178200  -119.373000
  H    -66.439700   19.593900  -114.650000

 Total Charge           Charge          ....    0
 Multiplicity           Mult            ....    1
 Number of Electrons    NEL             ....  134
 Basis Dimension        Dim             ....  322

ORBITAL ENERGIES
----------------

  NO   OCC          E(Eh)            E(eV)
   0   2.0000     -88.964626     -2420.8506
   1   2.0000     -88.961463     -2420.7645
   2   2.0000     -10.332218      -281.1540
   3   2.0000     -10.328208      -281.0448
   4   2.0000     -10.315034      -280.6863
   5   2.0000     -10.310612      -280.5660
   6   2.0000     -10.308896      -280.5193
   7   2.0000     -10.302549      -280.3466
   8   2.0000     -10.299067      -280.2519
   9   2.0000     -10.296613      -280.1851
  10   2.0000     -10.295522      -280.1554
  11   2.0000     -10.294719      -280.1335
  12   2.0000     -10.292449      -280.0718
  13   2.0000     -10.287057      -279.9251
  14   2.0000     -10.279205      -279.7114
  15   2.0000     -10.271547      -279.5030
  16   2.0000      -8.080797      -219.8897
  17   2.0000      -8.076761      -219.7799
  18   2.0000      -6.039020      -164.3301
  19   2.0000      -6.035305      -164.2290
  20   2.0000      -6.035127      -164.2241
  21   2.0000      -6.031744      -164.1321
  22   2.0000      -6.031130      -164.1154
  23   2.0000      -6.027481      -164.0161
  24   2.0000      -1.006929       -27.3999
  25   2.0000      -0.989015       -26.9125
  26   2.0000      -0.913769       -24.8649
  27   2.0000      -0.908394       -24.7187
  28   2.0000      -0.868749       -23.6399
  29   2.0000      -0.852750       -23.2045
  30   2.0000      -0.837495       -22.7894
  31   2.0000      -0.811583       -22.0843
  32   2.0000      -0.782889       -21.3035
  33   2.0000      -0.774132       -21.0652
  34   2.0000      -0.707036       -19.2394
  35   2.0000      -0.696151       -18.9432
  36   2.0000      -0.689776       -18.7698
  37   2.0000      -0.658729       -17.9249
  38   2.0000      -0.639206       -17.3937
  39   2.0000      -0.625780       -17.0283
  40   2.0000      -0.596353       -16.2276
  41   2.0000      -0.569685       -15.5019
  42   2.0000      -0.566691       -15.4204
  43   2.0000      -0.551890       -15.0177
  44   2.0000      -0.532069       -14.4783
  45   2.0000      -0.525292       -14.2939
  46   2.0000      -0.514422       -13.9981
  47   2.0000      -0.512506       -13.9460
  48   2.0000      -0.503769       -13.7083
  49   2.0000      -0.498164       -13.5557
  50   2.0000      -0.492813       -13.4101
  51   2.0000      -0.482160       -13.1202
  52   2.0000      -0.471511       -12.8305
  53   2.0000      -0.463193       -12.6041
  54   2.0000      -0.457675       -12.4540
  55   2.0000      -0.446996       -12.1634
  56   2.0000      -0.445331       -12.1181
  57   2.0000      -0.438740       -11.9387
  58   2.0000      -0.429002       -11.6738
  59   2.0000      -0.424489       -11.5509
  60   2.0000      -0.421926       -11.4812
  61   2.0000      -0.414984       -11.2923
  62   2.0000      -0.411632       -11.2011
  63   2.0000      -0.343679        -9.3520
  64   2.0000      -0.330161        -8.9841
  65   2.0000      -0.323139        -8.7931
  66   2.0000      -0.297516        -8.0958
  67   0.0000       0.034087         0.9276
  68   0.0000       0.071165         1.9365
  69   0.0000       0.108147         2.9428
  70   0.0000       0.125437         3.4133
  71   0.0000       0.130592         3.5536

MULLIKEN ATOMIC CHARGES
-----------------------
   0 S :    0.108785
   1 C :   -0.145468
   2 C :   -0.051816
   3 C :    0.023774
   4 C :   -0.139024
   5 H :    0.015341
   6 C :    0.037502
   7 H :    0.020705
   8 H :    0.038448
   9 C :   -0.061374
  10 H :    0.043666
  11 H :    0.031893
  12 C :   -0.083791
  13 H :    0.027931
  14 H :    0.024248
  15 H :    0.042283
  16 S :    0.122673
  17 C :   -0.069801
  18 C :   -0.064821
  19 C :   -0.019960
  20 C :   -0.182334
  21 H :    0.032834
  22 C :    0.044271
  23 H :    0.013591
  24 H :    0.016058
  25 C :   -0.051815
  26 H :    0.023213
  27 H :    0.052402
  28 C :   -0.033055
  29 H :    0.036246
  30 H :    0.024142
  31 H :    0.012487
  32 H :    0.060225
  33 H :    0.050543
Sum of atomic charges:   -0.0000000

LOEWDIN ATOMIC CHARGES
----------------------
   0 S :    0.412476
   1 C :   -0.200614
   2 C :   -0.069955
   3 C :   -0.062934
   4 C :   -0.201034
   5 H :    0.026944
   6 C :   -0.038879
   7 H :    0.031345
   8 H :    0.036861
   9 C :   -0.039355
  10 H :    0.028770
  11 H :    0.027471
  12 C :   -0.079334
  13 H :    0.022722
  14 H :    0.027791
  15 H :    0.025862
  16 S :    0.436528
  17 C :   -0.201297
  18 C :   -0.080298
  19 C :   -0.051850
  20 C :   -0.199006
  21 H :    0.035768
  22 C :   -0.029311
  23 H :    0.025716
  24 H :    0.028749
  25 C :   -0.038517
  26 H :    0.023465
  27 H :    0.034495
  28 C :   -0.061312
  29 H :    0.028729
  30 H :    0.022315
  31 H :    0.016404
  32 H :    0.038693
  33 H :    0.022592

  Mayer bond orders larger than 0.100000
B(  0-S ,  1-C ) :   1.1340 B(  0-S ,  4-C ) :   1.1620 B(  1-C ,  2-C ) :   1.6267
B(  1-C , 32-H ) :   0.9675 B(  2-C ,  3-C ) :   1.2268 B(  2-C ,  6-C ) :   1.0200
B(  3-C ,  4-C ) :   1.5755 B(  3-C ,  5-H ) :   0.9877 B(  4-C , 20-C ) :   1.0135
B(  6-C ,  7-H ) :   0.9436 B(  6-C ,  8-H ) :   0.9307 B(  6-C ,  9-C ) :   1.0868
B(  9-C , 10-H ) :   0.9484 B(  9-C , 11-H ) :   0.9510 B(  9-C , 12-C ) :   1.0707
B( 12-C , 13-H ) :   0.9745 B( 12-C , 14-H ) :   0.9720 B( 12-C , 15-H ) :   0.9736
B( 16-S , 17-C ) :   1.1903 B( 16-S , 20-C ) :   1.1585 B( 17-C , 18-C ) :   1.5621
B( 17-C , 33-H ) :   0.9732 B( 18-C , 19-C ) :   1.2581 B( 18-C , 21-H ) :   0.9861
B( 19-C , 20-C ) :   1.5893 B( 19-C , 22-C ) :   1.0324 B( 22-C , 23-H ) :   0.9389
B( 22-C , 24-H ) :   0.9314 B( 22-C , 25-C ) :   1.0651 B( 25-C , 26-H ) :   0.9506
B( 25-C , 27-H ) :   0.9597 B( 25-C , 28-C ) :   1.0813 B( 28-C , 29-H ) :   0.9730
B( 28-C , 30-H ) :   0.9746 B( 28-C , 31-H ) :   0.9736

Dispersion correction           -0.014798416
FINAL SINGLE POINT ENERGY     -1339.880383521822

DIPOLE MOMENT
-------------
                                X             Y             Z
Electronic contribution:    -12.36105     -26.94817      -6.66582
Nuclear contribution   :     12.68622      27.44363       6.96850
                        -----------------------------------------
Total Dipole Moment    :      0.32517       0.49546       0.30268
                        -----------------------------------------
Magnitude (a.u.)       :      0.66545
Magnitude (Debye)      :      1.69145

Rotational constants in cm-1:     0.016822     0.010068     0.007361
Rotational constants in MHz :   504.321048   301.816817   220.666968

                             ****ORCA TERMINATED NORMALLY****
TOTAL RUN TIME: 0 days 0 hours 0 minutes 22 seconds 390 msec
