                         Program Version 4.2.1 -  RELEASE  -
|  1> ! wB97X-D3 SP def2-SVP
|  2> %pal
|  3> nprocs 24
|  4> end
|  5>
|  6> * xyz 0 1
|  7> S 	 -42.7462 	 -50.0806 	 -74.0988
|  8> C 	 -41.2388 	 -50.613 	 -74.7053
|  9> C 	 -41.2258 	 -50.836 	 -76.09
| 10> C 	 -42.5561 	 -50.6661 	 -76.6514
| 11> C 	 -43.4898 	 -50.2603 	 -75.7123
| 12> H 	 -42.7288 	 -50.9386 	 -77.6689
| 13> C 	 -40.1497 	 -51.548 	 -76.968
| 14> H 	 -39.1718 	 -51.2124 	 -76.5929
| 15> H 	 -40.3614 	 -51.0504 	 -77.958
| 16> C 	 -40.1459 	 -53.0577 	 -77.0295
| 17> H 	 -40.304 	 -53.4667 	 -76.0619
| 18> H 	 -41.0267 	 -53.3331 	 -77.5872
| 19> C 	 -38.9297 	 -53.7412 	 -77.6972
| 20> H 	 -37.9449 	 -53.3946 	 -77.4095
| 21> H 	 -39.0204 	 -54.815 	 -77.6669
| 22> H 	 -38.9513 	 -53.3707 	 -78.7383
| 23> S 	 -45.3261 	 -49.8579 	 -77.5901
| 24> C 	 -46.9073 	 -49.5093 	 -77.108
| 25> C 	 -47.1802 	 -49.7804 	 -75.7616
| 26> C 	 -45.9785 	 -50.2379 	 -75.1611
| 27> C 	 -44.8948 	 -50.0348 	 -75.9963
| 28> H 	 -48.1947 	 -49.651 	 -75.3861
| 29> C 	 -46.0141 	 -50.7197 	 -73.7153
| 30> H 	 -47.0404 	 -50.4244 	 -73.4498
| 31> H 	 -45.2634 	 -50.1839 	 -73.1685
| 32> C 	 -45.7321 	 -52.2343 	 -73.471
| 33> H 	 -45.7776 	 -52.5273 	 -72.4186
| 34> H 	 -44.6871 	 -52.4159 	 -73.7466
| 35> C 	 -46.6275 	 -53.2105 	 -74.2365
| 36> H 	 -46.193 	 -54.2375 	 -74.3792
| 37> H 	 -46.7231 	 -52.791 	 -75.2768
| 38> H 	 -47.593 	 -53.3292 	 -73.6775
| 39> H 	 -40.3454 	 -50.6188 	 -74.0737
| 40> H 	 -47.6534 	 -49.0834 	 -77.7706
| 41> *
| 42>
| 43>                          ****END OF INPUT****

CARTESIAN COORDINATES (ANGSTROEM)
---------------------------------
  S    -42.746200  -50.080600  -74.098800
  C    -41.238800  -50.613000  -74.705300
  C    -41.225800  -50.836000  -76.090000
  C    -42.556100  -50.666100  -76.651400
  C    -43.489800  -50.260300  -75.712300
  H    -42.728800  -50.938600  -77.668900
  C    -40.149700  -51.548000  -76.968000
  H    -39.171800  -51.212400  -76.592900
  H    -40.361400  -51.050400  -77.958000
  C    -40.145900  -53.057700  -77.029500
  H    -40.304000  -53.466700  -76.061900
  H    -41.026700  -53.333100  -77.587200
  C    -38.929700  -53.741200  -77.697200
  H    -37.944900  -53.394600  -77.409500
  H    -39.020400  -54.815000  -77.666900
  H    -38.951300  -53.370700  -78.738300
  S    -45.326100  -49.857900  -77.590100
  C    -46.907300  -49.509300  -77.108000
  C    -47.180200  -49.780400  -75.761600
  C    -45.978500  -50.237900  -75.161100
  C    -44.894800  -50.034800  -75.996300
  H    -48.194700  -49.651000  -75.386100
  C    -46.014100  -50.719700  -73.715300
  H    -47.040400  -50.424400  -73.449800
  H    -45.263400  -50.183900  -73.168500
  C    -45.732100  -52.234300  -73.471000
  H    -45.777600  -52.527300  -72.418600
  H    -44.687100  -52.415900  -73.746600
  C    -46.627500  -53.210500  -74.236500
  H    -46.193000  -54.237500  -74.379200
  H    -46.723100  -52.791000  -75.276800
  H    -47.593000  -53.329200  -73.677500
  H    -40.345400  -50.618800  -74.073700
  H    -47.653400  -49.083400  -77.770600

 Total Charge           Charge          ....    0
 Multiplicity           Mult            ....    1
 Number of Electrons    NEL             ....  134
 Basis Dimension        Dim             ....  322

ORBITAL ENERGIES
----------------

  NO   OCC          E(Eh)            E(eV)
   0   2.0000     -88.971500     -2421.0376
   1   2.0000     -88.968261     -2420.9495
   2   2.0000     -10.332064      -281.1498
   3   2.0000     -10.316155      -280.7169
   4   2.0000     -10.315013      -280.6858
   5   2.0000     -10.311176      -280.5814
   6   2.0000     -10.304744      -280.4063
   7   2.0000     -10.299634      -280.2673
   8   2.0000     -10.299129      -280.2536
   9   2.0000     -10.294203      -280.1195
  10   2.0000     -10.292622      -280.0765
  11   2.0000     -10.291198      -280.0377
  12   2.0000     -10.282709      -279.8067
  13   2.0000     -10.282112      -279.7905
  14   2.0000     -10.280617      -279.7498
  15   2.0000     -10.279290      -279.7137
  16   2.0000      -8.085816      -220.0262
  17   2.0000      -8.085622      -220.0210
  18   2.0000      -6.044220      -164.4716
  19   2.0000      -6.043919      -164.4634
  20   2.0000      -6.040208      -164.3624
  21   2.0000      -6.040198      -164.3622
  22   2.0000      -6.036577      -164.2636
  23   2.0000      -6.036367      -164.2579
  24   2.0000      -1.022227       -27.8162
  25   2.0000      -0.987140       -26.8614
  26   2.0000      -0.909247       -24.7419
  27   2.0000      -0.906201       -24.6590
  28   2.0000      -0.873918       -23.7805
  29   2.0000      -0.853433       -23.2231
  30   2.0000      -0.847808       -23.0700
  31   2.0000      -0.808918       -22.0118
  32   2.0000      -0.781241       -21.2587
  33   2.0000      -0.770280       -20.9604
  34   2.0000      -0.704858       -19.1801
  35   2.0000      -0.700750       -19.0684
  36   2.0000      -0.684586       -18.6285
  37   2.0000      -0.672503       -18.2997
  38   2.0000      -0.638528       -17.3752
  39   2.0000      -0.616943       -16.7879
  40   2.0000      -0.585924       -15.9438
  41   2.0000      -0.566256       -15.4086
  42   2.0000      -0.560649       -15.2560
  43   2.0000      -0.551512       -15.0074
  44   2.0000      -0.547861       -14.9080
  45   2.0000      -0.528855       -14.3909
  46   2.0000      -0.518032       -14.0964
  47   2.0000      -0.511767       -13.9259
  48   2.0000      -0.504959       -13.7406
  49   2.0000      -0.491597       -13.3770
  50   2.0000      -0.482217       -13.1218
  51   2.0000      -0.481410       -13.0998
  52   2.0000      -0.468998       -12.7621
  53   2.0000      -0.465725       -12.6730
  54   2.0000      -0.463485       -12.6121
  55   2.0000      -0.452101       -12.3023
  56   2.0000      -0.448567       -12.2061
  57   2.0000      -0.444427       -12.0935
  58   2.0000      -0.429652       -11.6914
  59   2.0000      -0.420963       -11.4550
  60   2.0000      -0.415809       -11.3147
  61   2.0000      -0.410630       -11.1738
  62   2.0000      -0.410013       -11.1570
  63   2.0000      -0.362013        -9.8509
  64   2.0000      -0.333559        -9.0766
  65   2.0000      -0.330497        -8.9933
  66   2.0000      -0.277209        -7.5432
  67   0.0000       0.020074         0.5463
  68   0.0000       0.079601         2.1661
  69   0.0000       0.106741         2.9046
  70   0.0000       0.113247         3.0816
  71   0.0000       0.138410         3.7663

MULLIKEN ATOMIC CHARGES
-----------------------
   0 S :    0.107550
   1 C :   -0.130914
   2 C :   -0.079557
   3 C :   -0.032128
   4 C :   -0.112902
   5 H :    0.014755
   6 C :    0.019931
   7 H :    0.020373
   8 H :    0.036453
   9 C :   -0.022006
  10 H :    0.019903
  11 H :    0.015531
  12 C :   -0.041644
  13 H :    0.026088
  14 H :    0.045422
  15 H :    0.022082
  16 S :    0.125564
  17 C :   -0.092174
  18 C :   -0.037408
  19 C :   -0.118670
  20 C :   -0.098116
  21 H :    0.028219
  22 C :    0.098817
  23 H :    0.016644
  24 H :    0.032400
  25 C :   -0.063108
  26 H :    0.028991
  27 H :    0.027939
  28 C :   -0.094329
  29 H :    0.040715
  30 H :    0.049798
  31 H :    0.039507
  32 H :    0.056130
  33 H :    0.050145
Sum of atomic charges:   -0.0000000

LOEWDIN ATOMIC CHARGES
----------------------
   0 S :    0.420960
   1 C :   -0.214883
   2 C :   -0.060816
   3 C :   -0.077054
   4 C :   -0.173692
   5 H :    0.022285
   6 C :   -0.033408
   7 H :    0.026526
   8 H :    0.034891
   9 C :   -0.040200
  10 H :    0.019761
  11 H :    0.023811
  12 C :   -0.063176
  13 H :    0.022023
  14 H :    0.028620
  15 H :    0.028655
  16 S :    0.478054
  17 C :   -0.203716
  18 C :   -0.070236
  19 C :   -0.062605
  20 C :   -0.227358
  21 H :    0.036902
  22 C :   -0.029045
  23 H :    0.030612
  24 H :    0.019947
  25 C :   -0.046409
  26 H :    0.024152
  27 H :    0.020387
  28 C :   -0.078974
  29 H :    0.030147
  30 H :    0.031847
  31 H :    0.027304
  32 H :    0.029634
  33 H :    0.025053

  Mayer bond orders larger than 0.100000
B(  0-S ,  1-C ) :   1.1441 B(  0-S ,  4-C ) :   1.1369 B(  1-C ,  2-C ) :   1.6103
B(  1-C , 32-H ) :   0.9631 B(  2-C ,  3-C ) :   1.2521 B(  2-C ,  6-C ) :   1.0262
B(  3-C ,  4-C ) :   1.5598 B(  3-C ,  5-H ) :   0.9826 B(  4-C , 20-C ) :   1.0889
B(  6-C ,  7-H ) :   0.9412 B(  6-C ,  8-H ) :   0.9414 B(  6-C ,  9-C ) :   1.0623
B(  9-C , 10-H ) :   0.9545 B(  9-C , 11-H ) :   0.9493 B(  9-C , 12-C ) :   1.0789
B( 12-C , 13-H ) :   0.9769 B( 12-C , 14-H ) :   0.9750 B( 12-C , 15-H ) :   0.9738
B( 16-S , 17-C ) :   1.1869 B( 16-S , 20-C ) :   1.1747 B( 17-C , 18-C ) :   1.5831
B( 17-C , 33-H ) :   0.9667 B( 18-C , 19-C ) :   1.2542 B( 18-C , 21-H ) :   0.9932
B( 19-C , 20-C ) :   1.5185 B( 19-C , 22-C ) :   1.0260 B( 22-C , 23-H ) :   0.9375
B( 22-C , 24-H ) :   0.9344 B( 22-C , 25-C ) :   1.0596 B( 25-C , 26-H ) :   0.9592
B( 25-C , 27-H ) :   0.9533 B( 25-C , 28-C ) :   1.0734 B( 28-C , 29-H ) :   0.9750
B( 28-C , 30-H ) :   0.9750 B( 28-C , 31-H ) :   0.9765

Dispersion correction           -0.014580244
FINAL SINGLE POINT ENERGY     -1339.869966742015

DIPOLE MOMENT
-------------
                                X             Y             Z
Electronic contribution:     -7.47486      18.62072      -0.73469
Nuclear contribution   :      7.51134     -18.92674       0.66209
                        -----------------------------------------
Total Dipole Moment    :      0.03648      -0.30602      -0.07260
                        -----------------------------------------
Magnitude (a.u.)       :      0.31662
Magnitude (Debye)      :      0.80478

Rotational constants in cm-1:     0.020641     0.008013     0.007296
Rotational constants in MHz :   618.794327   240.214241   218.733412

                             ****ORCA TERMINATED NORMALLY****
TOTAL RUN TIME: 0 days 0 hours 0 minutes 21 seconds 795 msec
