                         Program Version 4.2.1 -  RELEASE  -
|  1> ! wB97X-D3 SP def2-SVP
|  2> %pal
|  3> nprocs 24
|  4> end
|  5>
|  6> * xyz 0 1
|  7> S 	 -106.336 	 21.7861 	 -114.62
|  8> C 	 -104.998 	 20.7074 	 -114.181
|  9> C 	 -104.86 	 20.5802 	 -112.838
| 10> C 	 -106.036 	 21.0774 	 -112.17
| 11> C 	 -106.992 	 21.6445 	 -113.002
| 12> H 	 -106.336 	 20.9822 	 -111.107
| 13> C 	 -103.698 	 19.8341 	 -112.209
| 14> H 	 -103.09 	 19.3537 	 -113.064
| 15> H 	 -104.061 	 19.201 	 -111.456
| 16> C 	 -102.639 	 20.7794 	 -111.605
| 17> H 	 -101.806 	 20.1365 	 -111.289
| 18> H 	 -102.247 	 21.4809 	 -112.34
| 19> C 	 -103.148 	 21.5105 	 -110.353
| 20> H 	 -103.652 	 20.6856 	 -109.853
| 21> H 	 -102.226 	 21.7867 	 -109.829
| 22> H 	 -103.831 	 22.3964 	 -110.546
| 23> S 	 -109.69 	 21.468 	 -112.064
| 24> C 	 -110.515 	 22.9298 	 -111.649
| 25> C 	 -109.633 	 23.989 	 -111.692
| 26> C 	 -108.288 	 23.6413 	 -112.102
| 27> C 	 -108.203 	 22.3205 	 -112.449
| 28> H 	 -109.933 	 25.0034 	 -111.488
| 29> C 	 -107.205 	 24.7216 	 -112.079
| 30> H 	 -106.242 	 24.4415 	 -112.564
| 31> H 	 -106.821 	 24.8601 	 -111.067
| 32> C 	 -107.596 	 26.0353 	 -112.743
| 33> H 	 -108.67 	 26.171 	 -112.575
| 34> H 	 -107.627 	 25.9507 	 -113.808
| 35> C 	 -106.868 	 27.2471 	 -112.169
| 36> H 	 -107.168 	 27.3586 	 -111.123
| 37> H 	 -107.126 	 28.1774 	 -112.732
| 38> H 	 -105.746 	 27.0931 	 -112.132
| 39> H 	 -104.282 	 20.4273 	 -114.893
| 40> H 	 -111.544 	 23.057 	 -111.315
| 41> *
| 42>
| 43>                          ****END OF INPUT****

CARTESIAN COORDINATES (ANGSTROEM)
---------------------------------
  S    -106.336000   21.786100  -114.620000
  C    -104.998000   20.707400  -114.181000
  C    -104.860000   20.580200  -112.838000
  C    -106.036000   21.077400  -112.170000
  C    -106.992000   21.644500  -113.002000
  H    -106.336000   20.982200  -111.107000
  C    -103.698000   19.834100  -112.209000
  H    -103.090000   19.353700  -113.064000
  H    -104.061000   19.201000  -111.456000
  C    -102.639000   20.779400  -111.605000
  H    -101.806000   20.136500  -111.289000
  H    -102.247000   21.480900  -112.340000
  C    -103.148000   21.510500  -110.353000
  H    -103.652000   20.685600  -109.853000
  H    -102.226000   21.786700  -109.829000
  H    -103.831000   22.396400  -110.546000
  S    -109.690000   21.468000  -112.064000
  C    -110.515000   22.929800  -111.649000
  C    -109.633000   23.989000  -111.692000
  C    -108.288000   23.641300  -112.102000
  C    -108.203000   22.320500  -112.449000
  H    -109.933000   25.003400  -111.488000
  C    -107.205000   24.721600  -112.079000
  H    -106.242000   24.441500  -112.564000
  H    -106.821000   24.860100  -111.067000
  C    -107.596000   26.035300  -112.743000
  H    -108.670000   26.171000  -112.575000
  H    -107.627000   25.950700  -113.808000
  C    -106.868000   27.247100  -112.169000
  H    -107.168000   27.358600  -111.123000
  H    -107.126000   28.177400  -112.732000
  H    -105.746000   27.093100  -112.132000
  H    -104.282000   20.427300  -114.893000
  H    -111.544000   23.057000  -111.315000

 Total Charge           Charge          ....    0
 Multiplicity           Mult            ....    1
 Number of Electrons    NEL             ....  134
 Basis Dimension        Dim             ....  322

ORBITAL ENERGIES
----------------

  NO   OCC          E(Eh)            E(eV)
   0   2.0000     -88.966174     -2420.8927
   1   2.0000     -88.964565     -2420.8489
   2   2.0000     -10.328885      -281.0632
   3   2.0000     -10.326556      -280.9999
   4   2.0000     -10.317624      -280.7568
   5   2.0000     -10.310207      -280.5550
   6   2.0000     -10.303006      -280.3590
   7   2.0000     -10.301261      -280.3116
   8   2.0000     -10.297012      -280.1959
   9   2.0000     -10.296671      -280.1867
  10   2.0000     -10.292582      -280.0754
  11   2.0000     -10.291593      -280.0485
  12   2.0000     -10.286426      -279.9079
  13   2.0000     -10.286348      -279.9058
  14   2.0000     -10.281836      -279.7830
  15   2.0000     -10.281156      -279.7645
  16   2.0000      -8.080984      -219.8948
  17   2.0000      -8.078881      -219.8375
  18   2.0000      -6.039610      -164.3461
  19   2.0000      -6.037388      -164.2857
  20   2.0000      -6.035435      -164.2325
  21   2.0000      -6.033644      -164.1838
  22   2.0000      -6.031665      -164.1300
  23   2.0000      -6.029466      -164.0701
  24   2.0000      -1.004497       -27.3337
  25   2.0000      -0.985657       -26.8211
  26   2.0000      -0.914386       -24.8817
  27   2.0000      -0.909914       -24.7600
  28   2.0000      -0.868809       -23.6415
  29   2.0000      -0.846078       -23.0230
  30   2.0000      -0.842710       -22.9313
  31   2.0000      -0.813617       -22.1396
  32   2.0000      -0.781482       -21.2652
  33   2.0000      -0.771909       -21.0047
  34   2.0000      -0.703764       -19.1504
  35   2.0000      -0.698303       -19.0018
  36   2.0000      -0.694056       -18.8862
  37   2.0000      -0.656969       -17.8770
  38   2.0000      -0.642118       -17.4729
  39   2.0000      -0.612312       -16.6619
  40   2.0000      -0.599810       -16.3217
  41   2.0000      -0.581582       -15.8256
  42   2.0000      -0.552223       -15.0267
  43   2.0000      -0.545608       -14.8467
  44   2.0000      -0.543014       -14.7762
  45   2.0000      -0.523913       -14.2564
  46   2.0000      -0.517996       -14.0954
  47   2.0000      -0.511583       -13.9209
  48   2.0000      -0.507972       -13.8226
  49   2.0000      -0.499221       -13.5845
  50   2.0000      -0.488801       -13.3010
  51   2.0000      -0.480502       -13.0751
  52   2.0000      -0.471500       -12.8302
  53   2.0000      -0.464013       -12.6264
  54   2.0000      -0.455148       -12.3852
  55   2.0000      -0.454568       -12.3694
  56   2.0000      -0.443841       -12.0775
  57   2.0000      -0.438412       -11.9298
  58   2.0000      -0.434338       -11.8189
  59   2.0000      -0.422594       -11.4994
  60   2.0000      -0.420114       -11.4319
  61   2.0000      -0.412395       -11.2218
  62   2.0000      -0.402158       -10.9433
  63   2.0000      -0.332030        -9.0350
  64   2.0000      -0.328205        -8.9309
  65   2.0000      -0.325558        -8.8589
  66   2.0000      -0.312347        -8.4994
  67   0.0000       0.046657         1.2696
  68   0.0000       0.054226         1.4756
  69   0.0000       0.107492         2.9250
  70   0.0000       0.123746         3.3673
  71   0.0000       0.130850         3.5606

MULLIKEN ATOMIC CHARGES
-----------------------
   0 S :    0.102159
   1 C :   -0.113794
   2 C :   -0.046484
   3 C :    0.011862
   4 C :   -0.158354
   5 H :    0.027556
   6 C :    0.058834
   7 H :    0.037231
   8 H :    0.026072
   9 C :   -0.095693
  10 H :    0.032541
  11 H :    0.028275
  12 C :   -0.064102
  13 H :    0.022323
  14 H :    0.041027
  15 H :    0.062630
  16 S :    0.117815
  17 C :   -0.091052
  18 C :   -0.039277
  19 C :   -0.010923
  20 C :   -0.208242
  21 H :    0.017562
  22 C :    0.075936
  23 H :    0.027395
  24 H :    0.031559
  25 C :   -0.076115
  26 H :    0.012429
  27 H :    0.025365
  28 C :   -0.066726
  29 H :    0.033104
  30 H :    0.046988
  31 H :    0.039582
  32 H :    0.029742
  33 H :    0.062775
Sum of atomic charges:   -0.0000000

LOEWDIN ATOMIC CHARGES
----------------------
   0 S :    0.388661
   1 C :   -0.172390
   2 C :   -0.063622
   3 C :   -0.063784
   4 C :   -0.194585
   5 H :    0.036293
   6 C :   -0.026539
   7 H :    0.044061
   8 H :    0.021313
   9 C :   -0.041645
  10 H :    0.024872
  11 H :    0.020545
  12 C :   -0.072362
  13 H :    0.022542
  14 H :    0.029363
  15 H :    0.034370
  16 S :    0.412001
  17 C :   -0.194529
  18 C :   -0.072219
  19 C :   -0.053478
  20 C :   -0.203074
  21 H :    0.025467
  22 C :   -0.035202
  23 H :    0.033765
  24 H :    0.033456
  25 C :   -0.047185
  26 H :    0.020365
  27 H :    0.022596
  28 C :   -0.068339
  29 H :    0.025590
  30 H :    0.032434
  31 H :    0.028681
  32 H :    0.015691
  33 H :    0.036887

  Mayer bond orders larger than 0.100000
B(  0-S ,  1-C ) :   1.1344 B(  0-S ,  4-C ) :   1.1359 B(  1-C ,  2-C ) :   1.6383
B(  1-C , 32-H ) :   0.9721 B(  2-C ,  3-C ) :   1.1982 B(  2-C ,  6-C ) :   1.0231
B(  3-C ,  4-C ) :   1.6165 B(  3-C ,  5-H ) :   0.9870 B(  4-C , 20-C ) :   1.0093
B(  6-C ,  7-H ) :   0.9399 B(  6-C ,  8-H ) :   0.9430 B(  6-C ,  9-C ) :   1.0781
B(  9-C , 10-H ) :   0.9584 B(  9-C , 11-H ) :   0.9522 B(  9-C , 12-C ) :   1.0699
B( 12-C , 13-H ) :   0.9749 B( 12-C , 14-H ) :   0.9746 B( 12-C , 15-H ) :   0.9714
B( 16-S , 17-C ) :   1.1529 B( 16-S , 20-C ) :   1.1374 B( 17-C , 18-C ) :   1.6198
B( 17-C , 33-H ) :   0.9660 B( 18-C , 19-C ) :   1.2333 B( 18-C , 21-H ) :   0.9841
B( 19-C , 20-C ) :   1.6272 B( 19-C , 22-C ) :   1.0350 B( 22-C , 23-H ) :   0.9277
B( 22-C , 24-H ) :   0.9424 B( 22-C , 25-C ) :   1.0402 B( 25-C , 26-H ) :   0.9622
B( 25-C , 27-H ) :   0.9523 B( 25-C , 28-C ) :   1.0702 B( 28-C , 29-H ) :   0.9756
B( 28-C , 30-H ) :   0.9725 B( 28-C , 31-H ) :   0.9755

Dispersion correction           -0.014512630
FINAL SINGLE POINT ENERGY     -1339.873994143996

DIPOLE MOMENT
-------------
                                X             Y             Z
Electronic contribution:    -18.58409     -13.69507     -10.55236
Nuclear contribution   :     19.04964      13.98901      10.93048
                        -----------------------------------------
Total Dipole Moment    :      0.46555       0.29394       0.37812
                        -----------------------------------------
Magnitude (a.u.)       :      0.66791
Magnitude (Debye)      :      1.69769

Rotational constants in cm-1:     0.017053     0.008695     0.007289
Rotational constants in MHz :   511.225980   260.654874   218.504877

                             ****ORCA TERMINATED NORMALLY****
TOTAL RUN TIME: 0 days 0 hours 0 minutes 21 seconds 662 msec
