                         Program Version 4.2.1 -  RELEASE  -
|  1> ! wB97X-D3 SP def2-SVP
|  2> %pal
|  3> nprocs 24
|  4> end
|  5>
|  6> * xyz 0 1
|  7> S 	 -61.0239 	 -59.5752 	 -80.6627
|  8> C 	 -62.0789 	 -60.7948 	 -79.8702
|  9> C 	 -63.3618 	 -60.7193 	 -80.4058
| 10> C 	 -63.5818 	 -59.6267 	 -81.2912
| 11> C 	 -62.4642 	 -58.83 	 -81.4191
| 12> H 	 -64.5135 	 -59.3504 	 -81.8017
| 13> C 	 -64.4769 	 -61.6413 	 -79.9822
| 14> H 	 -63.9546 	 -62.5073 	 -79.5825
| 15> H 	 -65.0544 	 -61.9822 	 -80.8232
| 16> C 	 -65.4976 	 -60.8719 	 -79.0301
| 17> H 	 -65.4893 	 -59.6992 	 -79.1791
| 18> H 	 -66.5804 	 -61.1326 	 -79.206
| 19> C 	 -65.2351 	 -61.1882 	 -77.601
| 20> H 	 -64.2625 	 -60.7224 	 -77.3556
| 21> H 	 -65.9533 	 -60.7558 	 -76.882
| 22> H 	 -65.0744 	 -62.2732 	 -77.4451
| 23> S 	 -61.1944 	 -57.5092 	 -83.4597
| 24> C 	 -61.1924 	 -55.7798 	 -83.298
| 25> C 	 -62.2448 	 -55.3146 	 -82.5379
| 26> C 	 -62.9031 	 -56.387 	 -81.8491
| 27> C 	 -62.3701 	 -57.6194 	 -82.1831
| 28> H 	 -62.3503 	 -54.3027 	 -82.3941
| 29> C 	 -63.7574 	 -56.0888 	 -80.6824
| 30> H 	 -64.5388 	 -56.8718 	 -80.5238
| 31> H 	 -64.346 	 -55.1867 	 -80.9153
| 32> C 	 -62.9001 	 -56.1828 	 -79.362
| 33> H 	 -61.9813 	 -55.5426 	 -79.36
| 34> H 	 -62.6187 	 -57.2581 	 -79.0954
| 35> C 	 -63.7879 	 -55.7266 	 -78.1578
| 36> H 	 -64.4481 	 -56.6089 	 -77.8818
| 37> H 	 -64.4703 	 -54.8846 	 -78.3506
| 38> H 	 -63.2108 	 -55.566 	 -77.2537
| 39> H 	 -61.7593 	 -61.6358 	 -79.265
| 40> H 	 -60.4613 	 -55.1748 	 -83.834
| 41> *
| 42>
| 43>                          ****END OF INPUT****

CARTESIAN COORDINATES (ANGSTROEM)
---------------------------------
  S    -61.023900  -59.575200  -80.662700
  C    -62.078900  -60.794800  -79.870200
  C    -63.361800  -60.719300  -80.405800
  C    -63.581800  -59.626700  -81.291200
  C    -62.464200  -58.830000  -81.419100
  H    -64.513500  -59.350400  -81.801700
  C    -64.476900  -61.641300  -79.982200
  H    -63.954600  -62.507300  -79.582500
  H    -65.054400  -61.982200  -80.823200
  C    -65.497600  -60.871900  -79.030100
  H    -65.489300  -59.699200  -79.179100
  H    -66.580400  -61.132600  -79.206000
  C    -65.235100  -61.188200  -77.601000
  H    -64.262500  -60.722400  -77.355600
  H    -65.953300  -60.755800  -76.882000
  H    -65.074400  -62.273200  -77.445100
  S    -61.194400  -57.509200  -83.459700
  C    -61.192400  -55.779800  -83.298000
  C    -62.244800  -55.314600  -82.537900
  C    -62.903100  -56.387000  -81.849100
  C    -62.370100  -57.619400  -82.183100
  H    -62.350300  -54.302700  -82.394100
  C    -63.757400  -56.088800  -80.682400
  H    -64.538800  -56.871800  -80.523800
  H    -64.346000  -55.186700  -80.915300
  C    -62.900100  -56.182800  -79.362000
  H    -61.981300  -55.542600  -79.360000
  H    -62.618700  -57.258100  -79.095400
  C    -63.787900  -55.726600  -78.157800
  H    -64.448100  -56.608900  -77.881800
  H    -64.470300  -54.884600  -78.350600
  H    -63.210800  -55.566000  -77.253700
  H    -61.759300  -61.635800  -79.265000
  H    -60.461300  -55.174800  -83.834000

 Total Charge           Charge          ....    0
 Multiplicity           Mult            ....    1
 Number of Electrons    NEL             ....  134
 Basis Dimension        Dim             ....  322

ORBITAL ENERGIES
----------------

  NO   OCC          E(Eh)            E(eV)
   0   2.0000     -88.966292     -2420.8959
   1   2.0000     -88.963244     -2420.8129
   2   2.0000     -10.329247      -281.0731
   3   2.0000     -10.317763      -280.7606
   4   2.0000     -10.317423      -280.7514
   5   2.0000     -10.316362      -280.7225
   6   2.0000     -10.301869      -280.3281
   7   2.0000     -10.300611      -280.2939
   8   2.0000     -10.300342      -280.2866
   9   2.0000     -10.297211      -280.2014
  10   2.0000     -10.295718      -280.1607
  11   2.0000     -10.294794      -280.1356
  12   2.0000     -10.294353      -280.1236
  13   2.0000     -10.288927      -279.9759
  14   2.0000     -10.279495      -279.7193
  15   2.0000     -10.277670      -279.6696
  16   2.0000      -8.079433      -219.8526
  17   2.0000      -8.078794      -219.8351
  18   2.0000      -6.038095      -164.3049
  19   2.0000      -6.037149      -164.2792
  20   2.0000      -6.034297      -164.2016
  21   2.0000      -6.033281      -164.1739
  22   2.0000      -6.029962      -164.0836
  23   2.0000      -6.029591      -164.0735
  24   2.0000      -1.007547       -27.4167
  25   2.0000      -0.980376       -26.6774
  26   2.0000      -0.909001       -24.7352
  27   2.0000      -0.904884       -24.6231
  28   2.0000      -0.869168       -23.6513
  29   2.0000      -0.848443       -23.0873
  30   2.0000      -0.844834       -22.9891
  31   2.0000      -0.815321       -22.1860
  32   2.0000      -0.778472       -21.1833
  33   2.0000      -0.764391       -20.8001
  34   2.0000      -0.706945       -19.2369
  35   2.0000      -0.690332       -18.7849
  36   2.0000      -0.686762       -18.6878
  37   2.0000      -0.666210       -18.1285
  38   2.0000      -0.638821       -17.3832
  39   2.0000      -0.617377       -16.7997
  40   2.0000      -0.597464       -16.2578
  41   2.0000      -0.568938       -15.4816
  42   2.0000      -0.558628       -15.2010
  43   2.0000      -0.546758       -14.8780
  44   2.0000      -0.529954       -14.4208
  45   2.0000      -0.527697       -14.3594
  46   2.0000      -0.523595       -14.2478
  47   2.0000      -0.510858       -13.9012
  48   2.0000      -0.503347       -13.6968
  49   2.0000      -0.498880       -13.5752
  50   2.0000      -0.485707       -13.2168
  51   2.0000      -0.476221       -12.9586
  52   2.0000      -0.472863       -12.8673
  53   2.0000      -0.460241       -12.5238
  54   2.0000      -0.450823       -12.2675
  55   2.0000      -0.443634       -12.0719
  56   2.0000      -0.441535       -12.0148
  57   2.0000      -0.438566       -11.9340
  58   2.0000      -0.432826       -11.7778
  59   2.0000      -0.428948       -11.6723
  60   2.0000      -0.420139       -11.4326
  61   2.0000      -0.412156       -11.2153
  62   2.0000      -0.404797       -11.0151
  63   2.0000      -0.337733        -9.1902
  64   2.0000      -0.331256        -9.0139
  65   2.0000      -0.325751        -8.8641
  66   2.0000      -0.293721        -7.9926
  67   0.0000       0.027195         0.7400
  68   0.0000       0.062497         1.7006
  69   0.0000       0.108886         2.9629
  70   0.0000       0.112751         3.0681
  71   0.0000       0.118380         3.2213

MULLIKEN ATOMIC CHARGES
-----------------------
   0 S :    0.105121
   1 C :   -0.121628
   2 C :   -0.108139
   3 C :    0.044925
   4 C :   -0.160025
   5 H :    0.026266
   6 C :    0.095899
   7 H :    0.020281
   8 H :    0.027497
   9 C :   -0.122257
  10 H :    0.053586
  11 H :    0.034313
  12 C :   -0.053184
  13 H :    0.022257
  14 H :    0.041884
  15 H :    0.032878
  16 S :    0.112053
  17 C :   -0.113304
  18 C :    0.009714
  19 C :   -0.015388
  20 C :   -0.183328
  21 H :   -0.009410
  22 C :    0.061174
  23 H :    0.018707
  24 H :    0.034424
  25 C :   -0.112582
  26 H :    0.045409
  27 H :    0.067901
  28 C :   -0.063595
  29 H :    0.028164
  30 H :    0.035335
  31 H :    0.034353
  32 H :    0.049229
  33 H :    0.061471
Sum of atomic charges:   -0.0000000

LOEWDIN ATOMIC CHARGES
----------------------
   0 S :    0.369416
   1 C :   -0.195096
   2 C :   -0.060580
   3 C :   -0.061330
   4 C :   -0.173163
   5 H :    0.038494
   6 C :   -0.025767
   7 H :    0.029485
   8 H :    0.031391
   9 C :   -0.050849
  10 H :    0.035915
  11 H :    0.023384
  12 C :   -0.075914
  13 H :    0.025081
  14 H :    0.027489
  15 H :    0.025645
  16 S :    0.407864
  17 C :   -0.174928
  18 C :   -0.061304
  19 C :   -0.047689
  20 C :   -0.215992
  21 H :    0.018824
  22 C :   -0.039434
  23 H :    0.033211
  24 H :    0.034072
  25 C :   -0.037414
  26 H :    0.025660
  27 H :    0.040149
  28 C :   -0.077036
  29 H :    0.028164
  30 H :    0.022378
  31 H :    0.023118
  32 H :    0.029128
  33 H :    0.027628

  Mayer bond orders larger than 0.100000
B(  0-S ,  1-C ) :   1.1082 B(  0-S ,  4-C ) :   1.1223 B(  1-C ,  2-C ) :   1.6326
B(  1-C , 32-H ) :   0.9641 B(  2-C ,  3-C ) :   1.2073 B(  2-C ,  6-C ) :   1.0431
B(  3-C ,  4-C ) :   1.6005 B(  3-C ,  5-H ) :   0.9906 B(  4-C , 20-C ) :   1.0556
B(  6-C ,  7-H ) :   0.9466 B(  6-C ,  8-H ) :   0.9384 B(  6-C ,  9-C ) :   1.0183
B(  9-C , 10-H ) :   0.9585 B(  9-C , 11-H ) :   0.9586 B(  9-C , 12-C ) :   1.0826
B( 12-C , 13-H ) :   0.9706 B( 12-C , 14-H ) :   0.9720 B( 12-C , 15-H ) :   0.9754
B( 16-S , 17-C ) :   1.1629 B( 16-S , 20-C ) :   1.1365 B( 17-C , 18-C ) :   1.6094
B( 17-C , 33-H ) :   0.9669 B( 18-C , 19-C ) :   1.2252 B( 18-C , 21-H ) :   1.0074
B( 19-C , 20-C ) :   1.5861 B( 19-C , 22-C ) :   1.0772 B( 22-C , 23-H ) :   0.9233
B( 22-C , 24-H ) :   0.9368 B( 22-C , 25-C ) :   1.0364 B( 25-C , 26-H ) :   0.9650
B( 25-C , 27-H ) :   0.9526 B( 25-C , 28-C ) :   1.0702 B( 28-C , 29-H ) :   0.9765
B( 28-C , 30-H ) :   0.9767 B( 28-C , 31-H ) :   0.9752

Dispersion correction           -0.015715794
FINAL SINGLE POINT ENERGY     -1339.866284069558

DIPOLE MOMENT
-------------
                                X             Y             Z
Electronic contribution:     19.58013       0.39545     -22.60582
Nuclear contribution   :    -20.00403      -0.27006      22.89681
                        -----------------------------------------
Total Dipole Moment    :     -0.42389       0.12540       0.29099
                        -----------------------------------------
Magnitude (a.u.)       :      0.52923
Magnitude (Debye)      :      1.34520

Rotational constants in cm-1:     0.020211     0.009542     0.007565
Rotational constants in MHz :   605.902834   286.052986   226.785252

                             ****ORCA TERMINATED NORMALLY****
TOTAL RUN TIME: 0 days 0 hours 0 minutes 22 seconds 814 msec
