                         Program Version 4.2.1 -  RELEASE  -
|  1> ! wB97X-D3 SP def2-SVP
|  2> %pal
|  3> nprocs 24
|  4> end
|  5>
|  6> * xyz 0 1
|  7> S 	 -69.8479 	 11.3904 	 -72.8549
|  8> C 	 -70.0329 	 11.2454 	 -74.589
|  9> C 	 -68.8934 	 10.7748 	 -75.2381
| 10> C 	 -67.8383 	 10.5001 	 -74.3209
| 11> C 	 -68.1834 	 10.8256 	 -73.0118
| 12> H 	 -66.7977 	 10.2306 	 -74.5543
| 13> C 	 -68.6477 	 10.793 	 -76.7631
| 14> H 	 -69.6195 	 10.9752 	 -77.1428
| 15> H 	 -68.4622 	 9.70254 	 -77.0314
| 16> C 	 -67.5544 	 11.7038 	 -77.3853
| 17> H 	 -66.6616 	 11.3551 	 -76.8695
| 18> H 	 -67.4287 	 11.4623 	 -78.4115
| 19> C 	 -67.8774 	 13.2005 	 -77.1398
| 20> H 	 -68.7752 	 13.5496 	 -77.7163
| 21> H 	 -68.0347 	 13.4978 	 -76.1113
| 22> H 	 -67.0255 	 13.8107 	 -77.3145
| 23> S 	 -66.8266 	 12.1284 	 -71.0257
| 24> C 	 -65.5053 	 11.32 	 -70.1192
| 25> C 	 -65.3333 	 10.0579 	 -70.5934
| 26> C 	 -66.4454 	 9.63115 	 -71.4809
| 27> C 	 -67.2848 	 10.6778 	 -71.8422
| 28> H 	 -64.5502 	 9.43291 	 -70.1403
| 29> C 	 -66.5975 	 8.21515 	 -72.0103
| 30> H 	 -65.8283 	 7.75164 	 -71.4102
| 31> H 	 -66.2686 	 8.14399 	 -73.0116
| 32> C 	 -67.9995 	 7.70094 	 -71.8789
| 33> H 	 -68.1215 	 6.75745 	 -72.5313
| 34> H 	 -68.6885 	 8.47045 	 -72.2688
| 35> C 	 -68.3847 	 7.2426 	 -70.4221
| 36> H 	 -67.6644 	 6.6541 	 -70.0313
| 37> H 	 -69.3149 	 6.75201 	 -70.4209
| 38> H 	 -68.4856 	 8.17764 	 -69.8153
| 39> H 	 -70.7808 	 11.6872 	 -75.2127
| 40> H 	 -64.8314 	 11.7452 	 -69.3666
| 41> *
| 42>
| 43>                          ****END OF INPUT****

CARTESIAN COORDINATES (ANGSTROEM)
---------------------------------
  S    -69.847900   11.390400  -72.854900
  C    -70.032900   11.245400  -74.589000
  C    -68.893400   10.774800  -75.238100
  C    -67.838300   10.500100  -74.320900
  C    -68.183400   10.825600  -73.011800
  H    -66.797700   10.230600  -74.554300
  C    -68.647700   10.793000  -76.763100
  H    -69.619500   10.975200  -77.142800
  H    -68.462200    9.702540  -77.031400
  C    -67.554400   11.703800  -77.385300
  H    -66.661600   11.355100  -76.869500
  H    -67.428700   11.462300  -78.411500
  C    -67.877400   13.200500  -77.139800
  H    -68.775200   13.549600  -77.716300
  H    -68.034700   13.497800  -76.111300
  H    -67.025500   13.810700  -77.314500
  S    -66.826600   12.128400  -71.025700
  C    -65.505300   11.320000  -70.119200
  C    -65.333300   10.057900  -70.593400
  C    -66.445400    9.631150  -71.480900
  C    -67.284800   10.677800  -71.842200
  H    -64.550200    9.432910  -70.140300
  C    -66.597500    8.215150  -72.010300
  H    -65.828300    7.751640  -71.410200
  H    -66.268600    8.143990  -73.011600
  C    -67.999500    7.700940  -71.878900
  H    -68.121500    6.757450  -72.531300
  H    -68.688500    8.470450  -72.268800
  C    -68.384700    7.242600  -70.422100
  H    -67.664400    6.654100  -70.031300
  H    -69.314900    6.752010  -70.420900
  H    -68.485600    8.177640  -69.815300
  H    -70.780800   11.687200  -75.212700
  H    -64.831400   11.745200  -69.366600

 Total Charge           Charge          ....    0
 Multiplicity           Mult            ....    1
 Number of Electrons    NEL             ....  134
 Basis Dimension        Dim             ....  322

ORBITAL ENERGIES
----------------

  NO   OCC          E(Eh)            E(eV)
   0   2.0000     -88.973988     -2421.1053
   1   2.0000     -88.961856     -2420.7752
   2   2.0000     -10.334975      -281.2290
   3   2.0000     -10.324028      -280.9311
   4   2.0000     -10.321477      -280.8617
   5   2.0000     -10.314123      -280.6616
   6   2.0000     -10.305846      -280.4363
   7   2.0000     -10.303735      -280.3789
   8   2.0000     -10.299956      -280.2761
   9   2.0000     -10.298076      -280.2249
  10   2.0000     -10.295758      -280.1618
  11   2.0000     -10.292811      -280.0816
  12   2.0000     -10.285236      -279.8755
  13   2.0000     -10.281504      -279.7739
  14   2.0000     -10.278274      -279.6861
  15   2.0000     -10.262793      -279.2648
  16   2.0000      -8.087850      -220.0816
  17   2.0000      -8.076506      -219.7729
  18   2.0000      -6.046363      -164.5299
  19   2.0000      -6.042528      -164.4255
  20   2.0000      -6.038610      -164.3189
  21   2.0000      -6.035206      -164.2263
  22   2.0000      -6.030926      -164.1098
  23   2.0000      -6.027151      -164.0071
  24   2.0000      -1.003929       -27.3183
  25   2.0000      -0.980851       -26.6903
  26   2.0000      -0.907351       -24.6903
  27   2.0000      -0.906523       -24.6677
  28   2.0000      -0.868416       -23.6308
  29   2.0000      -0.849177       -23.1073
  30   2.0000      -0.836733       -22.7687
  31   2.0000      -0.816565       -22.2199
  32   2.0000      -0.782953       -21.3052
  33   2.0000      -0.772374       -21.0174
  34   2.0000      -0.715140       -19.4600
  35   2.0000      -0.703103       -19.1324
  36   2.0000      -0.684230       -18.6188
  37   2.0000      -0.658041       -17.9062
  38   2.0000      -0.636622       -17.3234
  39   2.0000      -0.618758       -16.8372
  40   2.0000      -0.586113       -15.9489
  41   2.0000      -0.565401       -15.3853
  42   2.0000      -0.550858       -14.9896
  43   2.0000      -0.547466       -14.8973
  44   2.0000      -0.544453       -14.8153
  45   2.0000      -0.537981       -14.6392
  46   2.0000      -0.519476       -14.1357
  47   2.0000      -0.508134       -13.8270
  48   2.0000      -0.502499       -13.6737
  49   2.0000      -0.490602       -13.3500
  50   2.0000      -0.486765       -13.2456
  51   2.0000      -0.477458       -12.9923
  52   2.0000      -0.472690       -12.8625
  53   2.0000      -0.461988       -12.5713
  54   2.0000      -0.460418       -12.5286
  55   2.0000      -0.452477       -12.3125
  56   2.0000      -0.441090       -12.0027
  57   2.0000      -0.436011       -11.8645
  58   2.0000      -0.430370       -11.7110
  59   2.0000      -0.427897       -11.6437
  60   2.0000      -0.422534       -11.4977
  61   2.0000      -0.414939       -11.2911
  62   2.0000      -0.401401       -10.9227
  63   2.0000      -0.345807        -9.4099
  64   2.0000      -0.335586        -9.1318
  65   2.0000      -0.320431        -8.7194
  66   2.0000      -0.299835        -8.1589
  67   0.0000       0.029040         0.7902
  68   0.0000       0.068244         1.8570
  69   0.0000       0.108850         2.9620
  70   0.0000       0.117530         3.1982
  71   0.0000       0.129800         3.5320

MULLIKEN ATOMIC CHARGES
-----------------------
   0 S :    0.129003
   1 C :   -0.091904
   2 C :   -0.121657
   3 C :    0.031977
   4 C :   -0.200741
   5 H :    0.031744
   6 C :    0.044558
   7 H :   -0.003819
   8 H :    0.040498
   9 C :   -0.009866
  10 H :    0.022357
  11 H :    0.032014
  12 C :   -0.055509
  13 H :    0.042126
  14 H :    0.033920
  15 H :    0.024060
  16 S :    0.091069
  17 C :   -0.097887
  18 C :   -0.034204
  19 C :   -0.116728
  20 C :   -0.123783
  21 H :    0.035715
  22 C :    0.136174
  23 H :    0.001647
  24 H :    0.022015
  25 C :   -0.122016
  26 H :    0.031122
  27 H :    0.055952
  28 C :   -0.002034
  29 H :    0.006188
  30 H :    0.026839
  31 H :    0.038879
  32 H :    0.037717
  33 H :    0.064577
Sum of atomic charges:   -0.0000000

LOEWDIN ATOMIC CHARGES
----------------------
   0 S :    0.407166
   1 C :   -0.201400
   2 C :   -0.061021
   3 C :   -0.059347
   4 C :   -0.192139
   5 H :    0.037326
   6 C :   -0.033378
   7 H :    0.016260
   8 H :    0.038667
   9 C :   -0.029840
  10 H :    0.024621
  11 H :    0.024801
  12 C :   -0.070382
  13 H :    0.032545
  14 H :    0.029453
  15 H :    0.023341
  16 S :    0.392170
  17 C :   -0.173695
  18 C :   -0.077675
  19 C :   -0.053551
  20 C :   -0.216645
  21 H :    0.036741
  22 C :   -0.033613
  23 H :    0.026697
  24 H :    0.026332
  25 C :   -0.040208
  26 H :    0.027851
  27 H :    0.027972
  28 C :   -0.050916
  29 H :    0.006318
  30 H :    0.020678
  31 H :    0.032912
  32 H :    0.024383
  33 H :    0.037576

  Mayer bond orders larger than 0.100000
B(  0-S ,  1-C ) :   1.1319 B(  0-S ,  4-C ) :   1.1478 B(  1-C ,  2-C ) :   1.6334
B(  1-C , 32-H ) :   0.9574 B(  2-C ,  3-C ) :   1.2285 B(  2-C ,  6-C ) :   1.0199
B(  3-C ,  4-C ) :   1.5913 B(  3-C ,  5-H ) :   0.9876 B(  4-C , 20-C ) :   1.0018
B(  6-C ,  7-H ) :   0.9388 B(  6-C ,  8-H ) :   0.9373 B(  6-C ,  9-C ) :   1.0602
B(  9-C , 10-H ) :   0.9534 B(  9-C , 11-H ) :   0.9545 B(  9-C , 12-C ) :   1.0689
B( 12-C , 13-H ) :   0.9766 B( 12-C , 14-H ) :   0.9744 B( 12-C , 15-H ) :   0.9727
B( 16-S , 17-C ) :   1.1358 B( 16-S , 20-C ) :   1.1338 B( 17-C , 18-C ) :   1.6582
B( 17-C , 33-H ) :   0.9631 B( 18-C , 19-C ) :   1.2171 B( 18-C , 21-H ) :   0.9778
B( 19-C , 20-C ) :   1.6100 B( 19-C , 22-C ) :   1.0249 B( 22-C , 23-H ) :   0.9325
B( 22-C , 24-H ) :   0.9261 B( 22-C , 25-C ) :   1.0694 B( 25-C , 26-H ) :   0.9552
B( 25-C , 27-H ) :   0.9548 B( 25-C , 28-C ) :   1.0714 B( 28-C , 29-H ) :   0.9765
B( 28-C , 30-H ) :   0.9759 B( 28-C , 31-H ) :   0.9763

Dispersion correction           -0.015525390
FINAL SINGLE POINT ENERGY     -1339.864494289381

DIPOLE MOMENT
-------------
                                X             Y             Z
Electronic contribution:     -2.44532      10.47602      13.69758
Nuclear contribution   :      2.89388     -10.68623     -14.12766
                        -----------------------------------------
Total Dipole Moment    :      0.44855      -0.21021      -0.43008
                        -----------------------------------------
Magnitude (a.u.)       :      0.65602
Magnitude (Debye)      :      1.66746

Rotational constants in cm-1:     0.019979     0.008730     0.007873
Rotational constants in MHz :   598.966778   261.722618   236.030204

                             ****ORCA TERMINATED NORMALLY****
TOTAL RUN TIME: 0 days 0 hours 0 minutes 22 seconds 298 msec
