                         Program Version 4.2.1 -  RELEASE  -
|  1> ! wB97X-D3 SP def2-SVP
|  2> %pal
|  3> nprocs 24
|  4> end
|  5>
|  6> * xyz 0 1
|  7> S 	 -74.0582 	 2.38238 	 -61.1744
|  8> C 	 -75.0222 	 3.75623 	 -61.7989
|  9> C 	 -76.3385 	 3.48488 	 -61.9976
| 10> C 	 -76.6312 	 2.09424 	 -61.6048
| 11> C 	 -75.5486 	 1.4136 	 -60.9639
| 12> H 	 -77.6522 	 1.72367 	 -61.7046
| 13> C 	 -77.3224 	 4.33104 	 -62.8073
| 14> H 	 -77.962 	 3.59633 	 -63.2587
| 15> H 	 -76.7585 	 4.72544 	 -63.6078
| 16> C 	 -78.1778 	 5.3495 	 -62.088
| 17> H 	 -78.4141 	 4.95705 	 -61.0698
| 18> H 	 -77.6443 	 6.31024 	 -61.8822
| 19> C 	 -79.5242 	 5.73638 	 -62.7253
| 20> H 	 -80.2517 	 4.97541 	 -62.6957
| 21> H 	 -79.9814 	 6.63482 	 -62.186
| 22> H 	 -79.3301 	 5.94588 	 -63.7955
| 23> S 	 -74.1413 	 -0.99114 	 -60.6769
| 24> C 	 -74.806 	 -2.136 	 -59.5233
| 25> C 	 -76.1055 	 -1.83422 	 -59.2086
| 26> C 	 -76.5759 	 -0.592759 	 -59.7192
| 27> C 	 -75.5439 	 0.0981009 	 -60.3174
| 28> H 	 -76.6026 	 -2.48641 	 -58.6036
| 29> C 	 -77.9783 	 -0.15977 	 -59.3741
| 30> H 	 -78.1772 	 0.867459 	 -59.8645
| 31> H 	 -77.928 	 0.140862 	 -58.3174
| 32> C 	 -79.1549 	 -1.0479 	 -59.7664
| 33> H 	 -79.2416 	 -2.02482 	 -59.2206
| 34> H 	 -79.0611 	 -1.31675 	 -60.7874
| 35> C 	 -80.4834 	 -0.255666 	 -59.5772
| 36> H 	 -80.5564 	 0.591157 	 -60.2268
| 37> H 	 -80.63 	 -0.0271531 	 -58.5086
| 38> H 	 -81.4314 	 -0.817397 	 -59.7874
| 39> H 	 -74.6594 	 4.7808 	 -62.0686
| 40> H 	 -74.3338 	 -3.06225 	 -59.1208
| 41> *
| 42>
| 43>                          ****END OF INPUT****

CARTESIAN COORDINATES (ANGSTROEM)
---------------------------------
  S    -74.058200    2.382380  -61.174400
  C    -75.022200    3.756230  -61.798900
  C    -76.338500    3.484880  -61.997600
  C    -76.631200    2.094240  -61.604800
  C    -75.548600    1.413600  -60.963900
  H    -77.652200    1.723670  -61.704600
  C    -77.322400    4.331040  -62.807300
  H    -77.962000    3.596330  -63.258700
  H    -76.758500    4.725440  -63.607800
  C    -78.177800    5.349500  -62.088000
  H    -78.414100    4.957050  -61.069800
  H    -77.644300    6.310240  -61.882200
  C    -79.524200    5.736380  -62.725300
  H    -80.251700    4.975410  -62.695700
  H    -79.981400    6.634820  -62.186000
  H    -79.330100    5.945880  -63.795500
  S    -74.141300   -0.991140  -60.676900
  C    -74.806000   -2.136000  -59.523300
  C    -76.105500   -1.834220  -59.208600
  C    -76.575900   -0.592759  -59.719200
  C    -75.543900    0.098101  -60.317400
  H    -76.602600   -2.486410  -58.603600
  C    -77.978300   -0.159770  -59.374100
  H    -78.177200    0.867459  -59.864500
  H    -77.928000    0.140862  -58.317400
  C    -79.154900   -1.047900  -59.766400
  H    -79.241600   -2.024820  -59.220600
  H    -79.061100   -1.316750  -60.787400
  C    -80.483400   -0.255666  -59.577200
  H    -80.556400    0.591157  -60.226800
  H    -80.630000   -0.027153  -58.508600
  H    -81.431400   -0.817397  -59.787400
  H    -74.659400    4.780800  -62.068600
  H    -74.333800   -3.062250  -59.120800

 Total Charge           Charge          ....    0
 Multiplicity           Mult            ....    1
 Number of Electrons    NEL             ....  134
 Basis Dimension        Dim             ....  322

ORBITAL ENERGIES
----------------

  NO   OCC          E(Eh)            E(eV)
   0   2.0000     -88.968653     -2420.9601
   1   2.0000     -88.965862     -2420.8842
   2   2.0000     -10.339390      -281.3491
   3   2.0000     -10.332080      -281.1502
   4   2.0000     -10.318781      -280.7883
   5   2.0000     -10.317123      -280.7432
   6   2.0000     -10.305007      -280.4135
   7   2.0000     -10.303215      -280.3647
   8   2.0000     -10.301829      -280.3270
   9   2.0000     -10.299865      -280.2736
  10   2.0000     -10.295040      -280.1423
  11   2.0000     -10.292109      -280.0625
  12   2.0000     -10.291332      -280.0414
  13   2.0000     -10.285332      -279.8781
  14   2.0000     -10.284485      -279.8551
  15   2.0000     -10.284096      -279.8445
  16   2.0000      -8.081871      -219.9189
  17   2.0000      -8.079727      -219.8606
  18   2.0000      -6.040676      -164.3751
  19   2.0000      -6.038404      -164.3133
  20   2.0000      -6.036734      -164.2679
  21   2.0000      -6.034709      -164.2128
  22   2.0000      -6.032258      -164.1461
  23   2.0000      -6.030016      -164.0851
  24   2.0000      -0.998926       -27.1821
  25   2.0000      -0.975513       -26.5451
  26   2.0000      -0.912253       -24.8237
  27   2.0000      -0.909513       -24.7491
  28   2.0000      -0.867621       -23.6092
  29   2.0000      -0.853297       -23.2194
  30   2.0000      -0.841473       -22.8976
  31   2.0000      -0.808425       -21.9984
  32   2.0000      -0.784780       -21.3549
  33   2.0000      -0.773980       -21.0611
  34   2.0000      -0.711282       -19.3550
  35   2.0000      -0.700593       -19.0641
  36   2.0000      -0.697552       -18.9813
  37   2.0000      -0.661406       -17.9978
  38   2.0000      -0.627369       -17.0716
  39   2.0000      -0.619195       -16.8492
  40   2.0000      -0.594943       -16.1892
  41   2.0000      -0.569458       -15.4957
  42   2.0000      -0.566139       -15.4054
  43   2.0000      -0.561417       -15.2769
  44   2.0000      -0.530250       -14.4288
  45   2.0000      -0.523129       -14.2351
  46   2.0000      -0.519768       -14.1436
  47   2.0000      -0.510850       -13.9009
  48   2.0000      -0.501472       -13.6458
  49   2.0000      -0.493433       -13.4270
  50   2.0000      -0.491734       -13.3808
  51   2.0000      -0.480610       -13.0781
  52   2.0000      -0.467666       -12.7258
  53   2.0000      -0.461623       -12.5614
  54   2.0000      -0.456123       -12.4117
  55   2.0000      -0.451105       -12.2752
  56   2.0000      -0.446003       -12.1364
  57   2.0000      -0.437474       -11.9043
  58   2.0000      -0.433924       -11.8077
  59   2.0000      -0.427742       -11.6394
  60   2.0000      -0.420183       -11.4338
  61   2.0000      -0.418513       -11.3883
  62   2.0000      -0.413765       -11.2591
  63   2.0000      -0.351785        -9.5726
  64   2.0000      -0.331226        -9.0131
  65   2.0000      -0.329107        -8.9554
  66   2.0000      -0.284469        -7.7408
  67   0.0000       0.016667         0.4535
  68   0.0000       0.072932         1.9846
  69   0.0000       0.094669         2.5761
  70   0.0000       0.117371         3.1938
  71   0.0000       0.126069         3.4305

MULLIKEN ATOMIC CHARGES
-----------------------
   0 S :    0.103549
   1 C :   -0.121304
   2 C :   -0.120965
   3 C :    0.018501
   4 C :   -0.153010
   5 H :    0.018817
   6 C :    0.103686
   7 H :    0.009632
   8 H :    0.022057
   9 C :   -0.085607
  10 H :    0.031225
  11 H :    0.035346
  12 C :   -0.061321
  13 H :    0.023076
  14 H :    0.048825
  15 H :    0.033926
  16 S :    0.089454
  17 C :   -0.088064
  18 C :   -0.004150
  19 C :   -0.013784
  20 C :   -0.119965
  21 H :   -0.023305
  22 C :    0.018949
  23 H :    0.015799
  24 H :    0.046268
  25 C :   -0.047257
  26 H :    0.040860
  27 H :    0.026901
  28 C :   -0.074071
  29 H :    0.032488
  30 H :    0.037107
  31 H :    0.033244
  32 H :    0.056048
  33 H :    0.067044
Sum of atomic charges:    0.0000000

LOEWDIN ATOMIC CHARGES
----------------------
   0 S :    0.373065
   1 C :   -0.189912
   2 C :   -0.065179
   3 C :   -0.062687
   4 C :   -0.180034
   5 H :    0.025369
   6 C :   -0.027978
   7 H :    0.031231
   8 H :    0.028080
   9 C :   -0.050215
  10 H :    0.027691
  11 H :    0.028039
  12 C :   -0.067041
  13 H :    0.013696
  14 H :    0.038486
  15 H :    0.026513
  16 S :    0.367988
  17 C :   -0.180011
  18 C :   -0.060085
  19 C :   -0.051393
  20 C :   -0.176139
  21 H :    0.014400
  22 C :   -0.041185
  23 H :    0.037199
  24 H :    0.038881
  25 C :   -0.037988
  26 H :    0.029286
  27 H :    0.022234
  28 C :   -0.069344
  29 H :    0.019680
  30 H :    0.028742
  31 H :    0.030741
  32 H :    0.038041
  33 H :    0.039829

  Mayer bond orders larger than 0.100000
B(  0-S ,  1-C ) :   1.1134 B(  0-S ,  4-C ) :   1.1304 B(  1-C ,  2-C ) :   1.6734
B(  1-C , 32-H ) :   0.9537 B(  2-C ,  3-C ) :   1.2306 B(  2-C ,  6-C ) :   1.0109
B(  3-C ,  4-C ) :   1.5645 B(  3-C ,  5-H ) :   0.9744 B(  4-C , 20-C ) :   1.0792
B(  6-C ,  7-H ) :   0.9425 B(  6-C ,  8-H ) :   0.9380 B(  6-C ,  9-C ) :   1.0517
B(  9-C , 10-H ) :   0.9586 B(  9-C , 11-H ) :   0.9555 B(  9-C , 12-C ) :   1.0814
B( 12-C , 13-H ) :   0.9764 B( 12-C , 14-H ) :   0.9745 B( 12-C , 15-H ) :   0.9753
B( 16-S , 17-C ) :   1.1248 B( 16-S , 20-C ) :   1.1142 B( 17-C , 18-C ) :   1.6518
B( 17-C , 33-H ) :   0.9606 B( 18-C , 19-C ) :   1.1949 B( 18-C , 21-H ) :   1.0067
B( 19-C , 20-C ) :   1.6174 B( 19-C , 22-C ) :   1.0427 B( 22-C , 23-H ) :   0.9350
B( 22-C , 24-H ) :   0.9311 B( 22-C , 25-C ) :   1.0485 B( 25-C , 26-H ) :   0.9516
B( 25-C , 27-H ) :   0.9556 B( 25-C , 28-C ) :   1.0861 B( 28-C , 29-H ) :   0.9757
B( 28-C , 30-H ) :   0.9754 B( 28-C , 31-H ) :   0.9742

Dispersion correction           -0.013391651
FINAL SINGLE POINT ENERGY     -1339.859604205582

DIPOLE MOMENT
-------------
                                X             Y             Z
Electronic contribution:     32.24527     -11.50538       1.25228
Nuclear contribution   :    -33.11305      11.53931      -1.23894
                        -----------------------------------------
Total Dipole Moment    :     -0.86778       0.03393       0.01334
                        -----------------------------------------
Magnitude (a.u.)       :      0.86854
Magnitude (Debye)      :      2.20766

Rotational constants in cm-1:     0.016518     0.008815     0.005930
Rotational constants in MHz :   495.188905   264.260499   177.785178

                             ****ORCA TERMINATED NORMALLY****
TOTAL RUN TIME: 0 days 0 hours 0 minutes 21 seconds 36 msec
