                         Program Version 4.2.1 -  RELEASE  -
|  1> ! wB97X-D3 SP def2-SVP
|  2> %pal
|  3> nprocs 24
|  4> end
|  5>
|  6> * xyz 0 1
|  7> S 	 -70.2977 	 6.6741 	 -113.264
|  8> C 	 -71.3091 	 6.64046 	 -111.865
|  9> C 	 -70.8665 	 7.62799 	 -110.957
| 10> C 	 -69.7474 	 8.34294 	 -111.421
| 11> C 	 -69.2379 	 7.92262 	 -112.625
| 12> H 	 -69.2103 	 9.17862 	 -110.916
| 13> C 	 -71.4577 	 7.89976 	 -109.58
| 14> H 	 -71.4605 	 6.93652 	 -109.09
| 15> H 	 -72.498 	 8.10897 	 -109.745
| 16> C 	 -70.8771 	 8.99019 	 -108.575
| 17> H 	 -69.9216 	 8.73416 	 -108.202
| 18> H 	 -70.8405 	 9.97059 	 -109.058
| 19> C 	 -71.8223 	 9.29959 	 -107.386
| 20> H 	 -71.2332 	 9.61005 	 -106.527
| 21> H 	 -72.6824 	 9.91392 	 -107.56
| 22> H 	 -72.3508 	 8.39644 	 -107.103
| 23> S 	 -68.5818 	 8.98299 	 -115.144
| 24> C 	 -67.007 	 9.70785 	 -115.39
| 25> C 	 -66.2315 	 9.51751 	 -114.251
| 26> C 	 -66.8754 	 8.88913 	 -113.109
| 27> C 	 -68.1832 	 8.55291 	 -113.443
| 28> H 	 -65.1877 	 9.8577 	 -114.209
| 29> C 	 -66.2269 	 8.68161 	 -111.758
| 30> H 	 -66.3031 	 7.55357 	 -111.738
| 31> H 	 -66.8661 	 8.94575 	 -110.941
| 32> C 	 -64.8471 	 9.26933 	 -111.45
| 33> H 	 -64.1892 	 9.09235 	 -112.361
| 34> H 	 -64.3275 	 8.72488 	 -110.611
| 35> C 	 -64.6914 	 10.7275 	 -111.383
| 36> H 	 -64.7484 	 11.2513 	 -112.337
| 37> H 	 -63.7104 	 10.95 	 -110.984
| 38> H 	 -65.2991 	 11.3123 	 -110.702
| 39> H 	 -72.2566 	 6.10222 	 -111.708
| 40> H 	 -66.749 	 10.4407 	 -116.099
| 41> *
| 42>
| 43>                          ****END OF INPUT****

CARTESIAN COORDINATES (ANGSTROEM)
---------------------------------
  S    -70.297700    6.674100  -113.264000
  C    -71.309100    6.640460  -111.865000
  C    -70.866500    7.627990  -110.957000
  C    -69.747400    8.342940  -111.421000
  C    -69.237900    7.922620  -112.625000
  H    -69.210300    9.178620  -110.916000
  C    -71.457700    7.899760  -109.580000
  H    -71.460500    6.936520  -109.090000
  H    -72.498000    8.108970  -109.745000
  C    -70.877100    8.990190  -108.575000
  H    -69.921600    8.734160  -108.202000
  H    -70.840500    9.970590  -109.058000
  C    -71.822300    9.299590  -107.386000
  H    -71.233200    9.610050  -106.527000
  H    -72.682400    9.913920  -107.560000
  H    -72.350800    8.396440  -107.103000
  S    -68.581800    8.982990  -115.144000
  C    -67.007000    9.707850  -115.390000
  C    -66.231500    9.517510  -114.251000
  C    -66.875400    8.889130  -113.109000
  C    -68.183200    8.552910  -113.443000
  H    -65.187700    9.857700  -114.209000
  C    -66.226900    8.681610  -111.758000
  H    -66.303100    7.553570  -111.738000
  H    -66.866100    8.945750  -110.941000
  C    -64.847100    9.269330  -111.450000
  H    -64.189200    9.092350  -112.361000
  H    -64.327500    8.724880  -110.611000
  C    -64.691400   10.727500  -111.383000
  H    -64.748400   11.251300  -112.337000
  H    -63.710400   10.950000  -110.984000
  H    -65.299100   11.312300  -110.702000
  H    -72.256600    6.102220  -111.708000
  H    -66.749000   10.440700  -116.099000

 Total Charge           Charge          ....    0
 Multiplicity           Mult            ....    1
 Number of Electrons    NEL             ....  134
 Basis Dimension        Dim             ....  322

ORBITAL ENERGIES
----------------

  NO   OCC          E(Eh)            E(eV)
   0   2.0000     -88.966905     -2420.9126
   1   2.0000     -88.965891     -2420.8850
   2   2.0000     -10.331510      -281.1347
   3   2.0000     -10.328214      -281.0450
   4   2.0000     -10.315815      -280.7076
   5   2.0000     -10.315705      -280.7046
   6   2.0000     -10.309958      -280.5482
   7   2.0000     -10.302843      -280.3546
   8   2.0000     -10.298655      -280.2406
   9   2.0000     -10.297732      -280.2155
  10   2.0000     -10.297579      -280.2114
  11   2.0000     -10.293099      -280.0895
  12   2.0000     -10.292853      -280.0828
  13   2.0000     -10.291430      -280.0440
  14   2.0000     -10.277389      -279.6620
  15   2.0000     -10.275119      -279.6002
  16   2.0000      -8.081422      -219.9067
  17   2.0000      -8.079645      -219.8583
  18   2.0000      -6.039917      -164.3545
  19   2.0000      -6.038308      -164.3107
  20   2.0000      -6.035760      -164.2414
  21   2.0000      -6.034260      -164.2006
  22   2.0000      -6.032408      -164.1502
  23   2.0000      -6.030312      -164.0931
  24   2.0000      -1.003302       -27.3012
  25   2.0000      -0.980444       -26.6792
  26   2.0000      -0.915465       -24.9111
  27   2.0000      -0.903970       -24.5983
  28   2.0000      -0.869815       -23.6689
  29   2.0000      -0.855473       -23.2786
  30   2.0000      -0.845809       -23.0156
  31   2.0000      -0.815366       -22.1872
  32   2.0000      -0.788810       -21.4646
  33   2.0000      -0.771147       -20.9840
  34   2.0000      -0.714281       -19.4366
  35   2.0000      -0.701059       -19.0768
  36   2.0000      -0.694706       -18.9039
  37   2.0000      -0.652077       -17.7439
  38   2.0000      -0.640267       -17.4226
  39   2.0000      -0.616379       -16.7725
  40   2.0000      -0.602195       -16.3866
  41   2.0000      -0.570152       -15.5146
  42   2.0000      -0.561023       -15.2662
  43   2.0000      -0.556802       -15.1514
  44   2.0000      -0.541242       -14.7279
  45   2.0000      -0.527277       -14.3479
  46   2.0000      -0.520165       -14.1544
  47   2.0000      -0.510086       -13.8802
  48   2.0000      -0.503567       -13.7028
  49   2.0000      -0.498425       -13.5628
  50   2.0000      -0.492558       -13.4032
  51   2.0000      -0.488384       -13.2896
  52   2.0000      -0.475101       -12.9282
  53   2.0000      -0.466546       -12.6954
  54   2.0000      -0.458652       -12.4805
  55   2.0000      -0.448177       -12.1955
  56   2.0000      -0.442427       -12.0391
  57   2.0000      -0.439108       -11.9487
  58   2.0000      -0.436795       -11.8858
  59   2.0000      -0.423495       -11.5239
  60   2.0000      -0.415993       -11.3198
  61   2.0000      -0.413917       -11.2632
  62   2.0000      -0.407349       -11.0845
  63   2.0000      -0.349003        -9.4969
  64   2.0000      -0.328150        -8.9294
  65   2.0000      -0.326526        -8.8852
  66   2.0000      -0.286832        -7.8051
  67   0.0000       0.026979         0.7341
  68   0.0000       0.063059         1.7159
  69   0.0000       0.115484         3.1425
  70   0.0000       0.126790         3.4501
  71   0.0000       0.136494         3.7142

MULLIKEN ATOMIC CHARGES
-----------------------
   0 S :    0.116374
   1 C :   -0.133143
   2 C :   -0.087585
   3 C :   -0.001661
   4 C :   -0.160703
   5 H :    0.030764
   6 C :    0.041249
   7 H :    0.035769
   8 H :    0.025676
   9 C :   -0.056398
  10 H :    0.029734
  11 H :    0.039896
  12 C :   -0.046519
  13 H :    0.038530
  14 H :    0.031867
  15 H :    0.011045
  16 S :    0.105940
  17 C :   -0.068160
  18 C :   -0.069802
  19 C :   -0.036411
  20 C :   -0.166754
  21 H :    0.022442
  22 C :    0.080643
  23 H :    0.054818
  24 H :    0.022410
  25 C :   -0.089791
  26 H :    0.030873
  27 H :    0.047676
  28 C :   -0.030638
  29 H :    0.030683
  30 H :    0.022785
  31 H :    0.015938
  32 H :    0.059189
  33 H :    0.053264
Sum of atomic charges:    0.0000000

LOEWDIN ATOMIC CHARGES
----------------------
   0 S :    0.420601
   1 C :   -0.220671
   2 C :   -0.064117
   3 C :   -0.074608
   4 C :   -0.197196
   5 H :    0.038041
   6 C :   -0.036302
   7 H :    0.033810
   8 H :    0.030028
   9 C :   -0.033646
  10 H :    0.018571
  11 H :    0.028146
  12 C :   -0.066121
  13 H :    0.030245
  14 H :    0.023870
  15 H :    0.021711
  16 S :    0.387463
  17 C :   -0.186639
  18 C :   -0.072244
  19 C :   -0.050485
  20 C :   -0.186357
  21 H :    0.028823
  22 C :   -0.040983
  23 H :    0.053630
  24 H :    0.027373
  25 C :   -0.052735
  26 H :    0.033687
  27 H :    0.037591
  28 C :   -0.071183
  29 H :    0.025076
  30 H :    0.031078
  31 H :    0.018610
  32 H :    0.037965
  33 H :    0.026971

  Mayer bond orders larger than 0.100000
B(  0-S ,  1-C ) :   1.1538 B(  0-S ,  4-C ) :   1.1619 B(  1-C ,  2-C ) :   1.5662
B(  1-C ,  4-C ) :   0.1080 B(  1-C , 32-H ) :   0.9707 B(  2-C ,  3-C ) :   1.2965
B(  2-C ,  6-C ) :   0.9952 B(  3-C ,  4-C ) :   1.5432 B(  3-C ,  5-H ) :   0.9797
B(  4-C , 20-C ) :   1.0397 B(  6-C ,  7-H ) :   0.9387 B(  6-C ,  8-H ) :   0.9401
B(  6-C ,  9-C ) :   1.0764 B(  9-C , 10-H ) :   0.9585 B(  9-C , 11-H ) :   0.9551
B(  9-C , 12-C ) :   1.0759 B( 12-C , 13-H ) :   0.9742 B( 12-C , 14-H ) :   0.9766
B( 12-C , 15-H ) :   0.9734 B( 16-S , 17-C ) :   1.1446 B( 16-S , 20-C ) :   1.1347
B( 17-C , 18-C ) :   1.6190 B( 17-C , 33-H ) :   0.9673 B( 18-C , 19-C ) :   1.2447
B( 18-C , 21-H ) :   0.9717 B( 19-C , 20-C ) :   1.5983 B( 19-C , 22-C ) :   1.0192
B( 22-C , 23-H ) :   0.9200 B( 22-C , 24-H ) :   0.9346 B( 22-C , 25-C ) :   1.0737
B( 25-C , 26-H ) :   0.9485 B( 25-C , 27-H ) :   0.9535 B( 25-C , 28-C ) :   1.0811
B( 28-C , 29-H ) :   0.9729 B( 28-C , 30-H ) :   0.9654 B( 28-C , 31-H ) :   0.9695

Dispersion correction           -0.013602825
FINAL SINGLE POINT ENERGY     -1339.859849265665

DIPOLE MOMENT
-------------
                                X             Y             Z
Electronic contribution:     -6.95000     -10.58865     -27.70392
Nuclear contribution   :      7.16653      10.96957      28.47099
                        -----------------------------------------
Total Dipole Moment    :      0.21654       0.38091       0.76706
                        -----------------------------------------
Magnitude (a.u.)       :      0.88339
Magnitude (Debye)      :      2.24539

Rotational constants in cm-1:     0.016656     0.008551     0.006203
Rotational constants in MHz :   499.333968   256.352580   185.957393

                             ****ORCA TERMINATED NORMALLY****
TOTAL RUN TIME: 0 days 0 hours 0 minutes 20 seconds 11 msec
