                         Program Version 4.2.1 -  RELEASE  -
|  1> ! wB97X-D3 SP def2-SVP
|  2> %pal
|  3> nprocs 24
|  4> end
|  5>
|  6> * xyz 0 1
|  7> S 	 -70.9276 	 10.0505 	 -69.9241
|  8> C 	 -71.3245 	 8.97519 	 -68.601
|  9> C 	 -70.7571 	 7.73336 	 -68.8214
| 10> C 	 -70.0577 	 7.62612 	 -70.0895
| 11> C 	 -70.0618 	 8.80808 	 -70.8003
| 12> H 	 -69.5838 	 6.79643 	 -70.6024
| 13> C 	 -70.8818 	 6.52263 	 -67.9143
| 14> H 	 -71.3872 	 6.91689 	 -67.0012
| 15> H 	 -69.8962 	 6.25223 	 -67.4702
| 16> C 	 -71.5229 	 5.26321 	 -68.4297
| 17> H 	 -70.8415 	 4.90994 	 -69.2418
| 18> H 	 -71.5222 	 4.39985 	 -67.7322
| 19> C 	 -72.9147 	 5.50788 	 -68.9852
| 20> H 	 -73.0183 	 6.25087 	 -69.7435
| 21> H 	 -73.2828 	 4.61255 	 -69.4938
| 22> H 	 -73.6566 	 5.70335 	 -68.2451
| 23> S 	 -70.5851 	 9.94172 	 -73.3262
| 24> C 	 -69.3178 	 9.88848 	 -74.5048
| 25> C 	 -68.1771 	 9.26126 	 -74.0553
| 26> C 	 -68.3073 	 8.80613 	 -72.7196
| 27> C 	 -69.5217 	 9.07819 	 -72.1662
| 28> H 	 -67.3758 	 9.14569 	 -74.7595
| 29> C 	 -67.1999 	 8.11461 	 -72.0225
| 30> H 	 -67.3425 	 8.29408 	 -70.9045
| 31> H 	 -66.3008 	 8.58836 	 -72.3174
| 32> C 	 -67.0072 	 6.63951 	 -72.2742
| 33> H 	 -66.597 	 6.42855 	 -73.2925
| 34> H 	 -68.0279 	 6.21506 	 -72.4601
| 35> C 	 -66.2129 	 5.89654 	 -71.1177
| 36> H 	 -65.2781 	 6.32192 	 -71.0602
| 37> H 	 -66.1859 	 4.87965 	 -71.4056
| 38> H 	 -66.6791 	 6.00815 	 -70.1831
| 39> H 	 -72.0276 	 9.15051 	 -67.7829
| 40> H 	 -69.3006 	 10.0874 	 -75.5554
| 41> *
| 42>
| 43>                          ****END OF INPUT****

CARTESIAN COORDINATES (ANGSTROEM)
---------------------------------
  S    -70.927600   10.050500  -69.924100
  C    -71.324500    8.975190  -68.601000
  C    -70.757100    7.733360  -68.821400
  C    -70.057700    7.626120  -70.089500
  C    -70.061800    8.808080  -70.800300
  H    -69.583800    6.796430  -70.602400
  C    -70.881800    6.522630  -67.914300
  H    -71.387200    6.916890  -67.001200
  H    -69.896200    6.252230  -67.470200
  C    -71.522900    5.263210  -68.429700
  H    -70.841500    4.909940  -69.241800
  H    -71.522200    4.399850  -67.732200
  C    -72.914700    5.507880  -68.985200
  H    -73.018300    6.250870  -69.743500
  H    -73.282800    4.612550  -69.493800
  H    -73.656600    5.703350  -68.245100
  S    -70.585100    9.941720  -73.326200
  C    -69.317800    9.888480  -74.504800
  C    -68.177100    9.261260  -74.055300
  C    -68.307300    8.806130  -72.719600
  C    -69.521700    9.078190  -72.166200
  H    -67.375800    9.145690  -74.759500
  C    -67.199900    8.114610  -72.022500
  H    -67.342500    8.294080  -70.904500
  H    -66.300800    8.588360  -72.317400
  C    -67.007200    6.639510  -72.274200
  H    -66.597000    6.428550  -73.292500
  H    -68.027900    6.215060  -72.460100
  C    -66.212900    5.896540  -71.117700
  H    -65.278100    6.321920  -71.060200
  H    -66.185900    4.879650  -71.405600
  H    -66.679100    6.008150  -70.183100
  H    -72.027600    9.150510  -67.782900
  H    -69.300600   10.087400  -75.555400

 Total Charge           Charge          ....    0
 Multiplicity           Mult            ....    1
 Number of Electrons    NEL             ....  134
 Basis Dimension        Dim             ....  322

ORBITAL ENERGIES
----------------

  NO   OCC          E(Eh)            E(eV)
   0   2.0000     -88.969254     -2420.9765
   1   2.0000     -88.965591     -2420.8768
   2   2.0000     -10.332645      -281.1656
   3   2.0000     -10.329836      -281.0891
   4   2.0000     -10.317454      -280.7522
   5   2.0000     -10.314390      -280.6688
   6   2.0000     -10.306204      -280.4461
   7   2.0000     -10.299704      -280.2692
   8   2.0000     -10.295530      -280.1556
   9   2.0000     -10.293181      -280.0917
  10   2.0000     -10.293142      -280.0906
  11   2.0000     -10.291064      -280.0341
  12   2.0000     -10.290340      -280.0144
  13   2.0000     -10.285975      -279.8956
  14   2.0000     -10.272344      -279.5247
  15   2.0000     -10.267624      -279.3963
  16   2.0000      -8.083384      -219.9601
  17   2.0000      -8.080301      -219.8762
  18   2.0000      -6.041983      -164.4107
  19   2.0000      -6.038921      -164.3274
  20   2.0000      -6.037993      -164.3022
  21   2.0000      -6.034729      -164.2133
  22   2.0000      -6.034068      -164.1953
  23   2.0000      -6.031008      -164.1121
  24   2.0000      -1.006673       -27.3930
  25   2.0000      -0.985884       -26.8273
  26   2.0000      -0.912626       -24.8338
  27   2.0000      -0.912207       -24.8224
  28   2.0000      -0.868330       -23.6285
  29   2.0000      -0.854150       -23.2426
  30   2.0000      -0.842517       -22.9261
  31   2.0000      -0.819219       -22.2921
  32   2.0000      -0.787402       -21.4263
  33   2.0000      -0.777930       -21.1685
  34   2.0000      -0.711170       -19.3519
  35   2.0000      -0.700444       -19.0601
  36   2.0000      -0.693734       -18.8775
  37   2.0000      -0.661719       -18.0063
  38   2.0000      -0.642511       -17.4836
  39   2.0000      -0.617475       -16.8023
  40   2.0000      -0.595831       -16.2134
  41   2.0000      -0.570708       -15.5298
  42   2.0000      -0.559142       -15.2150
  43   2.0000      -0.549414       -14.9503
  44   2.0000      -0.542968       -14.7749
  45   2.0000      -0.530250       -14.4288
  46   2.0000      -0.522613       -14.2210
  47   2.0000      -0.512055       -13.9337
  48   2.0000      -0.503975       -13.7139
  49   2.0000      -0.498066       -13.5531
  50   2.0000      -0.491583       -13.3766
  51   2.0000      -0.482436       -13.1278
  52   2.0000      -0.474195       -12.9035
  53   2.0000      -0.470533       -12.8039
  54   2.0000      -0.460275       -12.5247
  55   2.0000      -0.449635       -12.2352
  56   2.0000      -0.446860       -12.1597
  57   2.0000      -0.438454       -11.9309
  58   2.0000      -0.430368       -11.7109
  59   2.0000      -0.422510       -11.4971
  60   2.0000      -0.421482       -11.4691
  61   2.0000      -0.410567       -11.1721
  62   2.0000      -0.407847       -11.0981
  63   2.0000      -0.349567        -9.5122
  64   2.0000      -0.335154        -9.1200
  65   2.0000      -0.328785        -8.9467
  66   2.0000      -0.296877        -8.0784
  67   0.0000       0.031171         0.8482
  68   0.0000       0.071370         1.9421
  69   0.0000       0.112558         3.0629
  70   0.0000       0.119450         3.2504
  71   0.0000       0.130052         3.5389

MULLIKEN ATOMIC CHARGES
-----------------------
   0 S :    0.105449
   1 C :   -0.113412
   2 C :   -0.099259
   3 C :    0.027416
   4 C :   -0.155698
   5 H :    0.009539
   6 C :    0.063155
   7 H :    0.006217
   8 H :    0.036174
   9 C :   -0.069252
  10 H :    0.028202
  11 H :    0.036501
  12 C :   -0.033312
  13 H :    0.035558
  14 H :    0.020377
  15 H :    0.020257
  16 S :    0.115590
  17 C :   -0.062052
  18 C :   -0.057333
  19 C :   -0.016768
  20 C :   -0.160477
  21 H :    0.012100
  22 C :    0.069761
  23 H :    0.040570
  24 H :    0.012569
  25 C :   -0.121950
  26 H :    0.024144
  27 H :    0.024462
  28 C :    0.024056
  29 H :    0.020192
  30 H :    0.032245
  31 H :    0.024184
  32 H :    0.056861
  33 H :    0.043933
Sum of atomic charges:   -0.0000000

LOEWDIN ATOMIC CHARGES
----------------------
   0 S :    0.402093
   1 C :   -0.201845
   2 C :   -0.060968
   3 C :   -0.069410
   4 C :   -0.185847
   5 H :    0.032883
   6 C :   -0.042199
   7 H :    0.026541
   8 H :    0.035724
   9 C :   -0.046303
  10 H :    0.026989
  11 H :    0.031557
  12 C :   -0.066196
  13 H :    0.024793
  14 H :    0.027761
  15 H :    0.020765
  16 S :    0.396158
  17 C :   -0.184689
  18 C :   -0.070699
  19 C :   -0.055475
  20 C :   -0.185465
  21 H :    0.030226
  22 C :   -0.039638
  23 H :    0.039973
  24 H :    0.025312
  25 C :   -0.045721
  26 H :    0.024994
  27 H :    0.019978
  28 C :   -0.041740
  29 H :    0.017266
  30 H :    0.025910
  31 H :    0.020452
  32 H :    0.036399
  33 H :    0.030423

  Mayer bond orders larger than 0.100000
B(  0-S ,  1-C ) :   1.1251 B(  0-S ,  4-C ) :   1.1524 B(  1-C ,  2-C ) :   1.6317
B(  1-C , 32-H ) :   0.9625 B(  2-C ,  3-C ) :   1.1926 B(  2-C ,  6-C ) :   1.0279
B(  3-C ,  4-C ) :   1.6001 B(  3-C ,  5-H ) :   0.9949 B(  4-C , 20-C ) :   1.0175
B(  6-C ,  7-H ) :   0.9372 B(  6-C ,  8-H ) :   0.9364 B(  6-C ,  9-C ) :   1.0731
B(  9-C , 10-H ) :   0.9493 B(  9-C , 11-H ) :   0.9526 B(  9-C , 12-C ) :   1.0803
B( 12-C , 13-H ) :   0.9733 B( 12-C , 14-H ) :   0.9707 B( 12-C , 15-H ) :   0.9751
B( 16-S , 17-C ) :   1.1495 B( 16-S , 20-C ) :   1.1172 B( 17-C , 18-C ) :   1.6451
B( 17-C , 33-H ) :   0.9598 B( 18-C , 19-C ) :   1.2154 B( 18-C , 21-H ) :   0.9932
B( 19-C , 20-C ) :   1.6245 B( 19-C , 22-C ) :   1.0599 B( 22-C , 23-H ) :   0.9335
B( 22-C , 24-H ) :   0.9195 B( 22-C , 25-C ) :   1.0527 B( 25-C , 26-H ) :   0.9488
B( 25-C , 27-H ) :   0.9573 B( 25-C , 28-C ) :   1.0692 B( 28-C , 29-H ) :   0.9758
B( 28-C , 30-H ) :   0.9749 B( 28-C , 31-H ) :   0.9764

Dispersion correction           -0.014876421
FINAL SINGLE POINT ENERGY     -1339.880710701143

DIPOLE MOMENT
-------------
                                X             Y             Z
Electronic contribution:     -7.70395      25.00274      -9.17649
Nuclear contribution   :      8.04676     -25.63970       9.13573
                        -----------------------------------------
Total Dipole Moment    :      0.34282      -0.63695      -0.04076
                        -----------------------------------------
Magnitude (a.u.)       :      0.72450
Magnitude (Debye)      :      1.84152

Rotational constants in cm-1:     0.017233     0.009646     0.007256
Rotational constants in MHz :   516.631375   289.191128   217.533521

                             ****ORCA TERMINATED NORMALLY****
TOTAL RUN TIME: 0 days 0 hours 0 minutes 22 seconds 139 msec
