                         Program Version 4.2.1 -  RELEASE  -
|  1> ! wB97X-D3 SP def2-SVP
|  2> %pal
|  3> nprocs 24
|  4> end
|  5>
|  6> * xyz 0 1
|  7> S 	 -102.253 	 0.263219 	 -121.902
|  8> C 	 -103.476 	 -0.85939 	 -121.549
|  9> C 	 -103.003 	 -2.13454 	 -121.815
| 10> C 	 -101.593 	 -2.22048 	 -122.281
| 11> C 	 -101.028 	 -0.940043 	 -122.309
| 12> H 	 -101.065 	 -3.0654 	 -122.546
| 13> C 	 -103.88 	 -3.33283 	 -121.828
| 14> H 	 -103.907 	 -3.77696 	 -122.829
| 15> H 	 -104.932 	 -2.99241 	 -121.713
| 16> C 	 -103.496 	 -4.25995 	 -120.675
| 17> H 	 -104.174 	 -5.17403 	 -120.752
| 18> H 	 -102.432 	 -4.56434 	 -120.669
| 19> C 	 -103.646 	 -3.53654 	 -119.366
| 20> H 	 -103.124 	 -2.55602 	 -119.353
| 21> H 	 -104.644 	 -3.25011 	 -119.143
| 22> H 	 -103.363 	 -4.10258 	 -118.491
| 23> S 	 -99.7076 	 0.578965 	 -124.095
| 24> C 	 -98.005 	 0.273732 	 -124.406
| 25> C 	 -97.5003 	 -0.645633 	 -123.525
| 26> C 	 -98.4533 	 -1.1367 	 -122.558
| 27> C 	 -99.719 	 -0.645665 	 -122.849
| 28> H 	 -96.4505 	 -0.80211 	 -123.423
| 29> C 	 -98.1086 	 -2.09602 	 -121.395
| 30> H 	 -97.0885 	 -2.26855 	 -121.669
| 31> H 	 -98.7183 	 -3.00179 	 -121.481
| 32> C 	 -98.2857 	 -1.53238 	 -119.949
| 33> H 	 -98.0349 	 -2.40453 	 -119.342
| 34> H 	 -99.2847 	 -1.40167 	 -119.666
| 35> C 	 -97.3836 	 -0.346368 	 -119.684
| 36> H 	 -97.7717 	 0.506631 	 -120.285
| 37> H 	 -96.3522 	 -0.497337 	 -119.856
| 38> H 	 -97.5216 	 -0.142409 	 -118.595
| 39> H 	 -104.543 	 -0.66157 	 -121.49
| 40> H 	 -97.4026 	 0.66593 	 -125.271
| 41> *
| 42>
| 43>                          ****END OF INPUT****

CARTESIAN COORDINATES (ANGSTROEM)
---------------------------------
  S    -102.253000    0.263219  -121.902000
  C    -103.476000   -0.859390  -121.549000
  C    -103.003000   -2.134540  -121.815000
  C    -101.593000   -2.220480  -122.281000
  C    -101.028000   -0.940043  -122.309000
  H    -101.065000   -3.065400  -122.546000
  C    -103.880000   -3.332830  -121.828000
  H    -103.907000   -3.776960  -122.829000
  H    -104.932000   -2.992410  -121.713000
  C    -103.496000   -4.259950  -120.675000
  H    -104.174000   -5.174030  -120.752000
  H    -102.432000   -4.564340  -120.669000
  C    -103.646000   -3.536540  -119.366000
  H    -103.124000   -2.556020  -119.353000
  H    -104.644000   -3.250110  -119.143000
  H    -103.363000   -4.102580  -118.491000
  S    -99.707600    0.578965  -124.095000
  C    -98.005000    0.273732  -124.406000
  C    -97.500300   -0.645633  -123.525000
  C    -98.453300   -1.136700  -122.558000
  C    -99.719000   -0.645665  -122.849000
  H    -96.450500   -0.802110  -123.423000
  C    -98.108600   -2.096020  -121.395000
  H    -97.088500   -2.268550  -121.669000
  H    -98.718300   -3.001790  -121.481000
  C    -98.285700   -1.532380  -119.949000
  H    -98.034900   -2.404530  -119.342000
  H    -99.284700   -1.401670  -119.666000
  C    -97.383600   -0.346368  -119.684000
  H    -97.771700    0.506631  -120.285000
  H    -96.352200   -0.497337  -119.856000
  H    -97.521600   -0.142409  -118.595000
  H    -104.543000   -0.661570  -121.490000
  H    -97.402600    0.665930  -125.271000

 Total Charge           Charge          ....    0
 Multiplicity           Mult            ....    1
 Number of Electrons    NEL             ....  134
 Basis Dimension        Dim             ....  322

ORBITAL ENERGIES
----------------

  NO   OCC          E(Eh)            E(eV)
   0   2.0000     -88.965617     -2420.8775
   1   2.0000     -88.964360     -2420.8433
   2   2.0000     -10.332877      -281.1719
   3   2.0000     -10.324643      -280.9478
   4   2.0000     -10.321472      -280.8615
   5   2.0000     -10.310529      -280.5638
   6   2.0000     -10.304425      -280.3977
   7   2.0000     -10.301941      -280.3301
   8   2.0000     -10.295897      -280.1656
   9   2.0000     -10.293790      -280.1083
  10   2.0000     -10.293377      -280.0970
  11   2.0000     -10.290963      -280.0314
  12   2.0000     -10.289556      -279.9931
  13   2.0000     -10.281009      -279.7605
  14   2.0000     -10.275056      -279.5985
  15   2.0000     -10.266215      -279.3579
  16   2.0000      -8.080462      -219.8805
  17   2.0000      -8.079748      -219.8611
  18   2.0000      -6.038977      -164.3289
  19   2.0000      -6.038435      -164.3142
  20   2.0000      -6.034936      -164.2189
  21   2.0000      -6.033990      -164.1932
  22   2.0000      -6.031221      -164.1179
  23   2.0000      -6.030434      -164.0964
  24   2.0000      -1.007299       -27.4100
  25   2.0000      -0.984319       -26.7847
  26   2.0000      -0.917133       -24.9564
  27   2.0000      -0.906709       -24.6728
  28   2.0000      -0.873661       -23.7735
  29   2.0000      -0.850413       -23.1409
  30   2.0000      -0.841228       -22.8910
  31   2.0000      -0.815533       -22.1918
  32   2.0000      -0.780628       -21.2420
  33   2.0000      -0.770379       -20.9631
  34   2.0000      -0.714254       -19.4359
  35   2.0000      -0.698053       -18.9950
  36   2.0000      -0.686941       -18.6926
  37   2.0000      -0.663642       -18.0586
  38   2.0000      -0.645105       -17.5542
  39   2.0000      -0.618832       -16.8393
  40   2.0000      -0.586706       -15.9651
  41   2.0000      -0.569238       -15.4898
  42   2.0000      -0.555035       -15.1033
  43   2.0000      -0.548354       -14.9215
  44   2.0000      -0.545410       -14.8413
  45   2.0000      -0.537092       -14.6150
  46   2.0000      -0.523040       -14.2326
  47   2.0000      -0.513968       -13.9858
  48   2.0000      -0.506054       -13.7704
  49   2.0000      -0.496634       -13.5141
  50   2.0000      -0.490086       -13.3359
  51   2.0000      -0.477805       -13.0017
  52   2.0000      -0.473237       -12.8774
  53   2.0000      -0.463761       -12.6196
  54   2.0000      -0.453303       -12.3350
  55   2.0000      -0.448321       -12.1994
  56   2.0000      -0.443111       -12.0577
  57   2.0000      -0.439206       -11.9514
  58   2.0000      -0.434020       -11.8103
  59   2.0000      -0.424268       -11.5449
  60   2.0000      -0.418433       -11.3861
  61   2.0000      -0.408520       -11.1164
  62   2.0000      -0.407004       -11.0751
  63   2.0000      -0.352390        -9.5890
  64   2.0000      -0.331492        -9.0203
  65   2.0000      -0.321681        -8.7534
  66   2.0000      -0.291957        -7.9446
  67   0.0000       0.027090         0.7372
  68   0.0000       0.071072         1.9340
  69   0.0000       0.109145         2.9700
  70   0.0000       0.118200         3.2164
  71   0.0000       0.128934         3.5085

MULLIKEN ATOMIC CHARGES
-----------------------
   0 S :    0.103544
   1 C :   -0.096725
   2 C :   -0.155505
   3 C :    0.064561
   4 C :   -0.135850
   5 H :   -0.008152
   6 C :    0.062929
   7 H :    0.039144
   8 H :    0.013218
   9 C :   -0.071418
  10 H :    0.042132
  11 H :    0.037200
  12 C :   -0.054818
  13 H :    0.049908
  14 H :    0.003820
  15 H :    0.027759
  16 S :    0.109100
  17 C :   -0.104523
  18 C :   -0.028703
  19 C :   -0.081571
  20 C :   -0.170217
  21 H :    0.014297
  22 C :    0.091625
  23 H :    0.004362
  24 H :    0.032388
  25 C :   -0.043505
  26 H :    0.018967
  27 H :    0.025439
  28 C :   -0.047230
  29 H :    0.055201
  30 H :    0.025785
  31 H :    0.037076
  32 H :    0.061516
  33 H :    0.078245
Sum of atomic charges:   -0.0000000

LOEWDIN ATOMIC CHARGES
----------------------
   0 S :    0.412972
   1 C :   -0.227469
   2 C :   -0.058308
   3 C :   -0.048723
   4 C :   -0.188290
   5 H :    0.017913
   6 C :   -0.039789
   7 H :    0.032896
   8 H :    0.029555
   9 C :   -0.043918
  10 H :    0.030839
  11 H :    0.026864
  12 C :   -0.072120
  13 H :    0.033253
  14 H :    0.015408
  15 H :    0.023542
  16 S :    0.405299
  17 C :   -0.191705
  18 C :   -0.075850
  19 C :   -0.058036
  20 C :   -0.197947
  21 H :    0.027016
  22 C :   -0.024573
  23 H :    0.024811
  24 H :    0.032096
  25 C :   -0.035266
  26 H :    0.025184
  27 H :    0.020423
  28 C :   -0.063100
  29 H :    0.035334
  30 H :    0.017563
  31 H :    0.033328
  32 H :    0.036426
  33 H :    0.044373

  Mayer bond orders larger than 0.100000
B(  0-S ,  1-C ) :   1.1281 B(  0-S ,  4-C ) :   1.1523 B(  1-C ,  2-C ) :   1.6109
B(  1-C , 32-H ) :   0.9633 B(  2-C ,  3-C ) :   1.2167 B(  2-C ,  6-C ) :   1.0378
B(  3-C ,  4-C ) :   1.5552 B(  3-C ,  5-H ) :   1.0057 B(  4-C , 20-C ) :   1.0597
B(  6-C ,  7-H ) :   0.9431 B(  6-C ,  8-H ) :   0.9430 B(  6-C ,  9-C ) :   1.0532
B(  9-C , 10-H ) :   0.9555 B(  9-C , 11-H ) :   0.9601 B(  9-C , 12-C ) :   1.0722
B( 12-C , 13-H ) :   0.9664 B( 12-C , 14-H ) :   0.9709 B( 12-C , 15-H ) :   0.9719
B( 16-S , 17-C ) :   1.1459 B( 16-S , 20-C ) :   1.1438 B( 17-C , 18-C ) :   1.6284
B( 17-C , 33-H ) :   0.9574 B( 18-C , 19-C ) :   1.2467 B( 18-C , 21-H ) :   0.9801
B( 19-C , 20-C ) :   1.5856 B( 19-C , 22-C ) :   1.0215 B( 22-C , 23-H ) :   0.9325
B( 22-C , 24-H ) :   0.9338 B( 22-C , 25-C ) :   1.0749 B( 25-C , 26-H ) :   0.9515
B( 25-C , 27-H ) :   0.9546 B( 25-C , 28-C ) :   1.0731 B( 28-C , 29-H ) :   0.9734
B( 28-C , 30-H ) :   0.9777 B( 28-C , 31-H ) :   0.9724

Dispersion correction           -0.015342752
FINAL SINGLE POINT ENERGY     -1339.873185331322

DIPOLE MOMENT
-------------
                                X             Y             Z
Electronic contribution:     -0.86400      16.79524     -18.09680
Nuclear contribution   :      0.98904     -17.31300      18.19334
                        -----------------------------------------
Total Dipole Moment    :      0.12504      -0.51776       0.09654
                        -----------------------------------------
Magnitude (a.u.)       :      0.54132
Magnitude (Debye)      :      1.37593

Rotational constants in cm-1:     0.020536     0.009144     0.007545
Rotational constants in MHz :   615.646238   274.130537   226.196973

                             ****ORCA TERMINATED NORMALLY****
TOTAL RUN TIME: 0 days 0 hours 0 minutes 22 seconds 625 msec
