                         Program Version 4.2.1 -  RELEASE  -
|  1> ! wB97X-D3 SP def2-SVP
|  2> %pal
|  3> nprocs 24
|  4> end
|  5>
|  6> * xyz 0 1
|  7> S 	 26.6304 	 -5.76541 	 -118.899
|  8> C 	 28.0867 	 -5.87598 	 -119.818
|  9> C 	 29.1763 	 -6.07032 	 -118.993
| 10> C 	 28.8435 	 -6.37759 	 -117.652
| 11> C 	 27.4729 	 -6.26583 	 -117.435
| 12> H 	 29.5046 	 -6.54811 	 -116.879
| 13> C 	 30.6272 	 -6.02277 	 -119.453
| 14> H 	 31.1997 	 -5.54194 	 -118.693
| 15> H 	 30.7064 	 -5.42123 	 -120.317
| 16> C 	 31.234 	 -7.39838 	 -119.643
| 17> H 	 32.3096 	 -7.33508 	 -119.36
| 18> H 	 30.7524 	 -8.06985 	 -118.928
| 19> C 	 31.0055 	 -8.05996 	 -120.98
| 20> H 	 31.4744 	 -7.49351 	 -121.739
| 21> H 	 31.4394 	 -9.0796 	 -121.072
| 22> H 	 30.0534 	 -8.13235 	 -121.277
| 23> S 	 25.3776 	 -5.42286 	 -115.825
| 24> C 	 25.4031 	 -5.74677 	 -114.12
| 25> C 	 26.3825 	 -6.64339 	 -113.833
| 26> C 	 27.1013 	 -7.09396 	 -114.956
| 27> C 	 26.8242 	 -6.39512 	 -116.147
| 28> H 	 26.5859 	 -6.90555 	 -112.884
| 29> C 	 28.3023 	 -7.92851 	 -114.634
| 30> H 	 28.4519 	 -8.48004 	 -115.594
| 31> H 	 28.0397 	 -8.65649 	 -113.861
| 32> C 	 29.5042 	 -7.20507 	 -114.087
| 33> H 	 29.3809 	 -7.01395 	 -112.991
| 34> H 	 29.5726 	 -6.24058 	 -114.636
| 35> C 	 30.8059 	 -7.94886 	 -114.327
| 36> H 	 31.1067 	 -8.15105 	 -115.376
| 37> H 	 30.8643 	 -8.87796 	 -113.778
| 38> H 	 31.7257 	 -7.39994 	 -113.994
| 39> H 	 28.1091 	 -5.61668 	 -120.886
| 40> H 	 24.8634 	 -5.32904 	 -113.267
| 41> *
| 42>
| 43>                          ****END OF INPUT****

CARTESIAN COORDINATES (ANGSTROEM)
---------------------------------
  S     26.630400   -5.765410  -118.899000
  C     28.086700   -5.875980  -119.818000
  C     29.176300   -6.070320  -118.993000
  C     28.843500   -6.377590  -117.652000
  C     27.472900   -6.265830  -117.435000
  H     29.504600   -6.548110  -116.879000
  C     30.627200   -6.022770  -119.453000
  H     31.199700   -5.541940  -118.693000
  H     30.706400   -5.421230  -120.317000
  C     31.234000   -7.398380  -119.643000
  H     32.309600   -7.335080  -119.360000
  H     30.752400   -8.069850  -118.928000
  C     31.005500   -8.059960  -120.980000
  H     31.474400   -7.493510  -121.739000
  H     31.439400   -9.079600  -121.072000
  H     30.053400   -8.132350  -121.277000
  S     25.377600   -5.422860  -115.825000
  C     25.403100   -5.746770  -114.120000
  C     26.382500   -6.643390  -113.833000
  C     27.101300   -7.093960  -114.956000
  C     26.824200   -6.395120  -116.147000
  H     26.585900   -6.905550  -112.884000
  C     28.302300   -7.928510  -114.634000
  H     28.451900   -8.480040  -115.594000
  H     28.039700   -8.656490  -113.861000
  C     29.504200   -7.205070  -114.087000
  H     29.380900   -7.013950  -112.991000
  H     29.572600   -6.240580  -114.636000
  C     30.805900   -7.948860  -114.327000
  H     31.106700   -8.151050  -115.376000
  H     30.864300   -8.877960  -113.778000
  H     31.725700   -7.399940  -113.994000
  H     28.109100   -5.616680  -120.886000
  H     24.863400   -5.329040  -113.267000

 Total Charge           Charge          ....    0
 Multiplicity           Mult            ....    1
 Number of Electrons    NEL             ....  134
 Basis Dimension        Dim             ....  322

ORBITAL ENERGIES
----------------

  NO   OCC          E(Eh)            E(eV)
   0   2.0000     -88.968997     -2420.9695
   1   2.0000     -88.964998     -2420.8607
   2   2.0000     -10.335355      -281.2393
   3   2.0000     -10.332418      -281.1594
   4   2.0000     -10.314951      -280.6841
   5   2.0000     -10.313973      -280.6575
   6   2.0000     -10.300702      -280.2964
   7   2.0000     -10.298574      -280.2384
   8   2.0000     -10.294265      -280.1212
   9   2.0000     -10.291565      -280.0477
  10   2.0000     -10.288449      -279.9629
  11   2.0000     -10.284724      -279.8616
  12   2.0000     -10.284538      -279.8565
  13   2.0000     -10.283584      -279.8305
  14   2.0000     -10.278049      -279.6799
  15   2.0000     -10.263725      -279.2902
  16   2.0000      -8.083977      -219.9762
  17   2.0000      -8.079604      -219.8572
  18   2.0000      -6.042513      -164.4251
  19   2.0000      -6.038527      -164.3167
  20   2.0000      -6.038268      -164.3096
  21   2.0000      -6.034622      -164.2104
  22   2.0000      -6.034073      -164.1955
  23   2.0000      -6.030258      -164.0917
  24   2.0000      -1.010376       -27.4937
  25   2.0000      -0.989445       -26.9242
  26   2.0000      -0.918010       -24.9803
  27   2.0000      -0.915080       -24.9006
  28   2.0000      -0.874698       -23.8017
  29   2.0000      -0.856539       -23.3076
  30   2.0000      -0.850002       -23.1297
  31   2.0000      -0.819635       -22.3034
  32   2.0000      -0.788196       -21.4479
  33   2.0000      -0.773130       -21.0379
  34   2.0000      -0.713770       -19.4227
  35   2.0000      -0.699108       -19.0237
  36   2.0000      -0.693998       -18.8846
  37   2.0000      -0.670510       -18.2455
  38   2.0000      -0.646339       -17.5878
  39   2.0000      -0.629405       -17.1270
  40   2.0000      -0.593379       -16.1467
  41   2.0000      -0.577587       -15.7169
  42   2.0000      -0.570568       -15.5260
  43   2.0000      -0.551734       -15.0135
  44   2.0000      -0.543459       -14.7883
  45   2.0000      -0.525296       -14.2940
  46   2.0000      -0.523344       -14.2409
  47   2.0000      -0.511949       -13.9308
  48   2.0000      -0.509771       -13.8716
  49   2.0000      -0.501600       -13.6492
  50   2.0000      -0.494705       -13.4616
  51   2.0000      -0.492016       -13.3884
  52   2.0000      -0.480415       -13.0728
  53   2.0000      -0.470012       -12.7897
  54   2.0000      -0.462739       -12.5918
  55   2.0000      -0.453814       -12.3489
  56   2.0000      -0.439440       -11.9578
  57   2.0000      -0.436884       -11.8882
  58   2.0000      -0.430273       -11.7083
  59   2.0000      -0.425446       -11.5770
  60   2.0000      -0.417834       -11.3698
  61   2.0000      -0.414058       -11.2671
  62   2.0000      -0.410087       -11.1590
  63   2.0000      -0.362652        -9.8683
  64   2.0000      -0.335833        -9.1385
  65   2.0000      -0.328216        -8.9312
  66   2.0000      -0.282070        -7.6755
  67   0.0000       0.018661         0.5078
  68   0.0000       0.078913         2.1473
  69   0.0000       0.102907         2.8002
  70   0.0000       0.119808         3.2601
  71   0.0000       0.129482         3.5234

MULLIKEN ATOMIC CHARGES
-----------------------
   0 S :    0.112900
   1 C :   -0.128393
   2 C :   -0.097888
   3 C :    0.036052
   4 C :   -0.096748
   5 H :   -0.045074
   6 C :    0.120607
   7 H :    0.015006
   8 H :    0.004873
   9 C :   -0.084249
  10 H :    0.031924
  11 H :    0.026156
  12 C :    0.008574
  13 H :    0.005542
  14 H :    0.034306
  15 H :    0.000083
  16 S :    0.094559
  17 C :   -0.061743
  18 C :   -0.017262
  19 C :   -0.034283
  20 C :   -0.138637
  21 H :   -0.031553
  22 C :    0.020957
  23 H :    0.038274
  24 H :    0.023584
  25 C :   -0.058954
  26 H :    0.040235
  27 H :    0.039511
  28 C :   -0.070616
  29 H :    0.034975
  30 H :    0.028586
  31 H :    0.031746
  32 H :    0.059864
  33 H :    0.057085
Sum of atomic charges:    0.0000000

LOEWDIN ATOMIC CHARGES
----------------------
   0 S :    0.410273
   1 C :   -0.209729
   2 C :   -0.057523
   3 C :   -0.053549
   4 C :   -0.178637
   5 H :    0.017702
   6 C :   -0.023357
   7 H :    0.030319
   8 H :    0.021709
   9 C :   -0.040290
  10 H :    0.027031
  11 H :    0.024769
  12 C :   -0.056200
  13 H :    0.017901
  14 H :    0.034555
  15 H :    0.007863
  16 S :    0.399150
  17 C :   -0.187790
  18 C :   -0.061867
  19 C :   -0.061443
  20 C :   -0.185692
  21 H :    0.010636
  22 C :   -0.043945
  23 H :    0.034956
  24 H :    0.031504
  25 C :   -0.045199
  26 H :    0.033023
  27 H :    0.026170
  28 C :   -0.075438
  29 H :    0.026125
  30 H :    0.022645
  31 H :    0.030882
  32 H :    0.033405
  33 H :    0.040041

  Mayer bond orders larger than 0.100000
B(  0-S ,  1-C ) :   1.1346 B(  0-S ,  4-C ) :   1.1538 B(  1-C ,  2-C ) :   1.5994
B(  1-C , 32-H ) :   0.9657 B(  2-C ,  3-C ) :   1.2484 B(  2-C ,  6-C ) :   1.0401
B(  3-C ,  4-C ) :   1.5295 B(  3-C ,  5-H ) :   1.0100 B(  4-C , 20-C ) :   1.0955
B(  6-C ,  7-H ) :   0.9317 B(  6-C ,  8-H ) :   0.9408 B(  6-C ,  9-C ) :   1.0616
B(  9-C , 10-H ) :   0.9565 B(  9-C , 11-H ) :   0.9567 B(  9-C , 12-C ) :   1.0845
B( 12-C , 13-H ) :   0.9709 B( 12-C , 14-H ) :   0.9704 B( 12-C , 15-H ) :   0.9710
B( 16-S , 17-C ) :   1.1478 B( 16-S , 20-C ) :   1.1258 B( 17-C , 18-C ) :   1.6110
B( 17-C , 33-H ) :   0.9614 B( 18-C , 19-C ) :   1.2416 B( 18-C , 21-H ) :   1.0104
B( 19-C , 20-C ) :   1.5502 B( 19-C , 22-C ) :   1.0750 B( 22-C , 23-H ) :   0.9379
B( 22-C , 24-H ) :   0.9247 B( 22-C , 25-C ) :   1.0529 B( 25-C , 26-H ) :   0.9450
B( 25-C , 27-H ) :   0.9563 B( 25-C , 28-C ) :   1.0875 B( 28-C , 29-H ) :   0.9738
B( 28-C , 30-H ) :   0.9724 B( 28-C , 31-H ) :   0.9713

Dispersion correction           -0.014782258
FINAL SINGLE POINT ENERGY     -1339.865583882914

DIPOLE MOMENT
-------------
                                X             Y             Z
Electronic contribution:    -28.88361      12.20024      -0.15547
Nuclear contribution   :     29.61371     -12.27158       0.43681
                        -----------------------------------------
Total Dipole Moment    :      0.73010      -0.07134       0.28134
                        -----------------------------------------
Magnitude (a.u.)       :      0.78568
Magnitude (Debye)      :      1.99704

Rotational constants in cm-1:     0.018876     0.009561     0.006669
Rotational constants in MHz :   565.875023   286.621492   199.920645

                             ****ORCA TERMINATED NORMALLY****
TOTAL RUN TIME: 0 days 0 hours 0 minutes 22 seconds 486 msec
