                         Program Version 4.2.1 -  RELEASE  -
|  1> ! wB97X-D3 SP def2-SVP
|  2> %pal
|  3> nprocs 24
|  4> end
|  5>
|  6> * xyz 0 1
|  7> S 	 -111.629 	 22.0487 	 -109.759
|  8> C 	 -111.541 	 22.9735 	 -111.192
|  9> C 	 -112.166 	 22.26 	 -112.189
| 10> C 	 -112.504 	 20.9417 	 -111.857
| 11> C 	 -112.237 	 20.5791 	 -110.539
| 12> H 	 -112.843 	 20.1518 	 -112.539
| 13> C 	 -112.279 	 22.8561 	 -113.567
| 14> H 	 -112.196 	 22.0931 	 -114.223
| 15> H 	 -111.416 	 23.4454 	 -113.727
| 16> C 	 -113.476 	 23.8018 	 -113.743
| 17> H 	 -114.358 	 23.2679 	 -113.962
| 18> H 	 -113.704 	 24.3858 	 -112.84
| 19> C 	 -113.275 	 24.8972 	 -114.792
| 20> H 	 -112.45 	 25.5422 	 -114.455
| 21> H 	 -112.977 	 24.5467 	 -115.813
| 22> H 	 -114.142 	 25.5414 	 -114.813
| 23> S 	 -113.964 	 19.5757 	 -108.743
| 24> C 	 -113.678 	 18.0097 	 -108.093
| 25> C 	 -112.79 	 17.3325 	 -108.866
| 26> C 	 -112.046 	 18.1703 	 -109.759
| 27> C 	 -112.635 	 19.4149 	 -109.791
| 28> H 	 -112.603 	 16.245 	 -108.618
| 29> C 	 -111.031 	 17.6248 	 -110.742
| 30> H 	 -110.047 	 18.0994 	 -110.573
| 31> H 	 -111.268 	 17.9358 	 -111.789
| 32> C 	 -110.831 	 16.0789 	 -110.811
| 33> H 	 -110.109 	 15.9755 	 -111.637
| 34> H 	 -111.782 	 15.5632 	 -111.103
| 35> C 	 -110.179 	 15.3653 	 -109.639
| 36> H 	 -109.528 	 16.0169 	 -109.055
| 37> H 	 -109.422 	 14.6518 	 -110.031
| 38> H 	 -110.886 	 14.8599 	 -108.949
| 39> H 	 -111.157 	 23.9418 	 -111.32
| 40> H 	 -114.215 	 17.5271 	 -107.25
| 41> *
| 42>
| 43>                          ****END OF INPUT****

CARTESIAN COORDINATES (ANGSTROEM)
---------------------------------
  S    -111.629000   22.048700  -109.759000
  C    -111.541000   22.973500  -111.192000
  C    -112.166000   22.260000  -112.189000
  C    -112.504000   20.941700  -111.857000
  C    -112.237000   20.579100  -110.539000
  H    -112.843000   20.151800  -112.539000
  C    -112.279000   22.856100  -113.567000
  H    -112.196000   22.093100  -114.223000
  H    -111.416000   23.445400  -113.727000
  C    -113.476000   23.801800  -113.743000
  H    -114.358000   23.267900  -113.962000
  H    -113.704000   24.385800  -112.840000
  C    -113.275000   24.897200  -114.792000
  H    -112.450000   25.542200  -114.455000
  H    -112.977000   24.546700  -115.813000
  H    -114.142000   25.541400  -114.813000
  S    -113.964000   19.575700  -108.743000
  C    -113.678000   18.009700  -108.093000
  C    -112.790000   17.332500  -108.866000
  C    -112.046000   18.170300  -109.759000
  C    -112.635000   19.414900  -109.791000
  H    -112.603000   16.245000  -108.618000
  C    -111.031000   17.624800  -110.742000
  H    -110.047000   18.099400  -110.573000
  H    -111.268000   17.935800  -111.789000
  C    -110.831000   16.078900  -110.811000
  H    -110.109000   15.975500  -111.637000
  H    -111.782000   15.563200  -111.103000
  C    -110.179000   15.365300  -109.639000
  H    -109.528000   16.016900  -109.055000
  H    -109.422000   14.651800  -110.031000
  H    -110.886000   14.859900  -108.949000
  H    -111.157000   23.941800  -111.320000
  H    -114.215000   17.527100  -107.250000

 Total Charge           Charge          ....    0
 Multiplicity           Mult            ....    1
 Number of Electrons    NEL             ....  134
 Basis Dimension        Dim             ....  322

ORBITAL ENERGIES
----------------

  NO   OCC          E(Eh)            E(eV)
   0   2.0000     -88.964399     -2420.8444
   1   2.0000     -88.960373     -2420.7348
   2   2.0000     -10.325631      -280.9747
   3   2.0000     -10.317632      -280.7570
   4   2.0000     -10.311827      -280.5991
   5   2.0000     -10.306484      -280.4537
   6   2.0000     -10.301060      -280.3061
   7   2.0000     -10.297623      -280.2126
   8   2.0000     -10.293131      -280.0903
   9   2.0000     -10.293121      -280.0901
  10   2.0000     -10.292291      -280.0675
  11   2.0000     -10.292089      -280.0620
  12   2.0000     -10.281634      -279.7775
  13   2.0000     -10.280521      -279.7472
  14   2.0000     -10.279269      -279.7131
  15   2.0000     -10.276098      -279.6268
  16   2.0000      -8.080659      -219.8859
  17   2.0000      -8.075528      -219.7463
  18   2.0000      -6.038986      -164.3292
  19   2.0000      -6.034990      -164.2204
  20   2.0000      -6.033856      -164.1896
  21   2.0000      -6.031462      -164.1244
  22   2.0000      -6.029775      -164.0785
  23   2.0000      -6.026608      -163.9924
  24   2.0000      -1.015147       -27.6236
  25   2.0000      -0.992420       -27.0051
  26   2.0000      -0.913313       -24.8525
  27   2.0000      -0.906492       -24.6669
  28   2.0000      -0.873713       -23.7749
  29   2.0000      -0.850805       -23.1516
  30   2.0000      -0.847086       -23.0504
  31   2.0000      -0.819164       -22.2906
  32   2.0000      -0.785595       -21.3771
  33   2.0000      -0.770864       -20.9763
  34   2.0000      -0.706720       -19.2308
  35   2.0000      -0.701149       -19.0792
  36   2.0000      -0.692443       -18.8423
  37   2.0000      -0.651934       -17.7400
  38   2.0000      -0.646988       -17.6054
  39   2.0000      -0.618384       -16.8271
  40   2.0000      -0.600106       -16.3297
  41   2.0000      -0.574005       -15.6195
  42   2.0000      -0.561064       -15.2673
  43   2.0000      -0.547657       -14.9025
  44   2.0000      -0.532016       -14.4769
  45   2.0000      -0.528250       -14.3744
  46   2.0000      -0.520917       -14.1749
  47   2.0000      -0.514031       -13.9875
  48   2.0000      -0.507336       -13.8053
  49   2.0000      -0.502365       -13.6701
  50   2.0000      -0.497415       -13.5353
  51   2.0000      -0.487390       -13.2626
  52   2.0000      -0.467446       -12.7199
  53   2.0000      -0.465737       -12.6733
  54   2.0000      -0.460902       -12.5418
  55   2.0000      -0.443642       -12.0721
  56   2.0000      -0.438912       -11.9434
  57   2.0000      -0.436404       -11.8751
  58   2.0000      -0.432906       -11.7800
  59   2.0000      -0.426942       -11.6177
  60   2.0000      -0.424690       -11.5564
  61   2.0000      -0.413663       -11.2563
  62   2.0000      -0.405419       -11.0320
  63   2.0000      -0.338443        -9.2095
  64   2.0000      -0.329132        -8.9561
  65   2.0000      -0.321757        -8.7555
  66   2.0000      -0.301986        -8.2175
  67   0.0000       0.039958         1.0873
  68   0.0000       0.058162         1.5827
  69   0.0000       0.117623         3.2007
  70   0.0000       0.131933         3.5901
  71   0.0000       0.137290         3.7359

MULLIKEN ATOMIC CHARGES
-----------------------
   0 S :    0.114860
   1 C :   -0.088507
   2 C :   -0.117436
   3 C :    0.039289
   4 C :   -0.177666
   5 H :    0.017837
   6 C :    0.153914
   7 H :   -0.011945
   8 H :   -0.004347
   9 C :   -0.051770
  10 H :    0.019272
  11 H :    0.028104
  12 C :   -0.069771
  13 H :    0.023185
  14 H :    0.037108
  15 H :    0.034425
  16 S :    0.141228
  17 C :   -0.103017
  18 C :   -0.064032
  19 C :    0.010481
  20 C :   -0.196921
  21 H :    0.031033
  22 C :    0.045569
  23 H :    0.036031
  24 H :    0.035510
  25 C :   -0.098409
  26 H :    0.031732
  27 H :    0.043827
  28 C :   -0.063191
  29 H :    0.026821
  30 H :    0.034675
  31 H :    0.047492
  32 H :    0.031235
  33 H :    0.063383
Sum of atomic charges:   -0.0000000

LOEWDIN ATOMIC CHARGES
----------------------
   0 S :    0.420463
   1 C :   -0.197458
   2 C :   -0.068606
   3 C :   -0.064995
   4 C :   -0.197451
   5 H :    0.034680
   6 C :   -0.018288
   7 H :    0.014323
   8 H :    0.025718
   9 C :   -0.035372
  10 H :    0.016619
  11 H :    0.029111
  12 C :   -0.067895
  13 H :    0.022272
  14 H :    0.025223
  15 H :    0.025301
  16 S :    0.445597
  17 C :   -0.203484
  18 C :   -0.082163
  19 C :   -0.055823
  20 C :   -0.224930
  21 H :    0.039951
  22 C :   -0.035939
  23 H :    0.036566
  24 H :    0.037304
  25 C :   -0.049903
  26 H :    0.031500
  27 H :    0.029989
  28 C :   -0.077767
  29 H :    0.026322
  30 H :    0.032939
  31 H :    0.025027
  32 H :    0.022876
  33 H :    0.038291

  Mayer bond orders larger than 0.100000
B(  0-S ,  1-C ) :   1.1659 B(  0-S ,  4-C ) :   1.1659 B(  1-C ,  2-C ) :   1.5574
B(  1-C ,  4-C ) :   0.1137 B(  1-C , 32-H ) :   0.9789 B(  2-C ,  3-C ) :   1.2867
B(  2-C ,  6-C ) :   1.0250 B(  3-C ,  4-C ) :   1.5426 B(  3-C ,  5-H ) :   0.9924
B(  4-C , 20-C ) :   1.0320 B(  6-C ,  7-H ) :   0.9313 B(  6-C ,  8-H ) :   0.9418
B(  6-C ,  9-C ) :   1.0477 B(  9-C , 10-H ) :   0.9549 B(  9-C , 11-H ) :   0.9603
B(  9-C , 12-C ) :   1.0839 B( 12-C , 13-H ) :   0.9744 B( 12-C , 14-H ) :   0.9757
B( 12-C , 15-H ) :   0.9746 B( 16-S , 17-C ) :   1.1589 B( 16-S , 20-C ) :   1.1739
B( 17-C , 18-C ) :   1.6225 B( 17-C , 33-H ) :   0.9593 B( 18-C , 19-C ) :   1.2526
B( 18-C , 21-H ) :   0.9689 B( 19-C , 20-C ) :   1.5872 B( 19-C , 22-C ) :   1.0307
B( 22-C , 23-H ) :   0.9183 B( 22-C , 24-H ) :   0.9407 B( 22-C , 25-C ) :   1.0974
B( 25-C , 26-H ) :   0.9557 B( 25-C , 27-H ) :   0.9533 B( 25-C , 28-C ) :   1.0636
B( 28-C , 29-H ) :   0.9741 B( 28-C , 30-H ) :   0.9755 B( 28-C , 31-H ) :   0.9738

Dispersion correction           -0.013634365
FINAL SINGLE POINT ENERGY     -1339.869032694566

DIPOLE MOMENT
-------------
                                X             Y             Z
Electronic contribution:     -6.27620       3.73031      18.68490
Nuclear contribution   :      6.41275      -3.97595     -19.15540
                        -----------------------------------------
Total Dipole Moment    :      0.13655      -0.24564      -0.47050
                        -----------------------------------------
Magnitude (a.u.)       :      0.54804
Magnitude (Debye)      :      1.39302

Rotational constants in cm-1:     0.024883     0.006605     0.005923
Rotational constants in MHz :   745.980402   198.012437   177.559704

                             ****ORCA TERMINATED NORMALLY****
TOTAL RUN TIME: 0 days 0 hours 0 minutes 20 seconds 782 msec
