                         Program Version 4.2.1 -  RELEASE  -
|  1> ! wB97X-D3 SP def2-SVP
|  2> %pal
|  3> nprocs 24
|  4> end
|  5>
|  6> * xyz 0 1
|  7> S 	 -105.937 	 -0.52872 	 -115.2
|  8> C 	 -106.418 	 0.477836 	 -116.537
|  9> C 	 -106.664 	 1.75471 	 -116.12
| 10> C 	 -106.501 	 1.88371 	 -114.718
| 11> C 	 -106.195 	 0.75026 	 -114.067
| 12> H 	 -106.544 	 2.7998 	 -114.151
| 13> C 	 -107.153 	 2.88468 	 -117.062
| 14> H 	 -106.358 	 3.02226 	 -117.805
| 15> H 	 -107.207 	 3.86532 	 -116.649
| 16> C 	 -108.594 	 2.54409 	 -117.633
| 17> H 	 -108.464 	 1.51931 	 -118.054
| 18> H 	 -109.355 	 2.35521 	 -116.828
| 19> C 	 -109.141 	 3.50481 	 -118.706
| 20> H 	 -109.164 	 4.53328 	 -118.327
| 21> H 	 -108.53 	 3.6292 	 -119.563
| 22> H 	 -110.197 	 3.2677 	 -118.992
| 23> S 	 -107.305 	 0.422307 	 -111.57
| 24> C 	 -106.358 	 0.724373 	 -110.272
| 25> C 	 -105.075 	 0.396587 	 -110.531
| 26> C 	 -104.77 	 0.308732 	 -111.955
| 27> C 	 -105.966 	 0.607156 	 -112.62
| 28> H 	 -104.376 	 0.415727 	 -109.728
| 29> C 	 -103.41 	 0.19235 	 -112.526
| 30> H 	 -103.159 	 1.12511 	 -113.125
| 31> H 	 -103.269 	 -0.78863 	 -113.068
| 32> C 	 -102.287 	 0.0770206 	 -111.528
| 33> H 	 -102.291 	 -0.71178 	 -110.762
| 34> H 	 -102.252 	 1.00714 	 -110.965
| 35> C 	 -100.962 	 -0.0439768 	 -112.168
| 36> H 	 -100.957 	 -0.830609 	 -112.857
| 37> H 	 -100.234 	 -0.224993 	 -111.367
| 38> H 	 -100.709 	 0.866042 	 -112.738
| 39> H 	 -106.679 	 0.109322 	 -117.488
| 40> H 	 -106.785 	 0.94069 	 -109.334
| 41> *
| 42>
| 43>                          ****END OF INPUT****

CARTESIAN COORDINATES (ANGSTROEM)
---------------------------------
  S    -105.937000   -0.528720  -115.200000
  C    -106.418000    0.477836  -116.537000
  C    -106.664000    1.754710  -116.120000
  C    -106.501000    1.883710  -114.718000
  C    -106.195000    0.750260  -114.067000
  H    -106.544000    2.799800  -114.151000
  C    -107.153000    2.884680  -117.062000
  H    -106.358000    3.022260  -117.805000
  H    -107.207000    3.865320  -116.649000
  C    -108.594000    2.544090  -117.633000
  H    -108.464000    1.519310  -118.054000
  H    -109.355000    2.355210  -116.828000
  C    -109.141000    3.504810  -118.706000
  H    -109.164000    4.533280  -118.327000
  H    -108.530000    3.629200  -119.563000
  H    -110.197000    3.267700  -118.992000
  S    -107.305000    0.422307  -111.570000
  C    -106.358000    0.724373  -110.272000
  C    -105.075000    0.396587  -110.531000
  C    -104.770000    0.308732  -111.955000
  C    -105.966000    0.607156  -112.620000
  H    -104.376000    0.415727  -109.728000
  C    -103.410000    0.192350  -112.526000
  H    -103.159000    1.125110  -113.125000
  H    -103.269000   -0.788630  -113.068000
  C    -102.287000    0.077021  -111.528000
  H    -102.291000   -0.711780  -110.762000
  H    -102.252000    1.007140  -110.965000
  C    -100.962000   -0.043977  -112.168000
  H    -100.957000   -0.830609  -112.857000
  H    -100.234000   -0.224993  -111.367000
  H    -100.709000    0.866042  -112.738000
  H    -106.679000    0.109322  -117.488000
  H    -106.785000    0.940690  -109.334000

 Total Charge           Charge          ....    0
 Multiplicity           Mult            ....    1
 Number of Electrons    NEL             ....  134
 Basis Dimension        Dim             ....  322

ORBITAL ENERGIES
----------------

  NO   OCC          E(Eh)            E(eV)
   0   2.0000     -88.960831     -2420.7473
   1   2.0000     -88.956993     -2420.6428
   2   2.0000     -10.318302      -280.7753
   3   2.0000     -10.317793      -280.7614
   4   2.0000     -10.306726      -280.4603
   5   2.0000     -10.303551      -280.3739
   6   2.0000     -10.298481      -280.2359
   7   2.0000     -10.298405      -280.2338
   8   2.0000     -10.297170      -280.2002
   9   2.0000     -10.296710      -280.1877
  10   2.0000     -10.295530      -280.1556
  11   2.0000     -10.285682      -279.8876
  12   2.0000     -10.284813      -279.8640
  13   2.0000     -10.280163      -279.7375
  14   2.0000     -10.277365      -279.6613
  15   2.0000     -10.269504      -279.4474
  16   2.0000      -8.076236      -219.7656
  17   2.0000      -8.075507      -219.7457
  18   2.0000      -6.034705      -164.2127
  19   2.0000      -6.033615      -164.1830
  20   2.0000      -6.030611      -164.1013
  21   2.0000      -6.029859      -164.0808
  22   2.0000      -6.027036      -164.0040
  23   2.0000      -6.026058      -163.9774
  24   2.0000      -1.019725       -27.7481
  25   2.0000      -0.996761       -27.1232
  26   2.0000      -0.924284       -25.1510
  27   2.0000      -0.902148       -24.5487
  28   2.0000      -0.869886       -23.6708
  29   2.0000      -0.856713       -23.3124
  30   2.0000      -0.845259       -23.0007
  31   2.0000      -0.816754       -22.2250
  32   2.0000      -0.784871       -21.3574
  33   2.0000      -0.772599       -21.0235
  34   2.0000      -0.704666       -19.1749
  35   2.0000      -0.698726       -19.0133
  36   2.0000      -0.693824       -18.8799
  37   2.0000      -0.651164       -17.7191
  38   2.0000      -0.643008       -17.4971
  39   2.0000      -0.618083       -16.8189
  40   2.0000      -0.607303       -16.5255
  41   2.0000      -0.582628       -15.8541
  42   2.0000      -0.571852       -15.5609
  43   2.0000      -0.546694       -14.8763
  44   2.0000      -0.534350       -14.5404
  45   2.0000      -0.526218       -14.3191
  46   2.0000      -0.518792       -14.1170
  47   2.0000      -0.513325       -13.9683
  48   2.0000      -0.507276       -13.8037
  49   2.0000      -0.499629       -13.5956
  50   2.0000      -0.489235       -13.3128
  51   2.0000      -0.478545       -13.0219
  52   2.0000      -0.474778       -12.9194
  53   2.0000      -0.463940       -12.6245
  54   2.0000      -0.462511       -12.5856
  55   2.0000      -0.453139       -12.3305
  56   2.0000      -0.446413       -12.1475
  57   2.0000      -0.438645       -11.9361
  58   2.0000      -0.425746       -11.5851
  59   2.0000      -0.424533       -11.5521
  60   2.0000      -0.423847       -11.5335
  61   2.0000      -0.412629       -11.2282
  62   2.0000      -0.405434       -11.0324
  63   2.0000      -0.333585        -9.0773
  64   2.0000      -0.326010        -8.8712
  65   2.0000      -0.321619        -8.7517
  66   2.0000      -0.305200        -8.3049
  67   0.0000       0.038345         1.0434
  68   0.0000       0.066704         1.8151
  69   0.0000       0.109315         2.9746
  70   0.0000       0.126497         3.4422
  71   0.0000       0.139241         3.7889

MULLIKEN ATOMIC CHARGES
-----------------------
   0 S :    0.115904
   1 C :   -0.122437
   2 C :   -0.070926
   3 C :    0.035407
   4 C :   -0.168621
   5 H :    0.004597
   6 C :    0.083755
   7 H :    0.035128
   8 H :    0.007939
   9 C :   -0.112032
  10 H :    0.023296
  11 H :    0.046590
  12 C :   -0.029052
  13 H :    0.021255
  14 H :    0.023072
  15 H :    0.044817
  16 S :    0.134783
  17 C :   -0.059662
  18 C :   -0.035675
  19 C :   -0.002733
  20 C :   -0.195517
  21 H :    0.003716
  22 C :    0.061671
  23 H :    0.057981
  24 H :    0.042831
  25 C :   -0.138965
  26 H :    0.031596
  27 H :    0.018354
  28 C :    0.007212
  29 H :    0.008251
  30 H :    0.033363
  31 H :    0.023985
  32 H :    0.036161
  33 H :    0.033958
Sum of atomic charges:   -0.0000000

LOEWDIN ATOMIC CHARGES
----------------------
   0 S :    0.414259
   1 C :   -0.189791
   2 C :   -0.062133
   3 C :   -0.061631
   4 C :   -0.206817
   5 H :    0.032202
   6 C :   -0.028599
   7 H :    0.033568
   8 H :    0.021139
   9 C :   -0.044285
  10 H :    0.021457
  11 H :    0.033795
  12 C :   -0.071706
  13 H :    0.024943
  14 H :    0.019646
  15 H :    0.034486
  16 S :    0.462082
  17 C :   -0.209263
  18 C :   -0.071235
  19 C :   -0.052596
  20 C :   -0.212760
  21 H :    0.022816
  22 C :   -0.043218
  23 H :    0.051680
  24 H :    0.041870
  25 C :   -0.055307
  26 H :    0.023987
  27 H :    0.020112
  28 C :   -0.054661
  29 H :    0.012716
  30 H :    0.030769
  31 H :    0.025185
  32 H :    0.017936
  33 H :    0.019353

  Mayer bond orders larger than 0.100000
B(  0-S ,  1-C ) :   1.1479 B(  0-S ,  4-C ) :   1.1465 B(  1-C ,  2-C ) :   1.6086
B(  1-C , 32-H ) :   0.9729 B(  2-C ,  3-C ) :   1.2451 B(  2-C ,  6-C ) :   1.0108
B(  3-C ,  4-C ) :   1.6021 B(  3-C ,  5-H ) :   1.0002 B(  4-C , 20-C ) :   1.0160
B(  6-C ,  7-H ) :   0.9438 B(  6-C ,  8-H ) :   0.9478 B(  6-C ,  9-C ) :   1.0422
B(  9-C , 10-H ) :   0.9608 B(  9-C , 11-H ) :   0.9581 B(  9-C , 12-C ) :   1.0766
B( 12-C , 13-H ) :   0.9723 B( 12-C , 14-H ) :   0.9747 B( 12-C , 15-H ) :   0.9738
B( 16-S , 17-C ) :   1.1811 B( 16-S , 20-C ) :   1.1833 B( 17-C , 18-C ) :   1.5778
B( 17-C , 33-H ) :   0.9761 B( 18-C , 19-C ) :   1.2325 B( 18-C , 21-H ) :   0.9971
B( 19-C , 20-C ) :   1.5607 B( 19-C , 22-C ) :   1.0587 B( 22-C , 23-H ) :   0.9275
B( 22-C , 24-H ) :   0.9182 B( 22-C , 25-C ) :   1.0962 B( 25-C , 26-H ) :   0.9508
B( 25-C , 27-H ) :   0.9401 B( 25-C , 28-C ) :   1.0983 B( 28-C , 29-H ) :   0.9691
B( 28-C , 30-H ) :   0.9703 B( 28-C , 31-H ) :   0.9692

Dispersion correction           -0.013471435
FINAL SINGLE POINT ENERGY     -1339.852807392582

DIPOLE MOMENT
-------------
                                X             Y             Z
Electronic contribution:     -8.85047     -10.32119      10.84566
Nuclear contribution   :      9.05860      10.68166     -10.85928
                        -----------------------------------------
Total Dipole Moment    :      0.20813       0.36047      -0.01362
                        -----------------------------------------
Magnitude (a.u.)       :      0.41647
Magnitude (Debye)      :      1.05857

Rotational constants in cm-1:     0.023010     0.006850     0.005872
Rotational constants in MHz :   689.835245   205.367102   176.037990

                             ****ORCA TERMINATED NORMALLY****
TOTAL RUN TIME: 0 days 0 hours 0 minutes 20 seconds 940 msec
