                         Program Version 4.2.1 -  RELEASE  -
|  1> ! wB97X-D3 SP def2-SVP
|  2> %pal
|  3> nprocs 24
|  4> end
|  5>
|  6> * xyz 0 1
|  7> S 	 14.3334 	 -15.36 	 -115.989
|  8> C 	 12.9615 	 -14.307 	 -116.083
|  9> C 	 11.8161 	 -14.9301 	 -116.453
| 10> C 	 12.0333 	 -16.3051 	 -116.673
| 11> C 	 13.298 	 -16.6916 	 -116.355
| 12> H 	 11.2377 	 -17.117 	 -116.913
| 13> C 	 10.4331 	 -14.2607 	 -116.569
| 14> H 	 10.4031 	 -13.4427 	 -115.789
| 15> H 	 9.58793 	 -14.8461 	 -116.471
| 16> C 	 10.1555 	 -13.631 	 -117.911
| 17> H 	 11.1022 	 -12.9621 	 -118.049
| 18> H 	 10.1995 	 -14.3652 	 -118.746
| 19> C 	 8.85864 	 -12.8373 	 -118.037
| 20> H 	 8.94479 	 -12.1386 	 -118.87
| 21> H 	 7.9352 	 -13.452 	 -117.967
| 22> H 	 8.81712 	 -12.1052 	 -117.244
| 23> S 	 14.664 	 -18.4596 	 -114.886
| 24> C 	 14.6436 	 -20.1513 	 -115.29
| 25> C 	 14.0643 	 -20.3691 	 -116.504
| 26> C 	 13.4857 	 -19.1865 	 -117
| 27> C 	 13.7623 	 -18.0781 	 -116.286
| 28> H 	 14.0611 	 -21.3436 	 -116.963
| 29> C 	 12.7482 	 -19.237 	 -118.265
| 30> H 	 11.8754 	 -18.5426 	 -118.246
| 31> H 	 12.4362 	 -20.2587 	 -118.323
| 32> C 	 13.5994 	 -18.8591 	 -119.496
| 33> H 	 14.6121 	 -19.232 	 -119.436
| 34> H 	 13.6486 	 -17.8069 	 -119.415
| 35> C 	 13.0277 	 -19.1164 	 -120.872
| 36> H 	 12.0221 	 -18.8834 	 -121.035
| 37> H 	 13.1588 	 -20.1149 	 -121.272
| 38> H 	 13.6457 	 -18.5302 	 -121.547
| 39> H 	 12.988 	 -13.3136 	 -115.647
| 40> H 	 15.0357 	 -20.9531 	 -114.692
| 41> *
| 42>
| 43>                          ****END OF INPUT****

CARTESIAN COORDINATES (ANGSTROEM)
---------------------------------
  S     14.333400  -15.360000  -115.989000
  C     12.961500  -14.307000  -116.083000
  C     11.816100  -14.930100  -116.453000
  C     12.033300  -16.305100  -116.673000
  C     13.298000  -16.691600  -116.355000
  H     11.237700  -17.117000  -116.913000
  C     10.433100  -14.260700  -116.569000
  H     10.403100  -13.442700  -115.789000
  H      9.587930  -14.846100  -116.471000
  C     10.155500  -13.631000  -117.911000
  H     11.102200  -12.962100  -118.049000
  H     10.199500  -14.365200  -118.746000
  C      8.858640  -12.837300  -118.037000
  H      8.944790  -12.138600  -118.870000
  H      7.935200  -13.452000  -117.967000
  H      8.817120  -12.105200  -117.244000
  S     14.664000  -18.459600  -114.886000
  C     14.643600  -20.151300  -115.290000
  C     14.064300  -20.369100  -116.504000
  C     13.485700  -19.186500  -117.000000
  C     13.762300  -18.078100  -116.286000
  H     14.061100  -21.343600  -116.963000
  C     12.748200  -19.237000  -118.265000
  H     11.875400  -18.542600  -118.246000
  H     12.436200  -20.258700  -118.323000
  C     13.599400  -18.859100  -119.496000
  H     14.612100  -19.232000  -119.436000
  H     13.648600  -17.806900  -119.415000
  C     13.027700  -19.116400  -120.872000
  H     12.022100  -18.883400  -121.035000
  H     13.158800  -20.114900  -121.272000
  H     13.645700  -18.530200  -121.547000
  H     12.988000  -13.313600  -115.647000
  H     15.035700  -20.953100  -114.692000

 Total Charge           Charge          ....    0
 Multiplicity           Mult            ....    1
 Number of Electrons    NEL             ....  134
 Basis Dimension        Dim             ....  322

ORBITAL ENERGIES
----------------

  NO   OCC          E(Eh)            E(eV)
   0   2.0000     -88.968338     -2420.9515
   1   2.0000     -88.962363     -2420.7890
   2   2.0000     -10.325503      -280.9712
   3   2.0000     -10.315535      -280.7000
   4   2.0000     -10.311903      -280.6011
   5   2.0000     -10.308671      -280.5132
   6   2.0000     -10.300846      -280.3003
   7   2.0000     -10.295145      -280.1451
   8   2.0000     -10.291225      -280.0385
   9   2.0000     -10.290714      -280.0246
  10   2.0000     -10.289545      -279.9928
  11   2.0000     -10.288020      -279.9513
  12   2.0000     -10.283085      -279.8170
  13   2.0000     -10.281529      -279.7746
  14   2.0000     -10.276753      -279.6447
  15   2.0000     -10.268021      -279.4071
  16   2.0000      -8.083959      -219.9757
  17   2.0000      -8.078330      -219.8225
  18   2.0000      -6.042406      -164.4222
  19   2.0000      -6.038476      -164.3153
  20   2.0000      -6.036772      -164.2689
  21   2.0000      -6.034605      -164.2099
  22   2.0000      -6.032648      -164.1567
  23   2.0000      -6.029097      -164.0601
  24   2.0000      -1.020450       -27.7678
  25   2.0000      -0.996984       -27.1293
  26   2.0000      -0.915796       -24.9201
  27   2.0000      -0.912976       -24.8433
  28   2.0000      -0.874551       -23.7978
  29   2.0000      -0.858478       -23.3604
  30   2.0000      -0.850892       -23.1540
  31   2.0000      -0.818321       -22.2677
  32   2.0000      -0.786513       -21.4021
  33   2.0000      -0.775477       -21.1018
  34   2.0000      -0.707912       -19.2633
  35   2.0000      -0.693432       -18.8692
  36   2.0000      -0.690161       -18.7802
  37   2.0000      -0.673283       -18.3210
  38   2.0000      -0.641749       -17.4629
  39   2.0000      -0.620149       -16.8751
  40   2.0000      -0.596750       -16.2384
  41   2.0000      -0.582004       -15.8371
  42   2.0000      -0.565187       -15.3795
  43   2.0000      -0.555313       -15.1108
  44   2.0000      -0.530729       -14.4419
  45   2.0000      -0.523233       -14.2379
  46   2.0000      -0.517163       -14.0727
  47   2.0000      -0.515771       -14.0349
  48   2.0000      -0.508471       -13.8362
  49   2.0000      -0.497304       -13.5323
  50   2.0000      -0.496138       -13.5006
  51   2.0000      -0.484938       -13.1958
  52   2.0000      -0.478982       -13.0338
  53   2.0000      -0.465917       -12.6783
  54   2.0000      -0.460320       -12.5259
  55   2.0000      -0.454132       -12.3576
  56   2.0000      -0.448808       -12.2127
  57   2.0000      -0.432529       -11.7697
  58   2.0000      -0.429868       -11.6973
  59   2.0000      -0.425676       -11.5832
  60   2.0000      -0.421288       -11.4638
  61   2.0000      -0.412373       -11.2212
  62   2.0000      -0.407314       -11.0836
  63   2.0000      -0.354240        -9.6394
  64   2.0000      -0.337045        -9.1715
  65   2.0000      -0.329352        -8.9621
  66   2.0000      -0.290492        -7.9047
  67   0.0000       0.033917         0.9229
  68   0.0000       0.076690         2.0868
  69   0.0000       0.113440         3.0869
  70   0.0000       0.123732         3.3669
  71   0.0000       0.134857         3.6696

MULLIKEN ATOMIC CHARGES
-----------------------
   0 S :    0.120393
   1 C :   -0.132172
   2 C :   -0.055201
   3 C :   -0.030230
   4 C :   -0.136996
   5 H :    0.054743
   6 C :    0.097861
   7 H :    0.027514
   8 H :   -0.001536
   9 C :   -0.141768
  10 H :    0.029621
  11 H :    0.033105
  12 C :   -0.011764
  13 H :    0.035754
  14 H :    0.048035
  15 H :    0.008426
  16 S :    0.104323
  17 C :   -0.083004
  18 C :   -0.032940
  19 C :   -0.074171
  20 C :   -0.123487
  21 H :    0.016421
  22 C :    0.091297
  23 H :    0.014354
  24 H :    0.003687
  25 C :   -0.056577
  26 H :    0.025453
  27 H :    0.020719
  28 C :   -0.007567
  29 H :    0.015855
  30 H :    0.019566
  31 H :    0.022976
  32 H :    0.049767
  33 H :    0.047542
Sum of atomic charges:    0.0000000

LOEWDIN ATOMIC CHARGES
----------------------
   0 S :    0.418172
   1 C :   -0.204264
   2 C :   -0.058401
   3 C :   -0.079328
   4 C :   -0.195819
   5 H :    0.048864
   6 C :   -0.028031
   7 H :    0.035220
   8 H :    0.015908
   9 C :   -0.051520
  10 H :    0.028572
  11 H :    0.022896
  12 C :   -0.071436
  13 H :    0.034031
  14 H :    0.031328
  15 H :    0.021610
  16 S :    0.424246
  17 C :   -0.181346
  18 C :   -0.067119
  19 C :   -0.066157
  20 C :   -0.210208
  21 H :    0.033487
  22 C :   -0.029955
  23 H :    0.029806
  24 H :    0.022419
  25 C :   -0.033359
  26 H :    0.025082
  27 H :    0.023026
  28 C :   -0.061396
  29 H :    0.016400
  30 H :    0.021852
  31 H :    0.030712
  32 H :    0.027622
  33 H :    0.027083

  Mayer bond orders larger than 0.100000
B(  0-S ,  1-C ) :   1.1264 B(  0-S ,  4-C ) :   1.1595 B(  1-C ,  2-C ) :   1.6392
B(  1-C , 32-H ) :   0.9600 B(  2-C ,  3-C ) :   1.2443 B(  2-C ,  6-C ) :   1.0200
B(  3-C ,  4-C ) :   1.6038 B(  3-C ,  5-H ) :   0.9697 B(  4-C , 20-C ) :   1.0077
B(  6-C ,  7-H ) :   0.9399 B(  6-C ,  8-H ) :   0.9429 B(  6-C ,  9-C ) :   1.0551
B(  9-C , 10-H ) :   0.9556 B(  9-C , 11-H ) :   0.9547 B(  9-C , 12-C ) :   1.0820
B( 12-C , 13-H ) :   0.9697 B( 12-C , 14-H ) :   0.9717 B( 12-C , 15-H ) :   0.9678
B( 16-S , 17-C ) :   1.1645 B( 16-S , 20-C ) :   1.1355 B( 17-C , 18-C ) :   1.6049
B( 17-C , 33-H ) :   0.9682 B( 18-C , 19-C ) :   1.2417 B( 18-C , 21-H ) :   0.9942
B( 19-C , 20-C ) :   1.6139 B( 19-C , 22-C ) :   1.0681 B( 22-C , 23-H ) :   0.9232
B( 22-C , 24-H ) :   0.9230 B( 22-C , 25-C ) :   1.0661 B( 25-C , 26-H ) :   0.9551
B( 25-C , 27-H ) :   0.9537 B( 25-C , 28-C ) :   1.0917 B( 28-C , 29-H ) :   0.9719
B( 28-C , 30-H ) :   0.9740 B( 28-C , 31-H ) :   0.9704

Dispersion correction           -0.013778875
FINAL SINGLE POINT ENERGY     -1339.869614551244

DIPOLE MOMENT
-------------
                                X             Y             Z
Electronic contribution:     19.75048      -5.43456      21.44819
Nuclear contribution   :    -20.20451       5.31203     -21.71374
                        -----------------------------------------
Total Dipole Moment    :     -0.45403      -0.12253      -0.26555
                        -----------------------------------------
Magnitude (a.u.)       :      0.54007
Magnitude (Debye)      :      1.37274

Rotational constants in cm-1:     0.018594     0.008432     0.006516
Rotational constants in MHz :   557.436589   252.782451   195.335655

                             ****ORCA TERMINATED NORMALLY****
TOTAL RUN TIME: 0 days 0 hours 0 minutes 21 seconds 613 msec
