                         Program Version 4.2.1 -  RELEASE  -
|  1> ! wB97X-D3 SP def2-SVP
|  2> %pal
|  3> nprocs 24
|  4> end
|  5>
|  6> * xyz 0 1
|  7> S 	 -102.259 	 24.0494 	 -112.597
|  8> C 	 -102.469 	 22.6368 	 -113.589
|  9> C 	 -103.806 	 22.2984 	 -113.752
| 10> C 	 -104.65 	 23.1923 	 -113.028
| 11> C 	 -103.962 	 24.2729 	 -112.49
| 12> H 	 -105.737 	 23.2122 	 -112.935
| 13> C 	 -104.224 	 21.0085 	 -114.536
| 14> H 	 -104.035 	 21.1816 	 -115.573
| 15> H 	 -105.295 	 20.8096 	 -114.443
| 16> C 	 -103.589 	 19.6884 	 -114.06
| 17> H 	 -103.982 	 18.8755 	 -114.565
| 18> H 	 -102.54 	 19.8095 	 -114.21
| 19> C 	 -103.809 	 19.4005 	 -112.561
| 20> H 	 -103.565 	 18.334 	 -112.32
| 21> H 	 -103.236 	 20.1409 	 -111.936
| 22> H 	 -104.861 	 19.5541 	 -112.27
| 23> S 	 -103.738 	 26.082 	 -110.354
| 24> C 	 -104.879 	 27.3047 	 -110.045
| 25> C 	 -105.944 	 27.1331 	 -110.911
| 26> C 	 -105.788 	 26.1277 	 -111.922
| 27> C 	 -104.584 	 25.3995 	 -111.799
| 28> H 	 -106.785 	 27.7828 	 -110.878
| 29> C 	 -106.871 	 25.7124 	 -112.902
| 30> H 	 -106.41 	 25.086 	 -113.677
| 31> H 	 -107.194 	 26.6074 	 -113.468
| 32> C 	 -108.16 	 25.1907 	 -112.274
| 33> H 	 -108.703 	 26.032 	 -111.793
| 34> H 	 -107.99 	 24.4559 	 -111.527
| 35> C 	 -109.063 	 24.513 	 -113.299
| 36> H 	 -108.796 	 24.815 	 -114.289
| 37> H 	 -110.076 	 24.6571 	 -113.192
| 38> H 	 -108.867 	 23.4401 	 -113.281
| 39> H 	 -101.649 	 22.0332 	 -113.84
| 40> H 	 -104.753 	 28.0188 	 -109.242
| 41> *
| 42>
| 43>                          ****END OF INPUT****

CARTESIAN COORDINATES (ANGSTROEM)
---------------------------------
  S    -102.259000   24.049400  -112.597000
  C    -102.469000   22.636800  -113.589000
  C    -103.806000   22.298400  -113.752000
  C    -104.650000   23.192300  -113.028000
  C    -103.962000   24.272900  -112.490000
  H    -105.737000   23.212200  -112.935000
  C    -104.224000   21.008500  -114.536000
  H    -104.035000   21.181600  -115.573000
  H    -105.295000   20.809600  -114.443000
  C    -103.589000   19.688400  -114.060000
  H    -103.982000   18.875500  -114.565000
  H    -102.540000   19.809500  -114.210000
  C    -103.809000   19.400500  -112.561000
  H    -103.565000   18.334000  -112.320000
  H    -103.236000   20.140900  -111.936000
  H    -104.861000   19.554100  -112.270000
  S    -103.738000   26.082000  -110.354000
  C    -104.879000   27.304700  -110.045000
  C    -105.944000   27.133100  -110.911000
  C    -105.788000   26.127700  -111.922000
  C    -104.584000   25.399500  -111.799000
  H    -106.785000   27.782800  -110.878000
  C    -106.871000   25.712400  -112.902000
  H    -106.410000   25.086000  -113.677000
  H    -107.194000   26.607400  -113.468000
  C    -108.160000   25.190700  -112.274000
  H    -108.703000   26.032000  -111.793000
  H    -107.990000   24.455900  -111.527000
  C    -109.063000   24.513000  -113.299000
  H    -108.796000   24.815000  -114.289000
  H    -110.076000   24.657100  -113.192000
  H    -108.867000   23.440100  -113.281000
  H    -101.649000   22.033200  -113.840000
  H    -104.753000   28.018800  -109.242000

 Total Charge           Charge          ....    0
 Multiplicity           Mult            ....    1
 Number of Electrons    NEL             ....  134
 Basis Dimension        Dim             ....  322

ORBITAL ENERGIES
----------------

  NO   OCC          E(Eh)            E(eV)
   0   2.0000     -88.969675     -2420.9879
   1   2.0000     -88.959877     -2420.7213
   2   2.0000     -10.333332      -281.1843
   3   2.0000     -10.330868      -281.1172
   4   2.0000     -10.318750      -280.7875
   5   2.0000     -10.311768      -280.5975
   6   2.0000     -10.309080      -280.5243
   7   2.0000     -10.307539      -280.4824
   8   2.0000     -10.297889      -280.2198
   9   2.0000     -10.294910      -280.1387
  10   2.0000     -10.293568      -280.1022
  11   2.0000     -10.293001      -280.0868
  12   2.0000     -10.285564      -279.8844
  13   2.0000     -10.281642      -279.7777
  14   2.0000     -10.280546      -279.7479
  15   2.0000     -10.269371      -279.4438
  16   2.0000      -8.085000      -220.0040
  17   2.0000      -8.075059      -219.7335
  18   2.0000      -6.043341      -164.4477
  19   2.0000      -6.039434      -164.3414
  20   2.0000      -6.035882      -164.2447
  21   2.0000      -6.033513      -164.1802
  22   2.0000      -6.029332      -164.0665
  23   2.0000      -6.026014      -163.9762
  24   2.0000      -1.008546       -27.4439
  25   2.0000      -0.985837       -26.8260
  26   2.0000      -0.913627       -24.8611
  27   2.0000      -0.911573       -24.8052
  28   2.0000      -0.870169       -23.6785
  29   2.0000      -0.854305       -23.2468
  30   2.0000      -0.845575       -23.0093
  31   2.0000      -0.811233       -22.0748
  32   2.0000      -0.784279       -21.3413
  33   2.0000      -0.774954       -21.0876
  34   2.0000      -0.707621       -19.2553
  35   2.0000      -0.703596       -19.1458
  36   2.0000      -0.697073       -18.9683
  37   2.0000      -0.661978       -18.0133
  38   2.0000      -0.644215       -17.5300
  39   2.0000      -0.613952       -16.7065
  40   2.0000      -0.598641       -16.2898
  41   2.0000      -0.581639       -15.8272
  42   2.0000      -0.569186       -15.4883
  43   2.0000      -0.551445       -15.0056
  44   2.0000      -0.546836       -14.8802
  45   2.0000      -0.533749       -14.5241
  46   2.0000      -0.516111       -14.0441
  47   2.0000      -0.514301       -13.9948
  48   2.0000      -0.505627       -13.7588
  49   2.0000      -0.501041       -13.6340
  50   2.0000      -0.488446       -13.2913
  51   2.0000      -0.476812       -12.9747
  52   2.0000      -0.475380       -12.9358
  53   2.0000      -0.468336       -12.7441
  54   2.0000      -0.456839       -12.4312
  55   2.0000      -0.450320       -12.2538
  56   2.0000      -0.446733       -12.1562
  57   2.0000      -0.441617       -12.0170
  58   2.0000      -0.437591       -11.9075
  59   2.0000      -0.424065       -11.5394
  60   2.0000      -0.419227       -11.4077
  61   2.0000      -0.416567       -11.3354
  62   2.0000      -0.407948       -11.1008
  63   2.0000      -0.354767        -9.6537
  64   2.0000      -0.336150        -9.1471
  65   2.0000      -0.326939        -8.8965
  66   2.0000      -0.286816        -7.8047
  67   0.0000       0.020825         0.5667
  68   0.0000       0.079454         2.1621
  69   0.0000       0.108143         2.9427
  70   0.0000       0.122148         3.3238
  71   0.0000       0.131239         3.5712

MULLIKEN ATOMIC CHARGES
-----------------------
   0 S :    0.127958
   1 C :   -0.115273
   2 C :   -0.079366
   3 C :    0.005193
   4 C :   -0.140152
   5 H :    0.015886
   6 C :    0.073107
   7 H :    0.039587
   8 H :    0.017750
   9 C :   -0.040769
  10 H :    0.020761
  11 H :    0.021213
  12 C :   -0.089899
  13 H :    0.044650
  14 H :    0.049718
  15 H :    0.023813
  16 S :    0.075686
  17 C :   -0.080095
  18 C :   -0.027377
  19 C :   -0.033293
  20 C :   -0.146475
  21 H :    0.005659
  22 C :    0.020336
  23 H :    0.033384
  24 H :    0.026415
  25 C :   -0.063510
  26 H :    0.033642
  27 H :    0.025409
  28 C :   -0.009242
  29 H :    0.014234
  30 H :    0.020045
  31 H :    0.027470
  32 H :    0.035784
  33 H :    0.067753
Sum of atomic charges:   -0.0000000

LOEWDIN ATOMIC CHARGES
----------------------
   0 S :    0.431462
   1 C :   -0.193780
   2 C :   -0.056780
   3 C :   -0.065947
   4 C :   -0.203743
   5 H :    0.033057
   6 C :   -0.025517
   7 H :    0.030533
   8 H :    0.027191
   9 C :   -0.032743
  10 H :    0.016934
  11 H :    0.016884
  12 C :   -0.071401
  13 H :    0.030379
  14 H :    0.031759
  15 H :    0.021788
  16 S :    0.394081
  17 C :   -0.191365
  18 C :   -0.075631
  19 C :   -0.054286
  20 C :   -0.179922
  21 H :    0.023606
  22 C :   -0.039968
  23 H :    0.029910
  24 H :    0.034894
  25 C :   -0.037538
  26 H :    0.028066
  27 H :    0.018328
  28 C :   -0.055537
  29 H :    0.021101
  30 H :    0.016058
  31 H :    0.028176
  32 H :    0.015708
  33 H :    0.034241

  Mayer bond orders larger than 0.100000
B(  0-S ,  1-C ) :   1.1522 B(  0-S ,  4-C ) :   1.1685 B(  1-C ,  2-C ) :   1.5766
B(  1-C , 32-H ) :   0.9784 B(  2-C ,  3-C ) :   1.2634 B(  2-C ,  6-C ) :   1.0019
B(  3-C ,  4-C ) :   1.5346 B(  3-C ,  5-H ) :   0.9931 B(  4-C , 20-C ) :   1.0669
B(  6-C ,  7-H ) :   0.9420 B(  6-C ,  8-H ) :   0.9480 B(  6-C ,  9-C ) :   1.0791
B(  9-C , 10-H ) :   0.9566 B(  9-C , 11-H ) :   0.9561 B(  9-C , 12-C ) :   1.0737
B( 12-C , 13-H ) :   0.9756 B( 12-C , 14-H ) :   0.9719 B( 12-C , 15-H ) :   0.9771
B( 16-S , 17-C ) :   1.1769 B( 16-S , 20-C ) :   1.1343 B( 17-C , 18-C ) :   1.5583
B( 17-C , 20-C ) :   0.1020 B( 17-C , 33-H ) :   0.9728 B( 18-C , 19-C ) :   1.2649
B( 18-C , 21-H ) :   0.9974 B( 19-C , 20-C ) :   1.5596 B( 19-C , 22-C ) :   1.0561
B( 22-C , 23-H ) :   0.9431 B( 22-C , 24-H ) :   0.9167 B( 22-C , 25-C ) :   1.0599
B( 25-C , 26-H ) :   0.9520 B( 25-C , 27-H ) :   0.9660 B( 25-C , 28-C ) :   1.0749
B( 28-C , 29-H ) :   0.9739 B( 28-C , 30-H ) :   0.9741 B( 28-C , 31-H ) :   0.9775

Dispersion correction           -0.014305019
FINAL SINGLE POINT ENERGY     -1339.881381796084

DIPOLE MOMENT
-------------
                                X             Y             Z
Electronic contribution:     19.31323      17.58711       9.84144
Nuclear contribution   :    -19.88801     -17.87353     -10.06965
                        -----------------------------------------
Total Dipole Moment    :     -0.57477      -0.28641      -0.22821
                        -----------------------------------------
Magnitude (a.u.)       :      0.68152
Magnitude (Debye)      :      1.73230

Rotational constants in cm-1:     0.018185     0.008954     0.006588
Rotational constants in MHz :   545.159056   268.440459   197.490538

                             ****ORCA TERMINATED NORMALLY****
TOTAL RUN TIME: 0 days 0 hours 0 minutes 21 seconds 586 msec
