                         Program Version 4.2.1 -  RELEASE  -
|  1> ! wB97X-D3 SP def2-SVP
|  2> %pal
|  3> nprocs 24
|  4> end
|  5>
|  6> * xyz 0 1
|  7> S 	 -58.0692 	 8.32517 	 -93.1965
|  8> C 	 -57.946 	 10.0256 	 -93.0951
|  9> C 	 -59.1478 	 10.6769 	 -93.3837
| 10> C 	 -60.1849 	 9.72222 	 -93.7558
| 11> C 	 -59.7569 	 8.44575 	 -93.6725
| 12> H 	 -61.1559 	 9.92789 	 -94.154
| 13> C 	 -59.3453 	 12.1231 	 -93.4231
| 14> H 	 -59.7537 	 12.2895 	 -94.4315
| 15> H 	 -58.4019 	 12.7268 	 -93.4724
| 16> C 	 -60.331 	 12.6926 	 -92.4364
| 17> H 	 -61.3104 	 12.1882 	 -92.7365
| 18> H 	 -60.0035 	 12.4656 	 -91.407
| 19> C 	 -60.5156 	 14.1756 	 -92.3085
| 20> H 	 -61.4484 	 14.5899 	 -91.9748
| 21> H 	 -59.7614 	 14.7796 	 -91.7155
| 22> H 	 -60.5119 	 14.4567 	 -93.3215
| 23> S 	 -60.0564 	 6.37341 	 -95.4413
| 24> C 	 -61.3901 	 5.327 	 -95.2356
| 25> C 	 -62.3695 	 5.86629 	 -94.4706
| 26> C 	 -61.8928 	 6.95637 	 -93.6281
| 27> C 	 -60.5492 	 7.28912 	 -94.031
| 28> H 	 -63.2731 	 5.33596 	 -94.4172
| 29> C 	 -62.7722 	 7.74397 	 -92.6678
| 30> H 	 -62.9631 	 8.70225 	 -93.0992
| 31> H 	 -62.2087 	 7.83658 	 -91.726
| 32> C 	 -64.0596 	 7.05734 	 -92.2174
| 33> H 	 -63.9169 	 6.0321 	 -91.9221
| 34> H 	 -64.6284 	 7.11516 	 -93.1373
| 35> C 	 -64.7566 	 7.85454 	 -91.0691
| 36> H 	 -64.2509 	 7.56356 	 -90.1034
| 37> H 	 -65.8529 	 7.55511 	 -91.075
| 38> H 	 -64.6617 	 8.9513 	 -91.1575
| 39> H 	 -57.1462 	 10.5804 	 -92.7108
| 40> H 	 -61.5767 	 4.41046 	 -95.8359
| 41> *
| 42>
| 43>                          ****END OF INPUT****

CARTESIAN COORDINATES (ANGSTROEM)
---------------------------------
  S    -58.069200    8.325170  -93.196500
  C    -57.946000   10.025600  -93.095100
  C    -59.147800   10.676900  -93.383700
  C    -60.184900    9.722220  -93.755800
  C    -59.756900    8.445750  -93.672500
  H    -61.155900    9.927890  -94.154000
  C    -59.345300   12.123100  -93.423100
  H    -59.753700   12.289500  -94.431500
  H    -58.401900   12.726800  -93.472400
  C    -60.331000   12.692600  -92.436400
  H    -61.310400   12.188200  -92.736500
  H    -60.003500   12.465600  -91.407000
  C    -60.515600   14.175600  -92.308500
  H    -61.448400   14.589900  -91.974800
  H    -59.761400   14.779600  -91.715500
  H    -60.511900   14.456700  -93.321500
  S    -60.056400    6.373410  -95.441300
  C    -61.390100    5.327000  -95.235600
  C    -62.369500    5.866290  -94.470600
  C    -61.892800    6.956370  -93.628100
  C    -60.549200    7.289120  -94.031000
  H    -63.273100    5.335960  -94.417200
  C    -62.772200    7.743970  -92.667800
  H    -62.963100    8.702250  -93.099200
  H    -62.208700    7.836580  -91.726000
  C    -64.059600    7.057340  -92.217400
  H    -63.916900    6.032100  -91.922100
  H    -64.628400    7.115160  -93.137300
  C    -64.756600    7.854540  -91.069100
  H    -64.250900    7.563560  -90.103400
  H    -65.852900    7.555110  -91.075000
  H    -64.661700    8.951300  -91.157500
  H    -57.146200   10.580400  -92.710800
  H    -61.576700    4.410460  -95.835900

 Total Charge           Charge          ....    0
 Multiplicity           Mult            ....    1
 Number of Electrons    NEL             ....  134
 Basis Dimension        Dim             ....  322

ORBITAL ENERGIES
----------------

  NO   OCC          E(Eh)            E(eV)
   0   2.0000     -88.964748     -2420.8539
   1   2.0000     -88.963595     -2420.8225
   2   2.0000     -10.324269      -280.9376
   3   2.0000     -10.321927      -280.8739
   4   2.0000     -10.310769      -280.5703
   5   2.0000     -10.310750      -280.5698
   6   2.0000     -10.307569      -280.4832
   7   2.0000     -10.300702      -280.2964
   8   2.0000     -10.291751      -280.0528
   9   2.0000     -10.291672      -280.0506
  10   2.0000     -10.291337      -280.0415
  11   2.0000     -10.290513      -280.0191
  12   2.0000     -10.290405      -280.0161
  13   2.0000     -10.287225      -279.9296
  14   2.0000     -10.286051      -279.8977
  15   2.0000     -10.275387      -279.6075
  16   2.0000      -8.080142      -219.8719
  17   2.0000      -8.079159      -219.8451
  18   2.0000      -6.038611      -164.3190
  19   2.0000      -6.037483      -164.2883
  20   2.0000      -6.034603      -164.2099
  21   2.0000      -6.033761      -164.1870
  22   2.0000      -6.030869      -164.1083
  23   2.0000      -6.029859      -164.0808
  24   2.0000      -1.007943       -27.4275
  25   2.0000      -0.985747       -26.8235
  26   2.0000      -0.920324       -25.0433
  27   2.0000      -0.911418       -24.8009
  28   2.0000      -0.873925       -23.7807
  29   2.0000      -0.855989       -23.2926
  30   2.0000      -0.844800       -22.9882
  31   2.0000      -0.817575       -22.2473
  32   2.0000      -0.783547       -21.3214
  33   2.0000      -0.768064       -20.9001
  34   2.0000      -0.706892       -19.2355
  35   2.0000      -0.696491       -18.9525
  36   2.0000      -0.693115       -18.8606
  37   2.0000      -0.650382       -17.6978
  38   2.0000      -0.640558       -17.4305
  39   2.0000      -0.622723       -16.9452
  40   2.0000      -0.596524       -16.2322
  41   2.0000      -0.579377       -15.7657
  42   2.0000      -0.575583       -15.6624
  43   2.0000      -0.561840       -15.2885
  44   2.0000      -0.527263       -14.3476
  45   2.0000      -0.522812       -14.2264
  46   2.0000      -0.521762       -14.1979
  47   2.0000      -0.508761       -13.8441
  48   2.0000      -0.506638       -13.7863
  49   2.0000      -0.495705       -13.4888
  50   2.0000      -0.493668       -13.4334
  51   2.0000      -0.484391       -13.1809
  52   2.0000      -0.477388       -12.9904
  53   2.0000      -0.467156       -12.7120
  54   2.0000      -0.461553       -12.5595
  55   2.0000      -0.450301       -12.2533
  56   2.0000      -0.448137       -12.1944
  57   2.0000      -0.442878       -12.0513
  58   2.0000      -0.435366       -11.8469
  59   2.0000      -0.422873       -11.5070
  60   2.0000      -0.411399       -11.1947
  61   2.0000      -0.408823       -11.1246
  62   2.0000      -0.403278       -10.9737
  63   2.0000      -0.345711        -9.4073
  64   2.0000      -0.326726        -8.8907
  65   2.0000      -0.323429        -8.8009
  66   2.0000      -0.293631        -7.9901
  67   0.0000       0.031699         0.8626
  68   0.0000       0.072967         1.9855
  69   0.0000       0.108737         2.9589
  70   0.0000       0.122382         3.3302
  71   0.0000       0.125695         3.4203

MULLIKEN ATOMIC CHARGES
-----------------------
   0 S :    0.123971
   1 C :   -0.085336
   2 C :   -0.082461
   3 C :    0.035217
   4 C :   -0.169010
   5 H :    0.009286
   6 C :    0.055927
   7 H :    0.025053
   8 H :    0.021214
   9 C :   -0.091656
  10 H :    0.036938
  11 H :    0.031089
  12 C :   -0.028445
  13 H :    0.026630
  14 H :    0.042316
  15 H :    0.001361
  16 S :    0.119822
  17 C :   -0.094500
  18 C :   -0.039593
  19 C :   -0.047870
  20 C :   -0.155880
  21 H :    0.006448
  22 C :    0.064400
  23 H :    0.033464
  24 H :    0.034752
  25 C :   -0.096026
  26 H :    0.039249
  27 H :    0.028154
  28 C :   -0.071740
  29 H :    0.046774
  30 H :    0.050891
  31 H :    0.039937
  32 H :    0.025234
  33 H :    0.064391
Sum of atomic charges:   -0.0000000

LOEWDIN ATOMIC CHARGES
----------------------
   0 S :    0.417264
   1 C :   -0.200955
   2 C :   -0.057220
   3 C :   -0.051189
   4 C :   -0.198528
   5 H :    0.028851
   6 C :   -0.046518
   7 H :    0.035132
   8 H :    0.032273
   9 C :   -0.048361
  10 H :    0.033040
  11 H :    0.026331
  12 C :   -0.073753
  13 H :    0.027119
  14 H :    0.033317
  15 H :    0.016719
  16 S :    0.421959
  17 C :   -0.200588
  18 C :   -0.075859
  19 C :   -0.044545
  20 C :   -0.207003
  21 H :    0.022738
  22 C :   -0.034489
  23 H :    0.026915
  24 H :    0.037360
  25 C :   -0.042519
  26 H :    0.024243
  27 H :    0.020243
  28 C :   -0.070929
  29 H :    0.032229
  30 H :    0.035558
  31 H :    0.026066
  32 H :    0.018815
  33 H :    0.036286

  Mayer bond orders larger than 0.100000
B(  0-S ,  1-C ) :   1.1372 B(  0-S ,  4-C ) :   1.1412 B(  1-C ,  2-C ) :   1.6258
B(  1-C , 32-H ) :   0.9707 B(  2-C ,  3-C ) :   1.1997 B(  2-C ,  6-C ) :   1.0483
B(  3-C ,  4-C ) :   1.6122 B(  3-C ,  5-H ) :   0.9917 B(  4-C , 20-C ) :   1.0360
B(  6-C ,  7-H ) :   0.9220 B(  6-C ,  8-H ) :   0.9390 B(  6-C ,  9-C ) :   1.0599
B(  9-C , 10-H ) :   0.9502 B(  9-C , 11-H ) :   0.9609 B(  9-C , 12-C ) :   1.0766
B( 12-C , 13-H ) :   0.9715 B( 12-C , 14-H ) :   0.9747 B( 12-C , 15-H ) :   0.9684
B( 16-S , 17-C ) :   1.1604 B( 16-S , 20-C ) :   1.1636 B( 17-C , 18-C ) :   1.6217
B( 17-C , 33-H ) :   0.9587 B( 18-C , 19-C ) :   1.2344 B( 18-C , 21-H ) :   0.9898
B( 19-C , 20-C ) :   1.5671 B( 19-C , 22-C ) :   1.0379 B( 22-C , 23-H ) :   0.9302
B( 22-C , 24-H ) :   0.9312 B( 22-C , 25-C ) :   1.0771 B( 25-C , 26-H ) :   0.9607
B( 25-C , 27-H ) :   0.9483 B( 25-C , 28-C ) :   1.0735 B( 28-C , 29-H ) :   0.9752
B( 28-C , 30-H ) :   0.9742 B( 28-C , 31-H ) :   0.9751

Dispersion correction           -0.013539401
FINAL SINGLE POINT ENERGY     -1339.855912254059

DIPOLE MOMENT
-------------
                                X             Y             Z
Electronic contribution:     19.94360     -20.30313     -13.29336
Nuclear contribution   :    -20.54335      20.74184      13.37643
                        -----------------------------------------
Total Dipole Moment    :     -0.59975       0.43871       0.08308
                        -----------------------------------------
Magnitude (a.u.)       :      0.74771
Magnitude (Debye)      :      1.90052

Rotational constants in cm-1:     0.015894     0.008925     0.006303
Rotational constants in MHz :   476.498236   267.551039   188.965846

                             ****ORCA TERMINATED NORMALLY****
TOTAL RUN TIME: 0 days 0 hours 0 minutes 21 seconds 240 msec
