                         Program Version 4.2.1 -  RELEASE  -
|  1> ! wB97X-D3 SP def2-SVP
|  2> %pal
|  3> nprocs 24
|  4> end
|  5>
|  6> * xyz 0 1
|  7> S 	 -34.22 	 -5.07414 	 7.46523
|  8> C 	 -33.6974 	 -3.71304 	 8.4243
|  9> C 	 -33.9797 	 -3.87638 	 9.74268
| 10> C 	 -34.5976 	 -5.16104 	 9.98701
| 11> C 	 -34.7989 	 -5.97042 	 8.90633
| 12> H 	 -34.8669 	 -5.59644 	 11.0163
| 13> C 	 -33.6293 	 -2.84015 	 10.8405
| 14> H 	 -34.5069 	 -2.90801 	 11.502
| 15> H 	 -33.5738 	 -1.89445 	 10.2886
| 16> C 	 -32.3101 	 -3.00372 	 11.6243
| 17> H 	 -32.2804 	 -3.95329 	 12.075
| 18> H 	 -31.4891 	 -2.95907 	 10.8526
| 19> C 	 -32.2494 	 -1.84849 	 12.5861
| 20> H 	 -32.0999 	 -0.865409 	 12.1947
| 21> H 	 -33.0408 	 -1.69746 	 13.3624
| 22> H 	 -31.3771 	 -1.97546 	 13.1284
| 23> S 	 -34.4748 	 -8.58576 	 9.31544
| 24> C 	 -35.7299 	 -9.75845 	 9.02843
| 25> C 	 -36.8889 	 -9.1562 	 8.58159
| 26> C 	 -36.6989 	 -7.71031 	 8.44004
| 27> C 	 -35.4756 	 -7.23448 	 8.85864
| 28> H 	 -37.7859 	 -9.75785 	 8.30466
| 29> C 	 -37.8379 	 -6.85412 	 7.85715
| 30> H 	 -37.924 	 -7.16647 	 6.79477
| 31> H 	 -37.4796 	 -5.92161 	 7.96108
| 32> C 	 -39.1885 	 -6.99996 	 8.50324
| 33> H 	 -39.1476 	 -6.93268 	 9.60121
| 34> H 	 -39.6708 	 -7.87907 	 8.31238
| 35> C 	 -40.149 	 -5.91832 	 8.00829
| 36> H 	 -41.1904 	 -5.89805 	 8.46211
| 37> H 	 -40.239 	 -5.93245 	 6.93988
| 38> H 	 -39.7923 	 -4.85655 	 8.10886
| 39> H 	 -33.1785 	 -2.86501 	 7.9923
| 40> H 	 -35.5735 	 -10.8088 	 9.08984
| 41> *
| 42>
| 43>                          ****END OF INPUT****

CARTESIAN COORDINATES (ANGSTROEM)
---------------------------------
  S    -34.220000   -5.074140    7.465230
  C    -33.697400   -3.713040    8.424300
  C    -33.979700   -3.876380    9.742680
  C    -34.597600   -5.161040    9.987010
  C    -34.798900   -5.970420    8.906330
  H    -34.866900   -5.596440   11.016300
  C    -33.629300   -2.840150   10.840500
  H    -34.506900   -2.908010   11.502000
  H    -33.573800   -1.894450   10.288600
  C    -32.310100   -3.003720   11.624300
  H    -32.280400   -3.953290   12.075000
  H    -31.489100   -2.959070   10.852600
  C    -32.249400   -1.848490   12.586100
  H    -32.099900   -0.865409   12.194700
  H    -33.040800   -1.697460   13.362400
  H    -31.377100   -1.975460   13.128400
  S    -34.474800   -8.585760    9.315440
  C    -35.729900   -9.758450    9.028430
  C    -36.888900   -9.156200    8.581590
  C    -36.698900   -7.710310    8.440040
  C    -35.475600   -7.234480    8.858640
  H    -37.785900   -9.757850    8.304660
  C    -37.837900   -6.854120    7.857150
  H    -37.924000   -7.166470    6.794770
  H    -37.479600   -5.921610    7.961080
  C    -39.188500   -6.999960    8.503240
  H    -39.147600   -6.932680    9.601210
  H    -39.670800   -7.879070    8.312380
  C    -40.149000   -5.918320    8.008290
  H    -41.190400   -5.898050    8.462110
  H    -40.239000   -5.932450    6.939880
  H    -39.792300   -4.856550    8.108860
  H    -33.178500   -2.865010    7.992300
  H    -35.573500  -10.808800    9.089840

 Total Charge           Charge          ....    0
 Multiplicity           Mult            ....    1
 Number of Electrons    NEL             ....  134
 Basis Dimension        Dim             ....  322

ORBITAL ENERGIES
----------------

  NO   OCC          E(Eh)            E(eV)
   0   2.0000     -88.961603     -2420.7683
   1   2.0000     -88.959827     -2420.7200
   2   2.0000     -10.329320      -281.0751
   3   2.0000     -10.323434      -280.9149
   4   2.0000     -10.316600      -280.7289
   5   2.0000     -10.313389      -280.6416
   6   2.0000     -10.306600      -280.4568
   7   2.0000     -10.300978      -280.3039
   8   2.0000     -10.299873      -280.2738
   9   2.0000     -10.299195      -280.2553
  10   2.0000     -10.294402      -280.1249
  11   2.0000     -10.290209      -280.0108
  12   2.0000     -10.282242      -279.7940
  13   2.0000     -10.279087      -279.7082
  14   2.0000     -10.278257      -279.6856
  15   2.0000     -10.272544      -279.5301
  16   2.0000      -8.075973      -219.7584
  17   2.0000      -8.075288      -219.7397
  18   2.0000      -6.034594      -164.2096
  19   2.0000      -6.033884      -164.1903
  20   2.0000      -6.030510      -164.0985
  21   2.0000      -6.029566      -164.0728
  22   2.0000      -6.026643      -163.9933
  23   2.0000      -6.026017      -163.9763
  24   2.0000      -1.005712       -27.3668
  25   2.0000      -0.982772       -26.7426
  26   2.0000      -0.913038       -24.8450
  27   2.0000      -0.912270       -24.8241
  28   2.0000      -0.876545       -23.8520
  29   2.0000      -0.846037       -23.0218
  30   2.0000      -0.844104       -22.9692
  31   2.0000      -0.816839       -22.2273
  32   2.0000      -0.780044       -21.2261
  33   2.0000      -0.769664       -20.9436
  34   2.0000      -0.710688       -19.3388
  35   2.0000      -0.706749       -19.2316
  36   2.0000      -0.699133       -19.0244
  37   2.0000      -0.660576       -17.9752
  38   2.0000      -0.639911       -17.4129
  39   2.0000      -0.614976       -16.7343
  40   2.0000      -0.593677       -16.1548
  41   2.0000      -0.572234       -15.5713
  42   2.0000      -0.567721       -15.4485
  43   2.0000      -0.564072       -15.3492
  44   2.0000      -0.527492       -14.3538
  45   2.0000      -0.524806       -14.2807
  46   2.0000      -0.515787       -14.0353
  47   2.0000      -0.514062       -13.9883
  48   2.0000      -0.509310       -13.8590
  49   2.0000      -0.502023       -13.6607
  50   2.0000      -0.487888       -13.2761
  51   2.0000      -0.476572       -12.9682
  52   2.0000      -0.469314       -12.7707
  53   2.0000      -0.464808       -12.6481
  54   2.0000      -0.463043       -12.6001
  55   2.0000      -0.445861       -12.1325
  56   2.0000      -0.442610       -12.0440
  57   2.0000      -0.437328       -11.9003
  58   2.0000      -0.431235       -11.7345
  59   2.0000      -0.428326       -11.6553
  60   2.0000      -0.420402       -11.4397
  61   2.0000      -0.411154       -11.1881
  62   2.0000      -0.408452       -11.1145
  63   2.0000      -0.337151        -9.1743
  64   2.0000      -0.330997        -9.0069
  65   2.0000      -0.320900        -8.7321
  66   2.0000      -0.310354        -8.4452
  67   0.0000       0.046597         1.2680
  68   0.0000       0.058051         1.5796
  69   0.0000       0.112932         3.0730
  70   0.0000       0.124210         3.3799
  71   0.0000       0.131635         3.5820

MULLIKEN ATOMIC CHARGES
-----------------------
   0 S :    0.102858
   1 C :   -0.130148
   2 C :   -0.074130
   3 C :    0.021215
   4 C :   -0.169392
   5 H :    0.038780
   6 C :    0.033787
   7 H :    0.033512
   8 H :    0.021711
   9 C :   -0.030640
  10 H :    0.023888
  11 H :    0.034865
  12 C :   -0.016696
  13 H :    0.018797
  14 H :    0.035140
  15 H :    0.007877
  16 S :    0.098276
  17 C :   -0.076581
  18 C :   -0.048032
  19 C :   -0.064671
  20 C :   -0.179840
  21 H :    0.040990
  22 C :    0.140348
  23 H :    0.041257
  24 H :   -0.012080
  25 C :   -0.033221
  26 H :    0.032659
  27 H :    0.007252
  28 C :   -0.082732
  29 H :    0.045350
  30 H :    0.014257
  31 H :    0.024673
  32 H :    0.049846
  33 H :    0.050825
Sum of atomic charges:    0.0000000

LOEWDIN ATOMIC CHARGES
----------------------
   0 S :    0.381114
   1 C :   -0.189601
   2 C :   -0.074876
   3 C :   -0.064116
   4 C :   -0.198801
   5 H :    0.043787
   6 C :   -0.028888
   7 H :    0.031734
   8 H :    0.030140
   9 C :   -0.030157
  10 H :    0.019498
  11 H :    0.034226
  12 C :   -0.068319
  13 H :    0.024405
  14 H :    0.032922
  15 H :    0.018779
  16 S :    0.413065
  17 C :   -0.176642
  18 C :   -0.080177
  19 C :   -0.045284
  20 C :   -0.212602
  21 H :    0.040668
  22 C :   -0.016055
  23 H :    0.041594
  24 H :    0.011777
  25 C :   -0.035343
  26 H :    0.029576
  27 H :    0.011228
  28 C :   -0.074947
  29 H :    0.032684
  30 H :    0.018172
  31 H :    0.026834
  32 H :    0.029463
  33 H :    0.024144

  Mayer bond orders larger than 0.100000
B(  0-S ,  1-C ) :   1.1388 B(  0-S ,  4-C ) :   1.1091 B(  1-C ,  2-C ) :   1.6363
B(  1-C , 32-H ) :   0.9663 B(  2-C ,  3-C ) :   1.2216 B(  2-C ,  6-C ) :   1.0044
B(  3-C ,  4-C ) :   1.6332 B(  3-C ,  5-H ) :   0.9757 B(  4-C , 20-C ) :   1.0199
B(  6-C ,  7-H ) :   0.9426 B(  6-C ,  8-H ) :   0.9459 B(  6-C ,  9-C ) :   1.0701
B(  9-C , 10-H ) :   0.9556 B(  9-C , 11-H ) :   0.9501 B(  9-C , 12-C ) :   1.0818
B( 12-C , 13-H ) :   0.9711 B( 12-C , 14-H ) :   0.9734 B( 12-C , 15-H ) :   0.9668
B( 16-S , 17-C ) :   1.1653 B( 16-S , 20-C ) :   1.1337 B( 17-C , 18-C ) :   1.6126
B( 17-C , 33-H ) :   0.9710 B( 18-C , 19-C ) :   1.2122 B( 18-C , 21-H ) :   0.9864
B( 19-C , 20-C ) :   1.6319 B( 19-C , 22-C ) :   1.0387 B( 22-C , 23-H ) :   0.9247
B( 22-C , 24-H ) :   0.9319 B( 22-C , 25-C ) :   1.0773 B( 25-C , 26-H ) :   0.9560
B( 25-C , 27-H ) :   0.9454 B( 25-C , 28-C ) :   1.0843 B( 28-C , 29-H ) :   0.9747
B( 28-C , 30-H ) :   0.9700 B( 28-C , 31-H ) :   0.9746

Dispersion correction           -0.013410235
FINAL SINGLE POINT ENERGY     -1339.867969981549

DIPOLE MOMENT
-------------
                                X             Y             Z
Electronic contribution:     10.07994     -15.99482     -10.22817
Nuclear contribution   :    -10.25799      16.21465      10.48763
                        -----------------------------------------
Total Dipole Moment    :     -0.17805       0.21982       0.25946
                        -----------------------------------------
Magnitude (a.u.)       :      0.38386
Magnitude (Debye)      :      0.97569

Rotational constants in cm-1:     0.019449     0.007086     0.006206
Rotational constants in MHz :   583.060728   212.424839   186.053457

                             ****ORCA TERMINATED NORMALLY****
TOTAL RUN TIME: 0 days 0 hours 0 minutes 20 seconds 559 msec
