                         Program Version 4.2.1 -  RELEASE  -
|  1> ! wB97X-D3 SP def2-SVP
|  2> %pal
|  3> nprocs 24
|  4> end
|  5>
|  6> * xyz 0 1
|  7> S 	 -87.8768 	 -45.9669 	 -69.8883
|  8> C 	 -86.1111 	 -45.6531 	 -69.637
|  9> C 	 -85.2633 	 -46.7277 	 -69.9035
| 10> C 	 -86.0667 	 -47.7883 	 -70.3693
| 11> C 	 -87.4701 	 -47.6322 	 -70.2524
| 12> H 	 -85.6466 	 -48.7261 	 -70.7216
| 13> C 	 -83.726 	 -46.7526 	 -69.9655
| 14> H 	 -83.2726 	 -47.7128 	 -69.6258
| 15> H 	 -83.3397 	 -46.1744 	 -69.169
| 16> C 	 -83.0622 	 -46.3126 	 -71.2997
| 17> H 	 -82.0015 	 -46.5551 	 -71.3418
| 18> H 	 -83.5168 	 -46.7773 	 -72.0883
| 19> C 	 -83.1076 	 -44.8371 	 -71.4026
| 20> H 	 -82.713 	 -44.4395 	 -70.4762
| 21> H 	 -82.5435 	 -44.4613 	 -72.2354
| 22> H 	 -84.2348 	 -44.6777 	 -71.5398
| 23> S 	 -89.6098 	 -47.9585 	 -72.009
| 24> C 	 -90.3757 	 -49.4903 	 -72.0835
| 25> C 	 -89.8207 	 -50.3925 	 -71.1894
| 26> C 	 -88.7376 	 -49.895 	 -70.4182
| 27> C 	 -88.5372 	 -48.5224 	 -70.717
| 28> H 	 -90.2366 	 -51.4374 	 -71.2009
| 29> C 	 -88.0257 	 -50.7699 	 -69.4194
| 30> H 	 -88.7315 	 -51.3818 	 -68.9729
| 31> H 	 -87.6274 	 -50.0843 	 -68.7051
| 32> C 	 -86.7833 	 -51.6163 	 -69.923
| 33> H 	 -86.3787 	 -52.1118 	 -69.105
| 34> H 	 -85.9213 	 -51.0146 	 -70.3189
| 35> C 	 -87.1507 	 -52.5791 	 -71.0324
| 36> H 	 -86.3152 	 -53.2459 	 -71.2667
| 37> H 	 -87.2081 	 -52.12 	 -72.0206
| 38> H 	 -88.0278 	 -53.1081 	 -70.7268
| 39> H 	 -85.7454 	 -44.7544 	 -69.2383
| 40> H 	 -91.15 	 -49.7387 	 -72.7622
| 41> *
| 42>
| 43>                          ****END OF INPUT****

CARTESIAN COORDINATES (ANGSTROEM)
---------------------------------
  S    -87.876800  -45.966900  -69.888300
  C    -86.111100  -45.653100  -69.637000
  C    -85.263300  -46.727700  -69.903500
  C    -86.066700  -47.788300  -70.369300
  C    -87.470100  -47.632200  -70.252400
  H    -85.646600  -48.726100  -70.721600
  C    -83.726000  -46.752600  -69.965500
  H    -83.272600  -47.712800  -69.625800
  H    -83.339700  -46.174400  -69.169000
  C    -83.062200  -46.312600  -71.299700
  H    -82.001500  -46.555100  -71.341800
  H    -83.516800  -46.777300  -72.088300
  C    -83.107600  -44.837100  -71.402600
  H    -82.713000  -44.439500  -70.476200
  H    -82.543500  -44.461300  -72.235400
  H    -84.234800  -44.677700  -71.539800
  S    -89.609800  -47.958500  -72.009000
  C    -90.375700  -49.490300  -72.083500
  C    -89.820700  -50.392500  -71.189400
  C    -88.737600  -49.895000  -70.418200
  C    -88.537200  -48.522400  -70.717000
  H    -90.236600  -51.437400  -71.200900
  C    -88.025700  -50.769900  -69.419400
  H    -88.731500  -51.381800  -68.972900
  H    -87.627400  -50.084300  -68.705100
  C    -86.783300  -51.616300  -69.923000
  H    -86.378700  -52.111800  -69.105000
  H    -85.921300  -51.014600  -70.318900
  C    -87.150700  -52.579100  -71.032400
  H    -86.315200  -53.245900  -71.266700
  H    -87.208100  -52.120000  -72.020600
  H    -88.027800  -53.108100  -70.726800
  H    -85.745400  -44.754400  -69.238300
  H    -91.150000  -49.738700  -72.762200

 Total Charge           Charge          ....    0
 Multiplicity           Mult            ....    1
 Number of Electrons    NEL             ....  134
 Basis Dimension        Dim             ....  322

ORBITAL ENERGIES
----------------

  NO   OCC          E(Eh)            E(eV)
   0   2.0000     -88.970571     -2421.0123
   1   2.0000     -88.967136     -2420.9188
   2   2.0000     -10.331943      -281.1464
   3   2.0000     -10.328495      -281.0527
   4   2.0000     -10.318233      -280.7734
   5   2.0000     -10.311203      -280.5821
   6   2.0000     -10.306918      -280.4655
   7   2.0000     -10.304295      -280.3941
   8   2.0000     -10.297319      -280.2043
   9   2.0000     -10.296151      -280.1725
  10   2.0000     -10.293361      -280.0966
  11   2.0000     -10.286449      -279.9085
  12   2.0000     -10.286346      -279.9057
  13   2.0000     -10.276902      -279.6487
  14   2.0000     -10.272905      -279.5400
  15   2.0000     -10.272435      -279.5272
  16   2.0000      -8.084257      -219.9838
  17   2.0000      -8.082048      -219.9237
  18   2.0000      -6.042696      -164.4301
  19   2.0000      -6.040405      -164.3678
  20   2.0000      -6.039092      -164.3320
  21   2.0000      -6.036547      -164.2628
  22   2.0000      -6.034971      -164.2199
  23   2.0000      -6.032941      -164.1647
  24   2.0000      -1.001798       -27.2603
  25   2.0000      -0.979543       -26.6547
  26   2.0000      -0.918354       -24.9897
  27   2.0000      -0.908910       -24.7327
  28   2.0000      -0.869169       -23.6513
  29   2.0000      -0.853921       -23.2364
  30   2.0000      -0.843278       -22.9468
  31   2.0000      -0.806847       -21.9554
  32   2.0000      -0.787633       -21.4326
  33   2.0000      -0.775539       -21.1035
  34   2.0000      -0.710495       -19.3335
  35   2.0000      -0.699807       -19.0427
  36   2.0000      -0.692603       -18.8467
  37   2.0000      -0.656087       -17.8530
  38   2.0000      -0.642306       -17.4780
  39   2.0000      -0.619619       -16.8607
  40   2.0000      -0.592634       -16.1264
  41   2.0000      -0.575516       -15.6606
  42   2.0000      -0.564094       -15.3498
  43   2.0000      -0.552369       -15.0307
  44   2.0000      -0.542919       -14.7736
  45   2.0000      -0.540687       -14.7128
  46   2.0000      -0.523111       -14.2346
  47   2.0000      -0.508172       -13.8281
  48   2.0000      -0.497816       -13.5463
  49   2.0000      -0.493659       -13.4331
  50   2.0000      -0.484683       -13.1889
  51   2.0000      -0.480568       -13.0769
  52   2.0000      -0.475329       -12.9344
  53   2.0000      -0.462593       -12.5878
  54   2.0000      -0.454418       -12.3653
  55   2.0000      -0.446300       -12.1445
  56   2.0000      -0.439670       -11.9640
  57   2.0000      -0.437704       -11.9105
  58   2.0000      -0.432855       -11.7786
  59   2.0000      -0.431071       -11.7300
  60   2.0000      -0.429927       -11.6989
  61   2.0000      -0.414712       -11.2849
  62   2.0000      -0.410429       -11.1683
  63   2.0000      -0.341180        -9.2840
  64   2.0000      -0.337795        -9.1919
  65   2.0000      -0.330492        -8.9931
  66   2.0000      -0.286177        -7.7873
  67   0.0000       0.025696         0.6992
  68   0.0000       0.063797         1.7360
  69   0.0000       0.101451         2.7606
  70   0.0000       0.123858         3.3703
  71   0.0000       0.128565         3.4984

MULLIKEN ATOMIC CHARGES
-----------------------
   0 S :    0.102920
   1 C :   -0.099248
   2 C :   -0.078349
   3 C :    0.033174
   4 C :   -0.163777
   5 H :    0.001300
   6 C :    0.053871
   7 H :    0.025697
   8 H :    0.004052
   9 C :   -0.010762
  10 H :    0.019637
  11 H :    0.009819
  12 C :   -0.056952
  13 H :    0.021255
  14 H :    0.032947
  15 H :    0.046177
  16 S :    0.118555
  17 C :   -0.086140
  18 C :   -0.062979
  19 C :   -0.035773
  20 C :   -0.157212
  21 H :    0.033452
  22 C :    0.110734
  23 H :    0.013936
  24 H :    0.022715
  25 C :   -0.054080
  26 H :    0.018262
  27 H :    0.025541
  28 C :   -0.049266
  29 H :    0.023670
  30 H :    0.038762
  31 H :    0.027924
  32 H :    0.026339
  33 H :    0.043797
Sum of atomic charges:    0.0000000

LOEWDIN ATOMIC CHARGES
----------------------
   0 S :    0.387370
   1 C :   -0.164017
   2 C :   -0.061495
   3 C :   -0.055143
   4 C :   -0.196471
   5 H :    0.025516
   6 C :   -0.029299
   7 H :    0.036250
   8 H :    0.023856
   9 C :   -0.030851
  10 H :    0.023780
  11 H :    0.011305
  12 C :   -0.064140
  13 H :    0.020224
  14 H :    0.021109
  15 H :    0.037588
  16 S :    0.415703
  17 C :   -0.195802
  18 C :   -0.079191
  19 C :   -0.050582
  20 C :   -0.203093
  21 H :    0.038351
  22 C :   -0.019354
  23 H :    0.023083
  24 H :    0.032698
  25 C :   -0.030343
  26 H :    0.015004
  27 H :    0.026715
  28 C :   -0.069886
  29 H :    0.027840
  30 H :    0.030020
  31 H :    0.018544
  32 H :    0.011854
  33 H :    0.022858

  Mayer bond orders larger than 0.100000
B(  0-S ,  1-C ) :   1.1438 B(  0-S ,  4-C ) :   1.1424 B(  1-C ,  2-C ) :   1.6014
B(  1-C ,  4-C ) :   0.1038 B(  1-C , 32-H ) :   0.9660 B(  2-C ,  3-C ) :   1.2588
B(  2-C ,  6-C ) :   1.0271 B(  3-C ,  4-C ) :   1.5604 B(  3-C ,  5-H ) :   0.9854
B(  4-C , 20-C ) :   1.0384 B(  6-C ,  7-H ) :   0.9390 B(  6-C ,  8-H ) :   0.9356
B(  6-C ,  9-C ) :   1.0631 B(  9-C , 10-H ) :   0.9504 B(  9-C , 11-H ) :   0.9573
B(  9-C , 12-C ) :   1.0817 B( 12-C , 13-H ) :   0.9747 B( 12-C , 14-H ) :   0.9722
B( 12-C , 15-H ) :   0.9751 B( 16-S , 17-C ) :   1.1627 B( 16-S , 20-C ) :   1.1529
B( 17-C , 18-C ) :   1.5999 B( 17-C , 20-C ) :   0.1021 B( 17-C , 33-H ) :   0.9711
B( 18-C , 19-C ) :   1.2535 B( 18-C , 21-H ) :   0.9808 B( 19-C , 20-C ) :   1.5681
B( 19-C , 22-C ) :   1.0440 B( 22-C , 23-H ) :   0.9378 B( 22-C , 24-H ) :   0.9213
B( 22-C , 25-C ) :   1.0737 B( 25-C , 26-H ) :   0.9547 B( 25-C , 27-H ) :   0.9519
B( 25-C , 28-C ) :   1.0861 B( 28-C , 29-H ) :   0.9683 B( 28-C , 30-H ) :   0.9704
B( 28-C , 31-H ) :   0.9766

Dispersion correction           -0.014716118
FINAL SINGLE POINT ENERGY     -1339.860052310506

DIPOLE MOMENT
-------------
                                X             Y             Z
Electronic contribution:    -22.62191      11.06398      -0.29290
Nuclear contribution   :     23.19450     -11.54427       0.26461
                        -----------------------------------------
Total Dipole Moment    :      0.57259      -0.48030      -0.02829
                        -----------------------------------------
Magnitude (a.u.)       :      0.74790
Magnitude (Debye)      :      1.90100

Rotational constants in cm-1:     0.019817     0.008455     0.006780
Rotational constants in MHz :   594.089612   253.483741   203.265246

                             ****ORCA TERMINATED NORMALLY****
TOTAL RUN TIME: 0 days 0 hours 0 minutes 21 seconds 889 msec
