                         Program Version 4.2.1 -  RELEASE  -
|  1> ! wB97X-D3 SP def2-SVP
|  2> %pal
|  3> nprocs 24
|  4> end
|  5>
|  6> * xyz 0 1
|  7> S 	 -88.7919 	 -2.53775 	 6.83542
|  8> C 	 -87.8905 	 -1.37309 	 5.8799
|  9> C 	 -86.7392 	 -1.86958 	 5.30884
| 10> C 	 -86.5433 	 -3.25411 	 5.69149
| 11> C 	 -87.5379 	 -3.76097 	 6.52842
| 12> H 	 -85.6695 	 -3.81078 	 5.39587
| 13> C 	 -85.9026 	 -1.28854 	 4.15949
| 14> H 	 -86.5052 	 -1.18087 	 3.30292
| 15> H 	 -85.114 	 -1.98945 	 3.87576
| 16> C 	 -85.2195 	 0.0559547 	 4.50448
| 17> H 	 -84.9444 	 0.538808 	 3.54651
| 18> H 	 -86.0151 	 0.70146 	 4.96406
| 19> C 	 -84.1122 	 -0.20538 	 5.63153
| 20> H 	 -84.7113 	 -0.307534 	 6.55985
| 21> H 	 -83.5214 	 -1.09994 	 5.53956
| 22> H 	 -83.4883 	 0.671221 	 5.6736
| 23> S 	 -87.0465 	 -6.40428 	 6.37866
| 24> C 	 -86.9184 	 -7.37968 	 7.7995
| 25> C 	 -87.1609 	 -6.64916 	 8.91807
| 26> C 	 -87.6848 	 -5.3558 	 8.5627
| 27> C 	 -87.4328 	 -4.99994 	 7.25406
| 28> H 	 -87.1687 	 -6.99023 	 9.88598
| 29> C 	 -88.0491 	 -4.3552 	 9.63148
| 30> H 	 -88.7407 	 -4.88396 	 10.2695
| 31> H 	 -88.6377 	 -3.61333 	 9.15082
| 32> C 	 -86.883 	 -3.76225 	 10.3462
| 33> H 	 -86.3193 	 -3.07402 	 9.75529
| 34> H 	 -86.1241 	 -4.32024 	 10.8467
| 35> C 	 -87.5066 	 -2.94244 	 11.5524
| 36> H 	 -88.2424 	 -3.39409 	 12.2075
| 37> H 	 -88.0666 	 -2.13623 	 11.0662
| 38> H 	 -86.6822 	 -2.5584 	 12.1624
| 39> H 	 -88.3222 	 -0.364657 	 5.73281
| 40> H 	 -86.4256 	 -8.33223 	 7.85618
| 41> *
| 42>
| 43>                          ****END OF INPUT****

CARTESIAN COORDINATES (ANGSTROEM)
---------------------------------
  S    -88.791900   -2.537750    6.835420
  C    -87.890500   -1.373090    5.879900
  C    -86.739200   -1.869580    5.308840
  C    -86.543300   -3.254110    5.691490
  C    -87.537900   -3.760970    6.528420
  H    -85.669500   -3.810780    5.395870
  C    -85.902600   -1.288540    4.159490
  H    -86.505200   -1.180870    3.302920
  H    -85.114000   -1.989450    3.875760
  C    -85.219500    0.055955    4.504480
  H    -84.944400    0.538808    3.546510
  H    -86.015100    0.701460    4.964060
  C    -84.112200   -0.205380    5.631530
  H    -84.711300   -0.307534    6.559850
  H    -83.521400   -1.099940    5.539560
  H    -83.488300    0.671221    5.673600
  S    -87.046500   -6.404280    6.378660
  C    -86.918400   -7.379680    7.799500
  C    -87.160900   -6.649160    8.918070
  C    -87.684800   -5.355800    8.562700
  C    -87.432800   -4.999940    7.254060
  H    -87.168700   -6.990230    9.885980
  C    -88.049100   -4.355200    9.631480
  H    -88.740700   -4.883960   10.269500
  H    -88.637700   -3.613330    9.150820
  C    -86.883000   -3.762250   10.346200
  H    -86.319300   -3.074020    9.755290
  H    -86.124100   -4.320240   10.846700
  C    -87.506600   -2.942440   11.552400
  H    -88.242400   -3.394090   12.207500
  H    -88.066600   -2.136230   11.066200
  H    -86.682200   -2.558400   12.162400
  H    -88.322200   -0.364657    5.732810
  H    -86.425600   -8.332230    7.856180

 Total Charge           Charge          ....    0
 Multiplicity           Mult            ....    1
 Number of Electrons    NEL             ....  134
 Basis Dimension        Dim             ....  322

ORBITAL ENERGIES
----------------

  NO   OCC          E(Eh)            E(eV)
   0   2.0000     -88.972044     -2421.0524
   1   2.0000     -88.959797     -2420.7191
   2   2.0000     -10.333781      -281.1965
   3   2.0000     -10.321112      -280.8517
   4   2.0000     -10.317936      -280.7653
   5   2.0000     -10.308762      -280.5157
   6   2.0000     -10.305854      -280.4365
   7   2.0000     -10.298207      -280.2285
   8   2.0000     -10.296830      -280.1910
   9   2.0000     -10.292285      -280.0673
  10   2.0000     -10.291621      -280.0493
  11   2.0000     -10.284461      -279.8544
  12   2.0000     -10.281369      -279.7703
  13   2.0000     -10.279323      -279.7146
  14   2.0000     -10.279199      -279.7112
  15   2.0000     -10.273089      -279.5450
  16   2.0000      -8.085836      -220.0268
  17   2.0000      -8.075971      -219.7583
  18   2.0000      -6.044475      -164.4785
  19   2.0000      -6.040464      -164.3694
  20   2.0000      -6.036532      -164.2624
  21   2.0000      -6.034504      -164.2072
  22   2.0000      -6.030227      -164.0908
  23   2.0000      -6.026668      -163.9940
  24   2.0000      -1.012593       -27.5541
  25   2.0000      -0.985455       -26.8156
  26   2.0000      -0.912597       -24.8330
  27   2.0000      -0.907750       -24.7011
  28   2.0000      -0.873046       -23.7568
  29   2.0000      -0.848288       -23.0831
  30   2.0000      -0.841525       -22.8991
  31   2.0000      -0.812551       -22.1106
  32   2.0000      -0.782159       -21.2836
  33   2.0000      -0.767500       -20.8847
  34   2.0000      -0.709777       -19.3140
  35   2.0000      -0.702706       -19.1216
  36   2.0000      -0.696206       -18.9447
  37   2.0000      -0.670161       -18.2360
  38   2.0000      -0.641523       -17.4567
  39   2.0000      -0.614005       -16.7079
  40   2.0000      -0.597772       -16.2662
  41   2.0000      -0.574614       -15.6360
  42   2.0000      -0.560873       -15.2621
  43   2.0000      -0.552051       -15.0221
  44   2.0000      -0.539267       -14.6742
  45   2.0000      -0.533251       -14.5105
  46   2.0000      -0.513680       -13.9779
  47   2.0000      -0.510176       -13.8826
  48   2.0000      -0.507126       -13.7996
  49   2.0000      -0.495672       -13.4879
  50   2.0000      -0.489320       -13.3151
  51   2.0000      -0.482085       -13.1182
  52   2.0000      -0.470083       -12.7916
  53   2.0000      -0.465866       -12.6768
  54   2.0000      -0.458022       -12.4634
  55   2.0000      -0.453655       -12.3446
  56   2.0000      -0.443607       -12.0712
  57   2.0000      -0.441425       -12.0118
  58   2.0000      -0.428844       -11.6694
  59   2.0000      -0.426089       -11.5945
  60   2.0000      -0.423973       -11.5369
  61   2.0000      -0.415787       -11.3141
  62   2.0000      -0.396085       -10.7780
  63   2.0000      -0.354010        -9.6331
  64   2.0000      -0.332747        -9.0545
  65   2.0000      -0.325095        -8.8463
  66   2.0000      -0.289041        -7.8652
  67   0.0000       0.026300         0.7157
  68   0.0000       0.081012         2.2044
  69   0.0000       0.101008         2.7486
  70   0.0000       0.120202         3.2709
  71   0.0000       0.125988         3.4283

MULLIKEN ATOMIC CHARGES
-----------------------
   0 S :    0.106572
   1 C :   -0.155770
   2 C :   -0.062399
   3 C :    0.001989
   4 C :   -0.115692
   5 H :    0.017120
   6 C :    0.070796
   7 H :    0.032939
   8 H :    0.021562
   9 C :   -0.114705
  10 H :    0.038270
  11 H :    0.034974
  12 C :   -0.051773
  13 H :    0.048529
  14 H :    0.034236
  15 H :    0.039370
  16 S :    0.103835
  17 C :   -0.065077
  18 C :   -0.000586
  19 C :   -0.095609
  20 C :   -0.131676
  21 H :   -0.011272
  22 C :    0.090778
  23 H :    0.015587
  24 H :   -0.001664
  25 C :   -0.022920
  26 H :    0.024279
  27 H :    0.020939
  28 C :   -0.076540
  29 H :    0.030549
  30 H :    0.024016
  31 H :    0.031889
  32 H :    0.063696
  33 H :    0.053760
Sum of atomic charges:   -0.0000000

LOEWDIN ATOMIC CHARGES
----------------------
   0 S :    0.406483
   1 C :   -0.195016
   2 C :   -0.064108
   3 C :   -0.055490
   4 C :   -0.184725
   5 H :    0.028420
   6 C :   -0.025325
   7 H :    0.026542
   8 H :    0.028057
   9 C :   -0.042232
  10 H :    0.023036
  11 H :    0.025786
  12 C :   -0.062555
  13 H :    0.035062
  14 H :    0.020893
  15 H :    0.024215
  16 S :    0.432398
  17 C :   -0.192035
  18 C :   -0.053670
  19 C :   -0.062423
  20 C :   -0.214002
  21 H :    0.018250
  22 C :   -0.034132
  23 H :    0.029423
  24 H :    0.009896
  25 C :   -0.027775
  26 H :    0.025992
  27 H :    0.020147
  28 C :   -0.066812
  29 H :    0.020497
  30 H :    0.023397
  31 H :    0.022655
  32 H :    0.030685
  33 H :    0.028466

  Mayer bond orders larger than 0.100000
B(  0-S ,  1-C ) :   1.1402 B(  0-S ,  4-C ) :   1.1319 B(  1-C ,  2-C ) :   1.6163
B(  1-C , 32-H ) :   0.9609 B(  2-C ,  3-C ) :   1.2407 B(  2-C ,  6-C ) :   1.0044
B(  3-C ,  4-C ) :   1.5642 B(  3-C ,  5-H ) :   0.9890 B(  4-C , 20-C ) :   1.0523
B(  6-C ,  7-H ) :   0.9450 B(  6-C ,  8-H ) :   0.9498 B(  6-C ,  9-C ) :   1.0669
B(  9-C , 10-H ) :   0.9627 B(  9-C , 11-H ) :   0.9634 B(  9-C , 12-C ) :   1.0440
B( 12-C , 13-H ) :   0.9745 B( 12-C , 14-H ) :   0.9828 B( 12-C , 15-H ) :   0.9790
B( 16-S , 17-C ) :   1.1513 B( 16-S , 20-C ) :   1.1519 B( 17-C , 18-C ) :   1.6084
B( 17-C , 33-H ) :   0.9654 B( 18-C , 19-C ) :   1.2414 B( 18-C , 21-H ) :   1.0012
B( 19-C , 20-C ) :   1.5685 B( 19-C , 22-C ) :   1.0650 B( 22-C , 23-H ) :   0.9277
B( 22-C , 24-H ) :   0.9242 B( 22-C , 25-C ) :   1.0639 B( 25-C , 26-H ) :   0.9520
B( 25-C , 27-H ) :   0.9652 B( 25-C , 28-C ) :   1.0632 B( 28-C , 29-H ) :   0.9803
B( 28-C , 30-H ) :   0.9776 B( 28-C , 31-H ) :   0.9766

Dispersion correction           -0.014537439
FINAL SINGLE POINT ENERGY     -1339.864028563954

DIPOLE MOMENT
-------------
                                X             Y             Z
Electronic contribution:    -11.54584     -17.08505      -8.84661
Nuclear contribution   :     11.89847      17.41088       8.93785
                        -----------------------------------------
Total Dipole Moment    :      0.35264       0.32583       0.09124
                        -----------------------------------------
Magnitude (a.u.)       :      0.48871
Magnitude (Debye)      :      1.24221

Rotational constants in cm-1:     0.018636     0.008726     0.007291
Rotational constants in MHz :   558.680222   261.601268   218.584333

                             ****ORCA TERMINATED NORMALLY****
TOTAL RUN TIME: 0 days 0 hours 0 minutes 22 seconds 852 msec
