                         Program Version 4.2.1 -  RELEASE  -
|  1> ! wB97X-D3 SP def2-SVP
|  2> %pal
|  3> nprocs 24
|  4> end
|  5>
|  6> * xyz 0 1
|  7> S 	 -42.6077 	 -51.4322 	 -73.6042
|  8> C 	 -41.0779 	 -51.3771 	 -74.5107
|  9> C 	 -41.2562 	 -51.4949 	 -75.9066
| 10> C 	 -42.6594 	 -51.5714 	 -76.2353
| 11> C 	 -43.4413 	 -51.6536 	 -75.1017
| 12> H 	 -43.0483 	 -51.5464 	 -77.1948
| 13> C 	 -40.14 	 -51.4269 	 -76.876
| 14> H 	 -39.4515 	 -50.6664 	 -76.4932
| 15> H 	 -40.682 	 -51.135 	 -77.7915
| 16> C 	 -39.364 	 -52.6935 	 -77.0584
| 17> H 	 -38.7177 	 -52.8211 	 -76.2212
| 18> H 	 -40.1351 	 -53.431 	 -77.1083
| 19> C 	 -38.5533 	 -52.5033 	 -78.3394
| 20> H 	 -39.1672 	 -52.2665 	 -79.2031
| 21> H 	 -37.8207 	 -51.6503 	 -78.1967
| 22> H 	 -37.9829 	 -53.4491 	 -78.5835
| 23> S 	 -45.7978 	 -50.2065 	 -75.0792
| 24> C 	 -47.2921 	 -50.9912 	 -74.7291
| 25> C 	 -47.1227 	 -52.3124 	 -74.5282
| 26> C 	 -45.7771 	 -52.7899 	 -74.6644
| 27> C 	 -44.8915 	 -51.7011 	 -74.9673
| 28> H 	 -47.9926 	 -52.8868 	 -74.2131
| 29> C 	 -45.3021 	 -54.2139 	 -74.64
| 30> H 	 -46.0263 	 -54.7895 	 -74.0315
| 31> H 	 -44.428 	 -54.158 	 -74.0454
| 32> C 	 -45.0987 	 -55.0155 	 -75.9462
| 33> H 	 -44.7336 	 -55.9352 	 -75.6544
| 34> H 	 -44.2765 	 -54.6398 	 -76.5553
| 35> C 	 -46.269 	 -55.2763 	 -76.8782
| 36> H 	 -46.2355 	 -56.2147 	 -77.5126
| 37> H 	 -46.3643 	 -54.4855 	 -77.5784
| 38> H 	 -47.1393 	 -55.2828 	 -76.2455
| 39> H 	 -40.1118 	 -51.3519 	 -73.9796
| 40> H 	 -48.2589 	 -50.4949 	 -74.5767
| 41> *
| 42>
| 43>                          ****END OF INPUT****

CARTESIAN COORDINATES (ANGSTROEM)
---------------------------------
  S    -42.607700  -51.432200  -73.604200
  C    -41.077900  -51.377100  -74.510700
  C    -41.256200  -51.494900  -75.906600
  C    -42.659400  -51.571400  -76.235300
  C    -43.441300  -51.653600  -75.101700
  H    -43.048300  -51.546400  -77.194800
  C    -40.140000  -51.426900  -76.876000
  H    -39.451500  -50.666400  -76.493200
  H    -40.682000  -51.135000  -77.791500
  C    -39.364000  -52.693500  -77.058400
  H    -38.717700  -52.821100  -76.221200
  H    -40.135100  -53.431000  -77.108300
  C    -38.553300  -52.503300  -78.339400
  H    -39.167200  -52.266500  -79.203100
  H    -37.820700  -51.650300  -78.196700
  H    -37.982900  -53.449100  -78.583500
  S    -45.797800  -50.206500  -75.079200
  C    -47.292100  -50.991200  -74.729100
  C    -47.122700  -52.312400  -74.528200
  C    -45.777100  -52.789900  -74.664400
  C    -44.891500  -51.701100  -74.967300
  H    -47.992600  -52.886800  -74.213100
  C    -45.302100  -54.213900  -74.640000
  H    -46.026300  -54.789500  -74.031500
  H    -44.428000  -54.158000  -74.045400
  C    -45.098700  -55.015500  -75.946200
  H    -44.733600  -55.935200  -75.654400
  H    -44.276500  -54.639800  -76.555300
  C    -46.269000  -55.276300  -76.878200
  H    -46.235500  -56.214700  -77.512600
  H    -46.364300  -54.485500  -77.578400
  H    -47.139300  -55.282800  -76.245500
  H    -40.111800  -51.351900  -73.979600
  H    -48.258900  -50.494900  -74.576700

 Total Charge           Charge          ....    0
 Multiplicity           Mult            ....    1
 Number of Electrons    NEL             ....  134
 Basis Dimension        Dim             ....  322

ORBITAL ENERGIES
----------------

  NO   OCC          E(Eh)            E(eV)
   0   2.0000     -88.967980     -2420.9418
   1   2.0000     -88.962522     -2420.7933
   2   2.0000     -10.326536      -280.9993
   3   2.0000     -10.323756      -280.9237
   4   2.0000     -10.316809      -280.7346
   5   2.0000     -10.310211      -280.5551
   6   2.0000     -10.304470      -280.3989
   7   2.0000     -10.301892      -280.3287
   8   2.0000     -10.294132      -280.1176
   9   2.0000     -10.288719      -279.9703
  10   2.0000     -10.288064      -279.9525
  11   2.0000     -10.286956      -279.9223
  12   2.0000     -10.286933      -279.9217
  13   2.0000     -10.280867      -279.7566
  14   2.0000     -10.275835      -279.6197
  15   2.0000     -10.272238      -279.5218
  16   2.0000      -8.082467      -219.9351
  17   2.0000      -8.077642      -219.8038
  18   2.0000      -6.040869      -164.3804
  19   2.0000      -6.037041      -164.2762
  20   2.0000      -6.036050      -164.2493
  21   2.0000      -6.033321      -164.1750
  22   2.0000      -6.031981      -164.1385
  23   2.0000      -6.028611      -164.0468
  24   2.0000      -1.004812       -27.3423
  25   2.0000      -0.981652       -26.7121
  26   2.0000      -0.925767       -25.1914
  27   2.0000      -0.906560       -24.6687
  28   2.0000      -0.867813       -23.6144
  29   2.0000      -0.850597       -23.1459
  30   2.0000      -0.848232       -23.0816
  31   2.0000      -0.815202       -22.1828
  32   2.0000      -0.783453       -21.3188
  33   2.0000      -0.765196       -20.8220
  34   2.0000      -0.707996       -19.2656
  35   2.0000      -0.704947       -19.1826
  36   2.0000      -0.689647       -18.7662
  37   2.0000      -0.651827       -17.7371
  38   2.0000      -0.645159       -17.5557
  39   2.0000      -0.621566       -16.9137
  40   2.0000      -0.586476       -15.9588
  41   2.0000      -0.581951       -15.8357
  42   2.0000      -0.566076       -15.4037
  43   2.0000      -0.555194       -15.1076
  44   2.0000      -0.544670       -14.8212
  45   2.0000      -0.521876       -14.2010
  46   2.0000      -0.517906       -14.0929
  47   2.0000      -0.513239       -13.9659
  48   2.0000      -0.501506       -13.6467
  49   2.0000      -0.493935       -13.4407
  50   2.0000      -0.481919       -13.1137
  51   2.0000      -0.478505       -13.0208
  52   2.0000      -0.468607       -12.7514
  53   2.0000      -0.463539       -12.6135
  54   2.0000      -0.459272       -12.4974
  55   2.0000      -0.454165       -12.3584
  56   2.0000      -0.449077       -12.2200
  57   2.0000      -0.438605       -11.9350
  58   2.0000      -0.432946       -11.7811
  59   2.0000      -0.429856       -11.6970
  60   2.0000      -0.418462       -11.3869
  61   2.0000      -0.417944       -11.3728
  62   2.0000      -0.408516       -11.1163
  63   2.0000      -0.337377        -9.1805
  64   2.0000      -0.328979        -8.9520
  65   2.0000      -0.314435        -8.5562
  66   2.0000      -0.306070        -8.3286
  67   0.0000       0.043609         1.1867
  68   0.0000       0.052902         1.4395
  69   0.0000       0.107914         2.9365
  70   0.0000       0.122127         3.3232
  71   0.0000       0.129820         3.5326

MULLIKEN ATOMIC CHARGES
-----------------------
   0 S :    0.125568
   1 C :   -0.141643
   2 C :   -0.105761
   3 C :    0.080692
   4 C :   -0.175187
   5 H :   -0.013094
   6 C :    0.039345
   7 H :    0.032679
   8 H :    0.021059
   9 C :   -0.016845
  10 H :    0.024598
  11 H :    0.023883
  12 C :   -0.066595
  13 H :    0.031244
  14 H :    0.036949
  15 H :    0.043513
  16 S :    0.121520
  17 C :   -0.096740
  18 C :   -0.043370
  19 C :   -0.030506
  20 C :   -0.195924
  21 H :    0.017084
  22 C :    0.097239
  23 H :    0.013721
  24 H :    0.017652
  25 C :   -0.020150
  26 H :    0.004819
  27 H :    0.016506
  28 C :   -0.043900
  29 H :    0.042129
  30 H :    0.027190
  31 H :    0.015685
  32 H :    0.055824
  33 H :    0.060818
Sum of atomic charges:   -0.0000000

LOEWDIN ATOMIC CHARGES
----------------------
   0 S :    0.415825
   1 C :   -0.198347
   2 C :   -0.058669
   3 C :   -0.050172
   4 C :   -0.200771
   5 H :    0.022018
   6 C :   -0.035924
   7 H :    0.034338
   8 H :    0.032476
   9 C :   -0.032976
  10 H :    0.022698
  11 H :    0.022020
  12 C :   -0.067657
  13 H :    0.022265
  14 H :    0.032090
  15 H :    0.029624
  16 S :    0.418650
  17 C :   -0.199832
  18 C :   -0.082043
  19 C :   -0.053958
  20 C :   -0.215874
  21 H :    0.032772
  22 C :   -0.030254
  23 H :    0.031598
  24 H :    0.030633
  25 C :   -0.035391
  26 H :    0.016274
  27 H :    0.022972
  28 C :   -0.063926
  29 H :    0.035756
  30 H :    0.020249
  31 H :    0.020061
  32 H :    0.027037
  33 H :    0.036436

  Mayer bond orders larger than 0.100000
B(  0-S ,  1-C ) :   1.1376 B(  0-S ,  4-C ) :   1.1764 B(  1-C ,  2-C ) :   1.6008
B(  1-C , 32-H ) :   0.9666 B(  2-C ,  3-C ) :   1.2306 B(  2-C ,  6-C ) :   1.0216
B(  3-C ,  4-C ) :   1.5807 B(  3-C ,  5-H ) :   1.0069 B(  4-C , 20-C ) :   1.0049
B(  6-C ,  7-H ) :   0.9317 B(  6-C ,  8-H ) :   0.9429 B(  6-C ,  9-C ) :   1.0675
B(  9-C , 10-H ) :   0.9495 B(  9-C , 11-H ) :   0.9560 B(  9-C , 12-C ) :   1.0854
B( 12-C , 13-H ) :   0.9768 B( 12-C , 14-H ) :   0.9699 B( 12-C , 15-H ) :   0.9742
B( 16-S , 17-C ) :   1.1578 B( 16-S , 20-C ) :   1.1673 B( 17-C , 18-C ) :   1.6165
B( 17-C , 33-H ) :   0.9611 B( 18-C , 19-C ) :   1.2506 B( 18-C , 21-H ) :   0.9879
B( 19-C , 20-C ) :   1.5502 B( 19-C , 22-C ) :   1.0528 B( 22-C , 23-H ) :   0.9271
B( 22-C , 24-H ) :   0.9129 B( 22-C , 25-C ) :   1.0855 B( 25-C , 26-H ) :   0.9483
B( 25-C , 27-H ) :   0.9532 B( 25-C , 28-C ) :   1.0693 B( 28-C , 29-H ) :   0.9747
B( 28-C , 30-H ) :   0.9759 B( 28-C , 31-H ) :   0.9769

Dispersion correction           -0.014268016
FINAL SINGLE POINT ENERGY     -1339.874038081487

DIPOLE MOMENT
-------------
                                X             Y             Z
Electronic contribution:    -11.32198      17.61400      16.18020
Nuclear contribution   :     11.53648     -17.94612     -16.41664
                        -----------------------------------------
Total Dipole Moment    :      0.21450      -0.33212      -0.23644
                        -----------------------------------------
Magnitude (a.u.)       :      0.46067
Magnitude (Debye)      :      1.17093

Rotational constants in cm-1:     0.020124     0.008005     0.006695
Rotational constants in MHz :   603.311774   239.973726   200.716404

                             ****ORCA TERMINATED NORMALLY****
TOTAL RUN TIME: 0 days 0 hours 0 minutes 21 seconds 597 msec
