                         Program Version 4.2.1 -  RELEASE  -
|  1> ! wB97X-D3 SP def2-SVP
|  2> %pal
|  3> nprocs 24
|  4> end
|  5>
|  6> * xyz 0 1
|  7> S 	 -123.145 	 34.1867 	 -114.37
|  8> C 	 -121.611 	 33.596 	 -114.71
|  9> C 	 -120.87 	 33.5093 	 -113.577
| 10> C 	 -121.652 	 33.7353 	 -112.369
| 11> C 	 -122.964 	 33.9742 	 -112.67
| 12> H 	 -121.291 	 33.7894 	 -111.315
| 13> C 	 -119.398 	 33.2319 	 -113.586
| 14> H 	 -119.103 	 33.4953 	 -112.6
| 15> H 	 -118.886 	 34.035 	 -114.105
| 16> C 	 -118.856 	 31.8839 	 -113.886
| 17> H 	 -119.143 	 31.8675 	 -114.977
| 18> H 	 -117.805 	 31.8774 	 -113.855
| 19> C 	 -119.358 	 30.7809 	 -112.987
| 20> H 	 -118.796 	 30.7306 	 -112.075
| 21> H 	 -120.422 	 30.8294 	 -112.706
| 22> H 	 -119.145 	 29.8271 	 -113.474
| 23> S 	 -125.613 	 33.3445 	 -112.578
| 24> C 	 -126.578 	 33.7129 	 -111.177
| 25> C 	 -125.846 	 34.361 	 -110.191
| 26> C 	 -124.472 	 34.4966 	 -110.531
| 27> C 	 -124.165 	 33.9982 	 -111.794
| 28> H 	 -126.336 	 34.5763 	 -109.261
| 29> C 	 -123.522 	 34.956 	 -109.499
| 30> H 	 -123.849 	 35.8107 	 -109.012
| 31> H 	 -122.686 	 35.2642 	 -110.045
| 32> C 	 -123.159 	 33.7173 	 -108.621
| 33> H 	 -122.128 	 33.8688 	 -108.282
| 34> H 	 -123.291 	 32.8073 	 -109.202
| 35> C 	 -124.085 	 33.6246 	 -107.407
| 36> H 	 -123.906 	 32.6683 	 -106.818
| 37> H 	 -125.126 	 33.7428 	 -107.626
| 38> H 	 -123.805 	 34.4718 	 -106.66
| 39> H 	 -121.097 	 33.6277 	 -115.698
| 40> H 	 -127.658 	 33.444 	 -111.083
| 41> *
| 42>
| 43>                          ****END OF INPUT****

CARTESIAN COORDINATES (ANGSTROEM)
---------------------------------
  S    -123.145000   34.186700  -114.370000
  C    -121.611000   33.596000  -114.710000
  C    -120.870000   33.509300  -113.577000
  C    -121.652000   33.735300  -112.369000
  C    -122.964000   33.974200  -112.670000
  H    -121.291000   33.789400  -111.315000
  C    -119.398000   33.231900  -113.586000
  H    -119.103000   33.495300  -112.600000
  H    -118.886000   34.035000  -114.105000
  C    -118.856000   31.883900  -113.886000
  H    -119.143000   31.867500  -114.977000
  H    -117.805000   31.877400  -113.855000
  C    -119.358000   30.780900  -112.987000
  H    -118.796000   30.730600  -112.075000
  H    -120.422000   30.829400  -112.706000
  H    -119.145000   29.827100  -113.474000
  S    -125.613000   33.344500  -112.578000
  C    -126.578000   33.712900  -111.177000
  C    -125.846000   34.361000  -110.191000
  C    -124.472000   34.496600  -110.531000
  C    -124.165000   33.998200  -111.794000
  H    -126.336000   34.576300  -109.261000
  C    -123.522000   34.956000  -109.499000
  H    -123.849000   35.810700  -109.012000
  H    -122.686000   35.264200  -110.045000
  C    -123.159000   33.717300  -108.621000
  H    -122.128000   33.868800  -108.282000
  H    -123.291000   32.807300  -109.202000
  C    -124.085000   33.624600  -107.407000
  H    -123.906000   32.668300  -106.818000
  H    -125.126000   33.742800  -107.626000
  H    -123.805000   34.471800  -106.660000
  H    -121.097000   33.627700  -115.698000
  H    -127.658000   33.444000  -111.083000

 Total Charge           Charge          ....    0
 Multiplicity           Mult            ....    1
 Number of Electrons    NEL             ....  134
 Basis Dimension        Dim             ....  322

ORBITAL ENERGIES
----------------

  NO   OCC          E(Eh)            E(eV)
   0   2.0000     -88.964877     -2420.8574
   1   2.0000     -88.962619     -2420.7959
   2   2.0000     -10.329412      -281.0776
   3   2.0000     -10.328945      -281.0649
   4   2.0000     -10.319541      -280.8090
   5   2.0000     -10.305385      -280.4238
   6   2.0000     -10.301842      -280.3274
   7   2.0000     -10.296923      -280.1935
   8   2.0000     -10.296433      -280.1802
   9   2.0000     -10.291697      -280.0513
  10   2.0000     -10.290864      -280.0287
  11   2.0000     -10.287626      -279.9405
  12   2.0000     -10.281480      -279.7733
  13   2.0000     -10.279900      -279.7303
  14   2.0000     -10.277333      -279.6605
  15   2.0000     -10.272813      -279.5374
  16   2.0000      -8.079408      -219.8519
  17   2.0000      -8.079323      -219.8496
  18   2.0000      -6.037879      -164.2990
  19   2.0000      -6.037728      -164.2949
  20   2.0000      -6.033892      -164.1905
  21   2.0000      -6.033591      -164.1823
  22   2.0000      -6.030238      -164.0911
  23   2.0000      -6.030008      -164.0848
  24   2.0000      -1.015058       -27.6211
  25   2.0000      -0.989660       -26.9300
  26   2.0000      -0.920909       -25.0592
  27   2.0000      -0.915885       -24.9225
  28   2.0000      -0.869764       -23.6675
  29   2.0000      -0.851270       -23.1642
  30   2.0000      -0.844322       -22.9752
  31   2.0000      -0.818562       -22.2742
  32   2.0000      -0.786440       -21.4001
  33   2.0000      -0.773993       -21.0614
  34   2.0000      -0.705381       -19.1944
  35   2.0000      -0.704143       -19.1607
  36   2.0000      -0.691679       -18.8215
  37   2.0000      -0.665984       -18.1224
  38   2.0000      -0.636680       -17.3249
  39   2.0000      -0.613950       -16.7064
  40   2.0000      -0.599146       -16.3036
  41   2.0000      -0.578968       -15.7545
  42   2.0000      -0.557685       -15.1754
  43   2.0000      -0.553046       -15.0491
  44   2.0000      -0.545847       -14.8533
  45   2.0000      -0.539429       -14.6786
  46   2.0000      -0.519826       -14.1452
  47   2.0000      -0.508809       -13.8454
  48   2.0000      -0.507485       -13.8094
  49   2.0000      -0.498911       -13.5761
  50   2.0000      -0.488333       -13.2882
  51   2.0000      -0.479973       -13.0607
  52   2.0000      -0.476943       -12.9783
  53   2.0000      -0.470771       -12.8103
  54   2.0000      -0.459446       -12.5022
  55   2.0000      -0.449329       -12.2269
  56   2.0000      -0.437231       -11.8977
  57   2.0000      -0.435382       -11.8474
  58   2.0000      -0.432571       -11.7709
  59   2.0000      -0.426302       -11.6003
  60   2.0000      -0.422134       -11.4869
  61   2.0000      -0.420141       -11.4326
  62   2.0000      -0.396620       -10.7926
  63   2.0000      -0.357155        -9.7187
  64   2.0000      -0.331080        -9.0091
  65   2.0000      -0.325762        -8.8644
  66   2.0000      -0.287972        -7.8361
  67   0.0000       0.029800         0.8109
  68   0.0000       0.074662         2.0317
  69   0.0000       0.108331         2.9478
  70   0.0000       0.120495         3.2788
  71   0.0000       0.138024         3.7558

MULLIKEN ATOMIC CHARGES
-----------------------
   0 S :    0.119156
   1 C :   -0.117033
   2 C :   -0.146316
   3 C :    0.008706
   4 C :   -0.134679
   5 H :    0.028180
   6 C :    0.084978
   7 H :   -0.024172
   8 H :    0.023959
   9 C :   -0.025348
  10 H :    0.021640
  11 H :    0.018785
  12 C :   -0.042536
  13 H :    0.020981
  14 H :    0.049194
  15 H :    0.031116
  16 S :    0.102029
  17 C :   -0.111031
  18 C :   -0.040275
  19 C :   -0.078229
  20 C :   -0.138666
  21 H :    0.020755
  22 C :    0.133852
  23 H :    0.008389
  24 H :   -0.004845
  25 C :   -0.057518
  26 H :    0.035475
  27 H :    0.050694
  28 C :   -0.082101
  29 H :    0.047230
  30 H :    0.025974
  31 H :    0.034163
  32 H :    0.064622
  33 H :    0.072873
Sum of atomic charges:   -0.0000000

LOEWDIN ATOMIC CHARGES
----------------------
   0 S :    0.439971
   1 C :   -0.227671
   2 C :   -0.066951
   3 C :   -0.077088
   4 C :   -0.198077
   5 H :    0.037787
   6 C :   -0.042545
   7 H :    0.017754
   8 H :    0.032336
   9 C :   -0.039393
  10 H :    0.027222
  11 H :    0.021553
  12 C :   -0.063516
  13 H :    0.023747
  14 H :    0.031259
  15 H :    0.030007
  16 S :    0.404025
  17 C :   -0.191503
  18 C :   -0.076569
  19 C :   -0.050948
  20 C :   -0.193526
  21 H :    0.028781
  22 C :   -0.022548
  23 H :    0.023050
  24 H :    0.021624
  25 C :   -0.029872
  26 H :    0.025798
  27 H :    0.030220
  28 C :   -0.073109
  29 H :    0.032728
  30 H :    0.015285
  31 H :    0.031231
  32 H :    0.040875
  33 H :    0.038064

  Mayer bond orders larger than 0.100000
B(  0-S ,  1-C ) :   1.1408 B(  0-S ,  4-C ) :   1.1732 B(  1-C ,  2-C ) :   1.6165
B(  1-C , 32-H ) :   0.9603 B(  2-C ,  3-C ) :   1.2385 B(  2-C ,  6-C ) :   1.0210
B(  3-C ,  4-C ) :   1.5695 B(  3-C ,  5-H ) :   0.9889 B(  4-C , 20-C ) :   1.0259
B(  6-C ,  7-H ) :   0.9209 B(  6-C ,  8-H ) :   0.9309 B(  6-C ,  9-C ) :   1.0778
B(  9-C , 10-H ) :   0.9561 B(  9-C , 11-H ) :   0.9473 B(  9-C , 12-C ) :   1.0752
B( 12-C , 13-H ) :   0.9705 B( 12-C , 14-H ) :   0.9779 B( 12-C , 15-H ) :   0.9712
B( 16-S , 17-C ) :   1.1660 B( 16-S , 20-C ) :   1.1387 B( 17-C , 18-C ) :   1.5976
B( 17-C , 20-C ) :   0.1022 B( 17-C , 33-H ) :   0.9606 B( 18-C , 19-C ) :   1.2399
B( 18-C , 21-H ) :   0.9896 B( 19-C , 20-C ) :   1.5836 B( 19-C , 22-C ) :   1.0673
B( 22-C , 23-H ) :   0.9290 B( 22-C , 24-H ) :   0.9194 B( 22-C , 25-C ) :   1.0418
B( 25-C , 26-H ) :   0.9570 B( 25-C , 27-H ) :   0.9566 B( 25-C , 28-C ) :   1.0802
B( 28-C , 29-H ) :   0.9719 B( 28-C , 30-H ) :   0.9720 B( 28-C , 31-H ) :   0.9756

Dispersion correction           -0.014604421
FINAL SINGLE POINT ENERGY     -1339.864165654451

DIPOLE MOMENT
-------------
                                X             Y             Z
Electronic contribution:    -18.17694       7.13041     -16.86131
Nuclear contribution   :     18.60863      -7.08102      17.38180
                        -----------------------------------------
Total Dipole Moment    :      0.43169       0.04939       0.52049
                        -----------------------------------------
Magnitude (a.u.)       :      0.67802
Magnitude (Debye)      :      1.72338

Rotational constants in cm-1:     0.020333     0.008602     0.006766
Rotational constants in MHz :   609.557652   257.881167   202.826874

                             ****ORCA TERMINATED NORMALLY****
TOTAL RUN TIME: 0 days 0 hours 0 minutes 22 seconds 96 msec
