                         Program Version 4.2.1 -  RELEASE  -
|  1> ! wB97X-D3 SP def2-SVP
|  2> %pal
|  3> nprocs 24
|  4> end
|  5>
|  6> * xyz 0 1
|  7> S 	 -116.092 	 46.7291 	 -116.167
|  8> C 	 -116.63 	 45.0684 	 -116.412
|  9> C 	 -116.413 	 44.2491 	 -115.34
| 10> C 	 -116.076 	 45.069 	 -114.192
| 11> C 	 -115.995 	 46.4402 	 -114.432
| 12> H 	 -115.827 	 44.7091 	 -113.175
| 13> C 	 -116.48 	 42.7701 	 -115.354
| 14> H 	 -115.746 	 42.4509 	 -116.177
| 15> H 	 -117.471 	 42.4575 	 -115.81
| 16> C 	 -116.228 	 42.1062 	 -113.972
| 17> H 	 -116.492 	 42.7111 	 -113.189
| 18> H 	 -116.67 	 41.154 	 -113.848
| 19> C 	 -114.758 	 41.9894 	 -113.661
| 20> H 	 -114.487 	 41.6045 	 -112.703
| 21> H 	 -114.386 	 41.215 	 -114.343
| 22> H 	 -114.205 	 42.9074 	 -113.7
| 23> S 	 -114.279 	 48.5846 	 -114.073
| 24> C 	 -113.887 	 49.0677 	 -112.4
| 25> C 	 -114.881 	 48.6429 	 -111.54
| 26> C 	 -115.849 	 47.7518 	 -112.16
| 27> C 	 -115.545 	 47.5158 	 -113.52
| 28> H 	 -114.919 	 48.8762 	 -110.459
| 29> C 	 -116.914 	 47.0562 	 -111.259
| 30> H 	 -117.63 	 46.4926 	 -111.893
| 31> H 	 -117.573 	 47.8219 	 -110.893
| 32> C 	 -116.596 	 46.274 	 -110.043
| 33> H 	 -117.505 	 45.8718 	 -109.552
| 34> H 	 -116.028 	 46.7668 	 -109.193
| 35> C 	 -115.86 	 45.0141 	 -110.541
| 36> H 	 -114.901 	 45.2452 	 -111.096
| 37> H 	 -116.434 	 44.2163 	 -111.079
| 38> H 	 -115.47 	 44.5275 	 -109.63
| 39> H 	 -116.963 	 44.579 	 -117.318
| 40> H 	 -113.116 	 49.8597 	 -112.176
| 41> *
| 42>
| 43>                          ****END OF INPUT****

CARTESIAN COORDINATES (ANGSTROEM)
---------------------------------
  S    -116.092000   46.729100  -116.167000
  C    -116.630000   45.068400  -116.412000
  C    -116.413000   44.249100  -115.340000
  C    -116.076000   45.069000  -114.192000
  C    -115.995000   46.440200  -114.432000
  H    -115.827000   44.709100  -113.175000
  C    -116.480000   42.770100  -115.354000
  H    -115.746000   42.450900  -116.177000
  H    -117.471000   42.457500  -115.810000
  C    -116.228000   42.106200  -113.972000
  H    -116.492000   42.711100  -113.189000
  H    -116.670000   41.154000  -113.848000
  C    -114.758000   41.989400  -113.661000
  H    -114.487000   41.604500  -112.703000
  H    -114.386000   41.215000  -114.343000
  H    -114.205000   42.907400  -113.700000
  S    -114.279000   48.584600  -114.073000
  C    -113.887000   49.067700  -112.400000
  C    -114.881000   48.642900  -111.540000
  C    -115.849000   47.751800  -112.160000
  C    -115.545000   47.515800  -113.520000
  H    -114.919000   48.876200  -110.459000
  C    -116.914000   47.056200  -111.259000
  H    -117.630000   46.492600  -111.893000
  H    -117.573000   47.821900  -110.893000
  C    -116.596000   46.274000  -110.043000
  H    -117.505000   45.871800  -109.552000
  H    -116.028000   46.766800  -109.193000
  C    -115.860000   45.014100  -110.541000
  H    -114.901000   45.245200  -111.096000
  H    -116.434000   44.216300  -111.079000
  H    -115.470000   44.527500  -109.630000
  H    -116.963000   44.579000  -117.318000
  H    -113.116000   49.859700  -112.176000

 Total Charge           Charge          ....    0
 Multiplicity           Mult            ....    1
 Number of Electrons    NEL             ....  134
 Basis Dimension        Dim             ....  322

ORBITAL ENERGIES
----------------

  NO   OCC          E(Eh)            E(eV)
   0   2.0000     -88.966489     -2420.9012
   1   2.0000     -88.965682     -2420.8793
   2   2.0000     -10.334633      -281.2197
   3   2.0000     -10.332882      -281.1720
   4   2.0000     -10.326412      -280.9960
   5   2.0000     -10.312721      -280.6234
   6   2.0000     -10.309411      -280.5333
   7   2.0000     -10.305779      -280.4345
   8   2.0000     -10.301935      -280.3299
   9   2.0000     -10.300112      -280.2803
  10   2.0000     -10.297932      -280.2210
  11   2.0000     -10.296744      -280.1887
  12   2.0000     -10.292080      -280.0617
  13   2.0000     -10.284480      -279.8549
  14   2.0000     -10.279971      -279.7322
  15   2.0000     -10.270120      -279.4642
  16   2.0000      -8.080696      -219.8869
  17   2.0000      -8.080186      -219.8730
  18   2.0000      -6.039332      -164.3386
  19   2.0000      -6.038824      -164.3247
  20   2.0000      -6.035540      -164.2354
  21   2.0000      -6.034850      -164.2166
  22   2.0000      -6.031106      -164.1147
  23   2.0000      -6.030690      -164.1034
  24   2.0000      -1.001847       -27.2616
  25   2.0000      -0.979989       -26.6669
  26   2.0000      -0.918675       -24.9984
  27   2.0000      -0.913846       -24.8670
  28   2.0000      -0.871462       -23.7137
  29   2.0000      -0.844520       -22.9806
  30   2.0000      -0.842140       -22.9158
  31   2.0000      -0.814685       -22.1687
  32   2.0000      -0.781727       -21.2719
  33   2.0000      -0.773009       -21.0346
  34   2.0000      -0.714647       -19.4465
  35   2.0000      -0.697798       -18.9881
  36   2.0000      -0.688966       -18.7477
  37   2.0000      -0.654775       -17.8173
  38   2.0000      -0.635605       -17.2957
  39   2.0000      -0.622239       -16.9320
  40   2.0000      -0.597138       -16.2489
  41   2.0000      -0.569040       -15.4844
  42   2.0000      -0.555315       -15.1109
  43   2.0000      -0.551079       -14.9956
  44   2.0000      -0.544585       -14.8189
  45   2.0000      -0.537538       -14.6271
  46   2.0000      -0.519404       -14.1337
  47   2.0000      -0.514128       -13.9901
  48   2.0000      -0.500923       -13.6308
  49   2.0000      -0.494314       -13.4510
  50   2.0000      -0.491056       -13.3623
  51   2.0000      -0.477329       -12.9888
  52   2.0000      -0.467992       -12.7347
  53   2.0000      -0.465159       -12.6576
  54   2.0000      -0.460190       -12.5224
  55   2.0000      -0.449363       -12.2278
  56   2.0000      -0.442981       -12.0541
  57   2.0000      -0.438267       -11.9259
  58   2.0000      -0.430300       -11.7091
  59   2.0000      -0.424631       -11.5548
  60   2.0000      -0.418646       -11.3919
  61   2.0000      -0.415010       -11.2930
  62   2.0000      -0.407014       -11.0754
  63   2.0000      -0.351316        -9.5598
  64   2.0000      -0.330817        -9.0020
  65   2.0000      -0.323519        -8.8034
  66   2.0000      -0.286205        -7.7880
  67   0.0000       0.024114         0.6562
  68   0.0000       0.065211         1.7745
  69   0.0000       0.095403         2.5960
  70   0.0000       0.117013         3.1841
  71   0.0000       0.130872         3.5612

MULLIKEN ATOMIC CHARGES
-----------------------
   0 S :    0.100740
   1 C :   -0.101936
   2 C :   -0.091777
   3 C :    0.020827
   4 C :   -0.130679
   5 H :   -0.026010
   6 C :    0.023444
   7 H :    0.052799
   8 H :    0.047596
   9 C :    0.017518
  10 H :    0.000104
  11 H :    0.021451
  12 C :   -0.074045
  13 H :    0.019426
  14 H :    0.023669
  15 H :    0.040309
  16 S :    0.090404
  17 C :   -0.114297
  18 C :   -0.033093
  19 C :   -0.055254
  20 C :   -0.135768
  21 H :    0.034990
  22 C :    0.070701
  23 H :    0.028254
  24 H :    0.021251
  25 C :   -0.068263
  26 H :    0.035840
  27 H :    0.043264
  28 C :   -0.112002
  29 H :    0.060974
  30 H :    0.054614
  31 H :    0.021501
  32 H :    0.030062
  33 H :    0.083386
Sum of atomic charges:    0.0000000

LOEWDIN ATOMIC CHARGES
----------------------
   0 S :    0.389645
   1 C :   -0.192524
   2 C :   -0.064552
   3 C :   -0.065907
   4 C :   -0.186671
   5 H :    0.029639
   6 C :   -0.037780
   7 H :    0.045719
   8 H :    0.041817
   9 C :   -0.031026
  10 H :    0.011635
  11 H :    0.024302
  12 C :   -0.062103
  13 H :    0.021281
  14 H :    0.024442
  15 H :    0.023592
  16 S :    0.386411
  17 C :   -0.184459
  18 C :   -0.071237
  19 C :   -0.056624
  20 C :   -0.195036
  21 H :    0.037060
  22 C :   -0.043961
  23 H :    0.037902
  24 H :    0.030715
  25 C :   -0.047396
  26 H :    0.034988
  27 H :    0.031353
  28 C :   -0.083330
  29 H :    0.031959
  30 H :    0.027578
  31 H :    0.023771
  32 H :    0.026719
  33 H :    0.042078

  Mayer bond orders larger than 0.100000
B(  0-S ,  1-C ) :   1.1268 B(  0-S ,  4-C ) :   1.1338 B(  1-C ,  2-C ) :   1.6444
B(  1-C , 32-H ) :   0.9651 B(  2-C ,  3-C ) :   1.2281 B(  2-C ,  6-C ) :   1.0085
B(  3-C ,  4-C ) :   1.5842 B(  3-C ,  5-H ) :   0.9731 B(  4-C , 20-C ) :   1.0403
B(  6-C ,  7-H ) :   0.9389 B(  6-C ,  8-H ) :   0.9368 B(  6-C ,  9-C ) :   1.0667
B(  9-C , 10-H ) :   0.9568 B(  9-C , 11-H ) :   0.9514 B(  9-C , 12-C ) :   1.0736
B( 12-C , 13-H ) :   0.9723 B( 12-C , 14-H ) :   0.9748 B( 12-C , 15-H ) :   0.9753
B( 16-S , 17-C ) :   1.1338 B( 16-S , 20-C ) :   1.1390 B( 17-C , 18-C ) :   1.6164
B( 17-C , 33-H ) :   0.9609 B( 18-C , 19-C ) :   1.2307 B( 18-C , 21-H ) :   0.9842
B( 19-C , 20-C ) :   1.5926 B( 19-C , 22-C ) :   1.0398 B( 22-C , 23-H ) :   0.9342
B( 22-C , 24-H ) :   0.9243 B( 22-C , 25-C ) :   1.0849 B( 25-C , 26-H ) :   0.9436
B( 25-C , 27-H ) :   0.9521 B( 25-C , 28-C ) :   1.0791 B( 28-C , 29-H ) :   0.9625
B( 28-C , 30-H ) :   0.9639 B( 28-C , 31-H ) :   0.9660

Dispersion correction           -0.015708058
FINAL SINGLE POINT ENERGY     -1339.849293909649

DIPOLE MOMENT
-------------
                                X             Y             Z
Electronic contribution:      3.09142      23.99710     -17.65109
Nuclear contribution   :     -3.18603     -24.56641      18.29911
                        -----------------------------------------
Total Dipole Moment    :     -0.09460      -0.56931       0.64802
                        -----------------------------------------
Magnitude (a.u.)       :      0.86775
Magnitude (Debye)      :      2.20565

Rotational constants in cm-1:     0.017240     0.010729     0.007612
Rotational constants in MHz :   516.852794   321.643252   228.189083

                             ****ORCA TERMINATED NORMALLY****
TOTAL RUN TIME: 0 days 0 hours 0 minutes 23 seconds 178 msec
