                         Program Version 4.2.1 -  RELEASE  -
|  1> ! wB97X-D3 SP def2-SVP
|  2> %pal
|  3> nprocs 24
|  4> end
|  5>
|  6> * xyz 0 1
|  7> S 	 0.882885 	 -24.5488 	 -110.494
|  8> C 	 1.26291 	 -23.4771 	 -111.799
|  9> C 	 0.27128 	 -22.4642 	 -111.946
| 10> C 	 -0.878752 	 -22.67 	 -111.12
| 11> C 	 -0.775233 	 -23.8409 	 -110.334
| 12> H 	 -1.63377 	 -22.0355 	 -110.853
| 13> C 	 0.404861 	 -21.2636 	 -112.859
| 14> H 	 1.40485 	 -20.9216 	 -112.71
| 15> H 	 -0.160736 	 -20.472 	 -112.416
| 16> C 	 0.151109 	 -21.2907 	 -114.37
| 17> H 	 -0.887368 	 -21.6605 	 -114.562
| 18> H 	 0.343614 	 -20.2415 	 -114.628
| 19> C 	 1.0895 	 -22.1159 	 -115.213
| 20> H 	 1.17466 	 -23.1384 	 -114.788
| 21> H 	 0.703084 	 -22.2164 	 -116.219
| 22> H 	 2.11284 	 -21.604 	 -115.344
| 23> S 	 -1.24729 	 -24.7579 	 -107.847
| 24> C 	 -2.86975 	 -25.3043 	 -107.34
| 25> C 	 -3.77665 	 -25.0144 	 -108.358
| 26> C 	 -3.16824 	 -24.4253 	 -109.506
| 27> C 	 -1.78119 	 -24.2917 	 -109.397
| 28> H 	 -4.80709 	 -25.3462 	 -108.178
| 29> C 	 -3.9183 	 -24.2063 	 -110.773
| 30> H 	 -3.44025 	 -23.5367 	 -111.39
| 31> H 	 -4.93397 	 -23.7633 	 -110.485
| 32> C 	 -4.32219 	 -25.4871 	 -111.486
| 33> H 	 -5.21226 	 -25.3374 	 -112.12
| 34> H 	 -4.72861 	 -26.1537 	 -110.724
| 35> C 	 -3.1653 	 -26.0417 	 -112.321
| 36> H 	 -2.15345 	 -25.8195 	 -111.91
| 37> H 	 -3.16182 	 -25.7275 	 -113.373
| 38> H 	 -3.20506 	 -27.1384 	 -112.436
| 39> H 	 2.0717 	 -23.5772 	 -112.518
| 40> H 	 -3.17146 	 -25.5734 	 -106.364
| 41> *
| 42>
| 43>                          ****END OF INPUT****

CARTESIAN COORDINATES (ANGSTROEM)
---------------------------------
  S      0.882885  -24.548800  -110.494000
  C      1.262910  -23.477100  -111.799000
  C      0.271280  -22.464200  -111.946000
  C     -0.878752  -22.670000  -111.120000
  C     -0.775233  -23.840900  -110.334000
  H     -1.633770  -22.035500  -110.853000
  C      0.404861  -21.263600  -112.859000
  H      1.404850  -20.921600  -112.710000
  H     -0.160736  -20.472000  -112.416000
  C      0.151109  -21.290700  -114.370000
  H     -0.887368  -21.660500  -114.562000
  H      0.343614  -20.241500  -114.628000
  C      1.089500  -22.115900  -115.213000
  H      1.174660  -23.138400  -114.788000
  H      0.703084  -22.216400  -116.219000
  H      2.112840  -21.604000  -115.344000
  S     -1.247290  -24.757900  -107.847000
  C     -2.869750  -25.304300  -107.340000
  C     -3.776650  -25.014400  -108.358000
  C     -3.168240  -24.425300  -109.506000
  C     -1.781190  -24.291700  -109.397000
  H     -4.807090  -25.346200  -108.178000
  C     -3.918300  -24.206300  -110.773000
  H     -3.440250  -23.536700  -111.390000
  H     -4.933970  -23.763300  -110.485000
  C     -4.322190  -25.487100  -111.486000
  H     -5.212260  -25.337400  -112.120000
  H     -4.728610  -26.153700  -110.724000
  C     -3.165300  -26.041700  -112.321000
  H     -2.153450  -25.819500  -111.910000
  H     -3.161820  -25.727500  -113.373000
  H     -3.205060  -27.138400  -112.436000
  H      2.071700  -23.577200  -112.518000
  H     -3.171460  -25.573400  -106.364000

 Total Charge           Charge          ....    0
 Multiplicity           Mult            ....    1
 Number of Electrons    NEL             ....  134
 Basis Dimension        Dim             ....  322

ORBITAL ENERGIES
----------------

  NO   OCC          E(Eh)            E(eV)
   0   2.0000     -88.974356     -2421.1153
   1   2.0000     -88.964875     -2420.8573
   2   2.0000     -10.338361      -281.3211
   3   2.0000     -10.326928      -281.0100
   4   2.0000     -10.318821      -280.7894
   5   2.0000     -10.317801      -280.7616
   6   2.0000     -10.307364      -280.4776
   7   2.0000     -10.303049      -280.3602
   8   2.0000     -10.298852      -280.2460
   9   2.0000     -10.293774      -280.1078
  10   2.0000     -10.290536      -280.0197
  11   2.0000     -10.284946      -279.8676
  12   2.0000     -10.284048      -279.8432
  13   2.0000     -10.283434      -279.8265
  14   2.0000     -10.283207      -279.8203
  15   2.0000     -10.272559      -279.5305
  16   2.0000      -8.087815      -220.0806
  17   2.0000      -8.079888      -219.8649
  18   2.0000      -6.046413      -164.5313
  19   2.0000      -6.042443      -164.4232
  20   2.0000      -6.038605      -164.3188
  21   2.0000      -6.038364      -164.3122
  22   2.0000      -6.034230      -164.1997
  23   2.0000      -6.030792      -164.1062
  24   2.0000      -1.007013       -27.4022
  25   2.0000      -0.980142       -26.6710
  26   2.0000      -0.912925       -24.8419
  27   2.0000      -0.910459       -24.7749
  28   2.0000      -0.873019       -23.7561
  29   2.0000      -0.854456       -23.2509
  30   2.0000      -0.841632       -22.9020
  31   2.0000      -0.815961       -22.2034
  32   2.0000      -0.782202       -21.2848
  33   2.0000      -0.770577       -20.9685
  34   2.0000      -0.708258       -19.2727
  35   2.0000      -0.699921       -19.0458
  36   2.0000      -0.692526       -18.8446
  37   2.0000      -0.660507       -17.9733
  38   2.0000      -0.645168       -17.5559
  39   2.0000      -0.618188       -16.8217
  40   2.0000      -0.597129       -16.2487
  41   2.0000      -0.575000       -15.6465
  42   2.0000      -0.553001       -15.0479
  43   2.0000      -0.549529       -14.9534
  44   2.0000      -0.545736       -14.8502
  45   2.0000      -0.530141       -14.4259
  46   2.0000      -0.522481       -14.2174
  47   2.0000      -0.513786       -13.9808
  48   2.0000      -0.502949       -13.6859
  49   2.0000      -0.497652       -13.5418
  50   2.0000      -0.490093       -13.3361
  51   2.0000      -0.482586       -13.1318
  52   2.0000      -0.470768       -12.8102
  53   2.0000      -0.464676       -12.6445
  54   2.0000      -0.459004       -12.4901
  55   2.0000      -0.448308       -12.1991
  56   2.0000      -0.440875       -11.9968
  57   2.0000      -0.431643       -11.7456
  58   2.0000      -0.429724       -11.6934
  59   2.0000      -0.424959       -11.5637
  60   2.0000      -0.421229       -11.4622
  61   2.0000      -0.414870       -11.2892
  62   2.0000      -0.402760       -10.9597
  63   2.0000      -0.356103        -9.6901
  64   2.0000      -0.333089        -9.0638
  65   2.0000      -0.327642        -8.9156
  66   2.0000      -0.282089        -7.6760
  67   0.0000       0.018102         0.4926
  68   0.0000       0.064098         1.7442
  69   0.0000       0.100910         2.7459
  70   0.0000       0.123203         3.3525
  71   0.0000       0.127278         3.4634

MULLIKEN ATOMIC CHARGES
-----------------------
   0 S :    0.127069
   1 C :   -0.118368
   2 C :   -0.105635
   3 C :    0.052941
   4 C :   -0.160911
   5 H :    0.002135
   6 C :    0.080818
   7 H :    0.009252
   8 H :    0.012307
   9 C :   -0.049903
  10 H :    0.037952
  11 H :    0.032979
  12 C :   -0.082218
  13 H :    0.038143
  14 H :    0.035668
  15 H :    0.038753
  16 S :    0.095878
  17 C :   -0.086414
  18 C :   -0.057015
  19 C :   -0.027045
  20 C :   -0.147635
  21 H :    0.034155
  22 C :    0.074551
  23 H :   -0.008732
  24 H :    0.025093
  25 C :   -0.041183
  26 H :    0.025209
  27 H :    0.018822
  28 C :   -0.064358
  29 H :    0.046318
  30 H :    0.031469
  31 H :    0.025913
  32 H :    0.058308
  33 H :    0.045684
Sum of atomic charges:   -0.0000000

LOEWDIN ATOMIC CHARGES
----------------------
   0 S :    0.401537
   1 C :   -0.211306
   2 C :   -0.057370
   3 C :   -0.051633
   4 C :   -0.174625
   5 H :    0.020122
   6 C :   -0.039344
   7 H :    0.028277
   8 H :    0.030355
   9 C :   -0.041059
  10 H :    0.029111
  11 H :    0.030736
  12 C :   -0.076122
  13 H :    0.026036
  14 H :    0.026366
  15 H :    0.031991
  16 S :    0.410140
  17 C :   -0.174508
  18 C :   -0.066290
  19 C :   -0.062105
  20 C :   -0.211279
  21 H :    0.037766
  22 C :   -0.029386
  23 H :    0.012101
  24 H :    0.040075
  25 C :   -0.040405
  26 H :    0.025337
  27 H :    0.022648
  28 C :   -0.075779
  29 H :    0.031175
  30 H :    0.027083
  31 H :    0.026772
  32 H :    0.031102
  33 H :    0.022480

  Mayer bond orders larger than 0.100000
B(  0-S ,  1-C ) :   1.1459 B(  0-S ,  4-C ) :   1.1387 B(  1-C ,  2-C ) :   1.5729
B(  1-C ,  4-C ) :   0.1079 B(  1-C , 32-H ) :   0.9657 B(  2-C ,  3-C ) :   1.2567
B(  2-C ,  6-C ) :   1.0210 B(  3-C ,  4-C ) :   1.5429 B(  3-C ,  5-H ) :   0.9962
B(  4-C , 20-C ) :   1.0710 B(  6-C ,  7-H ) :   0.9319 B(  6-C ,  8-H ) :   0.9376
B(  6-C ,  9-C ) :   1.0711 B(  9-C , 10-H ) :   0.9556 B(  9-C , 11-H ) :   0.9502
B(  9-C , 12-C ) :   1.0901 B( 12-C , 13-H ) :   0.9700 B( 12-C , 14-H ) :   0.9721
B( 12-C , 15-H ) :   0.9728 B( 16-S , 17-C ) :   1.1442 B( 16-S , 20-C ) :   1.1529
B( 17-C , 18-C ) :   1.6092 B( 17-C , 33-H ) :   0.9725 B( 18-C , 19-C ) :   1.2404
B( 18-C , 21-H ) :   0.9855 B( 19-C , 20-C ) :   1.5529 B( 19-C , 22-C ) :   1.0745
B( 22-C , 23-H ) :   0.9328 B( 22-C , 24-H ) :   0.9222 B( 22-C , 25-C ) :   1.0780
B( 25-C , 26-H ) :   0.9545 B( 25-C , 27-H ) :   0.9550 B( 25-C , 28-C ) :   1.0606
B( 28-C , 29-H ) :   0.9791 B( 28-C , 30-H ) :   0.9746 B( 28-C , 31-H ) :   0.9727

Dispersion correction           -0.014964598
FINAL SINGLE POINT ENERGY     -1339.865645832978

DIPOLE MOMENT
-------------
                                X             Y             Z
Electronic contribution:      7.33940      -5.94127      25.35736
Nuclear contribution   :     -7.70793       6.27260     -25.74729
                        -----------------------------------------
Total Dipole Moment    :     -0.36853       0.33134      -0.38993
                        -----------------------------------------
Magnitude (a.u.)       :      0.63059
Magnitude (Debye)      :      1.60282

Rotational constants in cm-1:     0.022051     0.008461     0.007046
Rotational constants in MHz :   661.079641   253.647320   211.236402

                             ****ORCA TERMINATED NORMALLY****
TOTAL RUN TIME: 0 days 0 hours 0 minutes 21 seconds 52 msec
