                         Program Version 4.2.1 -  RELEASE  -
|  1> ! wB97X-D3 SP def2-SVP
|  2> %pal
|  3> nprocs 24
|  4> end
|  5>
|  6> * xyz 0 1
|  7> S 	 -102.419 	 20.7829 	 -123.185
|  8> C 	 -103.525 	 22.0558 	 -122.782
|  9> C 	 -104.042 	 21.8382 	 -121.547
| 10> C 	 -103.434 	 20.6783 	 -120.9
| 11> C 	 -102.496 	 20.0237 	 -121.631
| 12> H 	 -103.674 	 20.5014 	 -119.864
| 13> C 	 -104.975 	 22.6954 	 -120.807
| 14> H 	 -105.536 	 22.0951 	 -120.019
| 15> H 	 -105.676 	 23.1447 	 -121.498
| 16> C 	 -104.221 	 23.9461 	 -120.235
| 17> H 	 -103.335 	 23.6035 	 -119.545
| 18> H 	 -103.795 	 24.2577 	 -121.187
| 19> C 	 -105.105 	 25.0422 	 -119.712
| 20> H 	 -105.817 	 25.5502 	 -120.382
| 21> H 	 -105.785 	 24.4944 	 -119.006
| 22> H 	 -104.493 	 25.7998 	 -119.242
| 23> S 	 -100.24 	 19.0097 	 -120.416
| 24> C 	 -99.764 	 17.3309 	 -120.714
| 25> C 	 -100.769 	 16.6088 	 -121.339
| 26> C 	 -101.796 	 17.5508 	 -121.754
| 27> C 	 -101.714 	 18.8601 	 -121.327
| 28> H 	 -100.779 	 15.589 	 -121.67
| 29> C 	 -102.818 	 16.9953 	 -122.774
| 30> H 	 -103.671 	 17.5623 	 -122.788
| 31> H 	 -103.126 	 15.9799 	 -122.443
| 32> C 	 -102.413 	 16.879 	 -124.174
| 33> H 	 -101.562 	 16.1865 	 -124.254
| 34> H 	 -102.146 	 17.8267 	 -124.565
| 35> C 	 -103.572 	 16.4412 	 -125.088
| 36> H 	 -104.186 	 17.236 	 -125.286
| 37> H 	 -103.995 	 15.4867 	 -124.76
| 38> H 	 -103.219 	 16.2595 	 -126.06
| 39> H 	 -103.64 	 22.9308 	 -123.413
| 40> H 	 -98.8334 	 16.9463 	 -120.362
| 41> *
| 42>
| 43>                          ****END OF INPUT****

CARTESIAN COORDINATES (ANGSTROEM)
---------------------------------
  S    -102.419000   20.782900  -123.185000
  C    -103.525000   22.055800  -122.782000
  C    -104.042000   21.838200  -121.547000
  C    -103.434000   20.678300  -120.900000
  C    -102.496000   20.023700  -121.631000
  H    -103.674000   20.501400  -119.864000
  C    -104.975000   22.695400  -120.807000
  H    -105.536000   22.095100  -120.019000
  H    -105.676000   23.144700  -121.498000
  C    -104.221000   23.946100  -120.235000
  H    -103.335000   23.603500  -119.545000
  H    -103.795000   24.257700  -121.187000
  C    -105.105000   25.042200  -119.712000
  H    -105.817000   25.550200  -120.382000
  H    -105.785000   24.494400  -119.006000
  H    -104.493000   25.799800  -119.242000
  S    -100.240000   19.009700  -120.416000
  C    -99.764000   17.330900  -120.714000
  C    -100.769000   16.608800  -121.339000
  C    -101.796000   17.550800  -121.754000
  C    -101.714000   18.860100  -121.327000
  H    -100.779000   15.589000  -121.670000
  C    -102.818000   16.995300  -122.774000
  H    -103.671000   17.562300  -122.788000
  H    -103.126000   15.979900  -122.443000
  C    -102.413000   16.879000  -124.174000
  H    -101.562000   16.186500  -124.254000
  H    -102.146000   17.826700  -124.565000
  C    -103.572000   16.441200  -125.088000
  H    -104.186000   17.236000  -125.286000
  H    -103.995000   15.486700  -124.760000
  H    -103.219000   16.259500  -126.060000
  H    -103.640000   22.930800  -123.413000
  H    -98.833400   16.946300  -120.362000

 Total Charge           Charge          ....    0
 Multiplicity           Mult            ....    1
 Number of Electrons    NEL             ....  134
 Basis Dimension        Dim             ....  322

ORBITAL ENERGIES
----------------

  NO   OCC          E(Eh)            E(eV)
   0   2.0000     -88.963437     -2420.8182
   1   2.0000     -88.961400     -2420.7628
   2   2.0000     -10.327215      -281.0178
   3   2.0000     -10.323518      -280.9172
   4   2.0000     -10.323340      -280.9124
   5   2.0000     -10.313300      -280.6392
   6   2.0000     -10.303468      -280.3716
   7   2.0000     -10.298321      -280.2316
   8   2.0000     -10.297554      -280.2107
   9   2.0000     -10.295019      -280.1417
  10   2.0000     -10.294090      -280.1164
  11   2.0000     -10.293362      -280.0966
  12   2.0000     -10.283222      -279.8207
  13   2.0000     -10.275460      -279.6095
  14   2.0000     -10.272623      -279.5323
  15   2.0000     -10.263677      -279.2889
  16   2.0000      -8.078310      -219.8220
  17   2.0000      -8.076983      -219.7859
  18   2.0000      -6.036933      -164.2733
  19   2.0000      -6.035521      -164.2349
  20   2.0000      -6.032718      -164.1586
  21   2.0000      -6.031288      -164.1197
  22   2.0000      -6.029003      -164.0575
  23   2.0000      -6.027715      -164.0225
  24   2.0000      -1.011630       -27.5279
  25   2.0000      -0.987520       -26.8718
  26   2.0000      -0.918224       -24.9861
  27   2.0000      -0.915308       -24.9068
  28   2.0000      -0.875401       -23.8209
  29   2.0000      -0.849621       -23.1194
  30   2.0000      -0.845908       -23.0183
  31   2.0000      -0.820500       -22.3270
  32   2.0000      -0.784059       -21.3353
  33   2.0000      -0.772222       -21.0132
  34   2.0000      -0.705942       -19.2097
  35   2.0000      -0.695354       -18.9215
  36   2.0000      -0.691331       -18.8121
  37   2.0000      -0.669574       -18.2200
  38   2.0000      -0.645896       -17.5757
  39   2.0000      -0.623901       -16.9772
  40   2.0000      -0.601553       -16.3691
  41   2.0000      -0.577987       -15.7278
  42   2.0000      -0.575045       -15.6478
  43   2.0000      -0.559471       -15.2240
  44   2.0000      -0.532753       -14.4969
  45   2.0000      -0.522969       -14.2307
  46   2.0000      -0.522710       -14.2237
  47   2.0000      -0.513765       -13.9803
  48   2.0000      -0.507697       -13.8151
  49   2.0000      -0.500835       -13.6284
  50   2.0000      -0.498527       -13.5656
  51   2.0000      -0.484298       -13.1784
  52   2.0000      -0.477815       -13.0020
  53   2.0000      -0.465215       -12.6591
  54   2.0000      -0.461859       -12.5678
  55   2.0000      -0.448709       -12.2100
  56   2.0000      -0.441388       -12.0108
  57   2.0000      -0.431027       -11.7288
  58   2.0000      -0.429046       -11.6749
  59   2.0000      -0.420899       -11.4532
  60   2.0000      -0.417553       -11.3622
  61   2.0000      -0.408893       -11.1265
  62   2.0000      -0.404327       -11.0023
  63   2.0000      -0.339380        -9.2350
  64   2.0000      -0.331447        -9.0191
  65   2.0000      -0.320515        -8.7217
  66   2.0000      -0.310805        -8.4574
  67   0.0000       0.048528         1.3205
  68   0.0000       0.052526         1.4293
  69   0.0000       0.108392         2.9495
  70   0.0000       0.123735         3.3670
  71   0.0000       0.127439         3.4678

MULLIKEN ATOMIC CHARGES
-----------------------
   0 S :    0.106990
   1 C :   -0.136668
   2 C :   -0.091043
   3 C :    0.049029
   4 C :   -0.150521
   5 H :    0.005184
   6 C :    0.044816
   7 H :    0.037924
   8 H :    0.017756
   9 C :   -0.109971
  10 H :    0.054204
  11 H :    0.012587
  12 C :   -0.023922
  13 H :    0.035382
  14 H :    0.027848
  15 H :    0.044411
  16 S :    0.100878
  17 C :   -0.084351
  18 C :    0.008129
  19 C :   -0.057646
  20 C :   -0.137157
  21 H :    0.023983
  22 C :    0.083227
  23 H :   -0.007683
  24 H :    0.010790
  25 C :   -0.050885
  26 H :    0.014792
  27 H :    0.005914
  28 C :    0.004738
  29 H :    0.017403
  30 H :    0.027860
  31 H :    0.005887
  32 H :    0.056876
  33 H :    0.053236
Sum of atomic charges:   -0.0000000

LOEWDIN ATOMIC CHARGES
----------------------
   0 S :    0.417683
   1 C :   -0.197086
   2 C :   -0.068941
   3 C :   -0.053388
   4 C :   -0.202936
   5 H :    0.029252
   6 C :   -0.039305
   7 H :    0.032550
   8 H :    0.029201
   9 C :   -0.047214
  10 H :    0.038088
  11 H :    0.018904
  12 C :   -0.073080
  13 H :    0.028644
  14 H :    0.030522
  15 H :    0.029712
  16 S :    0.403736
  17 C :   -0.160599
  18 C :   -0.065354
  19 C :   -0.042731
  20 C :   -0.218428
  21 H :    0.032920
  22 C :   -0.032054
  23 H :    0.014758
  24 H :    0.029546
  25 C :   -0.034012
  26 H :    0.018234
  27 H :    0.014727
  28 C :   -0.052231
  29 H :    0.017552
  30 H :    0.025758
  31 H :    0.022649
  32 H :    0.030632
  33 H :    0.022291

  Mayer bond orders larger than 0.100000
B(  0-S ,  1-C ) :   1.1412 B(  0-S ,  4-C ) :   1.1493 B(  1-C ,  2-C ) :   1.6064
B(  1-C , 32-H ) :   0.9687 B(  2-C ,  3-C ) :   1.2371 B(  2-C ,  6-C ) :   1.0533
B(  3-C ,  4-C ) :   1.5954 B(  3-C ,  5-H ) :   1.0000 B(  4-C , 20-C ) :   1.0043
B(  6-C ,  7-H ) :   0.9339 B(  6-C ,  8-H ) :   0.9360 B(  6-C ,  9-C ) :   1.0440
B(  9-C , 10-H ) :   0.9549 B(  9-C , 11-H ) :   0.9559 B(  9-C , 12-C ) :   1.0760
B( 12-C , 13-H ) :   0.9717 B( 12-C , 14-H ) :   0.9722 B( 12-C , 15-H ) :   0.9718
B( 16-S , 17-C ) :   1.1719 B( 16-S , 20-C ) :   1.1177 B( 17-C , 18-C ) :   1.5812
B( 17-C , 33-H ) :   0.9710 B( 18-C , 19-C ) :   1.2362 B( 18-C , 21-H ) :   0.9919
B( 19-C , 20-C ) :   1.6317 B( 19-C , 22-C ) :   1.0492 B( 22-C , 23-H ) :   0.9271
B( 22-C , 24-H ) :   0.9288 B( 22-C , 25-C ) :   1.0874 B( 25-C , 26-H ) :   0.9516
B( 25-C , 27-H ) :   0.9429 B( 25-C , 28-C ) :   1.0963 B( 28-C , 29-H ) :   0.9711
B( 28-C , 30-H ) :   0.9737 B( 28-C , 31-H ) :   0.9656

Dispersion correction           -0.014079938
FINAL SINGLE POINT ENERGY     -1339.860675163844

DIPOLE MOMENT
-------------
                                X             Y             Z
Electronic contribution:     16.16680      -4.10613       3.70378
Nuclear contribution   :    -16.45727       4.18077      -3.76660
                        -----------------------------------------
Total Dipole Moment    :     -0.29047       0.07464      -0.06283
                        -----------------------------------------
Magnitude (a.u.)       :      0.30642
Magnitude (Debye)      :      0.77886

Rotational constants in cm-1:     0.022086     0.007581     0.006196
Rotational constants in MHz :   662.119671   227.268976   185.748370

                             ****ORCA TERMINATED NORMALLY****
TOTAL RUN TIME: 0 days 0 hours 0 minutes 21 seconds 215 msec
