                         Program Version 4.2.1 -  RELEASE  -
|  1> ! wB97X-D3 SP def2-SVP
|  2> %pal
|  3> nprocs 24
|  4> end
|  5>
|  6> * xyz 0 1
|  7> S 	 -130.986 	 16.5968 	 -16.5696
|  8> C 	 -130.681 	 14.8944 	 -16.7854
|  9> C 	 -131.843 	 14.3063 	 -17.2414
| 10> C 	 -132.954 	 15.1849 	 -17.3416
| 11> C 	 -132.662 	 16.4584 	 -16.9353
| 12> H 	 -133.93 	 14.8161 	 -17.7042
| 13> C 	 -132.035 	 12.8424 	 -17.4854
| 14> H 	 -131.074 	 12.4342 	 -17.7091
| 15> H 	 -132.645 	 12.7481 	 -18.3844
| 16> C 	 -132.802 	 12.0263 	 -16.4351
| 17> H 	 -132.796 	 11.035 	 -16.8071
| 18> H 	 -132.253 	 11.9319 	 -15.5344
| 19> C 	 -134.178 	 12.6273 	 -16.0628
| 20> H 	 -134.674 	 11.8806 	 -15.495
| 21> H 	 -134.055 	 13.4466 	 -15.3724
| 22> H 	 -134.825 	 12.7556 	 -16.9796
| 23> S 	 -133.635 	 18.2866 	 -15.18
| 24> C 	 -134.884 	 19.3832 	 -15.7329
| 25> C 	 -135.01 	 19.3999 	 -17.1283
| 26> C 	 -134.141 	 18.4649 	 -17.7135
| 27> C 	 -133.476 	 17.6616 	 -16.7961
| 28> H 	 -135.614 	 20.1464 	 -17.5939
| 29> C 	 -133.954 	 18.2587 	 -19.1616
| 30> H 	 -134.67 	 17.5716 	 -19.5311
| 31> H 	 -132.999 	 17.783 	 -19.3229
| 32> C 	 -134.062 	 19.5425 	 -19.9794
| 33> H 	 -133.217 	 20.2186 	 -19.7445
| 34> H 	 -135.05 	 19.9305 	 -19.7298
| 35> C 	 -133.975 	 19.3477 	 -21.4417
| 36> H 	 -133.105 	 18.8004 	 -21.6688
| 37> H 	 -133.964 	 20.2776 	 -21.9979
| 38> H 	 -134.879 	 18.853 	 -21.7409
| 39> H 	 -129.759 	 14.4215 	 -16.5921
| 40> H 	 -135.473 	 20.0057 	 -15.0618
| 41> *
| 42>
| 43>                          ****END OF INPUT****

CARTESIAN COORDINATES (ANGSTROEM)
---------------------------------
  S    -130.986000   16.596800  -16.569600
  C    -130.681000   14.894400  -16.785400
  C    -131.843000   14.306300  -17.241400
  C    -132.954000   15.184900  -17.341600
  C    -132.662000   16.458400  -16.935300
  H    -133.930000   14.816100  -17.704200
  C    -132.035000   12.842400  -17.485400
  H    -131.074000   12.434200  -17.709100
  H    -132.645000   12.748100  -18.384400
  C    -132.802000   12.026300  -16.435100
  H    -132.796000   11.035000  -16.807100
  H    -132.253000   11.931900  -15.534400
  C    -134.178000   12.627300  -16.062800
  H    -134.674000   11.880600  -15.495000
  H    -134.055000   13.446600  -15.372400
  H    -134.825000   12.755600  -16.979600
  S    -133.635000   18.286600  -15.180000
  C    -134.884000   19.383200  -15.732900
  C    -135.010000   19.399900  -17.128300
  C    -134.141000   18.464900  -17.713500
  C    -133.476000   17.661600  -16.796100
  H    -135.614000   20.146400  -17.593900
  C    -133.954000   18.258700  -19.161600
  H    -134.670000   17.571600  -19.531100
  H    -132.999000   17.783000  -19.322900
  C    -134.062000   19.542500  -19.979400
  H    -133.217000   20.218600  -19.744500
  H    -135.050000   19.930500  -19.729800
  C    -133.975000   19.347700  -21.441700
  H    -133.105000   18.800400  -21.668800
  H    -133.964000   20.277600  -21.997900
  H    -134.879000   18.853000  -21.740900
  H    -129.759000   14.421500  -16.592100
  H    -135.473000   20.005700  -15.061800

 Total Charge           Charge          ....    0
 Multiplicity           Mult            ....    1
 Number of Electrons    NEL             ....  134
 Basis Dimension        Dim             ....  322

ORBITAL ENERGIES
----------------

  NO   OCC          E(Eh)            E(eV)
   0   2.0000     -88.964892     -2420.8578
   1   2.0000     -88.959807     -2420.7194
   2   2.0000     -10.324524      -280.9446
   3   2.0000     -10.319051      -280.7957
   4   2.0000     -10.318638      -280.7844
   5   2.0000     -10.307719      -280.4873
   6   2.0000     -10.297193      -280.2009
   7   2.0000     -10.292868      -280.0832
   8   2.0000     -10.292533      -280.0741
   9   2.0000     -10.290311      -280.0136
  10   2.0000     -10.282769      -279.8084
  11   2.0000     -10.279586      -279.7218
  12   2.0000     -10.279027      -279.7065
  13   2.0000     -10.277819      -279.6737
  14   2.0000     -10.277321      -279.6601
  15   2.0000     -10.265513      -279.3388
  16   2.0000      -8.079810      -219.8628
  17   2.0000      -8.075427      -219.7435
  18   2.0000      -6.038078      -164.3045
  19   2.0000      -6.034363      -164.2034
  20   2.0000      -6.033916      -164.1912
  21   2.0000      -6.030738      -164.1047
  22   2.0000      -6.029674      -164.0758
  23   2.0000      -6.026287      -163.9836
  24   2.0000      -1.010500       -27.4971
  25   2.0000      -0.987202       -26.8631
  26   2.0000      -0.919125       -25.0107
  27   2.0000      -0.912842       -24.8397
  28   2.0000      -0.868284       -23.6272
  29   2.0000      -0.858339       -23.3566
  30   2.0000      -0.842596       -22.9282
  31   2.0000      -0.818334       -22.2680
  32   2.0000      -0.785774       -21.3820
  33   2.0000      -0.770760       -20.9734
  34   2.0000      -0.705672       -19.2023
  35   2.0000      -0.698569       -19.0090
  36   2.0000      -0.698141       -18.9974
  37   2.0000      -0.654041       -17.7974
  38   2.0000      -0.641857       -17.4658
  39   2.0000      -0.619434       -16.8557
  40   2.0000      -0.599357       -16.3093
  41   2.0000      -0.582625       -15.8540
  42   2.0000      -0.573976       -15.6187
  43   2.0000      -0.550860       -14.9897
  44   2.0000      -0.543188       -14.7809
  45   2.0000      -0.528541       -14.3823
  46   2.0000      -0.519183       -14.1277
  47   2.0000      -0.511866       -13.9286
  48   2.0000      -0.511003       -13.9051
  49   2.0000      -0.501416       -13.6442
  50   2.0000      -0.489601       -13.3227
  51   2.0000      -0.477879       -13.0038
  52   2.0000      -0.474220       -12.9042
  53   2.0000      -0.461937       -12.5699
  54   2.0000      -0.458991       -12.4898
  55   2.0000      -0.455801       -12.4030
  56   2.0000      -0.442770       -12.0484
  57   2.0000      -0.432738       -11.7754
  58   2.0000      -0.428639       -11.6639
  59   2.0000      -0.426300       -11.6002
  60   2.0000      -0.421210       -11.4617
  61   2.0000      -0.415015       -11.2931
  62   2.0000      -0.410421       -11.1681
  63   2.0000      -0.339445        -9.2368
  64   2.0000      -0.326920        -8.8959
  65   2.0000      -0.325003        -8.8438
  66   2.0000      -0.295722        -8.0470
  67   0.0000       0.038518         1.0481
  68   0.0000       0.061959         1.6860
  69   0.0000       0.116211         3.1623
  70   0.0000       0.122070         3.3217
  71   0.0000       0.137489         3.7413

MULLIKEN ATOMIC CHARGES
-----------------------
   0 S :    0.104890
   1 C :   -0.112562
   2 C :   -0.110339
   3 C :    0.045385
   4 C :   -0.166290
   5 H :    0.011842
   6 C :    0.076027
   7 H :    0.006573
   8 H :    0.016593
   9 C :   -0.033591
  10 H :    0.018705
  11 H :    0.010370
  12 C :   -0.052599
  13 H :    0.018829
  14 H :    0.057019
  15 H :    0.038640
  16 S :    0.120987
  17 C :   -0.096582
  18 C :   -0.040882
  19 C :    0.001235
  20 C :   -0.176316
  21 H :    0.017327
  22 C :    0.113678
  23 H :    0.015047
  24 H :    0.019558
  25 C :   -0.131053
  26 H :    0.037997
  27 H :    0.025655
  28 C :    0.015131
  29 H :    0.019817
  30 H :    0.028584
  31 H :    0.013653
  32 H :    0.030710
  33 H :    0.055963
Sum of atomic charges:   -0.0000000

LOEWDIN ATOMIC CHARGES
----------------------
   0 S :    0.417176
   1 C :   -0.196466
   2 C :   -0.066228
   3 C :   -0.063677
   4 C :   -0.204416
   5 H :    0.035630
   6 C :   -0.032407
   7 H :    0.023748
   8 H :    0.029592
   9 C :   -0.031826
  10 H :    0.019880
  11 H :    0.018265
  12 C :   -0.063732
  13 H :    0.022642
  14 H :    0.032578
  15 H :    0.029593
  16 S :    0.417702
  17 C :   -0.178416
  18 C :   -0.070527
  19 C :   -0.050636
  20 C :   -0.213755
  21 H :    0.029809
  22 C :   -0.029082
  23 H :    0.027164
  24 H :    0.028979
  25 C :   -0.040461
  26 H :    0.029079
  27 H :    0.020423
  28 C :   -0.056170
  29 H :    0.019662
  30 H :    0.027363
  31 H :    0.021050
  32 H :    0.020522
  33 H :    0.026942

  Mayer bond orders larger than 0.100000
B(  0-S ,  1-C ) :   1.1331 B(  0-S ,  4-C ) :   1.1800 B(  1-C ,  2-C ) :   1.5900
B(  1-C , 32-H ) :   0.9818 B(  2-C ,  3-C ) :   1.2533 B(  2-C ,  6-C ) :   1.0345
B(  3-C ,  4-C ) :   1.5602 B(  3-C ,  5-H ) :   0.9951 B(  4-C , 20-C ) :   0.9987
B(  6-C ,  7-H ) :   0.9357 B(  6-C ,  8-H ) :   0.9351 B(  6-C ,  9-C ) :   1.0756
B(  9-C , 10-H ) :   0.9549 B(  9-C , 11-H ) :   0.9496 B(  9-C , 12-C ) :   1.0879
B( 12-C , 13-H ) :   0.9664 B( 12-C , 14-H ) :   0.9659 B( 12-C , 15-H ) :   0.9722
B( 16-S , 17-C ) :   1.1759 B( 16-S , 20-C ) :   1.1504 B( 17-C , 18-C ) :   1.5830
B( 17-C , 20-C ) :   0.1121 B( 17-C , 33-H ) :   0.9658 B( 18-C , 19-C ) :   1.2452
B( 18-C , 21-H ) :   0.9948 B( 19-C , 20-C ) :   1.5772 B( 19-C , 22-C ) :   1.0552
B( 22-C , 23-H ) :   0.9201 B( 22-C , 24-H ) :   0.9202 B( 22-C , 25-C ) :   1.0712
B( 25-C , 26-H ) :   0.9569 B( 25-C , 27-H ) :   0.9492 B( 25-C , 28-C ) :   1.1057
B( 28-C , 29-H ) :   0.9695 B( 28-C , 30-H ) :   0.9696 B( 28-C , 31-H ) :   0.9697

Dispersion correction           -0.014151861
FINAL SINGLE POINT ENERGY     -1339.879345870949

DIPOLE MOMENT
-------------
                                X             Y             Z
Electronic contribution:      8.50372      10.24118      16.18601
Nuclear contribution   :     -8.81109     -10.54132     -16.51504
                        -----------------------------------------
Total Dipole Moment    :     -0.30736      -0.30014      -0.32903
                        -----------------------------------------
Magnitude (a.u.)       :      0.54112
Magnitude (Debye)      :      1.37543

Rotational constants in cm-1:     0.018986     0.008278     0.007325
Rotational constants in MHz :   569.195054   248.177167   219.593162

                             ****ORCA TERMINATED NORMALLY****
TOTAL RUN TIME: 0 days 0 hours 0 minutes 21 seconds 923 msec
