                         Program Version 4.2.1 -  RELEASE  -
|  1> ! wB97X-D3 SP def2-SVP
|  2> %pal
|  3> nprocs 24
|  4> end
|  5>
|  6> * xyz 0 1
|  7> S 	 46.0514 	 -15.7434 	 -107.908
|  8> C 	 46.1923 	 -17.0169 	 -109.14
|  9> C 	 46.6425 	 -16.534 	 -110.34
| 10> C 	 47.0156 	 -15.1733 	 -110.182
| 11> C 	 46.917 	 -14.6066 	 -108.912
| 12> H 	 47.3688 	 -14.5085 	 -110.993
| 13> C 	 46.7231 	 -17.267 	 -111.673
| 14> H 	 46.4564 	 -18.3571 	 -111.659
| 15> H 	 47.7666 	 -17.0665 	 -111.86
| 16> C 	 45.9358 	 -16.6273 	 -112.832
| 17> H 	 44.8854 	 -16.4986 	 -112.591
| 18> H 	 46.2564 	 -15.5542 	 -112.908
| 19> C 	 46.3329 	 -17.2997 	 -114.113
| 20> H 	 45.9988 	 -18.3055 	 -114.213
| 21> H 	 45.8609 	 -16.8232 	 -115.009
| 22> H 	 47.4393 	 -17.338 	 -114.199
| 23> S 	 46.1992 	 -12.4938 	 -107.132
| 24> C 	 47.0044 	 -10.9442 	 -107.376
| 25> C 	 47.9927 	 -10.9678 	 -108.358
| 26> C 	 47.9967 	 -12.2659 	 -109.023
| 27> C 	 47.2265 	 -13.2474 	 -108.419
| 28> H 	 48.4905 	 -10.0047 	 -108.485
| 29> C 	 48.9328 	 -12.4362 	 -110.225
| 30> H 	 49.1929 	 -13.4664 	 -110.411
| 31> H 	 49.8728 	 -11.9951 	 -110.045
| 32> C 	 48.4643 	 -11.8593 	 -111.63
| 33> H 	 47.4493 	 -12.1002 	 -111.758
| 34> H 	 49.0036 	 -12.2534 	 -112.442
| 35> C 	 48.4649 	 -10.3269 	 -111.73
| 36> H 	 47.6374 	 -9.94477 	 -111.089
| 37> H 	 48.5697 	 -9.94796 	 -112.739
| 38> H 	 49.3847 	 -10.0919 	 -111.277
| 39> H 	 45.6801 	 -17.9967 	 -109.147
| 40> H 	 46.6989 	 -10.0656 	 -106.9
| 41> *
| 42>
| 43>                          ****END OF INPUT****

CARTESIAN COORDINATES (ANGSTROEM)
---------------------------------
  S     46.051400  -15.743400  -107.908000
  C     46.192300  -17.016900  -109.140000
  C     46.642500  -16.534000  -110.340000
  C     47.015600  -15.173300  -110.182000
  C     46.917000  -14.606600  -108.912000
  H     47.368800  -14.508500  -110.993000
  C     46.723100  -17.267000  -111.673000
  H     46.456400  -18.357100  -111.659000
  H     47.766600  -17.066500  -111.860000
  C     45.935800  -16.627300  -112.832000
  H     44.885400  -16.498600  -112.591000
  H     46.256400  -15.554200  -112.908000
  C     46.332900  -17.299700  -114.113000
  H     45.998800  -18.305500  -114.213000
  H     45.860900  -16.823200  -115.009000
  H     47.439300  -17.338000  -114.199000
  S     46.199200  -12.493800  -107.132000
  C     47.004400  -10.944200  -107.376000
  C     47.992700  -10.967800  -108.358000
  C     47.996700  -12.265900  -109.023000
  C     47.226500  -13.247400  -108.419000
  H     48.490500  -10.004700  -108.485000
  C     48.932800  -12.436200  -110.225000
  H     49.192900  -13.466400  -110.411000
  H     49.872800  -11.995100  -110.045000
  C     48.464300  -11.859300  -111.630000
  H     47.449300  -12.100200  -111.758000
  H     49.003600  -12.253400  -112.442000
  C     48.464900  -10.326900  -111.730000
  H     47.637400   -9.944770  -111.089000
  H     48.569700   -9.947960  -112.739000
  H     49.384700  -10.091900  -111.277000
  H     45.680100  -17.996700  -109.147000
  H     46.698900  -10.065600  -106.900000

 Total Charge           Charge          ....    0
 Multiplicity           Mult            ....    1
 Number of Electrons    NEL             ....  134
 Basis Dimension        Dim             ....  322

ORBITAL ENERGIES
----------------

  NO   OCC          E(Eh)            E(eV)
   0   2.0000     -88.970041     -2420.9979
   1   2.0000     -88.964397     -2420.8443
   2   2.0000     -10.339081      -281.3407
   3   2.0000     -10.335346      -281.2391
   4   2.0000     -10.321213      -280.8545
   5   2.0000     -10.316052      -280.7140
   6   2.0000     -10.313333      -280.6401
   7   2.0000     -10.303624      -280.3759
   8   2.0000     -10.301167      -280.3090
   9   2.0000     -10.298726      -280.2426
  10   2.0000     -10.295222      -280.1472
  11   2.0000     -10.291883      -280.0564
  12   2.0000     -10.290216      -280.0110
  13   2.0000     -10.282205      -279.7930
  14   2.0000     -10.281081      -279.7624
  15   2.0000     -10.274089      -279.5722
  16   2.0000      -8.083700      -219.9687
  17   2.0000      -8.078800      -219.8353
  18   2.0000      -6.042395      -164.4219
  19   2.0000      -6.038479      -164.3154
  20   2.0000      -6.037503      -164.2888
  21   2.0000      -6.034207      -164.1991
  22   2.0000      -6.033442      -164.1783
  23   2.0000      -6.029302      -164.0656
  24   2.0000      -1.002828       -27.2883
  25   2.0000      -0.980851       -26.6903
  26   2.0000      -0.917378       -24.9631
  27   2.0000      -0.907194       -24.6860
  28   2.0000      -0.872302       -23.7365
  29   2.0000      -0.853225       -23.2174
  30   2.0000      -0.842078       -22.9141
  31   2.0000      -0.813719       -22.1424
  32   2.0000      -0.785901       -21.3854
  33   2.0000      -0.776015       -21.1164
  34   2.0000      -0.711719       -19.3669
  35   2.0000      -0.702646       -19.1200
  36   2.0000      -0.694396       -18.8955
  37   2.0000      -0.663591       -18.0572
  38   2.0000      -0.636892       -17.3307
  39   2.0000      -0.619974       -16.8703
  40   2.0000      -0.600231       -16.3331
  41   2.0000      -0.573077       -15.5942
  42   2.0000      -0.568117       -15.4593
  43   2.0000      -0.555742       -15.1225
  44   2.0000      -0.546087       -14.8598
  45   2.0000      -0.528244       -14.3743
  46   2.0000      -0.514001       -13.9867
  47   2.0000      -0.506301       -13.7772
  48   2.0000      -0.504884       -13.7386
  49   2.0000      -0.499447       -13.5907
  50   2.0000      -0.491421       -13.3723
  51   2.0000      -0.477448       -12.9920
  52   2.0000      -0.475085       -12.9277
  53   2.0000      -0.467091       -12.7102
  54   2.0000      -0.460761       -12.5379
  55   2.0000      -0.450992       -12.2721
  56   2.0000      -0.446555       -12.1514
  57   2.0000      -0.439402       -11.9567
  58   2.0000      -0.430211       -11.7066
  59   2.0000      -0.426999       -11.6192
  60   2.0000      -0.418327       -11.3833
  61   2.0000      -0.415914       -11.3176
  62   2.0000      -0.413144       -11.2422
  63   2.0000      -0.359896        -9.7933
  64   2.0000      -0.334732        -9.1085
  65   2.0000      -0.326681        -8.8894
  66   2.0000      -0.285542        -7.7700
  67   0.0000       0.018442         0.5018
  68   0.0000       0.073936         2.0119
  69   0.0000       0.095547         2.6000
  70   0.0000       0.118359         3.2207
  71   0.0000       0.130616         3.5542

MULLIKEN ATOMIC CHARGES
-----------------------
   0 S :    0.086774
   1 C :   -0.125271
   2 C :   -0.057038
   3 C :   -0.026183
   4 C :   -0.135338
   5 H :    0.010041
   6 C :    0.044486
   7 H :    0.038691
   8 H :    0.035374
   9 C :   -0.086294
  10 H :    0.036613
  11 H :    0.027244
  12 C :   -0.034777
  13 H :    0.020361
  14 H :    0.039082
  15 H :    0.032926
  16 S :    0.087239
  17 C :   -0.081034
  18 C :   -0.027518
  19 C :   -0.064240
  20 C :   -0.062436
  21 H :    0.036750
  22 C :    0.044352
  23 H :    0.018823
  24 H :    0.015741
  25 C :   -0.065943
  26 H :    0.022192
  27 H :    0.020711
  28 C :   -0.032037
  29 H :    0.050976
  30 H :    0.037036
  31 H :   -0.001743
  32 H :    0.052955
  33 H :    0.041488
Sum of atomic charges:   -0.0000000

LOEWDIN ATOMIC CHARGES
----------------------
   0 S :    0.388121
   1 C :   -0.198426
   2 C :   -0.064441
   3 C :   -0.076124
   4 C :   -0.183384
   5 H :    0.029988
   6 C :   -0.029702
   7 H :    0.036029
   8 H :    0.035687
   9 C :   -0.046605
  10 H :    0.025055
  11 H :    0.027656
  12 C :   -0.067624
  13 H :    0.018628
  14 H :    0.032969
  15 H :    0.031228
  16 S :    0.370986
  17 C :   -0.160820
  18 C :   -0.071782
  19 C :   -0.046400
  20 C :   -0.178708
  21 H :    0.041414
  22 C :   -0.028678
  23 H :    0.027388
  24 H :    0.023266
  25 C :   -0.030809
  26 H :    0.015355
  27 H :    0.017905
  28 C :   -0.064954
  29 H :    0.033031
  30 H :    0.028415
  31 H :    0.012360
  32 H :    0.035109
  33 H :    0.017868

  Mayer bond orders larger than 0.100000
B(  0-S ,  1-C ) :   1.1257 B(  0-S ,  4-C ) :   1.1438 B(  1-C ,  2-C ) :   1.6350
B(  1-C , 32-H ) :   0.9565 B(  2-C ,  3-C ) :   1.2447 B(  2-C ,  6-C ) :   0.9998
B(  3-C ,  4-C ) :   1.5746 B(  3-C ,  5-H ) :   0.9772 B(  4-C , 20-C ) :   1.0661
B(  6-C ,  7-H ) :   0.9515 B(  6-C ,  8-H ) :   0.9350 B(  6-C ,  9-C ) :   1.0642
B(  9-C , 10-H ) :   0.9566 B(  9-C , 11-H ) :   0.9485 B(  9-C , 12-C ) :   1.0807
B( 12-C , 13-H ) :   0.9731 B( 12-C , 14-H ) :   0.9706 B( 12-C , 15-H ) :   0.9714
B( 16-S , 17-C ) :   1.1531 B( 16-S , 20-C ) :   1.0980 B( 17-C , 18-C ) :   1.6412
B( 17-C , 33-H ) :   0.9693 B( 18-C , 19-C ) :   1.1873 B( 18-C , 21-H ) :   0.9898
B( 19-C , 20-C ) :   1.6447 B( 19-C , 22-C ) :   1.0384 B( 22-C , 23-H ) :   0.9388
B( 22-C , 24-H ) :   0.9413 B( 22-C , 25-C ) :   1.0628 B( 25-C , 26-H ) :   0.9549
B( 25-C , 27-H ) :   0.9597 B( 25-C , 28-C ) :   1.0779 B( 28-C , 29-H ) :   0.9742
B( 28-C , 30-H ) :   0.9711 B( 28-C , 31-H ) :   0.9739

Dispersion correction           -0.014159824
FINAL SINGLE POINT ENERGY     -1339.856715049250

DIPOLE MOMENT
-------------
                                X             Y             Z
Electronic contribution:     -7.53166      -0.44768      30.92266
Nuclear contribution   :      7.69338       0.70297     -31.77226
                        -----------------------------------------
Total Dipole Moment    :      0.16172       0.25529      -0.84960
                        -----------------------------------------
Magnitude (a.u.)       :      0.90175
Magnitude (Debye)      :      2.29206

Rotational constants in cm-1:     0.017515     0.009167     0.006356
Rotational constants in MHz :   525.082892   274.823822   190.547006

                             ****ORCA TERMINATED NORMALLY****
TOTAL RUN TIME: 0 days 0 hours 0 minutes 21 seconds 782 msec
