                         Program Version 4.2.1 -  RELEASE  -
|  1> ! wB97X-D3 SP def2-SVP
|  2> %pal
|  3> nprocs 24
|  4> end
|  5>
|  6> * xyz 0 1
|  7> S 	 -86.9148 	 -7.11434 	 -62.8472
|  8> C 	 -88.6663 	 -6.85726 	 -62.9084
|  9> C 	 -89.178 	 -5.90028 	 -62.0647
| 10> C 	 -88.1558 	 -5.48705 	 -61.1573
| 11> C 	 -86.8763 	 -6.07505 	 -61.3675
| 12> H 	 -88.2721 	 -4.99636 	 -60.2138
| 13> C 	 -90.5582 	 -5.31752 	 -62.0633
| 14> H 	 -90.8176 	 -5.11388 	 -61.0489
| 15> H 	 -91.3292 	 -6.03317 	 -62.351
| 16> C 	 -90.7833 	 -4.05164 	 -62.8151
| 17> H 	 -90.0343 	 -3.31986 	 -62.3893
| 18> H 	 -90.6889 	 -4.21907 	 -63.9042
| 19> C 	 -92.1838 	 -3.36293 	 -62.7002
| 20> H 	 -92.8643 	 -4.02167 	 -63.2215
| 21> H 	 -92.4189 	 -3.22584 	 -61.6444
| 22> H 	 -92.0545 	 -2.44433 	 -63.2332
| 23> S 	 -85.1539 	 -7.15109 	 -59.4808
| 24> C 	 -83.6669 	 -6.33575 	 -59.1696
| 25> C 	 -83.7282 	 -5.04783 	 -59.5863
| 26> C 	 -84.8154 	 -4.8176 	 -60.4757
| 27> C 	 -85.6392 	 -5.91761 	 -60.5975
| 28> H 	 -82.8932 	 -4.41826 	 -59.3675
| 29> C 	 -85.0981 	 -3.49654 	 -61.1518
| 30> H 	 -85.824 	 -3.55357 	 -61.9283
| 31> H 	 -84.117 	 -3.25624 	 -61.6477
| 32> C 	 -85.5711 	 -2.41221 	 -60.2522
| 33> H 	 -84.7722 	 -2.43502 	 -59.4537
| 34> H 	 -86.4484 	 -2.74971 	 -59.8658
| 35> C 	 -85.7852 	 -0.998877 	 -60.8097
| 36> H 	 -86.2591 	 -0.39537 	 -60.0531
| 37> H 	 -86.4169 	 -1.03331 	 -61.7084
| 38> H 	 -84.8663 	 -0.495188 	 -61.141
| 39> H 	 -89.221 	 -7.12167 	 -63.8053
| 40> H 	 -82.8371 	 -6.66625 	 -58.5076
| 41> *
| 42>
| 43>                          ****END OF INPUT****

CARTESIAN COORDINATES (ANGSTROEM)
---------------------------------
  S    -86.914800   -7.114340  -62.847200
  C    -88.666300   -6.857260  -62.908400
  C    -89.178000   -5.900280  -62.064700
  C    -88.155800   -5.487050  -61.157300
  C    -86.876300   -6.075050  -61.367500
  H    -88.272100   -4.996360  -60.213800
  C    -90.558200   -5.317520  -62.063300
  H    -90.817600   -5.113880  -61.048900
  H    -91.329200   -6.033170  -62.351000
  C    -90.783300   -4.051640  -62.815100
  H    -90.034300   -3.319860  -62.389300
  H    -90.688900   -4.219070  -63.904200
  C    -92.183800   -3.362930  -62.700200
  H    -92.864300   -4.021670  -63.221500
  H    -92.418900   -3.225840  -61.644400
  H    -92.054500   -2.444330  -63.233200
  S    -85.153900   -7.151090  -59.480800
  C    -83.666900   -6.335750  -59.169600
  C    -83.728200   -5.047830  -59.586300
  C    -84.815400   -4.817600  -60.475700
  C    -85.639200   -5.917610  -60.597500
  H    -82.893200   -4.418260  -59.367500
  C    -85.098100   -3.496540  -61.151800
  H    -85.824000   -3.553570  -61.928300
  H    -84.117000   -3.256240  -61.647700
  C    -85.571100   -2.412210  -60.252200
  H    -84.772200   -2.435020  -59.453700
  H    -86.448400   -2.749710  -59.865800
  C    -85.785200   -0.998877  -60.809700
  H    -86.259100   -0.395370  -60.053100
  H    -86.416900   -1.033310  -61.708400
  H    -84.866300   -0.495188  -61.141000
  H    -89.221000   -7.121670  -63.805300
  H    -82.837100   -6.666250  -58.507600

 Total Charge           Charge          ....    0
 Multiplicity           Mult            ....    1
 Number of Electrons    NEL             ....  134
 Basis Dimension        Dim             ....  322

ORBITAL ENERGIES
----------------

  NO   OCC          E(Eh)            E(eV)
   0   2.0000     -88.968094     -2420.9449
   1   2.0000     -88.962474     -2420.7920
   2   2.0000     -10.336693      -281.2757
   3   2.0000     -10.321298      -280.8568
   4   2.0000     -10.315193      -280.6907
   5   2.0000     -10.315090      -280.6879
   6   2.0000     -10.303839      -280.3817
   7   2.0000     -10.301398      -280.3153
   8   2.0000     -10.300034      -280.2782
   9   2.0000     -10.290609      -280.0217
  10   2.0000     -10.288641      -279.9682
  11   2.0000     -10.288599      -279.9670
  12   2.0000     -10.282539      -279.8021
  13   2.0000     -10.280742      -279.7532
  14   2.0000     -10.279694      -279.7247
  15   2.0000     -10.277560      -279.6666
  16   2.0000      -8.081572      -219.9108
  17   2.0000      -8.078241      -219.8201
  18   2.0000      -6.039999      -164.3567
  19   2.0000      -6.036686      -164.2666
  20   2.0000      -6.036415      -164.2592
  21   2.0000      -6.032737      -164.1591
  22   2.0000      -6.032323      -164.1479
  23   2.0000      -6.028856      -164.0535
  24   2.0000      -1.008446       -27.4412
  25   2.0000      -0.981976       -26.7209
  26   2.0000      -0.916700       -24.9447
  27   2.0000      -0.915630       -24.9156
  28   2.0000      -0.870304       -23.6822
  29   2.0000      -0.850228       -23.1359
  30   2.0000      -0.848719       -23.0948
  31   2.0000      -0.814826       -22.1726
  32   2.0000      -0.788819       -21.4649
  33   2.0000      -0.775203       -21.0943
  34   2.0000      -0.704546       -19.1717
  35   2.0000      -0.694005       -18.8848
  36   2.0000      -0.692035       -18.8312
  37   2.0000      -0.657483       -17.8910
  38   2.0000      -0.642980       -17.4964
  39   2.0000      -0.618946       -16.8424
  40   2.0000      -0.598848       -16.2955
  41   2.0000      -0.578671       -15.7464
  42   2.0000      -0.570894       -15.5348
  43   2.0000      -0.564350       -15.3567
  44   2.0000      -0.528883       -14.3916
  45   2.0000      -0.525392       -14.2967
  46   2.0000      -0.518513       -14.1095
  47   2.0000      -0.513362       -13.9693
  48   2.0000      -0.509897       -13.8750
  49   2.0000      -0.502023       -13.6608
  50   2.0000      -0.485863       -13.2210
  51   2.0000      -0.477036       -12.9808
  52   2.0000      -0.470198       -12.7947
  53   2.0000      -0.465345       -12.6627
  54   2.0000      -0.462889       -12.5959
  55   2.0000      -0.454853       -12.3772
  56   2.0000      -0.447679       -12.1820
  57   2.0000      -0.436265       -11.8714
  58   2.0000      -0.434197       -11.8151
  59   2.0000      -0.420569       -11.4443
  60   2.0000      -0.419060       -11.4032
  61   2.0000      -0.415858       -11.3161
  62   2.0000      -0.409483       -11.1426
  63   2.0000      -0.338136        -9.2012
  64   2.0000      -0.329280        -8.9602
  65   2.0000      -0.323250        -8.7961
  66   2.0000      -0.307759        -8.3745
  67   0.0000       0.032619         0.8876
  68   0.0000       0.057680         1.5695
  69   0.0000       0.106375         2.8946
  70   0.0000       0.116303         3.1648
  71   0.0000       0.124607         3.3907

MULLIKEN ATOMIC CHARGES
-----------------------
   0 S :    0.109030
   1 C :   -0.105368
   2 C :   -0.075934
   3 C :    0.050906
   4 C :   -0.198934
   5 H :    0.016163
   6 C :    0.105098
   7 H :    0.001677
   8 H :    0.014697
   9 C :   -0.133415
  10 H :    0.032424
  11 H :    0.031731
  12 C :   -0.020805
  13 H :    0.032150
  14 H :    0.034554
  15 H :    0.041249
  16 S :    0.121196
  17 C :   -0.100802
  18 C :   -0.038105
  19 C :   -0.020532
  20 C :   -0.183732
  21 H :    0.015326
  22 C :    0.086745
  23 H :    0.010154
  24 H :    0.023773
  25 C :   -0.055730
  26 H :    0.021398
  27 H :   -0.003713
  28 C :   -0.022732
  29 H :    0.038067
  30 H :    0.027263
  31 H :    0.030649
  32 H :    0.048221
  33 H :    0.067332
Sum of atomic charges:   -0.0000000

LOEWDIN ATOMIC CHARGES
----------------------
   0 S :    0.379674
   1 C :   -0.183169
   2 C :   -0.062658
   3 C :   -0.051899
   4 C :   -0.175993
   5 H :    0.028126
   6 C :   -0.038979
   7 H :    0.026671
   8 H :    0.030342
   9 C :   -0.043969
  10 H :    0.026496
  11 H :    0.024257
  12 C :   -0.055054
  13 H :    0.023112
  14 H :    0.023570
  15 H :    0.028348
  16 S :    0.420586
  17 C :   -0.190722
  18 C :   -0.076420
  19 C :   -0.047329
  20 C :   -0.220185
  21 H :    0.029541
  22 C :   -0.031442
  23 H :    0.020961
  24 H :    0.032141
  25 C :   -0.036655
  26 H :    0.026781
  27 H :    0.009436
  28 C :   -0.061032
  29 H :    0.027893
  30 H :    0.026425
  31 H :    0.026513
  32 H :    0.024839
  33 H :    0.039795

  Mayer bond orders larger than 0.100000
B(  0-S ,  1-C ) :   1.1407 B(  0-S ,  4-C ) :   1.1381 B(  1-C ,  2-C ) :   1.6469
B(  1-C ,  4-C ) :   0.1000 B(  1-C , 32-H ) :   0.9550 B(  2-C ,  3-C ) :   1.2219
B(  2-C ,  6-C ) :   1.0297 B(  3-C ,  4-C ) :   1.5981 B(  3-C ,  5-H ) :   0.9857
B(  4-C , 20-C ) :   1.0337 B(  6-C ,  7-H ) :   0.9255 B(  6-C ,  8-H ) :   0.9326
B(  6-C ,  9-C ) :   1.0762 B(  9-C , 10-H ) :   0.9541 B(  9-C , 11-H ) :   0.9563
B(  9-C , 12-C ) :   1.0781 B( 12-C , 13-H ) :   0.9770 B( 12-C , 14-H ) :   0.9756
B( 12-C , 15-H ) :   0.9748 B( 16-S , 17-C ) :   1.1615 B( 16-S , 20-C ) :   1.1458
B( 17-C , 18-C ) :   1.6240 B( 17-C , 33-H ) :   0.9601 B( 18-C , 19-C ) :   1.2287
B( 18-C , 21-H ) :   0.9904 B( 19-C , 20-C ) :   1.6015 B( 19-C , 22-C ) :   1.0516
B( 22-C , 23-H ) :   0.9232 B( 22-C , 24-H ) :   0.9300 B( 22-C , 25-C ) :   1.0685
B( 25-C , 26-H ) :   0.9555 B( 25-C , 27-H ) :   0.9476 B( 25-C , 28-C ) :   1.0872
B( 28-C , 29-H ) :   0.9737 B( 28-C , 30-H ) :   0.9710 B( 28-C , 31-H ) :   0.9743

Dispersion correction           -0.014044175
FINAL SINGLE POINT ENERGY     -1339.867404409361

DIPOLE MOMENT
-------------
                                X             Y             Z
Electronic contribution:     15.81656     -26.83125       3.33489
Nuclear contribution   :    -16.07740      27.47471      -3.28085
                        -----------------------------------------
Total Dipole Moment    :     -0.26084       0.64346       0.05404
                        -----------------------------------------
Magnitude (a.u.)       :      0.69642
Magnitude (Debye)      :      1.77016

Rotational constants in cm-1:     0.017623     0.008660     0.006463
Rotational constants in MHz :   528.314061   259.621009   193.764226

                             ****ORCA TERMINATED NORMALLY****
TOTAL RUN TIME: 0 days 0 hours 0 minutes 21 seconds 726 msec
