                         Program Version 4.2.1 -  RELEASE  -
|  1> ! wB97X-D3 SP def2-SVP
|  2> %pal
|  3> nprocs 24
|  4> end
|  5>
|  6> * xyz 0 1
|  7> S 	 -64.8347 	 18.5617 	 -116.576
|  8> C 	 -64.5854 	 16.9692 	 -115.769
|  9> C 	 -63.5047 	 17.055 	 -114.894
| 10> C 	 -62.7602 	 18.2881 	 -115.043
| 11> C 	 -63.4757 	 19.2493 	 -115.697
| 12> H 	 -61.7261 	 18.5055 	 -114.585
| 13> C 	 -62.9684 	 15.8666 	 -114.045
| 14> H 	 -62.0594 	 15.5719 	 -114.486
| 15> H 	 -63.5442 	 14.936 	 -114.321
| 16> C 	 -62.9563 	 16.0959 	 -112.498
| 17> H 	 -62.3177 	 16.9465 	 -112.34
| 18> H 	 -63.9666 	 16.4595 	 -112.183
| 19> C 	 -62.3445 	 14.9189 	 -111.657
| 20> H 	 -63.0632 	 14.0143 	 -111.53
| 21> H 	 -61.5783 	 14.5038 	 -112.245
| 22> H 	 -62.0082 	 15.1894 	 -110.694
| 23> S 	 -63.6712 	 21.4632 	 -117.305
| 24> C 	 -62.8173 	 22.8997 	 -116.992
| 25> C 	 -61.9624 	 22.7636 	 -115.907
| 26> C 	 -62.0957 	 21.4936 	 -115.267
| 27> C 	 -63.0213 	 20.6628 	 -115.924
| 28> H 	 -61.2895 	 23.604 	 -115.658
| 29> C 	 -61.1803 	 21.0988 	 -114.111
| 30> H 	 -60.3715 	 21.7478 	 -113.963
| 31> H 	 -60.5755 	 20.2537 	 -114.444
| 32> C 	 -61.8381 	 20.9339 	 -112.725
| 33> H 	 -62.5113 	 20.0712 	 -112.779
| 34> H 	 -62.4704 	 21.8209 	 -112.512
| 35> C 	 -60.8652 	 20.7326 	 -111.535
| 36> H 	 -60.1924 	 19.8954 	 -111.627
| 37> H 	 -61.5237 	 20.5563 	 -110.632
| 38> H 	 -60.2424 	 21.5258 	 -111.294
| 39> H 	 -65.2829 	 16.1803 	 -115.918
| 40> H 	 -62.7216 	 23.8419 	 -117.539
| 41> *
| 42>
| 43>                          ****END OF INPUT****

CARTESIAN COORDINATES (ANGSTROEM)
---------------------------------
  S    -64.834700   18.561700  -116.576000
  C    -64.585400   16.969200  -115.769000
  C    -63.504700   17.055000  -114.894000
  C    -62.760200   18.288100  -115.043000
  C    -63.475700   19.249300  -115.697000
  H    -61.726100   18.505500  -114.585000
  C    -62.968400   15.866600  -114.045000
  H    -62.059400   15.571900  -114.486000
  H    -63.544200   14.936000  -114.321000
  C    -62.956300   16.095900  -112.498000
  H    -62.317700   16.946500  -112.340000
  H    -63.966600   16.459500  -112.183000
  C    -62.344500   14.918900  -111.657000
  H    -63.063200   14.014300  -111.530000
  H    -61.578300   14.503800  -112.245000
  H    -62.008200   15.189400  -110.694000
  S    -63.671200   21.463200  -117.305000
  C    -62.817300   22.899700  -116.992000
  C    -61.962400   22.763600  -115.907000
  C    -62.095700   21.493600  -115.267000
  C    -63.021300   20.662800  -115.924000
  H    -61.289500   23.604000  -115.658000
  C    -61.180300   21.098800  -114.111000
  H    -60.371500   21.747800  -113.963000
  H    -60.575500   20.253700  -114.444000
  C    -61.838100   20.933900  -112.725000
  H    -62.511300   20.071200  -112.779000
  H    -62.470400   21.820900  -112.512000
  C    -60.865200   20.732600  -111.535000
  H    -60.192400   19.895400  -111.627000
  H    -61.523700   20.556300  -110.632000
  H    -60.242400   21.525800  -111.294000
  H    -65.282900   16.180300  -115.918000
  H    -62.721600   23.841900  -117.539000

 Total Charge           Charge          ....    0
 Multiplicity           Mult            ....    1
 Number of Electrons    NEL             ....  134
 Basis Dimension        Dim             ....  322

ORBITAL ENERGIES
----------------

  NO   OCC          E(Eh)            E(eV)
   0   2.0000     -88.969793     -2420.9912
   1   2.0000     -88.966052     -2420.8893
   2   2.0000     -10.335674      -281.2480
   3   2.0000     -10.331163      -281.1252
   4   2.0000     -10.319512      -280.8082
   5   2.0000     -10.313259      -280.6381
   6   2.0000     -10.310510      -280.5632
   7   2.0000     -10.307926      -280.4929
   8   2.0000     -10.300289      -280.2851
   9   2.0000     -10.297313      -280.2041
  10   2.0000     -10.295128      -280.1447
  11   2.0000     -10.294620      -280.1309
  12   2.0000     -10.289826      -280.0004
  13   2.0000     -10.288882      -279.9747
  14   2.0000     -10.283674      -279.8330
  15   2.0000     -10.277558      -279.6666
  16   2.0000      -8.085465      -220.0167
  17   2.0000      -8.079985      -219.8676
  18   2.0000      -6.043939      -164.4639
  19   2.0000      -6.039673      -164.3479
  20   2.0000      -6.038715      -164.3218
  21   2.0000      -6.036385      -164.2584
  22   2.0000      -6.034756      -164.2141
  23   2.0000      -6.030420      -164.0961
  24   2.0000      -1.009222       -27.4623
  25   2.0000      -0.983013       -26.7491
  26   2.0000      -0.907268       -24.6880
  27   2.0000      -0.901814       -24.5396
  28   2.0000      -0.865096       -23.5405
  29   2.0000      -0.852822       -23.2065
  30   2.0000      -0.840735       -22.8776
  31   2.0000      -0.815946       -22.2030
  32   2.0000      -0.784842       -21.3566
  33   2.0000      -0.774153       -21.0658
  34   2.0000      -0.709362       -19.3027
  35   2.0000      -0.705174       -19.1887
  36   2.0000      -0.691561       -18.8183
  37   2.0000      -0.661584       -18.0026
  38   2.0000      -0.637906       -17.3583
  39   2.0000      -0.619683       -16.8624
  40   2.0000      -0.595520       -16.2049
  41   2.0000      -0.563759       -15.3407
  42   2.0000      -0.559833       -15.2338
  43   2.0000      -0.547994       -14.9117
  44   2.0000      -0.531058       -14.4508
  45   2.0000      -0.527131       -14.3440
  46   2.0000      -0.513251       -13.9663
  47   2.0000      -0.510383       -13.8882
  48   2.0000      -0.505251       -13.7486
  49   2.0000      -0.499296       -13.5865
  50   2.0000      -0.491768       -13.3817
  51   2.0000      -0.484633       -13.1875
  52   2.0000      -0.471479       -12.8296
  53   2.0000      -0.465041       -12.6544
  54   2.0000      -0.453935       -12.3522
  55   2.0000      -0.452775       -12.3206
  56   2.0000      -0.447060       -12.1651
  57   2.0000      -0.441935       -12.0257
  58   2.0000      -0.436475       -11.8771
  59   2.0000      -0.427995       -11.6463
  60   2.0000      -0.418690       -11.3931
  61   2.0000      -0.410806       -11.1786
  62   2.0000      -0.408203       -11.1078
  63   2.0000      -0.357787        -9.7359
  64   2.0000      -0.336473        -9.1559
  65   2.0000      -0.327965        -8.9244
  66   2.0000      -0.285964        -7.7815
  67   0.0000       0.021281         0.5791
  68   0.0000       0.088180         2.3995
  69   0.0000       0.092647         2.5210
  70   0.0000       0.119172         3.2428
  71   0.0000       0.126023         3.4293

MULLIKEN ATOMIC CHARGES
-----------------------
   0 S :    0.077677
   1 C :   -0.115118
   2 C :   -0.080814
   3 C :   -0.043437
   4 C :   -0.078439
   5 H :    0.050946
   6 C :    0.052400
   7 H :    0.019738
   8 H :    0.014998
   9 C :   -0.074862
  10 H :    0.023968
  11 H :    0.042327
  12 C :   -0.032148
  13 H :    0.038974
  14 H :    0.017798
  15 H :    0.036053
  16 S :    0.120691
  17 C :   -0.083095
  18 C :   -0.070770
  19 C :   -0.036070
  20 C :   -0.132764
  21 H :    0.030359
  22 C :    0.062964
  23 H :   -0.014629
  24 H :    0.026246
  25 C :   -0.075936
  26 H :    0.035131
  27 H :    0.038662
  28 C :   -0.037685
  29 H :    0.021062
  30 H :    0.040816
  31 H :    0.019061
  32 H :    0.048686
  33 H :    0.057211
Sum of atomic charges:    0.0000000

LOEWDIN ATOMIC CHARGES
----------------------
   0 S :    0.366544
   1 C :   -0.174061
   2 C :   -0.054610
   3 C :   -0.079390
   4 C :   -0.179295
   5 H :    0.047131
   6 C :   -0.035013
   7 H :    0.023541
   8 H :    0.031603
   9 C :   -0.039950
  10 H :    0.019794
  11 H :    0.030811
  12 C :   -0.062184
  13 H :    0.035276
  14 H :    0.018946
  15 H :    0.020913
  16 S :    0.444808
  17 C :   -0.213628
  18 C :   -0.076472
  19 C :   -0.055706
  20 C :   -0.202127
  21 H :    0.037614
  22 C :   -0.039105
  23 H :    0.021168
  24 H :    0.029403
  25 C :   -0.037906
  26 H :    0.022356
  27 H :    0.031934
  28 C :   -0.065241
  29 H :    0.020583
  30 H :    0.038033
  31 H :    0.013289
  32 H :    0.022796
  33 H :    0.038142

  Mayer bond orders larger than 0.100000
B(  0-S ,  1-C ) :   1.1084 B(  0-S ,  4-C ) :   1.1400 B(  1-C ,  2-C ) :   1.6334
B(  1-C , 32-H ) :   0.9753 B(  2-C ,  3-C ) :   1.2045 B(  2-C ,  6-C ) :   1.0235
B(  3-C ,  4-C ) :   1.6055 B(  3-C ,  5-H ) :   0.9669 B(  4-C , 20-C ) :   1.0487
B(  6-C ,  7-H ) :   0.9386 B(  6-C ,  8-H ) :   0.9460 B(  6-C ,  9-C ) :   1.0442
B(  9-C , 10-H ) :   0.9585 B(  9-C , 11-H ) :   0.9600 B(  9-C , 12-C ) :   1.0679
B( 12-C , 13-H ) :   0.9763 B( 12-C , 14-H ) :   0.9740 B( 12-C , 15-H ) :   0.9782
B( 16-S , 17-C ) :   1.1740 B( 16-S , 20-C ) :   1.1574 B( 17-C , 18-C ) :   1.5931
B( 17-C , 33-H ) :   0.9619 B( 18-C , 19-C ) :   1.2810 B( 18-C , 21-H ) :   0.9853
B( 19-C , 20-C ) :   1.5582 B( 19-C , 22-C ) :   1.0354 B( 22-C , 23-H ) :   0.9260
B( 22-C , 24-H ) :   0.9303 B( 22-C , 25-C ) :   1.0517 B( 25-C , 26-H ) :   0.9560
B( 25-C , 27-H ) :   0.9533 B( 25-C , 28-C ) :   1.0827 B( 28-C , 29-H ) :   0.9746
B( 28-C , 30-H ) :   0.9744 B( 28-C , 31-H ) :   0.9754

Dispersion correction           -0.014249003
FINAL SINGLE POINT ENERGY     -1339.866304434338

DIPOLE MOMENT
-------------
                                X             Y             Z
Electronic contribution:    -14.72176      12.30353     -28.81081
Nuclear contribution   :     15.34176     -12.41534      29.26945
                        -----------------------------------------
Total Dipole Moment    :      0.62000      -0.11181       0.45864
                        -----------------------------------------
Magnitude (a.u.)       :      0.77927
Magnitude (Debye)      :      1.98073

Rotational constants in cm-1:     0.017741     0.009428     0.006366
Rotational constants in MHz :   531.861281   282.649164   190.838167

                             ****ORCA TERMINATED NORMALLY****
TOTAL RUN TIME: 0 days 0 hours 0 minutes 20 seconds 596 msec
