                         Program Version 4.2.1 -  RELEASE  -
|  1> ! wB97X-D3 SP def2-SVP
|  2> %pal
|  3> nprocs 24
|  4> end
|  5>
|  6> * xyz 0 1
|  7> S 	 -76.7886 	 4.61209 	 -110.05
|  8> C 	 -78.3629 	 3.99813 	 -110.433
|  9> C 	 -79.2895 	 5.01996 	 -110.378
| 10> C 	 -78.7423 	 6.20872 	 -109.828
| 11> C 	 -77.3632 	 6.20549 	 -109.597
| 12> H 	 -79.2655 	 7.0959 	 -109.76
| 13> C 	 -80.6947 	 4.99866 	 -111.003
| 14> H 	 -80.7107 	 4.5483 	 -111.985
| 15> H 	 -80.9661 	 6.08749 	 -111.082
| 16> C 	 -81.7475 	 4.34692 	 -110.134
| 17> H 	 -82.6863 	 4.60205 	 -110.639
| 18> H 	 -81.6828 	 3.19365 	 -110.177
| 19> C 	 -81.7719 	 4.68583 	 -108.645
| 20> H 	 -82.1783 	 5.7044 	 -108.626
| 21> H 	 -82.428 	 4.16306 	 -107.99
| 22> H 	 -80.7694 	 4.52748 	 -108.216
| 23> S 	 -75.5944 	 6.94336 	 -107.537
| 24> C 	 -74.7231 	 8.41073 	 -107.556
| 25> C 	 -75.3774 	 9.25408 	 -108.448
| 26> C 	 -76.4594 	 8.63177 	 -109.236
| 27> C 	 -76.4886 	 7.24362 	 -108.991
| 28> H 	 -75.1428 	 10.2587 	 -108.372
| 29> C 	 -77.178 	 9.41095 	 -110.312
| 30> H 	 -77.746 	 8.75846 	 -111.031
| 31> H 	 -76.5235 	 9.90392 	 -111.003
| 32> C 	 -78.1407 	 10.4472 	 -109.707
| 33> H 	 -78.7508 	 9.9134 	 -108.933
| 34> H 	 -78.9219 	 10.6516 	 -110.468
| 35> C 	 -77.6844 	 11.7398 	 -109.08
| 36> H 	 -78.5414 	 12.4207 	 -108.732
| 37> H 	 -77.1231 	 12.2292 	 -109.847
| 38> H 	 -76.9756 	 11.659 	 -108.16
| 39> H 	 -78.5576 	 2.97067 	 -110.691
| 40> H 	 -73.9128 	 8.74789 	 -106.887
| 41> *
| 42>
| 43>                          ****END OF INPUT****

CARTESIAN COORDINATES (ANGSTROEM)
---------------------------------
  S    -76.788600    4.612090  -110.050000
  C    -78.362900    3.998130  -110.433000
  C    -79.289500    5.019960  -110.378000
  C    -78.742300    6.208720  -109.828000
  C    -77.363200    6.205490  -109.597000
  H    -79.265500    7.095900  -109.760000
  C    -80.694700    4.998660  -111.003000
  H    -80.710700    4.548300  -111.985000
  H    -80.966100    6.087490  -111.082000
  C    -81.747500    4.346920  -110.134000
  H    -82.686300    4.602050  -110.639000
  H    -81.682800    3.193650  -110.177000
  C    -81.771900    4.685830  -108.645000
  H    -82.178300    5.704400  -108.626000
  H    -82.428000    4.163060  -107.990000
  H    -80.769400    4.527480  -108.216000
  S    -75.594400    6.943360  -107.537000
  C    -74.723100    8.410730  -107.556000
  C    -75.377400    9.254080  -108.448000
  C    -76.459400    8.631770  -109.236000
  C    -76.488600    7.243620  -108.991000
  H    -75.142800   10.258700  -108.372000
  C    -77.178000    9.410950  -110.312000
  H    -77.746000    8.758460  -111.031000
  H    -76.523500    9.903920  -111.003000
  C    -78.140700   10.447200  -109.707000
  H    -78.750800    9.913400  -108.933000
  H    -78.921900   10.651600  -110.468000
  C    -77.684400   11.739800  -109.080000
  H    -78.541400   12.420700  -108.732000
  H    -77.123100   12.229200  -109.847000
  H    -76.975600   11.659000  -108.160000
  H    -78.557600    2.970670  -110.691000
  H    -73.912800    8.747890  -106.887000

 Total Charge           Charge          ....    0
 Multiplicity           Mult            ....    1
 Number of Electrons    NEL             ....  134
 Basis Dimension        Dim             ....  322

ORBITAL ENERGIES
----------------

  NO   OCC          E(Eh)            E(eV)
   0   2.0000     -88.965447     -2420.8729
   1   2.0000     -88.962650     -2420.7968
   2   2.0000     -10.334406      -281.2135
   3   2.0000     -10.332603      -281.1644
   4   2.0000     -10.318677      -280.7855
   5   2.0000     -10.314772      -280.6792
   6   2.0000     -10.311313      -280.5851
   7   2.0000     -10.300116      -280.2804
   8   2.0000     -10.297518      -280.2097
   9   2.0000     -10.296350      -280.1779
  10   2.0000     -10.291530      -280.0468
  11   2.0000     -10.290594      -280.0213
  12   2.0000     -10.290409      -280.0163
  13   2.0000     -10.290031      -280.0060
  14   2.0000     -10.289783      -279.9992
  15   2.0000     -10.273695      -279.5615
  16   2.0000      -8.080279      -219.8756
  17   2.0000      -8.078417      -219.8249
  18   2.0000      -6.038711      -164.3217
  19   2.0000      -6.036903      -164.2725
  20   2.0000      -6.034547      -164.2084
  21   2.0000      -6.032783      -164.1604
  22   2.0000      -6.031328      -164.1208
  23   2.0000      -6.029088      -164.0598
  24   2.0000      -1.006910       -27.3994
  25   2.0000      -0.988398       -26.8957
  26   2.0000      -0.911962       -24.8158
  27   2.0000      -0.910298       -24.7705
  28   2.0000      -0.868395       -23.6302
  29   2.0000      -0.847163       -23.0525
  30   2.0000      -0.841484       -22.8979
  31   2.0000      -0.816431       -22.2162
  32   2.0000      -0.787570       -21.4309
  33   2.0000      -0.778098       -21.1731
  34   2.0000      -0.702816       -19.1246
  35   2.0000      -0.693788       -18.8789
  36   2.0000      -0.687482       -18.7073
  37   2.0000      -0.659742       -17.9525
  38   2.0000      -0.643640       -17.5143
  39   2.0000      -0.619037       -16.8448
  40   2.0000      -0.599658       -16.3175
  41   2.0000      -0.576640       -15.6912
  42   2.0000      -0.558664       -15.2020
  43   2.0000      -0.547129       -14.8881
  44   2.0000      -0.544526       -14.8173
  45   2.0000      -0.534827       -14.5534
  46   2.0000      -0.519411       -14.1339
  47   2.0000      -0.508855       -13.8466
  48   2.0000      -0.507399       -13.8070
  49   2.0000      -0.498635       -13.5686
  50   2.0000      -0.490350       -13.3431
  51   2.0000      -0.483906       -13.1677
  52   2.0000      -0.480407       -13.0725
  53   2.0000      -0.469057       -12.7637
  54   2.0000      -0.462546       -12.5865
  55   2.0000      -0.453510       -12.3406
  56   2.0000      -0.440024       -11.9737
  57   2.0000      -0.436028       -11.8649
  58   2.0000      -0.424187       -11.5427
  59   2.0000      -0.418358       -11.3841
  60   2.0000      -0.412041       -11.2122
  61   2.0000      -0.407600       -11.0914
  62   2.0000      -0.400622       -10.9015
  63   2.0000      -0.344638        -9.3781
  64   2.0000      -0.329585        -8.9685
  65   2.0000      -0.320680        -8.7262
  66   2.0000      -0.298389        -8.1196
  67   0.0000       0.024964         0.6793
  68   0.0000       0.071809         1.9540
  69   0.0000       0.107238         2.9181
  70   0.0000       0.110943         3.0189
  71   0.0000       0.136015         3.7012

MULLIKEN ATOMIC CHARGES
-----------------------
   0 S :    0.115522
   1 C :   -0.124324
   2 C :   -0.111219
   3 C :    0.076416
   4 C :   -0.178415
   5 H :   -0.025150
   6 C :    0.088079
   7 H :    0.040702
   8 H :    0.025504
   9 C :   -0.117793
  10 H :    0.028907
  11 H :    0.031501
  12 C :   -0.039643
  13 H :    0.024581
  14 H :    0.025685
  15 H :    0.054620
  16 S :    0.117016
  17 C :   -0.095930
  18 C :   -0.030928
  19 C :   -0.008616
  20 C :   -0.136886
  21 H :   -0.007325
  22 C :    0.058212
  23 H :    0.031059
  24 H :    0.026408
  25 C :   -0.105467
  26 H :    0.027309
  27 H :    0.029619
  28 C :   -0.069953
  29 H :    0.053377
  30 H :    0.023414
  31 H :    0.048349
  32 H :    0.051883
  33 H :    0.073485
Sum of atomic charges:    0.0000000

LOEWDIN ATOMIC CHARGES
----------------------
   0 S :    0.421810
   1 C :   -0.197021
   2 C :   -0.070051
   3 C :   -0.054122
   4 C :   -0.196928
   5 H :    0.014863
   6 C :   -0.026604
   7 H :    0.034799
   8 H :    0.034668
   9 C :   -0.051040
  10 H :    0.022449
  11 H :    0.024396
  12 C :   -0.070220
  13 H :    0.026592
  14 H :    0.022427
  15 H :    0.033214
  16 S :    0.430938
  17 C :   -0.202439
  18 C :   -0.068875
  19 C :   -0.047909
  20 C :   -0.209607
  21 H :    0.013789
  22 C :   -0.036069
  23 H :    0.039137
  24 H :    0.027315
  25 C :   -0.053908
  26 H :    0.024996
  27 H :    0.028596
  28 C :   -0.078273
  29 H :    0.040409
  30 H :    0.017709
  31 H :    0.033166
  32 H :    0.028984
  33 H :    0.042810

  Mayer bond orders larger than 0.100000
B(  0-S ,  1-C ) :   1.1685 B(  0-S ,  4-C ) :   1.1682 B(  1-C ,  2-C ) :   1.5623
B(  1-C ,  4-C ) :   0.1030 B(  1-C , 32-H ) :   0.9749 B(  2-C ,  3-C ) :   1.2836
B(  2-C ,  6-C ) :   1.0014 B(  3-C ,  4-C ) :   1.5394 B(  3-C ,  5-H ) :   0.9996
B(  4-C , 20-C ) :   1.0331 B(  6-C ,  7-H ) :   0.9451 B(  6-C ,  8-H ) :   0.9418
B(  6-C ,  9-C ) :   1.0714 B(  9-C , 10-H ) :   0.9594 B(  9-C , 11-H ) :   0.9564
B(  9-C , 12-C ) :   1.0766 B( 12-C , 13-H ) :   0.9754 B( 12-C , 14-H ) :   0.9746
B( 12-C , 15-H ) :   0.9659 B( 16-S , 17-C ) :   1.1622 B( 16-S , 20-C ) :   1.1659
B( 17-C , 18-C ) :   1.5931 B( 17-C , 33-H ) :   0.9672 B( 18-C , 19-C ) :   1.2338
B( 18-C , 21-H ) :   0.9972 B( 19-C , 20-C ) :   1.5509 B( 19-C , 22-C ) :   1.0505
B( 22-C , 23-H ) :   0.9340 B( 22-C , 24-H ) :   0.9444 B( 22-C , 25-C ) :   1.0595
B( 25-C , 26-H ) :   0.9514 B( 25-C , 27-H ) :   0.9536 B( 25-C , 28-C ) :   1.0817
B( 28-C , 29-H ) :   0.9679 B( 28-C , 30-H ) :   0.9730 B( 28-C , 31-H ) :   0.9672

Dispersion correction           -0.014573188
FINAL SINGLE POINT ENERGY     -1339.858595706894

DIPOLE MOMENT
-------------
                                X             Y             Z
Electronic contribution:     22.19682     -12.75745       3.96690
Nuclear contribution   :    -22.70046      13.19172      -4.19625
                        -----------------------------------------
Total Dipole Moment    :     -0.50364       0.43426      -0.22935
                        -----------------------------------------
Magnitude (a.u.)       :      0.70345
Magnitude (Debye)      :      1.78802

Rotational constants in cm-1:     0.019338     0.008354     0.006688
Rotational constants in MHz :   579.741378   250.435831   200.500550

                             ****ORCA TERMINATED NORMALLY****
TOTAL RUN TIME: 0 days 0 hours 0 minutes 21 seconds 540 msec
