                         Program Version 4.2.1 -  RELEASE  -
|  1> ! wB97X-D3 SP def2-SVP
|  2> %pal
|  3> nprocs 24
|  4> end
|  5>
|  6> * xyz 0 1
|  7> S 	 -102.854 	 13.5194 	 -123.549
|  8> C 	 -104.426 	 13.4471 	 -124.345
|  9> C 	 -105.193 	 12.3403 	 -123.953
| 10> C 	 -104.583 	 11.6765 	 -122.869
| 11> C 	 -103.364 	 12.1803 	 -122.55
| 12> H 	 -105.032 	 10.8015 	 -122.336
| 13> C 	 -106.654 	 12.0435 	 -124.353
| 14> H 	 -106.774 	 10.9757 	 -124.609
| 15> H 	 -106.775 	 12.6744 	 -125.268
| 16> C 	 -107.788 	 12.5107 	 -123.373
| 17> H 	 -107.802 	 13.589 	 -123.444
| 18> H 	 -108.747 	 12.1535 	 -123.671
| 19> C 	 -107.605 	 12.1173 	 -121.941
| 20> H 	 -107.491 	 11.0101 	 -121.834
| 21> H 	 -106.795 	 12.7363 	 -121.642
| 22> H 	 -108.446 	 12.286 	 -121.354
| 23> S 	 -100.873 	 11.1688 	 -121.948
| 24> C 	 -100.531 	 10.8331 	 -120.294
| 25> C 	 -101.638 	 10.9323 	 -119.483
| 26> C 	 -102.754 	 11.5356 	 -120.131
| 27> C 	 -102.51 	 11.6921 	 -121.465
| 28> H 	 -101.514 	 10.8247 	 -118.402
| 29> C 	 -103.996 	 11.7463 	 -119.386
| 30> H 	 -104.089 	 10.8807 	 -118.653
| 31> H 	 -104.722 	 11.5574 	 -120.162
| 32> C 	 -104.095 	 13.1773 	 -118.708
| 33> H 	 -103.789 	 13.0183 	 -117.663
| 34> H 	 -105.081 	 13.5123 	 -118.571
| 35> C 	 -103.295 	 14.412 	 -119.351
| 36> H 	 -103.411 	 15.3213 	 -118.892
| 37> H 	 -103.496 	 14.5234 	 -120.39
| 38> H 	 -102.222 	 14.1901 	 -119.167
| 39> H 	 -104.781 	 14.2371 	 -124.989
| 40> H 	 -99.4854 	 10.666 	 -119.997
| 41> *
| 42>
| 43>                          ****END OF INPUT****

CARTESIAN COORDINATES (ANGSTROEM)
---------------------------------
  S    -102.854000   13.519400  -123.549000
  C    -104.426000   13.447100  -124.345000
  C    -105.193000   12.340300  -123.953000
  C    -104.583000   11.676500  -122.869000
  C    -103.364000   12.180300  -122.550000
  H    -105.032000   10.801500  -122.336000
  C    -106.654000   12.043500  -124.353000
  H    -106.774000   10.975700  -124.609000
  H    -106.775000   12.674400  -125.268000
  C    -107.788000   12.510700  -123.373000
  H    -107.802000   13.589000  -123.444000
  H    -108.747000   12.153500  -123.671000
  C    -107.605000   12.117300  -121.941000
  H    -107.491000   11.010100  -121.834000
  H    -106.795000   12.736300  -121.642000
  H    -108.446000   12.286000  -121.354000
  S    -100.873000   11.168800  -121.948000
  C    -100.531000   10.833100  -120.294000
  C    -101.638000   10.932300  -119.483000
  C    -102.754000   11.535600  -120.131000
  C    -102.510000   11.692100  -121.465000
  H    -101.514000   10.824700  -118.402000
  C    -103.996000   11.746300  -119.386000
  H    -104.089000   10.880700  -118.653000
  H    -104.722000   11.557400  -120.162000
  C    -104.095000   13.177300  -118.708000
  H    -103.789000   13.018300  -117.663000
  H    -105.081000   13.512300  -118.571000
  C    -103.295000   14.412000  -119.351000
  H    -103.411000   15.321300  -118.892000
  H    -103.496000   14.523400  -120.390000
  H    -102.222000   14.190100  -119.167000
  H    -104.781000   14.237100  -124.989000
  H    -99.485400   10.666000  -119.997000

 Total Charge           Charge          ....    0
 Multiplicity           Mult            ....    1
 Number of Electrons    NEL             ....  134
 Basis Dimension        Dim             ....  322

ORBITAL ENERGIES
----------------

  NO   OCC          E(Eh)            E(eV)
   0   2.0000     -88.970822     -2421.0191
   1   2.0000     -88.960150     -2420.7287
   2   2.0000     -10.323572      -280.9187
   3   2.0000     -10.319770      -280.8152
   4   2.0000     -10.317858      -280.7632
   5   2.0000     -10.313015      -280.6314
   6   2.0000     -10.303537      -280.3735
   7   2.0000     -10.300317      -280.2859
   8   2.0000     -10.294368      -280.1240
   9   2.0000     -10.293767      -280.1076
  10   2.0000     -10.291797      -280.0540
  11   2.0000     -10.288909      -279.9754
  12   2.0000     -10.287800      -279.9453
  13   2.0000     -10.283357      -279.8244
  14   2.0000     -10.269641      -279.4511
  15   2.0000     -10.269298      -279.4418
  16   2.0000      -8.085160      -220.0084
  17   2.0000      -8.075363      -219.7418
  18   2.0000      -6.043503      -164.4521
  19   2.0000      -6.039890      -164.3538
  20   2.0000      -6.035942      -164.2463
  21   2.0000      -6.033722      -164.1859
  22   2.0000      -6.029950      -164.0833
  23   2.0000      -6.026130      -163.9793
  24   2.0000      -1.007725       -27.4216
  25   2.0000      -0.984841       -26.7989
  26   2.0000      -0.911345       -24.7990
  27   2.0000      -0.903194       -24.5771
  28   2.0000      -0.866008       -23.5653
  29   2.0000      -0.852366       -23.1941
  30   2.0000      -0.843275       -22.9467
  31   2.0000      -0.811654       -22.0862
  32   2.0000      -0.786924       -21.4133
  33   2.0000      -0.771793       -21.0016
  34   2.0000      -0.711254       -19.3542
  35   2.0000      -0.699752       -19.0412
  36   2.0000      -0.689938       -18.7742
  37   2.0000      -0.660347       -17.9690
  38   2.0000      -0.638836       -17.3836
  39   2.0000      -0.613931       -16.7059
  40   2.0000      -0.586042       -15.9470
  41   2.0000      -0.579383       -15.7658
  42   2.0000      -0.551773       -15.0145
  43   2.0000      -0.546505       -14.8712
  44   2.0000      -0.544708       -14.8222
  45   2.0000      -0.536604       -14.6017
  46   2.0000      -0.514303       -13.9949
  47   2.0000      -0.508028       -13.8241
  48   2.0000      -0.502703       -13.6793
  49   2.0000      -0.492455       -13.4004
  50   2.0000      -0.485571       -13.2131
  51   2.0000      -0.484173       -13.1750
  52   2.0000      -0.468975       -12.7615
  53   2.0000      -0.460103       -12.5200
  54   2.0000      -0.455771       -12.4022
  55   2.0000      -0.447567       -12.1789
  56   2.0000      -0.444534       -12.0964
  57   2.0000      -0.439963       -11.9720
  58   2.0000      -0.433612       -11.7992
  59   2.0000      -0.423562       -11.5257
  60   2.0000      -0.419665       -11.4197
  61   2.0000      -0.417663       -11.3652
  62   2.0000      -0.407823       -11.0974
  63   2.0000      -0.341683        -9.2977
  64   2.0000      -0.333256        -9.0684
  65   2.0000      -0.329101        -8.9553
  66   2.0000      -0.291719        -7.9381
  67   0.0000       0.035556         0.9675
  68   0.0000       0.065945         1.7945
  69   0.0000       0.106185         2.8895
  70   0.0000       0.117405         3.1947
  71   0.0000       0.127433         3.4676

MULLIKEN ATOMIC CHARGES
-----------------------
   0 S :    0.126559
   1 C :   -0.134894
   2 C :   -0.088390
   3 C :    0.013139
   4 C :   -0.159801
   5 H :    0.038863
   6 C :    0.039288
   7 H :    0.042946
   8 H :    0.027299
   9 C :   -0.042682
  10 H :    0.019062
  11 H :    0.018108
  12 C :   -0.043899
  13 H :    0.028358
  14 H :    0.053886
  15 H :    0.016393
  16 S :    0.097167
  17 C :   -0.106879
  18 C :   -0.026883
  19 C :   -0.074203
  20 C :   -0.169346
  21 H :    0.023585
  22 C :    0.100604
  23 H :    0.044284
  24 H :    0.001703
  25 C :   -0.067904
  26 H :    0.022860
  27 H :    0.017788
  28 C :   -0.012897
  29 H :    0.014916
  30 H :    0.032137
  31 H :    0.035652
  32 H :    0.047696
  33 H :    0.065484
Sum of atomic charges:   -0.0000000

LOEWDIN ATOMIC CHARGES
----------------------
   0 S :    0.406866
   1 C :   -0.191531
   2 C :   -0.065752
   3 C :   -0.065578
   4 C :   -0.197883
   5 H :    0.041763
   6 C :   -0.031540
   7 H :    0.032655
   8 H :    0.034727
   9 C :   -0.033096
  10 H :    0.022466
  11 H :    0.018447
  12 C :   -0.063531
  13 H :    0.028290
  14 H :    0.026980
  15 H :    0.017919
  16 S :    0.390793
  17 C :   -0.188361
  18 C :   -0.077447
  19 C :   -0.059954
  20 C :   -0.189476
  21 H :    0.032763
  22 C :   -0.032907
  23 H :    0.043581
  24 H :    0.027118
  25 C :   -0.033130
  26 H :    0.025105
  27 H :    0.014978
  28 C :   -0.056381
  29 H :    0.014620
  30 H :    0.020595
  31 H :    0.032647
  32 H :    0.023954
  33 H :    0.030300

  Mayer bond orders larger than 0.100000
B(  0-S ,  1-C ) :   1.1397 B(  0-S ,  4-C ) :   1.1449 B(  1-C ,  2-C ) :   1.6091
B(  1-C ,  4-C ) :   0.1003 B(  1-C , 32-H ) :   0.9672 B(  2-C ,  3-C ) :   1.2337
B(  2-C ,  6-C ) :   1.0264 B(  3-C ,  4-C ) :   1.6004 B(  3-C ,  5-H ) :   0.9800
B(  4-C , 20-C ) :   1.0088 B(  6-C ,  7-H ) :   0.9419 B(  6-C ,  8-H ) :   0.9439
B(  6-C ,  9-C ) :   1.0618 B(  9-C , 10-H ) :   0.9558 B(  9-C , 11-H ) :   0.9546
B(  9-C , 12-C ) :   1.1003 B( 12-C , 13-H ) :   0.9698 B( 12-C , 14-H ) :   0.9673
B( 12-C , 15-H ) :   0.9668 B( 16-S , 17-C ) :   1.1565 B( 16-S , 20-C ) :   1.1347
B( 17-C , 18-C ) :   1.6184 B( 17-C , 33-H ) :   0.9648 B( 18-C , 19-C ) :   1.2166
B( 18-C , 21-H ) :   0.9831 B( 19-C , 20-C ) :   1.6292 B( 19-C , 22-C ) :   1.0370
B( 22-C , 23-H ) :   0.9460 B( 22-C , 24-H ) :   0.9225 B( 22-C , 25-C ) :   1.0298
B( 25-C , 26-H ) :   0.9568 B( 25-C , 27-H ) :   0.9619 B( 25-C , 28-C ) :   1.0835
B( 28-C , 29-H ) :   0.9752 B( 28-C , 30-H ) :   0.9753 B( 28-C , 31-H ) :   0.9701

Dispersion correction           -0.016538180
FINAL SINGLE POINT ENERGY     -1339.862801211953

DIPOLE MOMENT
-------------
                                X             Y             Z
Electronic contribution:     22.81792      -4.06830     -11.25108
Nuclear contribution   :    -23.42873       4.15992      11.60684
                        -----------------------------------------
Total Dipole Moment    :     -0.61082       0.09161       0.35576
                        -----------------------------------------
Magnitude (a.u.)       :      0.71278
Magnitude (Debye)      :      1.81174

Rotational constants in cm-1:     0.019639     0.010100     0.008260
Rotational constants in MHz :   588.774366   302.795996   247.640796

                             ****ORCA TERMINATED NORMALLY****
TOTAL RUN TIME: 0 days 0 hours 0 minutes 22 seconds 326 msec
