                         Program Version 4.2.1 -  RELEASE  -
|  1> ! wB97X-D3 SP def2-SVP
|  2> %pal
|  3> nprocs 24
|  4> end
|  5>
|  6> * xyz 0 1
|  7> S 	 -49.9685 	 14.0053 	 -102.861
|  8> C 	 -51.0346 	 12.7988 	 -102.382
|  9> C 	 -50.6032 	 11.5077 	 -102.832
| 10> C 	 -49.4258 	 11.5662 	 -103.702
| 11> C 	 -48.9723 	 12.8538 	 -103.803
| 12> H 	 -48.8657 	 10.7556 	 -104.077
| 13> C 	 -51.3573 	 10.1632 	 -102.585
| 14> H 	 -52.2328 	 10.3143 	 -101.927
| 15> H 	 -50.609 	 9.6272 	 -102.017
| 16> C 	 -51.5924 	 9.26242 	 -103.839
| 17> H 	 -50.6849 	 8.79658 	 -104.222
| 18> H 	 -52.1927 	 8.38692 	 -103.514
| 19> C 	 -52.3637 	 10.0775 	 -104.965
| 20> H 	 -52.4127 	 9.42273 	 -105.928
| 21> H 	 -53.4021 	 10.3321 	 -104.711
| 22> H 	 -51.8587 	 11.0131 	 -105.243
| 23> S 	 -47.7603 	 13.4982 	 -106.201
| 24> C 	 -46.1368 	 14.0142 	 -106.304
| 25> C 	 -45.6853 	 14.2122 	 -104.992
| 26> C 	 -46.5769 	 13.8642 	 -103.973
| 27> C 	 -47.8129 	 13.3587 	 -104.453
| 28> H 	 -44.6759 	 14.5919 	 -104.867
| 29> C 	 -46.1352 	 14.0607 	 -102.505
| 30> H 	 -46.9258 	 13.6211 	 -101.93
| 31> H 	 -46.1749 	 15.0921 	 -102.461
| 32> C 	 -44.8517 	 13.478 	 -101.935
| 33> H 	 -44.0071 	 13.9463 	 -102.483
| 34> H 	 -44.7953 	 12.4082 	 -102.255
| 35> C 	 -44.7368 	 13.4768 	 -100.384
| 36> H 	 -44.5608 	 14.5075 	 -100.033
| 37> H 	 -43.8626 	 12.9616 	 -100.031
| 38> H 	 -45.5788 	 12.8531 	 -100.001
| 39> H 	 -51.8373 	 12.9296 	 -101.767
| 40> H 	 -45.5085 	 14.318 	 -107.156
| 41> *
| 42>
| 43>                          ****END OF INPUT****

CARTESIAN COORDINATES (ANGSTROEM)
---------------------------------
  S    -49.968500   14.005300  -102.861000
  C    -51.034600   12.798800  -102.382000
  C    -50.603200   11.507700  -102.832000
  C    -49.425800   11.566200  -103.702000
  C    -48.972300   12.853800  -103.803000
  H    -48.865700   10.755600  -104.077000
  C    -51.357300   10.163200  -102.585000
  H    -52.232800   10.314300  -101.927000
  H    -50.609000    9.627200  -102.017000
  C    -51.592400    9.262420  -103.839000
  H    -50.684900    8.796580  -104.222000
  H    -52.192700    8.386920  -103.514000
  C    -52.363700   10.077500  -104.965000
  H    -52.412700    9.422730  -105.928000
  H    -53.402100   10.332100  -104.711000
  H    -51.858700   11.013100  -105.243000
  S    -47.760300   13.498200  -106.201000
  C    -46.136800   14.014200  -106.304000
  C    -45.685300   14.212200  -104.992000
  C    -46.576900   13.864200  -103.973000
  C    -47.812900   13.358700  -104.453000
  H    -44.675900   14.591900  -104.867000
  C    -46.135200   14.060700  -102.505000
  H    -46.925800   13.621100  -101.930000
  H    -46.174900   15.092100  -102.461000
  C    -44.851700   13.478000  -101.935000
  H    -44.007100   13.946300  -102.483000
  H    -44.795300   12.408200  -102.255000
  C    -44.736800   13.476800  -100.384000
  H    -44.560800   14.507500  -100.033000
  H    -43.862600   12.961600  -100.031000
  H    -45.578800   12.853100  -100.001000
  H    -51.837300   12.929600  -101.767000
  H    -45.508500   14.318000  -107.156000

 Total Charge           Charge          ....    0
 Multiplicity           Mult            ....    1
 Number of Electrons    NEL             ....  134
 Basis Dimension        Dim             ....  322

ORBITAL ENERGIES
----------------

  NO   OCC          E(Eh)            E(eV)
   0   2.0000     -88.965902     -2420.8853
   1   2.0000     -88.965053     -2420.8622
   2   2.0000     -10.328902      -281.0637
   3   2.0000     -10.324559      -280.9455
   4   2.0000     -10.316519      -280.7267
   5   2.0000     -10.310736      -280.5694
   6   2.0000     -10.309529      -280.5365
   7   2.0000     -10.303479      -280.3719
   8   2.0000     -10.298412      -280.2340
   9   2.0000     -10.297182      -280.2006
  10   2.0000     -10.296839      -280.1912
  11   2.0000     -10.289614      -279.9946
  12   2.0000     -10.286848      -279.9194
  13   2.0000     -10.284235      -279.8483
  14   2.0000     -10.284030      -279.8427
  15   2.0000     -10.279901      -279.7303
  16   2.0000      -8.081151      -219.8993
  17   2.0000      -8.079963      -219.8670
  18   2.0000      -6.039473      -164.3424
  19   2.0000      -6.038342      -164.3116
  20   2.0000      -6.035514      -164.2347
  21   2.0000      -6.034169      -164.1981
  22   2.0000      -6.032128      -164.1425
  23   2.0000      -6.031105      -164.1147
  24   2.0000      -1.006800       -27.3964
  25   2.0000      -0.984180       -26.7809
  26   2.0000      -0.905773       -24.6473
  27   2.0000      -0.899414       -24.4743
  28   2.0000      -0.874628       -23.7998
  29   2.0000      -0.848220       -23.0812
  30   2.0000      -0.840829       -22.8801
  31   2.0000      -0.809709       -22.0333
  32   2.0000      -0.781964       -21.2783
  33   2.0000      -0.767197       -20.8765
  34   2.0000      -0.709793       -19.3144
  35   2.0000      -0.698585       -19.0095
  36   2.0000      -0.692384       -18.8407
  37   2.0000      -0.655803       -17.8453
  38   2.0000      -0.647060       -17.6074
  39   2.0000      -0.617644       -16.8070
  40   2.0000      -0.590906       -16.0794
  41   2.0000      -0.569572       -15.4988
  42   2.0000      -0.564180       -15.3521
  43   2.0000      -0.543363       -14.7857
  44   2.0000      -0.535600       -14.5744
  45   2.0000      -0.520287       -14.1577
  46   2.0000      -0.518615       -14.1122
  47   2.0000      -0.515045       -14.0151
  48   2.0000      -0.509356       -13.8603
  49   2.0000      -0.500311       -13.6141
  50   2.0000      -0.488707       -13.2984
  51   2.0000      -0.475925       -12.9506
  52   2.0000      -0.472812       -12.8659
  53   2.0000      -0.464970       -12.6525
  54   2.0000      -0.459411       -12.5012
  55   2.0000      -0.449088       -12.2203
  56   2.0000      -0.443224       -12.0607
  57   2.0000      -0.431905       -11.7527
  58   2.0000      -0.424538       -11.5523
  59   2.0000      -0.420575       -11.4444
  60   2.0000      -0.416721       -11.3396
  61   2.0000      -0.412728       -11.2309
  62   2.0000      -0.405762       -11.0413
  63   2.0000      -0.345414        -9.3992
  64   2.0000      -0.329541        -8.9673
  65   2.0000      -0.318154        -8.6574
  66   2.0000      -0.297524        -8.0960
  67   0.0000       0.037498         1.0204
  68   0.0000       0.060089         1.6351
  69   0.0000       0.113245         3.0816
  70   0.0000       0.118629         3.2281
  71   0.0000       0.137310         3.7364

MULLIKEN ATOMIC CHARGES
-----------------------
   0 S :    0.128300
   1 C :   -0.069615
   2 C :   -0.138677
   3 C :    0.069511
   4 C :   -0.187348
   5 H :    0.008059
   6 C :    0.069092
   7 H :    0.030826
   8 H :    0.030433
   9 C :   -0.076171
  10 H :    0.032954
  11 H :    0.037656
  12 C :   -0.095642
  13 H :    0.041484
  14 H :    0.036568
  15 H :    0.055637
  16 S :    0.125268
  17 C :   -0.098801
  18 C :   -0.072231
  19 C :   -0.022262
  20 C :   -0.182821
  21 H :    0.016687
  22 C :    0.127864
  23 H :    0.005043
  24 H :    0.021945
  25 C :   -0.105542
  26 H :    0.025140
  27 H :    0.029830
  28 C :   -0.040862
  29 H :    0.041619
  30 H :    0.026064
  31 H :    0.047760
  32 H :    0.013166
  33 H :    0.069064
Sum of atomic charges:   -0.0000000

LOEWDIN ATOMIC CHARGES
----------------------
   0 S :    0.427138
   1 C :   -0.209603
   2 C :   -0.056020
   3 C :   -0.044816
   4 C :   -0.187816
   5 H :    0.030779
   6 C :   -0.037444
   7 H :    0.031376
   8 H :    0.032773
   9 C :   -0.043236
  10 H :    0.023046
  11 H :    0.030878
  12 C :   -0.077246
  13 H :    0.032892
  14 H :    0.024406
  15 H :    0.027838
  16 S :    0.437558
  17 C :   -0.211153
  18 C :   -0.084857
  19 C :   -0.049517
  20 C :   -0.221245
  21 H :    0.028124
  22 C :   -0.027944
  23 H :    0.022883
  24 H :    0.024744
  25 C :   -0.047658
  26 H :    0.019650
  27 H :    0.028172
  28 C :   -0.065937
  29 H :    0.030191
  30 H :    0.024725
  31 H :    0.035972
  32 H :    0.008929
  33 H :    0.042419

  Mayer bond orders larger than 0.100000
B(  0-S ,  1-C ) :   1.1625 B(  0-S ,  4-C ) :   1.1413 B(  1-C ,  2-C ) :   1.5886
B(  1-C , 32-H ) :   0.9799 B(  2-C ,  3-C ) :   1.2182 B(  2-C ,  6-C ) :   1.0182
B(  3-C ,  4-C ) :   1.5999 B(  3-C ,  5-H ) :   0.9980 B(  4-C , 20-C ) :   1.0388
B(  6-C ,  7-H ) :   0.9513 B(  6-C ,  8-H ) :   0.9329 B(  6-C ,  9-C ) :   1.0704
B(  9-C , 10-H ) :   0.9533 B(  9-C , 11-H ) :   0.9556 B(  9-C , 12-C ) :   1.0639
B( 12-C , 13-H ) :   0.9771 B( 12-C , 14-H ) :   0.9779 B( 12-C , 15-H ) :   0.9742
B( 16-S , 17-C ) :   1.1901 B( 16-S , 20-C ) :   1.1604 B( 17-C , 18-C ) :   1.5477
B( 17-C , 20-C ) :   0.1174 B( 17-C , 33-H ) :   0.9648 B( 18-C , 19-C ) :   1.3041
B( 18-C , 21-H ) :   0.9896 B( 19-C , 20-C ) :   1.5221 B( 19-C , 22-C ) :   1.0233
B( 22-C , 23-H ) :   0.9269 B( 22-C , 24-H ) :   0.9294 B( 22-C , 25-C ) :   1.0671
B( 25-C , 26-H ) :   0.9509 B( 25-C , 27-H ) :   0.9573 B( 25-C , 28-C ) :   1.0862
B( 28-C , 29-H ) :   0.9758 B( 28-C , 30-H ) :   0.9733 B( 28-C , 31-H ) :   0.9715

Dispersion correction           -0.014315489
FINAL SINGLE POINT ENERGY     -1339.862853536122

DIPOLE MOMENT
-------------
                                X             Y             Z
Electronic contribution:     -2.41150      12.84234     -11.16771
Nuclear contribution   :      2.65669     -13.15997      11.51478
                        -----------------------------------------
Total Dipole Moment    :      0.24519      -0.31763       0.34707
                        -----------------------------------------
Magnitude (a.u.)       :      0.53053
Magnitude (Debye)      :      1.34850

Rotational constants in cm-1:     0.018671     0.008244     0.006802
Rotational constants in MHz :   559.741825   247.135630   203.918575

                             ****ORCA TERMINATED NORMALLY****
TOTAL RUN TIME: 0 days 0 hours 0 minutes 20 seconds 97 msec
