                         Program Version 4.2.1 -  RELEASE  -
|  1> ! wB97X-D3 SP def2-SVP
|  2> %pal
|  3> nprocs 24
|  4> end
|  5>
|  6> * xyz 0 1
|  7> S 	 -55.8029 	 13.5906 	 20.1876
|  8> C 	 -55.134 	 12.0038 	 19.9473
|  9> C 	 -54.1481 	 11.7997 	 20.927
| 10> C 	 -54.0036 	 12.8818 	 21.9068
| 11> C 	 -54.9412 	 13.8925 	 21.6922
| 12> H 	 -53.435 	 12.7244 	 22.8095
| 13> C 	 -53.2655 	 10.6272 	 21.0995
| 14> H 	 -53.9662 	 9.71157 	 21.2531
| 15> H 	 -52.5645 	 10.7162 	 21.8907
| 16> C 	 -52.3617 	 10.3076 	 19.8894
| 17> H 	 -53.0206 	 10.2928 	 19.045
| 18> H 	 -51.5747 	 11.0299 	 19.8151
| 19> C 	 -51.585 	 8.96826 	 19.8809
| 20> H 	 -50.8962 	 9.01118 	 19.0256
| 21> H 	 -50.9838 	 9.08683 	 20.7244
| 22> H 	 -52.2434 	 8.09471 	 19.9663
| 23> S 	 -56.904 	 14.9328 	 23.383
| 24> C 	 -56.5664 	 16.3091 	 24.4201
| 25> C 	 -55.2148 	 16.6224 	 24.3245
| 26> C 	 -54.4639 	 15.8989 	 23.3335
| 27> C 	 -55.2774 	 14.95 	 22.688
| 28> H 	 -54.6476 	 17.4497 	 24.865
| 29> C 	 -53.049 	 16.323 	 23.0022
| 30> H 	 -52.9711 	 17.3884 	 23.1877
| 31> H 	 -52.9652 	 16.1869 	 21.9262
| 32> C 	 -51.9744 	 15.5646 	 23.7551
| 33> H 	 -51.9503 	 14.542 	 23.4699
| 34> H 	 -52.0013 	 15.7442 	 24.8082
| 35> C 	 -50.6871 	 16.3531 	 23.3016
| 36> H 	 -50.7213 	 17.3787 	 23.599
| 37> H 	 -50.6229 	 16.1952 	 22.2383
| 38> H 	 -49.8208 	 15.874 	 23.6982
| 39> H 	 -55.2676 	 11.373 	 19.0713
| 40> H 	 -57.2655 	 16.9849 	 24.917
| 41> *
| 42>
| 43>                          ****END OF INPUT****

CARTESIAN COORDINATES (ANGSTROEM)
---------------------------------
  S    -55.802900   13.590600   20.187600
  C    -55.134000   12.003800   19.947300
  C    -54.148100   11.799700   20.927000
  C    -54.003600   12.881800   21.906800
  C    -54.941200   13.892500   21.692200
  H    -53.435000   12.724400   22.809500
  C    -53.265500   10.627200   21.099500
  H    -53.966200    9.711570   21.253100
  H    -52.564500   10.716200   21.890700
  C    -52.361700   10.307600   19.889400
  H    -53.020600   10.292800   19.045000
  H    -51.574700   11.029900   19.815100
  C    -51.585000    8.968260   19.880900
  H    -50.896200    9.011180   19.025600
  H    -50.983800    9.086830   20.724400
  H    -52.243400    8.094710   19.966300
  S    -56.904000   14.932800   23.383000
  C    -56.566400   16.309100   24.420100
  C    -55.214800   16.622400   24.324500
  C    -54.463900   15.898900   23.333500
  C    -55.277400   14.950000   22.688000
  H    -54.647600   17.449700   24.865000
  C    -53.049000   16.323000   23.002200
  H    -52.971100   17.388400   23.187700
  H    -52.965200   16.186900   21.926200
  C    -51.974400   15.564600   23.755100
  H    -51.950300   14.542000   23.469900
  H    -52.001300   15.744200   24.808200
  C    -50.687100   16.353100   23.301600
  H    -50.721300   17.378700   23.599000
  H    -50.622900   16.195200   22.238300
  H    -49.820800   15.874000   23.698200
  H    -55.267600   11.373000   19.071300
  H    -57.265500   16.984900   24.917000

 Total Charge           Charge          ....    0
 Multiplicity           Mult            ....    1
 Number of Electrons    NEL             ....  134
 Basis Dimension        Dim             ....  322

ORBITAL ENERGIES
----------------

  NO   OCC          E(Eh)            E(eV)
   0   2.0000     -88.969487     -2420.9828
   1   2.0000     -88.965718     -2420.8803
   2   2.0000     -10.337101      -281.2868
   3   2.0000     -10.331839      -281.1436
   4   2.0000     -10.319990      -280.8212
   5   2.0000     -10.319717      -280.8138
   6   2.0000     -10.305474      -280.4262
   7   2.0000     -10.301111      -280.3075
   8   2.0000     -10.299536      -280.2646
   9   2.0000     -10.297900      -280.2201
  10   2.0000     -10.292969      -280.0859
  11   2.0000     -10.289099      -279.9806
  12   2.0000     -10.283571      -279.8302
  13   2.0000     -10.281183      -279.7652
  14   2.0000     -10.276709      -279.6435
  15   2.0000     -10.272609      -279.5319
  16   2.0000      -8.083863      -219.9731
  17   2.0000      -8.079802      -219.8626
  18   2.0000      -6.042472      -164.4240
  19   2.0000      -6.038418      -164.3137
  20   2.0000      -6.038227      -164.3085
  21   2.0000      -6.034709      -164.2128
  22   2.0000      -6.034346      -164.2029
  23   2.0000      -6.030520      -164.0988
  24   2.0000      -1.000512       -27.2253
  25   2.0000      -0.980184       -26.6722
  26   2.0000      -0.916035       -24.9266
  27   2.0000      -0.913422       -24.8555
  28   2.0000      -0.864958       -23.5367
  29   2.0000      -0.852680       -23.2026
  30   2.0000      -0.847562       -23.0633
  31   2.0000      -0.810989       -22.0681
  32   2.0000      -0.777301       -21.1514
  33   2.0000      -0.768073       -20.9003
  34   2.0000      -0.708807       -19.2876
  35   2.0000      -0.700253       -19.0548
  36   2.0000      -0.690052       -18.7773
  37   2.0000      -0.659324       -17.9411
  38   2.0000      -0.641246       -17.4492
  39   2.0000      -0.613688       -16.6993
  40   2.0000      -0.593636       -16.1536
  41   2.0000      -0.584658       -15.9094
  42   2.0000      -0.579645       -15.7729
  43   2.0000      -0.560739       -15.2585
  44   2.0000      -0.525966       -14.3123
  45   2.0000      -0.521461       -14.1897
  46   2.0000      -0.516852       -14.0643
  47   2.0000      -0.514537       -14.0013
  48   2.0000      -0.506635       -13.7862
  49   2.0000      -0.500950       -13.6315
  50   2.0000      -0.495702       -13.4887
  51   2.0000      -0.482022       -13.1165
  52   2.0000      -0.471348       -12.8260
  53   2.0000      -0.467800       -12.7295
  54   2.0000      -0.456756       -12.4290
  55   2.0000      -0.449445       -12.2300
  56   2.0000      -0.444447       -12.0940
  57   2.0000      -0.441802       -12.0220
  58   2.0000      -0.430149       -11.7049
  59   2.0000      -0.427890       -11.6435
  60   2.0000      -0.419608       -11.4181
  61   2.0000      -0.411765       -11.2047
  62   2.0000      -0.406585       -11.0637
  63   2.0000      -0.344635        -9.3780
  64   2.0000      -0.327599        -8.9144
  65   2.0000      -0.322437        -8.7740
  66   2.0000      -0.297582        -8.0976
  67   0.0000       0.024819         0.6754
  68   0.0000       0.066909         1.8207
  69   0.0000       0.114581         3.1179
  70   0.0000       0.120479         3.2784
  71   0.0000       0.127069         3.4577

MULLIKEN ATOMIC CHARGES
-----------------------
   0 S :    0.117876
   1 C :   -0.110657
   2 C :   -0.110313
   3 C :    0.041346
   4 C :   -0.160744
   5 H :    0.030883
   6 C :    0.050942
   7 H :    0.049618
   8 H :    0.005170
   9 C :   -0.101022
  10 H :    0.014360
  11 H :    0.022665
  12 C :   -0.016846
  13 H :    0.039751
  14 H :    0.007616
  15 H :    0.040190
  16 S :    0.109700
  17 C :   -0.093879
  18 C :   -0.050028
  19 C :   -0.033731
  20 C :   -0.162122
  21 H :    0.034117
  22 C :    0.028129
  23 H :    0.017910
  24 H :    0.034022
  25 C :   -0.045739
  26 H :    0.026911
  27 H :    0.028777
  28 C :   -0.021024
  29 H :    0.033772
  30 H :    0.022759
  31 H :    0.017821
  32 H :    0.061914
  33 H :    0.069858
Sum of atomic charges:    0.0000000

LOEWDIN ATOMIC CHARGES
----------------------
   0 S :    0.415841
   1 C :   -0.207170
   2 C :   -0.061473
   3 C :   -0.059157
   4 C :   -0.196728
   5 H :    0.031120
   6 C :   -0.039916
   7 H :    0.044864
   8 H :    0.019741
   9 C :   -0.035015
  10 H :    0.011307
  11 H :    0.020805
  12 C :   -0.057779
  13 H :    0.032599
  14 H :    0.014293
  15 H :    0.025693
  16 S :    0.401924
  17 C :   -0.196569
  18 C :   -0.078308
  19 C :   -0.059320
  20 C :   -0.197193
  21 H :    0.037487
  22 C :   -0.029987
  23 H :    0.029538
  24 H :    0.034776
  25 C :   -0.023651
  26 H :    0.019177
  27 H :    0.022191
  28 C :   -0.053420
  29 H :    0.021922
  30 H :    0.023130
  31 H :    0.017149
  32 H :    0.033982
  33 H :    0.038150

  Mayer bond orders larger than 0.100000
B(  0-S ,  1-C ) :   1.1313 B(  0-S ,  4-C ) :   1.1695 B(  1-C ,  2-C ) :   1.5846
B(  1-C , 32-H ) :   0.9690 B(  2-C ,  3-C ) :   1.2618 B(  2-C ,  6-C ) :   1.0421
B(  3-C ,  4-C ) :   1.5438 B(  3-C ,  5-H ) :   0.9824 B(  4-C , 20-C ) :   1.0177
B(  6-C ,  7-H ) :   0.9344 B(  6-C ,  8-H ) :   0.9437 B(  6-C ,  9-C ) :   1.0608
B(  9-C , 10-H ) :   0.9617 B(  9-C , 11-H ) :   0.9597 B(  9-C , 12-C ) :   1.0780
B( 12-C , 13-H ) :   0.9738 B( 12-C , 14-H ) :   0.9758 B( 12-C , 15-H ) :   0.9758
B( 16-S , 17-C ) :   1.1482 B( 16-S , 20-C ) :   1.1445 B( 17-C , 18-C ) :   1.5919
B( 17-C , 20-C ) :   0.1009 B( 17-C , 33-H ) :   0.9658 B( 18-C , 19-C ) :   1.2757
B( 18-C , 21-H ) :   0.9690 B( 19-C , 20-C ) :   1.5850 B( 19-C , 22-C ) :   1.0286
B( 22-C , 23-H ) :   0.9443 B( 22-C , 24-H ) :   0.9341 B( 22-C , 25-C ) :   1.0749
B( 25-C , 26-H ) :   0.9515 B( 25-C , 27-H ) :   0.9562 B( 25-C , 28-C ) :   1.0817
B( 28-C , 29-H ) :   0.9770 B( 28-C , 30-H ) :   0.9738 B( 28-C , 31-H ) :   0.9722

Dispersion correction           -0.013568868
FINAL SINGLE POINT ENERGY     -1339.859552520972

DIPOLE MOMENT
-------------
                                X             Y             Z
Electronic contribution:    -28.73286       8.87455       0.63995
Nuclear contribution   :     29.42363      -8.95197      -0.54220
                        -----------------------------------------
Total Dipole Moment    :      0.69078      -0.07742       0.09774
                        -----------------------------------------
Magnitude (a.u.)       :      0.70194
Magnitude (Debye)      :      1.78419

Rotational constants in cm-1:     0.018180     0.008160     0.006185
Rotational constants in MHz :   545.018045   244.632485   185.427814

                             ****ORCA TERMINATED NORMALLY****
TOTAL RUN TIME: 0 days 0 hours 0 minutes 21 seconds 212 msec
