                         Program Version 4.2.1 -  RELEASE  -
|  1> ! wB97X-D3 SP def2-SVP
|  2> %pal
|  3> nprocs 24
|  4> end
|  5>
|  6> * xyz 0 1
|  7> S 	 -110.119 	 49.3553 	 -112.35
|  8> C 	 -109.802 	 48.4554 	 -113.883
|  9> C 	 -110.683 	 48.8302 	 -114.841
| 10> C 	 -111.784 	 49.5547 	 -114.383
| 11> C 	 -111.703 	 49.884 	 -113
| 12> H 	 -112.729 	 49.6668 	 -114.927
| 13> C 	 -110.615 	 48.4014 	 -116.278
| 14> H 	 -111.591 	 48.2241 	 -116.714
| 15> H 	 -110.105 	 47.4368 	 -116.394
| 16> C 	 -109.718 	 49.2642 	 -117.182
| 17> H 	 -108.826 	 49.6535 	 -116.594
| 18> H 	 -109.263 	 48.5602 	 -117.936
| 19> C 	 -110.413 	 50.4485 	 -117.821
| 20> H 	 -111.056 	 50.9093 	 -117.049
| 21> H 	 -109.85 	 51.2493 	 -118.338
| 22> H 	 -111.123 	 50.0218 	 -118.534
| 23> S 	 -112.095 	 52.0721 	 -111.266
| 24> C 	 -113.792 	 52.6217 	 -110.928
| 25> C 	 -114.624 	 51.7085 	 -111.501
| 26> C 	 -113.931 	 50.6298 	 -112.162
| 27> C 	 -112.595 	 50.7179 	 -112.245
| 28> H 	 -115.628 	 51.9121 	 -111.462
| 29> C 	 -114.742 	 49.5879 	 -112.834
| 30> H 	 -115.436 	 49.1901 	 -112.089
| 31> H 	 -114.1 	 48.7911 	 -113.277
| 32> C 	 -115.565 	 50.0967 	 -114.005
| 33> H 	 -116.047 	 49.2951 	 -114.542
| 34> H 	 -114.949 	 50.7452 	 -114.659
| 35> C 	 -116.838 	 50.8623 	 -113.582
| 36> H 	 -116.751 	 51.9499 	 -113.364
| 37> H 	 -117.246 	 50.511 	 -112.666
| 38> H 	 -117.623 	 50.7104 	 -114.327
| 39> H 	 -108.918 	 47.8863 	 -114.06
| 40> H 	 -114.093 	 53.4191 	 -110.256
| 41> *
| 42>
| 43>                          ****END OF INPUT****

CARTESIAN COORDINATES (ANGSTROEM)
---------------------------------
  S    -110.119000   49.355300  -112.350000
  C    -109.802000   48.455400  -113.883000
  C    -110.683000   48.830200  -114.841000
  C    -111.784000   49.554700  -114.383000
  C    -111.703000   49.884000  -113.000000
  H    -112.729000   49.666800  -114.927000
  C    -110.615000   48.401400  -116.278000
  H    -111.591000   48.224100  -116.714000
  H    -110.105000   47.436800  -116.394000
  C    -109.718000   49.264200  -117.182000
  H    -108.826000   49.653500  -116.594000
  H    -109.263000   48.560200  -117.936000
  C    -110.413000   50.448500  -117.821000
  H    -111.056000   50.909300  -117.049000
  H    -109.850000   51.249300  -118.338000
  H    -111.123000   50.021800  -118.534000
  S    -112.095000   52.072100  -111.266000
  C    -113.792000   52.621700  -110.928000
  C    -114.624000   51.708500  -111.501000
  C    -113.931000   50.629800  -112.162000
  C    -112.595000   50.717900  -112.245000
  H    -115.628000   51.912100  -111.462000
  C    -114.742000   49.587900  -112.834000
  H    -115.436000   49.190100  -112.089000
  H    -114.100000   48.791100  -113.277000
  C    -115.565000   50.096700  -114.005000
  H    -116.047000   49.295100  -114.542000
  H    -114.949000   50.745200  -114.659000
  C    -116.838000   50.862300  -113.582000
  H    -116.751000   51.949900  -113.364000
  H    -117.246000   50.511000  -112.666000
  H    -117.623000   50.710400  -114.327000
  H    -108.918000   47.886300  -114.060000
  H    -114.093000   53.419100  -110.256000

 Total Charge           Charge          ....    0
 Multiplicity           Mult            ....    1
 Number of Electrons    NEL             ....  134
 Basis Dimension        Dim             ....  322

ORBITAL ENERGIES
----------------

  NO   OCC          E(Eh)            E(eV)
   0   2.0000     -88.970382     -2421.0072
   1   2.0000     -88.959635     -2420.7147
   2   2.0000     -10.339934      -281.3639
   3   2.0000     -10.323181      -280.9080
   4   2.0000     -10.322638      -280.8933
   5   2.0000     -10.317282      -280.7475
   6   2.0000     -10.301263      -280.3116
   7   2.0000     -10.299386      -280.2605
   8   2.0000     -10.294650      -280.1317
   9   2.0000     -10.293784      -280.1081
  10   2.0000     -10.292819      -280.0818
  11   2.0000     -10.288882      -279.9747
  12   2.0000     -10.288084      -279.9530
  13   2.0000     -10.285837      -279.8919
  14   2.0000     -10.278275      -279.6861
  15   2.0000     -10.276823      -279.6466
  16   2.0000      -8.083559      -219.9648
  17   2.0000      -8.073949      -219.7033
  18   2.0000      -6.042100      -164.4139
  19   2.0000      -6.038377      -164.3126
  20   2.0000      -6.034272      -164.2009
  21   2.0000      -6.032740      -164.1592
  22   2.0000      -6.028544      -164.0450
  23   2.0000      -6.024355      -163.9310
  24   2.0000      -1.007960       -27.4280
  25   2.0000      -0.984735       -26.7960
  26   2.0000      -0.914639       -24.8886
  27   2.0000      -0.912688       -24.8355
  28   2.0000      -0.876855       -23.8605
  29   2.0000      -0.850038       -23.1307
  30   2.0000      -0.840872       -22.8813
  31   2.0000      -0.820509       -22.3272
  32   2.0000      -0.785367       -21.3709
  33   2.0000      -0.774386       -21.0721
  34   2.0000      -0.715777       -19.4773
  35   2.0000      -0.696849       -18.9622
  36   2.0000      -0.693443       -18.8696
  37   2.0000      -0.669699       -18.2234
  38   2.0000      -0.642297       -17.4778
  39   2.0000      -0.620292       -16.8790
  40   2.0000      -0.596476       -16.2309
  41   2.0000      -0.580498       -15.7962
  42   2.0000      -0.561273       -15.2730
  43   2.0000      -0.550867       -14.9899
  44   2.0000      -0.545433       -14.8420
  45   2.0000      -0.539490       -14.6803
  46   2.0000      -0.515803       -14.0357
  47   2.0000      -0.514004       -13.9868
  48   2.0000      -0.508950       -13.8492
  49   2.0000      -0.503282       -13.6950
  50   2.0000      -0.496801       -13.5186
  51   2.0000      -0.484433       -13.1821
  52   2.0000      -0.475187       -12.9305
  53   2.0000      -0.466022       -12.6811
  54   2.0000      -0.458141       -12.4666
  55   2.0000      -0.445835       -12.1318
  56   2.0000      -0.436433       -11.8760
  57   2.0000      -0.432612       -11.7720
  58   2.0000      -0.428661       -11.6645
  59   2.0000      -0.424134       -11.5413
  60   2.0000      -0.417156       -11.3514
  61   2.0000      -0.411387       -11.1944
  62   2.0000      -0.407929       -11.1003
  63   2.0000      -0.353564        -9.6210
  64   2.0000      -0.336600        -9.1594
  65   2.0000      -0.325563        -8.8590
  66   2.0000      -0.292936        -7.9712
  67   0.0000       0.019472         0.5299
  68   0.0000       0.067599         1.8395
  69   0.0000       0.100722         2.7408
  70   0.0000       0.120556         3.2805
  71   0.0000       0.126881         3.4526

MULLIKEN ATOMIC CHARGES
-----------------------
   0 S :    0.098856
   1 C :   -0.102923
   2 C :   -0.044784
   3 C :    0.025354
   4 C :   -0.180265
   5 H :    0.023430
   6 C :    0.047850
   7 H :    0.022291
   8 H :    0.020306
   9 C :   -0.098521
  10 H :    0.037596
  11 H :    0.033147
  12 C :   -0.049247
  13 H :    0.029253
  14 H :    0.049632
  15 H :    0.020513
  16 S :    0.074134
  17 C :   -0.089416
  18 C :    0.006130
  19 C :   -0.048633
  20 C :   -0.093231
  21 H :   -0.016973
  22 C :    0.045819
  23 H :    0.030034
  24 H :    0.037965
  25 C :   -0.071130
  26 H :    0.031082
  27 H :    0.045365
  28 C :   -0.066579
  29 H :    0.039365
  30 H :    0.008997
  31 H :    0.031209
  32 H :    0.039363
  33 H :    0.064011
Sum of atomic charges:   -0.0000000

LOEWDIN ATOMIC CHARGES
----------------------
   0 S :    0.373996
   1 C :   -0.166394
   2 C :   -0.067520
   3 C :   -0.059020
   4 C :   -0.166354
   5 H :    0.034852
   6 C :   -0.031803
   7 H :    0.027505
   8 H :    0.036202
   9 C :   -0.046721
  10 H :    0.029731
  11 H :    0.024750
  12 C :   -0.076326
  13 H :    0.028148
  14 H :    0.030533
  15 H :    0.022845
  16 S :    0.365963
  17 C :   -0.153225
  18 C :   -0.058772
  19 C :   -0.062231
  20 C :   -0.201103
  21 H :    0.017945
  22 C :   -0.037382
  23 H :    0.031958
  24 H :    0.033925
  25 C :   -0.039741
  26 H :    0.027114
  27 H :    0.027528
  28 C :   -0.072830
  29 H :    0.025067
  30 H :    0.014715
  31 H :    0.026348
  32 H :    0.024362
  33 H :    0.035935

  Mayer bond orders larger than 0.100000
B(  0-S ,  1-C ) :   1.1179 B(  0-S ,  4-C ) :   1.1470 B(  1-C ,  2-C ) :   1.6226
B(  1-C ,  4-C ) :   0.1104 B(  1-C , 32-H ) :   0.9702 B(  2-C ,  3-C ) :   1.2541
B(  2-C ,  6-C ) :   1.0314 B(  3-C ,  4-C ) :   1.5326 B(  3-C ,  5-H ) :   0.9830
B(  4-C , 20-C ) :   1.0817 B(  6-C ,  7-H ) :   0.9477 B(  6-C ,  8-H ) :   0.9398
B(  6-C ,  9-C ) :   1.0493 B(  9-C , 10-H ) :   0.9555 B(  9-C , 11-H ) :   0.9624
B(  9-C , 12-C ) :   1.0685 B( 12-C , 13-H ) :   0.9731 B( 12-C , 14-H ) :   0.9755
B( 12-C , 15-H ) :   0.9744 B( 16-S , 17-C ) :   1.1275 B( 16-S , 20-C ) :   1.0954
B( 17-C , 18-C ) :   1.6388 B( 17-C , 33-H ) :   0.9668 B( 18-C , 19-C ) :   1.1954
B( 18-C , 21-H ) :   1.0028 B( 19-C , 20-C ) :   1.6326 B( 19-C , 22-C ) :   1.0691
B( 22-C , 23-H ) :   0.9297 B( 22-C , 24-H ) :   0.9278 B( 22-C , 25-C ) :   1.0801
B( 25-C , 26-H ) :   0.9591 B( 25-C , 27-H ) :   0.9479 B( 25-C , 28-C ) :   1.0720
B( 28-C , 29-H ) :   0.9688 B( 28-C , 30-H ) :   0.9704 B( 28-C , 31-H ) :   0.9739

Dispersion correction           -0.014669269
FINAL SINGLE POINT ENERGY     -1339.862492646898

DIPOLE MOMENT
-------------
                                X             Y             Z
Electronic contribution:     13.11453       3.62820      23.34602
Nuclear contribution   :    -13.62140      -3.86000     -23.88651
                        -----------------------------------------
Total Dipole Moment    :     -0.50687      -0.23180      -0.54049
                        -----------------------------------------
Magnitude (a.u.)       :      0.77639
Magnitude (Debye)      :      1.97343

Rotational constants in cm-1:     0.018863     0.008834     0.007038
Rotational constants in MHz :   565.493284   264.848777   211.008196

                             ****ORCA TERMINATED NORMALLY****
TOTAL RUN TIME: 0 days 0 hours 0 minutes 22 seconds 120 msec
