                         Program Version 4.2.1 -  RELEASE  -
|  1> ! wB97X-D3 SP def2-SVP
|  2> %pal
|  3> nprocs 24
|  4> end
|  5>
|  6> * xyz 0 1
|  7> S 	 -33.308 	 -34.4129 	 -92.636
|  8> C 	 -32.3918 	 -35.0727 	 -91.2908
|  9> C 	 -33.3012 	 -35.8474 	 -90.5007
| 10> C 	 -34.6832 	 -35.7865 	 -90.9167
| 11> C 	 -34.8726 	 -35.0498 	 -92.0917
| 12> H 	 -35.5428 	 -36.3217 	 -90.4901
| 13> C 	 -32.8975 	 -36.7688 	 -89.3687
| 14> H 	 -33.7227 	 -37.0569 	 -88.7332
| 15> H 	 -32.2248 	 -36.2736 	 -88.688
| 16> C 	 -32.0278 	 -37.9576 	 -89.8257
| 17> H 	 -31.2163 	 -37.5816 	 -90.4244
| 18> H 	 -31.6262 	 -38.4635 	 -88.8812
| 19> C 	 -32.7657 	 -38.8175 	 -90.7812
| 20> H 	 -33.7655 	 -39.107 	 -90.3867
| 21> H 	 -32.9285 	 -38.4456 	 -91.8384
| 22> H 	 -32.131 	 -39.7104 	 -90.9434
| 23> S 	 -37.416 	 -36.1864 	 -92.651
| 24> C 	 -38.619 	 -35.3312 	 -93.5228
| 25> C 	 -38.1449 	 -34.0584 	 -93.8494
| 26> C 	 -36.7757 	 -33.8269 	 -93.4552
| 27> C 	 -36.2391 	 -34.8656 	 -92.6581
| 28> H 	 -38.8315 	 -33.4159 	 -94.4819
| 29> C 	 -36.2339 	 -32.447 	 -93.7338
| 30> H 	 -35.2025 	 -32.4253 	 -93.2206
| 31> H 	 -36.7748 	 -31.6888 	 -93.2124
| 32> C 	 -36.0048 	 -32.0045 	 -95.2561
| 33> H 	 -36.9381 	 -32.1256 	 -95.6651
| 34> H 	 -35.3261 	 -32.6943 	 -95.753
| 35> C 	 -35.4587 	 -30.5985 	 -95.3315
| 36> H 	 -34.3807 	 -30.6057 	 -94.9534
| 37> H 	 -36.1327 	 -29.9155 	 -94.8544
| 38> H 	 -35.4079 	 -30.43 	 -96.3985
| 39> H 	 -31.3436 	 -35.1605 	 -91.2604
| 40> H 	 -39.5988 	 -35.7106 	 -93.9699
| 41> *
| 42>
| 43>                          ****END OF INPUT****

CARTESIAN COORDINATES (ANGSTROEM)
---------------------------------
  S    -33.308000  -34.412900  -92.636000
  C    -32.391800  -35.072700  -91.290800
  C    -33.301200  -35.847400  -90.500700
  C    -34.683200  -35.786500  -90.916700
  C    -34.872600  -35.049800  -92.091700
  H    -35.542800  -36.321700  -90.490100
  C    -32.897500  -36.768800  -89.368700
  H    -33.722700  -37.056900  -88.733200
  H    -32.224800  -36.273600  -88.688000
  C    -32.027800  -37.957600  -89.825700
  H    -31.216300  -37.581600  -90.424400
  H    -31.626200  -38.463500  -88.881200
  C    -32.765700  -38.817500  -90.781200
  H    -33.765500  -39.107000  -90.386700
  H    -32.928500  -38.445600  -91.838400
  H    -32.131000  -39.710400  -90.943400
  S    -37.416000  -36.186400  -92.651000
  C    -38.619000  -35.331200  -93.522800
  C    -38.144900  -34.058400  -93.849400
  C    -36.775700  -33.826900  -93.455200
  C    -36.239100  -34.865600  -92.658100
  H    -38.831500  -33.415900  -94.481900
  C    -36.233900  -32.447000  -93.733800
  H    -35.202500  -32.425300  -93.220600
  H    -36.774800  -31.688800  -93.212400
  C    -36.004800  -32.004500  -95.256100
  H    -36.938100  -32.125600  -95.665100
  H    -35.326100  -32.694300  -95.753000
  C    -35.458700  -30.598500  -95.331500
  H    -34.380700  -30.605700  -94.953400
  H    -36.132700  -29.915500  -94.854400
  H    -35.407900  -30.430000  -96.398500
  H    -31.343600  -35.160500  -91.260400
  H    -39.598800  -35.710600  -93.969900

 Total Charge           Charge          ....    0
 Multiplicity           Mult            ....    1
 Number of Electrons    NEL             ....  134
 Basis Dimension        Dim             ....  322

ORBITAL ENERGIES
----------------

  NO   OCC          E(Eh)            E(eV)
   0   2.0000     -88.973913     -2421.1033
   1   2.0000     -88.970769     -2421.0177
   2   2.0000     -10.340620      -281.3826
   3   2.0000     -10.338705      -281.3305
   4   2.0000     -10.324415      -280.9416
   5   2.0000     -10.319767      -280.8151
   6   2.0000     -10.310554      -280.5644
   7   2.0000     -10.308157      -280.4992
   8   2.0000     -10.299432      -280.2618
   9   2.0000     -10.297817      -280.2179
  10   2.0000     -10.290312      -280.0136
  11   2.0000     -10.287563      -279.9388
  12   2.0000     -10.285479      -279.8821
  13   2.0000     -10.279903      -279.7304
  14   2.0000     -10.279056      -279.7073
  15   2.0000     -10.276324      -279.6330
  16   2.0000      -8.086958      -220.0573
  17   2.0000      -8.085254      -220.0109
  18   2.0000      -6.045744      -164.5131
  19   2.0000      -6.043891      -164.4626
  20   2.0000      -6.041429      -164.3956
  21   2.0000      -6.039601      -164.3459
  22   2.0000      -6.037777      -164.2963
  23   2.0000      -6.036085      -164.2502
  24   2.0000      -1.001574       -27.2542
  25   2.0000      -0.981095       -26.6970
  26   2.0000      -0.914113       -24.8743
  27   2.0000      -0.904500       -24.6127
  28   2.0000      -0.867387       -23.6028
  29   2.0000      -0.853971       -23.2377
  30   2.0000      -0.843427       -22.9508
  31   2.0000      -0.810810       -22.0633
  32   2.0000      -0.778170       -21.1751
  33   2.0000      -0.767112       -20.8742
  34   2.0000      -0.706047       -19.2125
  35   2.0000      -0.695266       -18.9192
  36   2.0000      -0.688704       -18.7406
  37   2.0000      -0.658211       -17.9108
  38   2.0000      -0.633685       -17.2434
  39   2.0000      -0.610623       -16.6159
  40   2.0000      -0.592050       -16.1105
  41   2.0000      -0.575493       -15.6599
  42   2.0000      -0.567682       -15.4474
  43   2.0000      -0.549445       -14.9512
  44   2.0000      -0.539862       -14.6904
  45   2.0000      -0.523518       -14.2456
  46   2.0000      -0.517868       -14.0919
  47   2.0000      -0.512955       -13.9582
  48   2.0000      -0.504443       -13.7266
  49   2.0000      -0.502867       -13.6837
  50   2.0000      -0.488914       -13.3040
  51   2.0000      -0.478883       -13.0311
  52   2.0000      -0.469235       -12.7685
  53   2.0000      -0.466279       -12.6881
  54   2.0000      -0.462408       -12.5828
  55   2.0000      -0.441844       -12.0232
  56   2.0000      -0.437664       -11.9094
  57   2.0000      -0.431924       -11.7533
  58   2.0000      -0.427015       -11.6197
  59   2.0000      -0.424711       -11.5570
  60   2.0000      -0.417622       -11.3641
  61   2.0000      -0.408482       -11.1154
  62   2.0000      -0.403618       -10.9830
  63   2.0000      -0.358771        -9.7627
  64   2.0000      -0.329427        -8.9642
  65   2.0000      -0.326815        -8.8931
  66   2.0000      -0.285935        -7.7807
  67   0.0000       0.018813         0.5119
  68   0.0000       0.069904         1.9022
  69   0.0000       0.109733         2.9860
  70   0.0000       0.112074         3.0497
  71   0.0000       0.127478         3.4689

MULLIKEN ATOMIC CHARGES
-----------------------
   0 S :    0.113072
   1 C :   -0.107837
   2 C :   -0.089008
   3 C :   -0.019327
   4 C :   -0.101464
   5 H :    0.029256
   6 C :    0.065897
   7 H :    0.024517
   8 H :    0.019631
   9 C :   -0.075830
  10 H :    0.018252
  11 H :    0.046509
  12 C :   -0.078044
  13 H :    0.028066
  14 H :    0.056183
  15 H :    0.031468
  16 S :    0.103656
  17 C :   -0.114210
  18 C :   -0.070021
  19 C :   -0.032107
  20 C :   -0.133027
  21 H :    0.045723
  22 C :   -0.012248
  23 H :    0.016934
  24 H :    0.032248
  25 C :   -0.050084
  26 H :    0.003471
  27 H :    0.029379
  28 C :   -0.034008
  29 H :    0.050185
  30 H :    0.034307
  31 H :    0.032284
  32 H :    0.047790
  33 H :    0.088390
Sum of atomic charges:   -0.0000000

LOEWDIN ATOMIC CHARGES
----------------------
   0 S :    0.412483
   1 C :   -0.202854
   2 C :   -0.048593
   3 C :   -0.073736
   4 C :   -0.181054
   5 H :    0.032281
   6 C :   -0.038460
   7 H :    0.027240
   8 H :    0.029581
   9 C :   -0.043972
  10 H :    0.021383
  11 H :    0.033809
  12 C :   -0.078120
  13 H :    0.022370
  14 H :    0.036956
  15 H :    0.027622
  16 S :    0.421851
  17 C :   -0.215362
  18 C :   -0.084371
  19 C :   -0.062173
  20 C :   -0.191411
  21 H :    0.040449
  22 C :   -0.042209
  23 H :    0.022976
  24 H :    0.026665
  25 C :   -0.028172
  26 H :    0.005990
  27 H :    0.026022
  28 C :   -0.060968
  29 H :    0.038702
  30 H :    0.022247
  31 H :    0.027534
  32 H :    0.022159
  33 H :    0.053135

  Mayer bond orders larger than 0.100000
B(  0-S ,  1-C ) :   1.1382 B(  0-S ,  4-C ) :   1.1534 B(  1-C ,  2-C ) :   1.5604
B(  1-C ,  4-C ) :   0.1011 B(  1-C , 32-H ) :   0.9754 B(  2-C ,  3-C ) :   1.2635
B(  2-C ,  6-C ) :   1.0311 B(  3-C ,  4-C ) :   1.5197 B(  3-C ,  5-H ) :   0.9895
B(  4-C , 20-C ) :   1.0738 B(  6-C ,  7-H ) :   0.9491 B(  6-C ,  8-H ) :   0.9351
B(  6-C ,  9-C ) :   1.0742 B(  9-C , 10-H ) :   0.9508 B(  9-C , 11-H ) :   0.9548
B(  9-C , 12-C ) :   1.0782 B( 12-C , 13-H ) :   0.9758 B( 12-C , 14-H ) :   0.9690
B( 12-C , 15-H ) :   0.9706 B( 16-S , 17-C ) :   1.1675 B( 16-S , 20-C ) :   1.1365
B( 17-C , 18-C ) :   1.5993 B( 17-C , 33-H ) :   0.9551 B( 18-C , 19-C ) :   1.2517
B( 18-C , 21-H ) :   0.9780 B( 19-C , 20-C ) :   1.5502 B( 19-C , 22-C ) :   1.0481
B( 22-C , 23-H ) :   0.9343 B( 22-C , 24-H ) :   0.9466 B( 22-C , 25-C ) :   1.0437
B( 25-C , 26-H ) :   0.9576 B( 25-C , 27-H ) :   0.9537 B( 25-C , 28-C ) :   1.0934
B( 28-C , 29-H ) :   0.9730 B( 28-C , 30-H ) :   0.9735 B( 28-C , 31-H ) :   0.9726

Dispersion correction           -0.014178387
FINAL SINGLE POINT ENERGY     -1339.859700341422

DIPOLE MOMENT
-------------
                                X             Y             Z
Electronic contribution:     -7.93516      -2.56845       0.48471
Nuclear contribution   :      7.92737       2.53920      -0.58929
                        -----------------------------------------
Total Dipole Moment    :     -0.00778      -0.02925      -0.10458
                        -----------------------------------------
Magnitude (a.u.)       :      0.10887
Magnitude (Debye)      :      0.27673

Rotational constants in cm-1:     0.021799     0.007984     0.006179
Rotational constants in MHz :   653.512383   239.368232   185.243630

                             ****ORCA TERMINATED NORMALLY****
TOTAL RUN TIME: 0 days 0 hours 0 minutes 21 seconds 174 msec
