                         Program Version 4.2.1 -  RELEASE  -
|  1> ! wB97X-D3 SP def2-SVP
|  2> %pal
|  3> nprocs 24
|  4> end
|  5>
|  6> * xyz 0 1
|  7> S 	 -105.898 	 58.1969 	 -89.6527
|  8> C 	 -104.288 	 58.8712 	 -89.8931
|  9> C 	 -103.516 	 58.1089 	 -90.767
| 10> C 	 -104.307 	 57.165 	 -91.5104
| 11> C 	 -105.641 	 57.1008 	 -91.1087
| 12> H 	 -103.877 	 56.4445 	 -92.2158
| 13> C 	 -102.034 	 58.2462 	 -91.0693
| 14> H 	 -101.566 	 57.2761 	 -91.0392
| 15> H 	 -101.666 	 58.8545 	 -90.2601
| 16> C 	 -101.724 	 58.881 	 -92.4576
| 17> H 	 -102.056 	 58.172 	 -93.1921
| 18> H 	 -102.249 	 59.8338 	 -92.578
| 19> C 	 -100.217 	 59.1493 	 -92.6704
| 20> H 	 -100.046 	 60.239 	 -92.9188
| 21> H 	 -99.5773 	 58.9567 	 -91.8289
| 22> H 	 -99.7274 	 58.552 	 -93.4871
| 23> S 	 -107.524 	 55.2058 	 -90.2031
| 24> C 	 -107.935 	 53.9344 	 -91.29
| 25> C 	 -107.471 	 54.1577 	 -92.5532
| 26> C 	 -106.663 	 55.3221 	 -92.6989
| 27> C 	 -106.545 	 55.9944 	 -91.4714
| 28> H 	 -107.702 	 53.3992 	 -93.2777
| 29> C 	 -106.136 	 55.7961 	 -94.0468
| 30> H 	 -105.095 	 55.4988 	 -94.2377
| 31> H 	 -106.172 	 56.8877 	 -93.9822
| 32> C 	 -107.124 	 55.4423 	 -95.1931
| 33> H 	 -108.181 	 55.7123 	 -94.865
| 34> H 	 -107.241 	 54.3871 	 -95.3259
| 35> C 	 -106.843 	 56.1115 	 -96.5201
| 36> H 	 -107.433 	 55.7847 	 -97.4341
| 37> H 	 -105.814 	 55.8374 	 -96.74
| 38> H 	 -106.825 	 57.2348 	 -96.5009
| 39> H 	 -103.855 	 59.7405 	 -89.373
| 40> H 	 -108.557 	 53.0516 	 -91.0075
| 41> *
| 42>
| 43>                          ****END OF INPUT****

CARTESIAN COORDINATES (ANGSTROEM)
---------------------------------
  S    -105.898000   58.196900  -89.652700
  C    -104.288000   58.871200  -89.893100
  C    -103.516000   58.108900  -90.767000
  C    -104.307000   57.165000  -91.510400
  C    -105.641000   57.100800  -91.108700
  H    -103.877000   56.444500  -92.215800
  C    -102.034000   58.246200  -91.069300
  H    -101.566000   57.276100  -91.039200
  H    -101.666000   58.854500  -90.260100
  C    -101.724000   58.881000  -92.457600
  H    -102.056000   58.172000  -93.192100
  H    -102.249000   59.833800  -92.578000
  C    -100.217000   59.149300  -92.670400
  H    -100.046000   60.239000  -92.918800
  H    -99.577300   58.956700  -91.828900
  H    -99.727400   58.552000  -93.487100
  S    -107.524000   55.205800  -90.203100
  C    -107.935000   53.934400  -91.290000
  C    -107.471000   54.157700  -92.553200
  C    -106.663000   55.322100  -92.698900
  C    -106.545000   55.994400  -91.471400
  H    -107.702000   53.399200  -93.277700
  C    -106.136000   55.796100  -94.046800
  H    -105.095000   55.498800  -94.237700
  H    -106.172000   56.887700  -93.982200
  C    -107.124000   55.442300  -95.193100
  H    -108.181000   55.712300  -94.865000
  H    -107.241000   54.387100  -95.325900
  C    -106.843000   56.111500  -96.520100
  H    -107.433000   55.784700  -97.434100
  H    -105.814000   55.837400  -96.740000
  H    -106.825000   57.234800  -96.500900
  H    -103.855000   59.740500  -89.373000
  H    -108.557000   53.051600  -91.007500

 Total Charge           Charge          ....    0
 Multiplicity           Mult            ....    1
 Number of Electrons    NEL             ....  134
 Basis Dimension        Dim             ....  322

ORBITAL ENERGIES
----------------

  NO   OCC          E(Eh)            E(eV)
   0   2.0000     -88.969960     -2420.9957
   1   2.0000     -88.965485     -2420.8739
   2   2.0000     -10.339367      -281.3485
   3   2.0000     -10.331907      -281.1455
   4   2.0000     -10.320705      -280.8407
   5   2.0000     -10.315095      -280.6880
   6   2.0000     -10.305547      -280.4282
   7   2.0000     -10.302800      -280.3534
   8   2.0000     -10.299246      -280.2567
   9   2.0000     -10.298648      -280.2405
  10   2.0000     -10.292859      -280.0829
  11   2.0000     -10.290392      -280.0158
  12   2.0000     -10.290013      -280.0055
  13   2.0000     -10.288947      -279.9765
  14   2.0000     -10.284856      -279.8652
  15   2.0000     -10.283890      -279.8389
  16   2.0000      -8.082921      -219.9475
  17   2.0000      -8.080301      -219.8762
  18   2.0000      -6.041686      -164.4026
  19   2.0000      -6.038822      -164.3247
  20   2.0000      -6.037930      -164.3004
  21   2.0000      -6.034879      -164.2174
  22   2.0000      -6.033271      -164.1737
  23   2.0000      -6.030972      -164.1111
  24   2.0000      -1.000141       -27.2152
  25   2.0000      -0.977889       -26.6097
  26   2.0000      -0.909385       -24.7456
  27   2.0000      -0.907389       -24.6913
  28   2.0000      -0.867153       -23.5964
  29   2.0000      -0.851410       -23.1680
  30   2.0000      -0.843360       -22.9490
  31   2.0000      -0.812081       -22.0979
  32   2.0000      -0.780537       -21.2395
  33   2.0000      -0.767726       -20.8909
  34   2.0000      -0.706834       -19.2339
  35   2.0000      -0.701176       -19.0800
  36   2.0000      -0.697408       -18.9774
  37   2.0000      -0.649946       -17.6859
  38   2.0000      -0.632946       -17.2233
  39   2.0000      -0.620705       -16.8902
  40   2.0000      -0.596501       -16.2316
  41   2.0000      -0.573455       -15.6045
  42   2.0000      -0.565698       -15.3934
  43   2.0000      -0.555384       -15.1128
  44   2.0000      -0.523666       -14.2497
  45   2.0000      -0.519837       -14.1455
  46   2.0000      -0.515030       -14.0147
  47   2.0000      -0.508423       -13.8349
  48   2.0000      -0.502134       -13.6638
  49   2.0000      -0.496006       -13.4970
  50   2.0000      -0.489076       -13.3084
  51   2.0000      -0.478278       -13.0146
  52   2.0000      -0.470387       -12.7999
  53   2.0000      -0.464426       -12.6377
  54   2.0000      -0.458375       -12.4730
  55   2.0000      -0.455705       -12.4004
  56   2.0000      -0.445544       -12.1239
  57   2.0000      -0.432731       -11.7752
  58   2.0000      -0.428607       -11.6630
  59   2.0000      -0.426581       -11.6079
  60   2.0000      -0.422994       -11.5102
  61   2.0000      -0.421014       -11.4564
  62   2.0000      -0.411946       -11.2096
  63   2.0000      -0.357754        -9.7350
  64   2.0000      -0.333945        -9.0871
  65   2.0000      -0.327593        -8.9143
  66   2.0000      -0.280837        -7.6420
  67   0.0000       0.020484         0.5574
  68   0.0000       0.070007         1.9050
  69   0.0000       0.098897         2.6911
  70   0.0000       0.122244         3.3264
  71   0.0000       0.132790         3.6134

MULLIKEN ATOMIC CHARGES
-----------------------
   0 S :    0.092151
   1 C :   -0.116220
   2 C :   -0.104531
   3 C :   -0.005082
   4 C :   -0.112327
   5 H :    0.027118
   6 C :    0.071350
   7 H :    0.034252
   8 H :    0.013821
   9 C :   -0.062780
  10 H :    0.028054
  11 H :    0.040858
  12 C :   -0.075637
  13 H :    0.039884
  14 H :    0.026212
  15 H :    0.038866
  16 S :    0.102403
  17 C :   -0.109652
  18 C :   -0.036588
  19 C :   -0.058248
  20 C :   -0.142612
  21 H :    0.012049
  22 C :    0.080504
  23 H :    0.044483
  24 H :    0.037436
  25 C :   -0.107941
  26 H :    0.038687
  27 H :    0.026567
  28 C :   -0.053509
  29 H :    0.048876
  30 H :    0.015324
  31 H :    0.039727
  32 H :    0.056062
  33 H :    0.070443
Sum of atomic charges:   -0.0000000

LOEWDIN ATOMIC CHARGES
----------------------
   0 S :    0.360681
   1 C :   -0.195119
   2 C :   -0.062527
   3 C :   -0.056953
   4 C :   -0.164034
   5 H :    0.034514
   6 C :   -0.027763
   7 H :    0.032191
   8 H :    0.025135
   9 C :   -0.036924
  10 H :    0.021837
  11 H :    0.029073
  12 C :   -0.079000
  13 H :    0.033833
  14 H :    0.020318
  15 H :    0.030992
  16 S :    0.397169
  17 C :   -0.198913
  18 C :   -0.076425
  19 C :   -0.059285
  20 C :   -0.183393
  21 H :    0.030154
  22 C :   -0.029542
  23 H :    0.029999
  24 H :    0.037777
  25 C :   -0.048204
  26 H :    0.031884
  27 H :    0.017185
  28 C :   -0.076078
  29 H :    0.036064
  30 H :    0.021416
  31 H :    0.029402
  32 H :    0.034745
  33 H :    0.039793

  Mayer bond orders larger than 0.100000
B(  0-S ,  1-C ) :   1.1227 B(  0-S ,  4-C ) :   1.1160 B(  1-C ,  2-C ) :   1.6321
B(  1-C , 32-H ) :   0.9599 B(  2-C ,  3-C ) :   1.2296 B(  2-C ,  6-C ) :   1.0375
B(  3-C ,  4-C ) :   1.5735 B(  3-C ,  5-H ) :   0.9829 B(  4-C , 20-C ) :   1.0750
B(  6-C ,  7-H ) :   0.9363 B(  6-C ,  8-H ) :   0.9385 B(  6-C ,  9-C ) :   1.0674
B(  9-C , 10-H ) :   0.9598 B(  9-C , 11-H ) :   0.9652 B(  9-C , 12-C ) :   1.0589
B( 12-C , 13-H ) :   0.9808 B( 12-C , 14-H ) :   0.9787 B( 12-C , 15-H ) :   0.9780
B( 16-S , 17-C ) :   1.1526 B( 16-S , 20-C ) :   1.1326 B( 17-C , 18-C ) :   1.6228
B( 17-C , 33-H ) :   0.9578 B( 18-C , 19-C ) :   1.2344 B( 18-C , 21-H ) :   0.9942
B( 19-C , 20-C ) :   1.5966 B( 19-C , 22-C ) :   1.0247 B( 22-C , 23-H ) :   0.9257
B( 22-C , 24-H ) :   0.9405 B( 22-C , 25-C ) :   1.0655 B( 25-C , 26-H ) :   0.9565
B( 25-C , 27-H ) :   0.9472 B( 25-C , 28-C ) :   1.0812 B( 28-C , 29-H ) :   0.9730
B( 28-C , 30-H ) :   0.9698 B( 28-C , 31-H ) :   0.9748

Dispersion correction           -0.013400421
FINAL SINGLE POINT ENERGY     -1339.877551391860

DIPOLE MOMENT
-------------
                                X             Y             Z
Electronic contribution:    -18.03503      -4.36628      25.40718
Nuclear contribution   :     18.58927       4.18676     -25.93143
                        -----------------------------------------
Total Dipole Moment    :      0.55424      -0.17952      -0.52425
                        -----------------------------------------
Magnitude (a.u.)       :      0.78374
Magnitude (Debye)      :      1.99211

Rotational constants in cm-1:     0.016067     0.008559     0.006100
Rotational constants in MHz :   481.667626   256.593252   182.880639

                             ****ORCA TERMINATED NORMALLY****
TOTAL RUN TIME: 0 days 0 hours 0 minutes 20 seconds 878 msec
