                         Program Version 4.2.1 -  RELEASE  -
|  1> ! wB97X-D3 SP def2-SVP
|  2> %pal
|  3> nprocs 24
|  4> end
|  5>
|  6> * xyz 0 1
|  7> S 	 -104.565 	 2.11652 	 -111.094
|  8> C 	 -106.04 	 2.65415 	 -111.92
|  9> C 	 -106.438 	 1.66907 	 -112.804
| 10> C 	 -105.66 	 0.480655 	 -112.758
| 11> C 	 -104.609 	 0.56426 	 -111.854
| 12> H 	 -105.704 	 -0.389388 	 -113.419
| 13> C 	 -107.673 	 1.84806 	 -113.648
| 14> H 	 -107.617 	 2.59807 	 -114.441
| 15> H 	 -108.439 	 2.27481 	 -112.925
| 16> C 	 -108.292 	 0.585031 	 -114.249
| 17> H 	 -107.59 	 0.166207 	 -114.95
| 18> H 	 -108.339 	 -0.074104 	 -113.357
| 19> C 	 -109.627 	 0.705156 	 -114.866
| 20> H 	 -110.026 	 -0.26243 	 -115.193
| 21> H 	 -110.366 	 1.10802 	 -114.2
| 22> H 	 -109.514 	 1.36852 	 -115.722
| 23> S 	 -102.78 	 -1.20319 	 -113.033
| 24> C 	 -101.489 	 -1.82572 	 -112.057
| 25> C 	 -101.69 	 -1.58742 	 -110.724
| 26> C 	 -102.936 	 -0.833655 	 -110.489
| 27> C 	 -103.57 	 -0.454245 	 -111.672
| 28> H 	 -101.095 	 -2.11738 	 -109.998
| 29> C 	 -103.368 	 -0.562297 	 -108.999
| 30> H 	 -103.38 	 -1.47833 	 -108.45
| 31> H 	 -104.361 	 -0.221647 	 -108.877
| 32> C 	 -102.395 	 0.390315 	 -108.236
| 33> H 	 -101.343 	 0.0921865 	 -108.347
| 34> H 	 -102.629 	 0.435816 	 -107.194
| 35> C 	 -102.468 	 1.81777 	 -108.735
| 36> H 	 -101.676 	 2.37236 	 -108.219
| 37> H 	 -103.36 	 2.33058 	 -108.469
| 38> H 	 -102.248 	 1.88721 	 -109.816
| 39> H 	 -106.502 	 3.62192 	 -111.759
| 40> H 	 -100.662 	 -2.39093 	 -112.507
| 41> *
| 42>
| 43>                          ****END OF INPUT****

CARTESIAN COORDINATES (ANGSTROEM)
---------------------------------
  S    -104.565000    2.116520  -111.094000
  C    -106.040000    2.654150  -111.920000
  C    -106.438000    1.669070  -112.804000
  C    -105.660000    0.480655  -112.758000
  C    -104.609000    0.564260  -111.854000
  H    -105.704000   -0.389388  -113.419000
  C    -107.673000    1.848060  -113.648000
  H    -107.617000    2.598070  -114.441000
  H    -108.439000    2.274810  -112.925000
  C    -108.292000    0.585031  -114.249000
  H    -107.590000    0.166207  -114.950000
  H    -108.339000   -0.074104  -113.357000
  C    -109.627000    0.705156  -114.866000
  H    -110.026000   -0.262430  -115.193000
  H    -110.366000    1.108020  -114.200000
  H    -109.514000    1.368520  -115.722000
  S    -102.780000   -1.203190  -113.033000
  C    -101.489000   -1.825720  -112.057000
  C    -101.690000   -1.587420  -110.724000
  C    -102.936000   -0.833655  -110.489000
  C    -103.570000   -0.454245  -111.672000
  H    -101.095000   -2.117380  -109.998000
  C    -103.368000   -0.562297  -108.999000
  H    -103.380000   -1.478330  -108.450000
  H    -104.361000   -0.221647  -108.877000
  C    -102.395000    0.390315  -108.236000
  H    -101.343000    0.092187  -108.347000
  H    -102.629000    0.435816  -107.194000
  C    -102.468000    1.817770  -108.735000
  H    -101.676000    2.372360  -108.219000
  H    -103.360000    2.330580  -108.469000
  H    -102.248000    1.887210  -109.816000
  H    -106.502000    3.621920  -111.759000
  H    -100.662000   -2.390930  -112.507000

 Total Charge           Charge          ....    0
 Multiplicity           Mult            ....    1
 Number of Electrons    NEL             ....  134
 Basis Dimension        Dim             ....  322

ORBITAL ENERGIES
----------------

  NO   OCC          E(Eh)            E(eV)
   0   2.0000     -88.965940     -2420.8863
   1   2.0000     -88.965348     -2420.8702
   2   2.0000     -10.329083      -281.0686
   3   2.0000     -10.328774      -281.0602
   4   2.0000     -10.320248      -280.8282
   5   2.0000     -10.312442      -280.6158
   6   2.0000     -10.312171      -280.6084
   7   2.0000     -10.301338      -280.3137
   8   2.0000     -10.297266      -280.2029
   9   2.0000     -10.292549      -280.0745
  10   2.0000     -10.291226      -280.0385
  11   2.0000     -10.289194      -279.9832
  12   2.0000     -10.280868      -279.7566
  13   2.0000     -10.279516      -279.7198
  14   2.0000     -10.274108      -279.5727
  15   2.0000     -10.264434      -279.3095
  16   2.0000      -8.080689      -219.8867
  17   2.0000      -8.079820      -219.8631
  18   2.0000      -6.039280      -164.3372
  19   2.0000      -6.038327      -164.3112
  20   2.0000      -6.035109      -164.2237
  21   2.0000      -6.034279      -164.2011
  22   2.0000      -6.031332      -164.1209
  23   2.0000      -6.030716      -164.1041
  24   2.0000      -1.006061       -27.3763
  25   2.0000      -0.984018       -26.7765
  26   2.0000      -0.915586       -24.9144
  27   2.0000      -0.903154       -24.5761
  28   2.0000      -0.872330       -23.7373
  29   2.0000      -0.849194       -23.1077
  30   2.0000      -0.842426       -22.9236
  31   2.0000      -0.815984       -22.2041
  32   2.0000      -0.785699       -21.3800
  33   2.0000      -0.770118       -20.9560
  34   2.0000      -0.708852       -19.2888
  35   2.0000      -0.693320       -18.8662
  36   2.0000      -0.680605       -18.5202
  37   2.0000      -0.662430       -18.0256
  38   2.0000      -0.632597       -17.2138
  39   2.0000      -0.618045       -16.8179
  40   2.0000      -0.601893       -16.3783
  41   2.0000      -0.577487       -15.7142
  42   2.0000      -0.567566       -15.4443
  43   2.0000      -0.548825       -14.9343
  44   2.0000      -0.539773       -14.6880
  45   2.0000      -0.524019       -14.2593
  46   2.0000      -0.519066       -14.1245
  47   2.0000      -0.509661       -13.8686
  48   2.0000      -0.504060       -13.7162
  49   2.0000      -0.500435       -13.6175
  50   2.0000      -0.487313       -13.2605
  51   2.0000      -0.482531       -13.1303
  52   2.0000      -0.474894       -12.9225
  53   2.0000      -0.465444       -12.6654
  54   2.0000      -0.457278       -12.4432
  55   2.0000      -0.452985       -12.3263
  56   2.0000      -0.444358       -12.0916
  57   2.0000      -0.432211       -11.7611
  58   2.0000      -0.425772       -11.5858
  59   2.0000      -0.422307       -11.4916
  60   2.0000      -0.417359       -11.3569
  61   2.0000      -0.412037       -11.2121
  62   2.0000      -0.402725       -10.9587
  63   2.0000      -0.349512        -9.5107
  64   2.0000      -0.330238        -8.9862
  65   2.0000      -0.327633        -8.9153
  66   2.0000      -0.291463        -7.9311
  67   0.0000       0.027851         0.7579
  68   0.0000       0.073213         1.9922
  69   0.0000       0.105122         2.8605
  70   0.0000       0.117456         3.1961
  71   0.0000       0.138270         3.7625

MULLIKEN ATOMIC CHARGES
-----------------------
   0 S :    0.100342
   1 C :   -0.129785
   2 C :   -0.043113
   3 C :   -0.018536
   4 C :   -0.103816
   5 H :    0.022540
   6 C :    0.018780
   7 H :    0.032223
   8 H :    0.031507
   9 C :   -0.110542
  10 H :    0.032280
  11 H :    0.029880
  12 C :    0.001992
  13 H :    0.034851
  14 H :    0.022684
  15 H :    0.024435
  16 S :    0.103735
  17 C :   -0.107052
  18 C :   -0.017740
  19 C :   -0.080632
  20 C :   -0.147861
  21 H :    0.027967
  22 C :    0.103417
  23 H :    0.020880
  24 H :    0.012247
  25 C :   -0.077393
  26 H :    0.029682
  27 H :    0.023506
  28 C :   -0.053096
  29 H :    0.021443
  30 H :    0.024488
  31 H :    0.047419
  32 H :    0.051737
  33 H :    0.071531
Sum of atomic charges:    0.0000000

LOEWDIN ATOMIC CHARGES
----------------------
   0 S :    0.446674
   1 C :   -0.196197
   2 C :   -0.061107
   3 C :   -0.076617
   4 C :   -0.191087
   5 H :    0.033231
   6 C :   -0.039665
   7 H :    0.026592
   8 H :    0.037744
   9 C :   -0.051087
  10 H :    0.020564
  11 H :    0.026594
  12 C :   -0.059078
  13 H :    0.031302
  14 H :    0.022387
  15 H :    0.025508
  16 S :    0.410482
  17 C :   -0.185019
  18 C :   -0.073236
  19 C :   -0.049266
  20 C :   -0.208162
  21 H :    0.032758
  22 C :   -0.026208
  23 H :    0.029295
  24 H :    0.021792
  25 C :   -0.037357
  26 H :    0.023675
  27 H :    0.020911
  28 C :   -0.074877
  29 H :    0.025563
  30 H :    0.011334
  31 H :    0.016922
  32 H :    0.030595
  33 H :    0.035038

  Mayer bond orders larger than 0.100000
B(  0-S ,  1-C ) :   1.1305 B(  0-S ,  4-C ) :   1.1688 B(  1-C ,  2-C ) :   1.5918
B(  1-C , 32-H ) :   0.9769 B(  2-C ,  3-C ) :   1.2631 B(  2-C ,  6-C ) :   1.0062
B(  3-C ,  4-C ) :   1.5265 B(  3-C ,  5-H ) :   0.9947 B(  4-C , 20-C ) :   1.0558
B(  6-C ,  7-H ) :   0.9334 B(  6-C ,  8-H ) :   0.9464 B(  6-C ,  9-C ) :   1.0854
B(  9-C , 10-H ) :   0.9441 B(  9-C , 11-H ) :   0.9514 B(  9-C , 12-C ) :   1.0995
B( 12-C , 13-H ) :   0.9680 B( 12-C , 14-H ) :   0.9713 B( 12-C , 15-H ) :   0.9693
B( 16-S , 17-C ) :   1.1585 B( 16-S , 20-C ) :   1.1276 B( 17-C , 18-C ) :   1.6214
B( 17-C , 33-H ) :   0.9644 B( 18-C , 19-C ) :   1.2181 B( 18-C , 21-H ) :   0.9881
B( 19-C , 20-C ) :   1.5936 B( 19-C , 22-C ) :   1.0364 B( 22-C , 23-H ) :   0.9376
B( 22-C , 24-H ) :   0.9415 B( 22-C , 25-C ) :   1.0649 B( 25-C , 26-H ) :   0.9608
B( 25-C , 27-H ) :   0.9537 B( 25-C , 28-C ) :   1.0877 B( 28-C , 29-H ) :   0.9668
B( 28-C , 30-H ) :   0.9724 B( 28-C , 31-H ) :   0.9660

Dispersion correction           -0.014536418
FINAL SINGLE POINT ENERGY     -1339.887343831175

DIPOLE MOMENT
-------------
                                X             Y             Z
Electronic contribution:     12.90698      -3.56508      -3.20103
Nuclear contribution   :    -13.04271       3.46019       3.35034
                        -----------------------------------------
Total Dipole Moment    :     -0.13573      -0.10489       0.14931
                        -----------------------------------------
Magnitude (a.u.)       :      0.22741
Magnitude (Debye)      :      0.57804

Rotational constants in cm-1:     0.022467     0.008114     0.006497
Rotational constants in MHz :   673.540383   243.260767   194.775039

                             ****ORCA TERMINATED NORMALLY****
TOTAL RUN TIME: 0 days 0 hours 0 minutes 20 seconds 346 msec
