                         Program Version 4.2.1 -  RELEASE  -
|  1> ! wB97X-D3 SP def2-SVP
|  2> %pal
|  3> nprocs 24
|  4> end
|  5>
|  6> * xyz 0 1
|  7> S 	 49.6997 	 -25.205 	 -117.095
|  8> C 	 48.3887 	 -25.8056 	 -116.181
|  9> C 	 48.084 	 -25.0029 	 -115.099
| 10> C 	 48.9643 	 -23.8682 	 -114.995
| 11> C 	 50.081 	 -23.9021 	 -115.897
| 12> H 	 48.8857 	 -23.0856 	 -114.247
| 13> C 	 47.0196 	 -25.301 	 -114.117
| 14> H 	 47.2147 	 -24.5989 	 -113.324
| 15> H 	 47.4116 	 -26.2194 	 -113.727
| 16> C 	 45.6188 	 -25.2952 	 -114.547
| 17> H 	 45.4162 	 -26.1928 	 -115.16
| 18> H 	 45.0124 	 -25.3451 	 -113.648
| 19> C 	 45.2448 	 -23.9576 	 -115.325
| 20> H 	 44.1559 	 -24.0214 	 -115.475
| 21> H 	 45.4776 	 -23.0351 	 -114.851
| 22> H 	 45.7304 	 -23.9063 	 -116.283
| 23> S 	 51.1922 	 -21.9817 	 -117.357
| 24> C 	 52.5432 	 -21.1325 	 -116.704
| 25> C 	 52.9654 	 -21.5583 	 -115.454
| 26> C 	 52.0419 	 -22.5738 	 -114.938
| 27> C 	 51.1589 	 -22.9229 	 -115.908
| 28> H 	 53.8018 	 -21.0823 	 -114.921
| 29> C 	 52.3297 	 -23.2749 	 -113.606
| 30> H 	 53.4269 	 -23.3363 	 -113.508
| 31> H 	 51.9413 	 -24.229 	 -113.844
| 32> C 	 51.9046 	 -22.7312 	 -112.287
| 33> H 	 50.805 	 -22.5156 	 -112.239
| 34> H 	 52.3711 	 -21.7763 	 -112.095
| 35> C 	 52.2563 	 -23.7268 	 -111.136
| 36> H 	 51.9616 	 -23.1782 	 -110.245
| 37> H 	 53.3674 	 -23.9898 	 -111.018
| 38> H 	 51.7088 	 -24.6628 	 -111.258
| 39> H 	 47.7138 	 -26.6498 	 -116.449
| 40> H 	 52.9732 	 -20.2759 	 -117.261
| 41> *
| 42>
| 43>                          ****END OF INPUT****

CARTESIAN COORDINATES (ANGSTROEM)
---------------------------------
  S     49.699700  -25.205000  -117.095000
  C     48.388700  -25.805600  -116.181000
  C     48.084000  -25.002900  -115.099000
  C     48.964300  -23.868200  -114.995000
  C     50.081000  -23.902100  -115.897000
  H     48.885700  -23.085600  -114.247000
  C     47.019600  -25.301000  -114.117000
  H     47.214700  -24.598900  -113.324000
  H     47.411600  -26.219400  -113.727000
  C     45.618800  -25.295200  -114.547000
  H     45.416200  -26.192800  -115.160000
  H     45.012400  -25.345100  -113.648000
  C     45.244800  -23.957600  -115.325000
  H     44.155900  -24.021400  -115.475000
  H     45.477600  -23.035100  -114.851000
  H     45.730400  -23.906300  -116.283000
  S     51.192200  -21.981700  -117.357000
  C     52.543200  -21.132500  -116.704000
  C     52.965400  -21.558300  -115.454000
  C     52.041900  -22.573800  -114.938000
  C     51.158900  -22.922900  -115.908000
  H     53.801800  -21.082300  -114.921000
  C     52.329700  -23.274900  -113.606000
  H     53.426900  -23.336300  -113.508000
  H     51.941300  -24.229000  -113.844000
  C     51.904600  -22.731200  -112.287000
  H     50.805000  -22.515600  -112.239000
  H     52.371100  -21.776300  -112.095000
  C     52.256300  -23.726800  -111.136000
  H     51.961600  -23.178200  -110.245000
  H     53.367400  -23.989800  -111.018000
  H     51.708800  -24.662800  -111.258000
  H     47.713800  -26.649800  -116.449000
  H     52.973200  -20.275900  -117.261000

 Total Charge           Charge          ....    0
 Multiplicity           Mult            ....    1
 Number of Electrons    NEL             ....  134
 Basis Dimension        Dim             ....  322

ORBITAL ENERGIES
----------------

  NO   OCC          E(Eh)            E(eV)
   0   2.0000     -88.967401     -2420.9261
   1   2.0000     -88.964409     -2420.8446
   2   2.0000     -10.333706      -281.1944
   3   2.0000     -10.321756      -280.8693
   4   2.0000     -10.316844      -280.7356
   5   2.0000     -10.310357      -280.5591
   6   2.0000     -10.304361      -280.3959
   7   2.0000     -10.297531      -280.2101
   8   2.0000     -10.297435      -280.2074
   9   2.0000     -10.293655      -280.1046
  10   2.0000     -10.289506      -279.9917
  11   2.0000     -10.289392      -279.9886
  12   2.0000     -10.286353      -279.9059
  13   2.0000     -10.285936      -279.8945
  14   2.0000     -10.278191      -279.6838
  15   2.0000     -10.275418      -279.6083
  16   2.0000      -8.081367      -219.9052
  17   2.0000      -8.080530      -219.8824
  18   2.0000      -6.039931      -164.3549
  19   2.0000      -6.038885      -164.3264
  20   2.0000      -6.035895      -164.2451
  21   2.0000      -6.035021      -164.2213
  22   2.0000      -6.032195      -164.1444
  23   2.0000      -6.031169      -164.1165
  24   2.0000      -1.006727       -27.3944
  25   2.0000      -0.982715       -26.7410
  26   2.0000      -0.917749       -24.9732
  27   2.0000      -0.912407       -24.8279
  28   2.0000      -0.866207       -23.5707
  29   2.0000      -0.853421       -23.2228
  30   2.0000      -0.842384       -22.9224
  31   2.0000      -0.807818       -21.9818
  32   2.0000      -0.783129       -21.3100
  33   2.0000      -0.772438       -21.0191
  34   2.0000      -0.708126       -19.2691
  35   2.0000      -0.703488       -19.1429
  36   2.0000      -0.690974       -18.8024
  37   2.0000      -0.664464       -18.0810
  38   2.0000      -0.632557       -17.2128
  39   2.0000      -0.606348       -16.4996
  40   2.0000      -0.590702       -16.0738
  41   2.0000      -0.575736       -15.6666
  42   2.0000      -0.568368       -15.4661
  43   2.0000      -0.555870       -15.1260
  44   2.0000      -0.539005       -14.6671
  45   2.0000      -0.528714       -14.3870
  46   2.0000      -0.512833       -13.9549
  47   2.0000      -0.508108       -13.8263
  48   2.0000      -0.502391       -13.6707
  49   2.0000      -0.493263       -13.4224
  50   2.0000      -0.490425       -13.3451
  51   2.0000      -0.475127       -12.9289
  52   2.0000      -0.469653       -12.7799
  53   2.0000      -0.463112       -12.6019
  54   2.0000      -0.459484       -12.5032
  55   2.0000      -0.453794       -12.3484
  56   2.0000      -0.447358       -12.1732
  57   2.0000      -0.442037       -12.0284
  58   2.0000      -0.436540       -11.8789
  59   2.0000      -0.423042       -11.5116
  60   2.0000      -0.415289       -11.3006
  61   2.0000      -0.413147       -11.2423
  62   2.0000      -0.411351       -11.1934
  63   2.0000      -0.341483        -9.2922
  64   2.0000      -0.331219        -9.0129
  65   2.0000      -0.324273        -8.8239
  66   2.0000      -0.292144        -7.9496
  67   0.0000       0.033515         0.9120
  68   0.0000       0.066057         1.7975
  69   0.0000       0.113958         3.1010
  70   0.0000       0.117111         3.1868
  71   0.0000       0.126448         3.4408

MULLIKEN ATOMIC CHARGES
-----------------------
   0 S :    0.118159
   1 C :   -0.125227
   2 C :   -0.145281
   3 C :    0.035730
   4 C :   -0.172897
   5 H :    0.014505
   6 C :    0.100462
   7 H :   -0.000558
   8 H :    0.030328
   9 C :   -0.044938
  10 H :    0.031242
  11 H :    0.032044
  12 C :   -0.058261
  13 H :    0.036431
  14 H :    0.026822
  15 H :    0.043481
  16 S :    0.121363
  17 C :   -0.103515
  18 C :   -0.036073
  19 C :   -0.019359
  20 C :   -0.184718
  21 H :    0.029956
  22 C :    0.062399
  23 H :    0.022857
  24 H :    0.019691
  25 C :   -0.057648
  26 H :    0.028733
  27 H :    0.020937
  28 C :   -0.072108
  29 H :    0.036499
  30 H :    0.042895
  31 H :    0.042407
  32 H :    0.059371
  33 H :    0.064271
Sum of atomic charges:    0.0000000

LOEWDIN ATOMIC CHARGES
----------------------
   0 S :    0.402685
   1 C :   -0.222326
   2 C :   -0.070163
   3 C :   -0.058499
   4 C :   -0.193773
   5 H :    0.027133
   6 C :   -0.043606
   7 H :    0.027115
   8 H :    0.036061
   9 C :   -0.035007
  10 H :    0.026277
  11 H :    0.027267
  12 C :   -0.060674
  13 H :    0.028963
  14 H :    0.020515
  15 H :    0.026369
  16 S :    0.423336
  17 C :   -0.192494
  18 C :   -0.072499
  19 C :   -0.048785
  20 C :   -0.208087
  21 H :    0.036072
  22 C :   -0.033162
  23 H :    0.036434
  24 H :    0.027425
  25 C :   -0.040852
  26 H :    0.025536
  27 H :    0.020878
  28 C :   -0.066293
  29 H :    0.026573
  30 H :    0.032075
  31 H :    0.026344
  32 H :    0.038864
  33 H :    0.030297

  Mayer bond orders larger than 0.100000
B(  0-S ,  1-C ) :   1.1501 B(  0-S ,  4-C ) :   1.1451 B(  1-C ,  2-C ) :   1.5882
B(  1-C ,  4-C ) :   0.1035 B(  1-C , 32-H ) :   0.9608 B(  2-C ,  3-C ) :   1.2748
B(  2-C ,  6-C ) :   0.9996 B(  3-C ,  4-C ) :   1.5304 B(  3-C ,  5-H ) :   0.9868
B(  4-C , 20-C ) :   1.0432 B(  6-C ,  7-H ) :   0.9308 B(  6-C ,  8-H ) :   0.9318
B(  6-C ,  9-C ) :   1.0850 B(  9-C , 10-H ) :   0.9524 B(  9-C , 11-H ) :   0.9531
B(  9-C , 12-C ) :   1.0692 B( 12-C , 13-H ) :   0.9768 B( 12-C , 14-H ) :   0.9794
B( 12-C , 15-H ) :   0.9721 B( 16-S , 17-C ) :   1.1539 B( 16-S , 20-C ) :   1.1432
B( 17-C , 18-C ) :   1.6363 B( 17-C , 33-H ) :   0.9626 B( 18-C , 19-C ) :   1.1949
B( 18-C , 21-H ) :   0.9870 B( 19-C , 20-C ) :   1.6486 B( 19-C , 22-C ) :   1.0249
B( 22-C , 23-H ) :   0.9386 B( 22-C , 24-H ) :   0.9342 B( 22-C , 25-C ) :   1.0758
B( 25-C , 26-H ) :   0.9489 B( 25-C , 27-H ) :   0.9494 B( 25-C , 28-C ) :   1.0779
B( 28-C , 29-H ) :   0.9752 B( 28-C , 30-H ) :   0.9745 B( 28-C , 31-H ) :   0.9765

Dispersion correction           -0.014377236
FINAL SINGLE POINT ENERGY     -1339.868159269431

DIPOLE MOMENT
-------------
                                X             Y             Z
Electronic contribution:      9.91259       2.48574     -23.81392
Nuclear contribution   :    -10.06640      -2.37490      24.44667
                        -----------------------------------------
Total Dipole Moment    :     -0.15381       0.11085       0.63275
                        -----------------------------------------
Magnitude (a.u.)       :      0.66054
Magnitude (Debye)      :      1.67897

Rotational constants in cm-1:     0.017240     0.008947     0.006878
Rotational constants in MHz :   516.830164   268.215016   206.200822

                             ****ORCA TERMINATED NORMALLY****
TOTAL RUN TIME: 0 days 0 hours 0 minutes 21 seconds 547 msec
