                         Program Version 4.2.1 -  RELEASE  -
|  1> ! wB97X-D3 SP def2-SVP
|  2> %pal
|  3> nprocs 24
|  4> end
|  5>
|  6> * xyz 0 1
|  7> S 	 -78.4198 	 -18.7466 	 -53.4461
|  8> C 	 -79.9859 	 -19.1166 	 -52.8195
|  9> C 	 -80.926 	 -19.2586 	 -53.7987
| 10> C 	 -80.3063 	 -19.2052 	 -55.0903
| 11> C 	 -79.008 	 -18.9778 	 -55.061
| 12> H 	 -80.8431 	 -19.4087 	 -55.9556
| 13> C 	 -82.4255 	 -19.5311 	 -53.6331
| 14> H 	 -82.5323 	 -20.2743 	 -52.9229
| 15> H 	 -82.8513 	 -19.907 	 -54.5641
| 16> C 	 -83.2705 	 -18.3016 	 -53.2802
| 17> H 	 -82.7566 	 -17.6811 	 -52.5193
| 18> H 	 -83.3425 	 -17.721 	 -54.1974
| 19> C 	 -84.653 	 -18.7564 	 -52.6793
| 20> H 	 -85.0717 	 -17.907 	 -52.0839
| 21> H 	 -85.4714 	 -19.0849 	 -53.4106
| 22> H 	 -84.5132 	 -19.5128 	 -51.9864
| 23> S 	 -76.7497 	 -19.8017 	 -56.507
| 24> C 	 -76.4028 	 -18.9795 	 -57.9537
| 25> C 	 -77.2046 	 -17.8738 	 -58.0914
| 26> C 	 -78.2673 	 -17.8313 	 -57.2118
| 27> C 	 -78.1223 	 -18.806 	 -56.2342
| 28> H 	 -77.0765 	 -17.1301 	 -58.8194
| 29> C 	 -79.2239 	 -16.6306 	 -57.1992
| 30> H 	 -78.5496 	 -15.805 	 -57.1151
| 31> H 	 -79.8088 	 -16.6317 	 -56.2639
| 32> C 	 -80.23 	 -16.5143 	 -58.385
| 33> H 	 -79.7539 	 -16.108 	 -59.2295
| 34> H 	 -81.1186 	 -15.9816 	 -58.0191
| 35> C 	 -80.818 	 -17.9265 	 -58.8104
| 36> H 	 -80.2298 	 -18.6849 	 -59.268
| 37> H 	 -81.6234 	 -17.667 	 -59.4842
| 38> H 	 -81.3676 	 -18.3138 	 -57.9094
| 39> H 	 -80.2399 	 -19.2961 	 -51.7988
| 40> H 	 -75.5952 	 -19.3107 	 -58.5982
| 41> *
| 42>
| 43>                          ****END OF INPUT****

CARTESIAN COORDINATES (ANGSTROEM)
---------------------------------
  S    -78.419800  -18.746600  -53.446100
  C    -79.985900  -19.116600  -52.819500
  C    -80.926000  -19.258600  -53.798700
  C    -80.306300  -19.205200  -55.090300
  C    -79.008000  -18.977800  -55.061000
  H    -80.843100  -19.408700  -55.955600
  C    -82.425500  -19.531100  -53.633100
  H    -82.532300  -20.274300  -52.922900
  H    -82.851300  -19.907000  -54.564100
  C    -83.270500  -18.301600  -53.280200
  H    -82.756600  -17.681100  -52.519300
  H    -83.342500  -17.721000  -54.197400
  C    -84.653000  -18.756400  -52.679300
  H    -85.071700  -17.907000  -52.083900
  H    -85.471400  -19.084900  -53.410600
  H    -84.513200  -19.512800  -51.986400
  S    -76.749700  -19.801700  -56.507000
  C    -76.402800  -18.979500  -57.953700
  C    -77.204600  -17.873800  -58.091400
  C    -78.267300  -17.831300  -57.211800
  C    -78.122300  -18.806000  -56.234200
  H    -77.076500  -17.130100  -58.819400
  C    -79.223900  -16.630600  -57.199200
  H    -78.549600  -15.805000  -57.115100
  H    -79.808800  -16.631700  -56.263900
  C    -80.230000  -16.514300  -58.385000
  H    -79.753900  -16.108000  -59.229500
  H    -81.118600  -15.981600  -58.019100
  C    -80.818000  -17.926500  -58.810400
  H    -80.229800  -18.684900  -59.268000
  H    -81.623400  -17.667000  -59.484200
  H    -81.367600  -18.313800  -57.909400
  H    -80.239900  -19.296100  -51.798800
  H    -75.595200  -19.310700  -58.598200

 Total Charge           Charge          ....    0
 Multiplicity           Mult            ....    1
 Number of Electrons    NEL             ....  134
 Basis Dimension        Dim             ....  322

ORBITAL ENERGIES
----------------

  NO   OCC          E(Eh)            E(eV)
   0   2.0000     -88.966239     -2420.8944
   1   2.0000     -88.961929     -2420.7772
   2   2.0000     -10.318738      -280.7871
   3   2.0000     -10.317285      -280.7476
   4   2.0000     -10.311696      -280.5955
   5   2.0000     -10.304647      -280.4037
   6   2.0000     -10.294188      -280.1191
   7   2.0000     -10.293741      -280.1069
   8   2.0000     -10.290775      -280.0262
   9   2.0000     -10.290466      -280.0178
  10   2.0000     -10.288903      -279.9753
  11   2.0000     -10.285337      -279.8782
  12   2.0000     -10.283935      -279.8401
  13   2.0000     -10.282156      -279.7917
  14   2.0000     -10.277733      -279.6713
  15   2.0000     -10.277086      -279.6537
  16   2.0000      -8.082394      -219.9331
  17   2.0000      -8.077556      -219.8015
  18   2.0000      -6.040568      -164.3722
  19   2.0000      -6.036681      -164.2664
  20   2.0000      -6.036104      -164.2508
  21   2.0000      -6.033468      -164.1790
  22   2.0000      -6.032027      -164.1398
  23   2.0000      -6.028162      -164.0346
  24   2.0000      -1.015792       -27.6411
  25   2.0000      -0.994990       -27.0750
  26   2.0000      -0.909553       -24.7502
  27   2.0000      -0.904817       -24.6213
  28   2.0000      -0.866990       -23.5920
  29   2.0000      -0.852312       -23.1926
  30   2.0000      -0.847028       -23.0488
  31   2.0000      -0.813458       -22.1353
  32   2.0000      -0.783809       -21.3285
  33   2.0000      -0.773461       -21.0469
  34   2.0000      -0.703945       -19.1553
  35   2.0000      -0.701845       -19.0982
  36   2.0000      -0.692850       -18.8534
  37   2.0000      -0.662723       -18.0336
  38   2.0000      -0.644504       -17.5379
  39   2.0000      -0.624407       -16.9910
  40   2.0000      -0.599333       -16.3087
  41   2.0000      -0.572281       -15.5725
  42   2.0000      -0.562430       -15.3045
  43   2.0000      -0.556469       -15.1423
  44   2.0000      -0.543105       -14.7786
  45   2.0000      -0.522207       -14.2100
  46   2.0000      -0.516317       -14.0497
  47   2.0000      -0.507246       -13.8029
  48   2.0000      -0.501888       -13.6571
  49   2.0000      -0.493007       -13.4154
  50   2.0000      -0.488931       -13.3045
  51   2.0000      -0.481663       -13.1067
  52   2.0000      -0.469691       -12.7809
  53   2.0000      -0.465428       -12.6649
  54   2.0000      -0.462970       -12.5981
  55   2.0000      -0.448743       -12.2109
  56   2.0000      -0.445654       -12.1269
  57   2.0000      -0.442222       -12.0335
  58   2.0000      -0.431274       -11.7356
  59   2.0000      -0.427368       -11.6293
  60   2.0000      -0.422160       -11.4876
  61   2.0000      -0.417243       -11.3538
  62   2.0000      -0.415286       -11.3005
  63   2.0000      -0.341686        -9.2977
  64   2.0000      -0.333202        -9.0669
  65   2.0000      -0.328468        -8.9381
  66   2.0000      -0.297903        -8.1063
  67   0.0000       0.043852         1.1933
  68   0.0000       0.073390         1.9971
  69   0.0000       0.120558         3.2806
  70   0.0000       0.122176         3.3246
  71   0.0000       0.137889         3.7521

MULLIKEN ATOMIC CHARGES
-----------------------
   0 S :    0.113767
   1 C :   -0.113781
   2 C :   -0.097607
   3 C :    0.040847
   4 C :   -0.126224
   5 H :   -0.029105
   6 C :    0.102155
   7 H :    0.004492
   8 H :    0.016248
   9 C :   -0.081875
  10 H :    0.036079
  11 H :    0.031344
  12 C :   -0.057303
  13 H :    0.036654
  14 H :    0.048817
  15 H :    0.015623
  16 S :    0.135391
  17 C :   -0.099359
  18 C :   -0.003004
  19 C :   -0.029468
  20 C :   -0.191989
  21 H :   -0.009031
  22 C :    0.068185
  23 H :    0.030983
  24 H :    0.029681
  25 C :   -0.058923
  26 H :    0.028998
  27 H :    0.041032
  28 C :   -0.069047
  29 H :    0.050064
  30 H :    0.024648
  31 H :    0.023267
  32 H :    0.028884
  33 H :    0.059558
Sum of atomic charges:   -0.0000000

LOEWDIN ATOMIC CHARGES
----------------------
   0 S :    0.410801
   1 C :   -0.201029
   2 C :   -0.057943
   3 C :   -0.060569
   4 C :   -0.191190
   5 H :    0.018469
   6 C :   -0.024722
   7 H :    0.016644
   8 H :    0.030226
   9 C :   -0.036017
  10 H :    0.026042
  11 H :    0.024049
  12 C :   -0.070108
  13 H :    0.031754
  14 H :    0.034543
  15 H :    0.011787
  16 S :    0.447277
  17 C :   -0.198794
  18 C :   -0.068069
  19 C :   -0.053688
  20 C :   -0.218202
  21 H :    0.021466
  22 C :   -0.030251
  23 H :    0.029913
  24 H :    0.032659
  25 C :   -0.028803
  26 H :    0.014430
  27 H :    0.033462
  28 C :   -0.068189
  29 H :    0.021984
  30 H :    0.024464
  31 H :    0.026199
  32 H :    0.022441
  33 H :    0.028961

  Mayer bond orders larger than 0.100000
B(  0-S ,  1-C ) :   1.1310 B(  0-S ,  4-C ) :   1.1451 B(  1-C ,  2-C ) :   1.6419
B(  1-C , 32-H ) :   0.9686 B(  2-C ,  3-C ) :   1.2233 B(  2-C ,  6-C ) :   1.0160
B(  3-C ,  4-C ) :   1.6154 B(  3-C ,  5-H ) :   1.0161 B(  4-C , 20-C ) :   0.9875
B(  6-C ,  7-H ) :   0.9413 B(  6-C ,  8-H ) :   0.9429 B(  6-C ,  9-C ) :   1.0570
B(  9-C , 10-H ) :   0.9638 B(  9-C , 11-H ) :   0.9581 B(  9-C , 12-C ) :   1.0655
B( 12-C , 13-H ) :   0.9770 B( 12-C , 14-H ) :   0.9764 B( 12-C , 15-H ) :   0.9773
B( 16-S , 17-C ) :   1.1834 B( 16-S , 20-C ) :   1.1799 B( 17-C , 18-C ) :   1.5383
B( 17-C , 20-C ) :   0.1064 B( 17-C , 33-H ) :   0.9734 B( 18-C , 19-C ) :   1.2952
B( 18-C , 21-H ) :   1.0012 B( 19-C , 20-C ) :   1.5534 B( 19-C , 22-C ) :   1.0341
B( 22-C , 23-H ) :   0.9469 B( 22-C , 24-H ) :   0.9311 B( 22-C , 25-C ) :   1.0625
B( 25-C , 26-H ) :   0.9590 B( 25-C , 27-H ) :   0.9598 B( 25-C , 28-C ) :   1.0828
B( 28-C , 29-H ) :   0.9737 B( 28-C , 30-H ) :   0.9718 B( 28-C , 31-H ) :   0.9743

Dispersion correction           -0.014975192
FINAL SINGLE POINT ENERGY     -1339.873650818007

DIPOLE MOMENT
-------------
                                X             Y             Z
Electronic contribution:     29.16818      -7.83959       3.89634
Nuclear contribution   :    -29.66457       8.06141      -4.14341
                        -----------------------------------------
Total Dipole Moment    :     -0.49640       0.22182      -0.24707
                        -----------------------------------------
Magnitude (a.u.)       :      0.59721
Magnitude (Debye)      :      1.51798

Rotational constants in cm-1:     0.020682     0.008578     0.006663
Rotational constants in MHz :   620.033508   257.162141   199.754562

                             ****ORCA TERMINATED NORMALLY****
TOTAL RUN TIME: 0 days 0 hours 0 minutes 21 seconds 88 msec
