                         Program Version 4.2.1 -  RELEASE  -
|  1> ! wB97X-D3 SP def2-SVP
|  2> %pal
|  3> nprocs 24
|  4> end
|  5>
|  6> * xyz 0 1
|  7> S 	 -48.822 	 16.2803 	 23.7166
|  8> C 	 -49.9695 	 16.5018 	 25.0619
|  9> C 	 -51.0689 	 15.7196 	 24.8004
| 10> C 	 -51.1379 	 15.2923 	 23.4408
| 11> C 	 -50.0636 	 15.5869 	 22.6964
| 12> H 	 -52.0168 	 14.854 	 23.0782
| 13> C 	 -52.0777 	 15.3855 	 25.8255
| 14> H 	 -53.0286 	 15.5025 	 25.4185
| 15> H 	 -52.0556 	 16.0422 	 26.6766
| 16> C 	 -52.0264 	 13.9691 	 26.4271
| 17> H 	 -51.2279 	 13.9054 	 27.1115
| 18> H 	 -52.9252 	 13.8049 	 27.0631
| 19> C 	 -52.0253 	 12.7745 	 25.4068
| 20> H 	 -52.2374 	 11.8966 	 25.9367
| 21> H 	 -52.8733 	 12.8207 	 24.6547
| 22> H 	 -51.0685 	 12.8504 	 24.9034
| 23> S 	 -49.1735 	 14.2815 	 20.5807
| 24> C 	 -49.111 	 15.0581 	 18.9847
| 25> C 	 -49.6671 	 16.3256 	 19.0283
| 26> C 	 -50.1257 	 16.685 	 20.3476
| 27> C 	 -49.9227 	 15.6491 	 21.2562
| 28> H 	 -49.7214 	 17.0032 	 18.1997
| 29> C 	 -50.7989 	 17.9614 	 20.6573
| 30> H 	 -51.4823 	 17.7884 	 21.4729
| 31> H 	 -51.3666 	 18.2951 	 19.7892
| 32> C 	 -49.8018 	 19.1192 	 21.0399
| 33> H 	 -49.0992 	 19.2283 	 20.1728
| 34> H 	 -49.2939 	 18.8295 	 21.9692
| 35> C 	 -50.461 	 20.4408 	 21.2866
| 36> H 	 -49.6922 	 21.1898 	 21.4578
| 37> H 	 -51.1698 	 20.2888 	 22.0349
| 38> H 	 -50.9557 	 20.9425 	 20.3786
| 39> H 	 -49.5157 	 16.8481 	 26.0559
| 40> H 	 -48.7477 	 14.6015 	 18.0331
| 41> *
| 42>
| 43>                          ****END OF INPUT****

CARTESIAN COORDINATES (ANGSTROEM)
---------------------------------
  S    -48.822000   16.280300   23.716600
  C    -49.969500   16.501800   25.061900
  C    -51.068900   15.719600   24.800400
  C    -51.137900   15.292300   23.440800
  C    -50.063600   15.586900   22.696400
  H    -52.016800   14.854000   23.078200
  C    -52.077700   15.385500   25.825500
  H    -53.028600   15.502500   25.418500
  H    -52.055600   16.042200   26.676600
  C    -52.026400   13.969100   26.427100
  H    -51.227900   13.905400   27.111500
  H    -52.925200   13.804900   27.063100
  C    -52.025300   12.774500   25.406800
  H    -52.237400   11.896600   25.936700
  H    -52.873300   12.820700   24.654700
  H    -51.068500   12.850400   24.903400
  S    -49.173500   14.281500   20.580700
  C    -49.111000   15.058100   18.984700
  C    -49.667100   16.325600   19.028300
  C    -50.125700   16.685000   20.347600
  C    -49.922700   15.649100   21.256200
  H    -49.721400   17.003200   18.199700
  C    -50.798900   17.961400   20.657300
  H    -51.482300   17.788400   21.472900
  H    -51.366600   18.295100   19.789200
  C    -49.801800   19.119200   21.039900
  H    -49.099200   19.228300   20.172800
  H    -49.293900   18.829500   21.969200
  C    -50.461000   20.440800   21.286600
  H    -49.692200   21.189800   21.457800
  H    -51.169800   20.288800   22.034900
  H    -50.955700   20.942500   20.378600
  H    -49.515700   16.848100   26.055900
  H    -48.747700   14.601500   18.033100

 Total Charge           Charge          ....    0
 Multiplicity           Mult            ....    1
 Number of Electrons    NEL             ....  134
 Basis Dimension        Dim             ....  322

ORBITAL ENERGIES
----------------

  NO   OCC          E(Eh)            E(eV)
   0   2.0000     -88.964699     -2420.8525
   1   2.0000     -88.959423     -2420.7090
   2   2.0000     -10.325321      -280.9663
   3   2.0000     -10.322851      -280.8991
   4   2.0000     -10.320853      -280.8447
   5   2.0000     -10.318703      -280.7862
   6   2.0000     -10.301442      -280.3165
   7   2.0000     -10.299337      -280.2592
   8   2.0000     -10.293916      -280.1117
   9   2.0000     -10.289938      -280.0034
  10   2.0000     -10.286593      -279.9124
  11   2.0000     -10.284149      -279.8459
  12   2.0000     -10.282999      -279.8146
  13   2.0000     -10.282913      -279.8123
  14   2.0000     -10.278613      -279.6953
  15   2.0000     -10.271767      -279.5090
  16   2.0000      -8.079954      -219.8667
  17   2.0000      -8.074138      -219.7085
  18   2.0000      -6.038514      -164.3163
  19   2.0000      -6.034252      -164.2003
  20   2.0000      -6.032706      -164.1583
  21   2.0000      -6.030771      -164.1056
  22   2.0000      -6.028699      -164.0493
  23   2.0000      -6.024742      -163.9416
  24   2.0000      -1.011979       -27.5374
  25   2.0000      -0.986414       -26.8417
  26   2.0000      -0.914197       -24.8766
  27   2.0000      -0.906813       -24.6756
  28   2.0000      -0.870150       -23.6780
  29   2.0000      -0.852006       -23.1843
  30   2.0000      -0.843772       -22.9602
  31   2.0000      -0.821250       -22.3474
  32   2.0000      -0.786119       -21.3914
  33   2.0000      -0.766500       -20.8575
  34   2.0000      -0.703472       -19.1425
  35   2.0000      -0.698024       -18.9942
  36   2.0000      -0.685184       -18.6448
  37   2.0000      -0.665759       -18.1162
  38   2.0000      -0.644797       -17.5458
  39   2.0000      -0.623939       -16.9782
  40   2.0000      -0.593369       -16.1464
  41   2.0000      -0.575659       -15.6645
  42   2.0000      -0.566927       -15.4269
  43   2.0000      -0.551429       -15.0051
  44   2.0000      -0.542109       -14.7515
  45   2.0000      -0.526889       -14.3374
  46   2.0000      -0.514553       -14.0017
  47   2.0000      -0.513021       -13.9600
  48   2.0000      -0.508725       -13.8431
  49   2.0000      -0.503752       -13.7078
  50   2.0000      -0.494615       -13.4592
  51   2.0000      -0.480540       -13.0762
  52   2.0000      -0.465394       -12.6640
  53   2.0000      -0.462803       -12.5935
  54   2.0000      -0.456061       -12.4100
  55   2.0000      -0.449463       -12.2305
  56   2.0000      -0.443593       -12.0708
  57   2.0000      -0.435504       -11.8507
  58   2.0000      -0.427431       -11.6310
  59   2.0000      -0.422726       -11.5030
  60   2.0000      -0.418384       -11.3848
  61   2.0000      -0.412609       -11.2277
  62   2.0000      -0.411292       -11.1918
  63   2.0000      -0.334503        -9.1023
  64   2.0000      -0.333922        -9.0865
  65   2.0000      -0.320780        -8.7289
  66   2.0000      -0.306263        -8.3338
  67   0.0000       0.041893         1.1400
  68   0.0000       0.052991         1.4419
  69   0.0000       0.111223         3.0265
  70   0.0000       0.118446         3.2231
  71   0.0000       0.125055         3.4029

MULLIKEN ATOMIC CHARGES
-----------------------
   0 S :    0.091630
   1 C :   -0.156558
   2 C :   -0.102650
   3 C :    0.076320
   4 C :   -0.135776
   5 H :   -0.013567
   6 C :    0.123311
   7 H :    0.002700
   8 H :    0.012969
   9 C :   -0.088535
  10 H :    0.017874
  11 H :    0.025933
  12 C :   -0.061499
  13 H :    0.028701
  14 H :    0.030889
  15 H :    0.059953
  16 S :    0.113901
  17 C :   -0.103703
  18 C :   -0.023420
  19 C :   -0.013899
  20 C :   -0.192257
  21 H :    0.011824
  22 C :    0.077471
  23 H :    0.020740
  24 H :    0.015991
  25 C :   -0.099185
  26 H :    0.027644
  27 H :    0.036762
  28 C :   -0.020500
  29 H :    0.033792
  30 H :    0.024684
  31 H :    0.023905
  32 H :    0.084212
  33 H :    0.070346
Sum of atomic charges:    0.0000000

LOEWDIN ATOMIC CHARGES
----------------------
   0 S :    0.385877
   1 C :   -0.190814
   2 C :   -0.065423
   3 C :   -0.049980
   4 C :   -0.195755
   5 H :    0.024414
   6 C :   -0.029580
   7 H :    0.021244
   8 H :    0.031906
   9 C :   -0.031895
  10 H :    0.014541
  11 H :    0.025987
  12 C :   -0.064896
  13 H :    0.019876
  14 H :    0.028671
  15 H :    0.028573
  16 S :    0.424353
  17 C :   -0.189211
  18 C :   -0.064566
  19 C :   -0.051004
  20 C :   -0.222407
  21 H :    0.028643
  22 C :   -0.033178
  23 H :    0.028876
  24 H :    0.029542
  25 C :   -0.038179
  26 H :    0.024527
  27 H :    0.022072
  28 C :   -0.067933
  29 H :    0.028981
  30 H :    0.016288
  31 H :    0.028808
  32 H :    0.043139
  33 H :    0.038504

  Mayer bond orders larger than 0.100000
B(  0-S ,  1-C ) :   1.1256 B(  0-S ,  4-C ) :   1.1445 B(  1-C ,  2-C ) :   1.6184
B(  1-C , 32-H ) :   0.9593 B(  2-C ,  3-C ) :   1.2138 B(  2-C ,  6-C ) :   1.0397
B(  3-C ,  4-C ) :   1.6016 B(  3-C ,  5-H ) :   1.0097 B(  4-C , 20-C ) :   0.9762
B(  6-C ,  7-H ) :   0.9303 B(  6-C ,  8-H ) :   0.9367 B(  6-C ,  9-C ) :   1.0716
B(  9-C , 10-H ) :   0.9575 B(  9-C , 11-H ) :   0.9569 B(  9-C , 12-C ) :   1.0771
B( 12-C , 13-H ) :   0.9736 B( 12-C , 14-H ) :   0.9753 B( 12-C , 15-H ) :   0.9726
B( 16-S , 17-C ) :   1.1484 B( 16-S , 20-C ) :   1.1675 B( 17-C , 18-C ) :   1.6037
B( 17-C , 33-H ) :   0.9632 B( 18-C , 19-C ) :   1.2453 B( 18-C , 21-H ) :   0.9898
B( 19-C , 20-C ) :   1.5954 B( 19-C , 22-C ) :   1.0637 B( 22-C , 23-H ) :   0.9263
B( 22-C , 24-H ) :   0.9304 B( 22-C , 25-C ) :   1.0634 B( 25-C , 26-H ) :   0.9570
B( 25-C , 27-H ) :   0.9475 B( 25-C , 28-C ) :   1.0940 B( 28-C , 29-H ) :   0.9698
B( 28-C , 30-H ) :   0.9723 B( 28-C , 31-H ) :   0.9703

Dispersion correction           -0.015132889
FINAL SINGLE POINT ENERGY     -1339.869467484418

DIPOLE MOMENT
-------------
                                X             Y             Z
Electronic contribution:     13.34267      -8.56849      -8.50591
Nuclear contribution   :    -13.79518       8.71320       8.70570
                        -----------------------------------------
Total Dipole Moment    :     -0.45250       0.14470       0.19979
                        -----------------------------------------
Magnitude (a.u.)       :      0.51538
Magnitude (Debye)      :      1.30998

Rotational constants in cm-1:     0.019242     0.009227     0.007229
Rotational constants in MHz :   576.849249   276.611517   216.711388

                             ****ORCA TERMINATED NORMALLY****
TOTAL RUN TIME: 0 days 0 hours 0 minutes 22 seconds 96 msec
