                         Program Version 4.2.1 -  RELEASE  -
|  1> ! wB97X-D3 SP def2-SVP
|  2> %pal
|  3> nprocs 24
|  4> end
|  5>
|  6> * xyz 0 1
|  7> S 	 17.3172 	 -13.9403 	 -119.921
|  8> C 	 15.8298 	 -14.0554 	 -120.905
|  9> C 	 14.9326 	 -14.7535 	 -120.214
| 10> C 	 15.3772 	 -15.2504 	 -118.955
| 11> C 	 16.6938 	 -15.0719 	 -118.7
| 12> H 	 14.774 	 -15.7542 	 -118.209
| 13> C 	 13.5924 	 -15.0597 	 -120.834
| 14> H 	 13.3347 	 -15.9995 	 -120.425
| 15> H 	 13.7719 	 -15.0969 	 -121.873
| 16> C 	 12.585 	 -13.9757 	 -120.392
| 17> H 	 12.2954 	 -14.0151 	 -119.297
| 18> H 	 13.0868 	 -13.0707 	 -120.642
| 19> C 	 11.4625 	 -13.9341 	 -121.446
| 20> H 	 11.706 	 -14.5448 	 -122.311
| 21> H 	 10.6302 	 -14.4062 	 -120.887
| 22> H 	 11.1752 	 -12.9491 	 -121.825
| 23> S 	 18.7887 	 -16.7127 	 -118.265
| 24> C 	 19.2282 	 -17.2393 	 -116.651
| 25> C 	 18.35 	 -16.7818 	 -115.692
| 26> C 	 17.3472 	 -15.9338 	 -116.241
| 27> C 	 17.4933 	 -15.7359 	 -117.638
| 28> H 	 18.4688 	 -17.3048 	 -114.746
| 29> C 	 16.2575 	 -15.4491 	 -115.358
| 30> H 	 15.8935 	 -14.4185 	 -115.725
| 31> H 	 16.7411 	 -15.1412 	 -114.392
| 32> C 	 15.0247 	 -16.3608 	 -115.112
| 33> H 	 15.3826 	 -17.0717 	 -114.377
| 34> H 	 14.623 	 -16.8345 	 -116
| 35> C 	 13.9609 	 -15.5074 	 -114.472
| 36> H 	 13.2921 	 -15.1455 	 -115.234
| 37> H 	 14.3063 	 -14.6101 	 -113.894
| 38> H 	 13.3449 	 -15.9884 	 -113.703
| 39> H 	 15.572 	 -13.6971 	 -121.921
| 40> H 	 19.9399 	 -18.0007 	 -116.405
| 41> *
| 42>
| 43>                          ****END OF INPUT****

CARTESIAN COORDINATES (ANGSTROEM)
---------------------------------
  S     17.317200  -13.940300  -119.921000
  C     15.829800  -14.055400  -120.905000
  C     14.932600  -14.753500  -120.214000
  C     15.377200  -15.250400  -118.955000
  C     16.693800  -15.071900  -118.700000
  H     14.774000  -15.754200  -118.209000
  C     13.592400  -15.059700  -120.834000
  H     13.334700  -15.999500  -120.425000
  H     13.771900  -15.096900  -121.873000
  C     12.585000  -13.975700  -120.392000
  H     12.295400  -14.015100  -119.297000
  H     13.086800  -13.070700  -120.642000
  C     11.462500  -13.934100  -121.446000
  H     11.706000  -14.544800  -122.311000
  H     10.630200  -14.406200  -120.887000
  H     11.175200  -12.949100  -121.825000
  S     18.788700  -16.712700  -118.265000
  C     19.228200  -17.239300  -116.651000
  C     18.350000  -16.781800  -115.692000
  C     17.347200  -15.933800  -116.241000
  C     17.493300  -15.735900  -117.638000
  H     18.468800  -17.304800  -114.746000
  C     16.257500  -15.449100  -115.358000
  H     15.893500  -14.418500  -115.725000
  H     16.741100  -15.141200  -114.392000
  C     15.024700  -16.360800  -115.112000
  H     15.382600  -17.071700  -114.377000
  H     14.623000  -16.834500  -116.000000
  C     13.960900  -15.507400  -114.472000
  H     13.292100  -15.145500  -115.234000
  H     14.306300  -14.610100  -113.894000
  H     13.344900  -15.988400  -113.703000
  H     15.572000  -13.697100  -121.921000
  H     19.939900  -18.000700  -116.405000

 Total Charge           Charge          ....    0
 Multiplicity           Mult            ....    1
 Number of Electrons    NEL             ....  134
 Basis Dimension        Dim             ....  322

ORBITAL ENERGIES
----------------

  NO   OCC          E(Eh)            E(eV)
   0   2.0000     -88.967032     -2420.9160
   1   2.0000     -88.960979     -2420.7513
   2   2.0000     -10.333112      -281.1783
   3   2.0000     -10.332078      -281.1501
   4   2.0000     -10.314580      -280.6740
   5   2.0000     -10.310304      -280.5576
   6   2.0000     -10.307788      -280.4892
   7   2.0000     -10.297899      -280.2201
   8   2.0000     -10.293123      -280.0901
   9   2.0000     -10.290375      -280.0153
  10   2.0000     -10.290005      -280.0053
  11   2.0000     -10.288726      -279.9705
  12   2.0000     -10.287281      -279.9312
  13   2.0000     -10.283839      -279.8375
  14   2.0000     -10.278859      -279.7020
  15   2.0000     -10.277953      -279.6773
  16   2.0000      -8.081752      -219.9157
  17   2.0000      -8.074785      -219.7261
  18   2.0000      -6.040172      -164.3614
  19   2.0000      -6.036185      -164.2529
  20   2.0000      -6.033596      -164.1825
  21   2.0000      -6.032666      -164.1572
  22   2.0000      -6.029528      -164.0718
  23   2.0000      -6.025126      -163.9520
  24   2.0000      -1.006219       -27.3806
  25   2.0000      -0.986603       -26.8468
  26   2.0000      -0.917491       -24.9662
  27   2.0000      -0.912408       -24.8279
  28   2.0000      -0.871534       -23.7156
  29   2.0000      -0.854638       -23.2559
  30   2.0000      -0.841771       -22.9057
  31   2.0000      -0.821599       -22.3569
  32   2.0000      -0.776575       -21.1317
  33   2.0000      -0.766388       -20.8545
  34   2.0000      -0.711572       -19.3629
  35   2.0000      -0.699198       -19.0261
  36   2.0000      -0.696373       -18.9493
  37   2.0000      -0.659769       -17.9532
  38   2.0000      -0.638124       -17.3642
  39   2.0000      -0.620704       -16.8902
  40   2.0000      -0.594060       -16.1652
  41   2.0000      -0.577190       -15.7061
  42   2.0000      -0.573113       -15.5952
  43   2.0000      -0.563092       -15.3225
  44   2.0000      -0.526051       -14.3146
  45   2.0000      -0.521182       -14.1821
  46   2.0000      -0.516636       -14.0584
  47   2.0000      -0.515416       -14.0252
  48   2.0000      -0.509357       -13.8603
  49   2.0000      -0.503869       -13.7110
  50   2.0000      -0.491125       -13.3642
  51   2.0000      -0.478766       -13.0279
  52   2.0000      -0.472406       -12.8548
  53   2.0000      -0.462818       -12.5939
  54   2.0000      -0.461762       -12.5652
  55   2.0000      -0.454334       -12.3631
  56   2.0000      -0.450333       -12.2542
  57   2.0000      -0.436263       -11.8713
  58   2.0000      -0.429651       -11.6914
  59   2.0000      -0.423168       -11.5150
  60   2.0000      -0.419710       -11.4209
  61   2.0000      -0.412209       -11.2168
  62   2.0000      -0.395960       -10.7746
  63   2.0000      -0.346488        -9.4284
  64   2.0000      -0.330001        -8.9798
  65   2.0000      -0.323632        -8.8065
  66   2.0000      -0.298101        -8.1117
  67   0.0000       0.030447         0.8285
  68   0.0000       0.067821         1.8455
  69   0.0000       0.116689         3.1753
  70   0.0000       0.119336         3.2473
  71   0.0000       0.126039         3.4297

MULLIKEN ATOMIC CHARGES
-----------------------
   0 S :    0.094206
   1 C :   -0.125643
   2 C :   -0.120026
   3 C :    0.054944
   4 C :   -0.136859
   5 H :   -0.010386
   6 C :    0.106908
   7 H :    0.012692
   8 H :    0.015398
   9 C :   -0.078974
  10 H :    0.055282
  11 H :    0.016688
  12 C :   -0.053029
  13 H :    0.029243
  14 H :    0.034809
  15 H :    0.039151
  16 S :    0.116545
  17 C :   -0.088296
  18 C :   -0.055002
  19 C :    0.002927
  20 C :   -0.158245
  21 H :    0.029682
  22 C :   -0.038306
  23 H :    0.035920
  24 H :    0.036350
  25 C :   -0.009757
  26 H :    0.028855
  27 H :    0.041259
  28 C :   -0.073273
  29 H :    0.031698
  30 H :    0.034558
  31 H :    0.029762
  32 H :    0.051701
  33 H :    0.049220
Sum of atomic charges:   -0.0000000

LOEWDIN ATOMIC CHARGES
----------------------
   0 S :    0.367063
   1 C :   -0.192909
   2 C :   -0.068867
   3 C :   -0.065344
   4 C :   -0.182993
   5 H :    0.027503
   6 C :   -0.015918
   7 H :    0.022686
   8 H :    0.024524
   9 C :   -0.041513
  10 H :    0.034936
  11 H :    0.019903
  12 C :   -0.068260
  13 H :    0.023001
  14 H :    0.030692
  15 H :    0.024147
  16 S :    0.423293
  17 C :   -0.181792
  18 C :   -0.075930
  19 C :   -0.059925
  20 C :   -0.199252
  21 H :    0.038603
  22 C :   -0.046067
  23 H :    0.034615
  24 H :    0.037357
  25 C :   -0.034443
  26 H :    0.026096
  27 H :    0.024822
  28 C :   -0.072190
  29 H :    0.023808
  30 H :    0.030711
  31 H :    0.025328
  32 H :    0.040484
  33 H :    0.025830

  Mayer bond orders larger than 0.100000
B(  0-S ,  1-C ) :   1.0973 B(  0-S ,  4-C ) :   1.1328 B(  1-C ,  2-C ) :   1.6712
B(  1-C , 32-H ) :   0.9583 B(  2-C ,  3-C ) :   1.2125 B(  2-C ,  6-C ) :   1.0143
B(  3-C ,  4-C ) :   1.6108 B(  3-C ,  5-H ) :   0.9964 B(  4-C , 20-C ) :   1.0161
B(  6-C ,  7-H ) :   0.9321 B(  6-C ,  8-H ) :   0.9474 B(  6-C ,  9-C ) :   1.0602
B(  9-C , 10-H ) :   0.9622 B(  9-C , 11-H ) :   0.9626 B(  9-C , 12-C ) :   1.0542
B( 12-C , 13-H ) :   0.9777 B( 12-C , 14-H ) :   0.9769 B( 12-C , 15-H ) :   0.9822
B( 16-S , 17-C ) :   1.1620 B( 16-S , 20-C ) :   1.1623 B( 17-C , 18-C ) :   1.6222
B( 17-C , 20-C ) :   0.1005 B( 17-C , 33-H ) :   0.9646 B( 18-C , 19-C ) :   1.2373
B( 18-C , 21-H ) :   0.9886 B( 19-C , 20-C ) :   1.5692 B( 19-C , 22-C ) :   1.0544
B( 22-C , 23-H ) :   0.9425 B( 22-C , 24-H ) :   0.9318 B( 22-C , 25-C ) :   1.0506
B( 25-C , 26-H ) :   0.9517 B( 25-C , 27-H ) :   0.9594 B( 25-C , 28-C ) :   1.0733
B( 28-C , 29-H ) :   0.9774 B( 28-C , 30-H ) :   0.9721 B( 28-C , 31-H ) :   0.9741

Dispersion correction           -0.013886614
FINAL SINGLE POINT ENERGY     -1339.845932995458

DIPOLE MOMENT
-------------
                                X             Y             Z
Electronic contribution:     29.36417      -2.36679      -6.80247
Nuclear contribution   :    -30.04971       2.02526       7.12310
                        -----------------------------------------
Total Dipole Moment    :     -0.68554      -0.34152       0.32063
                        -----------------------------------------
Magnitude (a.u.)       :      0.83030
Magnitude (Debye)      :      2.11046

Rotational constants in cm-1:     0.018257     0.008598     0.006334
Rotational constants in MHz :   547.321774   257.757701   189.873716

                             ****ORCA TERMINATED NORMALLY****
TOTAL RUN TIME: 0 days 0 hours 0 minutes 21 seconds 399 msec
