                         Program Version 4.2.1 -  RELEASE  -
|  1> ! wB97X-D3 SP def2-SVP
|  2> %pal
|  3> nprocs 24
|  4> end
|  5>
|  6> * xyz 0 1
|  7> S 	 -136.575 	 27.4953 	 -19.7873
|  8> C 	 -137.338 	 25.9763 	 -20.0239
|  9> C 	 -136.752 	 25.2086 	 -21.0267
| 10> C 	 -135.581 	 25.8743 	 -21.5215
| 11> C 	 -135.422 	 27.1495 	 -21.0857
| 12> H 	 -134.88 	 25.5977 	 -22.315
| 13> C 	 -137.135 	 23.7998 	 -21.4879
| 14> H 	 -137.352 	 23.8091 	 -22.5557
| 15> H 	 -138.079 	 23.593 	 -21.0462
| 16> C 	 -136.098 	 22.6785 	 -21.2071
| 17> H 	 -136.298 	 21.7646 	 -21.802
| 18> H 	 -135.152 	 23.1122 	 -21.5253
| 19> C 	 -135.99 	 22.2024 	 -19.7898
| 20> H 	 -136.94 	 21.7425 	 -19.4914
| 21> H 	 -135.134 	 21.5593 	 -19.6121
| 22> H 	 -135.899 	 23.0907 	 -19.0801
| 23> S 	 -134.878 	 29.6772 	 -22.269
| 24> C 	 -133.302 	 30.0569 	 -22.8417
| 25> C 	 -132.499 	 28.9805 	 -22.7143
| 26> C 	 -133.094 	 27.9764 	 -21.9093
| 27> C 	 -134.445 	 28.1366 	 -21.6018
| 28> H 	 -131.57 	 28.9222 	 -23.2572
| 29> C 	 -132.287 	 26.6852 	 -21.7452
| 30> H 	 -132.152 	 26.0766 	 -22.7142
| 31> H 	 -132.887 	 26.0915 	 -21.0761
| 32> C 	 -130.829 	 26.7288 	 -21.1271
| 33> H 	 -130.64 	 25.8674 	 -20.502
| 34> H 	 -130.741 	 27.5058 	 -20.3743
| 35> C 	 -129.743 	 26.7261 	 -22.1273
| 36> H 	 -129.627 	 25.6978 	 -22.5591
| 37> H 	 -128.779 	 27.0267 	 -21.7063
| 38> H 	 -129.851 	 27.3916 	 -23.0124
| 39> H 	 -138.166 	 25.6818 	 -19.4068
| 40> H 	 -132.99 	 30.9376 	 -23.3588
| 41> *
| 42>
| 43>                          ****END OF INPUT****

CARTESIAN COORDINATES (ANGSTROEM)
---------------------------------
  S    -136.575000   27.495300  -19.787300
  C    -137.338000   25.976300  -20.023900
  C    -136.752000   25.208600  -21.026700
  C    -135.581000   25.874300  -21.521500
  C    -135.422000   27.149500  -21.085700
  H    -134.880000   25.597700  -22.315000
  C    -137.135000   23.799800  -21.487900
  H    -137.352000   23.809100  -22.555700
  H    -138.079000   23.593000  -21.046200
  C    -136.098000   22.678500  -21.207100
  H    -136.298000   21.764600  -21.802000
  H    -135.152000   23.112200  -21.525300
  C    -135.990000   22.202400  -19.789800
  H    -136.940000   21.742500  -19.491400
  H    -135.134000   21.559300  -19.612100
  H    -135.899000   23.090700  -19.080100
  S    -134.878000   29.677200  -22.269000
  C    -133.302000   30.056900  -22.841700
  C    -132.499000   28.980500  -22.714300
  C    -133.094000   27.976400  -21.909300
  C    -134.445000   28.136600  -21.601800
  H    -131.570000   28.922200  -23.257200
  C    -132.287000   26.685200  -21.745200
  H    -132.152000   26.076600  -22.714200
  H    -132.887000   26.091500  -21.076100
  C    -130.829000   26.728800  -21.127100
  H    -130.640000   25.867400  -20.502000
  H    -130.741000   27.505800  -20.374300
  C    -129.743000   26.726100  -22.127300
  H    -129.627000   25.697800  -22.559100
  H    -128.779000   27.026700  -21.706300
  H    -129.851000   27.391600  -23.012400
  H    -138.166000   25.681800  -19.406800
  H    -132.990000   30.937600  -23.358800

 Total Charge           Charge          ....    0
 Multiplicity           Mult            ....    1
 Number of Electrons    NEL             ....  134
 Basis Dimension        Dim             ....  322

ORBITAL ENERGIES
----------------

  NO   OCC          E(Eh)            E(eV)
   0   2.0000     -88.967391     -2420.9258
   1   2.0000     -88.963799     -2420.8280
   2   2.0000     -10.332083      -281.1503
   3   2.0000     -10.330284      -281.1013
   4   2.0000     -10.317501      -280.7535
   5   2.0000     -10.311316      -280.5852
   6   2.0000     -10.307827      -280.4902
   7   2.0000     -10.301069      -280.3064
   8   2.0000     -10.295663      -280.1592
   9   2.0000     -10.294033      -280.1149
  10   2.0000     -10.293676      -280.1052
  11   2.0000     -10.288756      -279.9713
  12   2.0000     -10.285961      -279.8952
  13   2.0000     -10.281866      -279.7838
  14   2.0000     -10.279892      -279.7301
  15   2.0000     -10.278989      -279.7055
  16   2.0000      -8.082597      -219.9387
  17   2.0000      -8.079352      -219.8503
  18   2.0000      -6.040988      -164.3836
  19   2.0000      -6.037847      -164.2982
  20   2.0000      -6.037087      -164.2775
  21   2.0000      -6.033626      -164.1833
  22   2.0000      -6.033403      -164.1772
  23   2.0000      -6.030169      -164.0892
  24   2.0000      -1.012162       -27.5423
  25   2.0000      -0.992875       -27.0175
  26   2.0000      -0.911408       -24.8007
  27   2.0000      -0.904447       -24.6113
  28   2.0000      -0.875351       -23.8195
  29   2.0000      -0.853466       -23.2240
  30   2.0000      -0.847786       -23.0694
  31   2.0000      -0.822169       -22.3724
  32   2.0000      -0.782897       -21.3037
  33   2.0000      -0.769679       -20.9440
  34   2.0000      -0.707419       -19.2498
  35   2.0000      -0.694801       -18.9065
  36   2.0000      -0.692416       -18.8416
  37   2.0000      -0.658543       -17.9199
  38   2.0000      -0.649138       -17.6639
  39   2.0000      -0.623617       -16.9695
  40   2.0000      -0.595688       -16.2095
  41   2.0000      -0.575507       -15.6603
  42   2.0000      -0.552414       -15.0319
  43   2.0000      -0.547965       -14.9109
  44   2.0000      -0.542752       -14.7690
  45   2.0000      -0.537680       -14.6310
  46   2.0000      -0.522253       -14.2112
  47   2.0000      -0.515186       -14.0189
  48   2.0000      -0.508990       -13.8503
  49   2.0000      -0.499036       -13.5795
  50   2.0000      -0.489948       -13.3322
  51   2.0000      -0.480907       -13.0861
  52   2.0000      -0.473752       -12.8915
  53   2.0000      -0.465748       -12.6737
  54   2.0000      -0.463153       -12.6030
  55   2.0000      -0.443373       -12.0648
  56   2.0000      -0.440997       -12.0001
  57   2.0000      -0.437487       -11.9046
  58   2.0000      -0.431038       -11.7291
  59   2.0000      -0.425190       -11.5700
  60   2.0000      -0.417630       -11.3643
  61   2.0000      -0.415461       -11.3053
  62   2.0000      -0.402577       -10.9547
  63   2.0000      -0.352221        -9.5844
  64   2.0000      -0.332050        -9.0355
  65   2.0000      -0.326823        -8.8933
  66   2.0000      -0.298787        -8.1304
  67   0.0000       0.032899         0.8952
  68   0.0000       0.072705         1.9784
  69   0.0000       0.113787         3.0963
  70   0.0000       0.118487         3.2242
  71   0.0000       0.128203         3.4886

MULLIKEN ATOMIC CHARGES
-----------------------
   0 S :    0.118545
   1 C :   -0.113272
   2 C :   -0.100143
   3 C :    0.016747
   4 C :   -0.177180
   5 H :    0.028864
   6 C :    0.109097
   7 H :    0.035005
   8 H :   -0.002445
   9 C :   -0.074201
  10 H :    0.035630
  11 H :    0.024887
  12 C :   -0.061179
  13 H :    0.026345
  14 H :    0.043189
  15 H :    0.033791
  16 S :    0.106254
  17 C :   -0.074558
  18 C :   -0.030607
  19 C :   -0.045560
  20 C :   -0.111691
  21 H :    0.020552
  22 C :   -0.004034
  23 H :    0.049426
  24 H :    0.018857
  25 C :   -0.026817
  26 H :    0.020908
  27 H :    0.023220
  28 C :   -0.077885
  29 H :    0.035238
  30 H :    0.032009
  31 H :    0.025656
  32 H :    0.047698
  33 H :    0.047657
Sum of atomic charges:   -0.0000000

LOEWDIN ATOMIC CHARGES
----------------------
   0 S :    0.410399
   1 C :   -0.195462
   2 C :   -0.064560
   3 C :   -0.058776
   4 C :   -0.188114
   5 H :    0.037836
   6 C :   -0.026137
   7 H :    0.036152
   8 H :    0.020923
   9 C :   -0.042925
  10 H :    0.028860
  11 H :    0.021499
  12 C :   -0.071045
  13 H :    0.023547
  14 H :    0.027108
  15 H :    0.030442
  16 S :    0.426269
  17 C :   -0.186102
  18 C :   -0.073099
  19 C :   -0.063186
  20 C :   -0.209851
  21 H :    0.032317
  22 C :   -0.039240
  23 H :    0.038263
  24 H :    0.023626
  25 C :   -0.047704
  26 H :    0.028240
  27 H :    0.023665
  28 C :   -0.074698
  29 H :    0.029065
  30 H :    0.027708
  31 H :    0.020213
  32 H :    0.025297
  33 H :    0.029470

  Mayer bond orders larger than 0.100000
B(  0-S ,  1-C ) :   1.1576 B(  0-S ,  4-C ) :   1.1369 B(  1-C ,  2-C ) :   1.6059
B(  1-C , 32-H ) :   0.9684 B(  2-C ,  3-C ) :   1.2158 B(  2-C ,  6-C ) :   1.0303
B(  3-C ,  4-C ) :   1.6159 B(  3-C ,  5-H ) :   0.9829 B(  4-C , 20-C ) :   1.0256
B(  6-C ,  7-H ) :   0.9347 B(  6-C ,  8-H ) :   0.9377 B(  6-C ,  9-C ) :   1.0609
B(  9-C , 10-H ) :   0.9542 B(  9-C , 11-H ) :   0.9564 B(  9-C , 12-C ) :   1.0836
B( 12-C , 13-H ) :   0.9724 B( 12-C , 14-H ) :   0.9729 B( 12-C , 15-H ) :   0.9743
B( 16-S , 17-C ) :   1.1706 B( 16-S , 20-C ) :   1.1432 B( 17-C , 18-C ) :   1.5933
B( 17-C , 33-H ) :   0.9685 B( 18-C , 19-C ) :   1.2558 B( 18-C , 21-H ) :   0.9950
B( 19-C , 20-C ) :   1.5706 B( 19-C , 22-C ) :   1.0569 B( 22-C , 23-H ) :   0.9452
B( 22-C , 24-H ) :   0.9287 B( 22-C , 25-C ) :   1.0476 B( 25-C , 26-H ) :   0.9545
B( 25-C , 27-H ) :   0.9582 B( 25-C , 28-C ) :   1.0819 B( 28-C , 29-H ) :   0.9709
B( 28-C , 30-H ) :   0.9700 B( 28-C , 31-H ) :   0.9760

Dispersion correction           -0.014082592
FINAL SINGLE POINT ENERGY     -1339.876795574324

DIPOLE MOMENT
-------------
                                X             Y             Z
Electronic contribution:    -15.13351      24.99105       1.02734
Nuclear contribution   :     15.41715     -25.57652      -1.30180
                        -----------------------------------------
Total Dipole Moment    :      0.28365      -0.58546      -0.27446
                        -----------------------------------------
Magnitude (a.u.)       :      0.70608
Magnitude (Debye)      :      1.79472

Rotational constants in cm-1:     0.017724     0.008733     0.006455
Rotational constants in MHz :   531.353920   261.803626   193.511523

                             ****ORCA TERMINATED NORMALLY****
TOTAL RUN TIME: 0 days 0 hours 0 minutes 21 seconds 464 msec
