                         Program Version 4.2.1 -  RELEASE  -
|  1> ! wB97X-D3 SP def2-SVP
|  2> %pal
|  3> nprocs 24
|  4> end
|  5>
|  6> * xyz 0 1
|  7> S 	 -111.111 	 57.6831 	 -75.0839
|  8> C 	 -110.742 	 58.714 	 -76.4478
|  9> C 	 -111.517 	 59.8827 	 -76.3639
| 10> C 	 -112.215 	 60.0296 	 -75.1325
| 11> C 	 -112.175 	 58.9286 	 -74.3328
| 12> H 	 -112.79 	 60.9991 	 -74.9286
| 13> C 	 -111.523 	 60.9874 	 -77.3748
| 14> H 	 -110.568 	 60.9601 	 -77.8428
| 15> H 	 -111.418 	 61.9805 	 -76.8537
| 16> C 	 -112.643 	 60.9577 	 -78.4064
| 17> H 	 -112.475 	 61.8523 	 -79.0626
| 18> H 	 -112.713 	 60.0575 	 -79.0279
| 19> C 	 -114.05 	 61.1014 	 -77.8007
| 20> H 	 -114.145 	 60.2041 	 -77.2165
| 21> H 	 -114.138 	 62.0288 	 -77.1639
| 22> H 	 -114.877 	 61.0545 	 -78.5108
| 23> S 	 -112.026 	 58.5259 	 -71.6534
| 24> C 	 -113.548 	 58.5428 	 -70.6969
| 25> C 	 -114.66 	 58.8034 	 -71.4965
| 26> C 	 -114.264 	 59.0522 	 -72.843
| 27> C 	 -112.93 	 58.7318 	 -73.1671
| 28> H 	 -115.676 	 58.8957 	 -71.0847
| 29> C 	 -115.361 	 59.4322 	 -73.874
| 30> H 	 -114.772 	 59.5814 	 -74.7756
| 31> H 	 -115.878 	 60.374 	 -73.5668
| 32> C 	 -116.49 	 58.4084 	 -74.1554
| 33> H 	 -117.022 	 58.1648 	 -73.1687
| 34> H 	 -115.912 	 57.5366 	 -74.3985
| 35> C 	 -117.294 	 58.657 	 -75.4043
| 36> H 	 -118.26 	 58.0916 	 -75.4399
| 37> H 	 -116.753 	 58.2792 	 -76.2615
| 38> H 	 -117.671 	 59.6442 	 -75.3881
| 39> H 	 -110.163 	 58.4486 	 -77.3142
| 40> H 	 -113.58 	 58.2811 	 -69.6222
| 41> *
| 42>
| 43>                          ****END OF INPUT****

CARTESIAN COORDINATES (ANGSTROEM)
---------------------------------
  S    -111.111000   57.683100  -75.083900
  C    -110.742000   58.714000  -76.447800
  C    -111.517000   59.882700  -76.363900
  C    -112.215000   60.029600  -75.132500
  C    -112.175000   58.928600  -74.332800
  H    -112.790000   60.999100  -74.928600
  C    -111.523000   60.987400  -77.374800
  H    -110.568000   60.960100  -77.842800
  H    -111.418000   61.980500  -76.853700
  C    -112.643000   60.957700  -78.406400
  H    -112.475000   61.852300  -79.062600
  H    -112.713000   60.057500  -79.027900
  C    -114.050000   61.101400  -77.800700
  H    -114.145000   60.204100  -77.216500
  H    -114.138000   62.028800  -77.163900
  H    -114.877000   61.054500  -78.510800
  S    -112.026000   58.525900  -71.653400
  C    -113.548000   58.542800  -70.696900
  C    -114.660000   58.803400  -71.496500
  C    -114.264000   59.052200  -72.843000
  C    -112.930000   58.731800  -73.167100
  H    -115.676000   58.895700  -71.084700
  C    -115.361000   59.432200  -73.874000
  H    -114.772000   59.581400  -74.775600
  H    -115.878000   60.374000  -73.566800
  C    -116.490000   58.408400  -74.155400
  H    -117.022000   58.164800  -73.168700
  H    -115.912000   57.536600  -74.398500
  C    -117.294000   58.657000  -75.404300
  H    -118.260000   58.091600  -75.439900
  H    -116.753000   58.279200  -76.261500
  H    -117.671000   59.644200  -75.388100
  H    -110.163000   58.448600  -77.314200
  H    -113.580000   58.281100  -69.622200

 Total Charge           Charge          ....    0
 Multiplicity           Mult            ....    1
 Number of Electrons    NEL             ....  134
 Basis Dimension        Dim             ....  322

ORBITAL ENERGIES
----------------

  NO   OCC          E(Eh)            E(eV)
   0   2.0000     -88.968324     -2420.9512
   1   2.0000     -88.964841     -2420.8564
   2   2.0000     -10.329031      -281.0672
   3   2.0000     -10.327579      -281.0277
   4   2.0000     -10.326719      -281.0043
   5   2.0000     -10.318933      -280.7924
   6   2.0000     -10.309713      -280.5416
   7   2.0000     -10.299831      -280.2726
   8   2.0000     -10.299595      -280.2662
   9   2.0000     -10.298027      -280.2236
  10   2.0000     -10.291694      -280.0512
  11   2.0000     -10.291524      -280.0466
  12   2.0000     -10.291161      -280.0367
  13   2.0000     -10.285464      -279.8817
  14   2.0000     -10.278575      -279.6942
  15   2.0000     -10.276868      -279.6478
  16   2.0000      -8.082174      -219.9271
  17   2.0000      -8.078647      -219.8312
  18   2.0000      -6.040793      -164.3783
  19   2.0000      -6.037292      -164.2831
  20   2.0000      -6.036778      -164.2691
  21   2.0000      -6.033316      -164.1749
  22   2.0000      -6.032880      -164.1630
  23   2.0000      -6.029269      -164.0648
  24   2.0000      -1.004225       -27.3264
  25   2.0000      -0.978133       -26.6163
  26   2.0000      -0.913546       -24.8589
  27   2.0000      -0.904134       -24.6027
  28   2.0000      -0.875216       -23.8158
  29   2.0000      -0.850097       -23.1323
  30   2.0000      -0.844042       -22.9675
  31   2.0000      -0.814803       -22.1719
  32   2.0000      -0.782358       -21.2890
  33   2.0000      -0.767366       -20.8811
  34   2.0000      -0.707803       -19.2603
  35   2.0000      -0.697290       -18.9742
  36   2.0000      -0.690080       -18.7780
  37   2.0000      -0.659751       -17.9527
  38   2.0000      -0.637548       -17.3486
  39   2.0000      -0.618178       -16.8215
  40   2.0000      -0.588937       -16.0258
  41   2.0000      -0.574165       -15.6238
  42   2.0000      -0.572522       -15.5791
  43   2.0000      -0.550204       -14.9718
  44   2.0000      -0.545696       -14.8491
  45   2.0000      -0.521449       -14.1893
  46   2.0000      -0.514810       -14.0087
  47   2.0000      -0.507811       -13.8183
  48   2.0000      -0.503526       -13.7016
  49   2.0000      -0.500241       -13.6122
  50   2.0000      -0.493407       -13.4263
  51   2.0000      -0.484219       -13.1763
  52   2.0000      -0.475865       -12.9489
  53   2.0000      -0.459213       -12.4958
  54   2.0000      -0.455082       -12.3834
  55   2.0000      -0.445859       -12.1324
  56   2.0000      -0.443852       -12.0778
  57   2.0000      -0.438353       -11.9282
  58   2.0000      -0.423183       -11.5154
  59   2.0000      -0.419505       -11.4153
  60   2.0000      -0.416323       -11.3287
  61   2.0000      -0.410213       -11.1625
  62   2.0000      -0.406538       -11.0625
  63   2.0000      -0.348088        -9.4720
  64   2.0000      -0.331123        -9.0103
  65   2.0000      -0.327603        -8.9145
  66   2.0000      -0.292761        -7.9664
  67   0.0000       0.021915         0.5963
  68   0.0000       0.063013         1.7147
  69   0.0000       0.106324         2.8932
  70   0.0000       0.119969         3.2645
  71   0.0000       0.121925         3.3178

MULLIKEN ATOMIC CHARGES
-----------------------
   0 S :    0.110618
   1 C :   -0.099781
   2 C :   -0.141544
   3 C :    0.014818
   4 C :   -0.145536
   5 H :    0.051282
   6 C :    0.060788
   7 H :    0.008673
   8 H :    0.033865
   9 C :   -0.057802
  10 H :    0.035369
  11 H :    0.033104
  12 C :   -0.083475
  13 H :    0.043033
  14 H :    0.037730
  15 H :    0.035803
  16 S :    0.089892
  17 C :   -0.105930
  18 C :   -0.025786
  19 C :   -0.054749
  20 C :   -0.133396
  21 H :    0.037131
  22 C :    0.047455
  23 H :    0.010616
  24 H :    0.032784
  25 C :   -0.090012
  26 H :    0.037921
  27 H :    0.020649
  28 C :   -0.023323
  29 H :    0.028996
  30 H :    0.044442
  31 H :    0.022464
  32 H :    0.050266
  33 H :    0.073636
Sum of atomic charges:    0.0000000

LOEWDIN ATOMIC CHARGES
----------------------
   0 S :    0.389653
   1 C :   -0.194442
   2 C :   -0.070636
   3 C :   -0.062320
   4 C :   -0.192375
   5 H :    0.048921
   6 C :   -0.040630
   7 H :    0.027432
   8 H :    0.039292
   9 C :   -0.039966
  10 H :    0.027221
  11 H :    0.027041
  12 C :   -0.071103
  13 H :    0.021312
  14 H :    0.027212
  15 H :    0.025808
  16 S :    0.381254
  17 C :   -0.168142
  18 C :   -0.073499
  19 C :   -0.045255
  20 C :   -0.199251
  21 H :    0.039626
  22 C :   -0.035895
  23 H :    0.024679
  24 H :    0.029944
  25 C :   -0.052082
  26 H :    0.026872
  27 H :    0.023604
  28 C :   -0.065496
  29 H :    0.035477
  30 H :    0.031916
  31 H :    0.019144
  32 H :    0.029861
  33 H :    0.034822

  Mayer bond orders larger than 0.100000
B(  0-S ,  1-C ) :   1.1374 B(  0-S ,  4-C ) :   1.1264 B(  1-C ,  2-C ) :   1.6038
B(  1-C , 32-H ) :   0.9685 B(  2-C ,  3-C ) :   1.2539 B(  2-C ,  6-C ) :   1.0185
B(  3-C ,  4-C ) :   1.5613 B(  3-C ,  5-H ) :   0.9779 B(  4-C , 20-C ) :   1.0641
B(  6-C ,  7-H ) :   0.9345 B(  6-C ,  8-H ) :   0.9448 B(  6-C ,  9-C ) :   1.0679
B(  9-C , 10-H ) :   0.9547 B(  9-C , 11-H ) :   0.9569 B(  9-C , 12-C ) :   1.0768
B( 12-C , 13-H ) :   0.9721 B( 12-C , 14-H ) :   0.9742 B( 12-C , 15-H ) :   0.9714
B( 16-S , 17-C ) :   1.1566 B( 16-S , 20-C ) :   1.1244 B( 17-C , 18-C ) :   1.6009
B( 17-C , 20-C ) :   0.1092 B( 17-C , 33-H ) :   0.9620 B( 18-C , 19-C ) :   1.2369
B( 18-C , 21-H ) :   0.9871 B( 19-C , 20-C ) :   1.5795 B( 19-C , 22-C ) :   1.0477
B( 22-C , 23-H ) :   0.9358 B( 22-C , 24-H ) :   0.9291 B( 22-C , 25-C ) :   1.0623
B( 25-C , 26-H ) :   0.9534 B( 25-C , 27-H ) :   0.9553 B( 25-C , 28-C ) :   1.0858
B( 28-C , 29-H ) :   0.9682 B( 28-C , 30-H ) :   0.9745 B( 28-C , 31-H ) :   0.9748

Dispersion correction           -0.015229216
FINAL SINGLE POINT ENERGY     -1339.865730054643

DIPOLE MOMENT
-------------
                                X             Y             Z
Electronic contribution:     21.34561     -11.08530      18.89461
Nuclear contribution   :    -21.86486      11.44645     -19.26589
                        -----------------------------------------
Total Dipole Moment    :     -0.51925       0.36116      -0.37128
                        -----------------------------------------
Magnitude (a.u.)       :      0.73342
Magnitude (Debye)      :      1.86420

Rotational constants in cm-1:     0.016370     0.010529     0.007316
Rotational constants in MHz :   490.754223   315.648054   219.331419

                             ****ORCA TERMINATED NORMALLY****
TOTAL RUN TIME: 0 days 0 hours 0 minutes 21 seconds 384 msec
