                         Program Version 4.2.1 -  RELEASE  -
|  1> ! wB97X-D3 SP def2-SVP
|  2> %pal
|  3> nprocs 24
|  4> end
|  5>
|  6> * xyz 0 1
|  7> S 	 -43.8736 	 15.5466 	 -100.402
|  8> C 	 -45.5451 	 15.6777 	 -99.9315
|  9> C 	 -46.1518 	 16.7553 	 -100.547
| 10> C 	 -45.2877 	 17.4718 	 -101.415
| 11> C 	 -43.9344 	 17.0239 	 -101.357
| 12> H 	 -45.6022 	 18.3485 	 -102.031
| 13> C 	 -47.6521 	 17.0068 	 -100.353
| 14> H 	 -48.0091 	 16.2862 	 -99.6273
| 15> H 	 -48.053 	 16.6067 	 -101.263
| 16> C 	 -48.0559 	 18.4145 	 -99.9448
| 17> H 	 -47.4471 	 19.089 	 -100.432
| 18> H 	 -49.0383 	 18.633 	 -100.291
| 19> C 	 -47.9512 	 18.7157 	 -98.3881
| 20> H 	 -48.7608 	 18.2031 	 -97.7999
| 21> H 	 -47.0598 	 18.4003 	 -98.0033
| 22> H 	 -48.042 	 19.796 	 -98.3465
| 23> S 	 -41.3578 	 18.0903 	 -101.138
| 24> C 	 -40.4209 	 18.3279 	 -102.606
| 25> C 	 -41.2961 	 18.152 	 -103.662
| 26> C 	 -42.5716 	 17.709 	 -103.443
| 27> C 	 -42.7814 	 17.5636 	 -102.066
| 28> H 	 -40.9285 	 18.3773 	 -104.632
| 29> C 	 -43.5913 	 17.6428 	 -104.533
| 30> H 	 -43.7414 	 18.6499 	 -105.001
| 31> H 	 -44.5846 	 17.4927 	 -104.013
| 32> C 	 -43.3228 	 16.6448 	 -105.782
| 33> H 	 -42.4459 	 16.8339 	 -106.36
| 34> H 	 -44.0644 	 17.0002 	 -106.563
| 35> C 	 -43.5599 	 15.1398 	 -105.497
| 36> H 	 -43.9524 	 14.6358 	 -106.421
| 37> H 	 -44.2854 	 15.0104 	 -104.672
| 38> H 	 -42.5964 	 14.7942 	 -105.179
| 39> H 	 -46.1123 	 14.9589 	 -99.3231
| 40> H 	 -39.4777 	 18.8412 	 -102.637
| 41> *
| 42>
| 43>                          ****END OF INPUT****

CARTESIAN COORDINATES (ANGSTROEM)
---------------------------------
  S    -43.873600   15.546600  -100.402000
  C    -45.545100   15.677700  -99.931500
  C    -46.151800   16.755300  -100.547000
  C    -45.287700   17.471800  -101.415000
  C    -43.934400   17.023900  -101.357000
  H    -45.602200   18.348500  -102.031000
  C    -47.652100   17.006800  -100.353000
  H    -48.009100   16.286200  -99.627300
  H    -48.053000   16.606700  -101.263000
  C    -48.055900   18.414500  -99.944800
  H    -47.447100   19.089000  -100.432000
  H    -49.038300   18.633000  -100.291000
  C    -47.951200   18.715700  -98.388100
  H    -48.760800   18.203100  -97.799900
  H    -47.059800   18.400300  -98.003300
  H    -48.042000   19.796000  -98.346500
  S    -41.357800   18.090300  -101.138000
  C    -40.420900   18.327900  -102.606000
  C    -41.296100   18.152000  -103.662000
  C    -42.571600   17.709000  -103.443000
  C    -42.781400   17.563600  -102.066000
  H    -40.928500   18.377300  -104.632000
  C    -43.591300   17.642800  -104.533000
  H    -43.741400   18.649900  -105.001000
  H    -44.584600   17.492700  -104.013000
  C    -43.322800   16.644800  -105.782000
  H    -42.445900   16.833900  -106.360000
  H    -44.064400   17.000200  -106.563000
  C    -43.559900   15.139800  -105.497000
  H    -43.952400   14.635800  -106.421000
  H    -44.285400   15.010400  -104.672000
  H    -42.596400   14.794200  -105.179000
  H    -46.112300   14.958900  -99.323100
  H    -39.477700   18.841200  -102.637000

 Total Charge           Charge          ....    0
 Multiplicity           Mult            ....    1
 Number of Electrons    NEL             ....  134
 Basis Dimension        Dim             ....  322

ORBITAL ENERGIES
----------------

  NO   OCC          E(Eh)            E(eV)
   0   2.0000     -88.967403     -2420.9261
   1   2.0000     -88.965693     -2420.8796
   2   2.0000     -10.334815      -281.2246
   3   2.0000     -10.330214      -281.0994
   4   2.0000     -10.316680      -280.7311
   5   2.0000     -10.312777      -280.6249
   6   2.0000     -10.304058      -280.3877
   7   2.0000     -10.302618      -280.3485
   8   2.0000     -10.299011      -280.2503
   9   2.0000     -10.298328      -280.2317
  10   2.0000     -10.294147      -280.1180
  11   2.0000     -10.288294      -279.9587
  12   2.0000     -10.284353      -279.8515
  13   2.0000     -10.280498      -279.7466
  14   2.0000     -10.278880      -279.7025
  15   2.0000     -10.275981      -279.6237
  16   2.0000      -8.081778      -219.9164
  17   2.0000      -8.079836      -219.8635
  18   2.0000      -6.040226      -164.3629
  19   2.0000      -6.038289      -164.3102
  20   2.0000      -6.036224      -164.2540
  21   2.0000      -6.034363      -164.2034
  22   2.0000      -6.032717      -164.1586
  23   2.0000      -6.030745      -164.1049
  24   2.0000      -1.004592       -27.3363
  25   2.0000      -0.984371       -26.7861
  26   2.0000      -0.909728       -24.7550
  27   2.0000      -0.897846       -24.4316
  28   2.0000      -0.866856       -23.5884
  29   2.0000      -0.850955       -23.1557
  30   2.0000      -0.843039       -22.9403
  31   2.0000      -0.811183       -22.0734
  32   2.0000      -0.782953       -21.3052
  33   2.0000      -0.771651       -20.9977
  34   2.0000      -0.716544       -19.4982
  35   2.0000      -0.700497       -19.0615
  36   2.0000      -0.695724       -18.9316
  37   2.0000      -0.656836       -17.8734
  38   2.0000      -0.635775       -17.3003
  39   2.0000      -0.619075       -16.8459
  40   2.0000      -0.597213       -16.2510
  41   2.0000      -0.566000       -15.4017
  42   2.0000      -0.556119       -15.1328
  43   2.0000      -0.543033       -14.7767
  44   2.0000      -0.534241       -14.5374
  45   2.0000      -0.532375       -14.4867
  46   2.0000      -0.524301       -14.2669
  47   2.0000      -0.513753       -13.9799
  48   2.0000      -0.498362       -13.5611
  49   2.0000      -0.491992       -13.3878
  50   2.0000      -0.487284       -13.2597
  51   2.0000      -0.485305       -13.2058
  52   2.0000      -0.469548       -12.7770
  53   2.0000      -0.466990       -12.7075
  54   2.0000      -0.460046       -12.5185
  55   2.0000      -0.449496       -12.2314
  56   2.0000      -0.438177       -11.9234
  57   2.0000      -0.436908       -11.8889
  58   2.0000      -0.429342       -11.6830
  59   2.0000      -0.426323       -11.6008
  60   2.0000      -0.423809       -11.5324
  61   2.0000      -0.412528       -11.2255
  62   2.0000      -0.409634       -11.1467
  63   2.0000      -0.339240        -9.2312
  64   2.0000      -0.333267        -9.0686
  65   2.0000      -0.328517        -8.9394
  66   2.0000      -0.292952        -7.9716
  67   0.0000       0.027369         0.7448
  68   0.0000       0.061525         1.6742
  69   0.0000       0.112824         3.0701
  70   0.0000       0.121575         3.3082
  71   0.0000       0.135612         3.6902

MULLIKEN ATOMIC CHARGES
-----------------------
   0 S :    0.125881
   1 C :   -0.131826
   2 C :   -0.125084
   3 C :    0.020488
   4 C :   -0.167995
   5 H :    0.038443
   6 C :    0.088993
   7 H :    0.000936
   8 H :    0.031126
   9 C :   -0.026580
  10 H :    0.004111
  11 H :    0.016716
  12 C :   -0.035418
  13 H :    0.038180
  14 H :    0.021264
  15 H :    0.035646
  16 S :    0.107883
  17 C :   -0.094000
  18 C :   -0.032665
  19 C :    0.048769
  20 C :   -0.202390
  21 H :   -0.002449
  22 C :    0.013409
  23 H :    0.044657
  24 H :    0.025094
  25 C :   -0.098710
  26 H :    0.024989
  27 H :    0.021801
  28 C :   -0.041570
  29 H :    0.047871
  30 H :    0.042866
  31 H :    0.040967
  32 H :    0.055496
  33 H :    0.063101
Sum of atomic charges:   -0.0000000

LOEWDIN ATOMIC CHARGES
----------------------
   0 S :    0.416482
   1 C :   -0.210943
   2 C :   -0.068301
   3 C :   -0.071436
   4 C :   -0.196075
   5 H :    0.036735
   6 C :   -0.029186
   7 H :    0.025898
   8 H :    0.032351
   9 C :   -0.029525
  10 H :    0.011953
  11 H :    0.021469
  12 C :   -0.049213
  13 H :    0.030092
  14 H :    0.011178
  15 H :    0.028554
  16 S :    0.399735
  17 C :   -0.185846
  18 C :   -0.065551
  19 C :   -0.065433
  20 C :   -0.193270
  21 H :    0.022203
  22 C :   -0.035728
  23 H :    0.040506
  24 H :    0.036335
  25 C :   -0.045647
  26 H :    0.017916
  27 H :    0.026741
  28 C :   -0.066914
  29 H :    0.034206
  30 H :    0.030584
  31 H :    0.025322
  32 H :    0.033878
  33 H :    0.030929

  Mayer bond orders larger than 0.100000
B(  0-S ,  1-C ) :   1.1428 B(  0-S ,  4-C ) :   1.1727 B(  1-C ,  2-C ) :   1.5939
B(  1-C ,  4-C ) :   0.1042 B(  1-C , 32-H ) :   0.9634 B(  2-C ,  3-C ) :   1.2805
B(  2-C ,  6-C ) :   1.0121 B(  3-C ,  4-C ) :   1.5268 B(  3-C ,  5-H ) :   0.9779
B(  4-C , 20-C ) :   1.0469 B(  6-C ,  7-H ) :   0.9409 B(  6-C ,  8-H ) :   0.9359
B(  6-C ,  9-C ) :   1.0605 B(  9-C , 10-H ) :   0.9629 B(  9-C , 11-H ) :   0.9532
B(  9-C , 12-C ) :   1.0698 B( 12-C , 13-H ) :   0.9774 B( 12-C , 14-H ) :   0.9812
B( 12-C , 15-H ) :   0.9769 B( 16-S , 17-C ) :   1.1510 B( 16-S , 20-C ) :   1.1700
B( 17-C , 18-C ) :   1.5717 B( 17-C , 20-C ) :   0.1150 B( 17-C , 33-H ) :   0.9706
B( 18-C , 19-C ) :   1.2858 B( 18-C , 21-H ) :   0.9890 B( 19-C , 20-C ) :   1.5193
B( 19-C , 22-C ) :   1.0430 B( 22-C , 23-H ) :   0.9404 B( 22-C , 24-H ) :   0.9326
B( 22-C , 25-C ) :   1.0603 B( 25-C , 26-H ) :   0.9617 B( 25-C , 27-H ) :   0.9588
B( 25-C , 28-C ) :   1.0512 B( 28-C , 29-H ) :   0.9768 B( 28-C , 30-H ) :   0.9787
B( 28-C , 31-H ) :   0.9799

Dispersion correction           -0.014157504
FINAL SINGLE POINT ENERGY     -1339.863615305599

DIPOLE MOMENT
-------------
                                X             Y             Z
Electronic contribution:     19.94114      -2.28782       9.38683
Nuclear contribution   :    -20.42828       2.55125      -9.88079
                        -----------------------------------------
Total Dipole Moment    :     -0.48714       0.26342      -0.49396
                        -----------------------------------------
Magnitude (a.u.)       :      0.74208
Magnitude (Debye)      :      1.88623

Rotational constants in cm-1:     0.019205     0.007995     0.007010
Rotational constants in MHz :   575.745795   239.692243   210.164244

                             ****ORCA TERMINATED NORMALLY****
TOTAL RUN TIME: 0 days 0 hours 0 minutes 21 seconds 291 msec
