                         Program Version 4.2.1 -  RELEASE  -
|  1> ! wB97X-D3 SP def2-SVP
|  2> %pal
|  3> nprocs 24
|  4> end
|  5>
|  6> * xyz 0 1
|  7> S 	 -76.3183 	 -4.97914 	 3.61215
|  8> C 	 -74.5998 	 -4.99227 	 3.34297
|  9> C 	 -74.0881 	 -6.27426 	 3.29346
| 10> C 	 -75.1861 	 -7.18956 	 3.25562
| 11> C 	 -76.45 	 -6.67258 	 3.36004
| 12> H 	 -75.0641 	 -8.26588 	 3.23152
| 13> C 	 -72.6942 	 -6.70882 	 3.19608
| 14> H 	 -72.3769 	 -6.52809 	 2.18002
| 15> H 	 -72.5939 	 -7.80917 	 3.42697
| 16> C 	 -71.7971 	 -6.0411 	 4.1926
| 17> H 	 -70.7483 	 -6.35218 	 4.10987
| 18> H 	 -71.827 	 -4.99758 	 3.87197
| 19> C 	 -72.2114 	 -6.26583 	 5.66851
| 20> H 	 -73.1899 	 -5.98046 	 5.94783
| 21> H 	 -72.1297 	 -7.32603 	 5.87803
| 22> H 	 -71.4606 	 -5.81827 	 6.28225
| 23> S 	 -78.9379 	 -6.73023 	 2.28876
| 24> C 	 -79.9409 	 -8.13525 	 2.561
| 25> C 	 -79.4232 	 -8.92015 	 3.50914
| 26> C 	 -78.0983 	 -8.55238 	 3.90893
| 27> C 	 -77.6713 	 -7.38267 	 3.24746
| 28> H 	 -79.9456 	 -9.87924 	 3.80521
| 29> C 	 -77.3529 	 -9.35308 	 4.92177
| 30> H 	 -77.652 	 -9.12935 	 5.95971
| 31> H 	 -76.3364 	 -8.97189 	 4.88435
| 32> C 	 -77.2839 	 -10.8552 	 4.62082
| 33> H 	 -76.8743 	 -10.9935 	 3.57541
| 34> H 	 -78.281 	 -11.2449 	 4.51771
| 35> C 	 -76.5836 	 -11.758 	 5.65432
| 36> H 	 -77.1501 	 -11.7982 	 6.61818
| 37> H 	 -75.5834 	 -11.418 	 5.97146
| 38> H 	 -76.4973 	 -12.7467 	 5.25005
| 39> H 	 -73.9686 	 -4.15537 	 3.26771
| 40> H 	 -80.8871 	 -8.31288 	 2.07279
| 41> *
| 42>
| 43>                          ****END OF INPUT****

CARTESIAN COORDINATES (ANGSTROEM)
---------------------------------
  S    -76.318300   -4.979140    3.612150
  C    -74.599800   -4.992270    3.342970
  C    -74.088100   -6.274260    3.293460
  C    -75.186100   -7.189560    3.255620
  C    -76.450000   -6.672580    3.360040
  H    -75.064100   -8.265880    3.231520
  C    -72.694200   -6.708820    3.196080
  H    -72.376900   -6.528090    2.180020
  H    -72.593900   -7.809170    3.426970
  C    -71.797100   -6.041100    4.192600
  H    -70.748300   -6.352180    4.109870
  H    -71.827000   -4.997580    3.871970
  C    -72.211400   -6.265830    5.668510
  H    -73.189900   -5.980460    5.947830
  H    -72.129700   -7.326030    5.878030
  H    -71.460600   -5.818270    6.282250
  S    -78.937900   -6.730230    2.288760
  C    -79.940900   -8.135250    2.561000
  C    -79.423200   -8.920150    3.509140
  C    -78.098300   -8.552380    3.908930
  C    -77.671300   -7.382670    3.247460
  H    -79.945600   -9.879240    3.805210
  C    -77.352900   -9.353080    4.921770
  H    -77.652000   -9.129350    5.959710
  H    -76.336400   -8.971890    4.884350
  C    -77.283900  -10.855200    4.620820
  H    -76.874300  -10.993500    3.575410
  H    -78.281000  -11.244900    4.517710
  C    -76.583600  -11.758000    5.654320
  H    -77.150100  -11.798200    6.618180
  H    -75.583400  -11.418000    5.971460
  H    -76.497300  -12.746700    5.250050
  H    -73.968600   -4.155370    3.267710
  H    -80.887100   -8.312880    2.072790

 Total Charge           Charge          ....    0
 Multiplicity           Mult            ....    1
 Number of Electrons    NEL             ....  134
 Basis Dimension        Dim             ....  322

ORBITAL ENERGIES
----------------

  NO   OCC          E(Eh)            E(eV)
   0   2.0000     -88.965584     -2420.8766
   1   2.0000     -88.964475     -2420.8465
   2   2.0000     -10.324052      -280.9317
   3   2.0000     -10.320753      -280.8420
   4   2.0000     -10.312414      -280.6150
   5   2.0000     -10.307713      -280.4871
   6   2.0000     -10.302747      -280.3520
   7   2.0000     -10.296049      -280.1697
   8   2.0000     -10.292541      -280.0743
   9   2.0000     -10.290257      -280.0121
  10   2.0000     -10.289149      -279.9820
  11   2.0000     -10.288511      -279.9646
  12   2.0000     -10.286668      -279.9145
  13   2.0000     -10.286113      -279.8994
  14   2.0000     -10.282806      -279.8094
  15   2.0000     -10.270709      -279.4802
  16   2.0000      -8.080961      -219.8941
  17   2.0000      -8.080065      -219.8697
  18   2.0000      -6.039462      -164.3421
  19   2.0000      -6.038527      -164.3167
  20   2.0000      -6.035421      -164.2322
  21   2.0000      -6.034500      -164.2071
  22   2.0000      -6.031650      -164.1295
  23   2.0000      -6.030766      -164.1055
  24   2.0000      -1.015601       -27.6359
  25   2.0000      -0.991498       -26.9800
  26   2.0000      -0.924003       -25.1434
  27   2.0000      -0.909540       -24.7498
  28   2.0000      -0.875689       -23.8287
  29   2.0000      -0.851666       -23.1750
  30   2.0000      -0.845624       -23.0106
  31   2.0000      -0.816971       -22.2309
  32   2.0000      -0.788330       -21.4515
  33   2.0000      -0.774046       -21.0629
  34   2.0000      -0.711064       -19.3490
  35   2.0000      -0.706371       -19.2213
  36   2.0000      -0.698828       -19.0161
  37   2.0000      -0.655752       -17.8439
  38   2.0000      -0.636465       -17.3191
  39   2.0000      -0.615265       -16.7422
  40   2.0000      -0.599163       -16.3041
  41   2.0000      -0.581709       -15.8291
  42   2.0000      -0.563710       -15.3393
  43   2.0000      -0.559099       -15.2139
  44   2.0000      -0.546882       -14.8814
  45   2.0000      -0.531374       -14.4594
  46   2.0000      -0.513719       -13.9790
  47   2.0000      -0.512012       -13.9326
  48   2.0000      -0.503345       -13.6967
  49   2.0000      -0.499451       -13.5908
  50   2.0000      -0.496997       -13.5240
  51   2.0000      -0.477363       -12.9897
  52   2.0000      -0.476028       -12.9534
  53   2.0000      -0.468196       -12.7403
  54   2.0000      -0.457311       -12.4441
  55   2.0000      -0.451352       -12.2819
  56   2.0000      -0.445919       -12.1341
  57   2.0000      -0.438884       -11.9427
  58   2.0000      -0.435864       -11.8605
  59   2.0000      -0.428123       -11.6498
  60   2.0000      -0.424111       -11.5406
  61   2.0000      -0.410707       -11.1759
  62   2.0000      -0.409544       -11.1443
  63   2.0000      -0.352415        -9.5897
  64   2.0000      -0.330581        -8.9956
  65   2.0000      -0.328378        -8.9356
  66   2.0000      -0.288895        -7.8612
  67   0.0000       0.029686         0.8078
  68   0.0000       0.075971         2.0673
  69   0.0000       0.111163         3.0249
  70   0.0000       0.125894         3.4257
  71   0.0000       0.129857         3.5336

MULLIKEN ATOMIC CHARGES
-----------------------
   0 S :    0.123885
   1 C :   -0.114588
   2 C :   -0.088866
   3 C :    0.009409
   4 C :   -0.155663
   5 H :    0.005173
   6 C :    0.077169
   7 H :    0.044000
   8 H :    0.026078
   9 C :   -0.095295
  10 H :    0.029303
  11 H :    0.018242
  12 C :   -0.014532
  13 H :    0.040522
  14 H :    0.014658
  15 H :    0.027479
  16 S :    0.111842
  17 C :   -0.089089
  18 C :   -0.042178
  19 C :   -0.055816
  20 C :   -0.143583
  21 H :    0.042709
  22 C :    0.111337
  23 H :    0.037869
  24 H :   -0.002300
  25 C :   -0.115347
  26 H :    0.035783
  27 H :    0.021298
  28 C :   -0.034325
  29 H :    0.034170
  30 H :    0.026741
  31 H :    0.036297
  32 H :    0.024401
  33 H :    0.053217
Sum of atomic charges:   -0.0000000

LOEWDIN ATOMIC CHARGES
----------------------
   0 S :    0.423134
   1 C :   -0.195065
   2 C :   -0.061090
   3 C :   -0.064676
   4 C :   -0.209257
   5 H :    0.025413
   6 C :   -0.037064
   7 H :    0.036990
   8 H :    0.034154
   9 C :   -0.040520
  10 H :    0.026221
  11 H :    0.017908
  12 C :   -0.055465
  13 H :    0.021266
  14 H :    0.024378
  15 H :    0.025238
  16 S :    0.419565
  17 C :   -0.181818
  18 C :   -0.077861
  19 C :   -0.052863
  20 C :   -0.208589
  21 H :    0.042389
  22 C :   -0.038344
  23 H :    0.036119
  24 H :    0.027115
  25 C :   -0.045203
  26 H :    0.030976
  27 H :    0.016818
  28 C :   -0.066222
  29 H :    0.030110
  30 H :    0.023417
  31 H :    0.026104
  32 H :    0.016340
  33 H :    0.030385

  Mayer bond orders larger than 0.100000
B(  0-S ,  1-C ) :   1.1423 B(  0-S ,  4-C ) :   1.1473 B(  1-C ,  2-C ) :   1.5790
B(  1-C , 32-H ) :   0.9746 B(  2-C ,  3-C ) :   1.2633 B(  2-C ,  6-C ) :   1.0179
B(  3-C ,  4-C ) :   1.5631 B(  3-C ,  5-H ) :   0.9921 B(  4-C , 20-C ) :   1.0702
B(  6-C ,  7-H ) :   0.9309 B(  6-C ,  8-H ) :   0.9441 B(  6-C ,  9-C ) :   1.0784
B(  9-C , 10-H ) :   0.9558 B(  9-C , 11-H ) :   0.9528 B(  9-C , 12-C ) :   1.0744
B( 12-C , 13-H ) :   0.9752 B( 12-C , 14-H ) :   0.9719 B( 12-C , 15-H ) :   0.9738
B( 16-S , 17-C ) :   1.1459 B( 16-S , 20-C ) :   1.1481 B( 17-C , 18-C ) :   1.6303
B( 17-C , 33-H ) :   0.9677 B( 18-C , 19-C ) :   1.2389 B( 18-C , 21-H ) :   0.9759
B( 19-C , 20-C ) :   1.5619 B( 19-C , 22-C ) :   1.0562 B( 22-C , 23-H ) :   0.9264
B( 22-C , 24-H ) :   0.9187 B( 22-C , 25-C ) :   1.0542 B( 25-C , 26-H ) :   0.9548
B( 25-C , 27-H ) :   0.9540 B( 25-C , 28-C ) :   1.0844 B( 28-C , 29-H ) :   0.9725
B( 28-C , 30-H ) :   0.9758 B( 28-C , 31-H ) :   0.9737

Dispersion correction           -0.014180625
FINAL SINGLE POINT ENERGY     -1339.887125821440

DIPOLE MOMENT
-------------
                                X             Y             Z
Electronic contribution:    -19.69213      17.88073     -13.11547
Nuclear contribution   :     20.04431     -18.43512      13.31062
                        -----------------------------------------
Total Dipole Moment    :      0.35218      -0.55439       0.19515
                        -----------------------------------------
Magnitude (a.u.)       :      0.68518
Magnitude (Debye)      :      1.74158

Rotational constants in cm-1:     0.017934     0.009240     0.006536
Rotational constants in MHz :   537.638378   277.016743   195.933353

                             ****ORCA TERMINATED NORMALLY****
TOTAL RUN TIME: 0 days 0 hours 0 minutes 21 seconds 945 msec
