                         Program Version 4.2.1 -  RELEASE  -
|  1> ! wB97X-D3 SP def2-SVP
|  2> %pal
|  3> nprocs 24
|  4> end
|  5>
|  6> * xyz 0 1
|  7> S 	 -84.7678 	 -43.3451 	 -83.6198
|  8> C 	 -86.2629 	 -42.4674 	 -83.7369
|  9> C 	 -87.4051 	 -43.2971 	 -83.6615
| 10> C 	 -86.9626 	 -44.63 	 -83.5406
| 11> C 	 -85.5977 	 -44.8783 	 -83.6682
| 12> H 	 -87.6893 	 -45.3523 	 -83.3626
| 13> C 	 -88.8968 	 -42.8977 	 -83.5203
| 14> H 	 -89.449 	 -43.5641 	 -84.1995
| 15> H 	 -88.9955 	 -41.9371 	 -84.0617
| 16> C 	 -89.4945 	 -42.8623 	 -82.0855
| 17> H 	 -89.1134 	 -43.8048 	 -81.6448
| 18> H 	 -89.0924 	 -42.0961 	 -81.4554
| 19> C 	 -90.9965 	 -42.9438 	 -81.8749
| 20> H 	 -91.4735 	 -41.9994 	 -82.0512
| 21> H 	 -91.4585 	 -43.686 	 -82.5529
| 22> H 	 -91.2972 	 -43.2951 	 -80.8963
| 23> S 	 -84.1127 	 -46.9445 	 -84.8257
| 24> C 	 -83.3957 	 -48.2241 	 -83.8136
| 25> C 	 -84.0105 	 -48.1008 	 -82.5773
| 26> C 	 -84.8252 	 -46.9396 	 -82.3221
| 27> C 	 -84.9611 	 -46.1963 	 -83.4907
| 28> H 	 -83.8482 	 -48.7851 	 -81.7708
| 29> C 	 -85.4224 	 -46.4711 	 -80.9477
| 30> H 	 -86.5035 	 -46.6137 	 -81.0601
| 31> H 	 -85.1937 	 -45.3727 	 -80.8766
| 32> C 	 -84.9748 	 -47.2398 	 -79.6681
| 33> H 	 -83.9201 	 -47.177 	 -79.4567
| 34> H 	 -85.2023 	 -48.3172 	 -79.8307
| 35> C 	 -85.5831 	 -46.8421 	 -78.3559
| 36> H 	 -86.7277 	 -46.8374 	 -78.3295
| 37> H 	 -85.3229 	 -45.7965 	 -78.3579
| 38> H 	 -85.2507 	 -47.4355 	 -77.5477
| 39> H 	 -86.4156 	 -41.3543 	 -83.7468
| 40> H 	 -82.6954 	 -48.9672 	 -84.045
| 41> *
| 42>
| 43>                          ****END OF INPUT****

CARTESIAN COORDINATES (ANGSTROEM)
---------------------------------
  S    -84.767800  -43.345100  -83.619800
  C    -86.262900  -42.467400  -83.736900
  C    -87.405100  -43.297100  -83.661500
  C    -86.962600  -44.630000  -83.540600
  C    -85.597700  -44.878300  -83.668200
  H    -87.689300  -45.352300  -83.362600
  C    -88.896800  -42.897700  -83.520300
  H    -89.449000  -43.564100  -84.199500
  H    -88.995500  -41.937100  -84.061700
  C    -89.494500  -42.862300  -82.085500
  H    -89.113400  -43.804800  -81.644800
  H    -89.092400  -42.096100  -81.455400
  C    -90.996500  -42.943800  -81.874900
  H    -91.473500  -41.999400  -82.051200
  H    -91.458500  -43.686000  -82.552900
  H    -91.297200  -43.295100  -80.896300
  S    -84.112700  -46.944500  -84.825700
  C    -83.395700  -48.224100  -83.813600
  C    -84.010500  -48.100800  -82.577300
  C    -84.825200  -46.939600  -82.322100
  C    -84.961100  -46.196300  -83.490700
  H    -83.848200  -48.785100  -81.770800
  C    -85.422400  -46.471100  -80.947700
  H    -86.503500  -46.613700  -81.060100
  H    -85.193700  -45.372700  -80.876600
  C    -84.974800  -47.239800  -79.668100
  H    -83.920100  -47.177000  -79.456700
  H    -85.202300  -48.317200  -79.830700
  C    -85.583100  -46.842100  -78.355900
  H    -86.727700  -46.837400  -78.329500
  H    -85.322900  -45.796500  -78.357900
  H    -85.250700  -47.435500  -77.547700
  H    -86.415600  -41.354300  -83.746800
  H    -82.695400  -48.967200  -84.045000

 Total Charge           Charge          ....    0
 Multiplicity           Mult            ....    1
 Number of Electrons    NEL             ....  134
 Basis Dimension        Dim             ....  322

ORBITAL ENERGIES
----------------

  NO   OCC          E(Eh)            E(eV)
   0   2.0000     -88.973264     -2421.0856
   1   2.0000     -88.963408     -2420.8174
   2   2.0000     -10.328784      -281.0605
   3   2.0000     -10.325830      -280.9801
   4   2.0000     -10.322153      -280.8801
   5   2.0000     -10.318742      -280.7873
   6   2.0000     -10.306914      -280.4654
   7   2.0000     -10.304561      -280.4014
   8   2.0000     -10.304038      -280.3871
   9   2.0000     -10.302765      -280.3525
  10   2.0000     -10.293036      -280.0877
  11   2.0000     -10.291657      -280.0502
  12   2.0000     -10.288323      -279.9595
  13   2.0000     -10.288060      -279.9523
  14   2.0000     -10.280145      -279.7370
  15   2.0000     -10.278805      -279.7005
  16   2.0000      -8.087574      -220.0741
  17   2.0000      -8.077478      -219.7993
  18   2.0000      -6.046078      -164.5221
  19   2.0000      -6.042103      -164.4140
  20   2.0000      -6.038384      -164.3128
  21   2.0000      -6.036119      -164.2512
  22   2.0000      -6.031932      -164.1372
  23   2.0000      -6.028261      -164.0373
  24   2.0000      -1.003556       -27.3082
  25   2.0000      -0.981149       -26.6984
  26   2.0000      -0.907855       -24.7040
  27   2.0000      -0.906565       -24.6689
  28   2.0000      -0.867496       -23.6058
  29   2.0000      -0.854404       -23.2495
  30   2.0000      -0.847027       -23.0488
  31   2.0000      -0.812365       -22.1056
  32   2.0000      -0.784077       -21.3358
  33   2.0000      -0.772176       -21.0120
  34   2.0000      -0.706102       -19.2140
  35   2.0000      -0.700149       -19.0520
  36   2.0000      -0.697026       -18.9671
  37   2.0000      -0.651853       -17.7378
  38   2.0000      -0.636968       -17.3328
  39   2.0000      -0.622689       -16.9442
  40   2.0000      -0.594438       -16.1755
  41   2.0000      -0.571385       -15.5482
  42   2.0000      -0.568044       -15.4573
  43   2.0000      -0.559916       -15.2361
  44   2.0000      -0.541278       -14.7289
  45   2.0000      -0.526837       -14.3360
  46   2.0000      -0.520619       -14.1668
  47   2.0000      -0.506009       -13.7692
  48   2.0000      -0.502601       -13.6765
  49   2.0000      -0.500151       -13.6098
  50   2.0000      -0.492782       -13.4093
  51   2.0000      -0.474527       -12.9125
  52   2.0000      -0.471366       -12.8265
  53   2.0000      -0.466940       -12.7061
  54   2.0000      -0.455970       -12.4076
  55   2.0000      -0.452326       -12.3084
  56   2.0000      -0.448595       -12.2069
  57   2.0000      -0.437806       -11.9133
  58   2.0000      -0.430803       -11.7228
  59   2.0000      -0.426615       -11.6088
  60   2.0000      -0.419268       -11.4089
  61   2.0000      -0.412430       -11.2228
  62   2.0000      -0.409632       -11.1467
  63   2.0000      -0.336114        -9.1461
  64   2.0000      -0.328872        -8.9491
  65   2.0000      -0.324454        -8.8289
  66   2.0000      -0.305453        -8.3118
  67   0.0000       0.034820         0.9475
  68   0.0000       0.057209         1.5567
  69   0.0000       0.114059         3.1037
  70   0.0000       0.124835         3.3969
  71   0.0000       0.130610         3.5541

MULLIKEN ATOMIC CHARGES
-----------------------
   0 S :    0.138950
   1 C :   -0.134139
   2 C :   -0.119771
   3 C :    0.048511
   4 C :   -0.146301
   5 H :   -0.017230
   6 C :    0.072304
   7 H :    0.027370
   8 H :    0.021464
   9 C :   -0.056618
  10 H :    0.018828
  11 H :    0.029274
  12 C :   -0.035353
  13 H :    0.030772
  14 H :    0.024346
  15 H :    0.031962
  16 S :    0.104916
  17 C :   -0.064360
  18 C :   -0.034653
  19 C :   -0.042462
  20 C :   -0.192317
  21 H :    0.007219
  22 C :    0.075836
  23 H :    0.041027
  24 H :    0.050977
  25 C :   -0.114788
  26 H :    0.034173
  27 H :    0.031110
  28 C :   -0.026618
  29 H :    0.028130
  30 H :    0.023852
  31 H :    0.039009
  32 H :    0.062069
  33 H :    0.042508
Sum of atomic charges:   -0.0000000

LOEWDIN ATOMIC CHARGES
----------------------
   0 S :    0.431010
   1 C :   -0.207088
   2 C :   -0.069932
   3 C :   -0.047742
   4 C :   -0.212040
   5 H :    0.017331
   6 C :   -0.032343
   7 H :    0.033401
   8 H :    0.030193
   9 C :   -0.043407
  10 H :    0.027683
  11 H :    0.023897
  12 C :   -0.063864
  13 H :    0.020678
  14 H :    0.027423
  15 H :    0.028176
  16 S :    0.397616
  17 C :   -0.172090
  18 C :   -0.070538
  19 C :   -0.054097
  20 C :   -0.207362
  21 H :    0.022435
  22 C :   -0.028871
  23 H :    0.036014
  24 H :    0.038759
  25 C :   -0.050812
  26 H :    0.024557
  27 H :    0.022065
  28 C :   -0.061893
  29 H :    0.027439
  30 H :    0.025649
  31 H :    0.023740
  32 H :    0.038861
  33 H :    0.025153

  Mayer bond orders larger than 0.100000
B(  0-S ,  1-C ) :   1.1754 B(  0-S ,  4-C ) :   1.1494 B(  1-C ,  2-C ) :   1.5712
B(  1-C ,  4-C ) :   0.1034 B(  1-C , 32-H ) :   0.9560 B(  2-C ,  3-C ) :   1.3037
B(  2-C ,  6-C ) :   1.0274 B(  3-C ,  4-C ) :   1.5315 B(  3-C ,  5-H ) :   1.0030
B(  4-C , 20-C ) :   1.0257 B(  6-C ,  7-H ) :   0.9390 B(  6-C ,  8-H ) :   0.9360
B(  6-C ,  9-C ) :   1.0470 B(  9-C , 10-H ) :   0.9573 B(  9-C , 11-H ) :   0.9566
B(  9-C , 12-C ) :   1.0866 B( 12-C , 13-H ) :   0.9768 B( 12-C , 14-H ) :   0.9720
B( 12-C , 15-H ) :   0.9735 B( 16-S , 17-C ) :   1.1409 B( 16-S , 20-C ) :   1.1530
B( 17-C , 18-C ) :   1.5914 B( 17-C , 20-C ) :   0.1013 B( 17-C , 33-H ) :   0.9786
B( 18-C , 19-C ) :   1.2729 B( 18-C , 21-H ) :   0.9790 B( 19-C , 20-C ) :   1.5928
B( 19-C , 22-C ) :   1.0152 B( 22-C , 23-H ) :   0.9335 B( 22-C , 24-H ) :   0.9326
B( 22-C , 25-C ) :   1.0732 B( 25-C , 26-H ) :   0.9569 B( 25-C , 27-H ) :   0.9470
B( 25-C , 28-C ) :   1.0846 B( 28-C , 29-H ) :   0.9735 B( 28-C , 30-H ) :   0.9740
B( 28-C , 31-H ) :   0.9720

Dispersion correction           -0.013801427
FINAL SINGLE POINT ENERGY     -1339.865060402144

DIPOLE MOMENT
-------------
                                X             Y             Z
Electronic contribution:     21.31665      -1.77492     -22.62644
Nuclear contribution   :    -21.78989       1.77174      23.31589
                        -----------------------------------------
Total Dipole Moment    :     -0.47324      -0.00317       0.68944
                        -----------------------------------------
Magnitude (a.u.)       :      0.83624
Magnitude (Debye)      :      2.12555

Rotational constants in cm-1:     0.016051     0.008495     0.006464
Rotational constants in MHz :   481.186054   254.683770   193.788216

                             ****ORCA TERMINATED NORMALLY****
TOTAL RUN TIME: 0 days 0 hours 0 minutes 20 seconds 912 msec
