                         Program Version 4.2.1 -  RELEASE  -
|  1> ! wB97X-D3 SP def2-SVP
|  2> %pal
|  3> nprocs 24
|  4> end
|  5>
|  6> * xyz 0 1
|  7> S 	 -96.229 	 -2.25068 	 -119.425
|  8> C 	 -97.4254 	 -1.12789 	 -120.177
|  9> C 	 -98.6952 	 -1.23671 	 -119.517
| 10> C 	 -98.6491 	 -2.30071 	 -118.546
| 11> C 	 -97.4416 	 -2.95073 	 -118.392
| 12> H 	 -99.4476 	 -2.60253 	 -117.897
| 13> C 	 -99.9268 	 -0.435932 	 -119.914
| 14> H 	 -99.849 	 0.670194 	 -120.01
| 15> H 	 -100.609 	 -0.493411 	 -119.092
| 16> C 	 -100.45 	 -1.01971 	 -121.209
| 17> H 	 -99.9038 	 -0.558842 	 -122.041
| 18> H 	 -100.311 	 -2.14336 	 -121.262
| 19> C 	 -101.946 	 -0.768193 	 -121.474
| 20> H 	 -102.623 	 -1.15807 	 -120.617
| 21> H 	 -102.164 	 0.263518 	 -121.762
| 22> H 	 -102.363 	 -1.33377 	 -122.283
| 23> S 	 -95.8382 	 -3.64846 	 -116.323
| 24> C 	 -96.1196 	 -5.155 	 -115.43
| 25> C 	 -97.0003 	 -5.96444 	 -116.164
| 26> C 	 -97.6114 	 -5.28162 	 -117.257
| 27> C 	 -97.0994 	 -4.0156 	 -117.465
| 28> H 	 -97.2492 	 -6.95777 	 -115.805
| 29> C 	 -98.584 	 -5.9712 	 -118.235
| 30> H 	 -99.4441 	 -5.3445 	 -118.467
| 31> H 	 -99.043 	 -6.86588 	 -117.746
| 32> C 	 -97.8817 	 -6.46163 	 -119.429
| 33> H 	 -97.3197 	 -5.70412 	 -119.818
| 34> H 	 -98.6457 	 -6.6592 	 -120.196
| 35> C 	 -96.9364 	 -7.69846 	 -119.227
| 36> H 	 -96.4506 	 -7.94595 	 -120.219
| 37> H 	 -97.6494 	 -8.4582 	 -118.901
| 38> H 	 -96.2784 	 -7.51333 	 -118.388
| 39> H 	 -97.0545 	 -0.443718 	 -120.92
| 40> H 	 -95.5355 	 -5.49638 	 -114.512
| 41> *
| 42>
| 43>                          ****END OF INPUT****

CARTESIAN COORDINATES (ANGSTROEM)
---------------------------------
  S    -96.229000   -2.250680  -119.425000
  C    -97.425400   -1.127890  -120.177000
  C    -98.695200   -1.236710  -119.517000
  C    -98.649100   -2.300710  -118.546000
  C    -97.441600   -2.950730  -118.392000
  H    -99.447600   -2.602530  -117.897000
  C    -99.926800   -0.435932  -119.914000
  H    -99.849000    0.670194  -120.010000
  H    -100.609000   -0.493411  -119.092000
  C    -100.450000   -1.019710  -121.209000
  H    -99.903800   -0.558842  -122.041000
  H    -100.311000   -2.143360  -121.262000
  C    -101.946000   -0.768193  -121.474000
  H    -102.623000   -1.158070  -120.617000
  H    -102.164000    0.263518  -121.762000
  H    -102.363000   -1.333770  -122.283000
  S    -95.838200   -3.648460  -116.323000
  C    -96.119600   -5.155000  -115.430000
  C    -97.000300   -5.964440  -116.164000
  C    -97.611400   -5.281620  -117.257000
  C    -97.099400   -4.015600  -117.465000
  H    -97.249200   -6.957770  -115.805000
  C    -98.584000   -5.971200  -118.235000
  H    -99.444100   -5.344500  -118.467000
  H    -99.043000   -6.865880  -117.746000
  C    -97.881700   -6.461630  -119.429000
  H    -97.319700   -5.704120  -119.818000
  H    -98.645700   -6.659200  -120.196000
  C    -96.936400   -7.698460  -119.227000
  H    -96.450600   -7.945950  -120.219000
  H    -97.649400   -8.458200  -118.901000
  H    -96.278400   -7.513330  -118.388000
  H    -97.054500   -0.443718  -120.920000
  H    -95.535500   -5.496380  -114.512000

 Total Charge           Charge          ....    0
 Multiplicity           Mult            ....    1
 Number of Electrons    NEL             ....  134
 Basis Dimension        Dim             ....  322

ORBITAL ENERGIES
----------------

  NO   OCC          E(Eh)            E(eV)
   0   2.0000     -88.966460     -2420.9005
   1   2.0000     -88.966136     -2420.8916
   2   2.0000     -10.329644      -281.0839
   3   2.0000     -10.327562      -281.0272
   4   2.0000     -10.325702      -280.9766
   5   2.0000     -10.322860      -280.8993
   6   2.0000     -10.315285      -280.6932
   7   2.0000     -10.304535      -280.4007
   8   2.0000     -10.299047      -280.2513
   9   2.0000     -10.296217      -280.1743
  10   2.0000     -10.295839      -280.1640
  11   2.0000     -10.292345      -280.0690
  12   2.0000     -10.289776      -279.9990
  13   2.0000     -10.282762      -279.8082
  14   2.0000     -10.278868      -279.7022
  15   2.0000     -10.269532      -279.4482
  16   2.0000      -8.081010      -219.8955
  17   2.0000      -8.080196      -219.8733
  18   2.0000      -6.039490      -164.3429
  19   2.0000      -6.038601      -164.3187
  20   2.0000      -6.035504      -164.2344
  21   2.0000      -6.034732      -164.2134
  22   2.0000      -6.031829      -164.1344
  23   2.0000      -6.031185      -164.1169
  24   2.0000      -1.005281       -27.3551
  25   2.0000      -0.977901       -26.6100
  26   2.0000      -0.914855       -24.8945
  27   2.0000      -0.912632       -24.8340
  28   2.0000      -0.865353       -23.5475
  29   2.0000      -0.845345       -23.0030
  30   2.0000      -0.840350       -22.8671
  31   2.0000      -0.811977       -22.0950
  32   2.0000      -0.783054       -21.3080
  33   2.0000      -0.771399       -20.9908
  34   2.0000      -0.703355       -19.1393
  35   2.0000      -0.699165       -19.0253
  36   2.0000      -0.684927       -18.6378
  37   2.0000      -0.663883       -18.0652
  38   2.0000      -0.649313       -17.6687
  39   2.0000      -0.617580       -16.8052
  40   2.0000      -0.597040       -16.2463
  41   2.0000      -0.566068       -15.4035
  42   2.0000      -0.562056       -15.2943
  43   2.0000      -0.552029       -15.0215
  44   2.0000      -0.542396       -14.7593
  45   2.0000      -0.524550       -14.2737
  46   2.0000      -0.517151       -14.0724
  47   2.0000      -0.511619       -13.9219
  48   2.0000      -0.501557       -13.6480
  49   2.0000      -0.496712       -13.5162
  50   2.0000      -0.485660       -13.2155
  51   2.0000      -0.480799       -13.0832
  52   2.0000      -0.469123       -12.7655
  53   2.0000      -0.467829       -12.7303
  54   2.0000      -0.459176       -12.4948
  55   2.0000      -0.445800       -12.1308
  56   2.0000      -0.443006       -12.0548
  57   2.0000      -0.434979       -11.8364
  58   2.0000      -0.427629       -11.6364
  59   2.0000      -0.424238       -11.5441
  60   2.0000      -0.416873       -11.3437
  61   2.0000      -0.413668       -11.2565
  62   2.0000      -0.408565       -11.1176
  63   2.0000      -0.342374        -9.3165
  64   2.0000      -0.331288        -9.0148
  65   2.0000      -0.331048        -9.0083
  66   2.0000      -0.293880        -7.9969
  67   0.0000       0.030528         0.8307
  68   0.0000       0.057809         1.5731
  69   0.0000       0.107257         2.9186
  70   0.0000       0.121201         3.2981
  71   0.0000       0.129307         3.5186

MULLIKEN ATOMIC CHARGES
-----------------------
   0 S :    0.097458
   1 C :   -0.135666
   2 C :   -0.079162
   3 C :    0.047533
   4 C :   -0.157288
   5 H :    0.006058
   6 C :    0.088776
   7 H :    0.039770
   8 H :    0.010060
   9 C :   -0.091399
  10 H :    0.035882
  11 H :    0.050246
  12 C :   -0.070991
  13 H :    0.038253
  14 H :    0.032378
  15 H :    0.023859
  16 S :    0.110268
  17 C :   -0.126849
  18 C :   -0.039510
  19 C :   -0.043874
  20 C :   -0.164040
  21 H :    0.023915
  22 C :    0.073763
  23 H :    0.026199
  24 H :    0.010541
  25 C :   -0.033764
  26 H :    0.002711
  27 H :    0.022116
  28 C :   -0.061287
  29 H :    0.056803
  30 H :    0.020075
  31 H :    0.043554
  32 H :    0.056456
  33 H :    0.087155
Sum of atomic charges:    0.0000000

LOEWDIN ATOMIC CHARGES
----------------------
   0 S :    0.389685
   1 C :   -0.180613
   2 C :   -0.047360
   3 C :   -0.064856
   4 C :   -0.199603
   5 H :    0.029490
   6 C :   -0.035597
   7 H :    0.038804
   8 H :    0.024858
   9 C :   -0.043286
  10 H :    0.027510
  11 H :    0.034364
  12 C :   -0.078588
  13 H :    0.033362
  14 H :    0.023308
  15 H :    0.022005
  16 S :    0.407671
  17 C :   -0.192853
  18 C :   -0.074317
  19 C :   -0.056441
  20 C :   -0.204625
  21 H :    0.031395
  22 C :   -0.030713
  23 H :    0.031345
  24 H :    0.028489
  25 C :   -0.038494
  26 H :    0.008065
  27 H :    0.025715
  28 C :   -0.062497
  29 H :    0.037812
  30 H :    0.021581
  31 H :    0.024514
  32 H :    0.022930
  33 H :    0.046939

  Mayer bond orders larger than 0.100000
B(  0-S ,  1-C ) :   1.1423 B(  0-S ,  4-C ) :   1.1537 B(  1-C ,  2-C ) :   1.5610
B(  1-C ,  4-C ) :   0.1099 B(  1-C , 32-H ) :   0.9788 B(  2-C ,  3-C ) :   1.2444
B(  2-C ,  6-C ) :   1.0307 B(  3-C ,  4-C ) :   1.5875 B(  3-C ,  5-H ) :   0.9945
B(  4-C , 20-C ) :   1.0179 B(  6-C ,  7-H ) :   0.9403 B(  6-C ,  8-H ) :   0.9430
B(  6-C ,  9-C ) :   1.0440 B(  9-C , 10-H ) :   0.9528 B(  9-C , 11-H ) :   0.9622
B(  9-C , 12-C ) :   1.0846 B( 12-C , 13-H ) :   0.9741 B( 12-C , 14-H ) :   0.9733
B( 12-C , 15-H ) :   0.9740 B( 16-S , 17-C ) :   1.1589 B( 16-S , 20-C ) :   1.1514
B( 17-C , 18-C ) :   1.5900 B( 17-C , 20-C ) :   0.1091 B( 17-C , 33-H ) :   0.9592
B( 18-C , 19-C ) :   1.2537 B( 18-C , 21-H ) :   0.9855 B( 19-C , 20-C ) :   1.5914
B( 19-C , 22-C ) :   1.0453 B( 22-C , 23-H ) :   0.9288 B( 22-C , 24-H ) :   0.9322
B( 22-C , 25-C ) :   1.0825 B( 25-C , 26-H ) :   0.9519 B( 25-C , 27-H ) :   0.9505
B( 25-C , 28-C ) :   1.0639 B( 28-C , 29-H ) :   0.9734 B( 28-C , 30-H ) :   0.9769
B( 28-C , 31-H ) :   0.9752

Dispersion correction           -0.014628718
FINAL SINGLE POINT ENERGY     -1339.873124291717

DIPOLE MOMENT
-------------
                                X             Y             Z
Electronic contribution:     20.59193       6.19811      14.51606
Nuclear contribution   :    -21.16279      -6.28444     -14.70193
                        -----------------------------------------
Total Dipole Moment    :     -0.57086      -0.08633      -0.18587
                        -----------------------------------------
Magnitude (a.u.)       :      0.60654
Magnitude (Debye)      :      1.54169

Rotational constants in cm-1:     0.021098     0.007964     0.006832
Rotational constants in MHz :   632.509044   238.753549   204.809571

                             ****ORCA TERMINATED NORMALLY****
TOTAL RUN TIME: 0 days 0 hours 0 minutes 20 seconds 490 msec
