                         Program Version 4.2.1 -  RELEASE  -
|  1> ! wB97X-D3 SP def2-SVP
|  2> %pal
|  3> nprocs 24
|  4> end
|  5>
|  6> * xyz 0 1
|  7> S 	 -89.4249 	 -5.33665 	 -118.177
|  8> C 	 -89.1507 	 -5.90078 	 -116.513
|  9> C 	 -90.1271 	 -5.27736 	 -115.704
| 10> C 	 -91.0422 	 -4.46665 	 -116.437
| 11> C 	 -90.9645 	 -4.53052 	 -117.787
| 12> H 	 -91.8614 	 -3.8475 	 -116.038
| 13> C 	 -90.1533 	 -5.22865 	 -114.195
| 14> H 	 -90.1236 	 -6.29447 	 -113.864
| 15> H 	 -91.1066 	 -4.88304 	 -113.813
| 16> C 	 -89.0311 	 -4.41039 	 -113.534
| 17> H 	 -88.0769 	 -4.82892 	 -113.749
| 18> H 	 -89.0719 	 -3.37507 	 -113.845
| 19> C 	 -89.284 	 -4.17323 	 -111.974
| 20> H 	 -88.8297 	 -4.98361 	 -111.368
| 21> H 	 -88.8868 	 -3.24574 	 -111.578
| 22> H 	 -90.4159 	 -4.23769 	 -111.634
| 23> S 	 -91.4045 	 -2.4835 	 -119.496
| 24> C 	 -92.6852 	 -2.58936 	 -120.596
| 25> C 	 -93.6399 	 -3.54121 	 -120.22
| 26> C 	 -93.1004 	 -4.43182 	 -119.249
| 27> C 	 -91.793 	 -4.05964 	 -118.852
| 28> H 	 -94.6021 	 -3.60229 	 -120.777
| 29> C 	 -93.8554 	 -5.73087 	 -118.944
| 30> H 	 -93.1864 	 -6.50798 	 -118.723
| 31> H 	 -94.3531 	 -6.14365 	 -119.853
| 32> C 	 -94.8253 	 -5.54172 	 -117.793
| 33> H 	 -95.3662 	 -4.68401 	 -117.979
| 34> H 	 -94.4135 	 -5.40468 	 -116.835
| 35> C 	 -95.8867 	 -6.5485 	 -117.683
| 36> H 	 -96.6623 	 -6.33822 	 -116.909
| 37> H 	 -95.4548 	 -7.5608 	 -117.344
| 38> H 	 -96.4693 	 -6.71123 	 -118.549
| 39> H 	 -88.3048 	 -6.45514 	 -116.086
| 40> H 	 -92.8422 	 -1.92614 	 -121.417
| 41> *
| 42>
| 43>                          ****END OF INPUT****

CARTESIAN COORDINATES (ANGSTROEM)
---------------------------------
  S    -89.424900   -5.336650  -118.177000
  C    -89.150700   -5.900780  -116.513000
  C    -90.127100   -5.277360  -115.704000
  C    -91.042200   -4.466650  -116.437000
  C    -90.964500   -4.530520  -117.787000
  H    -91.861400   -3.847500  -116.038000
  C    -90.153300   -5.228650  -114.195000
  H    -90.123600   -6.294470  -113.864000
  H    -91.106600   -4.883040  -113.813000
  C    -89.031100   -4.410390  -113.534000
  H    -88.076900   -4.828920  -113.749000
  H    -89.071900   -3.375070  -113.845000
  C    -89.284000   -4.173230  -111.974000
  H    -88.829700   -4.983610  -111.368000
  H    -88.886800   -3.245740  -111.578000
  H    -90.415900   -4.237690  -111.634000
  S    -91.404500   -2.483500  -119.496000
  C    -92.685200   -2.589360  -120.596000
  C    -93.639900   -3.541210  -120.220000
  C    -93.100400   -4.431820  -119.249000
  C    -91.793000   -4.059640  -118.852000
  H    -94.602100   -3.602290  -120.777000
  C    -93.855400   -5.730870  -118.944000
  H    -93.186400   -6.507980  -118.723000
  H    -94.353100   -6.143650  -119.853000
  C    -94.825300   -5.541720  -117.793000
  H    -95.366200   -4.684010  -117.979000
  H    -94.413500   -5.404680  -116.835000
  C    -95.886700   -6.548500  -117.683000
  H    -96.662300   -6.338220  -116.909000
  H    -95.454800   -7.560800  -117.344000
  H    -96.469300   -6.711230  -118.549000
  H    -88.304800   -6.455140  -116.086000
  H    -92.842200   -1.926140  -121.417000

 Total Charge           Charge          ....    0
 Multiplicity           Mult            ....    1
 Number of Electrons    NEL             ....  134
 Basis Dimension        Dim             ....  322

ORBITAL ENERGIES
----------------

  NO   OCC          E(Eh)            E(eV)
   0   2.0000     -88.966630     -2420.9051
   1   2.0000     -88.960399     -2420.7355
   2   2.0000     -10.325120      -280.9608
   3   2.0000     -10.324841      -280.9532
   4   2.0000     -10.322546      -280.8907
   5   2.0000     -10.314649      -280.6759
   6   2.0000     -10.310707      -280.5686
   7   2.0000     -10.303055      -280.3604
   8   2.0000     -10.297501      -280.2092
   9   2.0000     -10.293263      -280.0939
  10   2.0000     -10.292643      -280.0771
  11   2.0000     -10.291079      -280.0345
  12   2.0000     -10.289986      -280.0047
  13   2.0000     -10.289244      -279.9846
  14   2.0000     -10.275086      -279.5993
  15   2.0000     -10.268734      -279.4265
  16   2.0000      -8.082599      -219.9387
  17   2.0000      -8.074366      -219.7147
  18   2.0000      -6.040813      -164.3789
  19   2.0000      -6.036999      -164.2751
  20   2.0000      -6.033529      -164.1807
  21   2.0000      -6.032980      -164.1657
  22   2.0000      -6.028901      -164.0547
  23   2.0000      -6.025104      -163.9514
  24   2.0000      -1.009165       -27.4608
  25   2.0000      -0.983424       -26.7603
  26   2.0000      -0.918847       -25.0031
  27   2.0000      -0.906249       -24.6603
  28   2.0000      -0.867841       -23.6152
  29   2.0000      -0.857471       -23.3330
  30   2.0000      -0.839494       -22.8438
  31   2.0000      -0.812461       -22.1082
  32   2.0000      -0.782889       -21.3035
  33   2.0000      -0.766204       -20.8495
  34   2.0000      -0.705904       -19.2086
  35   2.0000      -0.704087       -19.1592
  36   2.0000      -0.697616       -18.9831
  37   2.0000      -0.659107       -17.9352
  38   2.0000      -0.643477       -17.5099
  39   2.0000      -0.615821       -16.7573
  40   2.0000      -0.600928       -16.3521
  41   2.0000      -0.570750       -15.5309
  42   2.0000      -0.569037       -15.4843
  43   2.0000      -0.556809       -15.1515
  44   2.0000      -0.527637       -14.3577
  45   2.0000      -0.520059       -14.1515
  46   2.0000      -0.517645       -14.0858
  47   2.0000      -0.516521       -14.0553
  48   2.0000      -0.508863       -13.8469
  49   2.0000      -0.506326       -13.7778
  50   2.0000      -0.490570       -13.3491
  51   2.0000      -0.473179       -12.8759
  52   2.0000      -0.464781       -12.6473
  53   2.0000      -0.458879       -12.4867
  54   2.0000      -0.456232       -12.4147
  55   2.0000      -0.453802       -12.3486
  56   2.0000      -0.446271       -12.1436
  57   2.0000      -0.438387       -11.9291
  58   2.0000      -0.435092       -11.8395
  59   2.0000      -0.423302       -11.5186
  60   2.0000      -0.417953       -11.3731
  61   2.0000      -0.409886       -11.1536
  62   2.0000      -0.407237       -11.0815
  63   2.0000      -0.335386        -9.1263
  64   2.0000      -0.327161        -8.9025
  65   2.0000      -0.319479        -8.6935
  66   2.0000      -0.306279        -8.3343
  67   0.0000       0.031822         0.8659
  68   0.0000       0.051247         1.3945
  69   0.0000       0.111159         3.0248
  70   0.0000       0.118361         3.2208
  71   0.0000       0.131933         3.5901

MULLIKEN ATOMIC CHARGES
-----------------------
   0 S :    0.091851
   1 C :   -0.110768
   2 C :   -0.102333
   3 C :    0.044494
   4 C :   -0.177994
   5 H :    0.019805
   6 C :    0.053000
   7 H :    0.034878
   8 H :    0.009013
   9 C :   -0.030139
  10 H :    0.027470
  11 H :    0.033015
  12 C :   -0.113563
  13 H :    0.034467
  14 H :    0.041127
  15 H :    0.042057
  16 S :    0.131678
  17 C :   -0.075652
  18 C :   -0.064055
  19 C :   -0.002418
  20 C :   -0.176050
  21 H :    0.038380
  22 C :    0.079808
  23 H :    0.014109
  24 H :    0.028574
  25 C :    0.007819
  26 H :   -0.003956
  27 H :    0.017017
  28 C :   -0.074946
  29 H :    0.030591
  30 H :    0.026631
  31 H :    0.018686
  32 H :    0.059684
  33 H :    0.047719
Sum of atomic charges:   -0.0000000

LOEWDIN ATOMIC CHARGES
----------------------
   0 S :    0.383245
   1 C :   -0.192621
   2 C :   -0.067710
   3 C :   -0.064482
   4 C :   -0.193226
   5 H :    0.036404
   6 C :   -0.036576
   7 H :    0.035787
   8 H :    0.025033
   9 C :   -0.031838
  10 H :    0.019413
  11 H :    0.027703
  12 C :   -0.080412
  13 H :    0.023510
  14 H :    0.022309
  15 H :    0.036151
  16 S :    0.441456
  17 C :   -0.192177
  18 C :   -0.078168
  19 C :   -0.037517
  20 C :   -0.221001
  21 H :    0.039674
  22 C :   -0.020914
  23 H :    0.025125
  24 H :    0.036848
  25 C :   -0.039267
  26 H :    0.016225
  27 H :    0.023045
  28 C :   -0.066898
  29 H :    0.029912
  30 H :    0.026829
  31 H :    0.014604
  32 H :    0.036630
  33 H :    0.022904

  Mayer bond orders larger than 0.100000
B(  0-S ,  1-C ) :   1.1417 B(  0-S ,  4-C ) :   1.1285 B(  1-C ,  2-C ) :   1.5854
B(  1-C ,  4-C ) :   0.1102 B(  1-C , 32-H ) :   0.9717 B(  2-C ,  3-C ) :   1.2382
B(  2-C ,  6-C ) :   1.0307 B(  3-C ,  4-C ) :   1.6102 B(  3-C ,  5-H ) :   0.9913
B(  4-C , 20-C ) :   1.0180 B(  6-C ,  7-H ) :   0.9371 B(  6-C ,  8-H ) :   0.9418
B(  6-C ,  9-C ) :   1.0663 B(  9-C , 10-H ) :   0.9599 B(  9-C , 11-H ) :   0.9623
B(  9-C , 12-C ) :   1.0506 B( 12-C , 13-H ) :   0.9783 B( 12-C , 14-H ) :   0.9821
B( 12-C , 15-H ) :   0.9760 B( 16-S , 17-C ) :   1.1914 B( 16-S , 20-C ) :   1.1625
B( 17-C , 18-C ) :   1.5743 B( 17-C , 20-C ) :   0.1119 B( 17-C , 33-H ) :   0.9715
B( 18-C , 19-C ) :   1.2619 B( 18-C , 21-H ) :   0.9864 B( 19-C , 20-C ) :   1.5631
B( 19-C , 22-C ) :   1.0372 B( 22-C , 23-H ) :   0.9312 B( 22-C , 24-H ) :   0.9505
B( 22-C , 25-C ) :   1.0535 B( 25-C , 26-H ) :   0.9496 B( 25-C , 27-H ) :   0.9465
B( 25-C , 28-C ) :   1.0989 B( 28-C , 29-H ) :   0.9708 B( 28-C , 30-H ) :   0.9700
B( 28-C , 31-H ) :   0.9736

Dispersion correction           -0.013769818
FINAL SINGLE POINT ENERGY     -1339.847813435827

DIPOLE MOMENT
-------------
                                X             Y             Z
Electronic contribution:     11.97206       8.58041     -22.47439
Nuclear contribution   :    -12.41545      -8.53760      22.82829
                        -----------------------------------------
Total Dipole Moment    :     -0.44339       0.04280       0.35390
                        -----------------------------------------
Magnitude (a.u.)       :      0.56892
Magnitude (Debye)      :      1.44609

Rotational constants in cm-1:     0.018039     0.007833     0.006501
Rotational constants in MHz :   540.787803   234.827277   194.901543

                             ****ORCA TERMINATED NORMALLY****
TOTAL RUN TIME: 0 days 0 hours 0 minutes 21 seconds 31 msec
