                         Program Version 4.2.1 -  RELEASE  -
|  1> ! wB97X-D3 SP def2-SVP
|  2> %pal
|  3> nprocs 24
|  4> end
|  5>
|  6> * xyz 0 1
|  7> S 	 -100.936 	 -0.441514 	 -114.137
|  8> C 	 -101.611 	 0.748996 	 -115.301
|  9> C 	 -103.006 	 0.581031 	 -115.338
| 10> C 	 -103.525 	 -0.455682 	 -114.493
| 11> C 	 -102.515 	 -1.14368 	 -113.805
| 12> H 	 -104.522 	 -0.659047 	 -114.269
| 13> C 	 -103.961 	 1.38184 	 -116.249
| 14> H 	 -104.572 	 0.693688 	 -116.878
| 15> H 	 -103.363 	 1.8936 	 -117.077
| 16> C 	 -104.76 	 2.46613 	 -115.609
| 17> H 	 -105.323 	 2.11242 	 -114.772
| 18> H 	 -104.051 	 3.09373 	 -115.171
| 19> C 	 -105.699 	 3.19652 	 -116.596
| 20> H 	 -105.243 	 3.71892 	 -117.5
| 21> H 	 -106.346 	 2.45163 	 -117.026
| 22> H 	 -106.341 	 3.83991 	 -116.157
| 23> S 	 -101.288 	 -3.30978 	 -112.713
| 24> C 	 -102.112 	 -4.28881 	 -111.558
| 25> C 	 -103.4 	 -3.84973 	 -111.298
| 26> C 	 -103.727 	 -2.67552 	 -112.105
| 27> C 	 -102.632 	 -2.22752 	 -112.857
| 28> H 	 -104.061 	 -4.22352 	 -110.558
| 29> C 	 -105.068 	 -2.00093 	 -111.976
| 30> H 	 -104.95 	 -0.901627 	 -111.997
| 31> H 	 -105.421 	 -2.14487 	 -110.934
| 32> C 	 -106.102 	 -2.53324 	 -112.999
| 33> H 	 -105.613 	 -2.79227 	 -113.885
| 34> H 	 -106.715 	 -1.68368 	 -113.244
| 35> C 	 -107.072 	 -3.56665 	 -112.354
| 36> H 	 -107.891 	 -3.77701 	 -112.982
| 37> H 	 -107.485 	 -3.06765 	 -111.474
| 38> H 	 -106.708 	 -4.5585 	 -112.131
| 39> H 	 -101.092 	 1.46202 	 -115.92
| 40> H 	 -101.717 	 -5.17671 	 -110.932
| 41> *
| 42>
| 43>                          ****END OF INPUT****

CARTESIAN COORDINATES (ANGSTROEM)
---------------------------------
  S    -100.936000   -0.441514  -114.137000
  C    -101.611000    0.748996  -115.301000
  C    -103.006000    0.581031  -115.338000
  C    -103.525000   -0.455682  -114.493000
  C    -102.515000   -1.143680  -113.805000
  H    -104.522000   -0.659047  -114.269000
  C    -103.961000    1.381840  -116.249000
  H    -104.572000    0.693688  -116.878000
  H    -103.363000    1.893600  -117.077000
  C    -104.760000    2.466130  -115.609000
  H    -105.323000    2.112420  -114.772000
  H    -104.051000    3.093730  -115.171000
  C    -105.699000    3.196520  -116.596000
  H    -105.243000    3.718920  -117.500000
  H    -106.346000    2.451630  -117.026000
  H    -106.341000    3.839910  -116.157000
  S    -101.288000   -3.309780  -112.713000
  C    -102.112000   -4.288810  -111.558000
  C    -103.400000   -3.849730  -111.298000
  C    -103.727000   -2.675520  -112.105000
  C    -102.632000   -2.227520  -112.857000
  H    -104.061000   -4.223520  -110.558000
  C    -105.068000   -2.000930  -111.976000
  H    -104.950000   -0.901627  -111.997000
  H    -105.421000   -2.144870  -110.934000
  C    -106.102000   -2.533240  -112.999000
  H    -105.613000   -2.792270  -113.885000
  H    -106.715000   -1.683680  -113.244000
  C    -107.072000   -3.566650  -112.354000
  H    -107.891000   -3.777010  -112.982000
  H    -107.485000   -3.067650  -111.474000
  H    -106.708000   -4.558500  -112.131000
  H    -101.092000    1.462020  -115.920000
  H    -101.717000   -5.176710  -110.932000

 Total Charge           Charge          ....    0
 Multiplicity           Mult            ....    1
 Number of Electrons    NEL             ....  134
 Basis Dimension        Dim             ....  322

ORBITAL ENERGIES
----------------

  NO   OCC          E(Eh)            E(eV)
   0   2.0000     -88.969577     -2420.9853
   1   2.0000     -88.968279     -2420.9499
   2   2.0000     -10.334716      -281.2219
   3   2.0000     -10.326653      -281.0025
   4   2.0000     -10.323791      -280.9246
   5   2.0000     -10.320228      -280.8277
   6   2.0000     -10.307728      -280.4875
   7   2.0000     -10.305671      -280.4316
   8   2.0000     -10.296028      -280.1692
   9   2.0000     -10.295137      -280.1449
  10   2.0000     -10.294980      -280.1407
  11   2.0000     -10.292481      -280.0727
  12   2.0000     -10.286764      -279.9171
  13   2.0000     -10.278790      -279.7001
  14   2.0000     -10.278425      -279.6902
  15   2.0000     -10.275021      -279.5975
  16   2.0000      -8.084813      -219.9990
  17   2.0000      -8.081881      -219.9192
  18   2.0000      -6.043422      -164.4499
  19   2.0000      -6.040569      -164.3722
  20   2.0000      -6.039138      -164.3333
  21   2.0000      -6.036504      -164.2616
  22   2.0000      -6.035555      -164.2358
  23   2.0000      -6.032565      -164.1544
  24   2.0000      -1.007341       -27.4111
  25   2.0000      -0.978425       -26.6243
  26   2.0000      -0.913747       -24.8643
  27   2.0000      -0.911592       -24.8057
  28   2.0000      -0.870163       -23.6784
  29   2.0000      -0.852924       -23.2093
  30   2.0000      -0.842507       -22.9258
  31   2.0000      -0.813676       -22.1413
  32   2.0000      -0.785470       -21.3737
  33   2.0000      -0.773373       -21.0446
  34   2.0000      -0.715556       -19.4713
  35   2.0000      -0.706530       -19.2257
  36   2.0000      -0.693534       -18.8720
  37   2.0000      -0.666764       -18.1436
  38   2.0000      -0.640077       -17.4174
  39   2.0000      -0.621454       -16.9106
  40   2.0000      -0.598386       -16.2829
  41   2.0000      -0.567976       -15.4554
  42   2.0000      -0.560821       -15.2607
  43   2.0000      -0.549103       -14.9419
  44   2.0000      -0.546570       -14.8729
  45   2.0000      -0.526057       -14.3147
  46   2.0000      -0.514567       -14.0021
  47   2.0000      -0.509379       -13.8609
  48   2.0000      -0.504167       -13.7191
  49   2.0000      -0.501924       -13.6581
  50   2.0000      -0.491691       -13.3796
  51   2.0000      -0.481964       -13.1149
  52   2.0000      -0.473258       -12.8780
  53   2.0000      -0.465817       -12.6755
  54   2.0000      -0.458381       -12.4732
  55   2.0000      -0.453620       -12.3436
  56   2.0000      -0.446608       -12.1528
  57   2.0000      -0.446000       -12.1363
  58   2.0000      -0.439693       -11.9647
  59   2.0000      -0.424293       -11.5456
  60   2.0000      -0.418852       -11.3975
  61   2.0000      -0.416624       -11.3369
  62   2.0000      -0.410059       -11.1583
  63   2.0000      -0.358941        -9.7673
  64   2.0000      -0.333521        -9.0756
  65   2.0000      -0.329497        -8.9661
  66   2.0000      -0.283153        -7.7050
  67   0.0000       0.019396         0.5278
  68   0.0000       0.079920         2.1747
  69   0.0000       0.104575         2.8456
  70   0.0000       0.117961         3.2099
  71   0.0000       0.127553         3.4709

MULLIKEN ATOMIC CHARGES
-----------------------
   0 S :    0.092925
   1 C :   -0.103116
   2 C :   -0.078062
   3 C :    0.044655
   4 C :   -0.117309
   5 H :   -0.032555
   6 C :    0.001651
   7 H :    0.031195
   8 H :    0.017665
   9 C :   -0.014583
  10 H :    0.015517
  11 H :    0.010144
  12 C :   -0.014595
  13 H :    0.038875
  14 H :    0.014264
  15 H :    0.008868
  16 S :    0.118498
  17 C :   -0.103037
  18 C :   -0.015338
  19 C :   -0.078632
  20 C :   -0.111107
  21 H :    0.006788
  22 C :   -0.010982
  23 H :    0.041746
  24 H :    0.022560
  25 C :   -0.042414
  26 H :    0.033801
  27 H :    0.025725
  28 C :   -0.015544
  29 H :    0.019566
  30 H :    0.026395
  31 H :    0.033731
  32 H :    0.046690
  33 H :    0.086014
Sum of atomic charges:    0.0000000

LOEWDIN ATOMIC CHARGES
----------------------
   0 S :    0.383195
   1 C :   -0.189903
   2 C :   -0.054535
   3 C :   -0.064725
   4 C :   -0.174454
   5 H :    0.019302
   6 C :   -0.039088
   7 H :    0.029161
   8 H :    0.032473
   9 C :   -0.036574
  10 H :    0.020929
  11 H :    0.018500
  12 C :   -0.058388
  13 H :    0.034344
  14 H :    0.024574
  15 H :    0.010322
  16 S :    0.427120
  17 C :   -0.209823
  18 C :   -0.068800
  19 C :   -0.050540
  20 C :   -0.210525
  21 H :    0.025749
  22 C :   -0.040348
  23 H :    0.032656
  24 H :    0.031694
  25 C :   -0.032246
  26 H :    0.017246
  27 H :    0.025044
  28 C :   -0.057818
  29 H :    0.020515
  30 H :    0.027930
  31 H :    0.023888
  32 H :    0.030399
  33 H :    0.052726

  Mayer bond orders larger than 0.100000
B(  0-S ,  1-C ) :   1.1106 B(  0-S ,  4-C ) :   1.1505 B(  1-C ,  2-C ) :   1.6150
B(  1-C ,  4-C ) :   0.1006 B(  1-C , 32-H ) :   0.9703 B(  2-C ,  3-C ) :   1.2351
B(  2-C ,  6-C ) :   1.0204 B(  3-C ,  4-C ) :   1.5524 B(  3-C ,  5-H ) :   0.9991
B(  4-C , 20-C ) :   1.0741 B(  6-C ,  7-H ) :   0.9469 B(  6-C ,  8-H ) :   0.9452
B(  6-C ,  9-C ) :   1.0595 B(  9-C , 10-H ) :   0.9532 B(  9-C , 11-H ) :   0.9477
B(  9-C , 12-C ) :   1.0787 B( 12-C , 13-H ) :   0.9754 B( 12-C , 14-H ) :   0.9710
B( 12-C , 15-H ) :   0.9734 B( 16-S , 17-C ) :   1.1609 B( 16-S , 20-C ) :   1.1323
B( 17-C , 18-C ) :   1.5999 B( 17-C , 33-H ) :   0.9526 B( 18-C , 19-C ) :   1.2580
B( 18-C , 21-H ) :   0.9906 B( 19-C , 20-C ) :   1.5781 B( 19-C , 22-C ) :   1.0490
B( 22-C , 23-H ) :   0.9449 B( 22-C , 24-H ) :   0.9401 B( 22-C , 25-C ) :   1.0382
B( 25-C , 26-H ) :   0.9618 B( 25-C , 27-H ) :   0.9510 B( 25-C , 28-C ) :   1.0774
B( 28-C , 29-H ) :   0.9735 B( 28-C , 30-H ) :   0.9741 B( 28-C , 31-H ) :   0.9762

Dispersion correction           -0.014083160
FINAL SINGLE POINT ENERGY     -1339.870007159726

DIPOLE MOMENT
-------------
                                X             Y             Z
Electronic contribution:     29.35877     -11.21408       6.19028
Nuclear contribution   :    -30.16452      11.32854      -6.09506
                        -----------------------------------------
Total Dipole Moment    :     -0.80575       0.11446       0.09522
                        -----------------------------------------
Magnitude (a.u.)       :      0.81939
Magnitude (Debye)      :      2.08273

Rotational constants in cm-1:     0.018214     0.008900     0.006185
Rotational constants in MHz :   546.031236   266.822684   185.414535

                             ****ORCA TERMINATED NORMALLY****
TOTAL RUN TIME: 0 days 0 hours 0 minutes 20 seconds 457 msec
