                         Program Version 4.2.1 -  RELEASE  -
|  1> ! wB97X-D3 SP def2-SVP
|  2> %pal
|  3> nprocs 24
|  4> end
|  5>
|  6> * xyz 0 1
|  7> S 	 -37.5513 	 -45.4297 	 -75.7032
|  8> C 	 -38.7848 	 -44.3431 	 -76.3183
|  9> C 	 -38.3335 	 -43.0239 	 -76.4865
| 10> C 	 -36.9588 	 -42.9238 	 -75.9935
| 11> C 	 -36.3681 	 -44.1381 	 -75.6337
| 12> H 	 -36.3161 	 -42.0626 	 -75.9638
| 13> C 	 -39.0642 	 -41.8468 	 -77.0463
| 14> H 	 -38.3416 	 -41.0503 	 -77.1772
| 15> H 	 -39.7482 	 -41.4115 	 -76.29
| 16> C 	 -39.8268 	 -42.1146 	 -78.3329
| 17> H 	 -40.4903 	 -42.9618 	 -78.1369
| 18> H 	 -40.3749 	 -41.1589 	 -78.4331
| 19> C 	 -39.0405 	 -42.3899 	 -79.6224
| 20> H 	 -39.5268 	 -42.4069 	 -80.6325
| 21> H 	 -38.2555 	 -41.6298 	 -79.7931
| 22> H 	 -38.4998 	 -43.3263 	 -79.413
| 23> S 	 -33.5113 	 -44.3007 	 -75.9414
| 24> C 	 -32.4655 	 -44.248 	 -74.6235
| 25> C 	 -33.2154 	 -44.4746 	 -73.5298
| 26> C 	 -34.6246 	 -44.4216 	 -73.7223
| 27> C 	 -35.0336 	 -44.2674 	 -75.0137
| 28> H 	 -32.7321 	 -44.4781 	 -72.5765
| 29> C 	 -35.58 	 -44.7077 	 -72.5503
| 30> H 	 -36.6251 	 -44.5197 	 -72.7765
| 31> H 	 -35.2551 	 -44.0927 	 -71.6779
| 32> C 	 -35.5562 	 -46.1443 	 -72.1289
| 33> H 	 -34.7121 	 -46.1881 	 -71.5032
| 34> H 	 -35.54 	 -46.8041 	 -73.052
| 35> C 	 -36.6804 	 -46.4764 	 -71.2118
| 36> H 	 -36.6567 	 -45.8164 	 -70.4067
| 37> H 	 -36.5884 	 -47.5266 	 -70.955
| 38> H 	 -37.6606 	 -46.2073 	 -71.6371
| 39> H 	 -39.8288 	 -44.5355 	 -76.7192
| 40> H 	 -31.4017 	 -44.1765 	 -74.6149
| 41> *
| 42>
| 43>                          ****END OF INPUT****

CARTESIAN COORDINATES (ANGSTROEM)
---------------------------------
  S    -37.551300  -45.429700  -75.703200
  C    -38.784800  -44.343100  -76.318300
  C    -38.333500  -43.023900  -76.486500
  C    -36.958800  -42.923800  -75.993500
  C    -36.368100  -44.138100  -75.633700
  H    -36.316100  -42.062600  -75.963800
  C    -39.064200  -41.846800  -77.046300
  H    -38.341600  -41.050300  -77.177200
  H    -39.748200  -41.411500  -76.290000
  C    -39.826800  -42.114600  -78.332900
  H    -40.490300  -42.961800  -78.136900
  H    -40.374900  -41.158900  -78.433100
  C    -39.040500  -42.389900  -79.622400
  H    -39.526800  -42.406900  -80.632500
  H    -38.255500  -41.629800  -79.793100
  H    -38.499800  -43.326300  -79.413000
  S    -33.511300  -44.300700  -75.941400
  C    -32.465500  -44.248000  -74.623500
  C    -33.215400  -44.474600  -73.529800
  C    -34.624600  -44.421600  -73.722300
  C    -35.033600  -44.267400  -75.013700
  H    -32.732100  -44.478100  -72.576500
  C    -35.580000  -44.707700  -72.550300
  H    -36.625100  -44.519700  -72.776500
  H    -35.255100  -44.092700  -71.677900
  C    -35.556200  -46.144300  -72.128900
  H    -34.712100  -46.188100  -71.503200
  H    -35.540000  -46.804100  -73.052000
  C    -36.680400  -46.476400  -71.211800
  H    -36.656700  -45.816400  -70.406700
  H    -36.588400  -47.526600  -70.955000
  H    -37.660600  -46.207300  -71.637100
  H    -39.828800  -44.535500  -76.719200
  H    -31.401700  -44.176500  -74.614900

 Total Charge           Charge          ....    0
 Multiplicity           Mult            ....    1
 Number of Electrons    NEL             ....  134
 Basis Dimension        Dim             ....  322

ORBITAL ENERGIES
----------------

  NO   OCC          E(Eh)            E(eV)
   0   2.0000     -88.974636     -2421.1229
   1   2.0000     -88.956459     -2420.6283
   2   2.0000     -10.334005      -281.2026
   3   2.0000     -10.326699      -281.0038
   4   2.0000     -10.324463      -280.9429
   5   2.0000     -10.310959      -280.5755
   6   2.0000     -10.307096      -280.4704
   7   2.0000     -10.299402      -280.2610
   8   2.0000     -10.299263      -280.2572
   9   2.0000     -10.295870      -280.1649
  10   2.0000     -10.292808      -280.0815
  11   2.0000     -10.284207      -279.8475
  12   2.0000     -10.283821      -279.8370
  13   2.0000     -10.282847      -279.8105
  14   2.0000     -10.273755      -279.5631
  15   2.0000     -10.266256      -279.3590
  16   2.0000      -8.088266      -220.0929
  17   2.0000      -8.072384      -219.6607
  18   2.0000      -6.046952      -164.5459
  19   2.0000      -6.042782      -164.4325
  20   2.0000      -6.039050      -164.3309
  21   2.0000      -6.030855      -164.1079
  22   2.0000      -6.026639      -163.9932
  23   2.0000      -6.023131      -163.8977
  24   2.0000      -1.009997       -27.4834
  25   2.0000      -0.987278       -26.8652
  26   2.0000      -0.919953       -25.0332
  27   2.0000      -0.917027       -24.9536
  28   2.0000      -0.871045       -23.7024
  29   2.0000      -0.847331       -23.0570
  30   2.0000      -0.847160       -23.0524
  31   2.0000      -0.814090       -22.1525
  32   2.0000      -0.784929       -21.3590
  33   2.0000      -0.774373       -21.0717
  34   2.0000      -0.708202       -19.2711
  35   2.0000      -0.699359       -19.0305
  36   2.0000      -0.688167       -18.7260
  37   2.0000      -0.655039       -17.8245
  38   2.0000      -0.637080       -17.3358
  39   2.0000      -0.609967       -16.5980
  40   2.0000      -0.599884       -16.3237
  41   2.0000      -0.587984       -15.9999
  42   2.0000      -0.577428       -15.7126
  43   2.0000      -0.550125       -14.9697
  44   2.0000      -0.545095       -14.8328
  45   2.0000      -0.532216       -14.4823
  46   2.0000      -0.514419       -13.9981
  47   2.0000      -0.511774       -13.9261
  48   2.0000      -0.506589       -13.7850
  49   2.0000      -0.505474       -13.7546
  50   2.0000      -0.486921       -13.2498
  51   2.0000      -0.476622       -12.9695
  52   2.0000      -0.471279       -12.8241
  53   2.0000      -0.467655       -12.7255
  54   2.0000      -0.461838       -12.5672
  55   2.0000      -0.448876       -12.2145
  56   2.0000      -0.441094       -12.0028
  57   2.0000      -0.439801       -11.9676
  58   2.0000      -0.427135       -11.6229
  59   2.0000      -0.424334       -11.5467
  60   2.0000      -0.414954       -11.2915
  61   2.0000      -0.409040       -11.1305
  62   2.0000      -0.401107       -10.9147
  63   2.0000      -0.337190        -9.1754
  64   2.0000      -0.327525        -8.9124
  65   2.0000      -0.322855        -8.7853
  66   2.0000      -0.313685        -8.5358
  67   0.0000       0.037930         1.0321
  68   0.0000       0.061031         1.6607
  69   0.0000       0.111769         3.0414
  70   0.0000       0.116991         3.1835
  71   0.0000       0.124962         3.4004

MULLIKEN ATOMIC CHARGES
-----------------------
   0 S :    0.130945
   1 C :   -0.135808
   2 C :   -0.112433
   3 C :    0.052045
   4 C :   -0.177423
   5 H :    0.012897
   6 C :    0.078876
   7 H :    0.013139
   8 H :    0.050415
   9 C :   -0.084608
  10 H :    0.030843
  11 H :    0.033203
  12 C :   -0.067704
  13 H :    0.052982
  14 H :    0.023547
  15 H :    0.041979
  16 S :    0.087250
  17 C :   -0.064856
  18 C :   -0.031320
  19 C :   -0.024947
  20 C :   -0.164169
  21 H :    0.007050
  22 C :    0.041088
  23 H :    0.016477
  24 H :    0.024633
  25 C :   -0.074695
  26 H :    0.011151
  27 H :    0.043684
  28 C :    0.005509
  29 H :    0.000002
  30 H :    0.042624
  31 H :    0.018567
  32 H :    0.066534
  33 H :    0.052524
Sum of atomic charges:   -0.0000000

LOEWDIN ATOMIC CHARGES
----------------------
   0 S :    0.414422
   1 C :   -0.213507
   2 C :   -0.065251
   3 C :   -0.045194
   4 C :   -0.201264
   5 H :    0.030287
   6 C :   -0.035463
   7 H :    0.029360
   8 H :    0.043194
   9 C :   -0.042000
  10 H :    0.021658
  11 H :    0.028696
  12 C :   -0.078346
  13 H :    0.035531
  14 H :    0.025185
  15 H :    0.030053
  16 S :    0.409955
  17 C :   -0.188948
  18 C :   -0.083902
  19 C :   -0.053843
  20 C :   -0.199401
  21 H :    0.025243
  22 C :   -0.031920
  23 H :    0.021080
  24 H :    0.030969
  25 C :   -0.043377
  26 H :    0.017510
  27 H :    0.030083
  28 C :   -0.057438
  29 H :    0.015710
  30 H :    0.030246
  31 H :    0.024038
  32 H :    0.043112
  33 H :    0.033521

  Mayer bond orders larger than 0.100000
B(  0-S ,  1-C ) :   1.1437 B(  0-S ,  4-C ) :   1.1345 B(  1-C ,  2-C ) :   1.6117
B(  1-C , 32-H ) :   0.9530 B(  2-C ,  3-C ) :   1.2283 B(  2-C ,  6-C ) :   1.0210
B(  3-C ,  4-C ) :   1.6084 B(  3-C ,  5-H ) :   0.9872 B(  4-C , 20-C ) :   1.0134
B(  6-C ,  7-H ) :   0.9373 B(  6-C ,  8-H ) :   0.9306 B(  6-C ,  9-C ) :   1.0738
B(  9-C , 10-H ) :   0.9582 B(  9-C , 11-H ) :   0.9526 B(  9-C , 12-C ) :   1.0674
B( 12-C , 13-H ) :   0.9767 B( 12-C , 14-H ) :   0.9730 B( 12-C , 15-H ) :   0.9735
B( 16-S , 17-C ) :   1.1795 B( 16-S , 20-C ) :   1.1225 B( 17-C , 18-C ) :   1.5854
B( 17-C , 33-H ) :   0.9714 B( 18-C , 19-C ) :   1.2479 B( 18-C , 21-H ) :   0.9932
B( 19-C , 20-C ) :   1.6100 B( 19-C , 22-C ) :   1.0517 B( 22-C , 23-H ) :   0.9432
B( 22-C , 24-H ) :   0.9277 B( 22-C , 25-C ) :   1.0699 B( 25-C , 26-H ) :   0.9460
B( 25-C , 27-H ) :   0.9536 B( 25-C , 28-C ) :   1.1027 B( 28-C , 29-H ) :   0.9624
B( 28-C , 30-H ) :   0.9715 B( 28-C , 31-H ) :   0.9701

Dispersion correction           -0.014429516
FINAL SINGLE POINT ENERGY     -1339.862364596491

DIPOLE MOMENT
-------------
                                X             Y             Z
Electronic contribution:     13.68048      -4.41772      -3.58140
Nuclear contribution   :    -13.85745       4.82461       3.84735
                        -----------------------------------------
Total Dipole Moment    :     -0.17697       0.40689       0.26594
                        -----------------------------------------
Magnitude (a.u.)       :      0.51730
Magnitude (Debye)      :      1.31488

Rotational constants in cm-1:     0.021652     0.007889     0.006372
Rotational constants in MHz :   649.121099   236.511760   191.040495

                             ****ORCA TERMINATED NORMALLY****
TOTAL RUN TIME: 0 days 0 hours 0 minutes 21 seconds 345 msec
