                         Program Version 4.2.1 -  RELEASE  -
|  1> ! wB97X-D3 SP def2-SVP
|  2> %pal
|  3> nprocs 24
|  4> end
|  5>
|  6> * xyz 0 1
|  7> S 	 43.0122 	 -14.2829 	 -119.598
|  8> C 	 44.0036 	 -13.5068 	 -118.382
|  9> C 	 45.3275 	 -13.3982 	 -118.795
| 10> C 	 45.4526 	 -13.9332 	 -120.097
| 11> C 	 44.3719 	 -14.5297 	 -120.665
| 12> H 	 46.3925 	 -14.0731 	 -120.684
| 13> C 	 46.3971 	 -12.7029 	 -117.976
| 14> H 	 47.3978 	 -13.09 	 -117.919
| 15> H 	 46.0369 	 -12.76 	 -116.98
| 16> C 	 46.5266 	 -11.1797 	 -118.286
| 17> H 	 45.5976 	 -10.6472 	 -118.03
| 18> H 	 47.3011 	 -10.7776 	 -117.647
| 19> C 	 47.0055 	 -10.968 	 -119.696
| 20> H 	 46.165 	 -11.0444 	 -120.438
| 21> H 	 47.5291 	 -10.0403 	 -119.932
| 22> H 	 47.6802 	 -11.7866 	 -119.959
| 23> S 	 42.7171 	 -16.4051 	 -121.863
| 24> C 	 43.2896 	 -17.1807 	 -123.257
| 25> C 	 44.4041 	 -16.5829 	 -123.828
| 26> C 	 45.0101 	 -15.6604 	 -122.93
| 27> C 	 44.2077 	 -15.4257 	 -121.798
| 28> H 	 44.7254 	 -16.9239 	 -124.796
| 29> C 	 46.3614 	 -15.0759 	 -123.211
| 30> H 	 46.7702 	 -15.6668 	 -124.091
| 31> H 	 47.0093 	 -15.3211 	 -122.378
| 32> C 	 46.4438 	 -13.6359 	 -123.677
| 33> H 	 45.8243 	 -12.9515 	 -123.078
| 34> H 	 46.0562 	 -13.4955 	 -124.736
| 35> C 	 47.8738 	 -13.0851 	 -123.642
| 36> H 	 48.3397 	 -13.2874 	 -122.624
| 37> H 	 47.9137 	 -12.0668 	 -123.965
| 38> H 	 48.5056 	 -13.5898 	 -124.33
| 39> H 	 43.5671 	 -13.1819 	 -117.438
| 40> H 	 42.6673 	 -17.7861 	 -123.957
| 41> *
| 42>
| 43>                          ****END OF INPUT****

CARTESIAN COORDINATES (ANGSTROEM)
---------------------------------
  S     43.012200  -14.282900  -119.598000
  C     44.003600  -13.506800  -118.382000
  C     45.327500  -13.398200  -118.795000
  C     45.452600  -13.933200  -120.097000
  C     44.371900  -14.529700  -120.665000
  H     46.392500  -14.073100  -120.684000
  C     46.397100  -12.702900  -117.976000
  H     47.397800  -13.090000  -117.919000
  H     46.036900  -12.760000  -116.980000
  C     46.526600  -11.179700  -118.286000
  H     45.597600  -10.647200  -118.030000
  H     47.301100  -10.777600  -117.647000
  C     47.005500  -10.968000  -119.696000
  H     46.165000  -11.044400  -120.438000
  H     47.529100  -10.040300  -119.932000
  H     47.680200  -11.786600  -119.959000
  S     42.717100  -16.405100  -121.863000
  C     43.289600  -17.180700  -123.257000
  C     44.404100  -16.582900  -123.828000
  C     45.010100  -15.660400  -122.930000
  C     44.207700  -15.425700  -121.798000
  H     44.725400  -16.923900  -124.796000
  C     46.361400  -15.075900  -123.211000
  H     46.770200  -15.666800  -124.091000
  H     47.009300  -15.321100  -122.378000
  C     46.443800  -13.635900  -123.677000
  H     45.824300  -12.951500  -123.078000
  H     46.056200  -13.495500  -124.736000
  C     47.873800  -13.085100  -123.642000
  H     48.339700  -13.287400  -122.624000
  H     47.913700  -12.066800  -123.965000
  H     48.505600  -13.589800  -124.330000
  H     43.567100  -13.181900  -117.438000
  H     42.667300  -17.786100  -123.957000

 Total Charge           Charge          ....    0
 Multiplicity           Mult            ....    1
 Number of Electrons    NEL             ....  134
 Basis Dimension        Dim             ....  322

ORBITAL ENERGIES
----------------

  NO   OCC          E(Eh)            E(eV)
   0   2.0000     -88.970363     -2421.0067
   1   2.0000     -88.962224     -2420.7852
   2   2.0000     -10.332749      -281.1684
   3   2.0000     -10.327470      -281.0247
   4   2.0000     -10.317326      -280.7487
   5   2.0000     -10.314626      -280.6752
   6   2.0000     -10.306216      -280.4464
   7   2.0000     -10.305496      -280.4268
   8   2.0000     -10.297180      -280.2005
   9   2.0000     -10.293526      -280.1011
  10   2.0000     -10.292391      -280.0702
  11   2.0000     -10.291276      -280.0399
  12   2.0000     -10.290669      -280.0234
  13   2.0000     -10.285476      -279.8820
  14   2.0000     -10.278451      -279.6909
  15   2.0000     -10.275373      -279.6071
  16   2.0000      -8.085322      -220.0128
  17   2.0000      -8.077508      -219.8002
  18   2.0000      -6.043822      -164.4608
  19   2.0000      -6.039865      -164.3531
  20   2.0000      -6.036008      -164.2481
  21   2.0000      -6.036002      -164.2480
  22   2.0000      -6.031959      -164.1379
  23   2.0000      -6.028250      -164.0370
  24   2.0000      -1.011300       -27.5189
  25   2.0000      -0.988328       -26.8938
  26   2.0000      -0.915252       -24.9053
  27   2.0000      -0.913846       -24.8670
  28   2.0000      -0.870101       -23.6766
  29   2.0000      -0.858387       -23.3579
  30   2.0000      -0.841824       -22.9072
  31   2.0000      -0.817355       -22.2414
  32   2.0000      -0.787158       -21.4197
  33   2.0000      -0.772171       -21.0118
  34   2.0000      -0.706641       -19.2287
  35   2.0000      -0.699395       -19.0315
  36   2.0000      -0.690032       -18.7767
  37   2.0000      -0.665470       -18.1084
  38   2.0000      -0.641158       -17.4468
  39   2.0000      -0.618819       -16.8389
  40   2.0000      -0.596985       -16.2448
  41   2.0000      -0.579525       -15.7697
  42   2.0000      -0.565002       -15.3745
  43   2.0000      -0.547858       -14.9080
  44   2.0000      -0.541265       -14.7286
  45   2.0000      -0.531673       -14.4676
  46   2.0000      -0.511178       -13.9099
  47   2.0000      -0.508661       -13.8414
  48   2.0000      -0.501337       -13.6421
  49   2.0000      -0.498216       -13.5572
  50   2.0000      -0.493431       -13.4269
  51   2.0000      -0.480805       -13.0834
  52   2.0000      -0.477942       -13.0055
  53   2.0000      -0.466260       -12.6876
  54   2.0000      -0.457476       -12.4486
  55   2.0000      -0.450466       -12.2578
  56   2.0000      -0.444920       -12.1069
  57   2.0000      -0.436284       -11.8719
  58   2.0000      -0.430383       -11.7113
  59   2.0000      -0.429637       -11.6910
  60   2.0000      -0.421188       -11.4611
  61   2.0000      -0.415703       -11.3119
  62   2.0000      -0.406450       -11.0601
  63   2.0000      -0.362518        -9.8646
  64   2.0000      -0.338404        -9.2084
  65   2.0000      -0.328978        -8.9519
  66   2.0000      -0.279464        -7.6046
  67   0.0000       0.017291         0.4705
  68   0.0000       0.077179         2.1002
  69   0.0000       0.100243         2.7277
  70   0.0000       0.117610         3.2003
  71   0.0000       0.126677         3.4471

MULLIKEN ATOMIC CHARGES
-----------------------
   0 S :    0.078463
   1 C :   -0.131396
   2 C :   -0.055754
   3 C :   -0.019771
   4 C :   -0.112584
   5 H :    0.000689
   6 C :    0.078218
   7 H :    0.030533
   8 H :    0.006260
   9 C :   -0.059748
  10 H :    0.032145
  11 H :    0.025039
  12 C :   -0.070126
  13 H :    0.046746
  14 H :    0.035965
  15 H :    0.019135
  16 S :    0.114402
  17 C :   -0.082406
  18 C :   -0.052650
  19 C :   -0.040515
  20 C :   -0.111254
  21 H :    0.014686
  22 C :    0.022182
  23 H :    0.026415
  24 H :    0.042416
  25 C :   -0.084104
  26 H :    0.039082
  27 H :    0.035246
  28 C :   -0.032024
  29 H :    0.034259
  30 H :    0.034647
  31 H :    0.013267
  32 H :    0.055155
  33 H :    0.067381
Sum of atomic charges:   -0.0000000

LOEWDIN ATOMIC CHARGES
----------------------
   0 S :    0.394366
   1 C :   -0.188505
   2 C :   -0.060365
   3 C :   -0.080340
   4 C :   -0.187453
   5 H :    0.033151
   6 C :   -0.026187
   7 H :    0.029283
   8 H :    0.027545
   9 C :   -0.036425
  10 H :    0.024340
  11 H :    0.022744
  12 C :   -0.073621
  13 H :    0.031356
  14 H :    0.024825
  15 H :    0.021898
  16 S :    0.417671
  17 C :   -0.212291
  18 C :   -0.068148
  19 C :   -0.053369
  20 C :   -0.184235
  21 H :    0.030153
  22 C :   -0.040793
  23 H :    0.040690
  24 H :    0.030035
  25 C :   -0.046035
  26 H :    0.023300
  27 H :    0.032108
  28 C :   -0.063504
  29 H :    0.029135
  30 H :    0.025562
  31 H :    0.016794
  32 H :    0.028634
  33 H :    0.037679

  Mayer bond orders larger than 0.100000
B(  0-S ,  1-C ) :   1.1511 B(  0-S ,  4-C ) :   1.1305 B(  1-C ,  2-C ) :   1.5888
B(  1-C , 32-H ) :   0.9685 B(  2-C ,  3-C ) :   1.2453 B(  2-C ,  6-C ) :   1.0276
B(  3-C ,  4-C ) :   1.5884 B(  3-C ,  5-H ) :   0.9805 B(  4-C , 20-C ) :   1.0890
B(  6-C ,  7-H ) :   0.9450 B(  6-C ,  8-H ) :   0.9293 B(  6-C ,  9-C ) :   1.0859
B(  9-C , 10-H ) :   0.9561 B(  9-C , 11-H ) :   0.9538 B(  9-C , 12-C ) :   1.0769
B( 12-C , 13-H ) :   0.9698 B( 12-C , 14-H ) :   0.9735 B( 12-C , 15-H ) :   0.9710
B( 16-S , 17-C ) :   1.1705 B( 16-S , 20-C ) :   1.1354 B( 17-C , 18-C ) :   1.6122
B( 17-C , 33-H ) :   0.9521 B( 18-C , 19-C ) :   1.2650 B( 18-C , 21-H ) :   0.9881
B( 19-C , 20-C ) :   1.5596 B( 19-C , 22-C ) :   1.0379 B( 22-C , 23-H ) :   0.9278
B( 22-C , 24-H ) :   0.9372 B( 22-C , 25-C ) :   1.0575 B( 25-C , 26-H ) :   0.9612
B( 25-C , 27-H ) :   0.9491 B( 25-C , 28-C ) :   1.0833 B( 28-C , 29-H ) :   0.9731
B( 28-C , 30-H ) :   0.9715 B( 28-C , 31-H ) :   0.9717

Dispersion correction           -0.015172004
FINAL SINGLE POINT ENERGY     -1339.881436553304

DIPOLE MOMENT
-------------
                                X             Y             Z
Electronic contribution:    -25.53828     -18.09508       3.50455
Nuclear contribution   :     26.11473      18.32721      -3.70531
                        -----------------------------------------
Total Dipole Moment    :      0.57644       0.23212      -0.20076
                        -----------------------------------------
Magnitude (a.u.)       :      0.65305
Magnitude (Debye)      :      1.65992

Rotational constants in cm-1:     0.018294     0.010397     0.006949
Rotational constants in MHz :   548.446079   311.684896   208.337201

                             ****ORCA TERMINATED NORMALLY****
TOTAL RUN TIME: 0 days 0 hours 0 minutes 22 seconds 548 msec
