                         Program Version 4.2.1 -  RELEASE  -
|  1> ! wB97X-D3 SP def2-SVP
|  2> %pal
|  3> nprocs 24
|  4> end
|  5>
|  6> * xyz 0 1
|  7> S 	 42.1622 	 -7.74341 	 -105.833
|  8> C 	 42.9953 	 -6.30766 	 -106.193
|  9> C 	 42.3751 	 -5.61162 	 -107.257
| 10> C 	 41.3731 	 -6.38979 	 -107.948
| 11> C 	 41.2333 	 -7.65559 	 -107.36
| 12> H 	 40.7801 	 -6.15048 	 -108.788
| 13> C 	 42.6839 	 -4.1567 	 -107.566
| 14> H 	 42.8591 	 -3.61874 	 -106.644
| 15> H 	 41.8645 	 -3.73035 	 -108.022
| 16> C 	 43.9268 	 -3.94829 	 -108.474
| 17> H 	 44.7835 	 -4.56217 	 -108.101
| 18> H 	 43.4795 	 -4.32102 	 -109.403
| 19> C 	 44.6182 	 -2.5934 	 -108.755
| 20> H 	 45.4862 	 -2.78392 	 -109.351
| 21> H 	 44.067 	 -1.80696 	 -109.333
| 22> H 	 44.9134 	 -2.16849 	 -107.817
| 23> S 	 41.6614 	 -10.2534 	 -107.949
| 24> C 	 40.4809 	 -11.2008 	 -108.732
| 25> C 	 39.3038 	 -10.5013 	 -108.86
| 26> C 	 39.4617 	 -9.09125 	 -108.703
| 27> C 	 40.6264 	 -8.82988 	 -107.927
| 28> H 	 38.4543 	 -11.1167 	 -109.11
| 29> C 	 38.4378 	 -8.10493 	 -109.13
| 30> H 	 38.8231 	 -7.2923 	 -109.808
| 31> H 	 38.2437 	 -7.56864 	 -108.198
| 32> C 	 37.1221 	 -8.72008 	 -109.786
| 33> H 	 36.3463 	 -7.99223 	 -109.769
| 34> H 	 36.7164 	 -9.47101 	 -109.164
| 35> C 	 37.3419 	 -9.20143 	 -111.25
| 36> H 	 37.9507 	 -8.38424 	 -111.773
| 37> H 	 36.3966 	 -9.43431 	 -111.733
| 38> H 	 37.9309 	 -10.1632 	 -111.289
| 39> H 	 43.7046 	 -5.82818 	 -105.498
| 40> H 	 40.6804 	 -12.2598 	 -108.971
| 41> *
| 42>
| 43>                          ****END OF INPUT****

CARTESIAN COORDINATES (ANGSTROEM)
---------------------------------
  S     42.162200   -7.743410  -105.833000
  C     42.995300   -6.307660  -106.193000
  C     42.375100   -5.611620  -107.257000
  C     41.373100   -6.389790  -107.948000
  C     41.233300   -7.655590  -107.360000
  H     40.780100   -6.150480  -108.788000
  C     42.683900   -4.156700  -107.566000
  H     42.859100   -3.618740  -106.644000
  H     41.864500   -3.730350  -108.022000
  C     43.926800   -3.948290  -108.474000
  H     44.783500   -4.562170  -108.101000
  H     43.479500   -4.321020  -109.403000
  C     44.618200   -2.593400  -108.755000
  H     45.486200   -2.783920  -109.351000
  H     44.067000   -1.806960  -109.333000
  H     44.913400   -2.168490  -107.817000
  S     41.661400  -10.253400  -107.949000
  C     40.480900  -11.200800  -108.732000
  C     39.303800  -10.501300  -108.860000
  C     39.461700   -9.091250  -108.703000
  C     40.626400   -8.829880  -107.927000
  H     38.454300  -11.116700  -109.110000
  C     38.437800   -8.104930  -109.130000
  H     38.823100   -7.292300  -109.808000
  H     38.243700   -7.568640  -108.198000
  C     37.122100   -8.720080  -109.786000
  H     36.346300   -7.992230  -109.769000
  H     36.716400   -9.471010  -109.164000
  C     37.341900   -9.201430  -111.250000
  H     37.950700   -8.384240  -111.773000
  H     36.396600   -9.434310  -111.733000
  H     37.930900  -10.163200  -111.289000
  H     43.704600   -5.828180  -105.498000
  H     40.680400  -12.259800  -108.971000

 Total Charge           Charge          ....    0
 Multiplicity           Mult            ....    1
 Number of Electrons    NEL             ....  134
 Basis Dimension        Dim             ....  322

ORBITAL ENERGIES
----------------

  NO   OCC          E(Eh)            E(eV)
   0   2.0000     -88.968025     -2420.9430
   1   2.0000     -88.960097     -2420.7273
   2   2.0000     -10.331851      -281.1439
   3   2.0000     -10.325601      -280.9739
   4   2.0000     -10.314318      -280.6669
   5   2.0000     -10.311871      -280.6003
   6   2.0000     -10.309778      -280.5433
   7   2.0000     -10.306156      -280.4448
   8   2.0000     -10.300734      -280.2972
   9   2.0000     -10.297169      -280.2002
  10   2.0000     -10.291825      -280.0548
  11   2.0000     -10.289646      -279.9955
  12   2.0000     -10.289499      -279.9915
  13   2.0000     -10.287761      -279.9442
  14   2.0000     -10.283902      -279.8392
  15   2.0000     -10.278339      -279.6878
  16   2.0000      -8.082810      -219.9445
  17   2.0000      -8.075618      -219.7487
  18   2.0000      -6.041221      -164.3900
  19   2.0000      -6.037341      -164.2844
  20   2.0000      -6.034008      -164.1937
  21   2.0000      -6.033636      -164.1836
  22   2.0000      -6.029903      -164.0820
  23   2.0000      -6.026540      -163.9905
  24   2.0000      -1.007008       -27.4021
  25   2.0000      -0.984076       -26.7781
  26   2.0000      -0.907806       -24.7027
  27   2.0000      -0.905272       -24.6337
  28   2.0000      -0.870436       -23.6858
  29   2.0000      -0.851006       -23.1571
  30   2.0000      -0.844748       -22.9868
  31   2.0000      -0.815448       -22.1895
  32   2.0000      -0.784362       -21.3436
  33   2.0000      -0.767729       -20.8910
  34   2.0000      -0.711304       -19.3556
  35   2.0000      -0.696183       -18.9441
  36   2.0000      -0.691832       -18.8257
  37   2.0000      -0.657387       -17.8884
  38   2.0000      -0.639306       -17.3964
  39   2.0000      -0.618367       -16.8266
  40   2.0000      -0.600073       -16.3288
  41   2.0000      -0.574142       -15.6232
  42   2.0000      -0.562563       -15.3081
  43   2.0000      -0.552119       -15.0239
  44   2.0000      -0.527551       -14.3554
  45   2.0000      -0.520008       -14.1501
  46   2.0000      -0.517916       -14.0932
  47   2.0000      -0.511955       -13.9310
  48   2.0000      -0.504101       -13.7173
  49   2.0000      -0.499076       -13.5805
  50   2.0000      -0.498425       -13.5628
  51   2.0000      -0.480356       -13.0711
  52   2.0000      -0.474729       -12.9180
  53   2.0000      -0.468822       -12.7573
  54   2.0000      -0.460962       -12.5434
  55   2.0000      -0.447087       -12.1659
  56   2.0000      -0.439821       -11.9681
  57   2.0000      -0.435813       -11.8591
  58   2.0000      -0.434740       -11.8299
  59   2.0000      -0.428433       -11.6583
  60   2.0000      -0.421703       -11.4751
  61   2.0000      -0.416116       -11.3231
  62   2.0000      -0.406887       -11.0720
  63   2.0000      -0.353010        -9.6059
  64   2.0000      -0.323981        -8.8160
  65   2.0000      -0.321598        -8.7511
  66   2.0000      -0.278365        -7.5747
  67   0.0000       0.022453         0.6110
  68   0.0000       0.069146         1.8815
  69   0.0000       0.104867         2.8536
  70   0.0000       0.112830         3.0703
  71   0.0000       0.140327         3.8185

MULLIKEN ATOMIC CHARGES
-----------------------
   0 S :    0.124459
   1 C :   -0.119949
   2 C :   -0.120617
   3 C :    0.059524
   4 C :   -0.171988
   5 H :   -0.007562
   6 C :    0.127388
   7 H :    0.011488
   8 H :   -0.001099
   9 C :   -0.118213
  10 H :    0.038509
  11 H :    0.025053
  12 C :   -0.029238
  13 H :    0.033702
  14 H :    0.032872
  15 H :    0.022743
  16 S :    0.110622
  17 C :   -0.117261
  18 C :   -0.040738
  19 C :   -0.024201
  20 C :   -0.133863
  21 H :    0.027000
  22 C :   -0.006955
  23 H :    0.051561
  24 H :    0.042264
  25 C :   -0.035317
  26 H :    0.017839
  27 H :    0.018826
  28 C :   -0.079517
  29 H :    0.045762
  30 H :    0.041581
  31 H :    0.042047
  32 H :    0.062680
  33 H :    0.070601
Sum of atomic charges:   -0.0000000

LOEWDIN ATOMIC CHARGES
----------------------
   0 S :    0.416868
   1 C :   -0.219447
   2 C :   -0.056112
   3 C :   -0.055478
   4 C :   -0.185073
   5 H :    0.024640
   6 C :   -0.027198
   7 H :    0.023873
   8 H :    0.017747
   9 C :   -0.045225
  10 H :    0.030268
  11 H :    0.023872
  12 C :   -0.067648
  13 H :    0.027612
  14 H :    0.026300
  15 H :    0.019494
  16 S :    0.425181
  17 C :   -0.205859
  18 C :   -0.077012
  19 C :   -0.048882
  20 C :   -0.205115
  21 H :    0.032325
  22 C :   -0.040657
  23 H :    0.036517
  24 H :    0.039787
  25 C :   -0.035136
  26 H :    0.021918
  27 H :    0.017420
  28 C :   -0.071420
  29 H :    0.034608
  30 H :    0.025300
  31 H :    0.028553
  32 H :    0.033772
  33 H :    0.034205

  Mayer bond orders larger than 0.100000
B(  0-S ,  1-C ) :   1.1539 B(  0-S ,  4-C ) :   1.1577 B(  1-C ,  2-C ) :   1.5735
B(  1-C , 32-H ) :   0.9640 B(  2-C ,  3-C ) :   1.2561 B(  2-C ,  6-C ) :   1.0334
B(  3-C ,  4-C ) :   1.5336 B(  3-C ,  5-H ) :   0.9988 B(  4-C , 20-C ) :   1.0748
B(  6-C ,  7-H ) :   0.9376 B(  6-C ,  8-H ) :   0.9407 B(  6-C ,  9-C ) :   1.0486
B(  9-C , 10-H ) :   0.9615 B(  9-C , 11-H ) :   0.9609 B(  9-C , 12-C ) :   1.0787
B( 12-C , 13-H ) :   0.9733 B( 12-C , 14-H ) :   0.9755 B( 12-C , 15-H ) :   0.9729
B( 16-S , 17-C ) :   1.1780 B( 16-S , 20-C ) :   1.1519 B( 17-C , 18-C ) :   1.5853
B( 17-C , 20-C ) :   0.1051 B( 17-C , 33-H ) :   0.9621 B( 18-C , 19-C ) :   1.2493
B( 18-C , 21-H ) :   0.9830 B( 19-C , 20-C ) :   1.5406 B( 19-C , 22-C ) :   1.0394
B( 22-C , 23-H ) :   0.9320 B( 22-C , 24-H ) :   0.9277 B( 22-C , 25-C ) :   1.0880
B( 25-C , 26-H ) :   0.9535 B( 25-C , 27-H ) :   0.9489 B( 25-C , 28-C ) :   1.0652
B( 28-C , 29-H ) :   0.9740 B( 28-C , 30-H ) :   0.9745 B( 28-C , 31-H ) :   0.9745

Dispersion correction           -0.013592959
FINAL SINGLE POINT ENERGY     -1339.851235293587

DIPOLE MOMENT
-------------
                                X             Y             Z
Electronic contribution:      5.90004     -18.29653      16.05970
Nuclear contribution   :     -6.28570      18.60368     -16.38731
                        -----------------------------------------
Total Dipole Moment    :     -0.38566       0.30715      -0.32761
                        -----------------------------------------
Magnitude (a.u.)       :      0.59195
Magnitude (Debye)      :      1.50462

Rotational constants in cm-1:     0.020723     0.007116     0.005901
Rotational constants in MHz :   621.267727   213.324253   176.919342

                             ****ORCA TERMINATED NORMALLY****
TOTAL RUN TIME: 0 days 0 hours 0 minutes 20 seconds 753 msec
