                         Program Version 4.2.1 -  RELEASE  -
|  1> ! wB97X-D3 SP def2-SVP
|  2> %pal
|  3> nprocs 24
|  4> end
|  5>
|  6> * xyz 0 1
|  7> S 	 32.1179 	 -26.9009 	 -111.019
|  8> C 	 30.9573 	 -27.7002 	 -109.945
|  9> C 	 31.5104 	 -28.8797 	 -109.441
| 10> C 	 32.8162 	 -29.1341 	 -109.977
| 11> C 	 33.3579 	 -28.1095 	 -110.709
| 12> H 	 33.4237 	 -29.9929 	 -109.837
| 13> C 	 30.8692 	 -29.9067 	 -108.5
| 14> H 	 29.7567 	 -29.8149 	 -108.287
| 15> H 	 31.4713 	 -29.7835 	 -107.645
| 16> C 	 30.9443 	 -31.4336 	 -108.775
| 17> H 	 31.9376 	 -31.8065 	 -108.706
| 18> H 	 30.5493 	 -32.0286 	 -107.884
| 19> C 	 30.3101 	 -31.993 	 -110.09
| 20> H 	 29.2373 	 -31.6692 	 -110.13
| 21> H 	 30.6923 	 -31.6176 	 -111.083
| 22> H 	 30.3491 	 -33.1188 	 -110.054
| 23> S 	 34.5636 	 -28.4821 	 -113.222
| 24> C 	 36.2425 	 -28.8156 	 -113.187
| 25> C 	 36.9148 	 -28.6109 	 -112.005
| 26> C 	 35.9451 	 -28.1951 	 -111.031
| 27> C 	 34.6096 	 -28.2113 	 -111.479
| 28> H 	 37.9825 	 -28.8273 	 -111.97
| 29> C 	 36.4398 	 -27.7774 	 -109.598
| 30> H 	 35.8544 	 -26.8554 	 -109.259
| 31> H 	 37.4701 	 -27.3857 	 -109.743
| 32> C 	 36.3487 	 -28.8796 	 -108.459
| 33> H 	 36.8556 	 -29.7675 	 -108.749
| 34> H 	 35.2742 	 -29.1546 	 -108.371
| 35> C 	 36.8851 	 -28.3881 	 -107.139
| 36> H 	 36.2466 	 -27.5582 	 -106.553
| 37> H 	 37.7758 	 -27.9139 	 -107.282
| 38> H 	 36.9892 	 -29.188 	 -106.471
| 39> H 	 29.9781 	 -27.367 	 -109.755
| 40> H 	 36.7311 	 -29.292 	 -114.049
| 41> *
| 42>
| 43>                          ****END OF INPUT****

CARTESIAN COORDINATES (ANGSTROEM)
---------------------------------
  S     32.117900  -26.900900  -111.019000
  C     30.957300  -27.700200  -109.945000
  C     31.510400  -28.879700  -109.441000
  C     32.816200  -29.134100  -109.977000
  C     33.357900  -28.109500  -110.709000
  H     33.423700  -29.992900  -109.837000
  C     30.869200  -29.906700  -108.500000
  H     29.756700  -29.814900  -108.287000
  H     31.471300  -29.783500  -107.645000
  C     30.944300  -31.433600  -108.775000
  H     31.937600  -31.806500  -108.706000
  H     30.549300  -32.028600  -107.884000
  C     30.310100  -31.993000  -110.090000
  H     29.237300  -31.669200  -110.130000
  H     30.692300  -31.617600  -111.083000
  H     30.349100  -33.118800  -110.054000
  S     34.563600  -28.482100  -113.222000
  C     36.242500  -28.815600  -113.187000
  C     36.914800  -28.610900  -112.005000
  C     35.945100  -28.195100  -111.031000
  C     34.609600  -28.211300  -111.479000
  H     37.982500  -28.827300  -111.970000
  C     36.439800  -27.777400  -109.598000
  H     35.854400  -26.855400  -109.259000
  H     37.470100  -27.385700  -109.743000
  C     36.348700  -28.879600  -108.459000
  H     36.855600  -29.767500  -108.749000
  H     35.274200  -29.154600  -108.371000
  C     36.885100  -28.388100  -107.139000
  H     36.246600  -27.558200  -106.553000
  H     37.775800  -27.913900  -107.282000
  H     36.989200  -29.188000  -106.471000
  H     29.978100  -27.367000  -109.755000
  H     36.731100  -29.292000  -114.049000

 Total Charge           Charge          ....    0
 Multiplicity           Mult            ....    1
 Number of Electrons    NEL             ....  134
 Basis Dimension        Dim             ....  322

ORBITAL ENERGIES
----------------

  NO   OCC          E(Eh)            E(eV)
   0   2.0000     -88.967716     -2420.9346
   1   2.0000     -88.964722     -2420.8532
   2   2.0000     -10.329200      -281.0718
   3   2.0000     -10.328327      -281.0481
   4   2.0000     -10.317152      -280.7440
   5   2.0000     -10.315017      -280.6859
   6   2.0000     -10.311227      -280.5828
   7   2.0000     -10.308534      -280.5095
   8   2.0000     -10.301330      -280.3134
   9   2.0000     -10.298562      -280.2381
  10   2.0000     -10.295738      -280.1613
  11   2.0000     -10.294515      -280.1280
  12   2.0000     -10.291298      -280.0405
  13   2.0000     -10.289032      -279.9788
  14   2.0000     -10.286800      -279.9181
  15   2.0000     -10.274119      -279.5730
  16   2.0000      -8.083034      -219.9505
  17   2.0000      -8.079019      -219.8413
  18   2.0000      -6.041372      -164.3941
  19   2.0000      -6.037654      -164.2929
  20   2.0000      -6.037595      -164.2913
  21   2.0000      -6.033809      -164.1883
  22   2.0000      -6.033514      -164.1803
  23   2.0000      -6.029741      -164.0776
  24   2.0000      -1.004123       -27.3236
  25   2.0000      -0.983225       -26.7549
  26   2.0000      -0.904413       -24.6103
  27   2.0000      -0.898966       -24.4621
  28   2.0000      -0.866709       -23.5843
  29   2.0000      -0.852750       -23.2045
  30   2.0000      -0.841896       -22.9092
  31   2.0000      -0.813477       -22.1358
  32   2.0000      -0.781505       -21.2658
  33   2.0000      -0.768815       -20.9205
  34   2.0000      -0.705712       -19.2034
  35   2.0000      -0.698402       -19.0045
  36   2.0000      -0.689856       -18.7719
  37   2.0000      -0.655889       -17.8477
  38   2.0000      -0.644045       -17.5254
  39   2.0000      -0.619650       -16.8615
  40   2.0000      -0.590822       -16.0771
  41   2.0000      -0.568086       -15.4584
  42   2.0000      -0.556736       -15.1496
  43   2.0000      -0.551616       -15.0102
  44   2.0000      -0.529333       -14.4039
  45   2.0000      -0.528167       -14.3721
  46   2.0000      -0.515880       -14.0378
  47   2.0000      -0.507198       -13.8016
  48   2.0000      -0.498500       -13.5649
  49   2.0000      -0.496388       -13.5074
  50   2.0000      -0.490286       -13.3414
  51   2.0000      -0.477242       -12.9864
  52   2.0000      -0.470193       -12.7946
  53   2.0000      -0.466941       -12.7061
  54   2.0000      -0.459829       -12.5126
  55   2.0000      -0.448317       -12.1993
  56   2.0000      -0.441710       -12.0195
  57   2.0000      -0.434825       -11.8322
  58   2.0000      -0.428264       -11.6537
  59   2.0000      -0.422974       -11.5097
  60   2.0000      -0.421513       -11.4700
  61   2.0000      -0.413326       -11.2472
  62   2.0000      -0.405824       -11.0430
  63   2.0000      -0.341641        -9.2965
  64   2.0000      -0.330317        -8.9884
  65   2.0000      -0.325387        -8.8542
  66   2.0000      -0.299803        -8.1581
  67   0.0000       0.037137         1.0106
  68   0.0000       0.056382         1.5342
  69   0.0000       0.116057         3.1581
  70   0.0000       0.119419         3.2496
  71   0.0000       0.128370         3.4931

MULLIKEN ATOMIC CHARGES
-----------------------
   0 S :    0.095242
   1 C :   -0.107238
   2 C :   -0.057610
   3 C :    0.039919
   4 C :   -0.156261
   5 H :    0.011722
   6 C :    0.071850
   7 H :    0.042453
   8 H :    0.031925
   9 C :   -0.102615
  10 H :    0.012099
  11 H :    0.033744
  12 C :   -0.084294
  13 H :    0.028859
  14 H :    0.052299
  15 H :    0.046694
  16 S :    0.129032
  17 C :   -0.110236
  18 C :   -0.033060
  19 C :   -0.033725
  20 C :   -0.168785
  21 H :    0.031734
  22 C :    0.012572
  23 H :    0.045151
  24 H :    0.026500
  25 C :   -0.053267
  26 H :    0.019469
  27 H :    0.032696
  28 C :   -0.020565
  29 H :    0.039380
  30 H :    0.007036
  31 H :    0.024536
  32 H :    0.031804
  33 H :    0.060942
Sum of atomic charges:    0.0000000

LOEWDIN ATOMIC CHARGES
----------------------
   0 S :    0.389237
   1 C :   -0.180709
   2 C :   -0.059998
   3 C :   -0.053249
   4 C :   -0.193964
   5 H :    0.026744
   6 C :   -0.034493
   7 H :    0.038926
   8 H :    0.033339
   9 C :   -0.052936
  10 H :    0.012160
  11 H :    0.036764
  12 C :   -0.079972
  13 H :    0.025177
  14 H :    0.032596
  15 H :    0.032916
  16 S :    0.418300
  17 C :   -0.191359
  18 C :   -0.080080
  19 C :   -0.047576
  20 C :   -0.207428
  21 H :    0.040496
  22 C :   -0.036137
  23 H :    0.038684
  24 H :    0.028194
  25 C :   -0.038105
  26 H :    0.018812
  27 H :    0.027733
  28 C :   -0.061696
  29 H :    0.039203
  30 H :    0.009580
  31 H :    0.019406
  32 H :    0.020389
  33 H :    0.029046

  Mayer bond orders larger than 0.100000
B(  0-S ,  1-C ) :   1.1336 B(  0-S ,  4-C ) :   1.1413 B(  1-C ,  2-C ) :   1.6067
B(  1-C , 32-H ) :   0.9791 B(  2-C ,  3-C ) :   1.2245 B(  2-C ,  6-C ) :   1.0083
B(  3-C ,  4-C ) :   1.6004 B(  3-C ,  5-H ) :   0.9880 B(  4-C , 20-C ) :   1.0283
B(  6-C ,  7-H ) :   0.9543 B(  6-C ,  8-H ) :   0.9281 B(  6-C ,  9-C ) :   1.0818
B(  9-C , 10-H ) :   0.9482 B(  9-C , 11-H ) :   0.9514 B(  9-C , 12-C ) :   1.0661
B( 12-C , 13-H ) :   0.9758 B( 12-C , 14-H ) :   0.9753 B( 12-C , 15-H ) :   0.9743
B( 16-S , 17-C ) :   1.1798 B( 16-S , 20-C ) :   1.1319 B( 17-C , 18-C ) :   1.6197
B( 17-C , 33-H ) :   0.9572 B( 18-C , 19-C ) :   1.2278 B( 18-C , 21-H ) :   0.9932
B( 19-C , 20-C ) :   1.6155 B( 19-C , 22-C ) :   1.0250 B( 22-C , 23-H ) :   0.9435
B( 22-C , 24-H ) :   0.9441 B( 22-C , 25-C ) :   1.0548 B( 25-C , 26-H ) :   0.9551
B( 25-C , 27-H ) :   0.9504 B( 25-C , 28-C ) :   1.0866 B( 28-C , 29-H ) :   0.9723
B( 28-C , 30-H ) :   0.9725 B( 28-C , 31-H ) :   0.9721

Dispersion correction           -0.014378524
FINAL SINGLE POINT ENERGY     -1339.856184457940

DIPOLE MOMENT
-------------
                                X             Y             Z
Electronic contribution:     -1.16513      14.81619     -21.46079
Nuclear contribution   :      1.39017     -15.38424      21.86657
                        -----------------------------------------
Total Dipole Moment    :      0.22504      -0.56805       0.40578
                        -----------------------------------------
Magnitude (a.u.)       :      0.73347
Magnitude (Debye)      :      1.86434

Rotational constants in cm-1:     0.015623     0.009203     0.007626
Rotational constants in MHz :   468.373514   275.912553   228.636306

                             ****ORCA TERMINATED NORMALLY****
TOTAL RUN TIME: 0 days 0 hours 0 minutes 21 seconds 532 msec
