                         Program Version 4.2.1 -  RELEASE  -
|  1> ! wB97X-D3 SP def2-SVP
|  2> %pal
|  3> nprocs 24
|  4> end
|  5>
|  6> * xyz 0 1
|  7> S 	 -69.4726 	 6.91805 	 -110.624
|  8> C 	 -70.4316 	 7.7227 	 -109.292
|  9> C 	 -71.739 	 7.98749 	 -109.815
| 10> C 	 -71.9392 	 7.45363 	 -111.115
| 11> C 	 -70.825 	 6.81554 	 -111.716
| 12> H 	 -72.8452 	 7.48178 	 -111.706
| 13> C 	 -72.8529 	 8.63652 	 -108.984
| 14> H 	 -73.7459 	 8.9006 	 -109.595
| 15> H 	 -72.4916 	 9.54828 	 -108.599
| 16> C 	 -73.3829 	 7.96332 	 -107.834
| 17> H 	 -73.5915 	 6.91161 	 -107.955
| 18> H 	 -72.6426 	 7.9882 	 -107.041
| 19> C 	 -74.6759 	 8.63063 	 -107.285
| 20> H 	 -75.5661 	 7.99261 	 -107.15
| 21> H 	 -74.4954 	 9.16566 	 -106.352
| 22> H 	 -75.1276 	 9.41796 	 -107.978
| 23> S 	 -72.2116 	 5.27209 	 -113.632
| 24> C 	 -71.3285 	 4.69173 	 -115.119
| 25> C 	 -69.9979 	 4.83922 	 -114.944
| 26> C 	 -69.6932 	 5.76616 	 -113.845
| 27> C 	 -70.7779 	 6.11266 	 -113.01
| 28> H 	 -69.2748 	 4.32576 	 -115.6
| 29> C 	 -68.2694 	 6.21942 	 -113.658
| 30> H 	 -68.2046 	 7.27155 	 -113.308
| 31> H 	 -67.792 	 6.41174 	 -114.622
| 32> C 	 -67.2899 	 5.32071 	 -112.913
| 33> H 	 -67.7167 	 5.01869 	 -111.941
| 34> H 	 -66.4379 	 5.96831 	 -112.552
| 35> C 	 -66.7141 	 4.13714 	 -113.766
| 36> H 	 -66.1065 	 4.49416 	 -114.628
| 37> H 	 -67.5803 	 3.44725 	 -114.082
| 38> H 	 -66.0479 	 3.56397 	 -113.141
| 39> H 	 -70.0257 	 8.03069 	 -108.364
| 40> H 	 -71.7091 	 3.97544 	 -115.78
| 41> *
| 42>
| 43>                          ****END OF INPUT****

CARTESIAN COORDINATES (ANGSTROEM)
---------------------------------
  S    -69.472600    6.918050  -110.624000
  C    -70.431600    7.722700  -109.292000
  C    -71.739000    7.987490  -109.815000
  C    -71.939200    7.453630  -111.115000
  C    -70.825000    6.815540  -111.716000
  H    -72.845200    7.481780  -111.706000
  C    -72.852900    8.636520  -108.984000
  H    -73.745900    8.900600  -109.595000
  H    -72.491600    9.548280  -108.599000
  C    -73.382900    7.963320  -107.834000
  H    -73.591500    6.911610  -107.955000
  H    -72.642600    7.988200  -107.041000
  C    -74.675900    8.630630  -107.285000
  H    -75.566100    7.992610  -107.150000
  H    -74.495400    9.165660  -106.352000
  H    -75.127600    9.417960  -107.978000
  S    -72.211600    5.272090  -113.632000
  C    -71.328500    4.691730  -115.119000
  C    -69.997900    4.839220  -114.944000
  C    -69.693200    5.766160  -113.845000
  C    -70.777900    6.112660  -113.010000
  H    -69.274800    4.325760  -115.600000
  C    -68.269400    6.219420  -113.658000
  H    -68.204600    7.271550  -113.308000
  H    -67.792000    6.411740  -114.622000
  C    -67.289900    5.320710  -112.913000
  H    -67.716700    5.018690  -111.941000
  H    -66.437900    5.968310  -112.552000
  C    -66.714100    4.137140  -113.766000
  H    -66.106500    4.494160  -114.628000
  H    -67.580300    3.447250  -114.082000
  H    -66.047900    3.563970  -113.141000
  H    -70.025700    8.030690  -108.364000
  H    -71.709100    3.975440  -115.780000

 Total Charge           Charge          ....    0
 Multiplicity           Mult            ....    1
 Number of Electrons    NEL             ....  134
 Basis Dimension        Dim             ....  322

ORBITAL ENERGIES
----------------

  NO   OCC          E(Eh)            E(eV)
   0   2.0000     -88.972509     -2421.0650
   1   2.0000     -88.965678     -2420.8792
   2   2.0000     -10.340620      -281.3826
   3   2.0000     -10.339861      -281.3619
   4   2.0000     -10.327172      -281.0166
   5   2.0000     -10.319029      -280.7950
   6   2.0000     -10.314079      -280.6604
   7   2.0000     -10.310317      -280.5580
   8   2.0000     -10.301728      -280.3243
   9   2.0000     -10.299297      -280.2581
  10   2.0000     -10.290173      -280.0098
  11   2.0000     -10.288003      -279.9508
  12   2.0000     -10.287557      -279.9387
  13   2.0000     -10.286678      -279.9147
  14   2.0000     -10.284887      -279.8660
  15   2.0000     -10.280502      -279.7467
  16   2.0000      -8.085183      -220.0090
  17   2.0000      -8.078988      -219.8404
  18   2.0000      -6.043807      -164.4603
  19   2.0000      -6.039752      -164.3500
  20   2.0000      -6.037845      -164.2981
  21   2.0000      -6.036160      -164.2523
  22   2.0000      -6.033890      -164.1905
  23   2.0000      -6.029242      -164.0640
  24   2.0000      -0.997793       -27.1513
  25   2.0000      -0.975395       -26.5418
  26   2.0000      -0.924093       -25.1458
  27   2.0000      -0.902171       -24.5493
  28   2.0000      -0.871046       -23.7024
  29   2.0000      -0.846274       -23.0283
  30   2.0000      -0.834539       -22.7089
  31   2.0000      -0.815822       -22.1996
  32   2.0000      -0.783139       -21.3103
  33   2.0000      -0.770955       -20.9787
  34   2.0000      -0.708944       -19.2913
  35   2.0000      -0.704114       -19.1599
  36   2.0000      -0.688068       -18.7233
  37   2.0000      -0.668102       -18.1800
  38   2.0000      -0.638370       -17.3709
  39   2.0000      -0.616036       -16.7632
  40   2.0000      -0.597996       -16.2723
  41   2.0000      -0.577677       -15.7194
  42   2.0000      -0.571955       -15.5637
  43   2.0000      -0.544571       -14.8185
  44   2.0000      -0.533467       -14.5164
  45   2.0000      -0.526897       -14.3376
  46   2.0000      -0.518172       -14.1002
  47   2.0000      -0.512963       -13.9584
  48   2.0000      -0.504595       -13.7307
  49   2.0000      -0.494375       -13.4526
  50   2.0000      -0.486812       -13.2468
  51   2.0000      -0.478084       -13.0093
  52   2.0000      -0.474284       -12.9059
  53   2.0000      -0.472892       -12.8680
  54   2.0000      -0.459554       -12.5051
  55   2.0000      -0.442550       -12.0424
  56   2.0000      -0.440479       -11.9860
  57   2.0000      -0.437876       -11.9152
  58   2.0000      -0.429449       -11.6859
  59   2.0000      -0.414534       -11.2800
  60   2.0000      -0.413368       -11.2483
  61   2.0000      -0.410105       -11.1595
  62   2.0000      -0.405363       -11.0305
  63   2.0000      -0.358751        -9.7621
  64   2.0000      -0.334635        -9.1059
  65   2.0000      -0.326563        -8.8862
  66   2.0000      -0.286665        -7.8005
  67   0.0000       0.011237         0.3058
  68   0.0000       0.069906         1.9022
  69   0.0000       0.102519         2.7897
  70   0.0000       0.105692         2.8760
  71   0.0000       0.126959         3.4547

MULLIKEN ATOMIC CHARGES
-----------------------
   0 S :    0.095690
   1 C :   -0.115407
   2 C :   -0.055942
   3 C :    0.002685
   4 C :   -0.133264
   5 H :    0.014343
   6 C :    0.071695
   7 H :    0.024377
   8 H :    0.016556
   9 C :   -0.033902
  10 H :    0.028605
  11 H :    0.016289
  12 C :   -0.100667
  13 H :    0.040599
  14 H :    0.038295
  15 H :    0.030736
  16 S :    0.067896
  17 C :   -0.057409
  18 C :   -0.034755
  19 C :   -0.074362
  20 C :   -0.076469
  21 H :    0.044700
  22 C :    0.012105
  23 H :    0.034197
  24 H :    0.012978
  25 C :   -0.074277
  26 H :    0.029643
  27 H :    0.030126
  28 C :   -0.072347
  29 H :    0.042467
  30 H :    0.049318
  31 H :    0.033879
  32 H :    0.045810
  33 H :    0.045810
Sum of atomic charges:   -0.0000000

LOEWDIN ATOMIC CHARGES
----------------------
   0 S :    0.408980
   1 C :   -0.175103
   2 C :   -0.048584
   3 C :   -0.070680
   4 C :   -0.189519
   5 H :    0.028832
   6 C :   -0.036514
   7 H :    0.033665
   8 H :    0.029075
   9 C :   -0.043289
  10 H :    0.024281
  11 H :    0.021544
  12 C :   -0.074549
  13 H :    0.029963
  14 H :    0.026151
  15 H :    0.030341
  16 S :    0.361047
  17 C :   -0.153686
  18 C :   -0.061755
  19 C :   -0.058317
  20 C :   -0.181913
  21 H :    0.040445
  22 C :   -0.059636
  23 H :    0.034038
  24 H :    0.031056
  25 C :   -0.048881
  26 H :    0.016099
  27 H :    0.030823
  28 C :   -0.073349
  29 H :    0.028538
  30 H :    0.033955
  31 H :    0.023946
  32 H :    0.021853
  33 H :    0.021145

  Mayer bond orders larger than 0.100000
B(  0-S ,  1-C ) :   1.1359 B(  0-S ,  4-C ) :   1.1635 B(  1-C ,  2-C ) :   1.5449
B(  1-C ,  4-C ) :   0.1120 B(  1-C , 32-H ) :   0.9816 B(  2-C ,  3-C ) :   1.2850
B(  2-C ,  6-C ) :   1.0208 B(  3-C ,  4-C ) :   1.5098 B(  3-C ,  5-H ) :   0.9931
B(  4-C , 20-C ) :   1.0845 B(  6-C ,  7-H ) :   0.9465 B(  6-C ,  8-H ) :   0.9280
B(  6-C ,  9-C ) :   1.0848 B(  9-C , 10-H ) :   0.9584 B(  9-C , 11-H ) :   0.9532
B(  9-C , 12-C ) :   1.0522 B( 12-C , 13-H ) :   0.9793 B( 12-C , 14-H ) :   0.9793
B( 12-C , 15-H ) :   0.9778 B( 16-S , 17-C ) :   1.1147 B( 16-S , 20-C ) :   1.1106
B( 17-C , 18-C ) :   1.6678 B( 17-C , 33-H ) :   0.9651 B( 18-C , 19-C ) :   1.2075
B( 18-C , 21-H ) :   0.9770 B( 19-C , 20-C ) :   1.5947 B( 19-C , 22-C ) :   1.0550
B( 22-C , 23-H ) :   0.9351 B( 22-C , 24-H ) :   0.9303 B( 22-C , 25-C ) :   1.0626
B( 25-C , 26-H ) :   0.9532 B( 25-C , 27-H ) :   0.9512 B( 25-C , 28-C ) :   1.0759
B( 28-C , 29-H ) :   0.9738 B( 28-C , 30-H ) :   0.9714 B( 28-C , 31-H ) :   0.9737

Dispersion correction           -0.013930049
FINAL SINGLE POINT ENERGY     -1339.854677026664

DIPOLE MOMENT
-------------
                                X             Y             Z
Electronic contribution:     -1.62506      -3.23151     -10.18385
Nuclear contribution   :      1.75863       3.25820      10.34593
                        -----------------------------------------
Total Dipole Moment    :      0.13356       0.02669       0.16208
                        -----------------------------------------
Magnitude (a.u.)       :      0.21171
Magnitude (Debye)      :      0.53813

Rotational constants in cm-1:     0.025474     0.007033     0.005729
Rotational constants in MHz :   763.678078   210.855580   171.748453

                             ****ORCA TERMINATED NORMALLY****
TOTAL RUN TIME: 0 days 0 hours 0 minutes 20 seconds 847 msec
