                         Program Version 4.2.1 -  RELEASE  -
|  1> ! wB97X-D3 SP def2-SVP
|  2> %pal
|  3> nprocs 24
|  4> end
|  5>
|  6> * xyz 0 1
|  7> S 	 -106.503 	 26.0469 	 -119.127
|  8> C 	 -106.229 	 27.2483 	 -117.846
|  9> C 	 -106.463 	 28.5197 	 -118.304
| 10> C 	 -106.715 	 28.584 	 -119.687
| 11> C 	 -106.744 	 27.3016 	 -120.295
| 12> H 	 -106.922 	 29.5146 	 -120.25
| 13> C 	 -106.397 	 29.8095 	 -117.472
| 14> H 	 -106.747 	 30.6555 	 -118.06
| 15> H 	 -105.344 	 30.1119 	 -117.182
| 16> C 	 -107.303 	 29.9086 	 -116.238
| 17> H 	 -108.356 	 29.8365 	 -116.514
| 18> H 	 -107.072 	 29.105 	 -115.501
| 19> C 	 -107.221 	 31.3036 	 -115.51
| 20> H 	 -106.217 	 31.2681 	 -114.973
| 21> H 	 -107.2 	 32.1419 	 -116.15
| 22> H 	 -108.086 	 31.4135 	 -114.848
| 23> S 	 -105.791 	 25.7934 	 -122.322
| 24> C 	 -106.464 	 25.943 	 -123.924
| 25> C 	 -107.499 	 26.9088 	 -123.946
| 26> C 	 -107.707 	 27.4802 	 -122.663
| 27> C 	 -106.962 	 26.9387 	 -121.661
| 28> H 	 -107.96 	 27.2064 	 -124.868
| 29> C 	 -108.674 	 28.6116 	 -122.467
| 30> H 	 -108.225 	 29.62 	 -122.549
| 31> H 	 -108.906 	 28.443 	 -121.406
| 32> C 	 -109.895 	 28.6651 	 -123.367
| 33> H 	 -109.561 	 28.7052 	 -124.368
| 34> H 	 -110.373 	 29.6064 	 -123.047
| 35> C 	 -110.937 	 27.6017 	 -123.261
| 36> H 	 -111.807 	 27.7938 	 -123.961
| 37> H 	 -111.443 	 27.5526 	 -122.212
| 38> H 	 -110.621 	 26.5947 	 -123.485
| 39> H 	 -105.96 	 26.9593 	 -116.833
| 40> H 	 -106.093 	 25.5213 	 -124.808
| 41> *
| 42>
| 43>                          ****END OF INPUT****

CARTESIAN COORDINATES (ANGSTROEM)
---------------------------------
  S    -106.503000   26.046900  -119.127000
  C    -106.229000   27.248300  -117.846000
  C    -106.463000   28.519700  -118.304000
  C    -106.715000   28.584000  -119.687000
  C    -106.744000   27.301600  -120.295000
  H    -106.922000   29.514600  -120.250000
  C    -106.397000   29.809500  -117.472000
  H    -106.747000   30.655500  -118.060000
  H    -105.344000   30.111900  -117.182000
  C    -107.303000   29.908600  -116.238000
  H    -108.356000   29.836500  -116.514000
  H    -107.072000   29.105000  -115.501000
  C    -107.221000   31.303600  -115.510000
  H    -106.217000   31.268100  -114.973000
  H    -107.200000   32.141900  -116.150000
  H    -108.086000   31.413500  -114.848000
  S    -105.791000   25.793400  -122.322000
  C    -106.464000   25.943000  -123.924000
  C    -107.499000   26.908800  -123.946000
  C    -107.707000   27.480200  -122.663000
  C    -106.962000   26.938700  -121.661000
  H    -107.960000   27.206400  -124.868000
  C    -108.674000   28.611600  -122.467000
  H    -108.225000   29.620000  -122.549000
  H    -108.906000   28.443000  -121.406000
  C    -109.895000   28.665100  -123.367000
  H    -109.561000   28.705200  -124.368000
  H    -110.373000   29.606400  -123.047000
  C    -110.937000   27.601700  -123.261000
  H    -111.807000   27.793800  -123.961000
  H    -111.443000   27.552600  -122.212000
  H    -110.621000   26.594700  -123.485000
  H    -105.960000   26.959300  -116.833000
  H    -106.093000   25.521300  -124.808000

 Total Charge           Charge          ....    0
 Multiplicity           Mult            ....    1
 Number of Electrons    NEL             ....  134
 Basis Dimension        Dim             ....  322

ORBITAL ENERGIES
----------------

  NO   OCC          E(Eh)            E(eV)
   0   2.0000     -88.968390     -2420.9530
   1   2.0000     -88.966272     -2420.8953
   2   2.0000     -10.331254      -281.1277
   3   2.0000     -10.321343      -280.8580
   4   2.0000     -10.318525      -280.7813
   5   2.0000     -10.315615      -280.7022
   6   2.0000     -10.302387      -280.3422
   7   2.0000     -10.298522      -280.2370
   8   2.0000     -10.298408      -280.2339
   9   2.0000     -10.297747      -280.2159
  10   2.0000     -10.295205      -280.1468
  11   2.0000     -10.290636      -280.0224
  12   2.0000     -10.289014      -279.9783
  13   2.0000     -10.283471      -279.8275
  14   2.0000     -10.283287      -279.8225
  15   2.0000     -10.282630      -279.8046
  16   2.0000      -8.083030      -219.9504
  17   2.0000      -8.080850      -219.8911
  18   2.0000      -6.041488      -164.3973
  19   2.0000      -6.039387      -164.3401
  20   2.0000      -6.037502      -164.2888
  21   2.0000      -6.035314      -164.2292
  22   2.0000      -6.033890      -164.1905
  23   2.0000      -6.031634      -164.1291
  24   2.0000      -1.009940       -27.4819
  25   2.0000      -0.983793       -26.7704
  26   2.0000      -0.915420       -24.9098
  27   2.0000      -0.907856       -24.7040
  28   2.0000      -0.871099       -23.7038
  29   2.0000      -0.854940       -23.2641
  30   2.0000      -0.843656       -22.9570
  31   2.0000      -0.809172       -22.0187
  32   2.0000      -0.783714       -21.3260
  33   2.0000      -0.774224       -21.0677
  34   2.0000      -0.707099       -19.2412
  35   2.0000      -0.702493       -19.1158
  36   2.0000      -0.694211       -18.8904
  37   2.0000      -0.661734       -18.0067
  38   2.0000      -0.639547       -17.4030
  39   2.0000      -0.617357       -16.7991
  40   2.0000      -0.599457       -16.3120
  41   2.0000      -0.569807       -15.5052
  42   2.0000      -0.562421       -15.3042
  43   2.0000      -0.554645       -15.0927
  44   2.0000      -0.539959       -14.6930
  45   2.0000      -0.529991       -14.4218
  46   2.0000      -0.520428       -14.1616
  47   2.0000      -0.508998       -13.8505
  48   2.0000      -0.505366       -13.7517
  49   2.0000      -0.500753       -13.6262
  50   2.0000      -0.495115       -13.4728
  51   2.0000      -0.479200       -13.0397
  52   2.0000      -0.471938       -12.8421
  53   2.0000      -0.461280       -12.5521
  54   2.0000      -0.454267       -12.3612
  55   2.0000      -0.450467       -12.2578
  56   2.0000      -0.441100       -12.0029
  57   2.0000      -0.439936       -11.9713
  58   2.0000      -0.435785       -11.8583
  59   2.0000      -0.422625       -11.5002
  60   2.0000      -0.417324       -11.3560
  61   2.0000      -0.413080       -11.2405
  62   2.0000      -0.410543       -11.1715
  63   2.0000      -0.348621        -9.4865
  64   2.0000      -0.336969        -9.1694
  65   2.0000      -0.330041        -8.9809
  66   2.0000      -0.287048        -7.8110
  67   0.0000       0.022963         0.6249
  68   0.0000       0.069241         1.8841
  69   0.0000       0.106727         2.9042
  70   0.0000       0.117445         3.1958
  71   0.0000       0.131054         3.5662

MULLIKEN ATOMIC CHARGES
-----------------------
   0 S :    0.112103
   1 C :   -0.135958
   2 C :   -0.034762
   3 C :    0.011821
   4 C :   -0.168694
   5 H :    0.024409
   6 C :    0.046728
   7 H :    0.010236
   8 H :    0.045534
   9 C :   -0.107457
  10 H :    0.032371
  11 H :    0.036882
  12 C :   -0.061988
  13 H :    0.039509
  14 H :    0.022278
  15 H :    0.044904
  16 S :    0.106185
  17 C :   -0.061981
  18 C :   -0.048603
  19 C :   -0.041740
  20 C :   -0.125368
  21 H :    0.013423
  22 C :    0.038653
  23 H :    0.048916
  24 H :    0.029578
  25 C :   -0.043958
  26 H :    0.020860
  27 H :    0.031067
  28 C :   -0.083573
  29 H :    0.037954
  30 H :    0.038229
  31 H :    0.034331
  32 H :    0.049834
  33 H :    0.038280
Sum of atomic charges:   -0.0000000

LOEWDIN ATOMIC CHARGES
----------------------
   0 S :    0.412017
   1 C :   -0.188814
   2 C :   -0.064768
   3 C :   -0.067813
   4 C :   -0.197696
   5 H :    0.037008
   6 C :   -0.037095
   7 H :    0.027216
   8 H :    0.036942
   9 C :   -0.043280
  10 H :    0.022738
  11 H :    0.022870
  12 C :   -0.065311
  13 H :    0.032601
  14 H :    0.014439
  15 H :    0.029461
  16 S :    0.409020
  17 C :   -0.173997
  18 C :   -0.068891
  19 C :   -0.059072
  20 C :   -0.202820
  21 H :    0.027773
  22 C :   -0.037959
  23 H :    0.036912
  24 H :    0.034320
  25 C :   -0.045083
  26 H :    0.017742
  27 H :    0.033976
  28 C :   -0.075723
  29 H :    0.032532
  30 H :    0.033933
  31 H :    0.019994
  32 H :    0.027700
  33 H :    0.019125

  Mayer bond orders larger than 0.100000
B(  0-S ,  1-C ) :   1.1320 B(  0-S ,  4-C ) :   1.1766 B(  1-C ,  2-C ) :   1.5886
B(  1-C ,  4-C ) :   0.1041 B(  1-C , 32-H ) :   0.9745 B(  2-C ,  3-C ) :   1.2773
B(  2-C ,  6-C ) :   1.0082 B(  3-C ,  4-C ) :   1.5177 B(  3-C ,  5-H ) :   0.9885
B(  4-C , 20-C ) :   1.0497 B(  6-C ,  7-H ) :   0.9435 B(  6-C ,  8-H ) :   0.9433
B(  6-C ,  9-C ) :   1.0595 B(  9-C , 10-H ) :   0.9607 B(  9-C , 11-H ) :   0.9591
B(  9-C , 12-C ) :   1.0718 B( 12-C , 13-H ) :   0.9773 B( 12-C , 14-H ) :   0.9772
B( 12-C , 15-H ) :   0.9778 B( 16-S , 17-C ) :   1.1726 B( 16-S , 20-C ) :   1.1233
B( 17-C , 18-C ) :   1.5820 B( 17-C , 20-C ) :   0.1027 B( 17-C , 33-H ) :   0.9718
B( 18-C , 19-C ) :   1.2468 B( 18-C , 21-H ) :   0.9928 B( 19-C , 20-C ) :   1.6089
B( 19-C , 22-C ) :   1.0284 B( 22-C , 23-H ) :   0.9278 B( 22-C , 24-H ) :   0.9315
B( 22-C , 25-C ) :   1.0823 B( 25-C , 26-H ) :   0.9437 B( 25-C , 27-H ) :   0.9488
B( 25-C , 28-C ) :   1.0951 B( 28-C , 29-H ) :   0.9716 B( 28-C , 30-H ) :   0.9708
B( 28-C , 31-H ) :   0.9731

Dispersion correction           -0.013591863
FINAL SINGLE POINT ENERGY     -1339.881173959174

DIPOLE MOMENT
-------------
                                X             Y             Z
Electronic contribution:     15.84982     -21.86479      -7.73595
Nuclear contribution   :    -16.09120      22.51407       7.64104
                        -----------------------------------------
Total Dipole Moment    :     -0.24138       0.64928      -0.09491
                        -----------------------------------------
Magnitude (a.u.)       :      0.69917
Magnitude (Debye)      :      1.77715

Rotational constants in cm-1:     0.020362     0.007591     0.006045
Rotational constants in MHz :   610.449828   227.562921   181.230364

                             ****ORCA TERMINATED NORMALLY****
TOTAL RUN TIME: 0 days 0 hours 0 minutes 21 seconds 146 msec
