                         Program Version 4.2.1 -  RELEASE  -
|  1> ! wB97X-D3 SP def2-SVP
|  2> %pal
|  3> nprocs 24
|  4> end
|  5>
|  6> * xyz 0 1
|  7> S 	 -37.3447 	 -9.67337 	 19.158
|  8> C 	 -38.1508 	 -10.6102 	 20.3997
|  9> C 	 -39.0307 	 -11.5875 	 19.9098
| 10> C 	 -38.8779 	 -11.6371 	 18.4731
| 11> C 	 -37.949 	 -10.76 	 17.928
| 12> H 	 -39.4875 	 -12.3365 	 17.8905
| 13> C 	 -39.8944 	 -12.5534 	 20.7055
| 14> H 	 -40.9244 	 -12.2951 	 20.5839
| 15> H 	 -39.7236 	 -12.3842 	 21.8489
| 16> C 	 -39.6728 	 -14.0923 	 20.4634
| 17> H 	 -40.5861 	 -14.5739 	 20.9712
| 18> H 	 -39.7665 	 -14.3989 	 19.4038
| 19> C 	 -38.3366 	 -14.5701 	 20.9675
| 20> H 	 -38.224 	 -14.3914 	 22.0587
| 21> H 	 -38.304 	 -15.5793 	 20.761
| 22> H 	 -37.6006 	 -14.0476 	 20.3325
| 23> S 	 -38.7581 	 -10.9434 	 15.2809
| 24> C 	 -37.5945 	 -10.956 	 14.0305
| 25> C 	 -36.3577 	 -10.567 	 14.5574
| 26> C 	 -36.2803 	 -10.3903 	 15.9625
| 27> C 	 -37.4777 	 -10.7661 	 16.5105
| 28> H 	 -35.5905 	 -10.3608 	 13.7942
| 29> C 	 -34.9898 	 -10.2285 	 16.6974
| 30> H 	 -34.3339 	 -11.0668 	 16.3201
| 31> H 	 -35.0948 	 -10.4323 	 17.7534
| 32> C 	 -34.2041 	 -8.96125 	 16.5144
| 33> H 	 -33.93 	 -8.98687 	 15.5022
| 34> H 	 -33.3927 	 -8.86753 	 17.2031
| 35> C 	 -34.9461 	 -7.67007 	 16.8079
| 36> H 	 -35.7567 	 -7.48356 	 16.1224
| 37> H 	 -34.117 	 -6.87688 	 16.6379
| 38> H 	 -35.1961 	 -7.6221 	 17.7994
| 39> H 	 -37.869 	 -10.3766 	 21.4152
| 40> H 	 -37.8588 	 -11.0623 	 13.0176
| 41> *
| 42>
| 43>                          ****END OF INPUT****

CARTESIAN COORDINATES (ANGSTROEM)
---------------------------------
  S    -37.344700   -9.673370   19.158000
  C    -38.150800  -10.610200   20.399700
  C    -39.030700  -11.587500   19.909800
  C    -38.877900  -11.637100   18.473100
  C    -37.949000  -10.760000   17.928000
  H    -39.487500  -12.336500   17.890500
  C    -39.894400  -12.553400   20.705500
  H    -40.924400  -12.295100   20.583900
  H    -39.723600  -12.384200   21.848900
  C    -39.672800  -14.092300   20.463400
  H    -40.586100  -14.573900   20.971200
  H    -39.766500  -14.398900   19.403800
  C    -38.336600  -14.570100   20.967500
  H    -38.224000  -14.391400   22.058700
  H    -38.304000  -15.579300   20.761000
  H    -37.600600  -14.047600   20.332500
  S    -38.758100  -10.943400   15.280900
  C    -37.594500  -10.956000   14.030500
  C    -36.357700  -10.567000   14.557400
  C    -36.280300  -10.390300   15.962500
  C    -37.477700  -10.766100   16.510500
  H    -35.590500  -10.360800   13.794200
  C    -34.989800  -10.228500   16.697400
  H    -34.333900  -11.066800   16.320100
  H    -35.094800  -10.432300   17.753400
  C    -34.204100   -8.961250   16.514400
  H    -33.930000   -8.986870   15.502200
  H    -33.392700   -8.867530   17.203100
  C    -34.946100   -7.670070   16.807900
  H    -35.756700   -7.483560   16.122400
  H    -34.117000   -6.876880   16.637900
  H    -35.196100   -7.622100   17.799400
  H    -37.869000  -10.376600   21.415200
  H    -37.858800  -11.062300   13.017600

 Total Charge           Charge          ....    0
 Multiplicity           Mult            ....    1
 Number of Electrons    NEL             ....  134
 Basis Dimension        Dim             ....  322

ORBITAL ENERGIES
----------------

  NO   OCC          E(Eh)            E(eV)
   0   2.0000     -88.968626     -2420.9594
   1   2.0000     -88.963309     -2420.8147
   2   2.0000     -10.332020      -281.1486
   3   2.0000     -10.329757      -281.0870
   4   2.0000     -10.316631      -280.7298
   5   2.0000     -10.313335      -280.6401
   6   2.0000     -10.308029      -280.4957
   7   2.0000     -10.302717      -280.3512
   8   2.0000     -10.302120      -280.3349
   9   2.0000     -10.296368      -280.1784
  10   2.0000     -10.295320      -280.1499
  11   2.0000     -10.294892      -280.1383
  12   2.0000     -10.286577      -279.9120
  13   2.0000     -10.273348      -279.5520
  14   2.0000     -10.272325      -279.5242
  15   2.0000     -10.268875      -279.4303
  16   2.0000      -8.082952      -219.9483
  17   2.0000      -8.078404      -219.8245
  18   2.0000      -6.041483      -164.3971
  19   2.0000      -6.037533      -164.2896
  20   2.0000      -6.036830      -164.2705
  21   2.0000      -6.033724      -164.1860
  22   2.0000      -6.032922      -164.1642
  23   2.0000      -6.029187      -164.0625
  24   2.0000      -1.006199       -27.3801
  25   2.0000      -0.984272       -26.7834
  26   2.0000      -0.917567       -24.9683
  27   2.0000      -0.907860       -24.7041
  28   2.0000      -0.865551       -23.5528
  29   2.0000      -0.854659       -23.2565
  30   2.0000      -0.848169       -23.0799
  31   2.0000      -0.807074       -21.9616
  32   2.0000      -0.787225       -21.4215
  33   2.0000      -0.775578       -21.1045
  34   2.0000      -0.701447       -19.0873
  35   2.0000      -0.696921       -18.9642
  36   2.0000      -0.684748       -18.6330
  37   2.0000      -0.661626       -18.0037
  38   2.0000      -0.634468       -17.2648
  39   2.0000      -0.619770       -16.8648
  40   2.0000      -0.604567       -16.4511
  41   2.0000      -0.564490       -15.3606
  42   2.0000      -0.561482       -15.2787
  43   2.0000      -0.555827       -15.1248
  44   2.0000      -0.545818       -14.8525
  45   2.0000      -0.535390       -14.5687
  46   2.0000      -0.524967       -14.2851
  47   2.0000      -0.508651       -13.8411
  48   2.0000      -0.499623       -13.5954
  49   2.0000      -0.492900       -13.4125
  50   2.0000      -0.487844       -13.2749
  51   2.0000      -0.480891       -13.0857
  52   2.0000      -0.472193       -12.8490
  53   2.0000      -0.464804       -12.6480
  54   2.0000      -0.460692       -12.5361
  55   2.0000      -0.447826       -12.1860
  56   2.0000      -0.439797       -11.9675
  57   2.0000      -0.436122       -11.8675
  58   2.0000      -0.427853       -11.6425
  59   2.0000      -0.421535       -11.4705
  60   2.0000      -0.419269       -11.4089
  61   2.0000      -0.417560       -11.3624
  62   2.0000      -0.409481       -11.1425
  63   2.0000      -0.349171        -9.5014
  64   2.0000      -0.330508        -8.9936
  65   2.0000      -0.328609        -8.9419
  66   2.0000      -0.287903        -7.8342
  67   0.0000       0.023653         0.6436
  68   0.0000       0.080005         2.1770
  69   0.0000       0.100149         2.7252
  70   0.0000       0.115880         3.1533
  71   0.0000       0.125041         3.4025

MULLIKEN ATOMIC CHARGES
-----------------------
   0 S :    0.104816
   1 C :   -0.148241
   2 C :   -0.051882
   3 C :   -0.012844
   4 C :   -0.122030
   5 H :    0.018240
   6 C :    0.043795
   7 H :    0.037367
   8 H :    0.032017
   9 C :   -0.134409
  10 H :    0.036936
  11 H :    0.035831
  12 C :   -0.005889
  13 H :    0.036560
  14 H :    0.020481
  15 H :    0.047990
  16 S :    0.097799
  17 C :   -0.073942
  18 C :   -0.066254
  19 C :   -0.004926
  20 C :   -0.141133
  21 H :    0.026162
  22 C :    0.031179
  23 H :    0.045608
  24 H :    0.015956
  25 C :   -0.040433
  26 H :    0.013287
  27 H :    0.025131
  28 C :   -0.050034
  29 H :    0.042636
  30 H :    0.033461
  31 H :    0.014921
  32 H :    0.048567
  33 H :    0.043274
Sum of atomic charges:    0.0000000

LOEWDIN ATOMIC CHARGES
----------------------
   0 S :    0.414208
   1 C :   -0.191660
   2 C :   -0.063331
   3 C :   -0.067912
   4 C :   -0.195253
   5 H :    0.028403
   6 C :   -0.037857
   7 H :    0.029390
   8 H :    0.040312
   9 C :   -0.047764
  10 H :    0.029503
  11 H :    0.023648
  12 C :   -0.059433
  13 H :    0.029046
  14 H :    0.016468
  15 H :    0.035572
  16 S :    0.409107
  17 C :   -0.190331
  18 C :   -0.073489
  19 C :   -0.064648
  20 C :   -0.173913
  21 H :    0.031942
  22 C :   -0.039173
  23 H :    0.043771
  24 H :    0.016890
  25 C :   -0.037053
  26 H :    0.015266
  27 H :    0.026979
  28 C :   -0.056217
  29 H :    0.022434
  30 H :    0.037018
  31 H :    0.006827
  32 H :    0.020623
  33 H :    0.020627

  Mayer bond orders larger than 0.100000
B(  0-S ,  1-C ) :   1.1505 B(  0-S ,  4-C ) :   1.1411 B(  1-C ,  2-C ) :   1.5839
B(  1-C , 32-H ) :   0.9695 B(  2-C ,  3-C ) :   1.2498 B(  2-C ,  6-C ) :   1.0226
B(  3-C ,  4-C ) :   1.5554 B(  3-C ,  5-H ) :   0.9881 B(  4-C , 20-C ) :   1.0414
B(  6-C ,  7-H ) :   0.9364 B(  6-C ,  8-H ) :   0.9470 B(  6-C ,  9-C ) :   1.0611
B(  9-C , 10-H ) :   0.9536 B(  9-C , 11-H ) :   0.9564 B(  9-C , 12-C ) :   1.0726
B( 12-C , 13-H ) :   0.9742 B( 12-C , 14-H ) :   0.9711 B( 12-C , 15-H ) :   0.9719
B( 16-S , 17-C ) :   1.1577 B( 16-S , 20-C ) :   1.1508 B( 17-C , 18-C ) :   1.6015
B( 17-C , 33-H ) :   0.9777 B( 18-C , 19-C ) :   1.2157 B( 18-C , 21-H ) :   0.9874
B( 19-C , 20-C ) :   1.5772 B( 19-C , 22-C ) :   1.0414 B( 22-C , 23-H ) :   0.9406
B( 22-C , 24-H ) :   0.9327 B( 22-C , 25-C ) :   1.0731 B( 25-C , 26-H ) :   0.9565
B( 25-C , 27-H ) :   0.9551 B( 25-C , 28-C ) :   1.0862 B( 28-C , 29-H ) :   0.9725
B( 28-C , 30-H ) :   0.9748 B( 28-C , 31-H ) :   0.9761

Dispersion correction           -0.014751382
FINAL SINGLE POINT ENERGY     -1339.868924556072

DIPOLE MOMENT
-------------
                                X             Y             Z
Electronic contribution:     -7.57616       6.13944      -9.69579
Nuclear contribution   :      7.71426      -6.40709       9.79582
                        -----------------------------------------
Total Dipole Moment    :      0.13810      -0.26764       0.10002
                        -----------------------------------------
Magnitude (a.u.)       :      0.31735
Magnitude (Debye)      :      0.80664

Rotational constants in cm-1:     0.021059     0.008487     0.006993
Rotational constants in MHz :   631.324863   254.437804   209.649242

                             ****ORCA TERMINATED NORMALLY****
TOTAL RUN TIME: 0 days 0 hours 0 minutes 20 seconds 632 msec
