                         Program Version 4.2.1 -  RELEASE  -
|  1> ! wB97X-D3 SP def2-SVP
|  2> %pal
|  3> nprocs 24
|  4> end
|  5>
|  6> * xyz 0 1
|  7> S 	 -30.9956 	 19.6084 	 4.66641
|  8> C 	 -32.139 	 18.3175 	 5.0434
|  9> C 	 -31.591 	 17.3921 	 5.98465
| 10> C 	 -30.1897 	 17.5809 	 6.16881
| 11> C 	 -29.7042 	 18.731 	 5.5396
| 12> H 	 -29.5022 	 16.9878 	 6.83186
| 13> C 	 -32.2313 	 16.1704 	 6.592
| 14> H 	 -31.4126 	 15.4176 	 6.71738
| 15> H 	 -33.014 	 15.6808 	 5.95048
| 16> C 	 -32.7887 	 16.5255 	 7.99068
| 17> H 	 -31.9827 	 16.9274 	 8.62469
| 18> H 	 -33.5003 	 17.2593 	 8.12777
| 19> C 	 -33.3866 	 15.2363 	 8.57339
| 20> H 	 -33.8225 	 15.4745 	 9.56422
| 21> H 	 -34.2137 	 14.7702 	 7.99481
| 22> H 	 -32.6187 	 14.517 	 8.71567
| 23> S 	 -28.2119 	 20.9535 	 5.8416
| 24> C 	 -26.5001 	 20.8215 	 6.16624
| 25> C 	 -26.0371 	 19.4776 	 5.90348
| 26> C 	 -27.1095 	 18.5651 	 5.69483
| 27> C 	 -28.3397 	 19.224 	 5.59475
| 28> H 	 -25.0251 	 19.1627 	 5.88105
| 29> C 	 -26.8677 	 17.0783 	 5.62996
| 30> H 	 -27.7308 	 16.6056 	 5.14666
| 31> H 	 -26.9136 	 16.574 	 6.5818
| 32> C 	 -25.5715 	 16.5627 	 4.94828
| 33> H 	 -24.7543 	 16.9759 	 5.49083
| 34> H 	 -25.5694 	 17.0299 	 3.9995
| 35> C 	 -25.5618 	 15.0192 	 4.89826
| 36> H 	 -24.7025 	 14.6234 	 4.3046
| 37> H 	 -26.4193 	 14.6657 	 4.32164
| 38> H 	 -25.492 	 14.6216 	 5.85783
| 39> H 	 -33.1788 	 18.3293 	 4.69706
| 40> H 	 -25.8043 	 21.6638 	 6.28815
| 41> *
| 42>
| 43>                          ****END OF INPUT****

CARTESIAN COORDINATES (ANGSTROEM)
---------------------------------
  S    -30.995600   19.608400    4.666410
  C    -32.139000   18.317500    5.043400
  C    -31.591000   17.392100    5.984650
  C    -30.189700   17.580900    6.168810
  C    -29.704200   18.731000    5.539600
  H    -29.502200   16.987800    6.831860
  C    -32.231300   16.170400    6.592000
  H    -31.412600   15.417600    6.717380
  H    -33.014000   15.680800    5.950480
  C    -32.788700   16.525500    7.990680
  H    -31.982700   16.927400    8.624690
  H    -33.500300   17.259300    8.127770
  C    -33.386600   15.236300    8.573390
  H    -33.822500   15.474500    9.564220
  H    -34.213700   14.770200    7.994810
  H    -32.618700   14.517000    8.715670
  S    -28.211900   20.953500    5.841600
  C    -26.500100   20.821500    6.166240
  C    -26.037100   19.477600    5.903480
  C    -27.109500   18.565100    5.694830
  C    -28.339700   19.224000    5.594750
  H    -25.025100   19.162700    5.881050
  C    -26.867700   17.078300    5.629960
  H    -27.730800   16.605600    5.146660
  H    -26.913600   16.574000    6.581800
  C    -25.571500   16.562700    4.948280
  H    -24.754300   16.975900    5.490830
  H    -25.569400   17.029900    3.999500
  C    -25.561800   15.019200    4.898260
  H    -24.702500   14.623400    4.304600
  H    -26.419300   14.665700    4.321640
  H    -25.492000   14.621600    5.857830
  H    -33.178800   18.329300    4.697060
  H    -25.804300   21.663800    6.288150

 Total Charge           Charge          ....    0
 Multiplicity           Mult            ....    1
 Number of Electrons    NEL             ....  134
 Basis Dimension        Dim             ....  322

ORBITAL ENERGIES
----------------

  NO   OCC          E(Eh)            E(eV)
   0   2.0000     -88.970093     -2420.9993
   1   2.0000     -88.969640     -2420.9870
   2   2.0000     -10.332785      -281.1694
   3   2.0000     -10.327490      -281.0253
   4   2.0000     -10.324672      -280.9486
   5   2.0000     -10.320695      -280.8404
   6   2.0000     -10.306400      -280.4514
   7   2.0000     -10.304877      -280.4100
   8   2.0000     -10.300290      -280.2851
   9   2.0000     -10.298886      -280.2469
  10   2.0000     -10.298071      -280.2248
  11   2.0000     -10.289394      -279.9886
  12   2.0000     -10.283905      -279.8393
  13   2.0000     -10.281984      -279.7870
  14   2.0000     -10.280929      -279.7583
  15   2.0000     -10.276694      -279.6431
  16   2.0000      -8.084554      -219.9919
  17   2.0000      -8.083276      -219.9571
  18   2.0000      -6.043059      -164.4400
  19   2.0000      -6.041865      -164.4075
  20   2.0000      -6.039062      -164.3312
  21   2.0000      -6.038031      -164.3032
  22   2.0000      -6.035383      -164.2311
  23   2.0000      -6.033948      -164.1921
  24   2.0000      -1.001804       -27.2605
  25   2.0000      -0.975684       -26.5497
  26   2.0000      -0.912979       -24.8434
  27   2.0000      -0.909845       -24.7581
  28   2.0000      -0.863188       -23.4885
  29   2.0000      -0.856073       -23.2949
  30   2.0000      -0.846952       -23.0467
  31   2.0000      -0.804711       -21.8973
  32   2.0000      -0.780676       -21.2433
  33   2.0000      -0.764590       -20.8055
  34   2.0000      -0.713315       -19.4103
  35   2.0000      -0.705773       -19.2051
  36   2.0000      -0.694537       -18.8993
  37   2.0000      -0.662038       -18.0150
  38   2.0000      -0.638514       -17.3748
  39   2.0000      -0.617676       -16.8078
  40   2.0000      -0.599202       -16.3051
  41   2.0000      -0.573802       -15.6140
  42   2.0000      -0.565346       -15.3839
  43   2.0000      -0.552796       -15.0424
  44   2.0000      -0.524695       -14.2777
  45   2.0000      -0.519231       -14.1290
  46   2.0000      -0.516028       -14.0418
  47   2.0000      -0.509581       -13.8664
  48   2.0000      -0.501699       -13.6519
  49   2.0000      -0.495927       -13.4949
  50   2.0000      -0.493871       -13.4389
  51   2.0000      -0.477481       -12.9929
  52   2.0000      -0.471609       -12.8331
  53   2.0000      -0.462852       -12.5949
  54   2.0000      -0.459009       -12.4903
  55   2.0000      -0.454142       -12.3578
  56   2.0000      -0.449899       -12.2424
  57   2.0000      -0.442095       -12.0300
  58   2.0000      -0.433921       -11.8076
  59   2.0000      -0.429364       -11.6836
  60   2.0000      -0.425807       -11.5868
  61   2.0000      -0.419948       -11.4274
  62   2.0000      -0.409070       -11.1314
  63   2.0000      -0.349669        -9.5150
  64   2.0000      -0.332799        -9.0559
  65   2.0000      -0.328965        -8.9516
  66   2.0000      -0.278301        -7.5729
  67   0.0000       0.021211         0.5772
  68   0.0000       0.064453         1.7538
  69   0.0000       0.101487         2.7616
  70   0.0000       0.116016         3.1570
  71   0.0000       0.132092         3.5944

MULLIKEN ATOMIC CHARGES
-----------------------
   0 S :    0.105014
   1 C :   -0.130336
   2 C :   -0.056084
   3 C :   -0.021221
   4 C :   -0.128961
   5 H :    0.039223
   6 C :    0.019155
   7 H :    0.034430
   8 H :    0.039842
   9 C :   -0.055051
  10 H :    0.026094
  11 H :    0.014563
  12 C :   -0.045715
  13 H :    0.029872
  14 H :    0.037053
  15 H :    0.020197
  16 S :    0.111610
  17 C :   -0.101114
  18 C :   -0.036162
  19 C :   -0.020015
  20 C :   -0.137409
  21 H :    0.008758
  22 C :    0.011716
  23 H :    0.019519
  24 H :    0.027265
  25 C :   -0.063836
  26 H :    0.026249
  27 H :    0.025765
  28 C :   -0.028302
  29 H :    0.037073
  30 H :    0.035220
  31 H :    0.026177
  32 H :    0.059294
  33 H :    0.070116
Sum of atomic charges:    0.0000000

LOEWDIN ATOMIC CHARGES
----------------------
   0 S :    0.383452
   1 C :   -0.202016
   2 C :   -0.058877
   3 C :   -0.072801
   4 C :   -0.180690
   5 H :    0.041865
   6 C :   -0.032817
   7 H :    0.036056
   8 H :    0.034880
   9 C :   -0.035828
  10 H :    0.029414
  11 H :    0.014305
  12 C :   -0.065766
  13 H :    0.026914
  14 H :    0.027749
  15 H :    0.016416
  16 S :    0.417558
  17 C :   -0.197811
  18 C :   -0.060845
  19 C :   -0.057532
  20 C :   -0.195792
  21 H :    0.023407
  22 C :   -0.039551
  23 H :    0.029468
  24 H :    0.026637
  25 C :   -0.031293
  26 H :    0.016093
  27 H :    0.020677
  28 C :   -0.057004
  29 H :    0.033448
  30 H :    0.029517
  31 H :    0.017180
  32 H :    0.030955
  33 H :    0.032634

  Mayer bond orders larger than 0.100000
B(  0-S ,  1-C ) :   1.1323 B(  0-S ,  4-C ) :   1.1415 B(  1-C ,  2-C ) :   1.5868
B(  1-C ,  4-C ) :   0.1064 B(  1-C , 32-H ) :   0.9690 B(  2-C ,  3-C ) :   1.2491
B(  2-C ,  6-C ) :   1.0214 B(  3-C ,  4-C ) :   1.5677 B(  3-C ,  5-H ) :   0.9765
B(  4-C , 20-C ) :   1.0547 B(  6-C ,  7-H ) :   0.9476 B(  6-C ,  8-H ) :   0.9508
B(  6-C ,  9-C ) :   1.0448 B(  9-C , 10-H ) :   0.9516 B(  9-C , 11-H ) :   0.9623
B(  9-C , 12-C ) :   1.0825 B( 12-C , 13-H ) :   0.9736 B( 12-C , 14-H ) :   0.9745
B( 12-C , 15-H ) :   0.9755 B( 16-S , 17-C ) :   1.1706 B( 16-S , 20-C ) :   1.1457
B( 17-C , 18-C ) :   1.5572 B( 17-C , 20-C ) :   0.1100 B( 17-C , 33-H ) :   0.9643
B( 18-C , 19-C ) :   1.2763 B( 18-C , 21-H ) :   0.9901 B( 19-C , 20-C ) :   1.5690
B( 19-C , 22-C ) :   1.0419 B( 22-C , 23-H ) :   0.9337 B( 22-C , 24-H ) :   0.9280
B( 22-C , 25-C ) :   1.0573 B( 25-C , 26-H ) :   0.9489 B( 25-C , 27-H ) :   0.9609
B( 25-C , 28-C ) :   1.0862 B( 28-C , 29-H ) :   0.9732 B( 28-C , 30-H ) :   0.9747
B( 28-C , 31-H ) :   0.9753

Dispersion correction           -0.013304050
FINAL SINGLE POINT ENERGY     -1339.871443433819

DIPOLE MOMENT
-------------
                                X             Y             Z
Electronic contribution:     -0.92622      28.31186      -8.60090
Nuclear contribution   :      1.08245     -28.93696       8.84650
                        -----------------------------------------
Total Dipole Moment    :      0.15624      -0.62510       0.24560
                        -----------------------------------------
Magnitude (a.u.)       :      0.68955
Magnitude (Debye)      :      1.75270

Rotational constants in cm-1:     0.016420     0.008284     0.006295
Rotational constants in MHz :   492.257812   248.354035   188.733916

                             ****ORCA TERMINATED NORMALLY****
TOTAL RUN TIME: 0 days 0 hours 0 minutes 19 seconds 831 msec
