                         Program Version 4.2.1 -  RELEASE  -
|  1> ! wB97X-D3 SP def2-SVP
|  2> %pal
|  3> nprocs 24
|  4> end
|  5>
|  6> * xyz 0 1
|  7> S 	 21.8818 	 -3.99612 	 -109.036
|  8> C 	 21.931 	 -5.50103 	 -109.92
|  9> C 	 22.0748 	 -5.288 	 -111.255
| 10> C 	 22.3088 	 -3.89385 	 -111.563
| 11> C 	 22.3521 	 -3.07332 	 -110.43
| 12> H 	 22.5378 	 -3.36862 	 -112.479
| 13> C 	 21.6846 	 -6.25816 	 -112.289
| 14> H 	 21.6512 	 -7.27109 	 -111.903
| 15> H 	 22.4855 	 -6.32762 	 -113.077
| 16> C 	 20.3498 	 -6.06969 	 -112.991
| 17> H 	 19.4284 	 -6.176 	 -112.311
| 18> H 	 20.1954 	 -5.06586 	 -113.408
| 19> C 	 20.026 	 -7.13175 	 -114.04
| 20> H 	 19.7088 	 -7.9928 	 -113.437
| 21> H 	 19.1783 	 -6.8005 	 -114.621
| 22> H 	 20.9697 	 -7.35491 	 -114.561
| 23> S 	 24.2072 	 -1.22375 	 -109.651
| 24> C 	 23.8983 	 0.4852 	 -109.889
| 25> C 	 22.6578 	 0.711487 	 -110.328
| 26> C 	 21.9325 	 -0.471338 	 -110.613
| 27> C 	 22.6407 	 -1.64911 	 -110.356
| 28> H 	 22.3159 	 1.74783 	 -110.433
| 29> C 	 20.5373 	 -0.532468 	 -111.2
| 30> H 	 20.1884 	 -1.55335 	 -111.439
| 31> H 	 20.5284 	 -0.000647089 	 -112.079
| 32> C 	 19.4872 	 -0.00211712 	 -110.214
| 33> H 	 19.7433 	 1.03108 	 -109.976
| 34> H 	 19.5405 	 -0.608844 	 -109.327
| 35> C 	 18.0967 	 -0.178888 	 -110.842
| 36> H 	 17.2933 	 0.065685 	 -110.161
| 37> H 	 18.0801 	 -1.23191 	 -111.077
| 38> H 	 17.9581 	 0.471264 	 -111.769
| 39> H 	 21.7058 	 -6.38378 	 -109.508
| 40> H 	 24.6571 	 1.24774 	 -109.789
| 41> *
| 42>
| 43>                          ****END OF INPUT****

CARTESIAN COORDINATES (ANGSTROEM)
---------------------------------
  S     21.881800   -3.996120  -109.036000
  C     21.931000   -5.501030  -109.920000
  C     22.074800   -5.288000  -111.255000
  C     22.308800   -3.893850  -111.563000
  C     22.352100   -3.073320  -110.430000
  H     22.537800   -3.368620  -112.479000
  C     21.684600   -6.258160  -112.289000
  H     21.651200   -7.271090  -111.903000
  H     22.485500   -6.327620  -113.077000
  C     20.349800   -6.069690  -112.991000
  H     19.428400   -6.176000  -112.311000
  H     20.195400   -5.065860  -113.408000
  C     20.026000   -7.131750  -114.040000
  H     19.708800   -7.992800  -113.437000
  H     19.178300   -6.800500  -114.621000
  H     20.969700   -7.354910  -114.561000
  S     24.207200   -1.223750  -109.651000
  C     23.898300    0.485200  -109.889000
  C     22.657800    0.711487  -110.328000
  C     21.932500   -0.471338  -110.613000
  C     22.640700   -1.649110  -110.356000
  H     22.315900    1.747830  -110.433000
  C     20.537300   -0.532468  -111.200000
  H     20.188400   -1.553350  -111.439000
  H     20.528400   -0.000647  -112.079000
  C     19.487200   -0.002117  -110.214000
  H     19.743300    1.031080  -109.976000
  H     19.540500   -0.608844  -109.327000
  C     18.096700   -0.178888  -110.842000
  H     17.293300    0.065685  -110.161000
  H     18.080100   -1.231910  -111.077000
  H     17.958100    0.471264  -111.769000
  H     21.705800   -6.383780  -109.508000
  H     24.657100    1.247740  -109.789000

 Total Charge           Charge          ....    0
 Multiplicity           Mult            ....    1
 Number of Electrons    NEL             ....  134
 Basis Dimension        Dim             ....  322

ORBITAL ENERGIES
----------------

  NO   OCC          E(Eh)            E(eV)
   0   2.0000     -88.963578     -2420.8220
   1   2.0000     -88.959402     -2420.7084
   2   2.0000     -10.328929      -281.0645
   3   2.0000     -10.326124      -280.9881
   4   2.0000     -10.314578      -280.6739
   5   2.0000     -10.305653      -280.4311
   6   2.0000     -10.305277      -280.4208
   7   2.0000     -10.300437      -280.2891
   8   2.0000     -10.296325      -280.1772
   9   2.0000     -10.293751      -280.1072
  10   2.0000     -10.292017      -280.0600
  11   2.0000     -10.289137      -279.9817
  12   2.0000     -10.281874      -279.7840
  13   2.0000     -10.280962      -279.7592
  14   2.0000     -10.279467      -279.7185
  15   2.0000     -10.279405      -279.7168
  16   2.0000      -8.078820      -219.8359
  17   2.0000      -8.074397      -219.7155
  18   2.0000      -6.037304      -164.2834
  19   2.0000      -6.033292      -164.1742
  20   2.0000      -6.032875      -164.1629
  21   2.0000      -6.029532      -164.0719
  22   2.0000      -6.028864      -164.0537
  23   2.0000      -6.025158      -163.9529
  24   2.0000      -1.007794       -27.4235
  25   2.0000      -0.988154       -26.8891
  26   2.0000      -0.916998       -24.9528
  27   2.0000      -0.912252       -24.8236
  28   2.0000      -0.876339       -23.8464
  29   2.0000      -0.849559       -23.1177
  30   2.0000      -0.846406       -23.0319
  31   2.0000      -0.820706       -22.3325
  32   2.0000      -0.781509       -21.2659
  33   2.0000      -0.769125       -20.9289
  34   2.0000      -0.708590       -19.2817
  35   2.0000      -0.696419       -18.9505
  36   2.0000      -0.690980       -18.8025
  37   2.0000      -0.657607       -17.8944
  38   2.0000      -0.654770       -17.8172
  39   2.0000      -0.618224       -16.8227
  40   2.0000      -0.601926       -16.3792
  41   2.0000      -0.578101       -15.7309
  42   2.0000      -0.572756       -15.5855
  43   2.0000      -0.560981       -15.2651
  44   2.0000      -0.531521       -14.4634
  45   2.0000      -0.523283       -14.2393
  46   2.0000      -0.520010       -14.1502
  47   2.0000      -0.517781       -14.0895
  48   2.0000      -0.512746       -13.9525
  49   2.0000      -0.501923       -13.6580
  50   2.0000      -0.491607       -13.3773
  51   2.0000      -0.477606       -12.9963
  52   2.0000      -0.467328       -12.7166
  53   2.0000      -0.462717       -12.5912
  54   2.0000      -0.457958       -12.4617
  55   2.0000      -0.454032       -12.3548
  56   2.0000      -0.445229       -12.1153
  57   2.0000      -0.433970       -11.8089
  58   2.0000      -0.431849       -11.7512
  59   2.0000      -0.428249       -11.6533
  60   2.0000      -0.424955       -11.5636
  61   2.0000      -0.411488       -11.1972
  62   2.0000      -0.403732       -10.9861
  63   2.0000      -0.338973        -9.2239
  64   2.0000      -0.325847        -8.8668
  65   2.0000      -0.325078        -8.8458
  66   2.0000      -0.308511        -8.3950
  67   0.0000       0.043511         1.1840
  68   0.0000       0.055419         1.5080
  69   0.0000       0.110260         3.0003
  70   0.0000       0.125540         3.4161
  71   0.0000       0.131459         3.5772

MULLIKEN ATOMIC CHARGES
-----------------------
   0 S :    0.113233
   1 C :   -0.059565
   2 C :   -0.037113
   3 C :    0.049793
   4 C :   -0.186032
   5 H :    0.011575
   6 C :    0.060787
   7 H :    0.007256
   8 H :    0.029622
   9 C :   -0.115651
  10 H :    0.026989
  11 H :    0.026333
  12 C :   -0.036632
  13 H :    0.031133
  14 H :    0.042561
  15 H :    0.034881
  16 S :    0.095844
  17 C :   -0.082599
  18 C :   -0.034919
  19 C :   -0.003922
  20 C :   -0.189629
  21 H :    0.025117
  22 C :    0.090551
  23 H :    0.018158
  24 H :    0.006662
  25 C :   -0.094795
  26 H :    0.025851
  27 H :    0.029698
  28 C :   -0.037687
  29 H :    0.036537
  30 H :    0.026648
  31 H :    0.038485
  32 H :   -0.005123
  33 H :    0.055953
Sum of atomic charges:   -0.0000000

LOEWDIN ATOMIC CHARGES
----------------------
   0 S :    0.411500
   1 C :   -0.167471
   2 C :   -0.063983
   3 C :   -0.054136
   4 C :   -0.205737
   5 H :    0.032822
   6 C :   -0.039132
   7 H :    0.028334
   8 H :    0.034309
   9 C :   -0.049207
  10 H :    0.029095
  11 H :    0.017498
  12 C :   -0.062334
  13 H :    0.026307
  14 H :    0.029216
  15 H :    0.024421
  16 S :    0.393070
  17 C :   -0.171445
  18 C :   -0.080372
  19 C :   -0.046041
  20 C :   -0.201229
  21 H :    0.037919
  22 C :   -0.023776
  23 H :    0.030609
  24 H :    0.016751
  25 C :   -0.034798
  26 H :    0.017417
  27 H :    0.023985
  28 C :   -0.065178
  29 H :    0.023129
  30 H :    0.024059
  31 H :    0.031614
  32 H :    0.002258
  33 H :    0.030526

  Mayer bond orders larger than 0.100000
B(  0-S ,  1-C ) :   1.1381 B(  0-S ,  4-C ) :   1.1587 B(  1-C ,  2-C ) :   1.6136
B(  1-C , 32-H ) :   0.9849 B(  2-C ,  3-C ) :   1.1981 B(  2-C ,  6-C ) :   1.0548
B(  3-C ,  4-C ) :   1.5931 B(  3-C ,  5-H ) :   0.9978 B(  4-C , 20-C ) :   1.0200
B(  6-C ,  7-H ) :   0.9368 B(  6-C ,  8-H ) :   0.9253 B(  6-C ,  9-C ) :   1.0609
B(  9-C , 10-H ) :   0.9577 B(  9-C , 11-H ) :   0.9569 B(  9-C , 12-C ) :   1.0693
B( 12-C , 13-H ) :   0.9806 B( 12-C , 14-H ) :   0.9729 B( 12-C , 15-H ) :   0.9752
B( 16-S , 17-C ) :   1.1565 B( 16-S , 20-C ) :   1.1359 B( 17-C , 18-C ) :   1.6266
B( 17-C , 33-H ) :   0.9648 B( 18-C , 19-C ) :   1.2235 B( 18-C , 21-H ) :   0.9905
B( 19-C , 20-C ) :   1.6101 B( 19-C , 22-C ) :   1.0408 B( 22-C , 23-H ) :   0.9359
B( 22-C , 24-H ) :   0.9306 B( 22-C , 25-C ) :   1.0610 B( 25-C , 26-H ) :   0.9582
B( 25-C , 27-H ) :   0.9539 B( 25-C , 28-C ) :   1.0850 B( 28-C , 29-H ) :   0.9746
B( 28-C , 30-H ) :   0.9721 B( 28-C , 31-H ) :   0.9738

Dispersion correction           -0.013867002
FINAL SINGLE POINT ENERGY     -1339.873489713306

DIPOLE MOMENT
-------------
                                X             Y             Z
Electronic contribution:     21.85545       5.71512      16.85948
Nuclear contribution   :    -22.31341      -5.61227     -17.30080
                        -----------------------------------------
Total Dipole Moment    :     -0.45796       0.10285      -0.44132
                        -----------------------------------------
Magnitude (a.u.)       :      0.64426
Magnitude (Debye)      :      1.63758

Rotational constants in cm-1:     0.018233     0.008301     0.006696
Rotational constants in MHz :   546.615280   248.864855   200.750908

                             ****ORCA TERMINATED NORMALLY****
TOTAL RUN TIME: 0 days 0 hours 0 minutes 21 seconds 639 msec
