                         Program Version 4.2.1 -  RELEASE  -
|  1> ! wB97X-D3 SP def2-SVP
|  2> %pal
|  3> nprocs 24
|  4> end
|  5>
|  6> * xyz 0 1
|  7> S 	 -45.6913 	 -9.08666 	 -18.5947
|  8> C 	 -46.1128 	 -10.7956 	 -18.4892
|  9> C 	 -45.6356 	 -11.3668 	 -17.3236
| 10> C 	 -45.1613 	 -10.3876 	 -16.3826
| 11> C 	 -45.071 	 -9.1489 	 -16.86
| 12> H 	 -44.7031 	 -10.5685 	 -15.4424
| 13> C 	 -45.5823 	 -12.8411 	 -16.942
| 14> H 	 -44.971 	 -13.0292 	 -16.0537
| 15> H 	 -45.0672 	 -13.3454 	 -17.7352
| 16> C 	 -46.8934 	 -13.482 	 -16.8741
| 17> H 	 -47.6823 	 -12.7434 	 -16.7264
| 18> H 	 -47.1342 	 -13.8845 	 -17.8155
| 19> C 	 -46.9668 	 -14.5262 	 -15.8075
| 20> H 	 -48.0014 	 -14.9747 	 -15.6356
| 21> H 	 -46.0864 	 -15.1858 	 -15.8923
| 22> H 	 -46.9246 	 -14.0471 	 -14.7864
| 23> S 	 -43.4026 	 -6.87016 	 -17.101
| 24> C 	 -43.3467 	 -5.78779 	 -15.7521
| 25> C 	 -43.9684 	 -6.34401 	 -14.6386
| 26> C 	 -44.4423 	 -7.65353 	 -14.8084
| 27> C 	 -44.4709 	 -7.99883 	 -16.1575
| 28> H 	 -43.9768 	 -5.83451 	 -13.6712
| 29> C 	 -45.0847 	 -8.3833 	 -13.6135
| 30> H 	 -44.7803 	 -8.03793 	 -12.6327
| 31> H 	 -44.8009 	 -9.40537 	 -13.7074
| 32> C 	 -46.6198 	 -8.30096 	 -13.6031
| 33> H 	 -46.8692 	 -8.73223 	 -14.5636
| 34> H 	 -46.8246 	 -7.20386 	 -13.5841
| 35> C 	 -47.262 	 -9.16374 	 -12.4286
| 36> H 	 -46.9935 	 -8.61458 	 -11.5817
| 37> H 	 -46.8615 	 -10.1621 	 -12.327
| 38> H 	 -48.3166 	 -9.26674 	 -12.5179
| 39> H 	 -46.1779 	 -11.4594 	 -19.2945
| 40> H 	 -43.0925 	 -4.7668 	 -15.9496
| 41> *
| 42>
| 43>                          ****END OF INPUT****

CARTESIAN COORDINATES (ANGSTROEM)
---------------------------------
  S    -45.691300   -9.086660  -18.594700
  C    -46.112800  -10.795600  -18.489200
  C    -45.635600  -11.366800  -17.323600
  C    -45.161300  -10.387600  -16.382600
  C    -45.071000   -9.148900  -16.860000
  H    -44.703100  -10.568500  -15.442400
  C    -45.582300  -12.841100  -16.942000
  H    -44.971000  -13.029200  -16.053700
  H    -45.067200  -13.345400  -17.735200
  C    -46.893400  -13.482000  -16.874100
  H    -47.682300  -12.743400  -16.726400
  H    -47.134200  -13.884500  -17.815500
  C    -46.966800  -14.526200  -15.807500
  H    -48.001400  -14.974700  -15.635600
  H    -46.086400  -15.185800  -15.892300
  H    -46.924600  -14.047100  -14.786400
  S    -43.402600   -6.870160  -17.101000
  C    -43.346700   -5.787790  -15.752100
  C    -43.968400   -6.344010  -14.638600
  C    -44.442300   -7.653530  -14.808400
  C    -44.470900   -7.998830  -16.157500
  H    -43.976800   -5.834510  -13.671200
  C    -45.084700   -8.383300  -13.613500
  H    -44.780300   -8.037930  -12.632700
  H    -44.800900   -9.405370  -13.707400
  C    -46.619800   -8.300960  -13.603100
  H    -46.869200   -8.732230  -14.563600
  H    -46.824600   -7.203860  -13.584100
  C    -47.262000   -9.163740  -12.428600
  H    -46.993500   -8.614580  -11.581700
  H    -46.861500  -10.162100  -12.327000
  H    -48.316600   -9.266740  -12.517900
  H    -46.177900  -11.459400  -19.294500
  H    -43.092500   -4.766800  -15.949600

 Total Charge           Charge          ....    0
 Multiplicity           Mult            ....    1
 Number of Electrons    NEL             ....  134
 Basis Dimension        Dim             ....  322

ORBITAL ENERGIES
----------------

  NO   OCC          E(Eh)            E(eV)
   0   2.0000     -88.967154     -2420.9193
   1   2.0000     -88.966157     -2420.8922
   2   2.0000     -10.335971      -281.2561
   3   2.0000     -10.334343      -281.2118
   4   2.0000     -10.316519      -280.7268
   5   2.0000     -10.309769      -280.5431
   6   2.0000     -10.307523      -280.4820
   7   2.0000     -10.304649      -280.4038
   8   2.0000     -10.295459      -280.1537
   9   2.0000     -10.292109      -280.0625
  10   2.0000     -10.288841      -279.9736
  11   2.0000     -10.288300      -279.9589
  12   2.0000     -10.287095      -279.9261
  13   2.0000     -10.286968      -279.9226
  14   2.0000     -10.275898      -279.6214
  15   2.0000     -10.273542      -279.5573
  16   2.0000      -8.080468      -219.8807
  17   2.0000      -8.080187      -219.8731
  18   2.0000      -6.039062      -164.3312
  19   2.0000      -6.038961      -164.3285
  20   2.0000      -6.035139      -164.2245
  21   2.0000      -6.035036      -164.2217
  22   2.0000      -6.031272      -164.1193
  23   2.0000      -6.030448      -164.0968
  24   2.0000      -1.002562       -27.2811
  25   2.0000      -0.982665       -26.7397
  26   2.0000      -0.925804       -25.1924
  27   2.0000      -0.909347       -24.7446
  28   2.0000      -0.871030       -23.7019
  29   2.0000      -0.851755       -23.1774
  30   2.0000      -0.846063       -23.0226
  31   2.0000      -0.813425       -22.1344
  32   2.0000      -0.787766       -21.4362
  33   2.0000      -0.772717       -21.0267
  34   2.0000      -0.710875       -19.3439
  35   2.0000      -0.702415       -19.1137
  36   2.0000      -0.691346       -18.8125
  37   2.0000      -0.665610       -18.1122
  38   2.0000      -0.644730       -17.5440
  39   2.0000      -0.622132       -16.9291
  40   2.0000      -0.602200       -16.3867
  41   2.0000      -0.574555       -15.6344
  42   2.0000      -0.569530       -15.4977
  43   2.0000      -0.566392       -15.4123
  44   2.0000      -0.533279       -14.5113
  45   2.0000      -0.525026       -14.2867
  46   2.0000      -0.519579       -14.1385
  47   2.0000      -0.507598       -13.8124
  48   2.0000      -0.504836       -13.7373
  49   2.0000      -0.498573       -13.5669
  50   2.0000      -0.492374       -13.3982
  51   2.0000      -0.488854       -13.3024
  52   2.0000      -0.476821       -12.9750
  53   2.0000      -0.461388       -12.5550
  54   2.0000      -0.458515       -12.4768
  55   2.0000      -0.448792       -12.2122
  56   2.0000      -0.440656       -11.9909
  57   2.0000      -0.436539       -11.8788
  58   2.0000      -0.434738       -11.8298
  59   2.0000      -0.426629       -11.6092
  60   2.0000      -0.424139       -11.5414
  61   2.0000      -0.418323       -11.3832
  62   2.0000      -0.404098       -10.9961
  63   2.0000      -0.355275        -9.6675
  64   2.0000      -0.334887        -9.1127
  65   2.0000      -0.328235        -8.9317
  66   2.0000      -0.288207        -7.8425
  67   0.0000       0.014178         0.3858
  68   0.0000       0.066810         1.8180
  69   0.0000       0.097271         2.6469
  70   0.0000       0.120159         3.2697
  71   0.0000       0.128698         3.5021

MULLIKEN ATOMIC CHARGES
-----------------------
   0 S :    0.090126
   1 C :   -0.063066
   2 C :   -0.138618
   3 C :    0.005911
   4 C :   -0.097940
   5 H :   -0.001051
   6 C :    0.089140
   7 H :    0.021386
   8 H :    0.023107
   9 C :   -0.025500
  10 H :    0.026883
  11 H :    0.011989
  12 C :   -0.096065
  13 H :    0.043316
  14 H :    0.042971
  15 H :    0.026662
  16 S :    0.093544
  17 C :   -0.085091
  18 C :   -0.037114
  19 C :   -0.027382
  20 C :   -0.168861
  21 H :    0.024583
  22 C :    0.068433
  23 H :    0.011471
  24 H :    0.004087
  25 C :   -0.090840
  26 H :    0.032933
  27 H :    0.038559
  28 C :   -0.004556
  29 H :    0.017956
  30 H :    0.025544
  31 H :    0.038152
  32 H :    0.035280
  33 H :    0.064052
Sum of atomic charges:   -0.0000000

LOEWDIN ATOMIC CHARGES
----------------------
   0 S :    0.357791
   1 C :   -0.197826
   2 C :   -0.042898
   3 C :   -0.065427
   4 C :   -0.155085
   5 H :    0.027441
   6 C :   -0.031274
   7 H :    0.030441
   8 H :    0.034147
   9 C :   -0.048062
  10 H :    0.025578
  11 H :    0.017417
  12 C :   -0.075786
  13 H :    0.036503
  14 H :    0.026632
  15 H :    0.028063
  16 S :    0.386795
  17 C :   -0.187273
  18 C :   -0.070908
  19 C :   -0.052210
  20 C :   -0.171219
  21 H :    0.033947
  22 C :   -0.025549
  23 H :    0.024711
  24 H :    0.018216
  25 C :   -0.032498
  26 H :    0.020023
  27 H :    0.029090
  28 C :   -0.055354
  29 H :    0.018044
  30 H :    0.025522
  31 H :    0.025173
  32 H :    0.020203
  33 H :    0.025631

  Mayer bond orders larger than 0.100000
B(  0-S ,  1-C ) :   1.1104 B(  0-S ,  4-C ) :   1.1055 B(  1-C ,  2-C ) :   1.6659
B(  1-C , 32-H ) :   0.9559 B(  2-C ,  3-C ) :   1.2016 B(  2-C ,  6-C ) :   1.0322
B(  3-C ,  4-C ) :   1.6251 B(  3-C ,  5-H ) :   0.9946 B(  4-C , 20-C ) :   1.0693
B(  6-C ,  7-H ) :   0.9531 B(  6-C ,  8-H ) :   0.9201 B(  6-C ,  9-C ) :   1.0470
B(  9-C , 10-H ) :   0.9595 B(  9-C , 11-H ) :   0.9458 B(  9-C , 12-C ) :   1.0922
B( 12-C , 13-H ) :   0.9693 B( 12-C , 14-H ) :   0.9724 B( 12-C , 15-H ) :   0.9726
B( 16-S , 17-C ) :   1.1576 B( 16-S , 20-C ) :   1.1394 B( 17-C , 18-C ) :   1.5862
B( 17-C , 20-C ) :   0.1104 B( 17-C , 33-H ) :   0.9685 B( 18-C , 19-C ) :   1.2620
B( 18-C , 21-H ) :   0.9857 B( 19-C , 20-C ) :   1.5683 B( 19-C , 22-C ) :   1.0429
B( 22-C , 23-H ) :   0.9380 B( 22-C , 24-H ) :   0.9308 B( 22-C , 25-C ) :   1.0566
B( 25-C , 26-H ) :   0.9574 B( 25-C , 27-H ) :   0.9604 B( 25-C , 28-C ) :   1.0626
B( 28-C , 29-H ) :   0.9772 B( 28-C , 30-H ) :   0.9755 B( 28-C , 31-H ) :   0.9772

Dispersion correction           -0.014119524
FINAL SINGLE POINT ENERGY     -1339.845242241703

DIPOLE MOMENT
-------------
                                X             Y             Z
Electronic contribution:     13.38369      21.29644     -19.72639
Nuclear contribution   :    -13.40452     -21.71455      20.32313
                        -----------------------------------------
Total Dipole Moment    :     -0.02082      -0.41811       0.59674
                        -----------------------------------------
Magnitude (a.u.)       :      0.72893
Magnitude (Debye)      :      1.85280

Rotational constants in cm-1:     0.018187     0.008947     0.006546
Rotational constants in MHz :   545.237278   268.215087   196.229300

                             ****ORCA TERMINATED NORMALLY****
TOTAL RUN TIME: 0 days 0 hours 0 minutes 20 seconds 524 msec
