                         Program Version 4.2.1 -  RELEASE  -
|  1> ! wB97X-D3 SP def2-SVP
|  2> %pal
|  3> nprocs 24
|  4> end
|  5>
|  6> * xyz 0 1
|  7> S 	 -106.078 	 63.119 	 -98.2677
|  8> C 	 -107.398 	 62.1333 	 -98.9883
|  9> C 	 -107.017 	 60.8077 	 -98.8974
| 10> C 	 -105.806 	 60.5503 	 -98.205
| 11> C 	 -105.217 	 61.6815 	 -97.8134
| 12> H 	 -105.263 	 59.59 	 -98.0107
| 13> C 	 -107.82 	 59.5955 	 -99.3344
| 14> H 	 -108.902 	 59.6518 	 -99.3821
| 15> H 	 -107.717 	 58.9615 	 -98.4389
| 16> C 	 -107.334 	 58.9176 	 -100.623
| 17> H 	 -108.168 	 58.3151 	 -101.043
| 18> H 	 -107.122 	 59.7813 	 -101.302
| 19> C 	 -106.087 	 58.0215 	 -100.426
| 20> H 	 -105.224 	 58.6251 	 -100.552
| 21> H 	 -106.089 	 57.5183 	 -99.4562
| 22> H 	 -106.008 	 57.2026 	 -101.223
| 23> S 	 -102.757 	 63.1206 	 -97.6785
| 24> C 	 -101.51 	 62.5274 	 -96.6245
| 25> C 	 -101.939 	 61.4846 	 -95.8225
| 26> C 	 -103.283 	 61.0644 	 -96.1362
| 27> C 	 -103.879 	 61.8262 	 -97.1588
| 28> H 	 -101.28 	 61.1061 	 -95.0321
| 29> C 	 -103.885 	 59.8684 	 -95.4111
| 30> H 	 -102.991 	 59.3173 	 -95.0425
| 31> H 	 -104.405 	 59.2849 	 -96.1377
| 32> C 	 -104.922 	 60.1307 	 -94.2494
| 33> H 	 -105.643 	 60.9116 	 -94.4883
| 34> H 	 -104.27 	 60.6357 	 -93.511
| 35> C 	 -105.582 	 58.9201 	 -93.7396
| 36> H 	 -106.083 	 59.0745 	 -92.8155
| 37> H 	 -104.969 	 58.0638 	 -93.6611
| 38> H 	 -106.396 	 58.5533 	 -94.4503
| 39> H 	 -108.238 	 62.4882 	 -99.5386
| 40> H 	 -100.465 	 62.8361 	 -96.5821
| 41> *
| 42>
| 43>                          ****END OF INPUT****

CARTESIAN COORDINATES (ANGSTROEM)
---------------------------------
  S    -106.078000   63.119000  -98.267700
  C    -107.398000   62.133300  -98.988300
  C    -107.017000   60.807700  -98.897400
  C    -105.806000   60.550300  -98.205000
  C    -105.217000   61.681500  -97.813400
  H    -105.263000   59.590000  -98.010700
  C    -107.820000   59.595500  -99.334400
  H    -108.902000   59.651800  -99.382100
  H    -107.717000   58.961500  -98.438900
  C    -107.334000   58.917600  -100.623000
  H    -108.168000   58.315100  -101.043000
  H    -107.122000   59.781300  -101.302000
  C    -106.087000   58.021500  -100.426000
  H    -105.224000   58.625100  -100.552000
  H    -106.089000   57.518300  -99.456200
  H    -106.008000   57.202600  -101.223000
  S    -102.757000   63.120600  -97.678500
  C    -101.510000   62.527400  -96.624500
  C    -101.939000   61.484600  -95.822500
  C    -103.283000   61.064400  -96.136200
  C    -103.879000   61.826200  -97.158800
  H    -101.280000   61.106100  -95.032100
  C    -103.885000   59.868400  -95.411100
  H    -102.991000   59.317300  -95.042500
  H    -104.405000   59.284900  -96.137700
  C    -104.922000   60.130700  -94.249400
  H    -105.643000   60.911600  -94.488300
  H    -104.270000   60.635700  -93.511000
  C    -105.582000   58.920100  -93.739600
  H    -106.083000   59.074500  -92.815500
  H    -104.969000   58.063800  -93.661100
  H    -106.396000   58.553300  -94.450300
  H    -108.238000   62.488200  -99.538600
  H    -100.465000   62.836100  -96.582100

 Total Charge           Charge          ....    0
 Multiplicity           Mult            ....    1
 Number of Electrons    NEL             ....  134
 Basis Dimension        Dim             ....  322

ORBITAL ENERGIES
----------------

  NO   OCC          E(Eh)            E(eV)
   0   2.0000     -88.970079     -2420.9989
   1   2.0000     -88.965195     -2420.8660
   2   2.0000     -10.334157      -281.2067
   3   2.0000     -10.329786      -281.0878
   4   2.0000     -10.318391      -280.7777
   5   2.0000     -10.315900      -280.7099
   6   2.0000     -10.308419      -280.5063
   7   2.0000     -10.303120      -280.3622
   8   2.0000     -10.296641      -280.1858
   9   2.0000     -10.294283      -280.1217
  10   2.0000     -10.291402      -280.0433
  11   2.0000     -10.291351      -280.0419
  12   2.0000     -10.288447      -279.9629
  13   2.0000     -10.285323      -279.8779
  14   2.0000     -10.280651      -279.7507
  15   2.0000     -10.274058      -279.5713
  16   2.0000      -8.084039      -219.9779
  17   2.0000      -8.079614      -219.8575
  18   2.0000      -6.042647      -164.4288
  19   2.0000      -6.038640      -164.3197
  20   2.0000      -6.038265      -164.3096
  21   2.0000      -6.034761      -164.2142
  22   2.0000      -6.034229      -164.1997
  23   2.0000      -6.030182      -164.0896
  24   2.0000      -1.006338       -27.3838
  25   2.0000      -0.982594       -26.7377
  26   2.0000      -0.909735       -24.7552
  27   2.0000      -0.908082       -24.7102
  28   2.0000      -0.865024       -23.5385
  29   2.0000      -0.856325       -23.3018
  30   2.0000      -0.843416       -22.9505
  31   2.0000      -0.816886       -22.2286
  32   2.0000      -0.783310       -21.3149
  33   2.0000      -0.771830       -21.0026
  34   2.0000      -0.706849       -19.2343
  35   2.0000      -0.701099       -19.0779
  36   2.0000      -0.691016       -18.8035
  37   2.0000      -0.658656       -17.9229
  38   2.0000      -0.642630       -17.4869
  39   2.0000      -0.619327       -16.8527
  40   2.0000      -0.592746       -16.1295
  41   2.0000      -0.571513       -15.5517
  42   2.0000      -0.560976       -15.2649
  43   2.0000      -0.541851       -14.7445
  44   2.0000      -0.535044       -14.5593
  45   2.0000      -0.528619       -14.3845
  46   2.0000      -0.517180       -14.0732
  47   2.0000      -0.514253       -13.9935
  48   2.0000      -0.508228       -13.8296
  49   2.0000      -0.499389       -13.5891
  50   2.0000      -0.490836       -13.3563
  51   2.0000      -0.483950       -13.1689
  52   2.0000      -0.476957       -12.9787
  53   2.0000      -0.466380       -12.6909
  54   2.0000      -0.459459       -12.5025
  55   2.0000      -0.451225       -12.2784
  56   2.0000      -0.438258       -11.9256
  57   2.0000      -0.435775       -11.8580
  58   2.0000      -0.431610       -11.7447
  59   2.0000      -0.427083       -11.6215
  60   2.0000      -0.418890       -11.3986
  61   2.0000      -0.408039       -11.1033
  62   2.0000      -0.405842       -11.0435
  63   2.0000      -0.352700        -9.5974
  64   2.0000      -0.333713        -9.0808
  65   2.0000      -0.330352        -8.9893
  66   2.0000      -0.290935        -7.9167
  67   0.0000       0.027699         0.7537
  68   0.0000       0.070797         1.9265
  69   0.0000       0.103194         2.8081
  70   0.0000       0.116204         3.1621
  71   0.0000       0.137609         3.7445

MULLIKEN ATOMIC CHARGES
-----------------------
   0 S :    0.088049
   1 C :   -0.108206
   2 C :   -0.060848
   3 C :   -0.021019
   4 C :   -0.113337
   5 H :    0.042459
   6 C :    0.024621
   7 H :    0.018500
   8 H :    0.024785
   9 C :   -0.083054
  10 H :    0.037875
  11 H :    0.041945
  12 C :   -0.060540
  13 H :    0.039843
  14 H :    0.033756
  15 H :    0.041144
  16 S :    0.112201
  17 C :   -0.095960
  18 C :   -0.048043
  19 C :   -0.056470
  20 C :   -0.140703
  21 H :    0.030049
  22 C :    0.059802
  23 H :    0.029936
  24 H :   -0.002177
  25 C :   -0.058049
  26 H :    0.038704
  27 H :    0.021145
  28 C :   -0.016377
  29 H :    0.031260
  30 H :    0.015963
  31 H :    0.029194
  32 H :    0.041480
  33 H :    0.062073
Sum of atomic charges:   -0.0000000

LOEWDIN ATOMIC CHARGES
----------------------
   0 S :    0.383224
   1 C :   -0.183370
   2 C :   -0.055975
   3 C :   -0.080782
   4 C :   -0.179843
   5 H :    0.045119
   6 C :   -0.040849
   7 H :    0.027910
   8 H :    0.030688
   9 C :   -0.043564
  10 H :    0.026434
  11 H :    0.032362
  12 C :   -0.071287
  13 H :    0.022292
  14 H :    0.022399
  15 H :    0.034463
  16 S :    0.398300
  17 C :   -0.192272
  18 C :   -0.078064
  19 C :   -0.054636
  20 C :   -0.189666
  21 H :    0.036335
  22 C :   -0.029584
  23 H :    0.034804
  24 H :    0.017308
  25 C :   -0.041783
  26 H :    0.029636
  27 H :    0.024734
  28 C :   -0.065647
  29 H :    0.026213
  30 H :    0.018778
  31 H :    0.033767
  32 H :    0.027086
  33 H :    0.035470

  Mayer bond orders larger than 0.100000
B(  0-S ,  1-C ) :   1.0995 B(  0-S ,  4-C ) :   1.1475 B(  1-C ,  2-C ) :   1.6413
B(  1-C , 32-H ) :   0.9779 B(  2-C ,  3-C ) :   1.2064 B(  2-C ,  6-C ) :   1.0058
B(  3-C ,  4-C ) :   1.6272 B(  3-C ,  5-H ) :   0.9744 B(  4-C , 20-C ) :   1.0204
B(  6-C ,  7-H ) :   0.9503 B(  6-C ,  8-H ) :   0.9497 B(  6-C ,  9-C ) :   1.0606
B(  9-C , 10-H ) :   0.9615 B(  9-C , 11-H ) :   0.9562 B(  9-C , 12-C ) :   1.0728
B( 12-C , 13-H ) :   0.9740 B( 12-C , 14-H ) :   0.9748 B( 12-C , 15-H ) :   0.9741
B( 16-S , 17-C ) :   1.1588 B( 16-S , 20-C ) :   1.1280 B( 17-C , 18-C ) :   1.6175
B( 17-C , 33-H ) :   0.9619 B( 18-C , 19-C ) :   1.2493 B( 18-C , 21-H ) :   0.9842
B( 19-C , 20-C ) :   1.5929 B( 19-C , 22-C ) :   1.0401 B( 22-C , 23-H ) :   0.9341
B( 22-C , 24-H ) :   0.9346 B( 22-C , 25-C ) :   1.0513 B( 25-C , 26-H ) :   0.9563
B( 25-C , 27-H ) :   0.9521 B( 25-C , 28-C ) :   1.0927 B( 28-C , 29-H ) :   0.9692
B( 28-C , 30-H ) :   0.9719 B( 28-C , 31-H ) :   0.9674

Dispersion correction           -0.014498430
FINAL SINGLE POINT ENERGY     -1339.874713542208

DIPOLE MOMENT
-------------
                                X             Y             Z
Electronic contribution:      9.19088      26.07318      -4.40009
Nuclear contribution   :     -9.22525     -26.73746       4.56994
                        -----------------------------------------
Total Dipole Moment    :     -0.03437      -0.66428       0.16985
                        -----------------------------------------
Magnitude (a.u.)       :      0.68651
Magnitude (Debye)      :      1.74497

Rotational constants in cm-1:     0.016212     0.009536     0.007621
Rotational constants in MHz :   486.037229   285.877336   228.463983

                             ****ORCA TERMINATED NORMALLY****
TOTAL RUN TIME: 0 days 0 hours 0 minutes 20 seconds 715 msec
