                         Program Version 4.2.1 -  RELEASE  -
|  1> ! wB97X-D3 SP def2-SVP
|  2> %pal
|  3> nprocs 24
|  4> end
|  5>
|  6> * xyz 0 1
|  7> S 	 39.0248 	 -26.291 	 -126.485
|  8> C 	 38.5787 	 -24.5637 	 -126.314
|  9> C 	 39.6049 	 -23.7198 	 -126.583
| 10> C 	 40.6462 	 -24.4788 	 -127.226
| 11> C 	 40.4897 	 -25.8355 	 -127.262
| 12> H 	 41.5364 	 -24.041 	 -127.707
| 13> C 	 39.4284 	 -22.2185 	 -126.513
| 14> H 	 39.2004 	 -22.1223 	 -125.537
| 15> H 	 38.5325 	 -21.8992 	 -127.105
| 16> C 	 40.6918 	 -21.3702 	 -126.81
| 17> H 	 41.1216 	 -21.7954 	 -127.69
| 18> H 	 40.3426 	 -20.338 	 -126.929
| 19> C 	 41.7597 	 -21.3246 	 -125.755
| 20> H 	 42.6566 	 -20.7508 	 -126.119
| 21> H 	 41.3559 	 -20.8349 	 -124.846
| 22> H 	 41.9878 	 -22.3074 	 -125.465
| 23> S 	 41.3278 	 -27.5132 	 -129.093
| 24> C 	 42.7744 	 -28.4338 	 -128.834
| 25> C 	 43.3865 	 -28.0834 	 -127.687
| 26> C 	 42.74 	 -27.0526 	 -126.989
| 27> C 	 41.5881 	 -26.6369 	 -127.673
| 28> H 	 44.4164 	 -28.3774 	 -127.469
| 29> C 	 43.2185 	 -26.4863 	 -125.677
| 30> H 	 43.2916 	 -25.4473 	 -125.845
| 31> H 	 44.2089 	 -26.8531 	 -125.556
| 32> C 	 42.3181 	 -26.7544 	 -124.476
| 33> H 	 42.1907 	 -27.8144 	 -124.424
| 34> H 	 41.3216 	 -26.3306 	 -124.707
| 35> C 	 42.8058 	 -26.1564 	 -123.2
| 36> H 	 42.975 	 -25.0875 	 -123.328
| 37> H 	 43.7501 	 -26.6012 	 -122.996
| 38> H 	 42.0927 	 -26.3792 	 -122.455
| 39> H 	 37.6645 	 -24.1946 	 -125.889
| 40> H 	 43.2865 	 -29.161 	 -129.578
| 41> *
| 42>
| 43>                          ****END OF INPUT****

CARTESIAN COORDINATES (ANGSTROEM)
---------------------------------
  S     39.024800  -26.291000  -126.485000
  C     38.578700  -24.563700  -126.314000
  C     39.604900  -23.719800  -126.583000
  C     40.646200  -24.478800  -127.226000
  C     40.489700  -25.835500  -127.262000
  H     41.536400  -24.041000  -127.707000
  C     39.428400  -22.218500  -126.513000
  H     39.200400  -22.122300  -125.537000
  H     38.532500  -21.899200  -127.105000
  C     40.691800  -21.370200  -126.810000
  H     41.121600  -21.795400  -127.690000
  H     40.342600  -20.338000  -126.929000
  C     41.759700  -21.324600  -125.755000
  H     42.656600  -20.750800  -126.119000
  H     41.355900  -20.834900  -124.846000
  H     41.987800  -22.307400  -125.465000
  S     41.327800  -27.513200  -129.093000
  C     42.774400  -28.433800  -128.834000
  C     43.386500  -28.083400  -127.687000
  C     42.740000  -27.052600  -126.989000
  C     41.588100  -26.636900  -127.673000
  H     44.416400  -28.377400  -127.469000
  C     43.218500  -26.486300  -125.677000
  H     43.291600  -25.447300  -125.845000
  H     44.208900  -26.853100  -125.556000
  C     42.318100  -26.754400  -124.476000
  H     42.190700  -27.814400  -124.424000
  H     41.321600  -26.330600  -124.707000
  C     42.805800  -26.156400  -123.200000
  H     42.975000  -25.087500  -123.328000
  H     43.750100  -26.601200  -122.996000
  H     42.092700  -26.379200  -122.455000
  H     37.664500  -24.194600  -125.889000
  H     43.286500  -29.161000  -129.578000

 Total Charge           Charge          ....    0
 Multiplicity           Mult            ....    1
 Number of Electrons    NEL             ....  134
 Basis Dimension        Dim             ....  322

ORBITAL ENERGIES
----------------

  NO   OCC          E(Eh)            E(eV)
   0   2.0000     -88.967958     -2420.9412
   1   2.0000     -88.963968     -2420.8326
   2   2.0000     -10.317955      -280.7658
   3   2.0000     -10.315740      -280.7056
   4   2.0000     -10.313321      -280.6397
   5   2.0000     -10.310670      -280.5676
   6   2.0000     -10.298134      -280.2265
   7   2.0000     -10.296469      -280.1812
   8   2.0000     -10.290976      -280.0317
   9   2.0000     -10.289110      -279.9809
  10   2.0000     -10.285229      -279.8753
  11   2.0000     -10.284628      -279.8590
  12   2.0000     -10.278658      -279.6965
  13   2.0000     -10.278039      -279.6797
  14   2.0000     -10.272991      -279.5423
  15   2.0000     -10.265302      -279.3331
  16   2.0000      -8.081927      -219.9204
  17   2.0000      -8.080095      -219.8706
  18   2.0000      -6.040513      -164.3707
  19   2.0000      -6.038376      -164.3126
  20   2.0000      -6.036621      -164.2648
  21   2.0000      -6.034281      -164.2011
  22   2.0000      -6.032545      -164.1539
  23   2.0000      -6.031142      -164.1157
  24   2.0000      -1.016597       -27.6630
  25   2.0000      -0.989719       -26.9316
  26   2.0000      -0.919359       -25.0170
  27   2.0000      -0.913921       -24.8691
  28   2.0000      -0.879175       -23.9236
  29   2.0000      -0.856231       -23.2992
  30   2.0000      -0.847959       -23.0741
  31   2.0000      -0.817016       -22.2321
  32   2.0000      -0.788399       -21.4534
  33   2.0000      -0.771104       -20.9828
  34   2.0000      -0.711668       -19.3655
  35   2.0000      -0.696185       -18.9442
  36   2.0000      -0.688842       -18.7443
  37   2.0000      -0.659118       -17.9355
  38   2.0000      -0.637512       -17.3476
  39   2.0000      -0.622024       -16.9261
  40   2.0000      -0.594899       -16.1880
  41   2.0000      -0.572799       -15.5866
  42   2.0000      -0.565812       -15.3965
  43   2.0000      -0.555057       -15.1039
  44   2.0000      -0.544757       -14.8236
  45   2.0000      -0.531180       -14.4541
  46   2.0000      -0.525324       -14.2948
  47   2.0000      -0.508507       -13.8372
  48   2.0000      -0.504301       -13.7227
  49   2.0000      -0.499245       -13.5852
  50   2.0000      -0.491732       -13.3807
  51   2.0000      -0.486301       -13.2329
  52   2.0000      -0.473449       -12.8832
  53   2.0000      -0.466368       -12.6905
  54   2.0000      -0.455829       -12.4037
  55   2.0000      -0.448934       -12.2161
  56   2.0000      -0.444386       -12.0923
  57   2.0000      -0.438501       -11.9322
  58   2.0000      -0.433139       -11.7863
  59   2.0000      -0.426027       -11.5928
  60   2.0000      -0.420597       -11.4450
  61   2.0000      -0.418863       -11.3978
  62   2.0000      -0.411451       -11.1962
  63   2.0000      -0.339177        -9.2295
  64   2.0000      -0.331524        -9.0212
  65   2.0000      -0.322375        -8.7723
  66   2.0000      -0.303753        -8.2655
  67   0.0000       0.040686         1.1071
  68   0.0000       0.060670         1.6509
  69   0.0000       0.115311         3.1378
  70   0.0000       0.124223         3.3803
  71   0.0000       0.130588         3.5535

MULLIKEN ATOMIC CHARGES
-----------------------
   0 S :    0.122783
   1 C :   -0.129704
   2 C :   -0.077316
   3 C :   -0.013568
   4 C :   -0.119842
   5 H :    0.021319
   6 C :    0.095595
   7 H :   -0.006475
   8 H :    0.058079
   9 C :   -0.069159
  10 H :    0.026651
  11 H :    0.031235
  12 C :   -0.044417
  13 H :    0.051847
  14 H :    0.026800
  15 H :    0.016754
  16 S :    0.126497
  17 C :   -0.117152
  18 C :   -0.041720
  19 C :   -0.061368
  20 C :   -0.228821
  21 H :    0.021310
  22 C :    0.150947
  23 H :    0.005675
  24 H :   -0.009337
  25 C :   -0.101767
  26 H :    0.019274
  27 H :    0.038031
  28 C :    0.025487
  29 H :    0.024351
  30 H :    0.011809
  31 H :    0.031584
  32 H :    0.033529
  33 H :    0.081089
Sum of atomic charges:    0.0000000

LOEWDIN ATOMIC CHARGES
----------------------
   0 S :    0.404423
   1 C :   -0.176354
   2 C :   -0.063858
   3 C :   -0.066682
   4 C :   -0.221254
   5 H :    0.031213
   6 C :   -0.025480
   7 H :    0.016184
   8 H :    0.045364
   9 C :   -0.039702
  10 H :    0.018806
  11 H :    0.028877
  12 C :   -0.062535
  13 H :    0.037003
  14 H :    0.026644
  15 H :    0.013756
  16 S :    0.449815
  17 C :   -0.207078
  18 C :   -0.084008
  19 C :   -0.048331
  20 C :   -0.224970
  21 H :    0.034311
  22 C :   -0.025307
  23 H :    0.024878
  24 H :    0.021210
  25 C :   -0.038478
  26 H :    0.019304
  27 H :    0.022744
  28 C :   -0.052745
  29 H :    0.026306
  30 H :    0.019356
  31 H :    0.024583
  32 H :    0.022600
  33 H :    0.049407

  Mayer bond orders larger than 0.100000
B(  0-S ,  1-C ) :   1.1268 B(  0-S ,  4-C ) :   1.1271 B(  1-C ,  2-C ) :   1.6491
B(  1-C , 32-H ) :   0.9696 B(  2-C ,  3-C ) :   1.2118 B(  2-C ,  6-C ) :   0.9866
B(  3-C ,  4-C ) :   1.5973 B(  3-C ,  5-H ) :   0.9859 B(  4-C , 20-C ) :   1.0281
B(  6-C ,  7-H ) :   0.9226 B(  6-C ,  8-H ) :   0.9472 B(  6-C ,  9-C ) :   1.0804
B(  9-C , 10-H ) :   0.9531 B(  9-C , 11-H ) :   0.9531 B(  9-C , 12-C ) :   1.0890
B( 12-C , 13-H ) :   0.9721 B( 12-C , 14-H ) :   0.9704 B( 12-C , 15-H ) :   0.9770
B( 16-S , 17-C ) :   1.1697 B( 16-S , 20-C ) :   1.1758 B( 17-C , 18-C ) :   1.5959
B( 17-C , 33-H ) :   0.9508 B( 18-C , 19-C ) :   1.2968 B( 18-C , 21-H ) :   0.9777
B( 19-C , 20-C ) :   1.5555 B( 19-C , 22-C ) :   1.0352 B( 22-C , 23-H ) :   0.9192
B( 22-C , 24-H ) :   0.9185 B( 22-C , 25-C ) :   1.0694 B( 25-C , 26-H ) :   0.9531
B( 25-C , 27-H ) :   0.9483 B( 25-C , 28-C ) :   1.0970 B( 28-C , 29-H ) :   0.9705
B( 28-C , 30-H ) :   0.9701 B( 28-C , 31-H ) :   0.9703

Dispersion correction           -0.015357253
FINAL SINGLE POINT ENERGY     -1339.864603239820

DIPOLE MOMENT
-------------
                                X             Y             Z
Electronic contribution:    -10.55781     -18.72478     -16.97742
Nuclear contribution   :     10.85583      19.23342      17.25299
                        -----------------------------------------
Total Dipole Moment    :      0.29801       0.50863       0.27557
                        -----------------------------------------
Magnitude (a.u.)       :      0.65074
Magnitude (Debye)      :      1.65404

Rotational constants in cm-1:     0.017696     0.009745     0.008382
Rotational constants in MHz :   530.500482   292.132821   251.276325

                             ****ORCA TERMINATED NORMALLY****
TOTAL RUN TIME: 0 days 0 hours 0 minutes 21 seconds 817 msec
