                         Program Version 4.2.1 -  RELEASE  -
|  1> ! wB97X-D3 SP def2-SVP
|  2> %pal
|  3> nprocs 24
|  4> end
|  5>
|  6> * xyz 0 1
|  7> S 	 -132.943 	 63.4071 	 -60.0037
|  8> C 	 -133.246 	 65.0926 	 -60.524
|  9> C 	 -134.524 	 65.4854 	 -60.1493
| 10> C 	 -135.229 	 64.4708 	 -59.4269
| 11> C 	 -134.513 	 63.2525 	 -59.2423
| 12> H 	 -136.142 	 64.5363 	 -58.8604
| 13> C 	 -135.114 	 66.8477 	 -60.4613
| 14> H 	 -134.342 	 67.4996 	 -60.6428
| 15> H 	 -135.576 	 67.1992 	 -59.4841
| 16> C 	 -136.147 	 66.9579 	 -61.629
| 17> H 	 -136.958 	 66.2596 	 -61.6323
| 18> H 	 -136.679 	 67.9208 	 -61.5691
| 19> C 	 -135.489 	 66.7382 	 -62.9207
| 20> H 	 -136.028 	 67.0897 	 -63.8148
| 21> H 	 -134.575 	 67.2244 	 -63.0634
| 22> H 	 -135.294 	 65.6984 	 -63.0672
| 23> S 	 -134.8 	 60.5026 	 -59.6179
| 24> C 	 -135.646 	 59.5553 	 -58.4202
| 25> C 	 -136.141 	 60.3446 	 -57.3748
| 26> C 	 -135.735 	 61.7025 	 -57.5105
| 27> C 	 -135.029 	 61.9851 	 -58.7017
| 28> H 	 -136.803 	 59.9096 	 -56.6222
| 29> C 	 -136.367 	 62.6866 	 -56.5255
| 30> H 	 -137.308 	 62.1855 	 -56.36
| 31> H 	 -136.655 	 63.5987 	 -57.0194
| 32> C 	 -135.622 	 62.8877 	 -55.2543
| 33> H 	 -135.345 	 61.9225 	 -54.828
| 34> H 	 -136.257 	 63.4143 	 -54.5048
| 35> C 	 -134.417 	 63.8044 	 -55.3223
| 36> H 	 -134.755 	 64.8551 	 -55.261
| 37> H 	 -134.01 	 63.8391 	 -56.3486
| 38> H 	 -133.683 	 63.6047 	 -54.5556
| 39> H 	 -132.567 	 65.5434 	 -61.1379
| 40> H 	 -135.85 	 58.5668 	 -58.4891
| 41> *
| 42>
| 43>                          ****END OF INPUT****

CARTESIAN COORDINATES (ANGSTROEM)
---------------------------------
  S    -132.943000   63.407100  -60.003700
  C    -133.246000   65.092600  -60.524000
  C    -134.524000   65.485400  -60.149300
  C    -135.229000   64.470800  -59.426900
  C    -134.513000   63.252500  -59.242300
  H    -136.142000   64.536300  -58.860400
  C    -135.114000   66.847700  -60.461300
  H    -134.342000   67.499600  -60.642800
  H    -135.576000   67.199200  -59.484100
  C    -136.147000   66.957900  -61.629000
  H    -136.958000   66.259600  -61.632300
  H    -136.679000   67.920800  -61.569100
  C    -135.489000   66.738200  -62.920700
  H    -136.028000   67.089700  -63.814800
  H    -134.575000   67.224400  -63.063400
  H    -135.294000   65.698400  -63.067200
  S    -134.800000   60.502600  -59.617900
  C    -135.646000   59.555300  -58.420200
  C    -136.141000   60.344600  -57.374800
  C    -135.735000   61.702500  -57.510500
  C    -135.029000   61.985100  -58.701700
  H    -136.803000   59.909600  -56.622200
  C    -136.367000   62.686600  -56.525500
  H    -137.308000   62.185500  -56.360000
  H    -136.655000   63.598700  -57.019400
  C    -135.622000   62.887700  -55.254300
  H    -135.345000   61.922500  -54.828000
  H    -136.257000   63.414300  -54.504800
  C    -134.417000   63.804400  -55.322300
  H    -134.755000   64.855100  -55.261000
  H    -134.010000   63.839100  -56.348600
  H    -133.683000   63.604700  -54.555600
  H    -132.567000   65.543400  -61.137900
  H    -135.850000   58.566800  -58.489100

 Total Charge           Charge          ....    0
 Multiplicity           Mult            ....    1
 Number of Electrons    NEL             ....  134
 Basis Dimension        Dim             ....  322

ORBITAL ENERGIES
----------------

  NO   OCC          E(Eh)            E(eV)
   0   2.0000     -88.970433     -2421.0086
   1   2.0000     -88.966103     -2420.8907
   2   2.0000     -10.337494      -281.2975
   3   2.0000     -10.333617      -281.1920
   4   2.0000     -10.314444      -280.6703
   5   2.0000     -10.314192      -280.6634
   6   2.0000     -10.307972      -280.4942
   7   2.0000     -10.306363      -280.4504
   8   2.0000     -10.297857      -280.2189
   9   2.0000     -10.297535      -280.2102
  10   2.0000     -10.293926      -280.1120
  11   2.0000     -10.287761      -279.9442
  12   2.0000     -10.284170      -279.8465
  13   2.0000     -10.281729      -279.7801
  14   2.0000     -10.270095      -279.4635
  15   2.0000     -10.263784      -279.2918
  16   2.0000      -8.084795      -219.9985
  17   2.0000      -8.080206      -219.8736
  18   2.0000      -6.043290      -164.4463
  19   2.0000      -6.039244      -164.3362
  20   2.0000      -6.038705      -164.3215
  21   2.0000      -6.035703      -164.2398
  22   2.0000      -6.034637      -164.2108
  23   2.0000      -6.031172      -164.1165
  24   2.0000      -1.001818       -27.2609
  25   2.0000      -0.980313       -26.6757
  26   2.0000      -0.916042       -24.9268
  27   2.0000      -0.914174       -24.8759
  28   2.0000      -0.870890       -23.6981
  29   2.0000      -0.851013       -23.1572
  30   2.0000      -0.846569       -23.0363
  31   2.0000      -0.814058       -22.1516
  32   2.0000      -0.785052       -21.3624
  33   2.0000      -0.776008       -21.1163
  34   2.0000      -0.711806       -19.3692
  35   2.0000      -0.702600       -19.1187
  36   2.0000      -0.693121       -18.8608
  37   2.0000      -0.662640       -18.0313
  38   2.0000      -0.650835       -17.7101
  39   2.0000      -0.619728       -16.8637
  40   2.0000      -0.600062       -16.3285
  41   2.0000      -0.571702       -15.5568
  42   2.0000      -0.555873       -15.1261
  43   2.0000      -0.552508       -15.0345
  44   2.0000      -0.540572       -14.7097
  45   2.0000      -0.537623       -14.6295
  46   2.0000      -0.529642       -14.4123
  47   2.0000      -0.514969       -14.0130
  48   2.0000      -0.506136       -13.7727
  49   2.0000      -0.500192       -13.6109
  50   2.0000      -0.490788       -13.3550
  51   2.0000      -0.483186       -13.1482
  52   2.0000      -0.470546       -12.8042
  53   2.0000      -0.462304       -12.5799
  54   2.0000      -0.458892       -12.4871
  55   2.0000      -0.446142       -12.1402
  56   2.0000      -0.443563       -12.0700
  57   2.0000      -0.440385       -11.9835
  58   2.0000      -0.430809       -11.7229
  59   2.0000      -0.427549       -11.6342
  60   2.0000      -0.420503       -11.4425
  61   2.0000      -0.412075       -11.2131
  62   2.0000      -0.399314       -10.8659
  63   2.0000      -0.346349        -9.4246
  64   2.0000      -0.334524        -9.1029
  65   2.0000      -0.330314        -8.9883
  66   2.0000      -0.290105        -7.8942
  67   0.0000       0.023085         0.6282
  68   0.0000       0.067784         1.8445
  69   0.0000       0.107954         2.9376
  70   0.0000       0.112688         3.0664
  71   0.0000       0.129934         3.5357

MULLIKEN ATOMIC CHARGES
-----------------------
   0 S :    0.092323
   1 C :   -0.101029
   2 C :   -0.072233
   3 C :    0.037150
   4 C :   -0.161855
   5 H :    0.003135
   6 C :    0.079557
   7 H :    0.000850
   8 H :    0.036107
   9 C :   -0.028592
  10 H :    0.022205
  11 H :    0.028015
  12 C :   -0.038525
  13 H :    0.026891
  14 H :   -0.000246
  15 H :    0.033840
  16 S :    0.118705
  17 C :   -0.052797
  18 C :   -0.049711
  19 C :   -0.046346
  20 C :   -0.147627
  21 H :    0.034157
  22 C :    0.078071
  23 H :    0.016230
  24 H :    0.005536
  25 C :   -0.052741
  26 H :    0.023082
  27 H :    0.030109
  28 C :   -0.046324
  29 H :    0.018716
  30 H :    0.033535
  31 H :    0.042296
  32 H :    0.020307
  33 H :    0.017212
Sum of atomic charges:    0.0000000

LOEWDIN ATOMIC CHARGES
----------------------
   0 S :    0.391194
   1 C :   -0.170320
   2 C :   -0.058315
   3 C :   -0.064826
   4 C :   -0.192050
   5 H :    0.025631
   6 C :   -0.021529
   7 H :    0.017577
   8 H :    0.039353
   9 C :   -0.038787
  10 H :    0.024144
  11 H :    0.027105
  12 C :   -0.066585
  13 H :    0.030727
  14 H :    0.012366
  15 H :    0.026587
  16 S :    0.416523
  17 C :   -0.169104
  18 C :   -0.069625
  19 C :   -0.052796
  20 C :   -0.204564
  21 H :    0.036906
  22 C :   -0.028669
  23 H :    0.033755
  24 H :    0.022380
  25 C :   -0.045826
  26 H :    0.023009
  27 H :    0.028641
  28 C :   -0.069107
  29 H :    0.025764
  30 H :    0.028722
  31 H :    0.026784
  32 H :    0.007954
  33 H :    0.006981

  Mayer bond orders larger than 0.100000
B(  0-S ,  1-C ) :   1.1351 B(  0-S ,  4-C ) :   1.1594 B(  1-C ,  2-C ) :   1.5758
B(  1-C ,  4-C ) :   0.1025 B(  1-C , 32-H ) :   0.9882 B(  2-C ,  3-C ) :   1.2496
B(  2-C ,  6-C ) :   1.0262 B(  3-C ,  4-C ) :   1.5494 B(  3-C ,  5-H ) :   0.9912
B(  4-C , 20-C ) :   1.0525 B(  6-C ,  7-H ) :   0.9424 B(  6-C ,  8-H ) :   0.9395
B(  6-C ,  9-C ) :   1.0631 B(  9-C , 10-H ) :   0.9579 B(  9-C , 11-H ) :   0.9555
B(  9-C , 12-C ) :   1.0765 B( 12-C , 13-H ) :   0.9675 B( 12-C , 14-H ) :   0.9733
B( 12-C , 15-H ) :   0.9745 B( 16-S , 17-C ) :   1.1703 B( 16-S , 20-C ) :   1.1432
B( 17-C , 18-C ) :   1.5878 B( 17-C , 20-C ) :   0.1029 B( 17-C , 33-H ) :   0.9787
B( 18-C , 19-C ) :   1.2705 B( 18-C , 21-H ) :   0.9836 B( 19-C , 20-C ) :   1.5631
B( 19-C , 22-C ) :   1.0163 B( 22-C , 23-H ) :   0.9316 B( 22-C , 24-H ) :   0.9424
B( 22-C , 25-C ) :   1.0819 B( 25-C , 26-H ) :   0.9544 B( 25-C , 27-H ) :   0.9545
B( 25-C , 28-C ) :   1.0713 B( 28-C , 29-H ) :   0.9731 B( 28-C , 30-H ) :   0.9774
B( 28-C , 31-H ) :   0.9744

Dispersion correction           -0.014752928
FINAL SINGLE POINT ENERGY     -1339.865462220640

DIPOLE MOMENT
-------------
                                X             Y             Z
Electronic contribution:      9.47989     -19.71219      -5.47568
Nuclear contribution   :    -10.01319      20.03116       5.61805
                        -----------------------------------------
Total Dipole Moment    :     -0.53330       0.31897       0.14237
                        -----------------------------------------
Magnitude (a.u.)       :      0.63751
Magnitude (Debye)      :      1.62042

Rotational constants in cm-1:     0.019920     0.008319     0.007177
Rotational constants in MHz :   597.184112   249.387645   215.164202

                             ****ORCA TERMINATED NORMALLY****
TOTAL RUN TIME: 0 days 0 hours 0 minutes 22 seconds 38 msec
