                         Program Version 4.2.1 -  RELEASE  -
|  1> ! wB97X-D3 SP def2-SVP
|  2> %pal
|  3> nprocs 24
|  4> end
|  5>
|  6> * xyz 0 1
|  7> S 	 37.3594 	 -26.147 	 -113.181
|  8> C 	 39.0842 	 -26.3969 	 -113.292
|  9> C 	 39.7159 	 -25.3253 	 -113.87
| 10> C 	 38.7748 	 -24.3742 	 -114.296
| 11> C 	 37.4709 	 -24.5465 	 -113.93
| 12> H 	 38.9451 	 -23.4615 	 -114.989
| 13> C 	 41.171 	 -25.1929 	 -114.179
| 14> H 	 41.2384 	 -24.9097 	 -115.227
| 15> H 	 41.6489 	 -26.1414 	 -113.872
| 16> C 	 41.9129 	 -23.979 	 -113.54
| 17> H 	 42.9041 	 -23.9124 	 -113.846
| 18> H 	 41.3439 	 -23.0999 	 -113.864
| 19> C 	 41.9466 	 -24.0918 	 -111.983
| 20> H 	 42.6875 	 -24.8923 	 -111.767
| 21> H 	 42.2558 	 -23.1833 	 -111.513
| 22> H 	 41.061 	 -24.3116 	 -111.457
| 23> S 	 35.3629 	 -24.9156 	 -115.655
| 24> C 	 34.2178 	 -23.5983 	 -115.933
| 25> C 	 34.7215 	 -22.4617 	 -115.339
| 26> C 	 35.9069 	 -22.6038 	 -114.555
| 27> C 	 36.3447 	 -23.9213 	 -114.546
| 28> H 	 34.1626 	 -21.4796 	 -115.36
| 29> C 	 36.4179 	 -21.4207 	 -113.718
| 30> H 	 36.6484 	 -21.8466 	 -112.736
| 31> H 	 35.6274 	 -20.6828 	 -113.521
| 32> C 	 37.6054 	 -20.6697 	 -114.27
| 33> H 	 38.3743 	 -21.4015 	 -114.389
| 34> H 	 37.9872 	 -19.9609 	 -113.532
| 35> C 	 37.4952 	 -20.1009 	 -115.688
| 36> H 	 36.9362 	 -20.8188 	 -116.171
| 37> H 	 38.4946 	 -19.9846 	 -116.147
| 38> H 	 37.0494 	 -19.0941 	 -115.66
| 39> H 	 39.6908 	 -27.2566 	 -113.034
| 40> H 	 33.3755 	 -23.6858 	 -116.579
| 41> *
| 42>
| 43>                          ****END OF INPUT****

CARTESIAN COORDINATES (ANGSTROEM)
---------------------------------
  S     37.359400  -26.147000  -113.181000
  C     39.084200  -26.396900  -113.292000
  C     39.715900  -25.325300  -113.870000
  C     38.774800  -24.374200  -114.296000
  C     37.470900  -24.546500  -113.930000
  H     38.945100  -23.461500  -114.989000
  C     41.171000  -25.192900  -114.179000
  H     41.238400  -24.909700  -115.227000
  H     41.648900  -26.141400  -113.872000
  C     41.912900  -23.979000  -113.540000
  H     42.904100  -23.912400  -113.846000
  H     41.343900  -23.099900  -113.864000
  C     41.946600  -24.091800  -111.983000
  H     42.687500  -24.892300  -111.767000
  H     42.255800  -23.183300  -111.513000
  H     41.061000  -24.311600  -111.457000
  S     35.362900  -24.915600  -115.655000
  C     34.217800  -23.598300  -115.933000
  C     34.721500  -22.461700  -115.339000
  C     35.906900  -22.603800  -114.555000
  C     36.344700  -23.921300  -114.546000
  H     34.162600  -21.479600  -115.360000
  C     36.417900  -21.420700  -113.718000
  H     36.648400  -21.846600  -112.736000
  H     35.627400  -20.682800  -113.521000
  C     37.605400  -20.669700  -114.270000
  H     38.374300  -21.401500  -114.389000
  H     37.987200  -19.960900  -113.532000
  C     37.495200  -20.100900  -115.688000
  H     36.936200  -20.818800  -116.171000
  H     38.494600  -19.984600  -116.147000
  H     37.049400  -19.094100  -115.660000
  H     39.690800  -27.256600  -113.034000
  H     33.375500  -23.685800  -116.579000

 Total Charge           Charge          ....    0
 Multiplicity           Mult            ....    1
 Number of Electrons    NEL             ....  134
 Basis Dimension        Dim             ....  322

ORBITAL ENERGIES
----------------

  NO   OCC          E(Eh)            E(eV)
   0   2.0000     -88.968340     -2420.9516
   1   2.0000     -88.964211     -2420.8393
   2   2.0000     -10.330387      -281.1041
   3   2.0000     -10.326053      -280.9862
   4   2.0000     -10.318350      -280.7766
   5   2.0000     -10.317632      -280.7570
   6   2.0000     -10.305307      -280.4217
   7   2.0000     -10.299674      -280.2684
   8   2.0000     -10.298448      -280.2350
   9   2.0000     -10.297579      -280.2114
  10   2.0000     -10.295775      -280.1623
  11   2.0000     -10.293165      -280.0913
  12   2.0000     -10.287969      -279.9499
  13   2.0000     -10.278602      -279.6950
  14   2.0000     -10.271723      -279.5078
  15   2.0000     -10.271550      -279.5031
  16   2.0000      -8.082705      -219.9416
  17   2.0000      -8.078322      -219.8223
  18   2.0000      -6.041302      -164.3922
  19   2.0000      -6.037270      -164.2825
  20   2.0000      -6.036916      -164.2728
  21   2.0000      -6.033338      -164.1755
  22   2.0000      -6.032878      -164.1629
  23   2.0000      -6.029032      -164.0583
  24   2.0000      -1.011039       -27.5118
  25   2.0000      -0.984882       -26.8000
  26   2.0000      -0.914554       -24.8863
  27   2.0000      -0.911622       -24.8065
  28   2.0000      -0.874228       -23.7890
  29   2.0000      -0.849279       -23.1101
  30   2.0000      -0.844131       -22.9700
  31   2.0000      -0.813776       -22.1440
  32   2.0000      -0.786140       -21.3920
  33   2.0000      -0.778967       -21.1968
  34   2.0000      -0.715730       -19.4760
  35   2.0000      -0.702541       -19.1171
  36   2.0000      -0.689266       -18.7559
  37   2.0000      -0.661602       -18.0031
  38   2.0000      -0.640778       -17.4365
  39   2.0000      -0.615826       -16.7575
  40   2.0000      -0.595504       -16.2045
  41   2.0000      -0.566550       -15.4166
  42   2.0000      -0.559921       -15.2362
  43   2.0000      -0.556831       -15.1521
  44   2.0000      -0.552587       -15.0367
  45   2.0000      -0.544947       -14.8288
  46   2.0000      -0.516668       -14.0593
  47   2.0000      -0.511388       -13.9156
  48   2.0000      -0.505953       -13.7677
  49   2.0000      -0.494179       -13.4473
  50   2.0000      -0.485739       -13.2176
  51   2.0000      -0.481840       -13.1115
  52   2.0000      -0.473058       -12.8726
  53   2.0000      -0.469170       -12.7668
  54   2.0000      -0.461574       -12.5601
  55   2.0000      -0.449768       -12.2388
  56   2.0000      -0.444896       -12.1062
  57   2.0000      -0.434614       -11.8264
  58   2.0000      -0.428252       -11.6533
  59   2.0000      -0.426349       -11.6015
  60   2.0000      -0.420287       -11.4366
  61   2.0000      -0.418520       -11.3885
  62   2.0000      -0.404729       -11.0132
  63   2.0000      -0.348864        -9.4931
  64   2.0000      -0.333336        -9.0705
  65   2.0000      -0.325924        -8.8688
  66   2.0000      -0.299219        -8.1422
  67   0.0000       0.024852         0.6763
  68   0.0000       0.063904         1.7389
  69   0.0000       0.114861         3.1255
  70   0.0000       0.120568         3.2808
  71   0.0000       0.125645         3.4190

MULLIKEN ATOMIC CHARGES
-----------------------
   0 S :    0.105261
   1 C :   -0.106316
   2 C :   -0.083283
   3 C :   -0.007455
   4 C :   -0.166522
   5 H :    0.053091
   6 C :    0.079019
   7 H :    0.036565
   8 H :    0.017571
   9 C :   -0.054328
  10 H :    0.025646
  11 H :    0.028150
  12 C :   -0.053225
  13 H :    0.026608
  14 H :    0.023902
  15 H :    0.030495
  16 S :    0.099691
  17 C :   -0.086617
  18 C :   -0.044640
  19 C :   -0.058799
  20 C :   -0.161305
  21 H :    0.037711
  22 C :    0.081981
  23 H :    0.036165
  24 H :    0.022390
  25 C :   -0.063600
  26 H :   -0.008454
  27 H :    0.028347
  28 C :   -0.030068
  29 H :    0.024632
  30 H :    0.036278
  31 H :    0.033345
  32 H :    0.042632
  33 H :    0.055130
Sum of atomic charges:   -0.0000000

LOEWDIN ATOMIC CHARGES
----------------------
   0 S :    0.402350
   1 C :   -0.188727
   2 C :   -0.075535
   3 C :   -0.057264
   4 C :   -0.205936
   5 H :    0.043297
   6 C :   -0.027809
   7 H :    0.037585
   8 H :    0.028631
   9 C :   -0.027190
  10 H :    0.017786
  11 H :    0.022088
  12 C :   -0.066162
  13 H :    0.027957
  14 H :    0.021823
  15 H :    0.019033
  16 S :    0.386250
  17 C :   -0.177545
  18 C :   -0.078253
  19 C :   -0.063100
  20 C :   -0.184924
  21 H :    0.038323
  22 C :   -0.028045
  23 H :    0.038103
  24 H :    0.029262
  25 C :   -0.043697
  26 H :    0.013613
  27 H :    0.023930
  28 C :   -0.057544
  29 H :    0.015805
  30 H :    0.030737
  31 H :    0.025773
  32 H :    0.032653
  33 H :    0.026734

  Mayer bond orders larger than 0.100000
B(  0-S ,  1-C ) :   1.1464 B(  0-S ,  4-C ) :   1.1243 B(  1-C ,  2-C ) :   1.6070
B(  1-C , 32-H ) :   0.9598 B(  2-C ,  3-C ) :   1.2415 B(  2-C ,  6-C ) :   1.0344
B(  3-C ,  4-C ) :   1.5996 B(  3-C ,  5-H ) :   0.9594 B(  4-C , 20-C ) :   1.0510
B(  6-C ,  7-H ) :   0.9345 B(  6-C ,  8-H ) :   0.9386 B(  6-C ,  9-C ) :   1.0713
B(  9-C , 10-H ) :   0.9593 B(  9-C , 11-H ) :   0.9567 B(  9-C , 12-C ) :   1.0675
B( 12-C , 13-H ) :   0.9773 B( 12-C , 14-H ) :   0.9752 B( 12-C , 15-H ) :   0.9798
B( 16-S , 17-C ) :   1.1384 B( 16-S , 20-C ) :   1.1431 B( 17-C , 18-C ) :   1.6045
B( 17-C , 20-C ) :   0.1013 B( 17-C , 33-H ) :   0.9759 B( 18-C , 19-C ) :   1.2465
B( 18-C , 21-H ) :   0.9753 B( 19-C , 20-C ) :   1.6033 B( 19-C , 22-C ) :   1.0262
B( 22-C , 23-H ) :   0.9315 B( 22-C , 24-H ) :   0.9430 B( 22-C , 25-C ) :   1.0778
B( 25-C , 26-H ) :   0.9530 B( 25-C , 27-H ) :   0.9514 B( 25-C , 28-C ) :   1.0694
B( 28-C , 29-H ) :   0.9745 B( 28-C , 30-H ) :   0.9766 B( 28-C , 31-H ) :   0.9761

Dispersion correction           -0.014962216
FINAL SINGLE POINT ENERGY     -1339.869167577407

DIPOLE MOMENT
-------------
                                X             Y             Z
Electronic contribution:    -20.35259     -19.41934      -3.01578
Nuclear contribution   :     20.82494      19.82317       2.91082
                        -----------------------------------------
Total Dipole Moment    :      0.47235       0.40384      -0.10496
                        -----------------------------------------
Magnitude (a.u.)       :      0.63025
Magnitude (Debye)      :      1.60197

Rotational constants in cm-1:     0.018816     0.009701     0.007123
Rotational constants in MHz :   564.074976   290.830688   213.543882

                             ****ORCA TERMINATED NORMALLY****
TOTAL RUN TIME: 0 days 0 hours 0 minutes 21 seconds 47 msec
