                         Program Version 4.2.1 -  RELEASE  -
|  1> ! wB97X-D3 SP def2-SVP
|  2> %pal
|  3> nprocs 24
|  4> end
|  5>
|  6> * xyz 0 1
|  7> S 	 44.2863 	 -20.7094 	 -115.726
|  8> C 	 45.9818 	 -20.5442 	 -116.109
|  9> C 	 46.7919 	 -20.7393 	 -115.026
| 10> C 	 46.0369 	 -21.1295 	 -113.897
| 11> C 	 44.673 	 -21.196 	 -114.135
| 12> H 	 46.4288 	 -21.2134 	 -112.873
| 13> C 	 48.2784 	 -20.4545 	 -115.011
| 14> H 	 48.481 	 -19.7354 	 -114.284
| 15> H 	 48.5455 	 -19.9308 	 -115.917
| 16> C 	 49.2091 	 -21.6305 	 -115.109
| 17> H 	 48.7866 	 -22.4259 	 -115.678
| 18> H 	 50.1705 	 -21.2801 	 -115.489
| 19> C 	 49.4531 	 -22.3044 	 -113.827
| 20> H 	 49.9131 	 -21.6559 	 -113.011
| 21> H 	 48.6074 	 -22.7912 	 -113.311
| 22> H 	 49.9829 	 -23.1698 	 -113.986
| 23> S 	 42.5655 	 -19.9747 	 -113.067
| 24> C 	 41.9374 	 -20.4664 	 -111.467
| 25> C 	 42.5292 	 -21.658 	 -111.082
| 26> C 	 43.5558 	 -22.031 	 -111.977
| 27> C 	 43.6711 	 -21.2623 	 -113.115
| 28> H 	 42.063 	 -22.2119 	 -110.219
| 29> C 	 44.4062 	 -23.289 	 -111.791
| 30> H 	 44.5345 	 -23.5346 	 -110.748
| 31> H 	 45.3963 	 -23.1003 	 -112.178
| 32> C 	 43.7124 	 -24.5113 	 -112.401
| 33> H 	 42.6294 	 -24.4734 	 -112.107
| 34> H 	 44.0223 	 -25.4343 	 -111.85
| 35> C 	 43.8197 	 -24.688 	 -113.937
| 36> H 	 44.7368 	 -24.9677 	 -114.333
| 37> H 	 43.3684 	 -23.9037 	 -114.503
| 38> H 	 43.1128 	 -25.4521 	 -114.236
| 39> H 	 46.2607 	 -20.254 	 -117.106
| 40> H 	 41.0695 	 -19.9815 	 -111.03
| 41> *
| 42>
| 43>                          ****END OF INPUT****

CARTESIAN COORDINATES (ANGSTROEM)
---------------------------------
  S     44.286300  -20.709400  -115.726000
  C     45.981800  -20.544200  -116.109000
  C     46.791900  -20.739300  -115.026000
  C     46.036900  -21.129500  -113.897000
  C     44.673000  -21.196000  -114.135000
  H     46.428800  -21.213400  -112.873000
  C     48.278400  -20.454500  -115.011000
  H     48.481000  -19.735400  -114.284000
  H     48.545500  -19.930800  -115.917000
  C     49.209100  -21.630500  -115.109000
  H     48.786600  -22.425900  -115.678000
  H     50.170500  -21.280100  -115.489000
  C     49.453100  -22.304400  -113.827000
  H     49.913100  -21.655900  -113.011000
  H     48.607400  -22.791200  -113.311000
  H     49.982900  -23.169800  -113.986000
  S     42.565500  -19.974700  -113.067000
  C     41.937400  -20.466400  -111.467000
  C     42.529200  -21.658000  -111.082000
  C     43.555800  -22.031000  -111.977000
  C     43.671100  -21.262300  -113.115000
  H     42.063000  -22.211900  -110.219000
  C     44.406200  -23.289000  -111.791000
  H     44.534500  -23.534600  -110.748000
  H     45.396300  -23.100300  -112.178000
  C     43.712400  -24.511300  -112.401000
  H     42.629400  -24.473400  -112.107000
  H     44.022300  -25.434300  -111.850000
  C     43.819700  -24.688000  -113.937000
  H     44.736800  -24.967700  -114.333000
  H     43.368400  -23.903700  -114.503000
  H     43.112800  -25.452100  -114.236000
  H     46.260700  -20.254000  -117.106000
  H     41.069500  -19.981500  -111.030000

 Total Charge           Charge          ....    0
 Multiplicity           Mult            ....    1
 Number of Electrons    NEL             ....  134
 Basis Dimension        Dim             ....  322

ORBITAL ENERGIES
----------------

  NO   OCC          E(Eh)            E(eV)
   0   2.0000     -88.967592     -2420.9312
   1   2.0000     -88.960699     -2420.7437
   2   2.0000     -10.324479      -280.9434
   3   2.0000     -10.317953      -280.7658
   4   2.0000     -10.317772      -280.7609
   5   2.0000     -10.310974      -280.5759
   6   2.0000     -10.299332      -280.2591
   7   2.0000     -10.299291      -280.2580
   8   2.0000     -10.297446      -280.2078
   9   2.0000     -10.292760      -280.0802
  10   2.0000     -10.288333      -279.9598
  11   2.0000     -10.283236      -279.8211
  12   2.0000     -10.282672      -279.8057
  13   2.0000     -10.279881      -279.7298
  14   2.0000     -10.268702      -279.4256
  15   2.0000     -10.262087      -279.2456
  16   2.0000      -8.083234      -219.9560
  17   2.0000      -8.076082      -219.7614
  18   2.0000      -6.041535      -164.3985
  19   2.0000      -6.037651      -164.2928
  20   2.0000      -6.034535      -164.2080
  21   2.0000      -6.034139      -164.1973
  22   2.0000      -6.030386      -164.0951
  23   2.0000      -6.026964      -164.0020
  24   2.0000      -1.017280       -27.6816
  25   2.0000      -0.988958       -26.9109
  26   2.0000      -0.924747       -25.1636
  27   2.0000      -0.901851       -24.5406
  28   2.0000      -0.878125       -23.8950
  29   2.0000      -0.853523       -23.2255
  30   2.0000      -0.841420       -22.8962
  31   2.0000      -0.816758       -22.2251
  32   2.0000      -0.790232       -21.5033
  33   2.0000      -0.775861       -21.1123
  34   2.0000      -0.704096       -19.1594
  35   2.0000      -0.701124       -19.0785
  36   2.0000      -0.693421       -18.8689
  37   2.0000      -0.662556       -18.0291
  38   2.0000      -0.644018       -17.5246
  39   2.0000      -0.622421       -16.9369
  40   2.0000      -0.594705       -16.1827
  41   2.0000      -0.579877       -15.7793
  42   2.0000      -0.551101       -14.9962
  43   2.0000      -0.548491       -14.9252
  44   2.0000      -0.541523       -14.7356
  45   2.0000      -0.531422       -14.4607
  46   2.0000      -0.530424       -14.4336
  47   2.0000      -0.518789       -14.1170
  48   2.0000      -0.506143       -13.7729
  49   2.0000      -0.497632       -13.5413
  50   2.0000      -0.490878       -13.3575
  51   2.0000      -0.485187       -13.2026
  52   2.0000      -0.474643       -12.9157
  53   2.0000      -0.461852       -12.5676
  54   2.0000      -0.458512       -12.4767
  55   2.0000      -0.444761       -12.1026
  56   2.0000      -0.437696       -11.9103
  57   2.0000      -0.435343       -11.8463
  58   2.0000      -0.426080       -11.5942
  59   2.0000      -0.424238       -11.5441
  60   2.0000      -0.421930       -11.4813
  61   2.0000      -0.410690       -11.1754
  62   2.0000      -0.404618       -11.0102
  63   2.0000      -0.353418        -9.6170
  64   2.0000      -0.335966        -9.1421
  65   2.0000      -0.326746        -8.8912
  66   2.0000      -0.287308        -7.8180
  67   0.0000       0.030385         0.8268
  68   0.0000       0.072809         1.9812
  69   0.0000       0.110644         3.0108
  70   0.0000       0.123366         3.3570
  71   0.0000       0.134435         3.6582

MULLIKEN ATOMIC CHARGES
-----------------------
   0 S :    0.108272
   1 C :   -0.129903
   2 C :   -0.076474
   3 C :    0.011955
   4 C :   -0.138299
   5 H :    0.032342
   6 C :    0.106586
   7 H :    0.018458
   8 H :    0.001451
   9 C :   -0.018975
  10 H :    0.024775
  11 H :    0.031199
  12 C :   -0.061290
  13 H :    0.031884
  14 H :    0.017238
  15 H :    0.007399
  16 S :    0.089426
  17 C :   -0.117465
  18 C :   -0.039000
  19 C :   -0.084094
  20 C :   -0.116687
  21 H :    0.047698
  22 C :    0.119746
  23 H :    0.008831
  24 H :    0.007042
  25 C :   -0.098095
  26 H :    0.022235
  27 H :    0.025631
  28 C :    0.010780
  29 H :    0.023611
  30 H :    0.020773
  31 H :    0.010475
  32 H :    0.041040
  33 H :    0.061437
Sum of atomic charges:    0.0000000

LOEWDIN ATOMIC CHARGES
----------------------
   0 S :    0.424783
   1 C :   -0.190464
   2 C :   -0.059116
   3 C :   -0.064035
   4 C :   -0.205694
   5 H :    0.035518
   6 C :   -0.025896
   7 H :    0.025608
   8 H :    0.032073
   9 C :   -0.035241
  10 H :    0.030252
  11 H :    0.029032
  12 C :   -0.074243
  13 H :    0.027212
  14 H :    0.025443
  15 H :    0.014661
  16 S :    0.409304
  17 C :   -0.178641
  18 C :   -0.073959
  19 C :   -0.065030
  20 C :   -0.215313
  21 H :    0.046660
  22 C :   -0.030966
  23 H :    0.027510
  24 H :    0.023425
  25 C :   -0.040742
  26 H :    0.028216
  27 H :    0.024062
  28 C :   -0.062998
  29 H :    0.015378
  30 H :    0.024420
  31 H :    0.029050
  32 H :    0.021880
  33 H :    0.027852

  Mayer bond orders larger than 0.100000
B(  0-S ,  1-C ) :   1.1423 B(  0-S ,  4-C ) :   1.1639 B(  1-C ,  2-C ) :   1.6003
B(  1-C , 32-H ) :   0.9719 B(  2-C ,  3-C ) :   1.2679 B(  2-C ,  6-C ) :   1.0213
B(  3-C ,  4-C ) :   1.5477 B(  3-C ,  5-H ) :   0.9812 B(  4-C , 20-C ) :   1.0287
B(  6-C ,  7-H ) :   0.9392 B(  6-C ,  8-H ) :   0.9320 B(  6-C ,  9-C ) :   1.0719
B(  9-C , 10-H ) :   0.9455 B(  9-C , 11-H ) :   0.9523 B(  9-C , 12-C ) :   1.1013
B( 12-C , 13-H ) :   0.9721 B( 12-C , 14-H ) :   0.9648 B( 12-C , 15-H ) :   0.9666
B( 16-S , 17-C ) :   1.1589 B( 16-S , 20-C ) :   1.1462 B( 17-C , 18-C ) :   1.5930
B( 17-C , 20-C ) :   0.1041 B( 17-C , 33-H ) :   0.9687 B( 18-C , 19-C ) :   1.2516
B( 18-C , 21-H ) :   0.9828 B( 19-C , 20-C ) :   1.5922 B( 19-C , 22-C ) :   1.0525
B( 22-C , 23-H ) :   0.9278 B( 22-C , 24-H ) :   0.9329 B( 22-C , 25-C ) :   1.0691
B( 25-C , 26-H ) :   0.9530 B( 25-C , 27-H ) :   0.9571 B( 25-C , 28-C ) :   1.0859
B( 28-C , 29-H ) :   0.9785 B( 28-C , 30-H ) :   0.9654 B( 28-C , 31-H ) :   0.9645

Dispersion correction           -0.015386119
FINAL SINGLE POINT ENERGY     -1339.866039073768

DIPOLE MOMENT
-------------
                                X             Y             Z
Electronic contribution:    -18.97107      17.00654      -3.77727
Nuclear contribution   :     19.36334     -17.21499       3.94417
                        -----------------------------------------
Total Dipole Moment    :      0.39227      -0.20845       0.16690
                        -----------------------------------------
Magnitude (a.u.)       :      0.47453
Magnitude (Debye)      :      1.20617

Rotational constants in cm-1:     0.019716     0.009427     0.007923
Rotational constants in MHz :   591.075118   282.619826   237.519970

                             ****ORCA TERMINATED NORMALLY****
TOTAL RUN TIME: 0 days 0 hours 0 minutes 21 seconds 740 msec
