                         Program Version 4.2.1 -  RELEASE  -
|  1> ! wB97X-D3 SP def2-SVP
|  2> %pal
|  3> nprocs 24
|  4> end
|  5>
|  6> * xyz 0 1
|  7> S 	 -101.006 	 -0.410961 	 -109.698
|  8> C 	 -102.539 	 -0.575444 	 -110.547
|  9> C 	 -103.143 	 -1.78367 	 -110.258
| 10> C 	 -102.437 	 -2.54626 	 -109.279
| 11> C 	 -101.309 	 -1.93217 	 -108.772
| 12> H 	 -102.66 	 -3.47002 	 -108.884
| 13> C 	 -104.326 	 -2.35634 	 -111.095
| 14> H 	 -105.096 	 -1.58523 	 -111.241
| 15> H 	 -104.663 	 -3.22721 	 -110.548
| 16> C 	 -103.846 	 -2.73445 	 -112.517
| 17> H 	 -103.497 	 -1.84942 	 -113.107
| 18> H 	 -103.021 	 -3.47223 	 -112.404
| 19> C 	 -104.897 	 -3.49385 	 -113.167
| 20> H 	 -105.819 	 -2.95727 	 -113.224
| 21> H 	 -104.648 	 -3.74631 	 -114.197
| 22> H 	 -105.098 	 -4.44521 	 -112.632
| 23> S 	 -99.6682 	 -3.94782 	 -107.616
| 24> C 	 -99.0428 	 -3.58518 	 -106.037
| 25> C 	 -99.5424 	 -2.38106 	 -105.57
| 26> C 	 -100.386 	 -1.73133 	 -106.487
| 27> C 	 -100.539 	 -2.40145 	 -107.658
| 28> H 	 -99.3788 	 -2.07662 	 -104.563
| 29> C 	 -101.232 	 -0.516827 	 -106.041
| 30> H 	 -102.058 	 -0.925343 	 -105.513
| 31> H 	 -101.794 	 -0.0147334 	 -106.883
| 32> C 	 -100.561 	 0.587004 	 -105.247
| 33> H 	 -99.841 	 0.217132 	 -104.491
| 34> H 	 -101.31 	 1.04994 	 -104.73
| 35> C 	 -99.788 	 1.4785 	 -106.199
| 36> H 	 -100.531 	 2.11782 	 -106.75
| 37> H 	 -99.2418 	 0.935487 	 -106.932
| 38> H 	 -99.2404 	 2.16297 	 -105.551
| 39> H 	 -102.867 	 0.0304376 	 -111.417
| 40> H 	 -98.573 	 -4.40073 	 -105.505
| 41> *
| 42>
| 43>                          ****END OF INPUT****

CARTESIAN COORDINATES (ANGSTROEM)
---------------------------------
  S    -101.006000   -0.410961  -109.698000
  C    -102.539000   -0.575444  -110.547000
  C    -103.143000   -1.783670  -110.258000
  C    -102.437000   -2.546260  -109.279000
  C    -101.309000   -1.932170  -108.772000
  H    -102.660000   -3.470020  -108.884000
  C    -104.326000   -2.356340  -111.095000
  H    -105.096000   -1.585230  -111.241000
  H    -104.663000   -3.227210  -110.548000
  C    -103.846000   -2.734450  -112.517000
  H    -103.497000   -1.849420  -113.107000
  H    -103.021000   -3.472230  -112.404000
  C    -104.897000   -3.493850  -113.167000
  H    -105.819000   -2.957270  -113.224000
  H    -104.648000   -3.746310  -114.197000
  H    -105.098000   -4.445210  -112.632000
  S    -99.668200   -3.947820  -107.616000
  C    -99.042800   -3.585180  -106.037000
  C    -99.542400   -2.381060  -105.570000
  C    -100.386000   -1.731330  -106.487000
  C    -100.539000   -2.401450  -107.658000
  H    -99.378800   -2.076620  -104.563000
  C    -101.232000   -0.516827  -106.041000
  H    -102.058000   -0.925343  -105.513000
  H    -101.794000   -0.014733  -106.883000
  C    -100.561000    0.587004  -105.247000
  H    -99.841000    0.217132  -104.491000
  H    -101.310000    1.049940  -104.730000
  C    -99.788000    1.478500  -106.199000
  H    -100.531000    2.117820  -106.750000
  H    -99.241800    0.935487  -106.932000
  H    -99.240400    2.162970  -105.551000
  H    -102.867000    0.030438  -111.417000
  H    -98.573000   -4.400730  -105.505000

 Total Charge           Charge          ....    0
 Multiplicity           Mult            ....    1
 Number of Electrons    NEL             ....  134
 Basis Dimension        Dim             ....  322

ORBITAL ENERGIES
----------------

  NO   OCC          E(Eh)            E(eV)
   0   2.0000     -88.966468     -2420.9007
   1   2.0000     -88.965292     -2420.8687
   2   2.0000     -10.328408      -281.0503
   3   2.0000     -10.320623      -280.8384
   4   2.0000     -10.319299      -280.8024
   5   2.0000     -10.315783      -280.7067
   6   2.0000     -10.300883      -280.3013
   7   2.0000     -10.298530      -280.2372
   8   2.0000     -10.295742      -280.1614
   9   2.0000     -10.291643      -280.0499
  10   2.0000     -10.288453      -279.9630
  11   2.0000     -10.286405      -279.9073
  12   2.0000     -10.286035      -279.8972
  13   2.0000     -10.274600      -279.5861
  14   2.0000     -10.271232      -279.4944
  15   2.0000     -10.270180      -279.4658
  16   2.0000      -8.080130      -219.8715
  17   2.0000      -8.079626      -219.8578
  18   2.0000      -6.038595      -164.3185
  19   2.0000      -6.038204      -164.3079
  20   2.0000      -6.034607      -164.2100
  21   2.0000      -6.034427      -164.2051
  22   2.0000      -6.030953      -164.1106
  23   2.0000      -6.030326      -164.0935
  24   2.0000      -1.005844       -27.3704
  25   2.0000      -0.981110       -26.6974
  26   2.0000      -0.917673       -24.9711
  27   2.0000      -0.911141       -24.7934
  28   2.0000      -0.874130       -23.7863
  29   2.0000      -0.851254       -23.1638
  30   2.0000      -0.847385       -23.0585
  31   2.0000      -0.813423       -22.1344
  32   2.0000      -0.780825       -21.2473
  33   2.0000      -0.766990       -20.8709
  34   2.0000      -0.704954       -19.1828
  35   2.0000      -0.697555       -18.9814
  36   2.0000      -0.693001       -18.8575
  37   2.0000      -0.661551       -18.0017
  38   2.0000      -0.641150       -17.4466
  39   2.0000      -0.615174       -16.7397
  40   2.0000      -0.605472       -16.4757
  41   2.0000      -0.577393       -15.7117
  42   2.0000      -0.564174       -15.3519
  43   2.0000      -0.557567       -15.1722
  44   2.0000      -0.535012       -14.5584
  45   2.0000      -0.522727       -14.2241
  46   2.0000      -0.521441       -14.1891
  47   2.0000      -0.512924       -13.9574
  48   2.0000      -0.507417       -13.8075
  49   2.0000      -0.496595       -13.5130
  50   2.0000      -0.493139       -13.4190
  51   2.0000      -0.479438       -13.0462
  52   2.0000      -0.472171       -12.8484
  53   2.0000      -0.463964       -12.6251
  54   2.0000      -0.454720       -12.3736
  55   2.0000      -0.448656       -12.2085
  56   2.0000      -0.446123       -12.1396
  57   2.0000      -0.431654       -11.7459
  58   2.0000      -0.426263       -11.5992
  59   2.0000      -0.423342       -11.5197
  60   2.0000      -0.419044       -11.4028
  61   2.0000      -0.415035       -11.2937
  62   2.0000      -0.411666       -11.2020
  63   2.0000      -0.342518        -9.3204
  64   2.0000      -0.333214        -9.0672
  65   2.0000      -0.325745        -8.8640
  66   2.0000      -0.296059        -8.0562
  67   0.0000       0.030618         0.8332
  68   0.0000       0.062399         1.6979
  69   0.0000       0.107560         2.9269
  70   0.0000       0.115165         3.1338
  71   0.0000       0.132910         3.6167

MULLIKEN ATOMIC CHARGES
-----------------------
   0 S :    0.105949
   1 C :   -0.139585
   2 C :   -0.067814
   3 C :    0.059961
   4 C :   -0.170122
   5 H :   -0.024741
   6 C :    0.052930
   7 H :    0.034164
   8 H :    0.021881
   9 C :   -0.089463
  10 H :    0.039017
  11 H :    0.032284
  12 C :   -0.015354
  13 H :    0.012328
  14 H :    0.027869
  15 H :    0.028683
  16 S :    0.104152
  17 C :   -0.103657
  18 C :   -0.016011
  19 C :   -0.009478
  20 C :   -0.173836
  21 H :    0.012639
  22 C :    0.035321
  23 H :    0.026101
  24 H :    0.031323
  25 C :   -0.035058
  26 H :    0.024138
  27 H :    0.004391
  28 C :   -0.032366
  29 H :    0.025650
  30 H :    0.037715
  31 H :    0.029959
  32 H :    0.064093
  33 H :    0.066937
Sum of atomic charges:    0.0000000

LOEWDIN ATOMIC CHARGES
----------------------
   0 S :    0.383418
   1 C :   -0.202342
   2 C :   -0.063788
   3 C :   -0.051524
   4 C :   -0.168587
   5 H :    0.016649
   6 C :   -0.023179
   7 H :    0.031558
   8 H :    0.027711
   9 C :   -0.046495
  10 H :    0.027714
  11 H :    0.029977
  12 C :   -0.066516
  13 H :    0.016840
  14 H :    0.025601
  15 H :    0.029146
  16 S :    0.398334
  17 C :   -0.180466
  18 C :   -0.066439
  19 C :   -0.053190
  20 C :   -0.202679
  21 H :    0.027242
  22 C :   -0.031456
  23 H :    0.028214
  24 H :    0.034042
  25 C :   -0.037794
  26 H :    0.022457
  27 H :    0.013621
  28 C :   -0.057057
  29 H :    0.028511
  30 H :    0.020949
  31 H :    0.024638
  32 H :    0.036423
  33 H :    0.028470

  Mayer bond orders larger than 0.100000
B(  0-S ,  1-C ) :   1.1335 B(  0-S ,  4-C ) :   1.1239 B(  1-C ,  2-C ) :   1.6157
B(  1-C , 32-H ) :   0.9613 B(  2-C ,  3-C ) :   1.2330 B(  2-C ,  6-C ) :   1.0221
B(  3-C ,  4-C ) :   1.5867 B(  3-C ,  5-H ) :   1.0053 B(  4-C , 20-C ) :   1.0615
B(  6-C ,  7-H ) :   0.9394 B(  6-C ,  8-H ) :   0.9459 B(  6-C ,  9-C ) :   1.0667
B(  9-C , 10-H ) :   0.9507 B(  9-C , 11-H ) :   0.9535 B(  9-C , 12-C ) :   1.1017
B( 12-C , 13-H ) :   0.9664 B( 12-C , 14-H ) :   0.9671 B( 12-C , 15-H ) :   0.9705
B( 16-S , 17-C ) :   1.1697 B( 16-S , 20-C ) :   1.1242 B( 17-C , 18-C ) :   1.5766
B( 17-C , 33-H ) :   0.9682 B( 18-C , 19-C ) :   1.2560 B( 18-C , 21-H ) :   0.9968
B( 19-C , 20-C ) :   1.5896 B( 19-C , 22-C ) :   1.0306 B( 22-C , 23-H ) :   0.9363
B( 22-C , 24-H ) :   0.9276 B( 22-C , 25-C ) :   1.0759 B( 25-C , 26-H ) :   0.9571
B( 25-C , 27-H ) :   0.9465 B( 25-C , 28-C ) :   1.0734 B( 28-C , 29-H ) :   0.9721
B( 28-C , 30-H ) :   0.9790 B( 28-C , 31-H ) :   0.9746

Dispersion correction           -0.014595487
FINAL SINGLE POINT ENERGY     -1339.873295836260

DIPOLE MOMENT
-------------
                                X             Y             Z
Electronic contribution:     13.23222      -6.64236       4.40342
Nuclear contribution   :    -13.72782       6.53575      -4.26614
                        -----------------------------------------
Total Dipole Moment    :     -0.49561      -0.10661       0.13728
                        -----------------------------------------
Magnitude (a.u.)       :      0.52520
Magnitude (Debye)      :      1.33496

Rotational constants in cm-1:     0.022953     0.007675     0.006296
Rotational constants in MHz :   688.110315   230.092105   188.753774

                             ****ORCA TERMINATED NORMALLY****
TOTAL RUN TIME: 0 days 0 hours 0 minutes 21 seconds 464 msec
