                         Program Version 4.2.1 -  RELEASE  -
|  1> ! wB97X-D3 SP def2-SVP
|  2> %pal
|  3> nprocs 24
|  4> end
|  5>
|  6> * xyz 0 1
|  7> S 	 -53.5336 	 0.177612 	 -25.8471
|  8> C 	 -53.5353 	 1.84922 	 -25.4485
|  9> C 	 -53.8435 	 2.6463 	 -26.5508
| 10> C 	 -54.3367 	 1.7954 	 -27.598
| 11> C 	 -54.2741 	 0.445172 	 -27.3644
| 12> H 	 -54.7936 	 2.0506 	 -28.5108
| 13> C 	 -53.9753 	 4.12503 	 -26.4374
| 14> H 	 -54.6873 	 4.13012 	 -25.6248
| 15> H 	 -54.5492 	 4.46355 	 -27.2509
| 16> C 	 -52.6737 	 4.82794 	 -26.1831
| 17> H 	 -52.4566 	 4.70938 	 -25.1707
| 18> H 	 -51.8617 	 4.25563 	 -26.7092
| 19> C 	 -52.72 	 6.25407 	 -26.6846
| 20> H 	 -51.9054 	 6.71288 	 -26.2257
| 21> H 	 -52.7378 	 6.34062 	 -27.7994
| 22> H 	 -53.4411 	 6.80062 	 -26.1371
| 23> S 	 -53.1931 	 -1.49312 	 -28.993
| 24> C 	 -54.269 	 -2.67128 	 -29.6778
| 25> C 	 -55.5401 	 -2.18203 	 -29.7597
| 26> C 	 -55.6893 	 -0.98258 	 -28.955
| 27> C 	 -54.545 	 -0.61116 	 -28.3165
| 28> H 	 -56.3409 	 -2.65655 	 -30.3036
| 29> C 	 -57.0041 	 -0.234068 	 -28.9228
| 30> H 	 -57.455 	 -0.349266 	 -29.9094
| 31> H 	 -56.6336 	 0.761362 	 -28.869
| 32> C 	 -58.1021 	 -0.540299 	 -27.8578
| 33> H 	 -58.9731 	 0.117758 	 -28.057
| 34> H 	 -57.5865 	 -0.302042 	 -26.9183
| 35> C 	 -58.4395 	 -1.98918 	 -27.8714
| 36> H 	 -59.0783 	 -2.18249 	 -28.6898
| 37> H 	 -59.0324 	 -2.31864 	 -27.0519
| 38> H 	 -57.538 	 -2.57153 	 -27.8044
| 39> H 	 -53.3846 	 2.19743 	 -24.4275
| 40> H 	 -53.9539 	 -3.58222 	 -30.2318
| 41> *
| 42>
| 43>                          ****END OF INPUT****

CARTESIAN COORDINATES (ANGSTROEM)
---------------------------------
  S    -53.533600    0.177612  -25.847100
  C    -53.535300    1.849220  -25.448500
  C    -53.843500    2.646300  -26.550800
  C    -54.336700    1.795400  -27.598000
  C    -54.274100    0.445172  -27.364400
  H    -54.793600    2.050600  -28.510800
  C    -53.975300    4.125030  -26.437400
  H    -54.687300    4.130120  -25.624800
  H    -54.549200    4.463550  -27.250900
  C    -52.673700    4.827940  -26.183100
  H    -52.456600    4.709380  -25.170700
  H    -51.861700    4.255630  -26.709200
  C    -52.720000    6.254070  -26.684600
  H    -51.905400    6.712880  -26.225700
  H    -52.737800    6.340620  -27.799400
  H    -53.441100    6.800620  -26.137100
  S    -53.193100   -1.493120  -28.993000
  C    -54.269000   -2.671280  -29.677800
  C    -55.540100   -2.182030  -29.759700
  C    -55.689300   -0.982580  -28.955000
  C    -54.545000   -0.611160  -28.316500
  H    -56.340900   -2.656550  -30.303600
  C    -57.004100   -0.234068  -28.922800
  H    -57.455000   -0.349266  -29.909400
  H    -56.633600    0.761362  -28.869000
  C    -58.102100   -0.540299  -27.857800
  H    -58.973100    0.117758  -28.057000
  H    -57.586500   -0.302042  -26.918300
  C    -58.439500   -1.989180  -27.871400
  H    -59.078300   -2.182490  -28.689800
  H    -59.032400   -2.318640  -27.051900
  H    -57.538000   -2.571530  -27.804400
  H    -53.384600    2.197430  -24.427500
  H    -53.953900   -3.582220  -30.231800

 Total Charge           Charge          ....    0
 Multiplicity           Mult            ....    1
 Number of Electrons    NEL             ....  134
 Basis Dimension        Dim             ....  322

ORBITAL ENERGIES
----------------

  NO   OCC          E(Eh)            E(eV)
   0   2.0000     -88.962758     -2420.7997
   1   2.0000     -88.959729     -2420.7173
   2   2.0000     -10.319863      -280.8177
   3   2.0000     -10.319660      -280.8122
   4   2.0000     -10.314462      -280.6708
   5   2.0000     -10.310969      -280.5757
   6   2.0000     -10.300529      -280.2916
   7   2.0000     -10.297855      -280.2189
   8   2.0000     -10.290026      -280.0058
   9   2.0000     -10.289151      -279.9820
  10   2.0000     -10.284075      -279.8439
  11   2.0000     -10.282867      -279.8110
  12   2.0000     -10.281871      -279.7839
  13   2.0000     -10.280098      -279.7357
  14   2.0000     -10.272951      -279.5412
  15   2.0000     -10.261945      -279.2417
  16   2.0000      -8.078765      -219.8344
  17   2.0000      -8.075135      -219.7356
  18   2.0000      -6.037074      -164.2771
  19   2.0000      -6.033721      -164.1859
  20   2.0000      -6.032970      -164.1655
  21   2.0000      -6.029811      -164.0795
  22   2.0000      -6.029785      -164.0788
  23   2.0000      -6.025500      -163.9622
  24   2.0000      -1.012907       -27.5626
  25   2.0000      -0.989552       -26.9271
  26   2.0000      -0.924120       -25.1466
  27   2.0000      -0.909398       -24.7460
  28   2.0000      -0.873542       -23.7703
  29   2.0000      -0.855364       -23.2756
  30   2.0000      -0.847077       -23.0501
  31   2.0000      -0.818531       -22.2734
  32   2.0000      -0.786490       -21.4015
  33   2.0000      -0.772449       -21.0194
  34   2.0000      -0.711821       -19.3696
  35   2.0000      -0.704003       -19.1569
  36   2.0000      -0.685664       -18.6579
  37   2.0000      -0.662869       -18.0376
  38   2.0000      -0.649071       -17.6621
  39   2.0000      -0.611612       -16.6428
  40   2.0000      -0.588502       -16.0140
  41   2.0000      -0.581317       -15.8184
  42   2.0000      -0.567695       -15.4478
  43   2.0000      -0.558575       -15.1996
  44   2.0000      -0.549500       -14.9526
  45   2.0000      -0.527678       -14.3589
  46   2.0000      -0.522810       -14.2264
  47   2.0000      -0.514783       -14.0079
  48   2.0000      -0.504404       -13.7255
  49   2.0000      -0.501602       -13.6493
  50   2.0000      -0.486060       -13.2264
  51   2.0000      -0.483624       -13.1601
  52   2.0000      -0.477859       -13.0032
  53   2.0000      -0.465367       -12.6633
  54   2.0000      -0.457947       -12.4614
  55   2.0000      -0.451162       -12.2768
  56   2.0000      -0.445000       -12.1091
  57   2.0000      -0.435953       -11.8629
  58   2.0000      -0.432956       -11.7813
  59   2.0000      -0.420885       -11.4529
  60   2.0000      -0.416955       -11.3459
  61   2.0000      -0.414809       -11.2875
  62   2.0000      -0.407395       -11.0858
  63   2.0000      -0.339414        -9.2359
  64   2.0000      -0.327456        -8.9105
  65   2.0000      -0.322598        -8.7783
  66   2.0000      -0.297170        -8.0864
  67   0.0000       0.038476         1.0470
  68   0.0000       0.061115         1.6630
  69   0.0000       0.103850         2.8259
  70   0.0000       0.126929         3.4539
  71   0.0000       0.136873         3.7245

MULLIKEN ATOMIC CHARGES
-----------------------
   0 S :    0.127766
   1 C :   -0.142228
   2 C :   -0.093568
   3 C :    0.044053
   4 C :   -0.183974
   5 H :   -0.007056
   6 C :    0.103006
   7 H :    0.032962
   8 H :   -0.001837
   9 C :   -0.077487
  10 H :    0.010318
  11 H :    0.041603
  12 C :    0.017335
  13 H :    0.002574
  14 H :    0.059398
  15 H :    0.008214
  16 S :    0.109251
  17 C :   -0.097505
  18 C :   -0.023433
  19 C :   -0.077298
  20 C :   -0.167266
  21 H :    0.017353
  22 C :    0.084799
  23 H :    0.014349
  24 H :   -0.001972
  25 C :   -0.042354
  26 H :    0.038707
  27 H :    0.030111
  28 C :   -0.020847
  29 H :    0.013000
  30 H :    0.017600
  31 H :    0.040658
  32 H :    0.056543
  33 H :    0.067222
Sum of atomic charges:   -0.0000000

LOEWDIN ATOMIC CHARGES
----------------------
   0 S :    0.439969
   1 C :   -0.208098
   2 C :   -0.056526
   3 C :   -0.058789
   4 C :   -0.219243
   5 H :    0.020366
   6 C :   -0.034593
   7 H :    0.038643
   8 H :    0.021367
   9 C :   -0.035570
  10 H :    0.016423
  11 H :    0.032648
  12 C :   -0.061414
  13 H :    0.021819
  14 H :    0.037769
  15 H :    0.023280
  16 S :    0.401311
  17 C :   -0.191167
  18 C :   -0.070849
  19 C :   -0.058050
  20 C :   -0.201084
  21 H :    0.030216
  22 C :   -0.032826
  23 H :    0.027853
  24 H :    0.022803
  25 C :   -0.033030
  26 H :    0.028654
  27 H :    0.026396
  28 C :   -0.064490
  29 H :    0.019459
  30 H :    0.022821
  31 H :    0.029396
  32 H :    0.027726
  33 H :    0.036809

  Mayer bond orders larger than 0.100000
B(  0-S ,  1-C ) :   1.1738 B(  0-S ,  4-C ) :   1.1602 B(  1-C ,  2-C ) :   1.5558
B(  1-C ,  4-C ) :   0.1043 B(  1-C , 32-H ) :   0.9718 B(  2-C ,  3-C ) :   1.2511
B(  2-C ,  6-C ) :   1.0095 B(  3-C ,  4-C ) :   1.5669 B(  3-C ,  5-H ) :   0.9978
B(  4-C , 20-C ) :   1.0274 B(  6-C ,  7-H ) :   0.9342 B(  6-C ,  8-H ) :   0.9447
B(  6-C ,  9-C ) :   1.0325 B(  9-C , 10-H ) :   0.9490 B(  9-C , 11-H ) :   0.9646
B(  9-C , 12-C ) :   1.0992 B( 12-C , 13-H ) :   0.9623 B( 12-C , 14-H ) :   0.9753
B( 12-C , 15-H ) :   0.9611 B( 16-S , 17-C ) :   1.1450 B( 16-S , 20-C ) :   1.1369
B( 17-C , 18-C ) :   1.6231 B( 17-C , 33-H ) :   0.9621 B( 18-C , 19-C ) :   1.2107
B( 18-C , 21-H ) :   0.9930 B( 19-C , 20-C ) :   1.6381 B( 19-C , 22-C ) :   1.0256
B( 22-C , 23-H ) :   0.9344 B( 22-C , 24-H ) :   0.9277 B( 22-C , 25-C ) :   1.0671
B( 25-C , 26-H ) :   0.9552 B( 25-C , 27-H ) :   0.9537 B( 25-C , 28-C ) :   1.0920
B( 28-C , 29-H ) :   0.9723 B( 28-C , 30-H ) :   0.9682 B( 28-C , 31-H ) :   0.9678

Dispersion correction           -0.014231425
FINAL SINGLE POINT ENERGY     -1339.850763735667

DIPOLE MOMENT
-------------
                                X             Y             Z
Electronic contribution:     13.15271     -16.94576      -1.20076
Nuclear contribution   :    -13.57538      17.46938       1.17027
                        -----------------------------------------
Total Dipole Moment    :     -0.42267       0.52362      -0.03049
                        -----------------------------------------
Magnitude (a.u.)       :      0.67362
Magnitude (Debye)      :      1.71220

Rotational constants in cm-1:     0.022558     0.007306     0.006498
Rotational constants in MHz :   676.277659   219.026203   194.810016

                             ****ORCA TERMINATED NORMALLY****
TOTAL RUN TIME: 0 days 0 hours 0 minutes 21 seconds 608 msec
