                         Program Version 4.2.1 -  RELEASE  -
|  1> ! wB97X-D3 SP def2-SVP
|  2> %pal
|  3> nprocs 24
|  4> end
|  5>
|  6> * xyz 0 1
|  7> S 	 -90.1908 	 -39.8097 	 -63.0154
|  8> C 	 -91.2054 	 -40.2817 	 -64.3676
|  9> C 	 -92.3385 	 -39.5136 	 -64.3811
| 10> C 	 -92.3137 	 -38.5224 	 -63.4021
| 11> C 	 -91.23 	 -38.5573 	 -62.539
| 12> H 	 -93.0255 	 -37.7996 	 -63.1347
| 13> C 	 -93.3182 	 -39.5381 	 -65.5197
| 14> H 	 -94.2303 	 -39.1068 	 -65.1122
| 15> H 	 -93.5346 	 -40.6065 	 -65.8709
| 16> C 	 -92.9128 	 -38.5828 	 -66.6535
| 17> H 	 -92.5543 	 -37.6052 	 -66.4018
| 18> H 	 -92.1156 	 -39.1437 	 -67.131
| 19> C 	 -94.0167 	 -38.2657 	 -67.7165
| 20> H 	 -94.2915 	 -39.2468 	 -68.1456
| 21> H 	 -94.9918 	 -37.8688 	 -67.3417
| 22> H 	 -93.6761 	 -37.6354 	 -68.5487
| 23> S 	 -90.2641 	 -38.5073 	 -60.0344
| 24> C 	 -90.7119 	 -37.1876 	 -58.9183
| 25> C 	 -91.0253 	 -36.0885 	 -59.6942
| 26> C 	 -91.2691 	 -36.3551 	 -61.1098
| 27> C 	 -91.0205 	 -37.6902 	 -61.3447
| 28> H 	 -91.1888 	 -35.144 	 -59.2029
| 29> C 	 -91.4804 	 -35.2643 	 -62.176
| 30> H 	 -91.6479 	 -35.8167 	 -63.1156
| 31> H 	 -90.5436 	 -34.7192 	 -62.3036
| 32> C 	 -92.4656 	 -34.1483 	 -61.8561
| 33> H 	 -92.2613 	 -33.3825 	 -62.5995
| 34> H 	 -92.3189 	 -33.7604 	 -60.8727
| 35> C 	 -93.9017 	 -34.7075 	 -61.8808
| 36> H 	 -93.8794 	 -35.5538 	 -61.181
| 37> H 	 -94.1486 	 -35.1837 	 -62.7908
| 38> H 	 -94.6113 	 -34.0592 	 -61.4896
| 39> H 	 -90.9806 	 -41.0538 	 -65.1146
| 40> H 	 -90.6621 	 -37.2598 	 -57.8259
| 41> *
| 42>
| 43>                          ****END OF INPUT****

CARTESIAN COORDINATES (ANGSTROEM)
---------------------------------
  S    -90.190800  -39.809700  -63.015400
  C    -91.205400  -40.281700  -64.367600
  C    -92.338500  -39.513600  -64.381100
  C    -92.313700  -38.522400  -63.402100
  C    -91.230000  -38.557300  -62.539000
  H    -93.025500  -37.799600  -63.134700
  C    -93.318200  -39.538100  -65.519700
  H    -94.230300  -39.106800  -65.112200
  H    -93.534600  -40.606500  -65.870900
  C    -92.912800  -38.582800  -66.653500
  H    -92.554300  -37.605200  -66.401800
  H    -92.115600  -39.143700  -67.131000
  C    -94.016700  -38.265700  -67.716500
  H    -94.291500  -39.246800  -68.145600
  H    -94.991800  -37.868800  -67.341700
  H    -93.676100  -37.635400  -68.548700
  S    -90.264100  -38.507300  -60.034400
  C    -90.711900  -37.187600  -58.918300
  C    -91.025300  -36.088500  -59.694200
  C    -91.269100  -36.355100  -61.109800
  C    -91.020500  -37.690200  -61.344700
  H    -91.188800  -35.144000  -59.202900
  C    -91.480400  -35.264300  -62.176000
  H    -91.647900  -35.816700  -63.115600
  H    -90.543600  -34.719200  -62.303600
  C    -92.465600  -34.148300  -61.856100
  H    -92.261300  -33.382500  -62.599500
  H    -92.318900  -33.760400  -60.872700
  C    -93.901700  -34.707500  -61.880800
  H    -93.879400  -35.553800  -61.181000
  H    -94.148600  -35.183700  -62.790800
  H    -94.611300  -34.059200  -61.489600
  H    -90.980600  -41.053800  -65.114600
  H    -90.662100  -37.259800  -57.825900

 Total Charge           Charge          ....    0
 Multiplicity           Mult            ....    1
 Number of Electrons    NEL             ....  134
 Basis Dimension        Dim             ....  322

ORBITAL ENERGIES
----------------

  NO   OCC          E(Eh)            E(eV)
   0   2.0000     -88.966012     -2420.8883
   1   2.0000     -88.962394     -2420.7898
   2   2.0000     -10.330113      -281.0967
   3   2.0000     -10.327356      -281.0216
   4   2.0000     -10.323533      -280.9176
   5   2.0000     -10.312455      -280.6162
   6   2.0000     -10.308846      -280.5180
   7   2.0000     -10.299488      -280.2633
   8   2.0000     -10.298042      -280.2240
   9   2.0000     -10.296538      -280.1830
  10   2.0000     -10.295913      -280.1660
  11   2.0000     -10.287291      -279.9314
  12   2.0000     -10.286070      -279.8982
  13   2.0000     -10.284426      -279.8535
  14   2.0000     -10.284171      -279.8465
  15   2.0000     -10.268050      -279.4078
  16   2.0000      -8.081554      -219.9103
  17   2.0000      -8.077799      -219.8081
  18   2.0000      -6.040004      -164.3569
  19   2.0000      -6.036398      -164.2587
  20   2.0000      -6.035825      -164.2432
  21   2.0000      -6.032467      -164.1518
  22   2.0000      -6.032443      -164.1511
  23   2.0000      -6.028148      -164.0343
  24   2.0000      -1.014323       -27.6011
  25   2.0000      -0.989275       -26.9195
  26   2.0000      -0.914801       -24.8930
  27   2.0000      -0.911911       -24.8144
  28   2.0000      -0.868112       -23.6225
  29   2.0000      -0.851863       -23.1804
  30   2.0000      -0.843071       -22.9411
  31   2.0000      -0.817581       -22.2475
  32   2.0000      -0.784151       -21.3378
  33   2.0000      -0.775808       -21.1108
  34   2.0000      -0.708281       -19.2733
  35   2.0000      -0.700146       -19.0520
  36   2.0000      -0.696568       -18.9546
  37   2.0000      -0.661152       -17.9909
  38   2.0000      -0.643671       -17.5152
  39   2.0000      -0.619355       -16.8535
  40   2.0000      -0.600901       -16.3514
  41   2.0000      -0.568943       -15.4817
  42   2.0000      -0.560826       -15.2609
  43   2.0000      -0.556830       -15.1521
  44   2.0000      -0.541825       -14.7438
  45   2.0000      -0.533973       -14.5301
  46   2.0000      -0.524831       -14.2814
  47   2.0000      -0.509958       -13.8767
  48   2.0000      -0.505988       -13.7686
  49   2.0000      -0.498187       -13.5563
  50   2.0000      -0.497048       -13.5254
  51   2.0000      -0.479197       -13.0396
  52   2.0000      -0.473857       -12.8943
  53   2.0000      -0.463690       -12.6176
  54   2.0000      -0.458407       -12.4739
  55   2.0000      -0.450024       -12.2458
  56   2.0000      -0.447816       -12.1857
  57   2.0000      -0.438567       -11.9340
  58   2.0000      -0.434855       -11.8330
  59   2.0000      -0.424238       -11.5441
  60   2.0000      -0.420800       -11.4505
  61   2.0000      -0.415702       -11.3118
  62   2.0000      -0.411475       -11.1968
  63   2.0000      -0.354817        -9.6551
  64   2.0000      -0.333969        -9.0878
  65   2.0000      -0.324721        -8.8361
  66   2.0000      -0.287978        -7.8363
  67   0.0000       0.026765         0.7283
  68   0.0000       0.071497         1.9455
  69   0.0000       0.098989         2.6936
  70   0.0000       0.120220         3.2714
  71   0.0000       0.131057         3.5662

MULLIKEN ATOMIC CHARGES
-----------------------
   0 S :    0.110067
   1 C :   -0.137422
   2 C :   -0.047449
   3 C :    0.019117
   4 C :   -0.131020
   5 H :   -0.023447
   6 C :    0.050358
   7 H :    0.014138
   8 H :    0.046816
   9 C :   -0.053258
  10 H :    0.031358
  11 H :    0.020868
  12 C :   -0.073425
  13 H :    0.019840
  14 H :    0.037580
  15 H :    0.044439
  16 S :    0.087330
  17 C :   -0.105940
  18 C :   -0.026037
  19 C :   -0.057732
  20 C :   -0.138315
  21 H :    0.019349
  22 C :    0.047460
  23 H :    0.026279
  24 H :    0.042079
  25 C :   -0.055197
  26 H :    0.032365
  27 H :    0.023197
  28 C :   -0.013836
  29 H :    0.022289
  30 H :    0.019295
  31 H :    0.024146
  32 H :    0.054657
  33 H :    0.070050
Sum of atomic charges:    0.0000000

LOEWDIN ATOMIC CHARGES
----------------------
   0 S :    0.425121
   1 C :   -0.201049
   2 C :   -0.066941
   3 C :   -0.071651
   4 C :   -0.205020
   5 H :    0.020532
   6 C :   -0.031502
   7 H :    0.026357
   8 H :    0.040098
   9 C :   -0.036708
  10 H :    0.022347
  11 H :    0.023644
  12 C :   -0.074613
  13 H :    0.022770
  14 H :    0.026365
  15 H :    0.028828
  16 S :    0.392288
  17 C :   -0.173714
  18 C :   -0.065756
  19 C :   -0.065284
  20 C :   -0.191504
  21 H :    0.026571
  22 C :   -0.029015
  23 H :    0.032887
  24 H :    0.038110
  25 C :   -0.033603
  26 H :    0.024765
  27 H :    0.020601
  28 C :   -0.058430
  29 H :    0.029693
  30 H :    0.017703
  31 H :    0.016036
  32 H :    0.034409
  33 H :    0.035666

  Mayer bond orders larger than 0.100000
B(  0-S ,  1-C ) :   1.1393 B(  0-S ,  4-C ) :   1.1750 B(  1-C ,  2-C ) :   1.5777
B(  1-C , 32-H ) :   0.9711 B(  2-C ,  3-C ) :   1.2562 B(  2-C ,  6-C ) :   1.0420
B(  3-C ,  4-C ) :   1.5559 B(  3-C ,  5-H ) :   1.0081 B(  4-C , 20-C ) :   1.0136
B(  6-C ,  7-H ) :   0.9353 B(  6-C ,  8-H ) :   0.9415 B(  6-C ,  9-C ) :   1.0489
B(  9-C , 10-H ) :   0.9629 B(  9-C , 11-H ) :   0.9556 B(  9-C , 12-C ) :   1.0741
B( 12-C , 13-H ) :   0.9745 B( 12-C , 14-H ) :   0.9766 B( 12-C , 15-H ) :   0.9760
B( 16-S , 17-C ) :   1.1254 B( 16-S , 20-C ) :   1.1467 B( 17-C , 18-C ) :   1.6334
B( 17-C , 33-H ) :   0.9727 B( 18-C , 19-C ) :   1.1927 B( 18-C , 21-H ) :   0.9866
B( 19-C , 20-C ) :   1.6062 B( 19-C , 22-C ) :   1.0317 B( 22-C , 23-H ) :   0.9375
B( 22-C , 24-H ) :   0.9376 B( 22-C , 25-C ) :   1.0686 B( 25-C , 26-H ) :   0.9556
B( 25-C , 27-H ) :   0.9541 B( 25-C , 28-C ) :   1.0753 B( 28-C , 29-H ) :   0.9705
B( 28-C , 30-H ) :   0.9740 B( 28-C , 31-H ) :   0.9737

Dispersion correction           -0.014313410
FINAL SINGLE POINT ENERGY     -1339.866216724194

DIPOLE MOMENT
-------------
                                X             Y             Z
Electronic contribution:     19.20024     -15.25095      18.91513
Nuclear contribution   :    -19.52678      15.75455     -19.14270
                        -----------------------------------------
Total Dipole Moment    :     -0.32653       0.50360      -0.22757
                        -----------------------------------------
Magnitude (a.u.)       :      0.64190
Magnitude (Debye)      :      1.63157

Rotational constants in cm-1:     0.018324     0.009172     0.006473
Rotational constants in MHz :   549.339215   274.958724   194.068792

                             ****ORCA TERMINATED NORMALLY****
TOTAL RUN TIME: 0 days 0 hours 0 minutes 21 seconds 639 msec
