                         Program Version 4.2.1 -  RELEASE  -
|  1> ! wB97X-D3 SP def2-SVP
|  2> %pal
|  3> nprocs 24
|  4> end
|  5>
|  6> * xyz 0 1
|  7> S 	 46.9233 	 -23.4361 	 -115.803
|  8> C 	 47.7369 	 -23.9605 	 -114.323
|  9> C 	 49.1282 	 -23.8727 	 -114.484
| 10> C 	 49.5275 	 -23.239 	 -115.727
| 11> C 	 48.4274 	 -22.9596 	 -116.527
| 12> H 	 50.5663 	 -23.0426 	 -115.941
| 13> C 	 50.1789 	 -24.4108 	 -113.534
| 14> H 	 50.9994 	 -24.7675 	 -114.208
| 15> H 	 49.9591 	 -25.2827 	 -112.841
| 16> C 	 50.7967 	 -23.3873 	 -112.618
| 17> H 	 50.0065 	 -23.0896 	 -111.916
| 18> H 	 51.5933 	 -23.8105 	 -112.051
| 19> C 	 51.3957 	 -22.2066 	 -113.427
| 20> H 	 52.0982 	 -21.57 	 -112.9
| 21> H 	 51.9119 	 -22.4288 	 -114.327
| 22> H 	 50.6538 	 -21.4745 	 -113.793
| 23> S 	 48.5783 	 -22.8056 	 -119.283
| 24> C 	 48.2168 	 -21.1925 	 -120.014
| 25> C 	 47.9625 	 -20.2364 	 -119.083
| 26> C 	 48.1465 	 -20.7074 	 -117.737
| 27> C 	 48.427 	 -22.0803 	 -117.686
| 28> H 	 47.7642 	 -19.3139 	 -119.465
| 29> C 	 47.9106 	 -19.8632 	 -116.512
| 30> H 	 48.5152 	 -20.275 	 -115.701
| 31> H 	 46.8913 	 -20.0581 	 -116.233
| 32> C 	 48.0113 	 -18.2959 	 -116.655
| 33> H 	 47.6363 	 -17.9692 	 -117.614
| 34> H 	 49.0568 	 -17.9488 	 -116.75
| 35> C 	 47.3701 	 -17.4649 	 -115.635
| 36> H 	 47.5509 	 -16.4021 	 -115.751
| 37> H 	 47.8584 	 -17.6718 	 -114.744
| 38> H 	 46.2759 	 -17.5847 	 -115.419
| 39> H 	 47.3825 	 -24.6838 	 -113.567
| 40> H 	 48.1952 	 -21.0184 	 -121.108
| 41> *
| 42>
| 43>                          ****END OF INPUT****

CARTESIAN COORDINATES (ANGSTROEM)
---------------------------------
  S     46.923300  -23.436100  -115.803000
  C     47.736900  -23.960500  -114.323000
  C     49.128200  -23.872700  -114.484000
  C     49.527500  -23.239000  -115.727000
  C     48.427400  -22.959600  -116.527000
  H     50.566300  -23.042600  -115.941000
  C     50.178900  -24.410800  -113.534000
  H     50.999400  -24.767500  -114.208000
  H     49.959100  -25.282700  -112.841000
  C     50.796700  -23.387300  -112.618000
  H     50.006500  -23.089600  -111.916000
  H     51.593300  -23.810500  -112.051000
  C     51.395700  -22.206600  -113.427000
  H     52.098200  -21.570000  -112.900000
  H     51.911900  -22.428800  -114.327000
  H     50.653800  -21.474500  -113.793000
  S     48.578300  -22.805600  -119.283000
  C     48.216800  -21.192500  -120.014000
  C     47.962500  -20.236400  -119.083000
  C     48.146500  -20.707400  -117.737000
  C     48.427000  -22.080300  -117.686000
  H     47.764200  -19.313900  -119.465000
  C     47.910600  -19.863200  -116.512000
  H     48.515200  -20.275000  -115.701000
  H     46.891300  -20.058100  -116.233000
  C     48.011300  -18.295900  -116.655000
  H     47.636300  -17.969200  -117.614000
  H     49.056800  -17.948800  -116.750000
  C     47.370100  -17.464900  -115.635000
  H     47.550900  -16.402100  -115.751000
  H     47.858400  -17.671800  -114.744000
  H     46.275900  -17.584700  -115.419000
  H     47.382500  -24.683800  -113.567000
  H     48.195200  -21.018400  -121.108000

 Total Charge           Charge          ....    0
 Multiplicity           Mult            ....    1
 Number of Electrons    NEL             ....  134
 Basis Dimension        Dim             ....  322

ORBITAL ENERGIES
----------------

  NO   OCC          E(Eh)            E(eV)
   0   2.0000     -88.969185     -2420.9746
   1   2.0000     -88.963163     -2420.8107
   2   2.0000     -10.329517      -281.0805
   3   2.0000     -10.323137      -280.9068
   4   2.0000     -10.320002      -280.8215
   5   2.0000     -10.317858      -280.7632
   6   2.0000     -10.306831      -280.4631
   7   2.0000     -10.306072      -280.4425
   8   2.0000     -10.298404      -280.2338
   9   2.0000     -10.297552      -280.2106
  10   2.0000     -10.290397      -280.0159
  11   2.0000     -10.287270      -279.9308
  12   2.0000     -10.287261      -279.9306
  13   2.0000     -10.285418      -279.8805
  14   2.0000     -10.274634      -279.5870
  15   2.0000     -10.269783      -279.4550
  16   2.0000      -8.083397      -219.9604
  17   2.0000      -8.077009      -219.7866
  18   2.0000      -6.042031      -164.4120
  19   2.0000      -6.037882      -164.2991
  20   2.0000      -6.035591      -164.2368
  21   2.0000      -6.034139      -164.1973
  22   2.0000      -6.031735      -164.1319
  23   2.0000      -6.027669      -164.0212
  24   2.0000      -1.002470       -27.2786
  25   2.0000      -0.977598       -26.6018
  26   2.0000      -0.916089       -24.9280
  27   2.0000      -0.907947       -24.7065
  28   2.0000      -0.868978       -23.6461
  29   2.0000      -0.854372       -23.2486
  30   2.0000      -0.842620       -22.9289
  31   2.0000      -0.817640       -22.2491
  32   2.0000      -0.786738       -21.4082
  33   2.0000      -0.768515       -20.9124
  34   2.0000      -0.706668       -19.2294
  35   2.0000      -0.705605       -19.2005
  36   2.0000      -0.697983       -18.9931
  37   2.0000      -0.654077       -17.7983
  38   2.0000      -0.636622       -17.3234
  39   2.0000      -0.617162       -16.7938
  40   2.0000      -0.594454       -16.1759
  41   2.0000      -0.573849       -15.6152
  42   2.0000      -0.563945       -15.3457
  43   2.0000      -0.550957       -14.9923
  44   2.0000      -0.540957       -14.7202
  45   2.0000      -0.528507       -14.3814
  46   2.0000      -0.519685       -14.1414
  47   2.0000      -0.513578       -13.9752
  48   2.0000      -0.506625       -13.7860
  49   2.0000      -0.496869       -13.5205
  50   2.0000      -0.486889       -13.2489
  51   2.0000      -0.472981       -12.8705
  52   2.0000      -0.469407       -12.7732
  53   2.0000      -0.464220       -12.6321
  54   2.0000      -0.455780       -12.4024
  55   2.0000      -0.452551       -12.3145
  56   2.0000      -0.443778       -12.0758
  57   2.0000      -0.436756       -11.8847
  58   2.0000      -0.427389       -11.6298
  59   2.0000      -0.425593       -11.5810
  60   2.0000      -0.423192       -11.5156
  61   2.0000      -0.414650       -11.2832
  62   2.0000      -0.411187       -11.1890
  63   2.0000      -0.336650        -9.1607
  64   2.0000      -0.332985        -9.0610
  65   2.0000      -0.317609        -8.6426
  66   2.0000      -0.307092        -8.3564
  67   0.0000       0.043445         1.1822
  68   0.0000       0.050074         1.3626
  69   0.0000       0.104144         2.8339
  70   0.0000       0.115802         3.1511
  71   0.0000       0.125493         3.4148

MULLIKEN ATOMIC CHARGES
-----------------------
   0 S :    0.123759
   1 C :   -0.111765
   2 C :   -0.111179
   3 C :    0.058495
   4 C :   -0.167424
   5 H :    0.012497
   6 C :   -0.004130
   7 H :    0.033858
   8 H :    0.039485
   9 C :   -0.016728
  10 H :    0.033745
  11 H :    0.027398
  12 C :   -0.077717
  13 H :    0.025203
  14 H :    0.013410
  15 H :    0.038881
  16 S :    0.095262
  17 C :   -0.109641
  18 C :   -0.000380
  19 C :   -0.023238
  20 C :   -0.176203
  21 H :   -0.016629
  22 C :    0.109988
  23 H :    0.036644
  24 H :    0.027445
  25 C :   -0.068354
  26 H :    0.013009
  27 H :    0.025634
  28 C :   -0.030873
  29 H :    0.026525
  30 H :    0.006422
  31 H :    0.037978
  32 H :    0.063455
  33 H :    0.065168
Sum of atomic charges:   -0.0000000

LOEWDIN ATOMIC CHARGES
----------------------
   0 S :    0.414605
   1 C :   -0.210286
   2 C :   -0.057708
   3 C :   -0.050059
   4 C :   -0.203198
   5 H :    0.031402
   6 C :   -0.043832
   7 H :    0.033684
   8 H :    0.036870
   9 C :   -0.033509
  10 H :    0.028296
  11 H :    0.021643
  12 C :   -0.075438
  13 H :    0.024619
  14 H :    0.016151
  15 H :    0.030195
  16 S :    0.373976
  17 C :   -0.161759
  18 C :   -0.064128
  19 C :   -0.043582
  20 C :   -0.209211
  21 H :    0.017432
  22 C :   -0.030123
  23 H :    0.034823
  24 H :    0.034138
  25 C :   -0.043645
  26 H :    0.017883
  27 H :    0.029613
  28 C :   -0.067920
  29 H :    0.030201
  30 H :    0.016497
  31 H :    0.030053
  32 H :    0.037842
  33 H :    0.034477

  Mayer bond orders larger than 0.100000
B(  0-S ,  1-C ) :   1.1271 B(  0-S ,  4-C ) :   1.1649 B(  1-C ,  2-C ) :   1.6291
B(  1-C , 32-H ) :   0.9560 B(  2-C ,  3-C ) :   1.2382 B(  2-C ,  6-C ) :   1.0129
B(  3-C ,  4-C ) :   1.5689 B(  3-C ,  5-H ) :   0.9945 B(  4-C , 20-C ) :   0.9958
B(  6-C ,  7-H ) :   0.9447 B(  6-C ,  8-H ) :   0.9499 B(  6-C ,  9-C ) :   1.0830
B(  9-C , 10-H ) :   0.9523 B(  9-C , 11-H ) :   0.9568 B(  9-C , 12-C ) :   1.0716
B( 12-C , 13-H ) :   0.9714 B( 12-C , 14-H ) :   0.9740 B( 12-C , 15-H ) :   0.9682
B( 16-S , 17-C ) :   1.1360 B( 16-S , 20-C ) :   1.1356 B( 17-C , 18-C ) :   1.6565
B( 17-C , 33-H ) :   0.9592 B( 18-C , 19-C ) :   1.1951 B( 18-C , 21-H ) :   1.0039
B( 19-C , 20-C ) :   1.6140 B( 19-C , 22-C ) :   1.0458 B( 22-C , 23-H ) :   0.9256
B( 22-C , 24-H ) :   0.9234 B( 22-C , 25-C ) :   1.0486 B( 25-C , 26-H ) :   0.9520
B( 25-C , 27-H ) :   0.9489 B( 25-C , 28-C ) :   1.1059 B( 28-C , 29-H ) :   0.9664
B( 28-C , 30-H ) :   0.9684 B( 28-C , 31-H ) :   0.9712

Dispersion correction           -0.014771566
FINAL SINGLE POINT ENERGY     -1339.863576321012

DIPOLE MOMENT
-------------
                                X             Y             Z
Electronic contribution:     -9.91560     -16.53291     -18.25831
Nuclear contribution   :     10.22384      16.89344      18.60741
                        -----------------------------------------
Total Dipole Moment    :      0.30824       0.36053       0.34910
                        -----------------------------------------
Magnitude (a.u.)       :      0.58895
Magnitude (Debye)      :      1.49700

Rotational constants in cm-1:     0.016675     0.009287     0.007410
Rotational constants in MHz :   499.893898   278.407050   222.133526

                             ****ORCA TERMINATED NORMALLY****
TOTAL RUN TIME: 0 days 0 hours 0 minutes 22 seconds 160 msec
