                         Program Version 4.2.1 -  RELEASE  -
|  1> ! wB97X-D3 SP def2-SVP
|  2> %pal
|  3> nprocs 24
|  4> end
|  5>
|  6> * xyz 0 1
|  7> S 	 -106.632 	 40.931 	 -8.42581
|  8> C 	 -106.722 	 41.0883 	 -6.68412
|  9> C 	 -107.808 	 41.8174 	 -6.23957
| 10> C 	 -108.523 	 42.379 	 -7.38097
| 11> C 	 -108.094 	 41.9708 	 -8.65246
| 12> H 	 -109.39 	 42.9777 	 -7.33002
| 13> C 	 -107.971 	 42.3963 	 -4.78398
| 14> H 	 -107.778 	 41.5745 	 -4.01491
| 15> H 	 -108.999 	 42.7602 	 -4.66143
| 16> C 	 -107.07 	 43.6334 	 -4.39295
| 17> H 	 -107.165 	 43.8166 	 -3.26743
| 18> H 	 -106.051 	 43.532 	 -4.77997
| 19> C 	 -107.562 	 44.9743 	 -5.01263
| 20> H 	 -107.795 	 44.8681 	 -6.07184
| 21> H 	 -108.423 	 45.4793 	 -4.46834
| 22> H 	 -106.748 	 45.6792 	 -4.87584
| 23> S 	 -108.62 	 41.1691 	 -11.2241
| 24> C 	 -109.907 	 41.9024 	 -12.1455
| 25> C 	 -110.259 	 43.1147 	 -11.576
| 26> C 	 -109.633 	 43.3231 	 -10.2791
| 27> C 	 -108.832 	 42.232 	 -9.90923
| 28> H 	 -110.999 	 43.6581 	 -12.1544
| 29> C 	 -109.842 	 44.5878 	 -9.56695
| 30> H 	 -109.902 	 45.4484 	 -10.1802
| 31> H 	 -108.979 	 44.7144 	 -8.95397
| 32> C 	 -111.036 	 44.7193 	 -8.68089
| 33> H 	 -111.262 	 43.7552 	 -8.25864
| 34> H 	 -111.867 	 44.9239 	 -9.36901
| 35> C 	 -110.894 	 45.8371 	 -7.67848
| 36> H 	 -110.524 	 46.801 	 -8.10845
| 37> H 	 -110.119 	 45.5892 	 -6.97891
| 38> H 	 -111.833 	 46.0481 	 -7.06733
| 39> H 	 -106.106 	 40.4291 	 -6.07869
| 40> H 	 -110.283 	 41.6346 	 -13.1591
| 41> *
| 42>
| 43>                          ****END OF INPUT****

CARTESIAN COORDINATES (ANGSTROEM)
---------------------------------
  S    -106.632000   40.931000   -8.425810
  C    -106.722000   41.088300   -6.684120
  C    -107.808000   41.817400   -6.239570
  C    -108.523000   42.379000   -7.380970
  C    -108.094000   41.970800   -8.652460
  H    -109.390000   42.977700   -7.330020
  C    -107.971000   42.396300   -4.783980
  H    -107.778000   41.574500   -4.014910
  H    -108.999000   42.760200   -4.661430
  C    -107.070000   43.633400   -4.392950
  H    -107.165000   43.816600   -3.267430
  H    -106.051000   43.532000   -4.779970
  C    -107.562000   44.974300   -5.012630
  H    -107.795000   44.868100   -6.071840
  H    -108.423000   45.479300   -4.468340
  H    -106.748000   45.679200   -4.875840
  S    -108.620000   41.169100  -11.224100
  C    -109.907000   41.902400  -12.145500
  C    -110.259000   43.114700  -11.576000
  C    -109.633000   43.323100  -10.279100
  C    -108.832000   42.232000   -9.909230
  H    -110.999000   43.658100  -12.154400
  C    -109.842000   44.587800   -9.566950
  H    -109.902000   45.448400  -10.180200
  H    -108.979000   44.714400   -8.953970
  C    -111.036000   44.719300   -8.680890
  H    -111.262000   43.755200   -8.258640
  H    -111.867000   44.923900   -9.369010
  C    -110.894000   45.837100   -7.678480
  H    -110.524000   46.801000   -8.108450
  H    -110.119000   45.589200   -6.978910
  H    -111.833000   46.048100   -7.067330
  H    -106.106000   40.429100   -6.078690
  H    -110.283000   41.634600  -13.159100

 Total Charge           Charge          ....    0
 Multiplicity           Mult            ....    1
 Number of Electrons    NEL             ....  134
 Basis Dimension        Dim             ....  322

ORBITAL ENERGIES
----------------

  NO   OCC          E(Eh)            E(eV)
   0   2.0000     -88.970842     -2421.0197
   1   2.0000     -88.967036     -2420.9161
   2   2.0000     -10.341768      -281.4138
   3   2.0000     -10.333267      -281.1825
   4   2.0000     -10.320823      -280.8439
   5   2.0000     -10.319510      -280.8081
   6   2.0000     -10.312019      -280.6043
   7   2.0000     -10.308142      -280.4988
   8   2.0000     -10.307242      -280.4743
   9   2.0000     -10.298850      -280.2460
  10   2.0000     -10.298804      -280.2447
  11   2.0000     -10.296910      -280.1932
  12   2.0000     -10.285044      -279.8703
  13   2.0000     -10.281795      -279.7819
  14   2.0000     -10.281299      -279.7684
  15   2.0000     -10.277960      -279.6775
  16   2.0000      -8.084583      -219.9927
  17   2.0000      -8.082677      -219.9408
  18   2.0000      -6.043286      -164.4462
  19   2.0000      -6.041247      -164.3907
  20   2.0000      -6.039206      -164.3352
  21   2.0000      -6.037074      -164.2771
  22   2.0000      -6.035220      -164.2267
  23   2.0000      -6.033303      -164.1745
  24   2.0000      -1.008122       -27.4324
  25   2.0000      -0.981623       -26.7113
  26   2.0000      -0.925150       -25.1746
  27   2.0000      -0.899117       -24.4662
  28   2.0000      -0.870315       -23.6825
  29   2.0000      -0.854239       -23.2450
  30   2.0000      -0.842139       -22.9158
  31   2.0000      -0.817643       -22.2492
  32   2.0000      -0.780053       -21.2263
  33   2.0000      -0.772021       -21.0078
  34   2.0000      -0.707538       -19.2531
  35   2.0000      -0.695895       -18.9363
  36   2.0000      -0.690386       -18.7864
  37   2.0000      -0.666234       -18.1291
  38   2.0000      -0.640162       -17.4197
  39   2.0000      -0.618680       -16.8351
  40   2.0000      -0.600794       -16.3484
  41   2.0000      -0.574606       -15.6358
  42   2.0000      -0.570929       -15.5358
  43   2.0000      -0.545546       -14.8450
  44   2.0000      -0.537733       -14.6325
  45   2.0000      -0.524833       -14.2814
  46   2.0000      -0.513667       -13.9776
  47   2.0000      -0.511560       -13.9202
  48   2.0000      -0.508136       -13.8271
  49   2.0000      -0.498072       -13.5532
  50   2.0000      -0.489069       -13.3082
  51   2.0000      -0.481863       -13.1121
  52   2.0000      -0.475568       -12.9409
  53   2.0000      -0.470772       -12.8104
  54   2.0000      -0.458223       -12.4689
  55   2.0000      -0.444899       -12.1063
  56   2.0000      -0.439089       -11.9482
  57   2.0000      -0.437212       -11.8972
  58   2.0000      -0.433362       -11.7924
  59   2.0000      -0.428437       -11.6584
  60   2.0000      -0.419451       -11.4138
  61   2.0000      -0.416430       -11.3316
  62   2.0000      -0.412395       -11.2218
  63   2.0000      -0.361556        -9.8384
  64   2.0000      -0.334384        -9.0991
  65   2.0000      -0.326461        -8.8835
  66   2.0000      -0.286777        -7.8036
  67   0.0000       0.017887         0.4867
  68   0.0000       0.076036         2.0691
  69   0.0000       0.097343         2.6488
  70   0.0000       0.115091         3.1318
  71   0.0000       0.121318         3.3012

MULLIKEN ATOMIC CHARGES
-----------------------
   0 S :    0.101652
   1 C :   -0.123619
   2 C :   -0.045843
   3 C :    0.012184
   4 C :   -0.112240
   5 H :   -0.030197
   6 C :    0.016694
   7 H :    0.045923
   8 H :    0.029883
   9 C :   -0.077504
  10 H :    0.049934
  11 H :    0.042993
  12 C :   -0.104694
  13 H :    0.050605
  14 H :    0.040941
  15 H :    0.032121
  16 S :    0.108494
  17 C :   -0.110024
  18 C :   -0.037197
  19 C :   -0.051909
  20 C :   -0.122901
  21 H :    0.023448
  22 C :    0.070203
  23 H :    0.013627
  24 H :    0.007172
  25 C :   -0.054843
  26 H :    0.030886
  27 H :    0.017830
  28 C :   -0.045545
  29 H :    0.031656
  30 H :    0.008989
  31 H :    0.049451
  32 H :    0.063114
  33 H :    0.068717
Sum of atomic charges:    0.0000000

LOEWDIN ATOMIC CHARGES
----------------------
   0 S :    0.379603
   1 C :   -0.186147
   2 C :   -0.066388
   3 C :   -0.058788
   4 C :   -0.173608
   5 H :    0.019450
   6 C :   -0.035639
   7 H :    0.037496
   8 H :    0.028944
   9 C :   -0.042132
  10 H :    0.036723
  11 H :    0.026794
  12 C :   -0.078130
  13 H :    0.020736
  14 H :    0.028089
  15 H :    0.026322
  16 S :    0.425585
  17 C :   -0.197757
  18 C :   -0.069491
  19 C :   -0.053698
  20 C :   -0.205253
  21 H :    0.034300
  22 C :   -0.037001
  23 H :    0.029622
  24 H :    0.023849
  25 C :   -0.041930
  26 H :    0.018475
  27 H :    0.023906
  28 C :   -0.069170
  29 H :    0.030199
  30 H :    0.018840
  31 H :    0.036082
  32 H :    0.029762
  33 H :    0.040356

  Mayer bond orders larger than 0.100000
B(  0-S ,  1-C ) :   1.1454 B(  0-S ,  4-C ) :   1.1204 B(  1-C ,  2-C ) :   1.6105
B(  1-C , 32-H ) :   0.9615 B(  2-C ,  3-C ) :   1.2272 B(  2-C ,  6-C ) :   1.0335
B(  3-C ,  4-C ) :   1.5791 B(  3-C ,  5-H ) :   0.9934 B(  4-C , 20-C ) :   1.0814
B(  6-C ,  7-H ) :   0.9470 B(  6-C ,  8-H ) :   0.9472 B(  6-C ,  9-C ) :   1.0488
B(  9-C , 10-H ) :   0.9558 B(  9-C , 11-H ) :   0.9599 B(  9-C , 12-C ) :   1.0730
B( 12-C , 13-H ) :   0.9715 B( 12-C , 14-H ) :   0.9752 B( 12-C , 15-H ) :   0.9714
B( 16-S , 17-C ) :   1.1554 B( 16-S , 20-C ) :   1.1436 B( 17-C , 18-C ) :   1.6227
B( 17-C , 33-H ) :   0.9615 B( 18-C , 19-C ) :   1.2247 B( 18-C , 21-H ) :   0.9934
B( 19-C , 20-C ) :   1.5525 B( 19-C , 22-C ) :   1.0668 B( 22-C , 23-H ) :   0.9271
B( 22-C , 24-H ) :   0.9296 B( 22-C , 25-C ) :   1.0554 B( 25-C , 26-H ) :   0.9510
B( 25-C , 27-H ) :   0.9466 B( 25-C , 28-C ) :   1.0837 B( 28-C , 29-H ) :   0.9683
B( 28-C , 30-H ) :   0.9711 B( 28-C , 31-H ) :   0.9708

Dispersion correction           -0.015365581
FINAL SINGLE POINT ENERGY     -1339.867547818467

DIPOLE MOMENT
-------------
                                X             Y             Z
Electronic contribution:      9.13652     -23.54969     -20.85746
Nuclear contribution   :     -9.42622      24.05912      21.14193
                        -----------------------------------------
Total Dipole Moment    :     -0.28970       0.50943       0.28447
                        -----------------------------------------
Magnitude (a.u.)       :      0.65144
Magnitude (Debye)      :      1.65583

Rotational constants in cm-1:     0.017818     0.010369     0.006897
Rotational constants in MHz :   534.175078   310.843577   206.757953

                             ****ORCA TERMINATED NORMALLY****
TOTAL RUN TIME: 0 days 0 hours 0 minutes 22 seconds 690 msec
