                         Program Version 4.2.1 -  RELEASE  -
|  1> ! wB97X-D3 SP def2-SVP
|  2> %pal
|  3> nprocs 24
|  4> end
|  5>
|  6> * xyz 0 1
|  7> S 	 -144.653 	 18.5197 	 -3.57392
|  8> C 	 -142.955 	 18.1273 	 -3.66528
|  9> C 	 -142.732 	 16.7859 	 -3.47928
| 10> C 	 -143.964 	 16.0781 	 -3.12193
| 11> C 	 -145.059 	 16.8761 	 -3.11379
| 12> H 	 -144.038 	 15.051 	 -2.71993
| 13> C 	 -141.386 	 16.1298 	 -3.6868
| 14> H 	 -141.087 	 15.6406 	 -2.76712
| 15> H 	 -140.644 	 16.9264 	 -3.69384
| 16> C 	 -141.122 	 15.1122 	 -4.83356
| 17> H 	 -140.044 	 14.6868 	 -4.88355
| 18> H 	 -141.772 	 14.3169 	 -4.70169
| 19> C 	 -141.352 	 15.6761 	 -6.21975
| 20> H 	 -140.556 	 16.3431 	 -6.56894
| 21> H 	 -141.219 	 14.8152 	 -6.8695
| 22> H 	 -142.323 	 16.1021 	 -6.32824
| 23> S 	 -147.439 	 17.883 	 -2.11102
| 24> C 	 -148.67 	 16.7175 	 -1.64014
| 25> C 	 -148.501 	 15.5311 	 -2.28314
| 26> C 	 -147.262 	 15.4712 	 -2.97497
| 27> C 	 -146.462 	 16.5865 	 -2.85211
| 28> H 	 -149.309 	 14.7229 	 -2.15209
| 29> C 	 -146.915 	 14.2594 	 -3.7419
| 30> H 	 -146.068 	 14.5418 	 -4.33572
| 31> H 	 -147.787 	 14.0791 	 -4.40797
| 32> C 	 -146.699 	 13.0048 	 -2.86409
| 33> H 	 -147.541 	 12.9358 	 -2.18507
| 34> H 	 -145.697 	 12.9586 	 -2.30495
| 35> C 	 -146.673 	 11.7074 	 -3.69904
| 36> H 	 -147.628 	 11.2965 	 -4.05424
| 37> H 	 -146.235 	 10.899 	 -3.13232
| 38> H 	 -146.118 	 11.8804 	 -4.57175
| 39> H 	 -142.194 	 18.7805 	 -4.07398
| 40> H 	 -149.569 	 17.0509 	 -1.07102
| 41> *
| 42>
| 43>                          ****END OF INPUT****

CARTESIAN COORDINATES (ANGSTROEM)
---------------------------------
  S    -144.653000   18.519700   -3.573920
  C    -142.955000   18.127300   -3.665280
  C    -142.732000   16.785900   -3.479280
  C    -143.964000   16.078100   -3.121930
  C    -145.059000   16.876100   -3.113790
  H    -144.038000   15.051000   -2.719930
  C    -141.386000   16.129800   -3.686800
  H    -141.087000   15.640600   -2.767120
  H    -140.644000   16.926400   -3.693840
  C    -141.122000   15.112200   -4.833560
  H    -140.044000   14.686800   -4.883550
  H    -141.772000   14.316900   -4.701690
  C    -141.352000   15.676100   -6.219750
  H    -140.556000   16.343100   -6.568940
  H    -141.219000   14.815200   -6.869500
  H    -142.323000   16.102100   -6.328240
  S    -147.439000   17.883000   -2.111020
  C    -148.670000   16.717500   -1.640140
  C    -148.501000   15.531100   -2.283140
  C    -147.262000   15.471200   -2.974970
  C    -146.462000   16.586500   -2.852110
  H    -149.309000   14.722900   -2.152090
  C    -146.915000   14.259400   -3.741900
  H    -146.068000   14.541800   -4.335720
  H    -147.787000   14.079100   -4.407970
  C    -146.699000   13.004800   -2.864090
  H    -147.541000   12.935800   -2.185070
  H    -145.697000   12.958600   -2.304950
  C    -146.673000   11.707400   -3.699040
  H    -147.628000   11.296500   -4.054240
  H    -146.235000   10.899000   -3.132320
  H    -146.118000   11.880400   -4.571750
  H    -142.194000   18.780500   -4.073980
  H    -149.569000   17.050900   -1.071020

 Total Charge           Charge          ....    0
 Multiplicity           Mult            ....    1
 Number of Electrons    NEL             ....  134
 Basis Dimension        Dim             ....  322

ORBITAL ENERGIES
----------------

  NO   OCC          E(Eh)            E(eV)
   0   2.0000     -88.963862     -2420.8298
   1   2.0000     -88.960464     -2420.7373
   2   2.0000     -10.332468      -281.1608
   3   2.0000     -10.328577      -281.0549
   4   2.0000     -10.322054      -280.8774
   5   2.0000     -10.313661      -280.6490
   6   2.0000     -10.306232      -280.4468
   7   2.0000     -10.301767      -280.3253
   8   2.0000     -10.300054      -280.2787
   9   2.0000     -10.298624      -280.2398
  10   2.0000     -10.295646      -280.1588
  11   2.0000     -10.290799      -280.0269
  12   2.0000     -10.289776      -279.9990
  13   2.0000     -10.289505      -279.9917
  14   2.0000     -10.272899      -279.5398
  15   2.0000     -10.269988      -279.4606
  16   2.0000      -8.079058      -219.8423
  17   2.0000      -8.075243      -219.7385
  18   2.0000      -6.037670      -164.2934
  19   2.0000      -6.033867      -164.1899
  20   2.0000      -6.033643      -164.1838
  21   2.0000      -6.029947      -164.0832
  22   2.0000      -6.029530      -164.0719
  23   2.0000      -6.025659      -163.9665
  24   2.0000      -1.009900       -27.4808
  25   2.0000      -0.986797       -26.8521
  26   2.0000      -0.912334       -24.8259
  27   2.0000      -0.909950       -24.7610
  28   2.0000      -0.873513       -23.7695
  29   2.0000      -0.854397       -23.2493
  30   2.0000      -0.844482       -22.9795
  31   2.0000      -0.821701       -22.3596
  32   2.0000      -0.783453       -21.3188
  33   2.0000      -0.772627       -21.0243
  34   2.0000      -0.709564       -19.3082
  35   2.0000      -0.698930       -19.0189
  36   2.0000      -0.692934       -18.8557
  37   2.0000      -0.659860       -17.9557
  38   2.0000      -0.641739       -17.4626
  39   2.0000      -0.618708       -16.8359
  40   2.0000      -0.596527       -16.2323
  41   2.0000      -0.567875       -15.4527
  42   2.0000      -0.562985       -15.3196
  43   2.0000      -0.552077       -15.0228
  44   2.0000      -0.542233       -14.7549
  45   2.0000      -0.532743       -14.4967
  46   2.0000      -0.520689       -14.1687
  47   2.0000      -0.518054       -14.0970
  48   2.0000      -0.508056       -13.8249
  49   2.0000      -0.498976       -13.5778
  50   2.0000      -0.489825       -13.3288
  51   2.0000      -0.476449       -12.9648
  52   2.0000      -0.468847       -12.7580
  53   2.0000      -0.465111       -12.6563
  54   2.0000      -0.457852       -12.4588
  55   2.0000      -0.449038       -12.2190
  56   2.0000      -0.444402       -12.0928
  57   2.0000      -0.437383       -11.9018
  58   2.0000      -0.427866       -11.6428
  59   2.0000      -0.424998       -11.5648
  60   2.0000      -0.423896       -11.5348
  61   2.0000      -0.418543       -11.3891
  62   2.0000      -0.412430       -11.2228
  63   2.0000      -0.361442        -9.8353
  64   2.0000      -0.332911        -9.0590
  65   2.0000      -0.324907        -8.8412
  66   2.0000      -0.288956        -7.8629
  67   0.0000       0.023407         0.6369
  68   0.0000       0.073445         1.9985
  69   0.0000       0.096297         2.6204
  70   0.0000       0.119282         3.2458
  71   0.0000       0.130393         3.5482

MULLIKEN ATOMIC CHARGES
-----------------------
   0 S :    0.089504
   1 C :   -0.100353
   2 C :   -0.115095
   3 C :   -0.010287
   4 C :   -0.105937
   5 H :    0.025403
   6 C :    0.082389
   7 H :    0.023831
   8 H :    0.004057
   9 C :   -0.067740
  10 H :    0.041570
  11 H :    0.013844
  12 C :   -0.047575
  13 H :    0.027954
  14 H :    0.022649
  15 H :    0.042347
  16 S :    0.076404
  17 C :   -0.105203
  18 C :   -0.052868
  19 C :   -0.052488
  20 C :   -0.118414
  21 H :    0.054952
  22 C :    0.060253
  23 H :    0.021798
  24 H :    0.037970
  25 C :   -0.091918
  26 H :    0.028437
  27 H :    0.048608
  28 C :   -0.032835
  29 H :    0.025964
  30 H :    0.028985
  31 H :    0.017016
  32 H :    0.052320
  33 H :    0.074457
Sum of atomic charges:    0.0000000

LOEWDIN ATOMIC CHARGES
----------------------
   0 S :    0.393453
   1 C :   -0.194680
   2 C :   -0.060809
   3 C :   -0.074871
   4 C :   -0.176699
   5 H :    0.037855
   6 C :   -0.038903
   7 H :    0.031938
   8 H :    0.027571
   9 C :   -0.037477
  10 H :    0.039122
  11 H :    0.011389
  12 C :   -0.065597
  13 H :    0.024567
  14 H :    0.026764
  15 H :    0.021887
  16 S :    0.371332
  17 C :   -0.173212
  18 C :   -0.085422
  19 C :   -0.057770
  20 C :   -0.187867
  21 H :    0.049324
  22 C :   -0.034451
  23 H :    0.026678
  24 H :    0.041174
  25 C :   -0.037912
  26 H :    0.021074
  27 H :    0.034612
  28 C :   -0.066586
  29 H :    0.023633
  30 H :    0.024794
  31 H :    0.016882
  32 H :    0.030775
  33 H :    0.037431

  Mayer bond orders larger than 0.100000
B(  0-S ,  1-C ) :   1.1204 B(  0-S ,  4-C ) :   1.1340 B(  1-C ,  2-C ) :   1.6592
B(  1-C , 32-H ) :   0.9620 B(  2-C ,  3-C ) :   1.1843 B(  2-C ,  6-C ) :   1.0328
B(  3-C ,  4-C ) :   1.6274 B(  3-C ,  5-H ) :   0.9884 B(  4-C , 20-C ) :   1.0438
B(  6-C ,  7-H ) :   0.9327 B(  6-C ,  8-H ) :   0.9377 B(  6-C ,  9-C ) :   1.0623
B(  9-C , 10-H ) :   0.9550 B(  9-C , 11-H ) :   0.9568 B(  9-C , 12-C ) :   1.0851
B( 12-C , 13-H ) :   0.9755 B( 12-C , 14-H ) :   0.9721 B( 12-C , 15-H ) :   0.9756
B( 16-S , 17-C ) :   1.1516 B( 16-S , 20-C ) :   1.1028 B( 17-C , 18-C ) :   1.6302
B( 17-C , 33-H ) :   0.9612 B( 18-C , 19-C ) :   1.2059 B( 18-C , 21-H ) :   0.9776
B( 19-C , 20-C ) :   1.6205 B( 19-C , 22-C ) :   1.0549 B( 22-C , 23-H ) :   0.9271
B( 22-C , 24-H ) :   0.9340 B( 22-C , 25-C ) :   1.0628 B( 25-C , 26-H ) :   0.9583
B( 25-C , 27-H ) :   0.9543 B( 25-C , 28-C ) :   1.0779 B( 28-C , 29-H ) :   0.9750
B( 28-C , 30-H ) :   0.9767 B( 28-C , 31-H ) :   0.9730

Dispersion correction           -0.014022927
FINAL SINGLE POINT ENERGY     -1339.874729604585

DIPOLE MOMENT
-------------
                                X             Y             Z
Electronic contribution:    -13.13194      25.81500      10.20852
Nuclear contribution   :     13.22095     -26.55827     -10.34525
                        -----------------------------------------
Total Dipole Moment    :      0.08901      -0.74327      -0.13673
                        -----------------------------------------
Magnitude (a.u.)       :      0.76096
Magnitude (Debye)      :      1.93422

Rotational constants in cm-1:     0.017264     0.009501     0.006502
Rotational constants in MHz :   517.547683   284.822602   194.918311

                             ****ORCA TERMINATED NORMALLY****
TOTAL RUN TIME: 0 days 0 hours 0 minutes 21 seconds 661 msec
