                         Program Version 4.2.1 -  RELEASE  -
|  1> ! wB97X-D3 SP def2-SVP
|  2> %pal
|  3> nprocs 24
|  4> end
|  5>
|  6> * xyz 0 1
|  7> S 	 -21.9784 	 -35.0622 	 -96.743
|  8> C 	 -20.4674 	 -35.8051 	 -96.2653
|  9> C 	 -19.4488 	 -34.8543 	 -95.9961
| 10> C 	 -19.9882 	 -33.5568 	 -96.1018
| 11> C 	 -21.3672 	 -33.4628 	 -96.3799
| 12> H 	 -19.3278 	 -32.7337 	 -96.1786
| 13> C 	 -18.0668 	 -35.1377 	 -95.4351
| 14> H 	 -18.0327 	 -36.2309 	 -95.2242
| 15> H 	 -17.9187 	 -34.6169 	 -94.5772
| 16> C 	 -16.8506 	 -34.8547 	 -96.4346
| 17> H 	 -16.9586 	 -35.2915 	 -97.407
| 18> H 	 -16.9119 	 -33.8189 	 -96.5352
| 19> C 	 -15.4627 	 -35.1108 	 -95.8789
| 20> H 	 -14.7306 	 -34.473 	 -96.3743
| 21> H 	 -15.4772 	 -34.9137 	 -94.812
| 22> H 	 -15.1287 	 -36.1229 	 -95.9457
| 23> S 	 -23.1898 	 -32.3584 	 -98.1108
| 24> C 	 -23.9077 	 -30.735 	 -97.9114
| 25> C 	 -23.3103 	 -30.2167 	 -96.7774
| 26> C 	 -22.3657 	 -31.0533 	 -96.076
| 27> C 	 -22.0782 	 -32.2333 	 -96.7367
| 28> H 	 -23.5994 	 -29.1993 	 -96.5203
| 29> C 	 -21.585 	 -30.4535 	 -94.8743
| 30> H 	 -21.2983 	 -31.2998 	 -94.2472
| 31> H 	 -22.1361 	 -29.6965 	 -94.2892
| 32> C 	 -20.265 	 -29.7634 	 -95.4378
| 33> H 	 -20.4293 	 -29.1425 	 -96.3448
| 34> H 	 -19.6795 	 -30.4994 	 -95.7866
| 35> C 	 -19.5445 	 -28.9297 	 -94.4143
| 36> H 	 -18.7364 	 -28.2227 	 -94.7875
| 37> H 	 -19.2602 	 -29.3865 	 -93.4721
| 38> H 	 -20.2835 	 -28.1242 	 -94.2544
| 39> H 	 -20.3448 	 -36.8676 	 -96.111
| 40> H 	 -24.5148 	 -30.3438 	 -98.7041
| 41> *
| 42>
| 43>                          ****END OF INPUT****

CARTESIAN COORDINATES (ANGSTROEM)
---------------------------------
  S    -21.978400  -35.062200  -96.743000
  C    -20.467400  -35.805100  -96.265300
  C    -19.448800  -34.854300  -95.996100
  C    -19.988200  -33.556800  -96.101800
  C    -21.367200  -33.462800  -96.379900
  H    -19.327800  -32.733700  -96.178600
  C    -18.066800  -35.137700  -95.435100
  H    -18.032700  -36.230900  -95.224200
  H    -17.918700  -34.616900  -94.577200
  C    -16.850600  -34.854700  -96.434600
  H    -16.958600  -35.291500  -97.407000
  H    -16.911900  -33.818900  -96.535200
  C    -15.462700  -35.110800  -95.878900
  H    -14.730600  -34.473000  -96.374300
  H    -15.477200  -34.913700  -94.812000
  H    -15.128700  -36.122900  -95.945700
  S    -23.189800  -32.358400  -98.110800
  C    -23.907700  -30.735000  -97.911400
  C    -23.310300  -30.216700  -96.777400
  C    -22.365700  -31.053300  -96.076000
  C    -22.078200  -32.233300  -96.736700
  H    -23.599400  -29.199300  -96.520300
  C    -21.585000  -30.453500  -94.874300
  H    -21.298300  -31.299800  -94.247200
  H    -22.136100  -29.696500  -94.289200
  C    -20.265000  -29.763400  -95.437800
  H    -20.429300  -29.142500  -96.344800
  H    -19.679500  -30.499400  -95.786600
  C    -19.544500  -28.929700  -94.414300
  H    -18.736400  -28.222700  -94.787500
  H    -19.260200  -29.386500  -93.472100
  H    -20.283500  -28.124200  -94.254400
  H    -20.344800  -36.867600  -96.111000
  H    -24.514800  -30.343800  -98.704100

 Total Charge           Charge          ....    0
 Multiplicity           Mult            ....    1
 Number of Electrons    NEL             ....  134
 Basis Dimension        Dim             ....  322

ORBITAL ENERGIES
----------------

  NO   OCC          E(Eh)            E(eV)
   0   2.0000     -88.973745     -2421.0987
   1   2.0000     -88.957121     -2420.6463
   2   2.0000     -10.335772      -281.2507
   3   2.0000     -10.332633      -281.1652
   4   2.0000     -10.322292      -280.8839
   5   2.0000     -10.319794      -280.8159
   6   2.0000     -10.309411      -280.5333
   7   2.0000     -10.304542      -280.4008
   8   2.0000     -10.300034      -280.2782
   9   2.0000     -10.298843      -280.2458
  10   2.0000     -10.294365      -280.1239
  11   2.0000     -10.293259      -280.0938
  12   2.0000     -10.282699      -279.8065
  13   2.0000     -10.280915      -279.7579
  14   2.0000     -10.280806      -279.7549
  15   2.0000     -10.275677      -279.6154
  16   2.0000      -8.087845      -220.0815
  17   2.0000      -8.071644      -219.6406
  18   2.0000      -6.046390      -164.5306
  19   2.0000      -6.042332      -164.4202
  20   2.0000      -6.038707      -164.3216
  21   2.0000      -6.030269      -164.0919
  22   2.0000      -6.026045      -163.9770
  23   2.0000      -6.022409      -163.8781
  24   2.0000      -1.004286       -27.3280
  25   2.0000      -0.980575       -26.6828
  26   2.0000      -0.910889       -24.7865
  27   2.0000      -0.904674       -24.6174
  28   2.0000      -0.870559       -23.6891
  29   2.0000      -0.855030       -23.2665
  30   2.0000      -0.843541       -22.9539
  31   2.0000      -0.814587       -22.1660
  32   2.0000      -0.780778       -21.2461
  33   2.0000      -0.770164       -20.9572
  34   2.0000      -0.709344       -19.3022
  35   2.0000      -0.704406       -19.1679
  36   2.0000      -0.698435       -19.0054
  37   2.0000      -0.665150       -18.0996
  38   2.0000      -0.640575       -17.4309
  39   2.0000      -0.624361       -16.9897
  40   2.0000      -0.594865       -16.1871
  41   2.0000      -0.577488       -15.7142
  42   2.0000      -0.567157       -15.4331
  43   2.0000      -0.558793       -15.2055
  44   2.0000      -0.532079       -14.4786
  45   2.0000      -0.528159       -14.3719
  46   2.0000      -0.518928       -14.1208
  47   2.0000      -0.510030       -13.8786
  48   2.0000      -0.506243       -13.7756
  49   2.0000      -0.501157       -13.6372
  50   2.0000      -0.497810       -13.5461
  51   2.0000      -0.479355       -13.0439
  52   2.0000      -0.470466       -12.8020
  53   2.0000      -0.466743       -12.7007
  54   2.0000      -0.460261       -12.5243
  55   2.0000      -0.448244       -12.1973
  56   2.0000      -0.442886       -12.0515
  57   2.0000      -0.438096       -11.9212
  58   2.0000      -0.433703       -11.8016
  59   2.0000      -0.431140       -11.7319
  60   2.0000      -0.415539       -11.3074
  61   2.0000      -0.412837       -11.2339
  62   2.0000      -0.405306       -11.0289
  63   2.0000      -0.354316        -9.6414
  64   2.0000      -0.332647        -9.0518
  65   2.0000      -0.325057        -8.8453
  66   2.0000      -0.289116        -7.8672
  67   0.0000       0.022220         0.6046
  68   0.0000       0.065231         1.7750
  69   0.0000       0.107224         2.9177
  70   0.0000       0.116749         3.1769
  71   0.0000       0.137063         3.7297

MULLIKEN ATOMIC CHARGES
-----------------------
   0 S :    0.127323
   1 C :   -0.126009
   2 C :   -0.085642
   3 C :    0.010687
   4 C :   -0.110207
   5 H :    0.008102
   6 C :    0.082682
   7 H :    0.022721
   8 H :    0.012097
   9 C :   -0.070271
  10 H :    0.032469
  11 H :    0.011108
  12 C :   -0.028762
  13 H :    0.038142
  14 H :    0.018258
  15 H :    0.027110
  16 S :    0.048991
  17 C :   -0.097187
  18 C :   -0.024077
  19 C :   -0.040082
  20 C :   -0.140491
  21 H :    0.023208
  22 C :    0.048991
  23 H :    0.036459
  24 H :    0.029486
  25 C :   -0.021661
  26 H :    0.030133
  27 H :   -0.017684
  28 C :   -0.063563
  29 H :    0.037579
  30 H :    0.042974
  31 H :    0.018504
  32 H :    0.049145
  33 H :    0.069468
Sum of atomic charges:   -0.0000000

LOEWDIN ATOMIC CHARGES
----------------------
   0 S :    0.423500
   1 C :   -0.194179
   2 C :   -0.061071
   3 C :   -0.059865
   4 C :   -0.197284
   5 H :    0.021621
   6 C :   -0.016858
   7 H :    0.032557
   8 H :    0.016205
   9 C :   -0.032117
  10 H :    0.023720
  11 H :    0.014211
  12 C :   -0.062191
  13 H :    0.030369
  14 H :    0.024531
  15 H :    0.020329
  16 S :    0.366981
  17 C :   -0.168496
  18 C :   -0.071057
  19 C :   -0.059117
  20 C :   -0.185396
  21 H :    0.030557
  22 C :   -0.020288
  23 H :    0.031908
  24 H :    0.029474
  25 C :   -0.035096
  26 H :    0.032849
  27 H :   -0.000944
  28 C :   -0.079664
  29 H :    0.036041
  30 H :    0.023798
  31 H :    0.027820
  32 H :    0.026056
  33 H :    0.031095

  Mayer bond orders larger than 0.100000
B(  0-S ,  1-C ) :   1.1628 B(  0-S ,  4-C ) :   1.1585 B(  1-C ,  2-C ) :   1.5626
B(  1-C ,  4-C ) :   0.1023 B(  1-C , 32-H ) :   0.9645 B(  2-C ,  3-C ) :   1.3029
B(  2-C ,  6-C ) :   1.0293 B(  3-C ,  4-C ) :   1.5227 B(  3-C ,  5-H ) :   0.9896
B(  4-C , 20-C ) :   1.0543 B(  6-C ,  7-H ) :   0.9444 B(  6-C ,  8-H ) :   0.9408
B(  6-C ,  9-C ) :   1.0560 B(  9-C , 10-H ) :   0.9598 B(  9-C , 11-H ) :   0.9584
B(  9-C , 12-C ) :   1.0871 B( 12-C , 13-H ) :   0.9741 B( 12-C , 14-H ) :   0.9704
B( 12-C , 15-H ) :   0.9765 B( 16-S , 17-C ) :   1.1406 B( 16-S , 20-C ) :   1.1309
B( 17-C , 18-C ) :   1.5928 B( 17-C , 20-C ) :   0.1003 B( 17-C , 33-H ) :   0.9770
B( 18-C , 19-C ) :   1.2342 B( 18-C , 21-H ) :   0.9902 B( 19-C , 20-C ) :   1.5859
B( 19-C , 22-C ) :   1.0548 B( 22-C , 23-H ) :   0.9309 B( 22-C , 24-H ) :   0.9484
B( 22-C , 25-C ) :   1.0440 B( 25-C , 26-H ) :   0.9529 B( 25-C , 27-H ) :   0.9531
B( 25-C , 28-C ) :   1.0819 B( 28-C , 29-H ) :   0.9689 B( 28-C , 30-H ) :   0.9753
B( 28-C , 31-H ) :   0.9718

Dispersion correction           -0.013646070
FINAL SINGLE POINT ENERGY     -1339.852024801614

DIPOLE MOMENT
-------------
                                X             Y             Z
Electronic contribution:    -27.76379      -9.39668     -12.18645
Nuclear contribution   :     28.34331       9.72338      12.40790
                        -----------------------------------------
Total Dipole Moment    :      0.57953       0.32670       0.22145
                        -----------------------------------------
Magnitude (a.u.)       :      0.70116
Magnitude (Debye)      :      1.78220

Rotational constants in cm-1:     0.017148     0.008655     0.006238
Rotational constants in MHz :   514.094710   259.482383   186.997207

                             ****ORCA TERMINATED NORMALLY****
TOTAL RUN TIME: 0 days 0 hours 0 minutes 19 seconds 995 msec
