                         Program Version 4.2.1 -  RELEASE  -
|  1> ! wB97X-D3 SP def2-SVP
|  2> %pal
|  3> nprocs 24
|  4> end
|  5>
|  6> * xyz 0 1
|  7> S 	 -106.55 	 5.11062 	 -113.071
|  8> C 	 -107.375 	 4.98569 	 -114.625
|  9> C 	 -107.97 	 3.73546 	 -114.759
| 10> C 	 -107.614 	 2.87041 	 -113.695
| 11> C 	 -106.684 	 3.41957 	 -112.805
| 12> H 	 -107.872 	 1.81415 	 -113.563
| 13> C 	 -109.07 	 3.47382 	 -115.797
| 14> H 	 -109.508 	 4.44111 	 -116.126
| 15> H 	 -109.974 	 3.07288 	 -115.36
| 16> C 	 -108.666 	 2.5442 	 -116.948
| 17> H 	 -107.845 	 3.0322 	 -117.468
| 18> H 	 -108.158 	 1.62299 	 -116.525
| 19> C 	 -109.826 	 2.321 	 -117.904
| 20> H 	 -109.462 	 1.94136 	 -118.817
| 21> H 	 -110.382 	 1.50939 	 -117.5
| 22> H 	 -110.539 	 3.12429 	 -117.915
| 23> S 	 -106.049 	 3.58942 	 -110.127
| 24> C 	 -105.222 	 2.1954 	 -109.336
| 25> C 	 -105.009 	 1.18274 	 -110.26
| 26> C 	 -105.48 	 1.44652 	 -111.562
| 27> C 	 -106.083 	 2.73728 	 -111.663
| 28> H 	 -104.405 	 0.342757 	 -109.981
| 29> C 	 -105.177 	 0.51094 	 -112.685
| 30> H 	 -104.187 	 0.0345409 	 -112.516
| 31> H 	 -105.179 	 0.996281 	 -113.63
| 32> C 	 -106.15 	 -0.663415 	 -112.889
| 33> H 	 -105.784 	 -1.16194 	 -113.801
| 34> H 	 -107.152 	 -0.309886 	 -113.247
| 35> C 	 -106.15 	 -1.71147 	 -111.758
| 36> H 	 -106.447 	 -1.24464 	 -110.813
| 37> H 	 -105.269 	 -2.25456 	 -111.688
| 38> H 	 -106.877 	 -2.49149 	 -111.954
| 39> H 	 -107.501 	 5.74402 	 -115.352
| 40> H 	 -104.937 	 2.21633 	 -108.247
| 41> *
| 42>
| 43>                          ****END OF INPUT****

CARTESIAN COORDINATES (ANGSTROEM)
---------------------------------
  S    -106.550000    5.110620  -113.071000
  C    -107.375000    4.985690  -114.625000
  C    -107.970000    3.735460  -114.759000
  C    -107.614000    2.870410  -113.695000
  C    -106.684000    3.419570  -112.805000
  H    -107.872000    1.814150  -113.563000
  C    -109.070000    3.473820  -115.797000
  H    -109.508000    4.441110  -116.126000
  H    -109.974000    3.072880  -115.360000
  C    -108.666000    2.544200  -116.948000
  H    -107.845000    3.032200  -117.468000
  H    -108.158000    1.622990  -116.525000
  C    -109.826000    2.321000  -117.904000
  H    -109.462000    1.941360  -118.817000
  H    -110.382000    1.509390  -117.500000
  H    -110.539000    3.124290  -117.915000
  S    -106.049000    3.589420  -110.127000
  C    -105.222000    2.195400  -109.336000
  C    -105.009000    1.182740  -110.260000
  C    -105.480000    1.446520  -111.562000
  C    -106.083000    2.737280  -111.663000
  H    -104.405000    0.342757  -109.981000
  C    -105.177000    0.510940  -112.685000
  H    -104.187000    0.034541  -112.516000
  H    -105.179000    0.996281  -113.630000
  C    -106.150000   -0.663415  -112.889000
  H    -105.784000   -1.161940  -113.801000
  H    -107.152000   -0.309886  -113.247000
  C    -106.150000   -1.711470  -111.758000
  H    -106.447000   -1.244640  -110.813000
  H    -105.269000   -2.254560  -111.688000
  H    -106.877000   -2.491490  -111.954000
  H    -107.501000    5.744020  -115.352000
  H    -104.937000    2.216330  -108.247000

 Total Charge           Charge          ....    0
 Multiplicity           Mult            ....    1
 Number of Electrons    NEL             ....  134
 Basis Dimension        Dim             ....  322

ORBITAL ENERGIES
----------------

  NO   OCC          E(Eh)            E(eV)
   0   2.0000     -88.968377     -2420.9526
   1   2.0000     -88.967187     -2420.9202
   2   2.0000     -10.333071      -281.1772
   3   2.0000     -10.329233      -281.0727
   4   2.0000     -10.326569      -281.0002
   5   2.0000     -10.313501      -280.6446
   6   2.0000     -10.304687      -280.4048
   7   2.0000     -10.302853      -280.3549
   8   2.0000     -10.295273      -280.1486
   9   2.0000     -10.294684      -280.1326
  10   2.0000     -10.293883      -280.1108
  11   2.0000     -10.290990      -280.0321
  12   2.0000     -10.288854      -279.9740
  13   2.0000     -10.287688      -279.9422
  14   2.0000     -10.272959      -279.5414
  15   2.0000     -10.271513      -279.5021
  16   2.0000      -8.083347      -219.9590
  17   2.0000      -8.081054      -219.8967
  18   2.0000      -6.041817      -164.4062
  19   2.0000      -6.039623      -164.3465
  20   2.0000      -6.037930      -164.3004
  21   2.0000      -6.035664      -164.2388
  22   2.0000      -6.034016      -164.1939
  23   2.0000      -6.031832      -164.1345
  24   2.0000      -1.006138       -27.3784
  25   2.0000      -0.980610       -26.6838
  26   2.0000      -0.913260       -24.8511
  27   2.0000      -0.908651       -24.7256
  28   2.0000      -0.870708       -23.6932
  29   2.0000      -0.849289       -23.1103
  30   2.0000      -0.846052       -23.0223
  31   2.0000      -0.814405       -22.1611
  32   2.0000      -0.786903       -21.4127
  33   2.0000      -0.774445       -21.0737
  34   2.0000      -0.710245       -19.3268
  35   2.0000      -0.701231       -19.0815
  36   2.0000      -0.688418       -18.7328
  37   2.0000      -0.663074       -18.0432
  38   2.0000      -0.642679       -17.4882
  39   2.0000      -0.616724       -16.7819
  40   2.0000      -0.595192       -16.1960
  41   2.0000      -0.570770       -15.5314
  42   2.0000      -0.557871       -15.1804
  43   2.0000      -0.549891       -14.9633
  44   2.0000      -0.544892       -14.8273
  45   2.0000      -0.537365       -14.6225
  46   2.0000      -0.516224       -14.0472
  47   2.0000      -0.506778       -13.7901
  48   2.0000      -0.502833       -13.6828
  49   2.0000      -0.498015       -13.5517
  50   2.0000      -0.494253       -13.4493
  51   2.0000      -0.486740       -13.2449
  52   2.0000      -0.476119       -12.9559
  53   2.0000      -0.466556       -12.6956
  54   2.0000      -0.456205       -12.4140
  55   2.0000      -0.451996       -12.2994
  56   2.0000      -0.444028       -12.0826
  57   2.0000      -0.436764       -11.8850
  58   2.0000      -0.432300       -11.7635
  59   2.0000      -0.428081       -11.6487
  60   2.0000      -0.424544       -11.5524
  61   2.0000      -0.414095       -11.2681
  62   2.0000      -0.406320       -11.0565
  63   2.0000      -0.351222        -9.5572
  64   2.0000      -0.332625        -9.0512
  65   2.0000      -0.330232        -8.9861
  66   2.0000      -0.283331        -7.7098
  67   0.0000       0.020622         0.5612
  68   0.0000       0.069468         1.8903
  69   0.0000       0.099084         2.6962
  70   0.0000       0.119766         3.2590
  71   0.0000       0.129907         3.5349

MULLIKEN ATOMIC CHARGES
-----------------------
   0 S :    0.115389
   1 C :   -0.102310
   2 C :   -0.058112
   3 C :    0.026192
   4 C :   -0.149418
   5 H :    0.003328
   6 C :    0.030003
   7 H :    0.017536
   8 H :    0.020838
   9 C :   -0.098030
  10 H :    0.021103
  11 H :    0.035239
  12 C :    0.021046
  13 H :    0.027063
  14 H :    0.014607
  15 H :    0.029221
  16 S :    0.091521
  17 C :   -0.125651
  18 C :   -0.023879
  19 C :   -0.014824
  20 C :   -0.148189
  21 H :    0.019104
  22 C :    0.069186
  23 H :    0.027001
  24 H :    0.021487
  25 C :   -0.098960
  26 H :    0.022110
  27 H :    0.029651
  28 C :   -0.021646
  29 H :    0.043669
  30 H :    0.015557
  31 H :    0.024399
  32 H :    0.033179
  33 H :    0.082589
Sum of atomic charges:   -0.0000000

LOEWDIN ATOMIC CHARGES
----------------------
   0 S :    0.416647
   1 C :   -0.185913
   2 C :   -0.060312
   3 C :   -0.065847
   4 C :   -0.204512
   5 H :    0.030223
   6 C :   -0.035259
   7 H :    0.029980
   8 H :    0.028037
   9 C :   -0.044865
  10 H :    0.018663
  11 H :    0.029378
  12 C :   -0.058128
  13 H :    0.024084
  14 H :    0.025399
  15 H :    0.026343
  16 S :    0.381482
  17 C :   -0.179806
  18 C :   -0.068546
  19 C :   -0.059197
  20 C :   -0.189817
  21 H :    0.031460
  22 C :   -0.031234
  23 H :    0.035979
  24 H :    0.028679
  25 C :   -0.041180
  26 H :    0.024659
  27 H :    0.021066
  28 C :   -0.064389
  29 H :    0.028605
  30 H :    0.016268
  31 H :    0.028774
  32 H :    0.021369
  33 H :    0.041909

  Mayer bond orders larger than 0.100000
B(  0-S ,  1-C ) :   1.1397 B(  0-S ,  4-C ) :   1.1634 B(  1-C ,  2-C ) :   1.5933
B(  1-C ,  4-C ) :   0.1000 B(  1-C , 32-H ) :   0.9745 B(  2-C ,  3-C ) :   1.2571
B(  2-C ,  6-C ) :   1.0127 B(  3-C ,  4-C ) :   1.5317 B(  3-C ,  5-H ) :   0.9937
B(  4-C , 20-C ) :   1.0633 B(  6-C ,  7-H ) :   0.9448 B(  6-C ,  8-H ) :   0.9486
B(  6-C ,  9-C ) :   1.0473 B(  9-C , 10-H ) :   0.9588 B(  9-C , 11-H ) :   0.9593
B(  9-C , 12-C ) :   1.0711 B( 12-C , 13-H ) :   0.9719 B( 12-C , 14-H ) :   0.9693
B( 12-C , 15-H ) :   0.9726 B( 16-S , 17-C ) :   1.1411 B( 16-S , 20-C ) :   1.1493
B( 17-C , 18-C ) :   1.5916 B( 17-C , 20-C ) :   0.1087 B( 17-C , 33-H ) :   0.9624
B( 18-C , 19-C ) :   1.2581 B( 18-C , 21-H ) :   0.9882 B( 19-C , 20-C ) :   1.5529
B( 19-C , 22-C ) :   1.0545 B( 22-C , 23-H ) :   0.9371 B( 22-C , 24-H ) :   0.9255
B( 22-C , 25-C ) :   1.0804 B( 25-C , 26-H ) :   0.9511 B( 25-C , 27-H ) :   0.9514
B( 25-C , 28-C ) :   1.0770 B( 28-C , 29-H ) :   0.9740 B( 28-C , 30-H ) :   0.9731
B( 28-C , 31-H ) :   0.9697

Dispersion correction           -0.014165688
FINAL SINGLE POINT ENERGY     -1339.874993782620

DIPOLE MOMENT
-------------
                                X             Y             Z
Electronic contribution:      8.93020      22.33051      19.81433
Nuclear contribution   :     -9.05753     -22.92073     -20.18225
                        -----------------------------------------
Total Dipole Moment    :     -0.12733      -0.59023      -0.36792
                        -----------------------------------------
Magnitude (a.u.)       :      0.70707
Magnitude (Debye)      :      1.79722

Rotational constants in cm-1:     0.018510     0.008696     0.006216
Rotational constants in MHz :   554.902507   260.695712   186.354249

                             ****ORCA TERMINATED NORMALLY****
TOTAL RUN TIME: 0 days 0 hours 0 minutes 21 seconds 619 msec
