                         Program Version 4.2.1 -  RELEASE  -
|  1> ! wB97X-D3 SP def2-SVP
|  2> %pal
|  3> nprocs 24
|  4> end
|  5>
|  6> * xyz 0 1
|  7> S 	 20.7678 	 0.794662 	 -109.796
|  8> C 	 19.9734 	 -0.518816 	 -108.943
|  9> C 	 18.73 	 -0.712824 	 -109.498
| 10> C 	 18.4475 	 0.084671 	 -110.621
| 11> C 	 19.422 	 0.995904 	 -110.938
| 12> H 	 17.455 	 0.0962893 	 -111.039
| 13> C 	 17.724 	 -1.63024 	 -108.894
| 14> H 	 16.7009 	 -1.27037 	 -108.974
| 15> H 	 17.7767 	 -1.61156 	 -107.814
| 16> C 	 17.6846 	 -2.99466 	 -109.593
| 17> H 	 16.7338 	 -3.49559 	 -109.391
| 18> H 	 17.6584 	 -2.90686 	 -110.688
| 19> C 	 19.0259 	 -3.83381 	 -109.151
| 20> H 	 19.9751 	 -3.50343 	 -109.63
| 21> H 	 19.0778 	 -3.70398 	 -108.066
| 22> H 	 18.7685 	 -4.88916 	 -109.302
| 23> S 	 20.0836 	 3.60131 	 -111.419
| 24> C 	 19.5038 	 4.39145 	 -112.915
| 25> C 	 18.7934 	 3.49795 	 -113.675
| 26> C 	 18.5729 	 2.24068 	 -113.02
| 27> C 	 19.3001 	 2.11856 	 -111.855
| 28> H 	 18.4533 	 3.83404 	 -114.668
| 29> C 	 17.9115 	 1.1109 	 -113.868
| 30> H 	 17.4615 	 1.61856 	 -114.678
| 31> H 	 17.128 	 0.792386 	 -113.212
| 32> C 	 18.9012 	 0.123927 	 -114.553
| 33> H 	 19.4128 	 -0.3079 	 -113.692
| 34> H 	 19.5227 	 0.569047 	 -115.277
| 35> C 	 18.135 	 -0.984816 	 -115.238
| 36> H 	 18.787 	 -1.53438 	 -115.958
| 37> H 	 17.2172 	 -0.608871 	 -115.652
| 38> H 	 17.8695 	 -1.70264 	 -114.5
| 39> H 	 20.2102 	 -0.898111 	 -107.982
| 40> H 	 19.8331 	 5.3153 	 -113.254
| 41> *
| 42>
| 43>                          ****END OF INPUT****

CARTESIAN COORDINATES (ANGSTROEM)
---------------------------------
  S     20.767800    0.794662  -109.796000
  C     19.973400   -0.518816  -108.943000
  C     18.730000   -0.712824  -109.498000
  C     18.447500    0.084671  -110.621000
  C     19.422000    0.995904  -110.938000
  H     17.455000    0.096289  -111.039000
  C     17.724000   -1.630240  -108.894000
  H     16.700900   -1.270370  -108.974000
  H     17.776700   -1.611560  -107.814000
  C     17.684600   -2.994660  -109.593000
  H     16.733800   -3.495590  -109.391000
  H     17.658400   -2.906860  -110.688000
  C     19.025900   -3.833810  -109.151000
  H     19.975100   -3.503430  -109.630000
  H     19.077800   -3.703980  -108.066000
  H     18.768500   -4.889160  -109.302000
  S     20.083600    3.601310  -111.419000
  C     19.503800    4.391450  -112.915000
  C     18.793400    3.497950  -113.675000
  C     18.572900    2.240680  -113.020000
  C     19.300100    2.118560  -111.855000
  H     18.453300    3.834040  -114.668000
  C     17.911500    1.110900  -113.868000
  H     17.461500    1.618560  -114.678000
  H     17.128000    0.792386  -113.212000
  C     18.901200    0.123927  -114.553000
  H     19.412800   -0.307900  -113.692000
  H     19.522700    0.569047  -115.277000
  C     18.135000   -0.984816  -115.238000
  H     18.787000   -1.534380  -115.958000
  H     17.217200   -0.608871  -115.652000
  H     17.869500   -1.702640  -114.500000
  H     20.210200   -0.898111  -107.982000
  H     19.833100    5.315300  -113.254000

 Total Charge           Charge          ....    0
 Multiplicity           Mult            ....    1
 Number of Electrons    NEL             ....  134
 Basis Dimension        Dim             ....  322

ORBITAL ENERGIES
----------------

  NO   OCC          E(Eh)            E(eV)
   0   2.0000     -88.967374     -2420.9253
   1   2.0000     -88.965207     -2420.8664
   2   2.0000     -10.334224      -281.2085
   3   2.0000     -10.328508      -281.0530
   4   2.0000     -10.313794      -280.6526
   5   2.0000     -10.311314      -280.5851
   6   2.0000     -10.302230      -280.3379
   7   2.0000     -10.296532      -280.1829
   8   2.0000     -10.296096      -280.1710
   9   2.0000     -10.294902      -280.1385
  10   2.0000     -10.290873      -280.0289
  11   2.0000     -10.289303      -279.9862
  12   2.0000     -10.287998      -279.9506
  13   2.0000     -10.284797      -279.8636
  14   2.0000     -10.281027      -279.7610
  15   2.0000     -10.271864      -279.5116
  16   2.0000      -8.081418      -219.9066
  17   2.0000      -8.079822      -219.8631
  18   2.0000      -6.040093      -164.3593
  19   2.0000      -6.038468      -164.3151
  20   2.0000      -6.035951      -164.2466
  21   2.0000      -6.034327      -164.2024
  22   2.0000      -6.032101      -164.1418
  23   2.0000      -6.030463      -164.0973
  24   2.0000      -1.009034       -27.4572
  25   2.0000      -0.985692       -26.8220
  26   2.0000      -0.910772       -24.7834
  27   2.0000      -0.908764       -24.7287
  28   2.0000      -0.869926       -23.6719
  29   2.0000      -0.853165       -23.2158
  30   2.0000      -0.839455       -22.8427
  31   2.0000      -0.816334       -22.2136
  32   2.0000      -0.779216       -21.2036
  33   2.0000      -0.773247       -21.0411
  34   2.0000      -0.714086       -19.4313
  35   2.0000      -0.700823       -19.0704
  36   2.0000      -0.696036       -18.9401
  37   2.0000      -0.666412       -18.1340
  38   2.0000      -0.640915       -17.4402
  39   2.0000      -0.626683       -17.0529
  40   2.0000      -0.589715       -16.0470
  41   2.0000      -0.576226       -15.6799
  42   2.0000      -0.573038       -15.5932
  43   2.0000      -0.543400       -14.7867
  44   2.0000      -0.535236       -14.5645
  45   2.0000      -0.529401       -14.4057
  46   2.0000      -0.518806       -14.1174
  47   2.0000      -0.512242       -13.9388
  48   2.0000      -0.506358       -13.7787
  49   2.0000      -0.498706       -13.5705
  50   2.0000      -0.491325       -13.3696
  51   2.0000      -0.487586       -13.2679
  52   2.0000      -0.470376       -12.7996
  53   2.0000      -0.466716       -12.7000
  54   2.0000      -0.460465       -12.5299
  55   2.0000      -0.447408       -12.1746
  56   2.0000      -0.444043       -12.0830
  57   2.0000      -0.441888       -12.0244
  58   2.0000      -0.437522       -11.9056
  59   2.0000      -0.419741       -11.4217
  60   2.0000      -0.413427       -11.2499
  61   2.0000      -0.410206       -11.1623
  62   2.0000      -0.401882       -10.9358
  63   2.0000      -0.360384        -9.8066
  64   2.0000      -0.334987        -9.1155
  65   2.0000      -0.328754        -8.9459
  66   2.0000      -0.287058        -7.8113
  67   0.0000       0.018656         0.5077
  68   0.0000       0.077489         2.1086
  69   0.0000       0.107977         2.9382
  70   0.0000       0.123157         3.3513
  71   0.0000       0.129757         3.5309

MULLIKEN ATOMIC CHARGES
-----------------------
   0 S :    0.092721
   1 C :   -0.091946
   2 C :   -0.097318
   3 C :    0.015567
   4 C :   -0.096816
   5 H :    0.004862
   6 C :    0.040867
   7 H :    0.011892
   8 H :    0.024618
   9 C :   -0.076696
  10 H :    0.029174
  11 H :    0.032428
  12 C :   -0.076451
  13 H :    0.067727
  14 H :    0.024088
  15 H :    0.039694
  16 S :    0.093922
  17 C :   -0.064681
  18 C :   -0.043224
  19 C :   -0.072336
  20 C :   -0.130965
  21 H :    0.030732
  22 C :    0.064225
  23 H :   -0.001929
  24 H :    0.025673
  25 C :   -0.032377
  26 H :    0.038930
  27 H :    0.027616
  28 C :   -0.027744
  29 H :    0.039021
  30 H :    0.022604
  31 H :    0.017266
  32 H :    0.038115
  33 H :    0.030744
Sum of atomic charges:   -0.0000000

LOEWDIN ATOMIC CHARGES
----------------------
   0 S :    0.390142
   1 C :   -0.193515
   2 C :   -0.059966
   3 C :   -0.065459
   4 C :   -0.176495
   5 H :    0.029921
   6 C :   -0.040627
   7 H :    0.029243
   8 H :    0.028765
   9 C :   -0.034423
  10 H :    0.022246
  11 H :    0.024403
  12 C :   -0.071177
  13 H :    0.034219
  14 H :    0.020740
  15 H :    0.026298
  16 S :    0.394198
  17 C :   -0.164585
  18 C :   -0.066128
  19 C :   -0.062455
  20 C :   -0.196318
  21 H :    0.037174
  22 C :   -0.024436
  23 H :    0.020403
  24 H :    0.025959
  25 C :   -0.027728
  26 H :    0.028798
  27 H :    0.020873
  28 C :   -0.061901
  29 H :    0.031207
  30 H :    0.019412
  31 H :    0.021072
  32 H :    0.025225
  33 H :    0.014913

  Mayer bond orders larger than 0.100000
B(  0-S ,  1-C ) :   1.1233 B(  0-S ,  4-C ) :   1.1430 B(  1-C ,  2-C ) :   1.6094
B(  1-C , 32-H ) :   0.9689 B(  2-C ,  3-C ) :   1.2790 B(  2-C ,  6-C ) :   1.0312
B(  3-C ,  4-C ) :   1.5422 B(  3-C ,  5-H ) :   0.9916 B(  4-C , 20-C ) :   1.0746
B(  6-C ,  7-H ) :   0.9372 B(  6-C ,  8-H ) :   0.9470 B(  6-C ,  9-C ) :   1.0664
B(  9-C , 10-H ) :   0.9611 B(  9-C , 11-H ) :   0.9583 B(  9-C , 12-C ) :   1.0504
B( 12-C , 13-H ) :   0.9751 B( 12-C , 14-H ) :   0.9798 B( 12-C , 15-H ) :   0.9781
B( 16-S , 17-C ) :   1.1320 B( 16-S , 20-C ) :   1.1376 B( 17-C , 18-C ) :   1.6376
B( 17-C , 33-H ) :   0.9740 B( 18-C , 19-C ) :   1.2305 B( 18-C , 21-H ) :   0.9823
B( 19-C , 20-C ) :   1.5955 B( 19-C , 22-C ) :   1.0353 B( 22-C , 23-H ) :   0.9281
B( 22-C , 24-H ) :   0.9371 B( 22-C , 25-C ) :   1.0571 B( 25-C , 26-H ) :   0.9604
B( 25-C , 27-H ) :   0.9589 B( 25-C , 28-C ) :   1.0810 B( 28-C , 29-H ) :   0.9742
B( 28-C , 30-H ) :   0.9732 B( 28-C , 31-H ) :   0.9765

Dispersion correction           -0.014580178
FINAL SINGLE POINT ENERGY     -1339.861613170756

DIPOLE MOMENT
-------------
                                X             Y             Z
Electronic contribution:     12.93803      24.82528       8.14074
Nuclear contribution   :    -13.50757     -25.10429      -8.37426
                        -----------------------------------------
Total Dipole Moment    :     -0.56954      -0.27901      -0.23351
                        -----------------------------------------
Magnitude (a.u.)       :      0.67583
Magnitude (Debye)      :      1.71783

Rotational constants in cm-1:     0.018860     0.009292     0.006856
Rotational constants in MHz :   565.414742   278.574875   205.541670

                             ****ORCA TERMINATED NORMALLY****
TOTAL RUN TIME: 0 days 0 hours 0 minutes 22 seconds 58 msec
