                         Program Version 4.2.1 -  RELEASE  -
|  1> ! wB97X-D3 SP def2-SVP
|  2> %pal
|  3> nprocs 24
|  4> end
|  5>
|  6> * xyz 0 1
|  7> S 	 34.3252 	 -31.1307 	 -133.987
|  8> C 	 35.9845 	 -30.6816 	 -134.258
|  9> C 	 36.6918 	 -30.4633 	 -133.043
| 10> C 	 35.9208 	 -30.7156 	 -131.955
| 11> C 	 34.631 	 -31.1109 	 -132.213
| 12> H 	 36.3716 	 -30.644 	 -130.965
| 13> C 	 38.2412 	 -30.2705 	 -132.965
| 14> H 	 38.493 	 -29.4975 	 -132.211
| 15> H 	 38.6074 	 -29.8429 	 -133.887
| 16> C 	 39.0157 	 -31.4369 	 -132.369
| 17> H 	 39.9091 	 -31.0317 	 -131.888
| 18> H 	 38.4023 	 -31.851 	 -131.539
| 19> C 	 39.6082 	 -32.4581 	 -133.296
| 20> H 	 40.2591 	 -33.0478 	 -132.647
| 21> H 	 38.8708 	 -33.118 	 -133.758
| 22> H 	 40.2335 	 -32.0574 	 -134.11
| 23> S 	 33.3691 	 -33.3487 	 -131.156
| 24> C 	 32.3065 	 -33.1547 	 -129.812
| 25> C 	 32.1207 	 -31.8163 	 -129.537
| 26> C 	 32.8698 	 -30.9675 	 -130.38
| 27> C 	 33.6803 	 -31.6039 	 -131.263
| 28> H 	 31.4917 	 -31.4576 	 -128.728
| 29> C 	 33.0074 	 -29.4762 	 -130.148
| 30> H 	 34.0663 	 -29.2299 	 -130.144
| 31> H 	 32.6892 	 -29.1934 	 -129.115
| 32> C 	 32.2727 	 -28.523 	 -131.031
| 33> H 	 31.2619 	 -28.6902 	 -130.97
| 34> H 	 32.5627 	 -28.595 	 -132.111
| 35> C 	 32.5415 	 -27.0707 	 -130.631
| 36> H 	 32.0449 	 -26.3277 	 -131.279
| 37> H 	 33.6173 	 -26.7514 	 -130.636
| 38> H 	 32.1259 	 -26.9151 	 -129.621
| 39> H 	 36.4223 	 -30.5934 	 -135.211
| 40> H 	 31.8138 	 -34.0526 	 -129.446
| 41> *
| 42>
| 43>                          ****END OF INPUT****

CARTESIAN COORDINATES (ANGSTROEM)
---------------------------------
  S     34.325200  -31.130700  -133.987000
  C     35.984500  -30.681600  -134.258000
  C     36.691800  -30.463300  -133.043000
  C     35.920800  -30.715600  -131.955000
  C     34.631000  -31.110900  -132.213000
  H     36.371600  -30.644000  -130.965000
  C     38.241200  -30.270500  -132.965000
  H     38.493000  -29.497500  -132.211000
  H     38.607400  -29.842900  -133.887000
  C     39.015700  -31.436900  -132.369000
  H     39.909100  -31.031700  -131.888000
  H     38.402300  -31.851000  -131.539000
  C     39.608200  -32.458100  -133.296000
  H     40.259100  -33.047800  -132.647000
  H     38.870800  -33.118000  -133.758000
  H     40.233500  -32.057400  -134.110000
  S     33.369100  -33.348700  -131.156000
  C     32.306500  -33.154700  -129.812000
  C     32.120700  -31.816300  -129.537000
  C     32.869800  -30.967500  -130.380000
  C     33.680300  -31.603900  -131.263000
  H     31.491700  -31.457600  -128.728000
  C     33.007400  -29.476200  -130.148000
  H     34.066300  -29.229900  -130.144000
  H     32.689200  -29.193400  -129.115000
  C     32.272700  -28.523000  -131.031000
  H     31.261900  -28.690200  -130.970000
  H     32.562700  -28.595000  -132.111000
  C     32.541500  -27.070700  -130.631000
  H     32.044900  -26.327700  -131.279000
  H     33.617300  -26.751400  -130.636000
  H     32.125900  -26.915100  -129.621000
  H     36.422300  -30.593400  -135.211000
  H     31.813800  -34.052600  -129.446000

 Total Charge           Charge          ....    0
 Multiplicity           Mult            ....    1
 Number of Electrons    NEL             ....  134
 Basis Dimension        Dim             ....  322

ORBITAL ENERGIES
----------------

  NO   OCC          E(Eh)            E(eV)
   0   2.0000     -88.971474     -2421.0369
   1   2.0000     -88.959466     -2420.7101
   2   2.0000     -10.328394      -281.0499
   3   2.0000     -10.318770      -280.7880
   4   2.0000     -10.318236      -280.7735
   5   2.0000     -10.315304      -280.6937
   6   2.0000     -10.298560      -280.2381
   7   2.0000     -10.296553      -280.1834
   8   2.0000     -10.294251      -280.1208
   9   2.0000     -10.293118      -280.0900
  10   2.0000     -10.290426      -280.0167
  11   2.0000     -10.287069      -279.9254
  12   2.0000     -10.285975      -279.8956
  13   2.0000     -10.278539      -279.6933
  14   2.0000     -10.275251      -279.6038
  15   2.0000     -10.274754      -279.5903
  16   2.0000      -8.085209      -220.0097
  17   2.0000      -8.074884      -219.7288
  18   2.0000      -6.043496      -164.4519
  19   2.0000      -6.039871      -164.3532
  20   2.0000      -6.036244      -164.2546
  21   2.0000      -6.033195      -164.1716
  22   2.0000      -6.029231      -164.0637
  23   2.0000      -6.025864      -163.9721
  24   2.0000      -1.008501       -27.4427
  25   2.0000      -0.986469       -26.8432
  26   2.0000      -0.912343       -24.8261
  27   2.0000      -0.910939       -24.7879
  28   2.0000      -0.870637       -23.6912
  29   2.0000      -0.855996       -23.2928
  30   2.0000      -0.849765       -23.1233
  31   2.0000      -0.811946       -22.0942
  32   2.0000      -0.782818       -21.3016
  33   2.0000      -0.769794       -20.9472
  34   2.0000      -0.708123       -19.2690
  35   2.0000      -0.694161       -18.8891
  36   2.0000      -0.689493       -18.7621
  37   2.0000      -0.665322       -18.1043
  38   2.0000      -0.640533       -17.4298
  39   2.0000      -0.628821       -17.1111
  40   2.0000      -0.603180       -16.4134
  41   2.0000      -0.569415       -15.4946
  42   2.0000      -0.564188       -15.3523
  43   2.0000      -0.549009       -14.9393
  44   2.0000      -0.532872       -14.5002
  45   2.0000      -0.525337       -14.2951
  46   2.0000      -0.520114       -14.1530
  47   2.0000      -0.514649       -14.0043
  48   2.0000      -0.505106       -13.7446
  49   2.0000      -0.497894       -13.5484
  50   2.0000      -0.487631       -13.2691
  51   2.0000      -0.481028       -13.0894
  52   2.0000      -0.470622       -12.8063
  53   2.0000      -0.466076       -12.6826
  54   2.0000      -0.457149       -12.4397
  55   2.0000      -0.445738       -12.1292
  56   2.0000      -0.441431       -12.0120
  57   2.0000      -0.438150       -11.9227
  58   2.0000      -0.433308       -11.7909
  59   2.0000      -0.427283       -11.6270
  60   2.0000      -0.420994       -11.4558
  61   2.0000      -0.408647       -11.1199
  62   2.0000      -0.404701       -11.0125
  63   2.0000      -0.345099        -9.3906
  64   2.0000      -0.331150        -9.0111
  65   2.0000      -0.323592        -8.8054
  66   2.0000      -0.300767        -8.1843
  67   0.0000       0.034982         0.9519
  68   0.0000       0.053385         1.4527
  69   0.0000       0.114549         3.1170
  70   0.0000       0.126620         3.4455
  71   0.0000       0.127984         3.4826

MULLIKEN ATOMIC CHARGES
-----------------------
   0 S :    0.130240
   1 C :   -0.113506
   2 C :   -0.065617
   3 C :    0.039002
   4 C :   -0.171199
   5 H :    0.018587
   6 C :    0.071885
   7 H :    0.023690
   8 H :    0.013248
   9 C :   -0.088199
  10 H :    0.021800
  11 H :    0.034819
  12 C :   -0.037972
  13 H :    0.029210
  14 H :    0.036184
  15 H :    0.031162
  16 S :    0.098477
  17 C :   -0.100564
  18 C :   -0.024105
  19 C :    0.018754
  20 C :   -0.186687
  21 H :    0.018548
  22 C :    0.044895
  23 H :    0.017586
  24 H :    0.006805
  25 C :   -0.023875
  26 H :    0.007100
  27 H :    0.034120
  28 C :   -0.080192
  29 H :    0.034748
  30 H :    0.038009
  31 H :    0.023667
  32 H :    0.031459
  33 H :    0.067920
Sum of atomic charges:   -0.0000000

LOEWDIN ATOMIC CHARGES
----------------------
   0 S :    0.404876
   1 C :   -0.189236
   2 C :   -0.067545
   3 C :   -0.055437
   4 C :   -0.186306
   5 H :    0.036277
   6 C :   -0.032171
   7 H :    0.036420
   8 H :    0.024704
   9 C :   -0.047426
  10 H :    0.025506
  11 H :    0.031051
  12 C :   -0.066759
  13 H :    0.028310
  14 H :    0.023853
  15 H :    0.026552
  16 S :    0.403658
  17 C :   -0.183749
  18 C :   -0.075931
  19 C :   -0.055125
  20 C :   -0.198759
  21 H :    0.032707
  22 C :   -0.032225
  23 H :    0.029886
  24 H :    0.029377
  25 C :   -0.037765
  26 H :    0.012828
  27 H :    0.028115
  28 C :   -0.069803
  29 H :    0.026948
  30 H :    0.028480
  31 H :    0.021716
  32 H :    0.016424
  33 H :    0.030547

  Mayer bond orders larger than 0.100000
B(  0-S ,  1-C ) :   1.1686 B(  0-S ,  4-C ) :   1.1410 B(  1-C ,  2-C ) :   1.5518
B(  1-C ,  4-C ) :   0.1187 B(  1-C , 32-H ) :   0.9733 B(  2-C ,  3-C ) :   1.3097
B(  2-C ,  6-C ) :   1.0325 B(  3-C ,  4-C ) :   1.5501 B(  3-C ,  5-H ) :   0.9834
B(  4-C , 20-C ) :   1.0484 B(  6-C ,  7-H ) :   0.9385 B(  6-C ,  8-H ) :   0.9458
B(  6-C ,  9-C ) :   1.0594 B(  9-C , 10-H ) :   0.9584 B(  9-C , 11-H ) :   0.9483
B(  9-C , 12-C ) :   1.0874 B( 12-C , 13-H ) :   0.9731 B( 12-C , 14-H ) :   0.9753
B( 12-C , 15-H ) :   0.9736 B( 16-S , 17-C ) :   1.1832 B( 16-S , 20-C ) :   1.1311
B( 17-C , 18-C ) :   1.5581 B( 17-C , 20-C ) :   0.1015 B( 17-C , 33-H ) :   0.9701
B( 18-C , 19-C ) :   1.2647 B( 18-C , 21-H ) :   0.9953 B( 19-C , 20-C ) :   1.6066
B( 19-C , 22-C ) :   1.0281 B( 22-C , 23-H ) :   0.9364 B( 22-C , 24-H ) :   0.9359
B( 22-C , 25-C ) :   1.0746 B( 25-C , 26-H ) :   0.9479 B( 25-C , 27-H ) :   0.9506
B( 25-C , 28-C ) :   1.0868 B( 28-C , 29-H ) :   0.9740 B( 28-C , 30-H ) :   0.9755
B( 28-C , 31-H ) :   0.9723

Dispersion correction           -0.014220103
FINAL SINGLE POINT ENERGY     -1339.880645974023

DIPOLE MOMENT
-------------
                                X             Y             Z
Electronic contribution:    -13.62638     -14.88284      -4.83684
Nuclear contribution   :     13.97411      15.12914       5.11182
                        -----------------------------------------
Total Dipole Moment    :      0.34773       0.24630       0.27498
                        -----------------------------------------
Magnitude (a.u.)       :      0.50714
Magnitude (Debye)      :      1.28906

Rotational constants in cm-1:     0.018101     0.008644     0.007190
Rotational constants in MHz :   542.658782   259.126219   215.557709

                             ****ORCA TERMINATED NORMALLY****
TOTAL RUN TIME: 0 days 0 hours 0 minutes 21 seconds 522 msec
