                         Program Version 4.2.1 -  RELEASE  -
|  1> ! wB97X-D3 SP def2-SVP
|  2> %pal
|  3> nprocs 24
|  4> end
|  5>
|  6> * xyz 0 1
|  7> S 	 -106.426 	 38.1582 	 -14.3536
|  8> C 	 -106.536 	 38.7618 	 -16.0056
|  9> C 	 -105.532 	 38.1341 	 -16.8117
| 10> C 	 -104.616 	 37.3373 	 -16.016
| 11> C 	 -105.035 	 37.1195 	 -14.7057
| 12> H 	 -103.688 	 36.8939 	 -16.3312
| 13> C 	 -105.317 	 38.3163 	 -18.2674
| 14> H 	 -106.29 	 38.2003 	 -18.7318
| 15> H 	 -104.783 	 37.4106 	 -18.5212
| 16> C 	 -104.475 	 39.5811 	 -18.7547
| 17> H 	 -105.024 	 40.4459 	 -18.5899
| 18> H 	 -103.529 	 39.6839 	 -18.1584
| 19> C 	 -104.358 	 39.6825 	 -20.2294
| 20> H 	 -103.92 	 40.6541 	 -20.4599
| 21> H 	 -103.842 	 38.8737 	 -20.672
| 22> H 	 -105.338 	 39.7337 	 -20.7371
| 23> S 	 -104.4 	 37.2322 	 -11.9877
| 24> C 	 -103.377 	 36.0174 	 -11.3056
| 25> C 	 -102.955 	 35.1243 	 -12.2005
| 26> C 	 -103.497 	 35.4044 	 -13.4975
| 27> C 	 -104.271 	 36.5447 	 -13.5761
| 28> H 	 -102.337 	 34.29 	 -11.8386
| 29> C 	 -103.292 	 34.3468 	 -14.5121
| 30> H 	 -103.815 	 34.6217 	 -15.4461
| 31> H 	 -103.66 	 33.3963 	 -14.1689
| 32> C 	 -101.815 	 34.1608 	 -14.8659
| 33> H 	 -101.283 	 33.7668 	 -14.0966
| 34> H 	 -101.431 	 35.19 	 -15.095
| 35> C 	 -101.824 	 33.2045 	 -16.1412
| 36> H 	 -102.242 	 33.7593 	 -16.9307
| 37> H 	 -102.236 	 32.2401 	 -15.8193
| 38> H 	 -100.813 	 32.9326 	 -16.4768
| 39> H 	 -107.447 	 39.2915 	 -16.4016
| 40> H 	 -103.211 	 35.9415 	 -10.2802
| 41> *
| 42>
| 43>                          ****END OF INPUT****

CARTESIAN COORDINATES (ANGSTROEM)
---------------------------------
  S    -106.426000   38.158200  -14.353600
  C    -106.536000   38.761800  -16.005600
  C    -105.532000   38.134100  -16.811700
  C    -104.616000   37.337300  -16.016000
  C    -105.035000   37.119500  -14.705700
  H    -103.688000   36.893900  -16.331200
  C    -105.317000   38.316300  -18.267400
  H    -106.290000   38.200300  -18.731800
  H    -104.783000   37.410600  -18.521200
  C    -104.475000   39.581100  -18.754700
  H    -105.024000   40.445900  -18.589900
  H    -103.529000   39.683900  -18.158400
  C    -104.358000   39.682500  -20.229400
  H    -103.920000   40.654100  -20.459900
  H    -103.842000   38.873700  -20.672000
  H    -105.338000   39.733700  -20.737100
  S    -104.400000   37.232200  -11.987700
  C    -103.377000   36.017400  -11.305600
  C    -102.955000   35.124300  -12.200500
  C    -103.497000   35.404400  -13.497500
  C    -104.271000   36.544700  -13.576100
  H    -102.337000   34.290000  -11.838600
  C    -103.292000   34.346800  -14.512100
  H    -103.815000   34.621700  -15.446100
  H    -103.660000   33.396300  -14.168900
  C    -101.815000   34.160800  -14.865900
  H    -101.283000   33.766800  -14.096600
  H    -101.431000   35.190000  -15.095000
  C    -101.824000   33.204500  -16.141200
  H    -102.242000   33.759300  -16.930700
  H    -102.236000   32.240100  -15.819300
  H    -100.813000   32.932600  -16.476800
  H    -107.447000   39.291500  -16.401600
  H    -103.211000   35.941500  -10.280200

 Total Charge           Charge          ....    0
 Multiplicity           Mult            ....    1
 Number of Electrons    NEL             ....  134
 Basis Dimension        Dim             ....  322

ORBITAL ENERGIES
----------------

  NO   OCC          E(Eh)            E(eV)
   0   2.0000     -88.966370     -2420.8980
   1   2.0000     -88.961455     -2420.7643
   2   2.0000     -10.335589      -281.2457
   3   2.0000     -10.327102      -281.0147
   4   2.0000     -10.324142      -280.9342
   5   2.0000     -10.308563      -280.5103
   6   2.0000     -10.306555      -280.4556
   7   2.0000     -10.298296      -280.2309
   8   2.0000     -10.297425      -280.2072
   9   2.0000     -10.291074      -280.0344
  10   2.0000     -10.288976      -279.9773
  11   2.0000     -10.286512      -279.9102
  12   2.0000     -10.283289      -279.8225
  13   2.0000     -10.283219      -279.8206
  14   2.0000     -10.280286      -279.7408
  15   2.0000     -10.274481      -279.5829
  16   2.0000      -8.080384      -219.8784
  17   2.0000      -8.077211      -219.7921
  18   2.0000      -6.038967      -164.3286
  19   2.0000      -6.035793      -164.2423
  20   2.0000      -6.034893      -164.2178
  21   2.0000      -6.031605      -164.1283
  22   2.0000      -6.031204      -164.1174
  23   2.0000      -6.027793      -164.0246
  24   2.0000      -1.009498       -27.4698
  25   2.0000      -0.981624       -26.7113
  26   2.0000      -0.914607       -24.8877
  27   2.0000      -0.911864       -24.8131
  28   2.0000      -0.873092       -23.7580
  29   2.0000      -0.854223       -23.2446
  30   2.0000      -0.846334       -23.0299
  31   2.0000      -0.819358       -22.2959
  32   2.0000      -0.777768       -21.1642
  33   2.0000      -0.767457       -20.8836
  34   2.0000      -0.707201       -19.2439
  35   2.0000      -0.704195       -19.1621
  36   2.0000      -0.697523       -18.9806
  37   2.0000      -0.661354       -17.9963
  38   2.0000      -0.638012       -17.3612
  39   2.0000      -0.620236       -16.8775
  40   2.0000      -0.601407       -16.3651
  41   2.0000      -0.579910       -15.7802
  42   2.0000      -0.571059       -15.5393
  43   2.0000      -0.561725       -15.2853
  44   2.0000      -0.530691       -14.4408
  45   2.0000      -0.522284       -14.2121
  46   2.0000      -0.517126       -14.0717
  47   2.0000      -0.511246       -13.9117
  48   2.0000      -0.505250       -13.7486
  49   2.0000      -0.502976       -13.6867
  50   2.0000      -0.498367       -13.5612
  51   2.0000      -0.479307       -13.0426
  52   2.0000      -0.468763       -12.7557
  53   2.0000      -0.462325       -12.5805
  54   2.0000      -0.458492       -12.4762
  55   2.0000      -0.448596       -12.2069
  56   2.0000      -0.446977       -12.1629
  57   2.0000      -0.435383       -11.8474
  58   2.0000      -0.431356       -11.7378
  59   2.0000      -0.428287       -11.6543
  60   2.0000      -0.426023       -11.5927
  61   2.0000      -0.417356       -11.3568
  62   2.0000      -0.408834       -11.1249
  63   2.0000      -0.359492        -9.7823
  64   2.0000      -0.330633        -8.9970
  65   2.0000      -0.323748        -8.8096
  66   2.0000      -0.286861        -7.8059
  67   0.0000       0.024419         0.6645
  68   0.0000       0.079710         2.1690
  69   0.0000       0.103508         2.8166
  70   0.0000       0.116965         3.1828
  71   0.0000       0.126205         3.4342

MULLIKEN ATOMIC CHARGES
-----------------------
   0 S :    0.085751
   1 C :   -0.131508
   2 C :   -0.115225
   3 C :    0.013518
   4 C :   -0.121631
   5 H :    0.012047
   6 C :    0.062986
   7 H :    0.023692
   8 H :    0.013135
   9 C :   -0.038459
  10 H :    0.009560
  11 H :    0.042428
  12 C :   -0.029862
  13 H :    0.032793
  14 H :    0.022278
  15 H :    0.024453
  16 S :    0.092603
  17 C :   -0.063137
  18 C :   -0.031752
  19 C :   -0.053229
  20 C :   -0.109609
  21 H :    0.030360
  22 C :    0.055904
  23 H :    0.014069
  24 H :    0.025912
  25 C :   -0.091654
  26 H :    0.011733
  27 H :    0.035445
  28 C :   -0.023885
  29 H :    0.031605
  30 H :    0.035348
  31 H :    0.023915
  32 H :    0.078953
  33 H :    0.031459
Sum of atomic charges:    0.0000000

LOEWDIN ATOMIC CHARGES
----------------------
   0 S :    0.392217
   1 C :   -0.209503
   2 C :   -0.059607
   3 C :   -0.064004
   4 C :   -0.178090
   5 H :    0.027812
   6 C :   -0.037844
   7 H :    0.032470
   8 H :    0.028711
   9 C :   -0.034716
  10 H :    0.018156
  11 H :    0.033369
  12 C :   -0.061384
  13 H :    0.030471
  14 H :    0.014478
  15 H :    0.029259
  16 S :    0.408090
  17 C :   -0.171114
  18 C :   -0.073602
  19 C :   -0.060544
  20 C :   -0.205080
  21 H :    0.040024
  22 C :   -0.031995
  23 H :    0.026627
  24 H :    0.027797
  25 C :   -0.025641
  26 H :    0.003277
  27 H :    0.027064
  28 C :   -0.057592
  29 H :    0.019599
  30 H :    0.029093
  31 H :    0.023024
  32 H :    0.041765
  33 H :    0.017410

  Mayer bond orders larger than 0.100000
B(  0-S ,  1-C ) :   1.1418 B(  0-S ,  4-C ) :   1.1487 B(  1-C ,  2-C ) :   1.5730
B(  1-C ,  4-C ) :   0.1002 B(  1-C , 32-H ) :   0.9618 B(  2-C ,  3-C ) :   1.2518
B(  2-C ,  6-C ) :   1.0381 B(  3-C ,  4-C ) :   1.5673 B(  3-C ,  5-H ) :   0.9839
B(  4-C , 20-C ) :   1.0414 B(  6-C ,  7-H ) :   0.9347 B(  6-C ,  8-H ) :   0.9386
B(  6-C ,  9-C ) :   1.0525 B(  9-C , 10-H ) :   0.9535 B(  9-C , 11-H ) :   0.9560
B(  9-C , 12-C ) :   1.0855 B( 12-C , 13-H ) :   0.9715 B( 12-C , 14-H ) :   0.9766
B( 12-C , 15-H ) :   0.9699 B( 16-S , 17-C ) :   1.1537 B( 16-S , 20-C ) :   1.1181
B( 17-C , 18-C ) :   1.6407 B( 17-C , 33-H ) :   0.9706 B( 18-C , 19-C ) :   1.2048
B( 18-C , 21-H ) :   0.9923 B( 19-C , 20-C ) :   1.6145 B( 19-C , 22-C ) :   1.0590
B( 22-C , 23-H ) :   0.9383 B( 22-C , 24-H ) :   0.9335 B( 22-C , 25-C ) :   1.0463
B( 25-C , 26-H ) :   0.9588 B( 25-C , 27-H ) :   0.9598 B( 25-C , 28-C ) :   1.0796
B( 28-C , 29-H ) :   0.9781 B( 28-C , 30-H ) :   0.9721 B( 28-C , 31-H ) :   0.9757

Dispersion correction           -0.013409143
FINAL SINGLE POINT ENERGY     -1339.861338759880

DIPOLE MOMENT
-------------
                                X             Y             Z
Electronic contribution:    -12.77831       6.83153      26.99707
Nuclear contribution   :     13.08680      -7.14393     -27.45739
                        -----------------------------------------
Total Dipole Moment    :      0.30848      -0.31240      -0.46032
                        -----------------------------------------
Magnitude (a.u.)       :      0.63612
Magnitude (Debye)      :      1.61689

Rotational constants in cm-1:     0.017542     0.008321     0.006056
Rotational constants in MHz :   525.893594   249.445651   181.541090

                             ****ORCA TERMINATED NORMALLY****
TOTAL RUN TIME: 0 days 0 hours 0 minutes 21 seconds 198 msec
