                         Program Version 4.2.1 -  RELEASE  -
|  1> ! wB97X-D3 SP def2-SVP
|  2> %pal
|  3> nprocs 24
|  4> end
|  5>
|  6> * xyz 0 1
|  7> S 	 -102.943 	 14.9762 	 -124.479
|  8> C 	 -102.182 	 16.4515 	 -124.961
|  9> C 	 -100.883 	 16.2238 	 -125.363
| 10> C 	 -100.368 	 14.8722 	 -125.085
| 11> C 	 -101.371 	 14.0605 	 -124.542
| 12> H 	 -99.3403 	 14.5198 	 -125.188
| 13> C 	 -99.8255 	 17.2996 	 -125.827
| 14> H 	 -98.8601 	 16.8592 	 -125.58
| 15> H 	 -100.033 	 18.2188 	 -125.271
| 16> C 	 -99.8854 	 17.8088 	 -127.268
| 17> H 	 -99.7078 	 16.8279 	 -127.75
| 18> H 	 -100.879 	 18.1122 	 -127.557
| 19> C 	 -98.9652 	 18.9766 	 -127.713
| 20> H 	 -97.9604 	 18.6697 	 -127.779
| 21> H 	 -99.2814 	 19.4618 	 -128.657
| 22> H 	 -99.0117 	 19.7726 	 -126.978
| 23> S 	 -102.311 	 11.4862 	 -124.868
| 24> C 	 -101.801 	 10.2076 	 -123.79
| 25> C 	 -100.718 	 10.7215 	 -123.012
| 26> C 	 -100.322 	 12.0437 	 -123.393
| 27> C 	 -101.277 	 12.7186 	 -124.178
| 28> H 	 -100.129 	 10.1122 	 -122.341
| 29> C 	 -99.0336 	 12.6501 	 -122.814
| 30> H 	 -98.9099 	 13.5684 	 -123.241
| 31> H 	 -98.2102 	 12.0978 	 -123.262
| 32> C 	 -98.9376 	 12.6983 	 -121.269
| 33> H 	 -97.9726 	 13.1 	 -121.052
| 34> H 	 -98.9157 	 11.6719 	 -120.914
| 35> C 	 -100.119 	 13.5893 	 -120.602
| 36> H 	 -100.238 	 14.5837 	 -121.02
| 37> H 	 -99.9438 	 13.6022 	 -119.524
| 38> H 	 -101.128 	 13.092 	 -120.678
| 39> H 	 -102.651 	 17.4643 	 -124.998
| 40> H 	 -102.061 	 9.197 	 -123.715
| 41> *
| 42>
| 43>                          ****END OF INPUT****

CARTESIAN COORDINATES (ANGSTROEM)
---------------------------------
  S    -102.943000   14.976200  -124.479000
  C    -102.182000   16.451500  -124.961000
  C    -100.883000   16.223800  -125.363000
  C    -100.368000   14.872200  -125.085000
  C    -101.371000   14.060500  -124.542000
  H    -99.340300   14.519800  -125.188000
  C    -99.825500   17.299600  -125.827000
  H    -98.860100   16.859200  -125.580000
  H    -100.033000   18.218800  -125.271000
  C    -99.885400   17.808800  -127.268000
  H    -99.707800   16.827900  -127.750000
  H    -100.879000   18.112200  -127.557000
  C    -98.965200   18.976600  -127.713000
  H    -97.960400   18.669700  -127.779000
  H    -99.281400   19.461800  -128.657000
  H    -99.011700   19.772600  -126.978000
  S    -102.311000   11.486200  -124.868000
  C    -101.801000   10.207600  -123.790000
  C    -100.718000   10.721500  -123.012000
  C    -100.322000   12.043700  -123.393000
  C    -101.277000   12.718600  -124.178000
  H    -100.129000   10.112200  -122.341000
  C    -99.033600   12.650100  -122.814000
  H    -98.909900   13.568400  -123.241000
  H    -98.210200   12.097800  -123.262000
  C    -98.937600   12.698300  -121.269000
  H    -97.972600   13.100000  -121.052000
  H    -98.915700   11.671900  -120.914000
  C    -100.119000   13.589300  -120.602000
  H    -100.238000   14.583700  -121.020000
  H    -99.943800   13.602200  -119.524000
  H    -101.128000   13.092000  -120.678000
  H    -102.651000   17.464300  -124.998000
  H    -102.061000    9.197000  -123.715000

 Total Charge           Charge          ....    0
 Multiplicity           Mult            ....    1
 Number of Electrons    NEL             ....  134
 Basis Dimension        Dim             ....  322

ORBITAL ENERGIES
----------------

  NO   OCC          E(Eh)            E(eV)
   0   2.0000     -88.969081     -2420.9718
   1   2.0000     -88.966799     -2420.9097
   2   2.0000     -10.335433      -281.2414
   3   2.0000     -10.324527      -280.9447
   4   2.0000     -10.321322      -280.8574
   5   2.0000     -10.319849      -280.8174
   6   2.0000     -10.309878      -280.5460
   7   2.0000     -10.305719      -280.4329
   8   2.0000     -10.304395      -280.3968
   9   2.0000     -10.296306      -280.1767
  10   2.0000     -10.295491      -280.1545
  11   2.0000     -10.292005      -280.0597
  12   2.0000     -10.285451      -279.8813
  13   2.0000     -10.284058      -279.8435
  14   2.0000     -10.282480      -279.8005
  15   2.0000     -10.280260      -279.7401
  16   2.0000      -8.083069      -219.9515
  17   2.0000      -8.081072      -219.8972
  18   2.0000      -6.041765      -164.4048
  19   2.0000      -6.039749      -164.3499
  20   2.0000      -6.037717      -164.2946
  21   2.0000      -6.035486      -164.2339
  22   2.0000      -6.033601      -164.1826
  23   2.0000      -6.031813      -164.1340
  24   2.0000      -1.004000       -27.3202
  25   2.0000      -0.978401       -26.6236
  26   2.0000      -0.905376       -24.6365
  27   2.0000      -0.901254       -24.5244
  28   2.0000      -0.876083       -23.8394
  29   2.0000      -0.846595       -23.0370
  30   2.0000      -0.834606       -22.7108
  31   2.0000      -0.810585       -22.0571
  32   2.0000      -0.783157       -21.3108
  33   2.0000      -0.773488       -21.0477
  34   2.0000      -0.713834       -19.4244
  35   2.0000      -0.704645       -19.1744
  36   2.0000      -0.696277       -18.9467
  37   2.0000      -0.659420       -17.9437
  38   2.0000      -0.640067       -17.4171
  39   2.0000      -0.615620       -16.7519
  40   2.0000      -0.593640       -16.1538
  41   2.0000      -0.570928       -15.5357
  42   2.0000      -0.562548       -15.3077
  43   2.0000      -0.545701       -14.8493
  44   2.0000      -0.529807       -14.4168
  45   2.0000      -0.521510       -14.1910
  46   2.0000      -0.520465       -14.1626
  47   2.0000      -0.513676       -13.9778
  48   2.0000      -0.508412       -13.8346
  49   2.0000      -0.499853       -13.6017
  50   2.0000      -0.494124       -13.4458
  51   2.0000      -0.483455       -13.1555
  52   2.0000      -0.475420       -12.9368
  53   2.0000      -0.463023       -12.5995
  54   2.0000      -0.459380       -12.5004
  55   2.0000      -0.446068       -12.1381
  56   2.0000      -0.440339       -11.9822
  57   2.0000      -0.437847       -11.9144
  58   2.0000      -0.432101       -11.7581
  59   2.0000      -0.425217       -11.5707
  60   2.0000      -0.414577       -11.2812
  61   2.0000      -0.413612       -11.2550
  62   2.0000      -0.404772       -11.0144
  63   2.0000      -0.352947        -9.6042
  64   2.0000      -0.328650        -8.9430
  65   2.0000      -0.325251        -8.8505
  66   2.0000      -0.285737        -7.7753
  67   0.0000       0.021095         0.5740
  68   0.0000       0.060856         1.6560
  69   0.0000       0.107134         2.9153
  70   0.0000       0.114836         3.1249
  71   0.0000       0.127084         3.4581

MULLIKEN ATOMIC CHARGES
-----------------------
   0 S :    0.115498
   1 C :   -0.124233
   2 C :   -0.090804
   3 C :    0.029523
   4 C :   -0.172262
   5 H :    0.035562
   6 C :    0.053061
   7 H :    0.023721
   8 H :    0.018261
   9 C :   -0.084627
  10 H :    0.025420
  11 H :    0.021692
  12 C :   -0.022600
  13 H :    0.026653
  14 H :    0.042487
  15 H :    0.020059
  16 S :    0.116919
  17 C :   -0.069245
  18 C :   -0.042646
  19 C :   -0.078848
  20 C :   -0.146931
  21 H :    0.018268
  22 C :    0.122898
  23 H :   -0.035100
  24 H :    0.028311
  25 C :   -0.048891
  26 H :    0.023396
  27 H :    0.026897
  28 C :   -0.078900
  29 H :    0.048018
  30 H :    0.036552
  31 H :    0.048534
  32 H :    0.069832
  33 H :    0.043525
Sum of atomic charges:   -0.0000000

LOEWDIN ATOMIC CHARGES
----------------------
   0 S :    0.391596
   1 C :   -0.207878
   2 C :   -0.062724
   3 C :   -0.056187
   4 C :   -0.173393
   5 H :    0.034878
   6 C :   -0.030404
   7 H :    0.026275
   8 H :    0.025226
   9 C :   -0.048587
  10 H :    0.024986
  11 H :    0.020223
  12 C :   -0.060651
  13 H :    0.018618
  14 H :    0.034312
  15 H :    0.023446
  16 S :    0.416542
  17 C :   -0.185678
  18 C :   -0.069121
  19 C :   -0.048207
  20 C :   -0.214005
  21 H :    0.026535
  22 C :   -0.028694
  23 H :    0.008358
  24 H :    0.035311
  25 C :   -0.027950
  26 H :    0.020253
  27 H :    0.020922
  28 C :   -0.069473
  29 H :    0.027354
  30 H :    0.025563
  31 H :    0.034890
  32 H :    0.043928
  33 H :    0.023738

  Mayer bond orders larger than 0.100000
B(  0-S ,  1-C ) :   1.1303 B(  0-S ,  4-C ) :   1.1203 B(  1-C ,  2-C ) :   1.6426
B(  1-C , 32-H ) :   0.9607 B(  2-C ,  3-C ) :   1.2115 B(  2-C ,  6-C ) :   1.0139
B(  3-C ,  4-C ) :   1.5760 B(  3-C ,  5-H ) :   0.9820 B(  4-C , 20-C ) :   1.1227
B(  6-C ,  7-H ) :   0.9511 B(  6-C ,  8-H ) :   0.9418 B(  6-C ,  9-C ) :   1.0516
B(  9-C , 10-H ) :   0.9590 B(  9-C , 11-H ) :   0.9607 B(  9-C , 12-C ) :   1.0716
B( 12-C , 13-H ) :   0.9778 B( 12-C , 14-H ) :   0.9762 B( 12-C , 15-H ) :   0.9721
B( 16-S , 17-C ) :   1.1608 B( 16-S , 20-C ) :   1.1401 B( 17-C , 18-C ) :   1.5575
B( 17-C , 20-C ) :   0.1136 B( 17-C , 33-H ) :   0.9788 B( 18-C , 19-C ) :   1.2887
B( 18-C , 21-H ) :   0.9851 B( 19-C , 20-C ) :   1.5186 B( 19-C , 22-C ) :   1.0429
B( 22-C , 23-H ) :   0.9206 B( 22-C , 24-H ) :   0.9262 B( 22-C , 25-C ) :   1.0764
B( 25-C , 26-H ) :   0.9560 B( 25-C , 27-H ) :   0.9576 B( 25-C , 28-C ) :   1.0569
B( 28-C , 29-H ) :   0.9798 B( 28-C , 30-H ) :   0.9778 B( 28-C , 31-H ) :   0.9751

Dispersion correction           -0.014310413
FINAL SINGLE POINT ENERGY     -1339.850883853887

DIPOLE MOMENT
-------------
                                X             Y             Z
Electronic contribution:    -19.52718     -16.11467      -2.83786
Nuclear contribution   :     20.21330      16.34724       2.97142
                        -----------------------------------------
Total Dipole Moment    :      0.68612       0.23257       0.13355
                        -----------------------------------------
Magnitude (a.u.)       :      0.73668
Magnitude (Debye)      :      1.87248

Rotational constants in cm-1:     0.020908     0.007417     0.006525
Rotational constants in MHz :   626.802990   222.344710   195.627964

                             ****ORCA TERMINATED NORMALLY****
TOTAL RUN TIME: 0 days 0 hours 0 minutes 21 seconds 249 msec
