                         Program Version 4.2.1 -  RELEASE  -
|  1> ! wB97X-D3 SP def2-SVP
|  2> %pal
|  3> nprocs 24
|  4> end
|  5>
|  6> * xyz 0 1
|  7> S 	 -81.8936 	 -38.6894 	 -75.9389
|  8> C 	 -82.0972 	 -38.4688 	 -77.6685
|  9> C 	 -82.6006 	 -39.5985 	 -78.2602
| 10> C 	 -82.6258 	 -40.6909 	 -77.3781
| 11> C 	 -82.4183 	 -40.3772 	 -76.0265
| 12> H 	 -82.8011 	 -41.7211 	 -77.7436
| 13> C 	 -83.0623 	 -39.7227 	 -79.6691
| 14> H 	 -82.3182 	 -40.226 	 -80.2779
| 15> H 	 -83.2985 	 -38.7472 	 -80.1581
| 16> C 	 -84.3896 	 -40.4914 	 -79.8001
| 17> H 	 -84.6362 	 -40.4214 	 -80.8686
| 18> H 	 -84.2392 	 -41.5578 	 -79.6856
| 19> C 	 -85.6354 	 -40.0365 	 -79.0564
| 20> H 	 -86.0485 	 -39.0651 	 -79.486
| 21> H 	 -86.3696 	 -40.9293 	 -78.9802
| 22> H 	 -85.3329 	 -39.9018 	 -77.9652
| 23> S 	 -83.5299 	 -40.6683 	 -73.4733
| 24> C 	 -83.7672 	 -42.3589 	 -72.9008
| 25> C 	 -83.1098 	 -43.238 	 -73.6691
| 26> C 	 -82.4761 	 -42.6221 	 -74.809
| 27> C 	 -82.7114 	 -41.2634 	 -74.9166
| 28> H 	 -83.0574 	 -44.2799 	 -73.3545
| 29> C 	 -81.5689 	 -43.438 	 -75.6643
| 30> H 	 -81.2569 	 -42.7441 	 -76.452
| 31> H 	 -82.0653 	 -44.2679 	 -76.135
| 32> C 	 -80.3887 	 -44.1711 	 -74.9445
| 33> H 	 -79.9006 	 -44.9044 	 -75.5835
| 34> H 	 -80.7266 	 -44.684 	 -74.0998
| 35> C 	 -79.2575 	 -43.1939 	 -74.46
| 36> H 	 -79.6306 	 -42.345 	 -73.8816
| 37> H 	 -78.9344 	 -42.6659 	 -75.4224
| 38> H 	 -78.336 	 -43.5943 	 -74.0549
| 39> H 	 -81.972 	 -37.4884 	 -78.0875
| 40> H 	 -84.1487 	 -42.6352 	 -71.944
| 41> *
| 42>
| 43>                          ****END OF INPUT****

CARTESIAN COORDINATES (ANGSTROEM)
---------------------------------
  S    -81.893600  -38.689400  -75.938900
  C    -82.097200  -38.468800  -77.668500
  C    -82.600600  -39.598500  -78.260200
  C    -82.625800  -40.690900  -77.378100
  C    -82.418300  -40.377200  -76.026500
  H    -82.801100  -41.721100  -77.743600
  C    -83.062300  -39.722700  -79.669100
  H    -82.318200  -40.226000  -80.277900
  H    -83.298500  -38.747200  -80.158100
  C    -84.389600  -40.491400  -79.800100
  H    -84.636200  -40.421400  -80.868600
  H    -84.239200  -41.557800  -79.685600
  C    -85.635400  -40.036500  -79.056400
  H    -86.048500  -39.065100  -79.486000
  H    -86.369600  -40.929300  -78.980200
  H    -85.332900  -39.901800  -77.965200
  S    -83.529900  -40.668300  -73.473300
  C    -83.767200  -42.358900  -72.900800
  C    -83.109800  -43.238000  -73.669100
  C    -82.476100  -42.622100  -74.809000
  C    -82.711400  -41.263400  -74.916600
  H    -83.057400  -44.279900  -73.354500
  C    -81.568900  -43.438000  -75.664300
  H    -81.256900  -42.744100  -76.452000
  H    -82.065300  -44.267900  -76.135000
  C    -80.388700  -44.171100  -74.944500
  H    -79.900600  -44.904400  -75.583500
  H    -80.726600  -44.684000  -74.099800
  C    -79.257500  -43.193900  -74.460000
  H    -79.630600  -42.345000  -73.881600
  H    -78.934400  -42.665900  -75.422400
  H    -78.336000  -43.594300  -74.054900
  H    -81.972000  -37.488400  -78.087500
  H    -84.148700  -42.635200  -71.944000

 Total Charge           Charge          ....    0
 Multiplicity           Mult            ....    1
 Number of Electrons    NEL             ....  134
 Basis Dimension        Dim             ....  322

ORBITAL ENERGIES
----------------

  NO   OCC          E(Eh)            E(eV)
   0   2.0000     -88.968135     -2420.9460
   1   2.0000     -88.964661     -2420.8515
   2   2.0000     -10.336144      -281.2608
   3   2.0000     -10.331144      -281.1247
   4   2.0000     -10.316005      -280.7128
   5   2.0000     -10.314650      -280.6759
   6   2.0000     -10.301918      -280.3294
   7   2.0000     -10.298374      -280.2330
   8   2.0000     -10.297737      -280.2157
   9   2.0000     -10.295054      -280.1427
  10   2.0000     -10.292598      -280.0758
  11   2.0000     -10.290696      -280.0241
  12   2.0000     -10.289497      -279.9914
  13   2.0000     -10.287394      -279.9342
  14   2.0000     -10.284062      -279.8436
  15   2.0000     -10.276344      -279.6335
  16   2.0000      -8.082461      -219.9349
  17   2.0000      -8.078728      -219.8334
  18   2.0000      -6.041025      -164.3846
  19   2.0000      -6.037492      -164.2885
  20   2.0000      -6.037005      -164.2753
  21   2.0000      -6.033528      -164.1806
  22   2.0000      -6.033211      -164.1720
  23   2.0000      -6.029049      -164.0588
  24   2.0000      -1.006824       -27.3971
  25   2.0000      -0.985706       -26.8224
  26   2.0000      -0.914185       -24.8762
  27   2.0000      -0.904129       -24.6026
  28   2.0000      -0.874499       -23.7963
  29   2.0000      -0.847332       -23.0571
  30   2.0000      -0.840198       -22.8629
  31   2.0000      -0.817701       -22.2508
  32   2.0000      -0.782151       -21.2834
  33   2.0000      -0.770696       -20.9717
  34   2.0000      -0.712244       -19.3812
  35   2.0000      -0.701023       -19.0758
  36   2.0000      -0.689131       -18.7522
  37   2.0000      -0.657336       -17.8870
  38   2.0000      -0.637579       -17.3494
  39   2.0000      -0.627964       -17.0878
  40   2.0000      -0.597045       -16.2464
  41   2.0000      -0.569145       -15.4872
  42   2.0000      -0.557790       -15.1782
  43   2.0000      -0.549680       -14.9575
  44   2.0000      -0.539672       -14.6852
  45   2.0000      -0.537029       -14.6133
  46   2.0000      -0.520215       -14.1558
  47   2.0000      -0.509463       -13.8632
  48   2.0000      -0.507018       -13.7967
  49   2.0000      -0.495632       -13.4868
  50   2.0000      -0.491134       -13.3644
  51   2.0000      -0.477511       -12.9937
  52   2.0000      -0.467239       -12.7142
  53   2.0000      -0.465848       -12.6764
  54   2.0000      -0.450993       -12.2721
  55   2.0000      -0.446218       -12.1422
  56   2.0000      -0.441249       -12.0070
  57   2.0000      -0.437356       -11.9011
  58   2.0000      -0.429734       -11.6937
  59   2.0000      -0.423588       -11.5264
  60   2.0000      -0.417834       -11.3698
  61   2.0000      -0.413527       -11.2526
  62   2.0000      -0.406503       -11.0615
  63   2.0000      -0.357884        -9.7385
  64   2.0000      -0.332915        -9.0591
  65   2.0000      -0.327787        -8.9195
  66   2.0000      -0.287313        -7.8182
  67   0.0000       0.021097         0.5741
  68   0.0000       0.074690         2.0324
  69   0.0000       0.109128         2.9695
  70   0.0000       0.118936         3.2364
  71   0.0000       0.127503         3.4695

MULLIKEN ATOMIC CHARGES
-----------------------
   0 S :    0.104033
   1 C :   -0.126488
   2 C :   -0.074768
   3 C :    0.003204
   4 C :   -0.153753
   5 H :    0.028360
   6 C :    0.091076
   7 H :    0.041909
   8 H :    0.025078
   9 C :   -0.119776
  10 H :    0.023737
  11 H :    0.021034
  12 C :   -0.089883
  13 H :    0.052547
  14 H :    0.052441
  15 H :    0.053875
  16 S :    0.088783
  17 C :   -0.073820
  18 C :   -0.029963
  19 C :   -0.056743
  20 C :   -0.122620
  21 H :    0.028647
  22 C :    0.071251
  23 H :    0.022499
  24 H :    0.025147
  25 C :   -0.045890
  26 H :    0.031425
  27 H :    0.016416
  28 C :   -0.086971
  29 H :    0.043620
  30 H :    0.021575
  31 H :    0.040703
  32 H :    0.047219
  33 H :    0.046094
Sum of atomic charges:   -0.0000000

LOEWDIN ATOMIC CHARGES
----------------------
   0 S :    0.395897
   1 C :   -0.185541
   2 C :   -0.072411
   3 C :   -0.060816
   4 C :   -0.188391
   5 H :    0.035262
   6 C :   -0.030493
   7 H :    0.036666
   8 H :    0.034686
   9 C :   -0.056494
  10 H :    0.025501
  11 H :    0.017434
  12 C :   -0.082207
  13 H :    0.033284
  14 H :    0.041403
  15 H :    0.033892
  16 S :    0.369547
  17 C :   -0.159395
  18 C :   -0.066553
  19 C :   -0.059260
  20 C :   -0.188916
  21 H :    0.036861
  22 C :   -0.032560
  23 H :    0.029606
  24 H :    0.030589
  25 C :   -0.028662
  26 H :    0.026420
  27 H :    0.011389
  28 C :   -0.076791
  29 H :    0.026518
  30 H :    0.029875
  31 H :    0.022678
  32 H :    0.025135
  33 H :    0.025847

  Mayer bond orders larger than 0.100000
B(  0-S ,  1-C ) :   1.1357 B(  0-S ,  4-C ) :   1.1502 B(  1-C ,  2-C ) :   1.5921
B(  1-C , 32-H ) :   0.9734 B(  2-C ,  3-C ) :   1.2699 B(  2-C ,  6-C ) :   1.0274
B(  3-C ,  4-C ) :   1.5290 B(  3-C ,  5-H ) :   0.9830 B(  4-C , 20-C ) :   1.0819
B(  6-C ,  7-H ) :   0.9306 B(  6-C ,  8-H ) :   0.9467 B(  6-C ,  9-C ) :   1.0764
B(  9-C , 10-H ) :   0.9541 B(  9-C , 11-H ) :   0.9509 B(  9-C , 12-C ) :   1.0740
B( 12-C , 13-H ) :   0.9723 B( 12-C , 14-H ) :   0.9702 B( 12-C , 15-H ) :   0.9707
B( 16-S , 17-C ) :   1.1189 B( 16-S , 20-C ) :   1.1099 B( 17-C , 18-C ) :   1.6691
B( 17-C , 33-H ) :   0.9653 B( 18-C , 19-C ) :   1.1947 B( 18-C , 21-H ) :   0.9873
B( 19-C , 20-C ) :   1.6092 B( 19-C , 22-C ) :   1.0609 B( 22-C , 23-H ) :   0.9323
B( 22-C , 24-H ) :   0.9258 B( 22-C , 25-C ) :   1.0659 B( 25-C , 26-H ) :   0.9582
B( 25-C , 27-H ) :   0.9568 B( 25-C , 28-C ) :   1.0608 B( 28-C , 29-H ) :   0.9795
B( 28-C , 30-H ) :   0.9744 B( 28-C , 31-H ) :   0.9780

Dispersion correction           -0.014932908
FINAL SINGLE POINT ENERGY     -1339.873675068955

DIPOLE MOMENT
-------------
                                X             Y             Z
Electronic contribution:     -1.74213      13.01049      15.07071
Nuclear contribution   :      1.75646     -13.53333     -15.51837
                        -----------------------------------------
Total Dipole Moment    :      0.01434      -0.52284      -0.44766
                        -----------------------------------------
Magnitude (a.u.)       :      0.68845
Magnitude (Debye)      :      1.74989

Rotational constants in cm-1:     0.018874     0.008595     0.008151
Rotational constants in MHz :   565.816988   257.683574   244.363987

                             ****ORCA TERMINATED NORMALLY****
TOTAL RUN TIME: 0 days 0 hours 0 minutes 22 seconds 431 msec
