                         Program Version 4.2.1 -  RELEASE  -
|  1> ! wB97X-D3 SP def2-SVP
|  2> %pal
|  3> nprocs 24
|  4> end
|  5>
|  6> * xyz 0 1
|  7> S 	 -61.8057 	 13.1414 	 -110.219
|  8> C 	 -63.4779 	 12.58 	 -110.392
|  9> C 	 -64.1587 	 13.3411 	 -111.373
| 10> C 	 -63.2845 	 14.3475 	 -111.975
| 11> C 	 -62.0146 	 14.3639 	 -111.461
| 12> H 	 -63.447 	 14.9877 	 -112.843
| 13> C 	 -65.4868 	 13.0416 	 -112.031
| 14> H 	 -65.6922 	 13.8786 	 -112.731
| 15> H 	 -66.3024 	 13.0361 	 -111.232
| 16> C 	 -65.5026 	 11.6592 	 -112.782
| 17> H 	 -64.6564 	 11.6271 	 -113.495
| 18> H 	 -65.4172 	 10.8756 	 -111.983
| 19> C 	 -66.8667 	 11.4124 	 -113.51
| 20> H 	 -67.5458 	 11.0766 	 -112.752
| 21> H 	 -67.243 	 12.2882 	 -114.05
| 22> H 	 -66.8236 	 10.6368 	 -114.327
| 23> S 	 -59.4344 	 14.3741 	 -112.072
| 24> C 	 -58.5499 	 15.8527 	 -112.389
| 25> C 	 -59.3675 	 16.9585 	 -112.311
| 26> C 	 -60.7438 	 16.6294 	 -111.939
| 27> C 	 -60.9054 	 15.2245 	 -111.813
| 28> H 	 -58.9935 	 17.9667 	 -112.441
| 29> C 	 -61.7375 	 17.6619 	 -111.501
| 30> H 	 -61.0522 	 18.4979 	 -111.415
| 31> H 	 -62.0933 	 17.4848 	 -110.461
| 32> C 	 -62.6918 	 18.0717 	 -112.571
| 33> H 	 -63.3163 	 17.1992 	 -112.734
| 34> H 	 -62.2971 	 18.061 	 -113.542
| 35> C 	 -63.6673 	 19.2465 	 -112.32
| 36> H 	 -64.2595 	 19.5822 	 -113.165
| 37> H 	 -63.0907 	 20.1744 	 -112.012
| 38> H 	 -64.3873 	 19.0496 	 -111.528
| 39> H 	 -63.9963 	 11.7697 	 -109.845
| 40> H 	 -57.5623 	 15.8649 	 -112.751
| 41> *
| 42>
| 43>                          ****END OF INPUT****

CARTESIAN COORDINATES (ANGSTROEM)
---------------------------------
  S    -61.805700   13.141400  -110.219000
  C    -63.477900   12.580000  -110.392000
  C    -64.158700   13.341100  -111.373000
  C    -63.284500   14.347500  -111.975000
  C    -62.014600   14.363900  -111.461000
  H    -63.447000   14.987700  -112.843000
  C    -65.486800   13.041600  -112.031000
  H    -65.692200   13.878600  -112.731000
  H    -66.302400   13.036100  -111.232000
  C    -65.502600   11.659200  -112.782000
  H    -64.656400   11.627100  -113.495000
  H    -65.417200   10.875600  -111.983000
  C    -66.866700   11.412400  -113.510000
  H    -67.545800   11.076600  -112.752000
  H    -67.243000   12.288200  -114.050000
  H    -66.823600   10.636800  -114.327000
  S    -59.434400   14.374100  -112.072000
  C    -58.549900   15.852700  -112.389000
  C    -59.367500   16.958500  -112.311000
  C    -60.743800   16.629400  -111.939000
  C    -60.905400   15.224500  -111.813000
  H    -58.993500   17.966700  -112.441000
  C    -61.737500   17.661900  -111.501000
  H    -61.052200   18.497900  -111.415000
  H    -62.093300   17.484800  -110.461000
  C    -62.691800   18.071700  -112.571000
  H    -63.316300   17.199200  -112.734000
  H    -62.297100   18.061000  -113.542000
  C    -63.667300   19.246500  -112.320000
  H    -64.259500   19.582200  -113.165000
  H    -63.090700   20.174400  -112.012000
  H    -64.387300   19.049600  -111.528000
  H    -63.996300   11.769700  -109.845000
  H    -57.562300   15.864900  -112.751000

 Total Charge           Charge          ....    0
 Multiplicity           Mult            ....    1
 Number of Electrons    NEL             ....  134
 Basis Dimension        Dim             ....  322

ORBITAL ENERGIES
----------------

  NO   OCC          E(Eh)            E(eV)
   0   2.0000     -88.968512     -2420.9563
   1   2.0000     -88.965924     -2420.8859
   2   2.0000     -10.328214      -281.0450
   3   2.0000     -10.326968      -281.0111
   4   2.0000     -10.321904      -280.8733
   5   2.0000     -10.314498      -280.6718
   6   2.0000     -10.309156      -280.5264
   7   2.0000     -10.308239      -280.5015
   8   2.0000     -10.302100      -280.3344
   9   2.0000     -10.299192      -280.2553
  10   2.0000     -10.297827      -280.2181
  11   2.0000     -10.295346      -280.1506
  12   2.0000     -10.290658      -280.0230
  13   2.0000     -10.282992      -279.8145
  14   2.0000     -10.282514      -279.8014
  15   2.0000     -10.279898      -279.7302
  16   2.0000      -8.082526      -219.9367
  17   2.0000      -8.081270      -219.9025
  18   2.0000      -6.041194      -164.3892
  19   2.0000      -6.039741      -164.3497
  20   2.0000      -6.037046      -164.2764
  21   2.0000      -6.035565      -164.2361
  22   2.0000      -6.033228      -164.1725
  23   2.0000      -6.032159      -164.1434
  24   2.0000      -1.006928       -27.3999
  25   2.0000      -0.978728       -26.6325
  26   2.0000      -0.915551       -24.9134
  27   2.0000      -0.904580       -24.6149
  28   2.0000      -0.868127       -23.6229
  29   2.0000      -0.849533       -23.1170
  30   2.0000      -0.843344       -22.9485
  31   2.0000      -0.815199       -22.1827
  32   2.0000      -0.779965       -21.2239
  33   2.0000      -0.767585       -20.8870
  34   2.0000      -0.711792       -19.3688
  35   2.0000      -0.699710       -19.0401
  36   2.0000      -0.692969       -18.8567
  37   2.0000      -0.668050       -18.1786
  38   2.0000      -0.638923       -17.3860
  39   2.0000      -0.611597       -16.6424
  40   2.0000      -0.596976       -16.2445
  41   2.0000      -0.566702       -15.4207
  42   2.0000      -0.561135       -15.2693
  43   2.0000      -0.554293       -15.0831
  44   2.0000      -0.529706       -14.4140
  45   2.0000      -0.518951       -14.1214
  46   2.0000      -0.514899       -14.0111
  47   2.0000      -0.511052       -13.9064
  48   2.0000      -0.504408       -13.7256
  49   2.0000      -0.500322       -13.6145
  50   2.0000      -0.498029       -13.5521
  51   2.0000      -0.475560       -12.9406
  52   2.0000      -0.472341       -12.8531
  53   2.0000      -0.464373       -12.6362
  54   2.0000      -0.454588       -12.3700
  55   2.0000      -0.450659       -12.2631
  56   2.0000      -0.445603       -12.1255
  57   2.0000      -0.442956       -12.0535
  58   2.0000      -0.431083       -11.7304
  59   2.0000      -0.426567       -11.6075
  60   2.0000      -0.422742       -11.5034
  61   2.0000      -0.419492       -11.4150
  62   2.0000      -0.396219       -10.7817
  63   2.0000      -0.350785        -9.5453
  64   2.0000      -0.329403        -8.9635
  65   2.0000      -0.328507        -8.9391
  66   2.0000      -0.290837        -7.9141
  67   0.0000       0.028416         0.7732
  68   0.0000       0.067771         1.8441
  69   0.0000       0.107180         2.9165
  70   0.0000       0.118796         3.2326
  71   0.0000       0.127160         3.4602

MULLIKEN ATOMIC CHARGES
-----------------------
   0 S :    0.115590
   1 C :   -0.127260
   2 C :   -0.080826
   3 C :    0.016393
   4 C :   -0.140939
   5 H :    0.028121
   6 C :    0.013936
   7 H :    0.031039
   8 H :    0.041899
   9 C :   -0.085743
  10 H :    0.044943
  11 H :    0.036418
  12 C :   -0.059131
  13 H :    0.033544
  14 H :    0.033527
  15 H :    0.041303
  16 S :    0.106202
  17 C :   -0.075051
  18 C :   -0.028877
  19 C :   -0.079362
  20 C :   -0.169696
  21 H :    0.023995
  22 C :    0.104286
  23 H :   -0.000909
  24 H :    0.054070
  25 C :   -0.039645
  26 H :   -0.004584
  27 H :    0.007914
  28 C :   -0.045941
  29 H :    0.033425
  30 H :    0.029376
  31 H :    0.034471
  32 H :    0.062303
  33 H :    0.045212
Sum of atomic charges:    0.0000000

LOEWDIN ATOMIC CHARGES
----------------------
   0 S :    0.397728
   1 C :   -0.202772
   2 C :   -0.061230
   3 C :   -0.068959
   4 C :   -0.195917
   5 H :    0.032769
   6 C :   -0.040590
   7 H :    0.030434
   8 H :    0.036288
   9 C :   -0.037222
  10 H :    0.026951
  11 H :    0.027234
  12 C :   -0.072617
  13 H :    0.022966
  14 H :    0.024335
  15 H :    0.032194
  16 S :    0.422790
  17 C :   -0.182956
  18 C :   -0.065677
  19 C :   -0.053041
  20 C :   -0.207612
  21 H :    0.032423
  22 C :   -0.033432
  23 H :    0.029037
  24 H :    0.042889
  25 C :   -0.049264
  26 H :    0.021069
  27 H :    0.022524
  28 C :   -0.068686
  29 H :    0.027214
  30 H :    0.027452
  31 H :    0.025794
  32 H :    0.036867
  33 H :    0.021017

  Mayer bond orders larger than 0.100000
B(  0-S ,  1-C ) :   1.1268 B(  0-S ,  4-C ) :   1.1390 B(  1-C ,  2-C ) :   1.6092
B(  1-C , 32-H ) :   0.9664 B(  2-C ,  3-C ) :   1.2165 B(  2-C ,  6-C ) :   1.0334
B(  3-C ,  4-C ) :   1.6128 B(  3-C ,  5-H ) :   0.9802 B(  4-C , 20-C ) :   1.0378
B(  6-C ,  7-H ) :   0.9469 B(  6-C ,  8-H ) :   0.9370 B(  6-C ,  9-C ) :   1.0531
B(  9-C , 10-H ) :   0.9618 B(  9-C , 11-H ) :   0.9588 B(  9-C , 12-C ) :   1.0672
B( 12-C , 13-H ) :   0.9781 B( 12-C , 14-H ) :   0.9770 B( 12-C , 15-H ) :   0.9768
B( 16-S , 17-C ) :   1.1494 B( 16-S , 20-C ) :   1.1648 B( 17-C , 18-C ) :   1.6104
B( 17-C , 33-H ) :   0.9726 B( 18-C , 19-C ) :   1.2557 B( 18-C , 21-H ) :   0.9832
B( 19-C , 20-C ) :   1.5596 B( 19-C , 22-C ) :   1.0319 B( 22-C , 23-H ) :   0.9233
B( 22-C , 24-H ) :   0.9393 B( 22-C , 25-C ) :   1.0518 B( 25-C , 26-H ) :   0.9395
B( 25-C , 27-H ) :   0.9480 B( 25-C , 28-C ) :   1.0763 B( 28-C , 29-H ) :   0.9740
B( 28-C , 30-H ) :   0.9764 B( 28-C , 31-H ) :   0.9751

Dispersion correction           -0.013873748
FINAL SINGLE POINT ENERGY     -1339.873947323390

DIPOLE MOMENT
-------------
                                X             Y             Z
Electronic contribution:     25.21156      -8.38546       9.49705
Nuclear contribution   :    -25.59427       8.64089      -9.79487
                        -----------------------------------------
Total Dipole Moment    :     -0.38272       0.25543      -0.29782
                        -----------------------------------------
Magnitude (a.u.)       :      0.54810
Magnitude (Debye)      :      1.39316

Rotational constants in cm-1:     0.017726     0.008285     0.006399
Rotational constants in MHz :   531.409862   248.369588   191.837046

                             ****ORCA TERMINATED NORMALLY****
TOTAL RUN TIME: 0 days 0 hours 0 minutes 20 seconds 81 msec
