                         Program Version 4.2.1 -  RELEASE  -
|  1> ! wB97X-D3 SP def2-SVP
|  2> %pal
|  3> nprocs 24
|  4> end
|  5>
|  6> * xyz 0 1
|  7> S 	 -106.635 	 11.5143 	 -7.62234
|  8> C 	 -105.514 	 12.8762 	 -7.91336
|  9> C 	 -105.335 	 13.6605 	 -6.7613
| 10> C 	 -106.12 	 13.2289 	 -5.66172
| 11> C 	 -106.98 	 12.1922 	 -6.00323
| 12> H 	 -106.161 	 13.6705 	 -4.69891
| 13> C 	 -104.392 	 14.8206 	 -6.6813
| 14> H 	 -104.299 	 15.1102 	 -5.63929
| 15> H 	 -104.804 	 15.6604 	 -7.22664
| 16> C 	 -102.923 	 14.5491 	 -7.13003
| 17> H 	 -102.817 	 14.4525 	 -8.20807
| 18> H 	 -102.274 	 15.3945 	 -6.9502
| 19> C 	 -102.298 	 13.4006 	 -6.43704
| 20> H 	 -102.647 	 12.3735 	 -6.81219
| 21> H 	 -101.201 	 13.4284 	 -6.58151
| 22> H 	 -102.678 	 13.3837 	 -5.40787
| 23> S 	 -109.683 	 11.6451 	 -5.82477
| 24> C 	 -110.371 	 11.1989 	 -4.2998
| 25> C 	 -109.354 	 10.8787 	 -3.43692
| 26> C 	 -108.071 	 11.0845 	 -3.89272
| 27> C 	 -108.072 	 11.6035 	 -5.15906
| 28> H 	 -109.58 	 10.3553 	 -2.54691
| 29> C 	 -106.889 	 10.873 	 -2.88684
| 30> H 	 -107.214 	 10.4731 	 -1.92846
| 31> H 	 -106.453 	 11.8776 	 -2.57573
| 32> C 	 -105.646 	 10.0226 	 -3.36833
| 33> H 	 -105.297 	 10.2919 	 -4.38972
| 34> H 	 -105.889 	 8.95436 	 -3.51675
| 35> C 	 -104.503 	 10.1342 	 -2.30866
| 36> H 	 -104.012 	 11.0875 	 -2.13463
| 37> H 	 -103.652 	 9.5435 	 -2.69521
| 38> H 	 -104.83 	 9.81925 	 -1.32655
| 39> H 	 -105.114 	 13.0967 	 -8.87392
| 40> H 	 -111.463 	 11.0383 	 -4.11691
| 41> *
| 42>
| 43>                          ****END OF INPUT****

CARTESIAN COORDINATES (ANGSTROEM)
---------------------------------
  S    -106.635000   11.514300   -7.622340
  C    -105.514000   12.876200   -7.913360
  C    -105.335000   13.660500   -6.761300
  C    -106.120000   13.228900   -5.661720
  C    -106.980000   12.192200   -6.003230
  H    -106.161000   13.670500   -4.698910
  C    -104.392000   14.820600   -6.681300
  H    -104.299000   15.110200   -5.639290
  H    -104.804000   15.660400   -7.226640
  C    -102.923000   14.549100   -7.130030
  H    -102.817000   14.452500   -8.208070
  H    -102.274000   15.394500   -6.950200
  C    -102.298000   13.400600   -6.437040
  H    -102.647000   12.373500   -6.812190
  H    -101.201000   13.428400   -6.581510
  H    -102.678000   13.383700   -5.407870
  S    -109.683000   11.645100   -5.824770
  C    -110.371000   11.198900   -4.299800
  C    -109.354000   10.878700   -3.436920
  C    -108.071000   11.084500   -3.892720
  C    -108.072000   11.603500   -5.159060
  H    -109.580000   10.355300   -2.546910
  C    -106.889000   10.873000   -2.886840
  H    -107.214000   10.473100   -1.928460
  H    -106.453000   11.877600   -2.575730
  C    -105.646000   10.022600   -3.368330
  H    -105.297000   10.291900   -4.389720
  H    -105.889000    8.954360   -3.516750
  C    -104.503000   10.134200   -2.308660
  H    -104.012000   11.087500   -2.134630
  H    -103.652000    9.543500   -2.695210
  H    -104.830000    9.819250   -1.326550
  H    -105.114000   13.096700   -8.873920
  H    -111.463000   11.038300   -4.116910

 Total Charge           Charge          ....    0
 Multiplicity           Mult            ....    1
 Number of Electrons    NEL             ....  134
 Basis Dimension        Dim             ....  322

ORBITAL ENERGIES
----------------

  NO   OCC          E(Eh)            E(eV)
   0   2.0000     -88.968883     -2420.9664
   1   2.0000     -88.965696     -2420.8797
   2   2.0000     -10.335653      -281.2474
   3   2.0000     -10.326392      -280.9954
   4   2.0000     -10.317628      -280.7569
   5   2.0000     -10.315077      -280.6875
   6   2.0000     -10.303706      -280.3781
   7   2.0000     -10.302831      -280.3543
   8   2.0000     -10.300265      -280.2845
   9   2.0000     -10.294184      -280.1190
  10   2.0000     -10.292479      -280.0726
  11   2.0000     -10.291401      -280.0433
  12   2.0000     -10.283067      -279.8165
  13   2.0000     -10.281893      -279.7845
  14   2.0000     -10.279004      -279.7059
  15   2.0000     -10.277896      -279.6758
  16   2.0000      -8.082221      -219.9284
  17   2.0000      -8.080948      -219.8938
  18   2.0000      -6.040693      -164.3756
  19   2.0000      -6.039390      -164.3401
  20   2.0000      -6.037038      -164.2762
  21   2.0000      -6.035311      -164.2292
  22   2.0000      -6.033006      -164.1664
  23   2.0000      -6.031810      -164.1339
  24   2.0000      -1.008514       -27.4431
  25   2.0000      -0.981806       -26.7163
  26   2.0000      -0.913248       -24.8507
  27   2.0000      -0.895983       -24.3809
  28   2.0000      -0.863157       -23.4877
  29   2.0000      -0.851530       -23.1713
  30   2.0000      -0.848930       -23.1005
  31   2.0000      -0.811806       -22.0904
  32   2.0000      -0.778783       -21.1918
  33   2.0000      -0.769814       -20.9477
  34   2.0000      -0.705631       -19.2012
  35   2.0000      -0.700578       -19.0637
  36   2.0000      -0.689101       -18.7514
  37   2.0000      -0.663147       -18.0452
  38   2.0000      -0.641231       -17.4488
  39   2.0000      -0.614171       -16.7124
  40   2.0000      -0.597419       -16.2566
  41   2.0000      -0.571451       -15.5500
  42   2.0000      -0.561427       -15.2772
  43   2.0000      -0.550622       -14.9832
  44   2.0000      -0.537799       -14.6343
  45   2.0000      -0.520694       -14.1688
  46   2.0000      -0.510588       -13.8938
  47   2.0000      -0.506324       -13.7778
  48   2.0000      -0.504086       -13.7169
  49   2.0000      -0.494157       -13.4467
  50   2.0000      -0.487116       -13.2551
  51   2.0000      -0.483347       -13.1525
  52   2.0000      -0.474677       -12.9166
  53   2.0000      -0.467360       -12.7175
  54   2.0000      -0.454038       -12.3550
  55   2.0000      -0.448949       -12.2165
  56   2.0000      -0.439652       -11.9635
  57   2.0000      -0.435787       -11.8584
  58   2.0000      -0.433762       -11.8033
  59   2.0000      -0.429754       -11.6942
  60   2.0000      -0.417091       -11.3496
  61   2.0000      -0.413577       -11.2540
  62   2.0000      -0.405249       -11.0274
  63   2.0000      -0.341846        -9.3021
  64   2.0000      -0.333510        -9.0753
  65   2.0000      -0.330360        -8.9896
  66   2.0000      -0.294136        -8.0038
  67   0.0000       0.028624         0.7789
  68   0.0000       0.061700         1.6789
  69   0.0000       0.105646         2.8748
  70   0.0000       0.121981         3.3193
  71   0.0000       0.132710         3.6112

MULLIKEN ATOMIC CHARGES
-----------------------
   0 S :    0.103408
   1 C :   -0.115234
   2 C :   -0.094176
   3 C :    0.052429
   4 C :   -0.155605
   5 H :    0.002500
   6 C :    0.083643
   7 H :    0.016258
   8 H :    0.043188
   9 C :   -0.073941
  10 H :    0.018665
  11 H :    0.021828
  12 C :   -0.062819
  13 H :    0.039724
  14 H :    0.044124
  15 H :    0.022856
  16 S :    0.119029
  17 C :   -0.109577
  18 C :   -0.041697
  19 C :    0.043884
  20 C :   -0.192353
  21 H :    0.002954
  22 C :    0.037782
  23 H :    0.014851
  24 H :    0.038890
  25 C :   -0.085820
  26 H :    0.044243
  27 H :    0.035960
  28 C :   -0.061013
  29 H :    0.026738
  30 H :    0.035562
  31 H :    0.027938
  32 H :    0.040199
  33 H :    0.075584
Sum of atomic charges:    0.0000000

LOEWDIN ATOMIC CHARGES
----------------------
   0 S :    0.376362
   1 C :   -0.182891
   2 C :   -0.058858
   3 C :   -0.057805
   4 C :   -0.172262
   5 H :    0.029153
   6 C :   -0.029047
   7 H :    0.028475
   8 H :    0.035869
   9 C :   -0.048201
  10 H :    0.019083
  11 H :    0.024418
  12 C :   -0.073622
  13 H :    0.031698
  14 H :    0.030243
  15 H :    0.024467
  16 S :    0.424745
  17 C :   -0.196736
  18 C :   -0.074544
  19 C :   -0.062845
  20 C :   -0.203779
  21 H :    0.024756
  22 C :   -0.029374
  23 H :    0.026382
  24 H :    0.036860
  25 C :   -0.042406
  26 H :    0.027761
  27 H :    0.026629
  28 C :   -0.071669
  29 H :    0.022458
  30 H :    0.031781
  31 H :    0.021411
  32 H :    0.020080
  33 H :    0.041405

  Mayer bond orders larger than 0.100000
B(  0-S ,  1-C ) :   1.1259 B(  0-S ,  4-C ) :   1.1540 B(  1-C ,  2-C ) :   1.5993
B(  1-C ,  4-C ) :   0.1050 B(  1-C , 32-H ) :   0.9755 B(  2-C ,  3-C ) :   1.2408
B(  2-C ,  6-C ) :   1.0221 B(  3-C ,  4-C ) :   1.5821 B(  3-C ,  5-H ) :   0.9990
B(  4-C , 20-C ) :   1.0013 B(  6-C ,  7-H ) :   0.9417 B(  6-C ,  8-H ) :   0.9336
B(  6-C ,  9-C ) :   1.0800 B(  9-C , 10-H ) :   0.9480 B(  9-C , 11-H ) :   0.9563
B(  9-C , 12-C ) :   1.0837 B( 12-C , 13-H ) :   0.9659 B( 12-C , 14-H ) :   0.9728
B( 12-C , 15-H ) :   0.9737 B( 16-S , 17-C ) :   1.1675 B( 16-S , 20-C ) :   1.1649
B( 17-C , 18-C ) :   1.5748 B( 17-C , 20-C ) :   0.1057 B( 17-C , 33-H ) :   0.9634
B( 18-C , 19-C ) :   1.2847 B( 18-C , 21-H ) :   0.9928 B( 19-C , 20-C ) :   1.5740
B( 19-C , 22-C ) :   1.0190 B( 22-C , 23-H ) :   0.9435 B( 22-C , 24-H ) :   0.9456
B( 22-C , 25-C ) :   1.0430 B( 25-C , 26-H ) :   0.9597 B( 25-C , 27-H ) :   0.9565
B( 25-C , 28-C ) :   1.0726 B( 28-C , 29-H ) :   0.9767 B( 28-C , 30-H ) :   0.9737
B( 28-C , 31-H ) :   0.9759

Dispersion correction           -0.014759874
FINAL SINGLE POINT ENERGY     -1339.876815618990

DIPOLE MOMENT
-------------
                                X             Y             Z
Electronic contribution:    -26.42337      -3.09662     -12.50093
Nuclear contribution   :     26.75335       3.29001      12.89735
                        -----------------------------------------
Total Dipole Moment    :      0.32998       0.19339       0.39642
                        -----------------------------------------
Magnitude (a.u.)       :      0.55085
Magnitude (Debye)      :      1.40015

Rotational constants in cm-1:     0.018717     0.009199     0.006992
Rotational constants in MHz :   561.125464   275.788736   209.629275

                             ****ORCA TERMINATED NORMALLY****
TOTAL RUN TIME: 0 days 0 hours 0 minutes 21 seconds 928 msec
