                         Program Version 4.2.1 -  RELEASE  -
|  1> ! wB97X-D3 SP def2-SVP
|  2> %pal
|  3> nprocs 24
|  4> end
|  5>
|  6> * xyz 0 1
|  7> S 	 35.2987 	 -2.81116 	 -123.281
|  8> C 	 34.7432 	 -4.5895 	 -123.445
|  9> C 	 35.0712 	 -5.22132 	 -122.278
| 10> C 	 35.8168 	 -4.42623 	 -121.297
| 11> C 	 35.9431 	 -3.06412 	 -121.64
| 12> H 	 36.2148 	 -4.80585 	 -120.354
| 13> C 	 34.9609 	 -6.70104 	 -122.087
| 14> H 	 33.8621 	 -6.92862 	 -122.31
| 15> H 	 35.0602 	 -7.02933 	 -121.011
| 16> C 	 35.95 	 -7.60345 	 -122.88
| 17> H 	 36.0266 	 -7.2488 	 -123.891
| 18> H 	 37.0418 	 -7.32759 	 -122.61
| 19> C 	 35.4799 	 -9.08158 	 -122.779
| 20> H 	 34.436 	 -9.26936 	 -123.094
| 21> H 	 36.1517 	 -9.80485 	 -123.301
| 22> H 	 35.5146 	 -9.54693 	 -121.756
| 23> S 	 37.9432 	 -1.0873 	 -121.546
| 24> C 	 37.8245 	 0.090243 	 -120.248
| 25> C 	 36.7118 	 -0.156378 	 -119.412
| 26> C 	 35.93 	 -1.26456 	 -119.773
| 27> C 	 36.4901 	 -1.9226 	 -120.912
| 28> H 	 36.4423 	 0.601976 	 -118.668
| 29> C 	 34.5767 	 -1.62453 	 -119.098
| 30> H 	 34.1311 	 -2.28551 	 -119.815
| 31> H 	 34.02 	 -0.720083 	 -119.06
| 32> C 	 34.6564 	 -2.21587 	 -117.723
| 33> H 	 35.2671 	 -1.55184 	 -117.081
| 34> H 	 35.0801 	 -3.14833 	 -117.753
| 35> C 	 33.3162 	 -2.43749 	 -117.049
| 36> H 	 33.3341 	 -2.79577 	 -116.07
| 37> H 	 32.7492 	 -3.13756 	 -117.7
| 38> H 	 32.8487 	 -1.45184 	 -117.139
| 39> H 	 34.4814 	 -5.06816 	 -124.342
| 40> H 	 38.4326 	 0.96134 	 -120.115
| 41> *
| 42>
| 43>                          ****END OF INPUT****

CARTESIAN COORDINATES (ANGSTROEM)
---------------------------------
  S     35.298700   -2.811160  -123.281000
  C     34.743200   -4.589500  -123.445000
  C     35.071200   -5.221320  -122.278000
  C     35.816800   -4.426230  -121.297000
  C     35.943100   -3.064120  -121.640000
  H     36.214800   -4.805850  -120.354000
  C     34.960900   -6.701040  -122.087000
  H     33.862100   -6.928620  -122.310000
  H     35.060200   -7.029330  -121.011000
  C     35.950000   -7.603450  -122.880000
  H     36.026600   -7.248800  -123.891000
  H     37.041800   -7.327590  -122.610000
  C     35.479900   -9.081580  -122.779000
  H     34.436000   -9.269360  -123.094000
  H     36.151700   -9.804850  -123.301000
  H     35.514600   -9.546930  -121.756000
  S     37.943200   -1.087300  -121.546000
  C     37.824500    0.090243  -120.248000
  C     36.711800   -0.156378  -119.412000
  C     35.930000   -1.264560  -119.773000
  C     36.490100   -1.922600  -120.912000
  H     36.442300    0.601976  -118.668000
  C     34.576700   -1.624530  -119.098000
  H     34.131100   -2.285510  -119.815000
  H     34.020000   -0.720083  -119.060000
  C     34.656400   -2.215870  -117.723000
  H     35.267100   -1.551840  -117.081000
  H     35.080100   -3.148330  -117.753000
  C     33.316200   -2.437490  -117.049000
  H     33.334100   -2.795770  -116.070000
  H     32.749200   -3.137560  -117.700000
  H     32.848700   -1.451840  -117.139000
  H     34.481400   -5.068160  -124.342000
  H     38.432600    0.961340  -120.115000

 Total Charge           Charge          ....    0
 Multiplicity           Mult            ....    1
 Number of Electrons    NEL             ....  134
 Basis Dimension        Dim             ....  322

ORBITAL ENERGIES
----------------

  NO   OCC          E(Eh)            E(eV)
   0   2.0000     -88.974230     -2421.1119
   1   2.0000     -88.962086     -2420.7814
   2   2.0000     -10.337981      -281.3108
   3   2.0000     -10.333944      -281.2009
   4   2.0000     -10.322840      -280.8988
   5   2.0000     -10.320117      -280.8247
   6   2.0000     -10.311006      -280.5767
   7   2.0000     -10.305855      -280.4366
   8   2.0000     -10.303219      -280.3648
   9   2.0000     -10.300063      -280.2790
  10   2.0000     -10.299991      -280.2770
  11   2.0000     -10.297088      -280.1980
  12   2.0000     -10.291830      -280.0549
  13   2.0000     -10.288707      -279.9699
  14   2.0000     -10.276240      -279.6307
  15   2.0000     -10.273671      -279.5608
  16   2.0000      -8.087663      -220.0765
  17   2.0000      -8.074856      -219.7280
  18   2.0000      -6.046108      -164.5230
  19   2.0000      -6.042276      -164.4187
  20   2.0000      -6.038638      -164.3197
  21   2.0000      -6.033684      -164.1849
  22   2.0000      -6.029607      -164.0740
  23   2.0000      -6.025398      -163.9594
  24   2.0000      -0.994779       -27.0693
  25   2.0000      -0.971238       -26.4287
  26   2.0000      -0.916392       -24.9363
  27   2.0000      -0.905955       -24.6523
  28   2.0000      -0.863829       -23.5060
  29   2.0000      -0.855607       -23.2823
  30   2.0000      -0.833376       -22.6773
  31   2.0000      -0.810596       -22.0574
  32   2.0000      -0.783201       -21.3120
  33   2.0000      -0.768205       -20.9039
  34   2.0000      -0.708962       -19.2918
  35   2.0000      -0.706820       -19.2336
  36   2.0000      -0.697565       -18.9817
  37   2.0000      -0.657053       -17.8793
  38   2.0000      -0.640354       -17.4249
  39   2.0000      -0.611729       -16.6460
  40   2.0000      -0.593951       -16.1622
  41   2.0000      -0.579633       -15.7726
  42   2.0000      -0.566934       -15.4270
  43   2.0000      -0.545691       -14.8490
  44   2.0000      -0.532646       -14.4940
  45   2.0000      -0.521256       -14.1841
  46   2.0000      -0.515341       -14.0231
  47   2.0000      -0.513040       -13.9605
  48   2.0000      -0.509148       -13.8546
  49   2.0000      -0.503324       -13.6961
  50   2.0000      -0.490495       -13.3470
  51   2.0000      -0.471502       -12.8302
  52   2.0000      -0.470049       -12.7907
  53   2.0000      -0.463454       -12.6112
  54   2.0000      -0.454990       -12.3809
  55   2.0000      -0.451304       -12.2806
  56   2.0000      -0.444536       -12.0964
  57   2.0000      -0.439227       -11.9520
  58   2.0000      -0.434335       -11.8189
  59   2.0000      -0.422897       -11.5076
  60   2.0000      -0.417247       -11.3539
  61   2.0000      -0.412881       -11.2350
  62   2.0000      -0.405774       -11.0417
  63   2.0000      -0.339102        -9.2274
  64   2.0000      -0.331079        -9.0091
  65   2.0000      -0.324841        -8.8394
  66   2.0000      -0.301078        -8.1927
  67   0.0000       0.024148         0.6571
  68   0.0000       0.054493         1.4828
  69   0.0000       0.102686         2.7942
  70   0.0000       0.117334         3.1928
  71   0.0000       0.121637         3.3099

MULLIKEN ATOMIC CHARGES
-----------------------
   0 S :    0.073456
   1 C :   -0.107121
   2 C :   -0.061745
   3 C :    0.042728
   4 C :   -0.167586
   5 H :    0.019626
   6 C :   -0.020526
   7 H :    0.043234
   8 H :    0.031264
   9 C :   -0.042986
  10 H :    0.016262
  11 H :    0.039630
  12 C :   -0.073502
  13 H :    0.041347
  14 H :    0.039363
  15 H :    0.033556
  16 S :    0.129639
  17 C :   -0.092044
  18 C :   -0.051457
  19 C :   -0.011062
  20 C :   -0.192304
  21 H :    0.027024
  22 C :    0.107131
  23 H :    0.025853
  24 H :    0.015850
  25 C :   -0.051844
  26 H :    0.025263
  27 H :    0.004236
  28 C :   -0.020612
  29 H :    0.033289
  30 H :    0.027696
  31 H :    0.019920
  32 H :    0.042204
  33 H :    0.054221
Sum of atomic charges:   -0.0000000

LOEWDIN ATOMIC CHARGES
----------------------
   0 S :    0.342721
   1 C :   -0.155078
   2 C :   -0.064585
   3 C :   -0.063315
   4 C :   -0.181473
   5 H :    0.032947
   6 C :   -0.047232
   7 H :    0.038411
   8 H :    0.032494
   9 C :   -0.046983
  10 H :    0.018165
  11 H :    0.038871
  12 C :   -0.078759
  13 H :    0.030126
  14 H :    0.030451
  15 H :    0.030513
  16 S :    0.405235
  17 C :   -0.181402
  18 C :   -0.076071
  19 C :   -0.037613
  20 C :   -0.206243
  21 H :    0.034349
  22 C :   -0.017828
  23 H :    0.030567
  24 H :    0.027474
  25 C :   -0.036234
  26 H :    0.024412
  27 H :    0.011156
  28 C :   -0.055452
  29 H :    0.018335
  30 H :    0.028620
  31 H :    0.024197
  32 H :    0.022256
  33 H :    0.026967

  Mayer bond orders larger than 0.100000
B(  0-S ,  1-C ) :   1.0946 B(  0-S ,  4-C ) :   1.1366 B(  1-C ,  2-C ) :   1.6410
B(  1-C , 32-H ) :   0.9789 B(  2-C ,  3-C ) :   1.2021 B(  2-C ,  6-C ) :   1.0249
B(  3-C ,  4-C ) :   1.5918 B(  3-C ,  5-H ) :   0.9931 B(  4-C , 20-C ) :   1.0377
B(  6-C ,  7-H ) :   0.9448 B(  6-C ,  8-H ) :   0.9480 B(  6-C ,  9-C ) :   1.0473
B(  9-C , 10-H ) :   0.9582 B(  9-C , 11-H ) :   0.9514 B(  9-C , 12-C ) :   1.0564
B( 12-C , 13-H ) :   0.9762 B( 12-C , 14-H ) :   0.9747 B( 12-C , 15-H ) :   0.9759
B( 16-S , 17-C ) :   1.1642 B( 16-S , 20-C ) :   1.1483 B( 17-C , 18-C ) :   1.5884
B( 17-C , 20-C ) :   0.1147 B( 17-C , 33-H ) :   0.9678 B( 18-C , 19-C ) :   1.2781
B( 18-C , 21-H ) :   0.9811 B( 19-C , 20-C ) :   1.5507 B( 19-C , 22-C ) :   1.0296
B( 22-C , 23-H ) :   0.9226 B( 22-C , 24-H ) :   0.9320 B( 22-C , 25-C ) :   1.0789
B( 25-C , 26-H ) :   0.9546 B( 25-C , 27-H ) :   0.9485 B( 25-C , 28-C ) :   1.0866
B( 28-C , 29-H ) :   0.9740 B( 28-C , 30-H ) :   0.9736 B( 28-C , 31-H ) :   0.9747

Dispersion correction           -0.013672689
FINAL SINGLE POINT ENERGY     -1339.859504501044

DIPOLE MOMENT
-------------
                                X             Y             Z
Electronic contribution:     12.02090      20.75922     -13.41366
Nuclear contribution   :    -12.15659     -21.07111      13.82961
                        -----------------------------------------
Total Dipole Moment    :     -0.13570      -0.31189       0.41595
                        -----------------------------------------
Magnitude (a.u.)       :      0.53731
Magnitude (Debye)      :      1.36574

Rotational constants in cm-1:     0.017958     0.007719     0.006155
Rotational constants in MHz :   538.375281   231.408347   184.512964

                             ****ORCA TERMINATED NORMALLY****
TOTAL RUN TIME: 0 days 0 hours 0 minutes 20 seconds 763 msec
