                         Program Version 4.2.1 -  RELEASE  -
|  1> ! wB97X-D3 SP def2-SVP
|  2> %pal
|  3> nprocs 24
|  4> end
|  5>
|  6> * xyz 0 1
|  7> S 	 -82.7955 	 -3.12222 	 -59.0341
|  8> C 	 -81.1882 	 -2.5849 	 -58.4135
|  9> C 	 -80.1578 	 -3.1789 	 -59.1185
| 10> C 	 -80.6251 	 -4.11275 	 -60.0897
| 11> C 	 -81.9875 	 -4.20451 	 -60.1288
| 12> H 	 -80.0456 	 -4.76572 	 -60.6758
| 13> C 	 -78.6501 	 -2.97288 	 -58.8899
| 14> H 	 -77.9915 	 -3.66863 	 -59.5094
| 15> H 	 -78.259 	 -3.22766 	 -57.9164
| 16> C 	 -78.0645 	 -1.51732 	 -59.0648
| 17> H 	 -78.0233 	 -1.28357 	 -60.0673
| 18> H 	 -78.7892 	 -0.693761 	 -58.7131
| 19> C 	 -76.6886 	 -1.22015 	 -58.3565
| 20> H 	 -76.577 	 -0.152816 	 -58.349
| 21> H 	 -76.7818 	 -1.57897 	 -57.3004
| 22> H 	 -75.7751 	 -1.71874 	 -58.7371
| 23> S 	 -83.8472 	 -6.09035 	 -60.2285
| 24> C 	 -84.0603 	 -7.06533 	 -61.6684
| 25> C 	 -83.6598 	 -6.29888 	 -62.732
| 26> C 	 -82.7183 	 -5.26714 	 -62.4219
| 27> C 	 -82.7097 	 -5.02764 	 -61.0438
| 28> H 	 -84.0193 	 -6.58914 	 -63.7116
| 29> C 	 -82.0972 	 -4.42188 	 -63.4939
| 30> H 	 -81.2458 	 -4.94973 	 -63.8244
| 31> H 	 -81.7568 	 -3.51153 	 -62.9902
| 32> C 	 -82.9022 	 -3.81055 	 -64.6797
| 33> H 	 -83.3167 	 -4.62044 	 -65.3005
| 34> H 	 -82.2304 	 -3.38816 	 -65.3464
| 35> C 	 -83.9627 	 -2.79736 	 -64.296
| 36> H 	 -83.3195 	 -1.96839 	 -63.8586
| 37> H 	 -84.5452 	 -3.18409 	 -63.455
| 38> H 	 -84.5882 	 -2.38162 	 -65.0959
| 39> H 	 -81.0295 	 -1.81541 	 -57.6491
| 40> H 	 -84.8972 	 -7.82203 	 -61.7314
| 41> *
| 42>
| 43>                          ****END OF INPUT****

CARTESIAN COORDINATES (ANGSTROEM)
---------------------------------
  S    -82.795500   -3.122220  -59.034100
  C    -81.188200   -2.584900  -58.413500
  C    -80.157800   -3.178900  -59.118500
  C    -80.625100   -4.112750  -60.089700
  C    -81.987500   -4.204510  -60.128800
  H    -80.045600   -4.765720  -60.675800
  C    -78.650100   -2.972880  -58.889900
  H    -77.991500   -3.668630  -59.509400
  H    -78.259000   -3.227660  -57.916400
  C    -78.064500   -1.517320  -59.064800
  H    -78.023300   -1.283570  -60.067300
  H    -78.789200   -0.693761  -58.713100
  C    -76.688600   -1.220150  -58.356500
  H    -76.577000   -0.152816  -58.349000
  H    -76.781800   -1.578970  -57.300400
  H    -75.775100   -1.718740  -58.737100
  S    -83.847200   -6.090350  -60.228500
  C    -84.060300   -7.065330  -61.668400
  C    -83.659800   -6.298880  -62.732000
  C    -82.718300   -5.267140  -62.421900
  C    -82.709700   -5.027640  -61.043800
  H    -84.019300   -6.589140  -63.711600
  C    -82.097200   -4.421880  -63.493900
  H    -81.245800   -4.949730  -63.824400
  H    -81.756800   -3.511530  -62.990200
  C    -82.902200   -3.810550  -64.679700
  H    -83.316700   -4.620440  -65.300500
  H    -82.230400   -3.388160  -65.346400
  C    -83.962700   -2.797360  -64.296000
  H    -83.319500   -1.968390  -63.858600
  H    -84.545200   -3.184090  -63.455000
  H    -84.588200   -2.381620  -65.095900
  H    -81.029500   -1.815410  -57.649100
  H    -84.897200   -7.822030  -61.731400

 Total Charge           Charge          ....    0
 Multiplicity           Mult            ....    1
 Number of Electrons    NEL             ....  134
 Basis Dimension        Dim             ....  322

ORBITAL ENERGIES
----------------

  NO   OCC          E(Eh)            E(eV)
   0   2.0000     -88.970726     -2421.0165
   1   2.0000     -88.958793     -2420.6918
   2   2.0000     -10.327421      -281.0234
   3   2.0000     -10.325776      -280.9787
   4   2.0000     -10.320388      -280.8320
   5   2.0000     -10.317710      -280.7592
   6   2.0000     -10.307480      -280.4808
   7   2.0000     -10.307348      -280.4772
   8   2.0000     -10.301149      -280.3085
   9   2.0000     -10.294192      -280.1192
  10   2.0000     -10.291203      -280.0379
  11   2.0000     -10.289241      -279.9845
  12   2.0000     -10.288855      -279.9740
  13   2.0000     -10.286750      -279.9167
  14   2.0000     -10.284491      -279.8552
  15   2.0000     -10.281096      -279.7628
  16   2.0000      -8.084746      -219.9971
  17   2.0000      -8.074107      -219.7076
  18   2.0000      -6.043378      -164.4487
  19   2.0000      -6.039443      -164.3416
  20   2.0000      -6.035331      -164.2297
  21   2.0000      -6.032666      -164.1572
  22   2.0000      -6.028649      -164.0479
  23   2.0000      -6.024632      -163.9386
  24   2.0000      -1.010401       -27.4944
  25   2.0000      -0.983279       -26.7564
  26   2.0000      -0.910816       -24.7845
  27   2.0000      -0.902292       -24.5526
  28   2.0000      -0.870441       -23.6859
  29   2.0000      -0.852930       -23.2094
  30   2.0000      -0.845703       -23.0127
  31   2.0000      -0.813016       -22.1233
  32   2.0000      -0.782023       -21.2799
  33   2.0000      -0.772904       -21.0318
  34   2.0000      -0.710044       -19.3213
  35   2.0000      -0.704058       -19.1584
  36   2.0000      -0.694977       -18.9113
  37   2.0000      -0.658406       -17.9162
  38   2.0000      -0.642673       -17.4880
  39   2.0000      -0.620956       -16.8971
  40   2.0000      -0.593762       -16.1571
  41   2.0000      -0.566959       -15.4277
  42   2.0000      -0.562490       -15.3061
  43   2.0000      -0.548221       -14.9179
  44   2.0000      -0.541226       -14.7275
  45   2.0000      -0.521014       -14.1775
  46   2.0000      -0.518627       -14.1125
  47   2.0000      -0.511015       -13.9054
  48   2.0000      -0.502078       -13.6622
  49   2.0000      -0.497599       -13.5404
  50   2.0000      -0.492559       -13.4032
  51   2.0000      -0.475432       -12.9372
  52   2.0000      -0.471646       -12.8341
  53   2.0000      -0.461170       -12.5491
  54   2.0000      -0.457820       -12.4579
  55   2.0000      -0.447627       -12.1805
  56   2.0000      -0.443682       -12.0732
  57   2.0000      -0.441430       -12.0119
  58   2.0000      -0.436038       -11.8652
  59   2.0000      -0.428153       -11.6506
  60   2.0000      -0.421555       -11.4711
  61   2.0000      -0.412769       -11.2320
  62   2.0000      -0.406011       -11.0481
  63   2.0000      -0.346195        -9.4204
  64   2.0000      -0.335636        -9.1331
  65   2.0000      -0.323988        -8.8162
  66   2.0000      -0.292836        -7.9685
  67   0.0000       0.027417         0.7461
  68   0.0000       0.060401         1.6436
  69   0.0000       0.098807         2.6887
  70   0.0000       0.116938         3.1821
  71   0.0000       0.129707         3.5295

MULLIKEN ATOMIC CHARGES
-----------------------
   0 S :    0.112982
   1 C :   -0.130943
   2 C :   -0.025528
   3 C :    0.031586
   4 C :   -0.121421
   5 H :   -0.005527
   6 C :    0.054709
   7 H :    0.030015
   8 H :    0.019505
   9 C :   -0.100743
  10 H :    0.015187
  11 H :    0.032298
  12 C :   -0.071101
  13 H :    0.038603
  14 H :    0.033822
  15 H :    0.045312
  16 S :    0.084355
  17 C :   -0.106671
  18 C :   -0.047143
  19 C :   -0.030316
  20 C :   -0.175004
  21 H :    0.022742
  22 C :    0.063930
  23 H :    0.027733
  24 H :    0.019859
  25 C :   -0.039287
  26 H :    0.015556
  27 H :    0.011230
  28 C :   -0.065568
  29 H :    0.030210
  30 H :    0.045522
  31 H :    0.050519
  32 H :    0.053911
  33 H :    0.079667
Sum of atomic charges:   -0.0000000

LOEWDIN ATOMIC CHARGES
----------------------
   0 S :    0.390922
   1 C :   -0.181475
   2 C :   -0.056428
   3 C :   -0.056279
   4 C :   -0.197810
   5 H :    0.026372
   6 C :   -0.038174
   7 H :    0.037039
   8 H :    0.026662
   9 C :   -0.042044
  10 H :    0.009111
  11 H :    0.031274
  12 C :   -0.069680
  13 H :    0.026507
  14 H :    0.027751
  15 H :    0.027187
  16 S :    0.396206
  17 C :   -0.197705
  18 C :   -0.065578
  19 C :   -0.060609
  20 C :   -0.187702
  21 H :    0.029560
  22 C :   -0.029178
  23 H :    0.029451
  24 H :    0.032656
  25 C :   -0.037521
  26 H :    0.017165
  27 H :    0.017565
  28 C :   -0.068470
  29 H :    0.032905
  30 H :    0.028568
  31 H :    0.030194
  32 H :    0.031729
  33 H :    0.039828

  Mayer bond orders larger than 0.100000
B(  0-S ,  1-C ) :   1.1117 B(  0-S ,  4-C ) :   1.1430 B(  1-C ,  2-C ) :   1.6346
B(  1-C , 32-H ) :   0.9667 B(  2-C ,  3-C ) :   1.2152 B(  2-C ,  6-C ) :   1.0098
B(  3-C ,  4-C ) :   1.5917 B(  3-C ,  5-H ) :   1.0096 B(  4-C , 20-C ) :   1.0326
B(  6-C ,  7-H ) :   0.9483 B(  6-C ,  8-H ) :   0.9479 B(  6-C ,  9-C ) :   1.0364
B(  9-C , 10-H ) :   0.9582 B(  9-C , 11-H ) :   0.9621 B(  9-C , 12-C ) :   1.0700
B( 12-C , 13-H ) :   0.9764 B( 12-C , 14-H ) :   0.9744 B( 12-C , 15-H ) :   0.9779
B( 16-S , 17-C ) :   1.1455 B( 16-S , 20-C ) :   1.1481 B( 17-C , 18-C ) :   1.6211
B( 17-C , 20-C ) :   0.1095 B( 17-C , 33-H ) :   0.9563 B( 18-C , 19-C ) :   1.2186
B( 18-C , 21-H ) :   0.9852 B( 19-C , 20-C ) :   1.5780 B( 19-C , 22-C ) :   1.0437
B( 22-C , 23-H ) :   0.9201 B( 22-C , 24-H ) :   0.9400 B( 22-C , 25-C ) :   1.0814
B( 25-C , 26-H ) :   0.9473 B( 25-C , 27-H ) :   0.9506 B( 25-C , 28-C ) :   1.0664
B( 28-C , 29-H ) :   0.9721 B( 28-C , 30-H ) :   0.9788 B( 28-C , 31-H ) :   0.9739

Dispersion correction           -0.013813940
FINAL SINGLE POINT ENERGY     -1339.852093877155

DIPOLE MOMENT
-------------
                                X             Y             Z
Electronic contribution:    -18.34343     -13.95927      10.59787
Nuclear contribution   :     18.74030      14.19852     -11.08062
                        -----------------------------------------
Total Dipole Moment    :      0.39686       0.23925      -0.48275
                        -----------------------------------------
Magnitude (a.u.)       :      0.66917
Magnitude (Debye)      :      1.70089

Rotational constants in cm-1:     0.020969     0.007275     0.006281
Rotational constants in MHz :   628.638599   218.087121   188.292751

                             ****ORCA TERMINATED NORMALLY****
TOTAL RUN TIME: 0 days 0 hours 0 minutes 20 seconds 855 msec
