                         Program Version 4.2.1 -  RELEASE  -
|  1> ! wB97X-D3 SP def2-SVP
|  2> %pal
|  3> nprocs 24
|  4> end
|  5>
|  6> * xyz 0 1
|  7> S 	 -58.9358 	 13.2077 	 -109.208
|  8> C 	 -60.4464 	 12.8013 	 -108.415
|  9> C 	 -61.4808 	 13.5815 	 -108.849
| 10> C 	 -61.0358 	 14.7178 	 -109.578
| 11> C 	 -59.7021 	 14.7242 	 -109.775
| 12> H 	 -61.6633 	 15.5218 	 -109.792
| 13> C 	 -63.0237 	 13.3938 	 -108.613
| 14> H 	 -63.3819 	 14.4214 	 -108.491
| 15> H 	 -63.119 	 12.7622 	 -107.706
| 16> C 	 -63.728 	 12.6089 	 -109.769
| 17> H 	 -63.4632 	 13.0476 	 -110.777
| 18> H 	 -63.4443 	 11.5836 	 -109.832
| 19> C 	 -65.223 	 12.4771 	 -109.674
| 20> H 	 -65.6403 	 13.4474 	 -109.407
| 21> H 	 -65.6279 	 12.2387 	 -110.583
| 22> H 	 -65.4841 	 11.7567 	 -108.792
| 23> S 	 -58.226 	 15.5931 	 -111.96
| 24> C 	 -57.4281 	 17.1413 	 -111.954
| 25> C 	 -57.8417 	 17.9084 	 -110.92
| 26> C 	 -58.5435 	 17.1295 	 -109.942
| 27> C 	 -58.9153 	 15.8184 	 -110.314
| 28> H 	 -57.5896 	 18.949 	 -110.834
| 29> C 	 -58.9764 	 17.7206 	 -108.671
| 30> H 	 -58.0654 	 17.9602 	 -108.109
| 31> H 	 -59.2946 	 16.8769 	 -108.099
| 32> C 	 -59.8935 	 18.9907 	 -108.726
| 33> H 	 -60.7938 	 18.7196 	 -109.296
| 34> H 	 -59.3794 	 19.8938 	 -109.151
| 35> C 	 -60.3124 	 19.4395 	 -107.312
| 36> H 	 -59.4597 	 19.7336 	 -106.735
| 37> H 	 -60.9777 	 18.798 	 -106.642
| 38> H 	 -60.9701 	 20.2247 	 -107.323
| 39> H 	 -60.6585 	 11.9353 	 -107.928
| 40> H 	 -56.9006 	 17.6113 	 -112.771
| 41> *
| 42>
| 43>                          ****END OF INPUT****

CARTESIAN COORDINATES (ANGSTROEM)
---------------------------------
  S    -58.935800   13.207700  -109.208000
  C    -60.446400   12.801300  -108.415000
  C    -61.480800   13.581500  -108.849000
  C    -61.035800   14.717800  -109.578000
  C    -59.702100   14.724200  -109.775000
  H    -61.663300   15.521800  -109.792000
  C    -63.023700   13.393800  -108.613000
  H    -63.381900   14.421400  -108.491000
  H    -63.119000   12.762200  -107.706000
  C    -63.728000   12.608900  -109.769000
  H    -63.463200   13.047600  -110.777000
  H    -63.444300   11.583600  -109.832000
  C    -65.223000   12.477100  -109.674000
  H    -65.640300   13.447400  -109.407000
  H    -65.627900   12.238700  -110.583000
  H    -65.484100   11.756700  -108.792000
  S    -58.226000   15.593100  -111.960000
  C    -57.428100   17.141300  -111.954000
  C    -57.841700   17.908400  -110.920000
  C    -58.543500   17.129500  -109.942000
  C    -58.915300   15.818400  -110.314000
  H    -57.589600   18.949000  -110.834000
  C    -58.976400   17.720600  -108.671000
  H    -58.065400   17.960200  -108.109000
  H    -59.294600   16.876900  -108.099000
  C    -59.893500   18.990700  -108.726000
  H    -60.793800   18.719600  -109.296000
  H    -59.379400   19.893800  -109.151000
  C    -60.312400   19.439500  -107.312000
  H    -59.459700   19.733600  -106.735000
  H    -60.977700   18.798000  -106.642000
  H    -60.970100   20.224700  -107.323000
  H    -60.658500   11.935300  -107.928000
  H    -56.900600   17.611300  -112.771000

 Total Charge           Charge          ....    0
 Multiplicity           Mult            ....    1
 Number of Electrons    NEL             ....  134
 Basis Dimension        Dim             ....  322

ORBITAL ENERGIES
----------------

  NO   OCC          E(Eh)            E(eV)
   0   2.0000     -88.966921     -2420.9130
   1   2.0000     -88.956938     -2420.6413
   2   2.0000     -10.330646      -281.1112
   3   2.0000     -10.327818      -281.0342
   4   2.0000     -10.312911      -280.6286
   5   2.0000     -10.307816      -280.4899
   6   2.0000     -10.304953      -280.4120
   7   2.0000     -10.301465      -280.3171
   8   2.0000     -10.300004      -280.2773
   9   2.0000     -10.298872      -280.2466
  10   2.0000     -10.289267      -279.9852
  11   2.0000     -10.288413      -279.9620
  12   2.0000     -10.287482      -279.9366
  13   2.0000     -10.281460      -279.7727
  14   2.0000     -10.278106      -279.6815
  15   2.0000     -10.273682      -279.5611
  16   2.0000      -8.081133      -219.8988
  17   2.0000      -8.071539      -219.6377
  18   2.0000      -6.039703      -164.3487
  19   2.0000      -6.035983      -164.2474
  20   2.0000      -6.031562      -164.1271
  21   2.0000      -6.030133      -164.0883
  22   2.0000      -6.026068      -163.9776
  23   2.0000      -6.022202      -163.8725
  24   2.0000      -1.004623       -27.3372
  25   2.0000      -0.983532       -26.7633
  26   2.0000      -0.907969       -24.7071
  27   2.0000      -0.905152       -24.6304
  28   2.0000      -0.874114       -23.7859
  29   2.0000      -0.854272       -23.2459
  30   2.0000      -0.848616       -23.0920
  31   2.0000      -0.820469       -22.3261
  32   2.0000      -0.781679       -21.2706
  33   2.0000      -0.768230       -20.9046
  34   2.0000      -0.712513       -19.3885
  35   2.0000      -0.702318       -19.1110
  36   2.0000      -0.695316       -18.9205
  37   2.0000      -0.656125       -17.8541
  38   2.0000      -0.648122       -17.6363
  39   2.0000      -0.624231       -16.9862
  40   2.0000      -0.591346       -16.0913
  41   2.0000      -0.570261       -15.5176
  42   2.0000      -0.566244       -15.4083
  43   2.0000      -0.561008       -15.2658
  44   2.0000      -0.534394       -14.5416
  45   2.0000      -0.525954       -14.3119
  46   2.0000      -0.519359       -14.1325
  47   2.0000      -0.513654       -13.9772
  48   2.0000      -0.510882       -13.9018
  49   2.0000      -0.500831       -13.6283
  50   2.0000      -0.490134       -13.3372
  51   2.0000      -0.475549       -12.9403
  52   2.0000      -0.472438       -12.8557
  53   2.0000      -0.463825       -12.6213
  54   2.0000      -0.456826       -12.4309
  55   2.0000      -0.455163       -12.3856
  56   2.0000      -0.439933       -11.9712
  57   2.0000      -0.433262       -11.7897
  58   2.0000      -0.430953       -11.7268
  59   2.0000      -0.422021       -11.4838
  60   2.0000      -0.419870       -11.4253
  61   2.0000      -0.418286       -11.3821
  62   2.0000      -0.409574       -11.1451
  63   2.0000      -0.339708        -9.2439
  64   2.0000      -0.329952        -8.9784
  65   2.0000      -0.322420        -8.7735
  66   2.0000      -0.302223        -8.2239
  67   0.0000       0.036727         0.9994
  68   0.0000       0.055342         1.5059
  69   0.0000       0.111081         3.0227
  70   0.0000       0.121880         3.3165
  71   0.0000       0.126498         3.4422

MULLIKEN ATOMIC CHARGES
-----------------------
   0 S :    0.117929
   1 C :   -0.060971
   2 C :   -0.113888
   3 C :    0.076178
   4 C :   -0.154063
   5 H :   -0.008757
   6 C :    0.070032
   7 H :    0.032501
   8 H :    0.027990
   9 C :   -0.092923
  10 H :    0.032732
  11 H :    0.023381
  12 C :   -0.014377
  13 H :    0.013486
  14 H :    0.022868
  15 H :    0.041163
  16 S :    0.076883
  17 C :   -0.064454
  18 C :   -0.033600
  19 C :   -0.051350
  20 C :   -0.156210
  21 H :    0.016661
  22 C :    0.069828
  23 H :    0.019759
  24 H :    0.013873
  25 C :   -0.067188
  26 H :    0.037828
  27 H :    0.045429
  28 C :   -0.036650
  29 H :    0.026900
  30 H :    0.028947
  31 H :    0.004371
  32 H :    0.001652
  33 H :    0.054041
Sum of atomic charges:    0.0000000

LOEWDIN ATOMIC CHARGES
----------------------
   0 S :    0.387951
   1 C :   -0.175513
   2 C :   -0.059326
   3 C :   -0.043550
   4 C :   -0.184152
   5 H :    0.024805
   6 C :   -0.023954
   7 H :    0.030670
   8 H :    0.032865
   9 C :   -0.047383
  10 H :    0.027974
  11 H :    0.021975
  12 C :   -0.060225
  13 H :    0.019612
  14 H :    0.015442
  15 H :    0.035683
  16 S :    0.378870
  17 C :   -0.177784
  18 C :   -0.075002
  19 C :   -0.051714
  20 C :   -0.192256
  21 H :    0.030900
  22 C :   -0.043585
  23 H :    0.033563
  24 H :    0.030021
  25 C :   -0.031521
  26 H :    0.026388
  27 H :    0.033874
  28 C :   -0.071695
  29 H :    0.022240
  30 H :    0.033545
  31 H :    0.012775
  32 H :    0.006975
  33 H :    0.031530

  Mayer bond orders larger than 0.100000
B(  0-S ,  1-C ) :   1.1256 B(  0-S ,  4-C ) :   1.1206 B(  1-C ,  2-C ) :   1.6663
B(  1-C , 32-H ) :   0.9688 B(  2-C ,  3-C ) :   1.2049 B(  2-C ,  6-C ) :   1.0160
B(  3-C ,  4-C ) :   1.6130 B(  3-C ,  5-H ) :   1.0064 B(  4-C , 20-C ) :   1.0278
B(  6-C ,  7-H ) :   0.9424 B(  6-C ,  8-H ) :   0.9407 B(  6-C ,  9-C ) :   1.0620
B(  9-C , 10-H ) :   0.9565 B(  9-C , 11-H ) :   0.9567 B(  9-C , 12-C ) :   1.0875
B( 12-C , 13-H ) :   0.9727 B( 12-C , 14-H ) :   0.9716 B( 12-C , 15-H ) :   0.9739
B( 16-S , 17-C ) :   1.1584 B( 16-S , 20-C ) :   1.1124 B( 17-C , 18-C ) :   1.6249
B( 17-C , 33-H ) :   0.9607 B( 18-C , 19-C ) :   1.2246 B( 18-C , 21-H ) :   0.9920
B( 19-C , 20-C ) :   1.5995 B( 19-C , 22-C ) :   1.0725 B( 22-C , 23-H ) :   0.9188
B( 22-C , 24-H ) :   0.9343 B( 22-C , 25-C ) :   1.0479 B( 25-C , 26-H ) :   0.9598
B( 25-C , 27-H ) :   0.9495 B( 25-C , 28-C ) :   1.0837 B( 28-C , 29-H ) :   0.9747
B( 28-C , 30-H ) :   0.9726 B( 28-C , 31-H ) :   0.9708

Dispersion correction           -0.013695521
FINAL SINGLE POINT ENERGY     -1339.845338084009

DIPOLE MOMENT
-------------
                                X             Y             Z
Electronic contribution:     22.86596      -8.85391     -11.69122
Nuclear contribution   :    -23.46551       9.27115      11.94062
                        -----------------------------------------
Total Dipole Moment    :     -0.59955       0.41724       0.24939
                        -----------------------------------------
Magnitude (a.u.)       :      0.77185
Magnitude (Debye)      :      1.96188

Rotational constants in cm-1:     0.017337     0.007861     0.006493
Rotational constants in MHz :   519.754626   235.669049   194.657313

                             ****ORCA TERMINATED NORMALLY****
TOTAL RUN TIME: 0 days 0 hours 0 minutes 20 seconds 824 msec
