                         Program Version 4.2.1 -  RELEASE  -
|  1> ! wB97X-D3 SP def2-SVP
|  2> %pal
|  3> nprocs 24
|  4> end
|  5>
|  6> * xyz 0 1
|  7> S 	 1.62923 	 -16.3646 	 -105.791
|  8> C 	 2.44592 	 -17.7992 	 -106.414
|  9> C 	 2.02728 	 -18.9781 	 -105.717
| 10> C 	 1.38516 	 -18.6945 	 -104.519
| 11> C 	 1.23623 	 -17.3355 	 -104.329
| 12> H 	 1.14115 	 -19.4737 	 -103.714
| 13> C 	 2.18502 	 -20.3554 	 -106.339
| 14> H 	 2.62548 	 -20.3083 	 -107.37
| 15> H 	 1.21591 	 -20.713 	 -106.467
| 16> C 	 3.06008 	 -21.2888 	 -105.511
| 17> H 	 3.98961 	 -20.8002 	 -105.203
| 18> H 	 2.55239 	 -21.6387 	 -104.51
| 19> C 	 3.52899 	 -22.5709 	 -106.254
| 20> H 	 3.96685 	 -22.4682 	 -107.218
| 21> H 	 4.34778 	 -22.9625 	 -105.717
| 22> H 	 2.7097 	 -23.2263 	 -106.423
| 23> S 	 1.94632 	 -16.0882 	 -101.963
| 24> C 	 0.754696 	 -15.5636 	 -100.782
| 25> C 	 -0.517491 	 -15.6408 	 -101.366
| 26> C 	 -0.518044 	 -16.3701 	 -102.569
| 27> C 	 0.749597 	 -16.6938 	 -103.066
| 28> H 	 -1.36948 	 -15.2276 	 -100.911
| 29> C 	 -1.77076 	 -16.6251 	 -103.391
| 30> H 	 -1.45087 	 -16.8766 	 -104.387
| 31> H 	 -2.11125 	 -15.6432 	 -103.527
| 32> C 	 -2.92635 	 -17.3574 	 -102.746
| 33> H 	 -3.71253 	 -17.3931 	 -103.561
| 34> H 	 -3.3771 	 -16.7297 	 -101.988
| 35> C 	 -2.60187 	 -18.838 	 -102.299
| 36> H 	 -1.60594 	 -18.949 	 -101.808
| 37> H 	 -2.5894 	 -19.5008 	 -103.196
| 38> H 	 -3.41101 	 -19.2902 	 -101.719
| 39> H 	 3.04583 	 -17.7366 	 -107.276
| 40> H 	 0.897415 	 -15.0701 	 -99.8353
| 41> *
| 42>
| 43>                          ****END OF INPUT****

CARTESIAN COORDINATES (ANGSTROEM)
---------------------------------
  S      1.629230  -16.364600  -105.791000
  C      2.445920  -17.799200  -106.414000
  C      2.027280  -18.978100  -105.717000
  C      1.385160  -18.694500  -104.519000
  C      1.236230  -17.335500  -104.329000
  H      1.141150  -19.473700  -103.714000
  C      2.185020  -20.355400  -106.339000
  H      2.625480  -20.308300  -107.370000
  H      1.215910  -20.713000  -106.467000
  C      3.060080  -21.288800  -105.511000
  H      3.989610  -20.800200  -105.203000
  H      2.552390  -21.638700  -104.510000
  C      3.528990  -22.570900  -106.254000
  H      3.966850  -22.468200  -107.218000
  H      4.347780  -22.962500  -105.717000
  H      2.709700  -23.226300  -106.423000
  S      1.946320  -16.088200  -101.963000
  C      0.754696  -15.563600  -100.782000
  C     -0.517491  -15.640800  -101.366000
  C     -0.518044  -16.370100  -102.569000
  C      0.749597  -16.693800  -103.066000
  H     -1.369480  -15.227600  -100.911000
  C     -1.770760  -16.625100  -103.391000
  H     -1.450870  -16.876600  -104.387000
  H     -2.111250  -15.643200  -103.527000
  C     -2.926350  -17.357400  -102.746000
  H     -3.712530  -17.393100  -103.561000
  H     -3.377100  -16.729700  -101.988000
  C     -2.601870  -18.838000  -102.299000
  H     -1.605940  -18.949000  -101.808000
  H     -2.589400  -19.500800  -103.196000
  H     -3.411010  -19.290200  -101.719000
  H      3.045830  -17.736600  -107.276000
  H      0.897415  -15.070100  -99.835300

 Total Charge           Charge          ....    0
 Multiplicity           Mult            ....    1
 Number of Electrons    NEL             ....  134
 Basis Dimension        Dim             ....  322

ORBITAL ENERGIES
----------------

  NO   OCC          E(Eh)            E(eV)
   0   2.0000     -88.969437     -2420.9815
   1   2.0000     -88.962178     -2420.7839
   2   2.0000     -10.334151      -281.2065
   3   2.0000     -10.322049      -280.8772
   4   2.0000     -10.317750      -280.7603
   5   2.0000     -10.316304      -280.7209
   6   2.0000     -10.303642      -280.3763
   7   2.0000     -10.301039      -280.3055
   8   2.0000     -10.297119      -280.1989
   9   2.0000     -10.294953      -280.1399
  10   2.0000     -10.292505      -280.0733
  11   2.0000     -10.291644      -280.0499
  12   2.0000     -10.288119      -279.9539
  13   2.0000     -10.281990      -279.7872
  14   2.0000     -10.278411      -279.6898
  15   2.0000     -10.269430      -279.4454
  16   2.0000      -8.083111      -219.9526
  17   2.0000      -8.076769      -219.7801
  18   2.0000      -6.041440      -164.3960
  19   2.0000      -6.038096      -164.3050
  20   2.0000      -6.035273      -164.2281
  21   2.0000      -6.033809      -164.1883
  22   2.0000      -6.031117      -164.1150
  23   2.0000      -6.027705      -164.0222
  24   2.0000      -1.000572       -27.2270
  25   2.0000      -0.981210       -26.7001
  26   2.0000      -0.908451       -24.7202
  27   2.0000      -0.905027       -24.6270
  28   2.0000      -0.861054       -23.4305
  29   2.0000      -0.851750       -23.1773
  30   2.0000      -0.839416       -22.8417
  31   2.0000      -0.815291       -22.1852
  32   2.0000      -0.782511       -21.2932
  33   2.0000      -0.769615       -20.9423
  34   2.0000      -0.704144       -19.1607
  35   2.0000      -0.698021       -18.9941
  36   2.0000      -0.692379       -18.8406
  37   2.0000      -0.658237       -17.9115
  38   2.0000      -0.639888       -17.4123
  39   2.0000      -0.619734       -16.8638
  40   2.0000      -0.588037       -16.0013
  41   2.0000      -0.570478       -15.5235
  42   2.0000      -0.556182       -15.1345
  43   2.0000      -0.548506       -14.9256
  44   2.0000      -0.539808       -14.6889
  45   2.0000      -0.533966       -14.5300
  46   2.0000      -0.515490       -14.0272
  47   2.0000      -0.511661       -13.9230
  48   2.0000      -0.500948       -13.6315
  49   2.0000      -0.490459       -13.3461
  50   2.0000      -0.486623       -13.2417
  51   2.0000      -0.476455       -12.9650
  52   2.0000      -0.467637       -12.7251
  53   2.0000      -0.464204       -12.6316
  54   2.0000      -0.458459       -12.4753
  55   2.0000      -0.445174       -12.1138
  56   2.0000      -0.443424       -12.0662
  57   2.0000      -0.440890       -11.9972
  58   2.0000      -0.434899       -11.8342
  59   2.0000      -0.429091       -11.6762
  60   2.0000      -0.418314       -11.3829
  61   2.0000      -0.410322       -11.1654
  62   2.0000      -0.405182       -11.0256
  63   2.0000      -0.340394        -9.2626
  64   2.0000      -0.326791        -8.8924
  65   2.0000      -0.310326        -8.4444
  66   2.0000      -0.303203        -8.2506
  67   0.0000       0.034516         0.9392
  68   0.0000       0.050450         1.3728
  69   0.0000       0.096705         2.6315
  70   0.0000       0.121702         3.3117
  71   0.0000       0.137477         3.7409

MULLIKEN ATOMIC CHARGES
-----------------------
   0 S :    0.114962
   1 C :   -0.117611
   2 C :   -0.080819
   3 C :    0.032023
   4 C :   -0.181266
   5 H :    0.054609
   6 C :    0.107837
   7 H :    0.022004
   8 H :    0.024994
   9 C :   -0.134452
  10 H :    0.034584
  11 H :    0.043658
  12 C :   -0.012935
  13 H :    0.012334
  14 H :    0.024381
  15 H :    0.026207
  16 S :    0.115057
  17 C :   -0.092398
  18 C :   -0.026342
  19 C :   -0.043293
  20 C :   -0.185788
  21 H :    0.001485
  22 C :    0.109295
  23 H :    0.011409
  24 H :    0.008748
  25 C :   -0.072297
  26 H :    0.034340
  27 H :    0.027086
  28 C :   -0.068105
  29 H :    0.054963
  30 H :    0.027386
  31 H :    0.035247
  32 H :    0.036603
  33 H :    0.056098
Sum of atomic charges:    0.0000000

LOEWDIN ATOMIC CHARGES
----------------------
   0 S :    0.382810
   1 C :   -0.182065
   2 C :   -0.057840
   3 C :   -0.061371
   4 C :   -0.182568
   5 H :    0.053197
   6 C :   -0.029274
   7 H :    0.036399
   8 H :    0.025998
   9 C :   -0.046223
  10 H :    0.024976
  11 H :    0.032652
  12 C :   -0.064122
  13 H :    0.019974
  14 H :    0.024579
  15 H :    0.020691
  16 S :    0.418475
  17 C :   -0.183763
  18 C :   -0.068805
  19 C :   -0.056982
  20 C :   -0.218853
  21 H :    0.022394
  22 C :   -0.033415
  23 H :    0.025847
  24 H :    0.030998
  25 C :   -0.040801
  26 H :    0.033839
  27 H :    0.020312
  28 C :   -0.076055
  29 H :    0.030646
  30 H :    0.028659
  31 H :    0.025587
  32 H :    0.013794
  33 H :    0.030308

  Mayer bond orders larger than 0.100000
B(  0-S ,  1-C ) :   1.1473 B(  0-S ,  4-C ) :   1.1453 B(  1-C ,  2-C ) :   1.5701
B(  1-C ,  4-C ) :   0.1102 B(  1-C , 32-H ) :   0.9791 B(  2-C ,  3-C ) :   1.2577
B(  2-C ,  6-C ) :   1.0268 B(  3-C ,  4-C ) :   1.5853 B(  3-C ,  5-H ) :   0.9777
B(  4-C , 20-C ) :   1.0027 B(  6-C ,  7-H ) :   0.9430 B(  6-C ,  8-H ) :   0.9343
B(  6-C ,  9-C ) :   1.0537 B(  9-C , 10-H ) :   0.9632 B(  9-C , 11-H ) :   0.9512
B(  9-C , 12-C ) :   1.0856 B( 12-C , 13-H ) :   0.9716 B( 12-C , 14-H ) :   0.9748
B( 12-C , 15-H ) :   0.9751 B( 16-S , 17-C ) :   1.1752 B( 16-S , 20-C ) :   1.1545
B( 17-C , 18-C ) :   1.5671 B( 17-C , 20-C ) :   0.1084 B( 17-C , 33-H ) :   0.9694
B( 18-C , 19-C ) :   1.2754 B( 18-C , 21-H ) :   0.9947 B( 19-C , 20-C ) :   1.5675
B( 19-C , 22-C ) :   1.0320 B( 22-C , 23-H ) :   0.9326 B( 22-C , 24-H ) :   0.9226
B( 22-C , 25-C ) :   1.0773 B( 25-C , 26-H ) :   0.9541 B( 25-C , 27-H ) :   0.9563
B( 25-C , 28-C ) :   1.0604 B( 28-C , 29-H ) :   0.9776 B( 28-C , 30-H ) :   0.9752
B( 28-C , 31-H ) :   0.9766

Dispersion correction           -0.014325572
FINAL SINGLE POINT ENERGY     -1339.851593327623

DIPOLE MOMENT
-------------
                                X             Y             Z
Electronic contribution:      8.81149      23.10441       3.38961
Nuclear contribution   :     -9.12802     -23.45675      -3.56416
                        -----------------------------------------
Total Dipole Moment    :     -0.31653      -0.35234      -0.17456
                        -----------------------------------------
Magnitude (a.u.)       :      0.50478
Magnitude (Debye)      :      1.28305

Rotational constants in cm-1:     0.019107     0.007664     0.006850
Rotational constants in MHz :   572.821144   229.759748   205.357620

                             ****ORCA TERMINATED NORMALLY****
TOTAL RUN TIME: 0 days 0 hours 0 minutes 22 seconds 144 msec
