                         Program Version 4.2.1 -  RELEASE  -
|  1> ! wB97X-D3 SP def2-SVP
|  2> %pal
|  3> nprocs 24
|  4> end
|  5>
|  6> * xyz 0 1
|  7> S 	 -114.267 	 21.9917 	 -111.795
|  8> C 	 -115.397 	 22.8864 	 -112.822
|  9> C 	 -116.419 	 22.2144 	 -113.341
| 10> C 	 -116.26 	 20.8468 	 -112.975
| 11> C 	 -115.149 	 20.5887 	 -112.174
| 12> H 	 -116.879 	 20.0022 	 -113.275
| 13> C 	 -117.447 	 22.8868 	 -114.201
| 14> H 	 -117.367 	 22.5954 	 -115.225
| 15> H 	 -117.306 	 23.954 	 -114.201
| 16> C 	 -118.904 	 22.7384 	 -113.681
| 17> H 	 -119.307 	 21.7577 	 -113.812
| 18> H 	 -119.054 	 22.9997 	 -112.626
| 19> C 	 -119.84 	 23.5464 	 -114.48
| 20> H 	 -119.419 	 24.5702 	 -114.541
| 21> H 	 -119.993 	 23.1599 	 -115.485
| 22> H 	 -120.804 	 23.609 	 -114.047
| 23> S 	 -115.559 	 19.0556 	 -109.942
| 24> C 	 -114.913 	 17.4644 	 -109.911
| 25> C 	 -114.306 	 17.0871 	 -111.111
| 26> C 	 -114.297 	 18.1327 	 -112.071
| 27> C 	 -114.848 	 19.3067 	 -111.578
| 28> H 	 -114.019 	 16.0468 	 -111.393
| 29> C 	 -113.625 	 17.9322 	 -113.451
| 30> H 	 -114.16 	 18.4755 	 -114.262
| 31> H 	 -113.702 	 16.8204 	 -113.688
| 32> C 	 -112.065 	 18.266 	 -113.507
| 33> H 	 -111.764 	 17.9566 	 -114.578
| 34> H 	 -111.399 	 17.6366 	 -112.887
| 35> C 	 -111.801 	 19.7478 	 -113.185
| 36> H 	 -112.323 	 20.4165 	 -113.958
| 37> H 	 -110.715 	 20.0425 	 -113.151
| 38> H 	 -112.138 	 20.1089 	 -112.204
| 39> H 	 -115.358 	 23.9872 	 -112.971
| 40> H 	 -115.11 	 16.7845 	 -109.019
| 41> *
| 42>
| 43>                          ****END OF INPUT****

CARTESIAN COORDINATES (ANGSTROEM)
---------------------------------
  S    -114.267000   21.991700  -111.795000
  C    -115.397000   22.886400  -112.822000
  C    -116.419000   22.214400  -113.341000
  C    -116.260000   20.846800  -112.975000
  C    -115.149000   20.588700  -112.174000
  H    -116.879000   20.002200  -113.275000
  C    -117.447000   22.886800  -114.201000
  H    -117.367000   22.595400  -115.225000
  H    -117.306000   23.954000  -114.201000
  C    -118.904000   22.738400  -113.681000
  H    -119.307000   21.757700  -113.812000
  H    -119.054000   22.999700  -112.626000
  C    -119.840000   23.546400  -114.480000
  H    -119.419000   24.570200  -114.541000
  H    -119.993000   23.159900  -115.485000
  H    -120.804000   23.609000  -114.047000
  S    -115.559000   19.055600  -109.942000
  C    -114.913000   17.464400  -109.911000
  C    -114.306000   17.087100  -111.111000
  C    -114.297000   18.132700  -112.071000
  C    -114.848000   19.306700  -111.578000
  H    -114.019000   16.046800  -111.393000
  C    -113.625000   17.932200  -113.451000
  H    -114.160000   18.475500  -114.262000
  H    -113.702000   16.820400  -113.688000
  C    -112.065000   18.266000  -113.507000
  H    -111.764000   17.956600  -114.578000
  H    -111.399000   17.636600  -112.887000
  C    -111.801000   19.747800  -113.185000
  H    -112.323000   20.416500  -113.958000
  H    -110.715000   20.042500  -113.151000
  H    -112.138000   20.108900  -112.204000
  H    -115.358000   23.987200  -112.971000
  H    -115.110000   16.784500  -109.019000

 Total Charge           Charge          ....    0
 Multiplicity           Mult            ....    1
 Number of Electrons    NEL             ....  134
 Basis Dimension        Dim             ....  322

ORBITAL ENERGIES
----------------

  NO   OCC          E(Eh)            E(eV)
   0   2.0000     -88.966585     -2420.9039
   1   2.0000     -88.963792     -2420.8279
   2   2.0000     -10.323173      -280.9078
   3   2.0000     -10.321996      -280.8758
   4   2.0000     -10.320425      -280.8330
   5   2.0000     -10.307745      -280.4880
   6   2.0000     -10.305196      -280.4186
   7   2.0000     -10.304060      -280.3877
   8   2.0000     -10.299188      -280.2552
   9   2.0000     -10.295659      -280.1591
  10   2.0000     -10.293894      -280.1111
  11   2.0000     -10.293437      -280.0987
  12   2.0000     -10.293007      -280.0870
  13   2.0000     -10.280494      -279.7465
  14   2.0000     -10.280187      -279.7381
  15   2.0000     -10.271210      -279.4938
  16   2.0000      -8.081748      -219.9155
  17   2.0000      -8.078616      -219.8303
  18   2.0000      -6.040037      -164.3578
  19   2.0000      -6.036971      -164.2743
  20   2.0000      -6.036397      -164.2587
  21   2.0000      -6.033178      -164.1711
  22   2.0000      -6.032499      -164.1527
  23   2.0000      -6.029461      -164.0700
  24   2.0000      -1.009168       -27.4609
  25   2.0000      -0.983946       -26.7745
  26   2.0000      -0.921560       -25.0769
  27   2.0000      -0.894467       -24.3397
  28   2.0000      -0.876383       -23.8476
  29   2.0000      -0.847854       -23.0713
  30   2.0000      -0.842882       -22.9360
  31   2.0000      -0.807388       -21.9702
  32   2.0000      -0.783319       -21.3152
  33   2.0000      -0.767947       -20.8969
  34   2.0000      -0.704855       -19.1801
  35   2.0000      -0.693317       -18.8661
  36   2.0000      -0.682832       -18.5808
  37   2.0000      -0.656302       -17.8589
  38   2.0000      -0.642312       -17.4782
  39   2.0000      -0.616076       -16.7643
  40   2.0000      -0.592250       -16.1159
  41   2.0000      -0.577744       -15.7212
  42   2.0000      -0.562748       -15.3131
  43   2.0000      -0.538484       -14.6529
  44   2.0000      -0.532935       -14.5019
  45   2.0000      -0.524730       -14.2786
  46   2.0000      -0.515966       -14.0401
  47   2.0000      -0.505552       -13.7568
  48   2.0000      -0.501191       -13.6381
  49   2.0000      -0.493599       -13.4315
  50   2.0000      -0.485802       -13.2193
  51   2.0000      -0.473303       -12.8792
  52   2.0000      -0.462950       -12.5975
  53   2.0000      -0.459050       -12.4914
  54   2.0000      -0.456483       -12.4215
  55   2.0000      -0.452193       -12.3048
  56   2.0000      -0.448061       -12.1924
  57   2.0000      -0.437930       -11.9167
  58   2.0000      -0.431541       -11.7428
  59   2.0000      -0.425799       -11.5866
  60   2.0000      -0.422374       -11.4934
  61   2.0000      -0.418316       -11.3829
  62   2.0000      -0.406162       -11.0522
  63   2.0000      -0.338403        -9.2084
  64   2.0000      -0.329246        -8.9592
  65   2.0000      -0.320216        -8.7135
  66   2.0000      -0.306385        -8.3372
  67   0.0000       0.046591         1.2678
  68   0.0000       0.055271         1.5040
  69   0.0000       0.109663         2.9841
  70   0.0000       0.115593         3.1454
  71   0.0000       0.131772         3.5857

MULLIKEN ATOMIC CHARGES
-----------------------
   0 S :    0.127340
   1 C :   -0.140428
   2 C :   -0.037044
   3 C :    0.038083
   4 C :   -0.190641
   5 H :    0.009089
   6 C :    0.099291
   7 H :    0.032012
   8 H :    0.001923
   9 C :   -0.081423
  10 H :    0.020519
  11 H :    0.036316
  12 C :   -0.034428
  13 H :    0.018036
  14 H :    0.025124
  15 H :    0.025325
  16 S :    0.114578
  17 C :   -0.115670
  18 C :   -0.042625
  19 C :   -0.003797
  20 C :   -0.201375
  21 H :    0.031230
  22 C :    0.030437
  23 H :    0.044313
  24 H :    0.030691
  25 C :   -0.069223
  26 H :    0.040665
  27 H :    0.034539
  28 C :   -0.086398
  29 H :    0.041986
  30 H :    0.037364
  31 H :    0.036308
  32 H :    0.044423
  33 H :    0.083462
Sum of atomic charges:   -0.0000000

LOEWDIN ATOMIC CHARGES
----------------------
   0 S :    0.426938
   1 C :   -0.187778
   2 C :   -0.068968
   3 C :   -0.053391
   4 C :   -0.222220
   5 H :    0.030863
   6 C :   -0.017720
   7 H :    0.031726
   8 H :    0.027476
   9 C :   -0.041775
  10 H :    0.020112
  11 H :    0.029413
  12 C :   -0.061682
  13 H :    0.022305
  14 H :    0.023114
  15 H :    0.022031
  16 S :    0.403737
  17 C :   -0.201798
  18 C :   -0.083443
  19 C :   -0.054587
  20 C :   -0.195157
  21 H :    0.037692
  22 C :   -0.032567
  23 H :    0.034551
  24 H :    0.035623
  25 C :   -0.044545
  26 H :    0.032412
  27 H :    0.024272
  28 C :   -0.084307
  29 H :    0.030938
  30 H :    0.029603
  31 H :    0.016901
  32 H :    0.028701
  33 H :    0.041531

  Mayer bond orders larger than 0.100000
B(  0-S ,  1-C ) :   1.1288 B(  0-S ,  4-C ) :   1.1593 B(  1-C ,  2-C ) :   1.6686
B(  1-C , 32-H ) :   0.9526 B(  2-C ,  3-C ) :   1.2027 B(  2-C ,  6-C ) :   1.0255
B(  3-C ,  4-C ) :   1.5996 B(  3-C ,  5-H ) :   0.9999 B(  4-C , 20-C ) :   1.0188
B(  6-C ,  7-H ) :   0.9325 B(  6-C ,  8-H ) :   0.9378 B(  6-C ,  9-C ) :   1.0586
B(  9-C , 10-H ) :   0.9496 B(  9-C , 11-H ) :   0.9576 B(  9-C , 12-C ) :   1.1030
B( 12-C , 13-H ) :   0.9707 B( 12-C , 14-H ) :   0.9715 B( 12-C , 15-H ) :   0.9708
B( 16-S , 17-C ) :   1.1760 B( 16-S , 20-C ) :   1.1410 B( 17-C , 18-C ) :   1.5865
B( 17-C , 20-C ) :   0.1050 B( 17-C , 33-H ) :   0.9571 B( 18-C , 19-C ) :   1.2595
B( 18-C , 21-H ) :   0.9794 B( 19-C , 20-C ) :   1.6072 B( 19-C , 22-C ) :   1.0364
B( 22-C , 23-H ) :   0.9412 B( 22-C , 24-H ) :   0.9362 B( 22-C , 25-C ) :   1.0587
B( 25-C , 26-H ) :   0.9556 B( 25-C , 27-H ) :   0.9583 B( 25-C , 28-C ) :   1.0664
B( 28-C , 29-H ) :   0.9745 B( 28-C , 30-H ) :   0.9729 B( 28-C , 31-H ) :   0.9707

Dispersion correction           -0.014860328
FINAL SINGLE POINT ENERGY     -1339.878504074204

DIPOLE MOMENT
-------------
                                X             Y             Z
Electronic contribution:      5.22708      -4.39535      18.07303
Nuclear contribution   :     -5.54069       4.27939     -18.51746
                        -----------------------------------------
Total Dipole Moment    :     -0.31361      -0.11596      -0.44444
                        -----------------------------------------
Magnitude (a.u.)       :      0.55617
Magnitude (Debye)      :      1.41366

Rotational constants in cm-1:     0.021353     0.007883     0.007015
Rotational constants in MHz :   640.133049   236.336350   210.312927

                             ****ORCA TERMINATED NORMALLY****
TOTAL RUN TIME: 0 days 0 hours 0 minutes 21 seconds 737 msec
