                         Program Version 4.2.1 -  RELEASE  -
|  1> ! wB97X-D3 SP def2-SVP
|  2> %pal
|  3> nprocs 24
|  4> end
|  5>
|  6> * xyz 0 1
|  7> S 	 -51.3795 	 1.79258 	 -18.3948
|  8> C 	 -51.3333 	 0.137868 	 -19.0319
|  9> C 	 -50.2276 	 -0.522585 	 -18.5977
| 10> C 	 -49.3987 	 0.293854 	 -17.7889
| 11> C 	 -49.8245 	 1.58841 	 -17.6324
| 12> H 	 -48.3975 	 -0.0509028 	 -17.4193
| 13> C 	 -49.8087 	 -1.90171 	 -19.0769
| 14> H 	 -50.6088 	 -2.6013 	 -18.9846
| 15> H 	 -49.0297 	 -2.31052 	 -18.4568
| 16> C 	 -49.2908 	 -1.93461 	 -20.6196
| 17> H 	 -50.0901 	 -1.51029 	 -21.2214
| 18> H 	 -48.4225 	 -1.34553 	 -20.6165
| 19> C 	 -48.9114 	 -3.34148 	 -21.1424
| 20> H 	 -48.3662 	 -3.90094 	 -20.3439
| 21> H 	 -49.6993 	 -4.05915 	 -21.3327
| 22> H 	 -48.2772 	 -3.3341 	 -21.9965
| 23> S 	 -48.3749 	 3.88779 	 -17.5169
| 24> C 	 -47.4809 	 4.22016 	 -16.0318
| 25> C 	 -47.8685 	 3.49103 	 -14.9855
| 26> C 	 -48.7829 	 2.46832 	 -15.4139
| 27> C 	 -49.1185 	 2.54757 	 -16.7488
| 28> H 	 -47.5167 	 3.71185 	 -13.9664
| 29> C 	 -49.1859 	 1.39708 	 -14.4493
| 30> H 	 -48.3432 	 0.848429 	 -14.083
| 31> H 	 -49.6261 	 0.568235 	 -14.9479
| 32> C 	 -50.1006 	 1.90264 	 -13.2965
| 33> H 	 -50.9266 	 2.45909 	 -13.732
| 34> H 	 -49.5089 	 2.56811 	 -12.6244
| 35> C 	 -50.4973 	 0.656583 	 -12.4622
| 36> H 	 -51.0392 	 -0.147194 	 -12.9735
| 37> H 	 -51.1856 	 0.95186 	 -11.669
| 38> H 	 -49.6941 	 0.13892 	 -11.9063
| 39> H 	 -52.1285 	 -0.328586 	 -19.6182
| 40> H 	 -46.851 	 5.08734 	 -15.8853
| 41> *
| 42>
| 43>                          ****END OF INPUT****

CARTESIAN COORDINATES (ANGSTROEM)
---------------------------------
  S    -51.379500    1.792580  -18.394800
  C    -51.333300    0.137868  -19.031900
  C    -50.227600   -0.522585  -18.597700
  C    -49.398700    0.293854  -17.788900
  C    -49.824500    1.588410  -17.632400
  H    -48.397500   -0.050903  -17.419300
  C    -49.808700   -1.901710  -19.076900
  H    -50.608800   -2.601300  -18.984600
  H    -49.029700   -2.310520  -18.456800
  C    -49.290800   -1.934610  -20.619600
  H    -50.090100   -1.510290  -21.221400
  H    -48.422500   -1.345530  -20.616500
  C    -48.911400   -3.341480  -21.142400
  H    -48.366200   -3.900940  -20.343900
  H    -49.699300   -4.059150  -21.332700
  H    -48.277200   -3.334100  -21.996500
  S    -48.374900    3.887790  -17.516900
  C    -47.480900    4.220160  -16.031800
  C    -47.868500    3.491030  -14.985500
  C    -48.782900    2.468320  -15.413900
  C    -49.118500    2.547570  -16.748800
  H    -47.516700    3.711850  -13.966400
  C    -49.185900    1.397080  -14.449300
  H    -48.343200    0.848429  -14.083000
  H    -49.626100    0.568235  -14.947900
  C    -50.100600    1.902640  -13.296500
  H    -50.926600    2.459090  -13.732000
  H    -49.508900    2.568110  -12.624400
  C    -50.497300    0.656583  -12.462200
  H    -51.039200   -0.147194  -12.973500
  H    -51.185600    0.951860  -11.669000
  H    -49.694100    0.138920  -11.906300
  H    -52.128500   -0.328586  -19.618200
  H    -46.851000    5.087340  -15.885300

 Total Charge           Charge          ....    0
 Multiplicity           Mult            ....    1
 Number of Electrons    NEL             ....  134
 Basis Dimension        Dim             ....  322

ORBITAL ENERGIES
----------------

  NO   OCC          E(Eh)            E(eV)
   0   2.0000     -88.967492     -2420.9285
   1   2.0000     -88.961556     -2420.7670
   2   2.0000     -10.327888      -281.0361
   3   2.0000     -10.322927      -280.9011
   4   2.0000     -10.314235      -280.6646
   5   2.0000     -10.310865      -280.5729
   6   2.0000     -10.299392      -280.2607
   7   2.0000     -10.297025      -280.1963
   8   2.0000     -10.293077      -280.0889
   9   2.0000     -10.292878      -280.0834
  10   2.0000     -10.292648      -280.0772
  11   2.0000     -10.290634      -280.0224
  12   2.0000     -10.290094      -280.0077
  13   2.0000     -10.278865      -279.7021
  14   2.0000     -10.278752      -279.6991
  15   2.0000     -10.278750      -279.6990
  16   2.0000      -8.081826      -219.9177
  17   2.0000      -8.077185      -219.7914
  18   2.0000      -6.040372      -164.3669
  19   2.0000      -6.036422      -164.2594
  20   2.0000      -6.035667      -164.2389
  21   2.0000      -6.032541      -164.1538
  22   2.0000      -6.031711      -164.1312
  23   2.0000      -6.027768      -164.0239
  24   2.0000      -1.009525       -27.4706
  25   2.0000      -0.988421       -26.8963
  26   2.0000      -0.905561       -24.6416
  27   2.0000      -0.902516       -24.5587
  28   2.0000      -0.870123       -23.6772
  29   2.0000      -0.847544       -23.0629
  30   2.0000      -0.845956       -23.0196
  31   2.0000      -0.816690       -22.2233
  32   2.0000      -0.780602       -21.2413
  33   2.0000      -0.768456       -20.9107
  34   2.0000      -0.707368       -19.2485
  35   2.0000      -0.705952       -19.2099
  36   2.0000      -0.697861       -18.9898
  37   2.0000      -0.658313       -17.9136
  38   2.0000      -0.637738       -17.3537
  39   2.0000      -0.619349       -16.8533
  40   2.0000      -0.599709       -16.3189
  41   2.0000      -0.571076       -15.5398
  42   2.0000      -0.560026       -15.2391
  43   2.0000      -0.555626       -15.1193
  44   2.0000      -0.522594       -14.2205
  45   2.0000      -0.520537       -14.1645
  46   2.0000      -0.512326       -13.9411
  47   2.0000      -0.511406       -13.9161
  48   2.0000      -0.503894       -13.7116
  49   2.0000      -0.495785       -13.4910
  50   2.0000      -0.493247       -13.4219
  51   2.0000      -0.473813       -12.8931
  52   2.0000      -0.469337       -12.7713
  53   2.0000      -0.461918       -12.5694
  54   2.0000      -0.457740       -12.4557
  55   2.0000      -0.449589       -12.2339
  56   2.0000      -0.447482       -12.1766
  57   2.0000      -0.441294       -12.0082
  58   2.0000      -0.431522       -11.7423
  59   2.0000      -0.426758       -11.6127
  60   2.0000      -0.422077       -11.4853
  61   2.0000      -0.418683       -11.3930
  62   2.0000      -0.413959       -11.2644
  63   2.0000      -0.345385        -9.3984
  64   2.0000      -0.332282        -9.0418
  65   2.0000      -0.322465        -8.7747
  66   2.0000      -0.304244        -8.2789
  67   0.0000       0.042479         1.1559
  68   0.0000       0.066676         1.8143
  69   0.0000       0.116185         3.1615
  70   0.0000       0.120741         3.2855
  71   0.0000       0.131493         3.5781

MULLIKEN ATOMIC CHARGES
-----------------------
   0 S :    0.111474
   1 C :   -0.141220
   2 C :   -0.067737
   3 C :    0.014425
   4 C :   -0.137025
   5 H :    0.028116
   6 C :    0.061150
   7 H :    0.018568
   8 H :    0.011757
   9 C :   -0.045829
  10 H :    0.034938
  11 H :    0.028150
  12 C :   -0.052013
  13 H :    0.019102
  14 H :    0.026657
  15 H :    0.035348
  16 S :    0.102836
  17 C :   -0.081559
  18 C :   -0.033538
  19 C :   -0.029653
  20 C :   -0.164553
  21 H :    0.031623
  22 C :    0.079557
  23 H :    0.010944
  24 H :   -0.002582
  25 C :   -0.067327
  26 H :    0.044795
  27 H :    0.035923
  28 C :   -0.065185
  29 H :    0.033621
  30 H :    0.026596
  31 H :    0.031163
  32 H :    0.053323
  33 H :    0.048157
Sum of atomic charges:    0.0000000

LOEWDIN ATOMIC CHARGES
----------------------
   0 S :    0.399782
   1 C :   -0.187262
   2 C :   -0.070918
   3 C :   -0.065771
   4 C :   -0.202426
   5 H :    0.038605
   6 C :   -0.025490
   7 H :    0.023492
   8 H :    0.023714
   9 C :   -0.022748
  10 H :    0.023087
  11 H :    0.020158
  12 C :   -0.072866
  13 H :    0.028357
  14 H :    0.023395
  15 H :    0.023806
  16 S :    0.406551
  17 C :   -0.173238
  18 C :   -0.069808
  19 C :   -0.052629
  20 C :   -0.209737
  21 H :    0.040043
  22 C :   -0.038023
  23 H :    0.027873
  24 H :    0.023477
  25 C :   -0.028709
  26 H :    0.028923
  27 H :    0.026728
  28 C :   -0.075531
  29 H :    0.025508
  30 H :    0.024619
  31 H :    0.028184
  32 H :    0.032378
  33 H :    0.026478

  Mayer bond orders larger than 0.100000
B(  0-S ,  1-C ) :   1.1332 B(  0-S ,  4-C ) :   1.1525 B(  1-C ,  2-C ) :   1.6116
B(  1-C , 32-H ) :   0.9677 B(  2-C ,  3-C ) :   1.2562 B(  2-C ,  6-C ) :   1.0338
B(  3-C ,  4-C ) :   1.5823 B(  3-C ,  5-H ) :   0.9881 B(  4-C , 20-C ) :   0.9877
B(  6-C ,  7-H ) :   0.9403 B(  6-C ,  8-H ) :   0.9416 B(  6-C ,  9-C ) :   1.0511
B(  9-C , 10-H ) :   0.9616 B(  9-C , 11-H ) :   0.9599 B(  9-C , 12-C ) :   1.0753
B( 12-C , 13-H ) :   0.9724 B( 12-C , 14-H ) :   0.9759 B( 12-C , 15-H ) :   0.9768
B( 16-S , 17-C ) :   1.1428 B( 16-S , 20-C ) :   1.1344 B( 17-C , 18-C ) :   1.6630
B( 17-C , 33-H ) :   0.9606 B( 18-C , 19-C ) :   1.1987 B( 18-C , 21-H ) :   0.9886
B( 19-C , 20-C ) :   1.6417 B( 19-C , 22-C ) :   1.0518 B( 22-C , 23-H ) :   0.9299
B( 22-C , 24-H ) :   0.9306 B( 22-C , 25-C ) :   1.0497 B( 25-C , 26-H ) :   0.9585
B( 25-C , 27-H ) :   0.9558 B( 25-C , 28-C ) :   1.0787 B( 28-C , 29-H ) :   0.9763
B( 28-C , 30-H ) :   0.9737 B( 28-C , 31-H ) :   0.9736

Dispersion correction           -0.013816214
FINAL SINGLE POINT ENERGY     -1339.880643151376

DIPOLE MOMENT
-------------
                                X             Y             Z
Electronic contribution:     -1.61227      23.56872      -6.93590
Nuclear contribution   :      1.82433     -24.11794       7.26654
                        -----------------------------------------
Total Dipole Moment    :      0.21206      -0.54922       0.33064
                        -----------------------------------------
Magnitude (a.u.)       :      0.67523
Magnitude (Debye)      :      1.71630

Rotational constants in cm-1:     0.018577     0.007475     0.006495
Rotational constants in MHz :   556.922058   224.103427   194.720656

                             ****ORCA TERMINATED NORMALLY****
TOTAL RUN TIME: 0 days 0 hours 0 minutes 21 seconds 184 msec
