                         Program Version 4.2.1 -  RELEASE  -
|  1> ! wB97X-D3 SP def2-SVP
|  2> %pal
|  3> nprocs 24
|  4> end
|  5>
|  6> * xyz 0 1
|  7> S 	 -90.7701 	 -30.1861 	 -75.4099
|  8> C 	 -89.1022 	 -30.2127 	 -74.747
|  9> C 	 -88.5387 	 -28.9525 	 -74.9328
| 10> C 	 -89.4011 	 -28.07 	 -75.615
| 11> C 	 -90.5915 	 -28.6161 	 -76.0058
| 12> H 	 -89.1265 	 -27.0789 	 -75.9082
| 13> C 	 -87.0669 	 -28.6011 	 -74.6378
| 14> H 	 -86.8691 	 -28.9464 	 -73.5688
| 15> H 	 -87.039 	 -27.516 	 -74.6259
| 16> C 	 -85.9783 	 -29.2365 	 -75.4517
| 17> H 	 -85.0753 	 -28.9565 	 -74.9878
| 18> H 	 -86.0105 	 -30.3807 	 -75.5204
| 19> C 	 -85.9955 	 -28.8172 	 -76.9082
| 20> H 	 -84.9962 	 -28.9125 	 -77.4301
| 21> H 	 -86.7099 	 -29.4421 	 -77.3427
| 22> H 	 -86.2897 	 -27.8142 	 -77.06
| 23> S 	 -93.0073 	 -27.3758 	 -75.7015
| 24> C 	 -93.6828 	 -26.4198 	 -77.0367
| 25> C 	 -92.7893 	 -26.38 	 -78.0968
| 26> C 	 -91.5507 	 -27.0711 	 -77.8294
| 27> C 	 -91.6227 	 -27.7806 	 -76.6605
| 28> H 	 -93.1173 	 -25.7153 	 -78.92
| 29> C 	 -90.4918 	 -27.1813 	 -78.9172
| 30> H 	 -90.9944 	 -27.8367 	 -79.6364
| 31> H 	 -89.5547 	 -27.6905 	 -78.577
| 32> C 	 -90.2373 	 -25.8878 	 -79.7292
| 33> H 	 -90.1381 	 -25.0102 	 -79.0724
| 34> H 	 -91.1164 	 -25.8179 	 -80.4216
| 35> C 	 -89.0678 	 -26.0052 	 -80.7438
| 36> H 	 -88.8365 	 -25.0427 	 -81.2257
| 37> H 	 -89.5222 	 -26.647 	 -81.5191
| 38> H 	 -88.2523 	 -26.522 	 -80.3786
| 39> H 	 -88.6614 	 -31.0665 	 -74.2729
| 40> H 	 -94.6315 	 -25.9397 	 -77.1339
| 41> *
| 42>
| 43>                          ****END OF INPUT****

CARTESIAN COORDINATES (ANGSTROEM)
---------------------------------
  S    -90.770100  -30.186100  -75.409900
  C    -89.102200  -30.212700  -74.747000
  C    -88.538700  -28.952500  -74.932800
  C    -89.401100  -28.070000  -75.615000
  C    -90.591500  -28.616100  -76.005800
  H    -89.126500  -27.078900  -75.908200
  C    -87.066900  -28.601100  -74.637800
  H    -86.869100  -28.946400  -73.568800
  H    -87.039000  -27.516000  -74.625900
  C    -85.978300  -29.236500  -75.451700
  H    -85.075300  -28.956500  -74.987800
  H    -86.010500  -30.380700  -75.520400
  C    -85.995500  -28.817200  -76.908200
  H    -84.996200  -28.912500  -77.430100
  H    -86.709900  -29.442100  -77.342700
  H    -86.289700  -27.814200  -77.060000
  S    -93.007300  -27.375800  -75.701500
  C    -93.682800  -26.419800  -77.036700
  C    -92.789300  -26.380000  -78.096800
  C    -91.550700  -27.071100  -77.829400
  C    -91.622700  -27.780600  -76.660500
  H    -93.117300  -25.715300  -78.920000
  C    -90.491800  -27.181300  -78.917200
  H    -90.994400  -27.836700  -79.636400
  H    -89.554700  -27.690500  -78.577000
  C    -90.237300  -25.887800  -79.729200
  H    -90.138100  -25.010200  -79.072400
  H    -91.116400  -25.817900  -80.421600
  C    -89.067800  -26.005200  -80.743800
  H    -88.836500  -25.042700  -81.225700
  H    -89.522200  -26.647000  -81.519100
  H    -88.252300  -26.522000  -80.378600
  H    -88.661400  -31.066500  -74.272900
  H    -94.631500  -25.939700  -77.133900

 Total Charge           Charge          ....    0
 Multiplicity           Mult            ....    1
 Number of Electrons    NEL             ....  134
 Basis Dimension        Dim             ....  322

ORBITAL ENERGIES
----------------

  NO   OCC          E(Eh)            E(eV)
   0   2.0000     -88.968565     -2420.9577
   1   2.0000     -88.964241     -2420.8401
   2   2.0000     -10.324076      -280.9324
   3   2.0000     -10.323441      -280.9151
   4   2.0000     -10.317228      -280.7460
   5   2.0000     -10.315586      -280.7014
   6   2.0000     -10.304819      -280.4084
   7   2.0000     -10.301326      -280.3133
   8   2.0000     -10.297210      -280.2013
   9   2.0000     -10.295819      -280.1635
  10   2.0000     -10.295601      -280.1575
  11   2.0000     -10.292638      -280.0769
  12   2.0000     -10.286532      -279.9108
  13   2.0000     -10.285792      -279.8906
  14   2.0000     -10.277071      -279.6533
  15   2.0000     -10.268898      -279.4309
  16   2.0000      -8.083466      -219.9623
  17   2.0000      -8.078868      -219.8372
  18   2.0000      -6.041888      -164.4081
  19   2.0000      -6.037837      -164.2979
  20   2.0000      -6.037494      -164.2886
  21   2.0000      -6.034418      -164.2049
  22   2.0000      -6.033426      -164.1779
  23   2.0000      -6.029470      -164.0702
  24   2.0000      -1.010222       -27.4895
  25   2.0000      -0.984929       -26.8013
  26   2.0000      -0.916595       -24.9418
  27   2.0000      -0.906979       -24.6801
  28   2.0000      -0.868272       -23.6269
  29   2.0000      -0.851982       -23.1836
  30   2.0000      -0.846834       -23.0435
  31   2.0000      -0.814311       -22.1585
  32   2.0000      -0.784911       -21.3585
  33   2.0000      -0.773834       -21.0571
  34   2.0000      -0.704860       -19.1802
  35   2.0000      -0.698971       -19.0200
  36   2.0000      -0.693651       -18.8752
  37   2.0000      -0.652927       -17.7670
  38   2.0000      -0.641391       -17.4531
  39   2.0000      -0.613643       -16.6981
  40   2.0000      -0.591017       -16.0824
  41   2.0000      -0.577810       -15.7230
  42   2.0000      -0.572844       -15.5879
  43   2.0000      -0.550631       -14.9834
  44   2.0000      -0.544154       -14.8072
  45   2.0000      -0.528792       -14.3892
  46   2.0000      -0.521351       -14.1867
  47   2.0000      -0.514954       -14.0126
  48   2.0000      -0.506841       -13.7918
  49   2.0000      -0.497513       -13.5380
  50   2.0000      -0.482758       -13.1365
  51   2.0000      -0.480795       -13.0831
  52   2.0000      -0.472328       -12.8527
  53   2.0000      -0.468018       -12.7354
  54   2.0000      -0.459776       -12.5112
  55   2.0000      -0.445988       -12.1359
  56   2.0000      -0.439195       -11.9511
  57   2.0000      -0.437482       -11.9045
  58   2.0000      -0.429938       -11.6992
  59   2.0000      -0.422119       -11.4864
  60   2.0000      -0.420356       -11.4385
  61   2.0000      -0.419237       -11.4080
  62   2.0000      -0.412805       -11.2330
  63   2.0000      -0.339659        -9.2426
  64   2.0000      -0.332133        -9.0378
  65   2.0000      -0.325971        -8.8701
  66   2.0000      -0.300566        -8.1788
  67   0.0000       0.037769         1.0278
  68   0.0000       0.066133         1.7996
  69   0.0000       0.115658         3.1472
  70   0.0000       0.117593         3.1999
  71   0.0000       0.124389         3.3848

MULLIKEN ATOMIC CHARGES
-----------------------
   0 S :    0.114473
   1 C :   -0.141290
   2 C :   -0.070044
   3 C :    0.039698
   4 C :   -0.162700
   5 H :    0.000108
   6 C :    0.041718
   7 H :    0.037584
   8 H :    0.024973
   9 C :   -0.045761
  10 H :    0.020621
  11 H :    0.038384
  12 C :   -0.044132
  13 H :    0.039762
  14 H :    0.031020
  15 H :    0.011068
  16 S :    0.112189
  17 C :   -0.087990
  18 C :   -0.066893
  19 C :   -0.005713
  20 C :   -0.152917
  21 H :    0.036850
  22 C :    0.034954
  23 H :    0.041435
  24 H :    0.039299
  25 C :   -0.133524
  26 H :    0.042862
  27 H :    0.038140
  28 C :   -0.009856
  29 H :    0.044544
  30 H :    0.020713
  31 H :    0.018815
  32 H :    0.046064
  33 H :    0.045548
Sum of atomic charges:    0.0000000

LOEWDIN ATOMIC CHARGES
----------------------
   0 S :    0.422680
   1 C :   -0.185241
   2 C :   -0.063130
   3 C :   -0.065621
   4 C :   -0.218868
   5 H :    0.026451
   6 C :   -0.032241
   7 H :    0.040323
   8 H :    0.028720
   9 C :   -0.041250
  10 H :    0.017654
  11 H :    0.034611
  12 C :   -0.063829
  13 H :    0.034039
  14 H :    0.020544
  15 H :    0.013457
  16 S :    0.401513
  17 C :   -0.178906
  18 C :   -0.075535
  19 C :   -0.058968
  20 C :   -0.200089
  21 H :    0.038995
  22 C :   -0.036848
  23 H :    0.039542
  24 H :    0.030853
  25 C :   -0.044171
  26 H :    0.020582
  27 H :    0.028790
  28 C :   -0.058563
  29 H :    0.031888
  30 H :    0.029284
  31 H :    0.010785
  32 H :    0.025306
  33 H :    0.027242

  Mayer bond orders larger than 0.100000
B(  0-S ,  1-C ) :   1.1403 B(  0-S ,  4-C ) :   1.1783 B(  1-C ,  2-C ) :   1.5697
B(  1-C , 32-H ) :   0.9806 B(  2-C ,  3-C ) :   1.2719 B(  2-C ,  6-C ) :   1.0134
B(  3-C ,  4-C ) :   1.5462 B(  3-C ,  5-H ) :   0.9997 B(  4-C , 20-C ) :   0.9942
B(  6-C ,  7-H ) :   0.9353 B(  6-C ,  8-H ) :   0.9430 B(  6-C ,  9-C ) :   1.0844
B(  9-C , 10-H ) :   0.9521 B(  9-C , 11-H ) :   0.9584 B(  9-C , 12-C ) :   1.0650
B( 12-C , 13-H ) :   0.9735 B( 12-C , 14-H ) :   0.9793 B( 12-C , 15-H ) :   0.9765
B( 16-S , 17-C ) :   1.1341 B( 16-S , 20-C ) :   1.1461 B( 17-C , 18-C ) :   1.6644
B( 17-C , 33-H ) :   0.9672 B( 18-C , 19-C ) :   1.1912 B( 18-C , 21-H ) :   0.9799
B( 19-C , 20-C ) :   1.6365 B( 19-C , 22-C ) :   1.0440 B( 22-C , 23-H ) :   0.9377
B( 22-C , 24-H ) :   0.9423 B( 22-C , 25-C ) :   1.0453 B( 25-C , 26-H ) :   0.9689
B( 25-C , 27-H ) :   0.9554 B( 25-C , 28-C ) :   1.0728 B( 28-C , 29-H ) :   0.9744
B( 28-C , 30-H ) :   0.9774 B( 28-C , 31-H ) :   0.9782

Dispersion correction           -0.014411238
FINAL SINGLE POINT ENERGY     -1339.867473636347

DIPOLE MOMENT
-------------
                                X             Y             Z
Electronic contribution:    -24.67297      -7.57224      16.56693
Nuclear contribution   :     25.18475       7.84724     -16.96113
                        -----------------------------------------
Total Dipole Moment    :      0.51178       0.27500      -0.39420
                        -----------------------------------------
Magnitude (a.u.)       :      0.70209
Magnitude (Debye)      :      1.78458

Rotational constants in cm-1:     0.016276     0.009988     0.006761
Rotational constants in MHz :   487.939705   299.430244   202.702743

                             ****ORCA TERMINATED NORMALLY****
TOTAL RUN TIME: 0 days 0 hours 0 minutes 21 seconds 771 msec
