                         Program Version 4.2.1 -  RELEASE  -
|  1> ! wB97X-D3 SP def2-SVP
|  2> %pal
|  3> nprocs 24
|  4> end
|  5>
|  6> * xyz 0 1
|  7> S 	 -78.1513 	 -22.0602 	 -51.5007
|  8> C 	 -78.4518 	 -21.2086 	 -49.9875
|  9> C 	 -79.1557 	 -20.0394 	 -50.3074
| 10> C 	 -79.4806 	 -19.94 	 -51.6528
| 11> C 	 -79.1964 	 -21.0572 	 -52.4312
| 12> H 	 -80.1169 	 -19.1565 	 -52.1367
| 13> C 	 -79.6269 	 -19.0682 	 -49.2635
| 14> H 	 -79.8542 	 -19.5848 	 -48.3198
| 15> H 	 -80.5389 	 -18.5919 	 -49.6841
| 16> C 	 -78.5788 	 -17.9445 	 -48.9931
| 17> H 	 -78.9842 	 -17.3837 	 -48.1432
| 18> H 	 -77.5768 	 -18.3269 	 -48.6568
| 19> C 	 -78.3979 	 -16.9777 	 -50.1691
| 20> H 	 -77.9973 	 -17.4929 	 -51.0022
| 21> H 	 -79.2916 	 -16.4727 	 -50.4851
| 22> H 	 -77.6032 	 -16.2938 	 -49.8394
| 23> S 	 -81.0649 	 -21.0889 	 -54.5221
| 24> C 	 -80.5793 	 -21.0143 	 -56.1436
| 25> C 	 -79.2023 	 -21.053 	 -56.235
| 26> C 	 -78.5066 	 -21.1826 	 -54.9752
| 27> C 	 -79.384 	 -21.1322 	 -53.8845
| 28> H 	 -78.7269 	 -21 	 -57.2127
| 29> C 	 -76.9856 	 -21.1193 	 -54.9799
| 30> H 	 -76.7564 	 -21.8907 	 -55.7264
| 31> H 	 -76.606 	 -21.5851 	 -54.042
| 32> C 	 -76.3875 	 -19.7546 	 -55.061
| 33> H 	 -76.8392 	 -19.2493 	 -55.9038
| 34> H 	 -75.3134 	 -19.765 	 -55.2811
| 35> C 	 -76.5541 	 -18.9077 	 -53.7178
| 36> H 	 -75.9862 	 -19.3389 	 -52.9517
| 37> H 	 -77.5871 	 -18.7958 	 -53.4827
| 38> H 	 -76.2676 	 -17.8544 	 -53.829
| 39> H 	 -78.1497 	 -21.4803 	 -49.0481
| 40> H 	 -81.2236 	 -20.9202 	 -57.0416
| 41> *
| 42>
| 43>                          ****END OF INPUT****

CARTESIAN COORDINATES (ANGSTROEM)
---------------------------------
  S    -78.151300  -22.060200  -51.500700
  C    -78.451800  -21.208600  -49.987500
  C    -79.155700  -20.039400  -50.307400
  C    -79.480600  -19.940000  -51.652800
  C    -79.196400  -21.057200  -52.431200
  H    -80.116900  -19.156500  -52.136700
  C    -79.626900  -19.068200  -49.263500
  H    -79.854200  -19.584800  -48.319800
  H    -80.538900  -18.591900  -49.684100
  C    -78.578800  -17.944500  -48.993100
  H    -78.984200  -17.383700  -48.143200
  H    -77.576800  -18.326900  -48.656800
  C    -78.397900  -16.977700  -50.169100
  H    -77.997300  -17.492900  -51.002200
  H    -79.291600  -16.472700  -50.485100
  H    -77.603200  -16.293800  -49.839400
  S    -81.064900  -21.088900  -54.522100
  C    -80.579300  -21.014300  -56.143600
  C    -79.202300  -21.053000  -56.235000
  C    -78.506600  -21.182600  -54.975200
  C    -79.384000  -21.132200  -53.884500
  H    -78.726900  -21.000000  -57.212700
  C    -76.985600  -21.119300  -54.979900
  H    -76.756400  -21.890700  -55.726400
  H    -76.606000  -21.585100  -54.042000
  C    -76.387500  -19.754600  -55.061000
  H    -76.839200  -19.249300  -55.903800
  H    -75.313400  -19.765000  -55.281100
  C    -76.554100  -18.907700  -53.717800
  H    -75.986200  -19.338900  -52.951700
  H    -77.587100  -18.795800  -53.482700
  H    -76.267600  -17.854400  -53.829000
  H    -78.149700  -21.480300  -49.048100
  H    -81.223600  -20.920200  -57.041600

 Total Charge           Charge          ....    0
 Multiplicity           Mult            ....    1
 Number of Electrons    NEL             ....  134
 Basis Dimension        Dim             ....  322

ORBITAL ENERGIES
----------------

  NO   OCC          E(Eh)            E(eV)
   0   2.0000     -88.968077     -2420.9445
   1   2.0000     -88.965605     -2420.8772
   2   2.0000     -10.334016      -281.2029
   3   2.0000     -10.330174      -281.0983
   4   2.0000     -10.317541      -280.7546
   5   2.0000     -10.312793      -280.6254
   6   2.0000     -10.306796      -280.4622
   7   2.0000     -10.298443      -280.2349
   8   2.0000     -10.294140      -280.1178
   9   2.0000     -10.293685      -280.1054
  10   2.0000     -10.292739      -280.0797
  11   2.0000     -10.291089      -280.0348
  12   2.0000     -10.290502      -280.0188
  13   2.0000     -10.286470      -279.9091
  14   2.0000     -10.271911      -279.5129
  15   2.0000     -10.269781      -279.4550
  16   2.0000      -8.082460      -219.9349
  17   2.0000      -8.080456      -219.8804
  18   2.0000      -6.040867      -164.3804
  19   2.0000      -6.038986      -164.3292
  20   2.0000      -6.036824      -164.2703
  21   2.0000      -6.034825      -164.2159
  22   2.0000      -6.033525      -164.1806
  23   2.0000      -6.031293      -164.1198
  24   2.0000      -1.008352       -27.4387
  25   2.0000      -0.987719       -26.8772
  26   2.0000      -0.911702       -24.8087
  27   2.0000      -0.908443       -24.7200
  28   2.0000      -0.868140       -23.6233
  29   2.0000      -0.847288       -23.0559
  30   2.0000      -0.842237       -22.9184
  31   2.0000      -0.812863       -22.1191
  32   2.0000      -0.784403       -21.3447
  33   2.0000      -0.774866       -21.0852
  34   2.0000      -0.711634       -19.3646
  35   2.0000      -0.698576       -19.0092
  36   2.0000      -0.694476       -18.8976
  37   2.0000      -0.659582       -17.9481
  38   2.0000      -0.638245       -17.3675
  39   2.0000      -0.614531       -16.7223
  40   2.0000      -0.594551       -16.1786
  41   2.0000      -0.574991       -15.6463
  42   2.0000      -0.554429       -15.0868
  43   2.0000      -0.548139       -14.9156
  44   2.0000      -0.543197       -14.7812
  45   2.0000      -0.540349       -14.7036
  46   2.0000      -0.518714       -14.1149
  47   2.0000      -0.515727       -14.0336
  48   2.0000      -0.503354       -13.6970
  49   2.0000      -0.493070       -13.4171
  50   2.0000      -0.491105       -13.3636
  51   2.0000      -0.476859       -12.9760
  52   2.0000      -0.471639       -12.8339
  53   2.0000      -0.468357       -12.7446
  54   2.0000      -0.462558       -12.5869
  55   2.0000      -0.445728       -12.1289
  56   2.0000      -0.440357       -11.9827
  57   2.0000      -0.435086       -11.8393
  58   2.0000      -0.433674       -11.8009
  59   2.0000      -0.428032       -11.6473
  60   2.0000      -0.416503       -11.3336
  61   2.0000      -0.409960       -11.1556
  62   2.0000      -0.404949       -11.0192
  63   2.0000      -0.344292        -9.3687
  64   2.0000      -0.330340        -8.9890
  65   2.0000      -0.329167        -8.9571
  66   2.0000      -0.296171        -8.0592
  67   0.0000       0.029036         0.7901
  68   0.0000       0.064170         1.7461
  69   0.0000       0.114107         3.1050
  70   0.0000       0.119509         3.2520
  71   0.0000       0.127582         3.4717

MULLIKEN ATOMIC CHARGES
-----------------------
   0 S :    0.110751
   1 C :   -0.081325
   2 C :   -0.070880
   3 C :    0.000021
   4 C :   -0.135785
   5 H :    0.029863
   6 C :    0.057424
   7 H :    0.032239
   8 H :    0.028901
   9 C :   -0.090635
  10 H :    0.029177
  11 H :    0.032663
  12 C :   -0.034040
  13 H :    0.026747
  14 H :    0.030677
  15 H :    0.035430
  16 S :    0.107037
  17 C :   -0.091058
  18 C :   -0.064650
  19 C :   -0.048945
  20 C :   -0.183498
  21 H :    0.021198
  22 C :    0.069607
  23 H :    0.034661
  24 H :    0.011585
  25 C :   -0.031573
  26 H :    0.015874
  27 H :    0.032633
  28 C :   -0.049139
  29 H :    0.030873
  30 H :    0.035059
  31 H :    0.027173
  32 H :    0.009020
  33 H :    0.072914
Sum of atomic charges:   -0.0000000

LOEWDIN ATOMIC CHARGES
----------------------
   0 S :    0.427467
   1 C :   -0.177935
   2 C :   -0.066327
   3 C :   -0.073262
   4 C :   -0.208512
   5 H :    0.036184
   6 C :   -0.031411
   7 H :    0.032710
   8 H :    0.033528
   9 C :   -0.039634
  10 H :    0.021631
  11 H :    0.026748
  12 C :   -0.063246
  13 H :    0.019760
  14 H :    0.022121
  15 H :    0.032481
  16 S :    0.413544
  17 C :   -0.209238
  18 C :   -0.081346
  19 C :   -0.055153
  20 C :   -0.188312
  21 H :    0.030564
  22 C :   -0.041437
  23 H :    0.036797
  24 H :    0.024896
  25 C :   -0.034650
  26 H :    0.019521
  27 H :    0.026644
  28 C :   -0.056349
  29 H :    0.018350
  30 H :    0.021962
  31 H :    0.028635
  32 H :    0.010560
  33 H :    0.042712

  Mayer bond orders larger than 0.100000
B(  0-S ,  1-C ) :   1.1574 B(  0-S ,  4-C ) :   1.1711 B(  1-C ,  2-C ) :   1.5389
B(  1-C ,  4-C ) :   0.1138 B(  1-C , 32-H ) :   0.9887 B(  2-C ,  3-C ) :   1.3009
B(  2-C ,  6-C ) :   1.0201 B(  3-C ,  4-C ) :   1.5282 B(  3-C ,  5-H ) :   0.9768
B(  4-C , 20-C ) :   1.0280 B(  6-C ,  7-H ) :   0.9434 B(  6-C ,  8-H ) :   0.9449
B(  6-C ,  9-C ) :   1.0675 B(  9-C , 10-H ) :   0.9573 B(  9-C , 11-H ) :   0.9570
B(  9-C , 12-C ) :   1.0807 B( 12-C , 13-H ) :   0.9737 B( 12-C , 14-H ) :   0.9740
B( 12-C , 15-H ) :   0.9701 B( 16-S , 17-C ) :   1.1665 B( 16-S , 20-C ) :   1.1410
B( 17-C , 18-C ) :   1.6018 B( 17-C , 33-H ) :   0.9610 B( 18-C , 19-C ) :   1.2446
B( 18-C , 21-H ) :   0.9876 B( 19-C , 20-C ) :   1.5833 B( 19-C , 22-C ) :   1.0376
B( 22-C , 23-H ) :   0.9293 B( 22-C , 24-H ) :   0.9322 B( 22-C , 25-C ) :   1.0636
B( 25-C , 26-H ) :   0.9552 B( 25-C , 27-H ) :   0.9545 B( 25-C , 28-C ) :   1.0731
B( 28-C , 29-H ) :   0.9781 B( 28-C , 30-H ) :   0.9735 B( 28-C , 31-H ) :   0.9721

Dispersion correction           -0.016600162
FINAL SINGLE POINT ENERGY     -1339.881215429193

DIPOLE MOMENT
-------------
                                X             Y             Z
Electronic contribution:    -12.41494     -19.62594      -6.39242
Nuclear contribution   :     12.63844      20.09579       6.42155
                        -----------------------------------------
Total Dipole Moment    :      0.22350       0.46985       0.02913
                        -----------------------------------------
Magnitude (a.u.)       :      0.52111
Magnitude (Debye)      :      1.32456

Rotational constants in cm-1:     0.020247     0.009106     0.008356
Rotational constants in MHz :   606.986469   272.994404   250.509480

                             ****ORCA TERMINATED NORMALLY****
TOTAL RUN TIME: 0 days 0 hours 0 minutes 23 seconds 105 msec
