                         Program Version 4.2.1 -  RELEASE  -
|  1> ! wB97X-D3 SP def2-SVP
|  2> %pal
|  3> nprocs 24
|  4> end
|  5>
|  6> * xyz 0 1
|  7> S 	 -74.5414 	 -2.73364 	 5.76032
|  8> C 	 -72.7839 	 -2.58836 	 5.46734
|  9> C 	 -72.0822 	 -3.73276 	 5.91379
| 10> C 	 -72.9756 	 -4.75034 	 6.37397
| 11> C 	 -74.2891 	 -4.30635 	 6.46008
| 12> H 	 -72.7663 	 -5.70776 	 6.78116
| 13> C 	 -70.6122 	 -4.00488 	 5.78393
| 14> H 	 -70.445 	 -3.42801 	 4.84733
| 15> H 	 -70.548 	 -5.0031 	 5.31291
| 16> C 	 -69.6759 	 -3.62576 	 7.00757
| 17> H 	 -68.6605 	 -3.69634 	 6.77237
| 18> H 	 -69.8665 	 -2.59392 	 7.18642
| 19> C 	 -69.993 	 -4.46063 	 8.32105
| 20> H 	 -69.5082 	 -4.08133 	 9.20134
| 21> H 	 -71.1077 	 -4.49699 	 8.49606
| 22> H 	 -69.5858 	 -5.41278 	 8.12967
| 23> S 	 -75.9144 	 -4.69531 	 8.77537
| 24> C 	 -77.2138 	 -5.82987 	 8.63903
| 25> C 	 -77.3428 	 -6.40342 	 7.37434
| 26> C 	 -76.3319 	 -5.86043 	 6.52
| 27> C 	 -75.4176 	 -5.01612 	 7.11328
| 28> H 	 -78.0053 	 -7.13864 	 7.12035
| 29> C 	 -76.3263 	 -6.2578 	 4.98767
| 30> H 	 -76.7658 	 -7.30347 	 4.99222
| 31> H 	 -75.273 	 -6.30913 	 4.62511
| 32> C 	 -77.1875 	 -5.25649 	 4.11076
| 33> H 	 -76.822 	 -4.26498 	 4.44255
| 34> H 	 -78.2425 	 -5.39986 	 4.40369
| 35> C 	 -77.0914 	 -5.48833 	 2.62946
| 36> H 	 -77.83 	 -4.97869 	 2.09336
| 37> H 	 -77.0937 	 -6.53104 	 2.36038
| 38> H 	 -76.2008 	 -4.92624 	 2.3444
| 39> H 	 -72.3767 	 -1.59668 	 5.23691
| 40> H 	 -77.9382 	 -5.92941 	 9.38929
| 41> *
| 42>
| 43>                          ****END OF INPUT****

CARTESIAN COORDINATES (ANGSTROEM)
---------------------------------
  S    -74.541400   -2.733640    5.760320
  C    -72.783900   -2.588360    5.467340
  C    -72.082200   -3.732760    5.913790
  C    -72.975600   -4.750340    6.373970
  C    -74.289100   -4.306350    6.460080
  H    -72.766300   -5.707760    6.781160
  C    -70.612200   -4.004880    5.783930
  H    -70.445000   -3.428010    4.847330
  H    -70.548000   -5.003100    5.312910
  C    -69.675900   -3.625760    7.007570
  H    -68.660500   -3.696340    6.772370
  H    -69.866500   -2.593920    7.186420
  C    -69.993000   -4.460630    8.321050
  H    -69.508200   -4.081330    9.201340
  H    -71.107700   -4.496990    8.496060
  H    -69.585800   -5.412780    8.129670
  S    -75.914400   -4.695310    8.775370
  C    -77.213800   -5.829870    8.639030
  C    -77.342800   -6.403420    7.374340
  C    -76.331900   -5.860430    6.520000
  C    -75.417600   -5.016120    7.113280
  H    -78.005300   -7.138640    7.120350
  C    -76.326300   -6.257800    4.987670
  H    -76.765800   -7.303470    4.992220
  H    -75.273000   -6.309130    4.625110
  C    -77.187500   -5.256490    4.110760
  H    -76.822000   -4.264980    4.442550
  H    -78.242500   -5.399860    4.403690
  C    -77.091400   -5.488330    2.629460
  H    -77.830000   -4.978690    2.093360
  H    -77.093700   -6.531040    2.360380
  H    -76.200800   -4.926240    2.344400
  H    -72.376700   -1.596680    5.236910
  H    -77.938200   -5.929410    9.389290

 Total Charge           Charge          ....    0
 Multiplicity           Mult            ....    1
 Number of Electrons    NEL             ....  134
 Basis Dimension        Dim             ....  322

ORBITAL ENERGIES
----------------

  NO   OCC          E(Eh)            E(eV)
   0   2.0000     -88.968754     -2420.9629
   1   2.0000     -88.966271     -2420.8953
   2   2.0000     -10.329299      -281.0745
   3   2.0000     -10.322351      -280.8855
   4   2.0000     -10.320970      -280.8479
   5   2.0000     -10.315546      -280.7003
   6   2.0000     -10.307729      -280.4876
   7   2.0000     -10.301722      -280.3241
   8   2.0000     -10.298208      -280.2285
   9   2.0000     -10.297076      -280.1977
  10   2.0000     -10.292227      -280.0657
  11   2.0000     -10.290465      -280.0178
  12   2.0000     -10.289370      -279.9880
  13   2.0000     -10.284738      -279.8619
  14   2.0000     -10.278548      -279.6935
  15   2.0000     -10.266344      -279.3614
  16   2.0000      -8.082742      -219.9426
  17   2.0000      -8.081067      -219.8970
  18   2.0000      -6.041104      -164.3868
  19   2.0000      -6.039499      -164.3431
  20   2.0000      -6.037360      -164.2849
  21   2.0000      -6.035510      -164.2346
  22   2.0000      -6.033712      -164.1857
  23   2.0000      -6.031974      -164.1384
  24   2.0000      -1.001691       -27.2574
  25   2.0000      -0.980580       -26.6829
  26   2.0000      -0.904745       -24.6194
  27   2.0000      -0.897213       -24.4144
  28   2.0000      -0.861499       -23.4426
  29   2.0000      -0.850227       -23.1359
  30   2.0000      -0.846930       -23.0461
  31   2.0000      -0.813713       -22.1422
  32   2.0000      -0.780051       -21.2263
  33   2.0000      -0.766454       -20.8563
  34   2.0000      -0.712784       -19.3958
  35   2.0000      -0.695221       -18.9179
  36   2.0000      -0.684682       -18.6311
  37   2.0000      -0.666394       -18.1335
  38   2.0000      -0.644598       -17.5404
  39   2.0000      -0.609865       -16.5953
  40   2.0000      -0.589513       -16.0415
  41   2.0000      -0.571817       -15.5599
  42   2.0000      -0.563363       -15.3299
  43   2.0000      -0.545869       -14.8539
  44   2.0000      -0.541315       -14.7299
  45   2.0000      -0.522316       -14.2129
  46   2.0000      -0.515061       -14.0155
  47   2.0000      -0.511635       -13.9223
  48   2.0000      -0.503062       -13.6890
  49   2.0000      -0.492025       -13.3887
  50   2.0000      -0.485252       -13.2044
  51   2.0000      -0.474386       -12.9087
  52   2.0000      -0.469401       -12.7731
  53   2.0000      -0.463479       -12.6119
  54   2.0000      -0.459419       -12.5014
  55   2.0000      -0.449131       -12.2215
  56   2.0000      -0.446886       -12.1604
  57   2.0000      -0.442064       -12.0292
  58   2.0000      -0.429852       -11.6969
  59   2.0000      -0.420903       -11.4534
  60   2.0000      -0.415594       -11.3089
  61   2.0000      -0.410672       -11.1749
  62   2.0000      -0.410011       -11.1570
  63   2.0000      -0.337194        -9.1755
  64   2.0000      -0.329718        -8.9721
  65   2.0000      -0.315410        -8.5827
  66   2.0000      -0.312498        -8.5035
  67   0.0000       0.040167         1.0930
  68   0.0000       0.051664         1.4059
  69   0.0000       0.106103         2.8872
  70   0.0000       0.120454         3.2777
  71   0.0000       0.127520         3.4700

MULLIKEN ATOMIC CHARGES
-----------------------
   0 S :    0.111635
   1 C :   -0.136433
   2 C :   -0.106961
   3 C :    0.068415
   4 C :   -0.194302
   5 H :    0.005569
   6 C :    0.024234
   7 H :    0.024788
   8 H :    0.031388
   9 C :   -0.002472
  10 H :    0.025148
  11 H :    0.021085
  12 C :   -0.063695
  13 H :    0.035377
  14 H :    0.054345
  15 H :    0.024536
  16 S :    0.117765
  17 C :   -0.074282
  18 C :    0.016038
  19 C :   -0.050507
  20 C :   -0.171230
  21 H :   -0.012820
  22 C :    0.028287
  23 H :    0.026930
  24 H :    0.038053
  25 C :   -0.086301
  26 H :    0.027862
  27 H :    0.024922
  28 C :    0.011128
  29 H :    0.016617
  30 H :    0.033323
  31 H :    0.026861
  32 H :    0.063160
  33 H :    0.041535
Sum of atomic charges:    0.0000000

LOEWDIN ATOMIC CHARGES
----------------------
   0 S :    0.403604
   1 C :   -0.197420
   2 C :   -0.059098
   3 C :   -0.056998
   4 C :   -0.192374
   5 H :    0.029381
   6 C :   -0.045881
   7 H :    0.038889
   8 H :    0.035285
   9 C :   -0.022247
  10 H :    0.017248
  11 H :    0.021049
  12 C :   -0.061842
  13 H :    0.024189
  14 H :    0.035336
  15 H :    0.017991
  16 S :    0.411584
  17 C :   -0.172359
  18 C :   -0.060897
  19 C :   -0.048940
  20 C :   -0.219487
  21 H :    0.017602
  22 C :   -0.032869
  23 H :    0.028912
  24 H :    0.029751
  25 C :   -0.040851
  26 H :    0.019142
  27 H :    0.021257
  28 C :   -0.062845
  29 H :    0.019776
  30 H :    0.025564
  31 H :    0.031837
  32 H :    0.029009
  33 H :    0.016704

  Mayer bond orders larger than 0.100000
B(  0-S ,  1-C ) :   1.1362 B(  0-S ,  4-C ) :   1.1693 B(  1-C ,  2-C ) :   1.6060
B(  1-C ,  4-C ) :   0.1017 B(  1-C , 32-H ) :   0.9649 B(  2-C ,  3-C ) :   1.2234
B(  2-C ,  6-C ) :   1.0003 B(  3-C ,  4-C ) :   1.5960 B(  3-C ,  5-H ) :   0.9931
B(  4-C , 20-C ) :   1.0036 B(  6-C ,  7-H ) :   0.9440 B(  6-C ,  8-H ) :   0.9484
B(  6-C ,  9-C ) :   1.0384 B(  9-C , 10-H ) :   0.9616 B(  9-C , 11-H ) :   0.9579
B(  9-C , 12-C ) :   1.0683 B( 12-C , 13-H ) :   0.9763 B( 12-C , 14-H ) :   0.9755
B( 12-C , 15-H ) :   0.9789 B( 16-S , 17-C ) :   1.1836 B( 16-S , 20-C ) :   1.1268
B( 17-C , 18-C ) :   1.5769 B( 17-C , 33-H ) :   0.9700 B( 18-C , 19-C ) :   1.2613
B( 18-C , 21-H ) :   1.0051 B( 19-C , 20-C ) :   1.6174 B( 19-C , 22-C ) :   1.0287
B( 22-C , 23-H ) :   0.9385 B( 22-C , 24-H ) :   0.9405 B( 22-C , 25-C ) :   1.0523
B( 25-C , 26-H ) :   0.9568 B( 25-C , 27-H ) :   0.9567 B( 25-C , 28-C ) :   1.0858
B( 28-C , 29-H ) :   0.9708 B( 28-C , 30-H ) :   0.9730 B( 28-C , 31-H ) :   0.9719

Dispersion correction           -0.014894032
FINAL SINGLE POINT ENERGY     -1339.863958384931

DIPOLE MOMENT
-------------
                                X             Y             Z
Electronic contribution:    -10.41572       6.33572      11.26451
Nuclear contribution   :     10.62476      -6.52021     -11.42997
                        -----------------------------------------
Total Dipole Moment    :      0.20904      -0.18448      -0.16546
                        -----------------------------------------
Magnitude (a.u.)       :      0.32421
Magnitude (Debye)      :      0.82407

Rotational constants in cm-1:     0.018821     0.008732     0.006992
Rotational constants in MHz :   564.237524   261.792560   209.621260

                             ****ORCA TERMINATED NORMALLY****
TOTAL RUN TIME: 0 days 0 hours 0 minutes 21 seconds 552 msec
