                         Program Version 4.2.1 -  RELEASE  -
|  1> ! wB97X-D3 SP def2-SVP
|  2> %pal
|  3> nprocs 24
|  4> end
|  5>
|  6> * xyz 0 1
|  7> S 	 43.5961 	 -22.6221 	 -112.211
|  8> C 	 42.2185 	 -21.5565 	 -112.006
|  9> C 	 42.3593 	 -20.336 	 -112.667
| 10> C 	 43.6745 	 -20.2896 	 -113.201
| 11> C 	 44.3801 	 -21.4877 	 -113.177
| 12> H 	 44.1859 	 -19.4211 	 -113.719
| 13> C 	 41.3263 	 -19.2411 	 -112.61
| 14> H 	 40.3451 	 -19.7603 	 -112.512
| 15> H 	 41.376 	 -18.6917 	 -113.554
| 16> C 	 41.4522 	 -18.1862 	 -111.484
| 17> H 	 42.47 	 -18.0773 	 -111.13
| 18> H 	 41.2391 	 -17.2346 	 -112.012
| 19> C 	 40.3618 	 -18.3321 	 -110.383
| 20> H 	 40.2481 	 -19.4084 	 -110.285
| 21> H 	 40.5559 	 -17.8337 	 -109.418
| 22> H 	 39.3737 	 -17.8348 	 -110.587
| 23> S 	 46.2282 	 -21.3933 	 -115.264
| 24> C 	 47.9294 	 -21.6313 	 -114.99
| 25> C 	 48.1602 	 -21.8375 	 -113.65
| 26> C 	 46.9555 	 -21.735 	 -112.815
| 27> C 	 45.7696 	 -21.5971 	 -113.553
| 28> H 	 49.1625 	 -21.857 	 -113.322
| 29> C 	 47.1013 	 -21.6642 	 -111.356
| 30> H 	 47.9902 	 -22.2588 	 -111.046
| 31> H 	 46.2671 	 -22.1409 	 -110.946
| 32> C 	 47.2302 	 -20.2188 	 -110.954
| 33> H 	 46.3047 	 -19.7754 	 -111.189
| 34> H 	 48.0554 	 -19.7015 	 -111.384
| 35> C 	 47.3935 	 -20.0404 	 -109.415
| 36> H 	 46.5234 	 -20.3142 	 -108.867
| 37> H 	 47.5446 	 -18.9525 	 -109.305
| 38> H 	 48.3047 	 -20.601 	 -108.989
| 39> H 	 41.2564 	 -21.8587 	 -111.737
| 40> H 	 48.7172 	 -21.6331 	 -115.711
| 41> *
| 42>
| 43>                          ****END OF INPUT****

CARTESIAN COORDINATES (ANGSTROEM)
---------------------------------
  S     43.596100  -22.622100  -112.211000
  C     42.218500  -21.556500  -112.006000
  C     42.359300  -20.336000  -112.667000
  C     43.674500  -20.289600  -113.201000
  C     44.380100  -21.487700  -113.177000
  H     44.185900  -19.421100  -113.719000
  C     41.326300  -19.241100  -112.610000
  H     40.345100  -19.760300  -112.512000
  H     41.376000  -18.691700  -113.554000
  C     41.452200  -18.186200  -111.484000
  H     42.470000  -18.077300  -111.130000
  H     41.239100  -17.234600  -112.012000
  C     40.361800  -18.332100  -110.383000
  H     40.248100  -19.408400  -110.285000
  H     40.555900  -17.833700  -109.418000
  H     39.373700  -17.834800  -110.587000
  S     46.228200  -21.393300  -115.264000
  C     47.929400  -21.631300  -114.990000
  C     48.160200  -21.837500  -113.650000
  C     46.955500  -21.735000  -112.815000
  C     45.769600  -21.597100  -113.553000
  H     49.162500  -21.857000  -113.322000
  C     47.101300  -21.664200  -111.356000
  H     47.990200  -22.258800  -111.046000
  H     46.267100  -22.140900  -110.946000
  C     47.230200  -20.218800  -110.954000
  H     46.304700  -19.775400  -111.189000
  H     48.055400  -19.701500  -111.384000
  C     47.393500  -20.040400  -109.415000
  H     46.523400  -20.314200  -108.867000
  H     47.544600  -18.952500  -109.305000
  H     48.304700  -20.601000  -108.989000
  H     41.256400  -21.858700  -111.737000
  H     48.717200  -21.633100  -115.711000

 Total Charge           Charge          ....    0
 Multiplicity           Mult            ....    1
 Number of Electrons    NEL             ....  134
 Basis Dimension        Dim             ....  322

ORBITAL ENERGIES
----------------

  NO   OCC          E(Eh)            E(eV)
   0   2.0000     -88.972780     -2421.0724
   1   2.0000     -88.960444     -2420.7367
   2   2.0000     -10.326999      -281.0119
   3   2.0000     -10.325930      -280.9828
   4   2.0000     -10.315024      -280.6861
   5   2.0000     -10.311339      -280.5858
   6   2.0000     -10.304717      -280.4056
   7   2.0000     -10.302626      -280.3487
   8   2.0000     -10.299421      -280.2615
   9   2.0000     -10.299033      -280.2509
  10   2.0000     -10.292557      -280.0747
  11   2.0000     -10.289315      -279.9865
  12   2.0000     -10.286554      -279.9114
  13   2.0000     -10.279071      -279.7077
  14   2.0000     -10.278478      -279.6916
  15   2.0000     -10.276700      -279.6432
  16   2.0000      -8.088064      -220.0874
  17   2.0000      -8.074877      -219.7286
  18   2.0000      -6.046354      -164.5297
  19   2.0000      -6.042410      -164.4223
  20   2.0000      -6.039092      -164.3320
  21   2.0000      -6.033570      -164.1818
  22   2.0000      -6.029288      -164.0653
  23   2.0000      -6.025590      -163.9647
  24   2.0000      -1.012418       -27.5493
  25   2.0000      -0.983368       -26.7588
  26   2.0000      -0.915690       -24.9172
  27   2.0000      -0.914542       -24.8860
  28   2.0000      -0.871259       -23.7082
  29   2.0000      -0.851167       -23.1614
  30   2.0000      -0.843452       -22.9515
  31   2.0000      -0.812903       -22.1202
  32   2.0000      -0.785757       -21.3815
  33   2.0000      -0.769066       -20.9274
  34   2.0000      -0.711292       -19.3552
  35   2.0000      -0.701445       -19.0873
  36   2.0000      -0.692983       -18.8570
  37   2.0000      -0.664155       -18.0726
  38   2.0000      -0.639227       -17.3943
  39   2.0000      -0.617430       -16.8011
  40   2.0000      -0.593398       -16.1472
  41   2.0000      -0.575721       -15.6662
  42   2.0000      -0.571652       -15.5554
  43   2.0000      -0.562050       -15.2942
  44   2.0000      -0.533060       -14.5053
  45   2.0000      -0.525208       -14.2916
  46   2.0000      -0.518831       -14.1181
  47   2.0000      -0.515418       -14.0252
  48   2.0000      -0.512762       -13.9530
  49   2.0000      -0.503565       -13.7027
  50   2.0000      -0.486238       -13.2312
  51   2.0000      -0.470631       -12.8065
  52   2.0000      -0.467042       -12.7089
  53   2.0000      -0.465133       -12.6569
  54   2.0000      -0.456692       -12.4272
  55   2.0000      -0.449401       -12.2288
  56   2.0000      -0.442812       -12.0495
  57   2.0000      -0.439019       -11.9463
  58   2.0000      -0.436023       -11.8648
  59   2.0000      -0.434186       -11.8148
  60   2.0000      -0.422510       -11.4971
  61   2.0000      -0.408626       -11.1193
  62   2.0000      -0.407616       -11.0918
  63   2.0000      -0.341920        -9.3041
  64   2.0000      -0.335791        -9.1373
  65   2.0000      -0.322575        -8.7777
  66   2.0000      -0.296727        -8.0744
  67   0.0000       0.033505         0.9117
  68   0.0000       0.064311         1.7500
  69   0.0000       0.108891         2.9631
  70   0.0000       0.121833         3.3152
  71   0.0000       0.129141         3.5141

MULLIKEN ATOMIC CHARGES
-----------------------
   0 S :    0.133504
   1 C :   -0.100191
   2 C :   -0.091079
   3 C :   -0.005597
   4 C :   -0.152867
   5 H :    0.034900
   6 C :    0.047345
   7 H :    0.033608
   8 H :    0.033133
   9 C :   -0.043581
  10 H :    0.037280
  11 H :    0.027804
  12 C :   -0.080964
  13 H :    0.035194
  14 H :    0.037272
  15 H :    0.040694
  16 S :    0.091285
  17 C :   -0.075209
  18 C :   -0.019688
  19 C :   -0.074053
  20 C :   -0.167291
  21 H :    0.004744
  22 C :    0.126155
  23 H :    0.019153
  24 H :   -0.006035
  25 C :   -0.053543
  26 H :    0.019717
  27 H :    0.024697
  28 C :   -0.055028
  29 H :    0.030554
  30 H :    0.032708
  31 H :    0.038216
  32 H :    0.027261
  33 H :    0.049901
Sum of atomic charges:   -0.0000000

LOEWDIN ATOMIC CHARGES
----------------------
   0 S :    0.450076
   1 C :   -0.194778
   2 C :   -0.060699
   3 C :   -0.068018
   4 C :   -0.226660
   5 H :    0.038541
   6 C :   -0.031347
   7 H :    0.036934
   8 H :    0.035233
   9 C :   -0.040467
  10 H :    0.025701
  11 H :    0.028739
  12 C :   -0.074957
  13 H :    0.021635
  14 H :    0.029331
  15 H :    0.032352
  16 S :    0.392542
  17 C :   -0.181115
  18 C :   -0.071654
  19 C :   -0.047699
  20 C :   -0.200008
  21 H :    0.023207
  22 C :   -0.033560
  23 H :    0.032337
  24 H :    0.015878
  25 C :   -0.026102
  26 H :    0.022768
  27 H :    0.022134
  28 C :   -0.066365
  29 H :    0.017535
  30 H :    0.027388
  31 H :    0.029706
  32 H :    0.012658
  33 H :    0.028731

  Mayer bond orders larger than 0.100000
B(  0-S ,  1-C ) :   1.1596 B(  0-S ,  4-C ) :   1.1745 B(  1-C ,  2-C ) :   1.5806
B(  1-C ,  4-C ) :   0.1005 B(  1-C , 32-H ) :   0.9633 B(  2-C ,  3-C ) :   1.2598
B(  2-C ,  6-C ) :   1.0380 B(  3-C ,  4-C ) :   1.5568 B(  3-C ,  5-H ) :   0.9784
B(  4-C , 20-C ) :   1.0256 B(  6-C ,  7-H ) :   0.9444 B(  6-C ,  8-H ) :   0.9396
B(  6-C ,  9-C ) :   1.0450 B(  9-C , 10-H ) :   0.9638 B(  9-C , 11-H ) :   0.9614
B(  9-C , 12-C ) :   1.0639 B( 12-C , 13-H ) :   0.9802 B( 12-C , 14-H ) :   0.9754
B( 12-C , 15-H ) :   0.9770 B( 16-S , 17-C ) :   1.1549 B( 16-S , 20-C ) :   1.1192
B( 17-C , 18-C ) :   1.6216 B( 17-C , 33-H ) :   0.9679 B( 18-C , 19-C ) :   1.2256
B( 18-C , 21-H ) :   0.9930 B( 19-C , 20-C ) :   1.5932 B( 19-C , 22-C ) :   1.0691
B( 22-C , 23-H ) :   0.9252 B( 22-C , 24-H ) :   0.9127 B( 22-C , 25-C ) :   1.0746
B( 25-C , 26-H ) :   0.9493 B( 25-C , 27-H ) :   0.9598 B( 25-C , 28-C ) :   1.0867
B( 28-C , 29-H ) :   0.9758 B( 28-C , 30-H ) :   0.9764 B( 28-C , 31-H ) :   0.9744

Dispersion correction           -0.014472656
FINAL SINGLE POINT ENERGY     -1339.864943126680

DIPOLE MOMENT
-------------
                                X             Y             Z
Electronic contribution:      5.37782     -17.11194     -19.64983
Nuclear contribution   :     -5.41371      17.65153      19.98140
                        -----------------------------------------
Total Dipole Moment    :     -0.03589       0.53959       0.33157
                        -----------------------------------------
Magnitude (a.u.)       :      0.63434
Magnitude (Debye)      :      1.61235

Rotational constants in cm-1:     0.019509     0.008260     0.007025
Rotational constants in MHz :   584.850178   247.624581   210.591258

                             ****ORCA TERMINATED NORMALLY****
TOTAL RUN TIME: 0 days 0 hours 0 minutes 21 seconds 652 msec
