                         Program Version 4.2.1 -  RELEASE  -
|  1> ! wB97X-D3 SP def2-SVP
|  2> %pal
|  3> nprocs 24
|  4> end
|  5>
|  6> * xyz 0 1
|  7> S 	 -137.392 	 24.5585 	 -20.79
|  8> C 	 -138.09 	 23.1063 	 -21.529
|  9> C 	 -137.154 	 22.527 	 -22.4111
| 10> C 	 -135.848 	 23.1288 	 -22.3213
| 11> C 	 -135.818 	 24.1374 	 -21.3807
| 12> H 	 -134.93 	 22.8907 	 -22.9216
| 13> C 	 -137.45 	 21.4206 	 -23.3938
| 14> H 	 -137.503 	 21.9835 	 -24.2964
| 15> H 	 -138.366 	 20.9447 	 -23.1803
| 16> C 	 -136.342 	 20.3441 	 -23.4379
| 17> H 	 -136.579 	 19.7831 	 -24.3605
| 18> H 	 -135.326 	 20.6608 	 -23.6677
| 19> C 	 -136.501 	 19.4019 	 -22.1954
| 20> H 	 -136.312 	 20.0035 	 -21.271
| 21> H 	 -137.513 	 19.0927 	 -22.1625
| 22> H 	 -135.869 	 18.4922 	 -22.2104
| 23> S 	 -134.669 	 26.6284 	 -21.1288
| 24> C 	 -132.979 	 26.8145 	 -20.5865
| 25> C 	 -132.473 	 25.5701 	 -20.2132
| 26> C 	 -133.346 	 24.4385 	 -20.5476
| 27> C 	 -134.623 	 24.8554 	 -20.9692
| 28> H 	 -131.63 	 25.4677 	 -19.61
| 29> C 	 -132.924 	 23.0159 	 -20.307
| 30> H 	 -133.931 	 22.4398 	 -20.1107
| 31> H 	 -132.275 	 22.9831 	 -19.4444
| 32> C 	 -132.146 	 22.3224 	 -21.3922
| 33> H 	 -131.13 	 22.7374 	 -21.3569
| 34> H 	 -132.543 	 22.6676 	 -22.3789
| 35> C 	 -132.085 	 20.7594 	 -21.3737
| 36> H 	 -131.571 	 20.3443 	 -20.5137
| 37> H 	 -131.532 	 20.3731 	 -22.186
| 38> H 	 -133.135 	 20.4124 	 -21.4551
| 39> H 	 -139.126 	 22.651 	 -21.4646
| 40> H 	 -132.471 	 27.7139 	 -20.4151
| 41> *
| 42>
| 43>                          ****END OF INPUT****

CARTESIAN COORDINATES (ANGSTROEM)
---------------------------------
  S    -137.392000   24.558500  -20.790000
  C    -138.090000   23.106300  -21.529000
  C    -137.154000   22.527000  -22.411100
  C    -135.848000   23.128800  -22.321300
  C    -135.818000   24.137400  -21.380700
  H    -134.930000   22.890700  -22.921600
  C    -137.450000   21.420600  -23.393800
  H    -137.503000   21.983500  -24.296400
  H    -138.366000   20.944700  -23.180300
  C    -136.342000   20.344100  -23.437900
  H    -136.579000   19.783100  -24.360500
  H    -135.326000   20.660800  -23.667700
  C    -136.501000   19.401900  -22.195400
  H    -136.312000   20.003500  -21.271000
  H    -137.513000   19.092700  -22.162500
  H    -135.869000   18.492200  -22.210400
  S    -134.669000   26.628400  -21.128800
  C    -132.979000   26.814500  -20.586500
  C    -132.473000   25.570100  -20.213200
  C    -133.346000   24.438500  -20.547600
  C    -134.623000   24.855400  -20.969200
  H    -131.630000   25.467700  -19.610000
  C    -132.924000   23.015900  -20.307000
  H    -133.931000   22.439800  -20.110700
  H    -132.275000   22.983100  -19.444400
  C    -132.146000   22.322400  -21.392200
  H    -131.130000   22.737400  -21.356900
  H    -132.543000   22.667600  -22.378900
  C    -132.085000   20.759400  -21.373700
  H    -131.571000   20.344300  -20.513700
  H    -131.532000   20.373100  -22.186000
  H    -133.135000   20.412400  -21.455100
  H    -139.126000   22.651000  -21.464600
  H    -132.471000   27.713900  -20.415100

 Total Charge           Charge          ....    0
 Multiplicity           Mult            ....    1
 Number of Electrons    NEL             ....  134
 Basis Dimension        Dim             ....  322

ORBITAL ENERGIES
----------------

  NO   OCC          E(Eh)            E(eV)
   0   2.0000     -88.970128     -2421.0003
   1   2.0000     -88.964439     -2420.8455
   2   2.0000     -10.332036      -281.1490
   3   2.0000     -10.330112      -281.0966
   4   2.0000     -10.321154      -280.8529
   5   2.0000     -10.319555      -280.8094
   6   2.0000     -10.309090      -280.5246
   7   2.0000     -10.304709      -280.4054
   8   2.0000     -10.299305      -280.2583
   9   2.0000     -10.295475      -280.1541
  10   2.0000     -10.294575      -280.1296
  11   2.0000     -10.292569      -280.0750
  12   2.0000     -10.289938      -280.0034
  13   2.0000     -10.289237      -279.9844
  14   2.0000     -10.282162      -279.7919
  15   2.0000     -10.280041      -279.7341
  16   2.0000      -8.084441      -219.9888
  17   2.0000      -8.078184      -219.8186
  18   2.0000      -6.043114      -164.4415
  19   2.0000      -6.039085      -164.3319
  20   2.0000      -6.036909      -164.2727
  21   2.0000      -6.034965      -164.2198
  22   2.0000      -6.032815      -164.1612
  23   2.0000      -6.028789      -164.0517
  24   2.0000      -1.003142       -27.2969
  25   2.0000      -0.975804       -26.5530
  26   2.0000      -0.915244       -24.9050
  27   2.0000      -0.907196       -24.6861
  28   2.0000      -0.866380       -23.5754
  29   2.0000      -0.847308       -23.0564
  30   2.0000      -0.841389       -22.8954
  31   2.0000      -0.813948       -22.1487
  32   2.0000      -0.782601       -21.2957
  33   2.0000      -0.772600       -21.0235
  34   2.0000      -0.713210       -19.4074
  35   2.0000      -0.697433       -18.9781
  36   2.0000      -0.689900       -18.7731
  37   2.0000      -0.664726       -18.0881
  38   2.0000      -0.636419       -17.3178
  39   2.0000      -0.618934       -16.8421
  40   2.0000      -0.591032       -16.0828
  41   2.0000      -0.569589       -15.4993
  42   2.0000      -0.563749       -15.3404
  43   2.0000      -0.562863       -15.3163
  44   2.0000      -0.531691       -14.4680
  45   2.0000      -0.520144       -14.1538
  46   2.0000      -0.518768       -14.1164
  47   2.0000      -0.513564       -13.9748
  48   2.0000      -0.507111       -13.7992
  49   2.0000      -0.499188       -13.5836
  50   2.0000      -0.485831       -13.2201
  51   2.0000      -0.482730       -13.1358
  52   2.0000      -0.469012       -12.7625
  53   2.0000      -0.462343       -12.5810
  54   2.0000      -0.454623       -12.3709
  55   2.0000      -0.452416       -12.3109
  56   2.0000      -0.445267       -12.1163
  57   2.0000      -0.442262       -12.0346
  58   2.0000      -0.440149       -11.9771
  59   2.0000      -0.429438       -11.6856
  60   2.0000      -0.415784       -11.3141
  61   2.0000      -0.412995       -11.2382
  62   2.0000      -0.409108       -11.1324
  63   2.0000      -0.345299        -9.3961
  64   2.0000      -0.329403        -8.9635
  65   2.0000      -0.324916        -8.8414
  66   2.0000      -0.290826        -7.9138
  67   0.0000       0.026427         0.7191
  68   0.0000       0.064571         1.7571
  69   0.0000       0.103463         2.8154
  70   0.0000       0.115613         3.1460
  71   0.0000       0.124567         3.3896

MULLIKEN ATOMIC CHARGES
-----------------------
   0 S :    0.123156
   1 C :   -0.136272
   2 C :   -0.127396
   3 C :    0.007494
   4 C :   -0.144408
   5 H :    0.037265
   6 C :    0.106817
   7 H :    0.041725
   8 H :    0.004377
   9 C :   -0.093322
  10 H :    0.023873
  11 H :    0.029604
  12 C :   -0.046130
  13 H :    0.049733
  14 H :    0.016718
  15 H :    0.044844
  16 S :    0.085729
  17 C :   -0.067058
  18 C :   -0.011445
  19 C :   -0.042478
  20 C :   -0.147664
  21 H :    0.004980
  22 C :    0.029868
  23 H :    0.051182
  24 H :    0.019468
  25 C :   -0.088058
  26 H :    0.021086
  27 H :    0.023716
  28 C :   -0.026314
  29 H :    0.031726
  30 H :    0.025910
  31 H :    0.039551
  32 H :    0.067466
  33 H :    0.044257
Sum of atomic charges:   -0.0000000

LOEWDIN ATOMIC CHARGES
----------------------
   0 S :    0.407818
   1 C :   -0.218317
   2 C :   -0.058675
   3 C :   -0.069011
   4 C :   -0.199407
   5 H :    0.041932
   6 C :   -0.021859
   7 H :    0.036612
   8 H :    0.022990
   9 C :   -0.042795
  10 H :    0.025664
  11 H :    0.019693
  12 C :   -0.064235
  13 H :    0.032468
  14 H :    0.018379
  15 H :    0.028802
  16 S :    0.376161
  17 C :   -0.166378
  18 C :   -0.060019
  19 C :   -0.053215
  20 C :   -0.185847
  21 H :    0.020927
  22 C :   -0.043304
  23 H :    0.043462
  24 H :    0.028106
  25 C :   -0.045893
  26 H :    0.022055
  27 H :    0.020719
  28 C :   -0.060961
  29 H :    0.025147
  30 H :    0.022287
  31 H :    0.030556
  32 H :    0.045210
  33 H :    0.020930

  Mayer bond orders larger than 0.100000
B(  0-S ,  1-C ) :   1.1172 B(  0-S ,  4-C ) :   1.1548 B(  1-C ,  2-C ) :   1.6194
B(  1-C , 32-H ) :   0.9594 B(  2-C ,  3-C ) :   1.2179 B(  2-C ,  6-C ) :   1.0199
B(  3-C ,  4-C ) :   1.5691 B(  3-C ,  5-H ) :   0.9852 B(  4-C , 20-C ) :   1.0341
B(  6-C ,  7-H ) :   0.9301 B(  6-C ,  8-H ) :   0.9411 B(  6-C ,  9-C ) :   1.0776
B(  9-C , 10-H ) :   0.9532 B(  9-C , 11-H ) :   0.9570 B(  9-C , 12-C ) :   1.0580
B( 12-C , 13-H ) :   0.9766 B( 12-C , 14-H ) :   0.9729 B( 12-C , 15-H ) :   0.9768
B( 16-S , 17-C ) :   1.1374 B( 16-S , 20-C ) :   1.1256 B( 17-C , 18-C ) :   1.6236
B( 17-C , 33-H ) :   0.9742 B( 18-C , 19-C ) :   1.2178 B( 18-C , 21-H ) :   0.9912
B( 19-C , 20-C ) :   1.6086 B( 19-C , 22-C ) :   1.0594 B( 22-C , 23-H ) :   0.9350
B( 22-C , 24-H ) :   0.9313 B( 22-C , 25-C ) :   1.0571 B( 25-C , 26-H ) :   0.9490
B( 25-C , 27-H ) :   0.9558 B( 25-C , 28-C ) :   1.0800 B( 28-C , 29-H ) :   0.9749
B( 28-C , 30-H ) :   0.9735 B( 28-C , 31-H ) :   0.9743

Dispersion correction           -0.015436228
FINAL SINGLE POINT ENERGY     -1339.870212609421

DIPOLE MOMENT
-------------
                                X             Y             Z
Electronic contribution:     -9.59950      30.01645       6.51847
Nuclear contribution   :      9.89552     -30.66007      -6.73399
                        -----------------------------------------
Total Dipole Moment    :      0.29602      -0.64362      -0.21552
                        -----------------------------------------
Magnitude (a.u.)       :      0.74049
Magnitude (Debye)      :      1.88218

Rotational constants in cm-1:     0.017347     0.010590     0.007102
Rotational constants in MHz :   520.041286   317.484746   212.925971

                             ****ORCA TERMINATED NORMALLY****
TOTAL RUN TIME: 0 days 0 hours 0 minutes 21 seconds 562 msec
