                         Program Version 4.2.1 -  RELEASE  -
|  1> ! wB97X-D3 SP def2-SVP
|  2> %pal
|  3> nprocs 24
|  4> end
|  5>
|  6> * xyz 0 1
|  7> S 	 -139.503 	 9.09044 	 5.19535
|  8> C 	 -140.615 	 9.44674 	 3.85085
|  9> C 	 -141.36 	 10.5402 	 4.25469
| 10> C 	 -141.224 	 10.9648 	 5.57915
| 11> C 	 -140.45 	 10.1089 	 6.30116
| 12> H 	 -141.823 	 11.6739 	 6.07234
| 13> C 	 -142.446 	 11.2264 	 3.39103
| 14> H 	 -142.191 	 12.2909 	 3.34718
| 15> H 	 -143.421 	 11.0417 	 3.86373
| 16> C 	 -142.453 	 10.8969 	 1.90755
| 17> H 	 -141.442 	 10.8902 	 1.45535
| 18> H 	 -142.757 	 9.86342 	 1.89912
| 19> C 	 -143.545 	 11.6407 	 1.09206
| 20> H 	 -144.509 	 11.3598 	 1.5055
| 21> H 	 -143.361 	 12.6799 	 1.34528
| 22> H 	 -143.468 	 11.5718 	 0.0460599
| 23> S 	 -140.197 	 8.55807 	 8.5359
| 24> C 	 -139.407 	 9.27027 	 9.95503
| 25> C 	 -139.144 	 10.6168 	 9.83293
| 26> C 	 -139.641 	 11.1368 	 8.57893
| 27> C 	 -140.091 	 10.1297 	 7.70407
| 28> H 	 -138.854 	 11.1517 	 10.6984
| 29> C 	 -139.705 	 12.5992 	 8.12852
| 30> H 	 -140.747 	 12.6743 	 7.81601
| 31> H 	 -139.02 	 12.785 	 7.31453
| 32> C 	 -139.49 	 13.6875 	 9.17624
| 33> H 	 -138.53 	 13.5419 	 9.64829
| 34> H 	 -140.157 	 13.4696 	 10.0209
| 35> C 	 -139.766 	 15.106 	 8.61707
| 36> H 	 -139.519 	 15.9251 	 9.34611
| 37> H 	 -140.686 	 15.2445 	 8.13204
| 38> H 	 -139.067 	 15.239 	 7.77448
| 39> H 	 -140.638 	 9.08514 	 2.85327
| 40> H 	 -139.28 	 8.76687 	 10.9276
| 41> *
| 42>
| 43>                          ****END OF INPUT****

CARTESIAN COORDINATES (ANGSTROEM)
---------------------------------
  S    -139.503000    9.090440    5.195350
  C    -140.615000    9.446740    3.850850
  C    -141.360000   10.540200    4.254690
  C    -141.224000   10.964800    5.579150
  C    -140.450000   10.108900    6.301160
  H    -141.823000   11.673900    6.072340
  C    -142.446000   11.226400    3.391030
  H    -142.191000   12.290900    3.347180
  H    -143.421000   11.041700    3.863730
  C    -142.453000   10.896900    1.907550
  H    -141.442000   10.890200    1.455350
  H    -142.757000    9.863420    1.899120
  C    -143.545000   11.640700    1.092060
  H    -144.509000   11.359800    1.505500
  H    -143.361000   12.679900    1.345280
  H    -143.468000   11.571800    0.046060
  S    -140.197000    8.558070    8.535900
  C    -139.407000    9.270270    9.955030
  C    -139.144000   10.616800    9.832930
  C    -139.641000   11.136800    8.578930
  C    -140.091000   10.129700    7.704070
  H    -138.854000   11.151700   10.698400
  C    -139.705000   12.599200    8.128520
  H    -140.747000   12.674300    7.816010
  H    -139.020000   12.785000    7.314530
  C    -139.490000   13.687500    9.176240
  H    -138.530000   13.541900    9.648290
  H    -140.157000   13.469600   10.020900
  C    -139.766000   15.106000    8.617070
  H    -139.519000   15.925100    9.346110
  H    -140.686000   15.244500    8.132040
  H    -139.067000   15.239000    7.774480
  H    -140.638000    9.085140    2.853270
  H    -139.280000    8.766870   10.927600

 Total Charge           Charge          ....    0
 Multiplicity           Mult            ....    1
 Number of Electrons    NEL             ....  134
 Basis Dimension        Dim             ....  322

ORBITAL ENERGIES
----------------

  NO   OCC          E(Eh)            E(eV)
   0   2.0000     -88.967291     -2420.9231
   1   2.0000     -88.961994     -2420.7789
   2   2.0000     -10.329596      -281.0826
   3   2.0000     -10.327185      -281.0170
   4   2.0000     -10.322553      -280.8910
   5   2.0000     -10.312779      -280.6250
   6   2.0000     -10.311653      -280.5943
   7   2.0000     -10.298623      -280.2398
   8   2.0000     -10.296737      -280.1885
   9   2.0000     -10.292490      -280.0729
  10   2.0000     -10.292121      -280.0628
  11   2.0000     -10.289103      -279.9807
  12   2.0000     -10.286396      -279.9071
  13   2.0000     -10.284392      -279.8525
  14   2.0000     -10.283981      -279.8414
  15   2.0000     -10.277249      -279.6582
  16   2.0000      -8.081114      -219.8983
  17   2.0000      -8.075927      -219.7571
  18   2.0000      -6.039606      -164.3460
  19   2.0000      -6.035816      -164.2429
  20   2.0000      -6.034684      -164.2121
  21   2.0000      -6.031856      -164.1351
  22   2.0000      -6.030632      -164.1018
  23   2.0000      -6.026340      -163.9850
  24   2.0000      -1.004719       -27.3398
  25   2.0000      -0.980242       -26.6737
  26   2.0000      -0.911408       -24.8007
  27   2.0000      -0.909834       -24.7578
  28   2.0000      -0.869855       -23.6700
  29   2.0000      -0.851461       -23.1694
  30   2.0000      -0.844813       -22.9885
  31   2.0000      -0.818317       -22.2675
  32   2.0000      -0.782990       -21.3062
  33   2.0000      -0.768708       -20.9176
  34   2.0000      -0.712899       -19.3990
  35   2.0000      -0.709100       -19.2956
  36   2.0000      -0.692878       -18.8542
  37   2.0000      -0.652768       -17.7627
  38   2.0000      -0.640764       -17.4361
  39   2.0000      -0.616190       -16.7674
  40   2.0000      -0.594120       -16.1668
  41   2.0000      -0.577604       -15.7174
  42   2.0000      -0.575090       -15.6490
  43   2.0000      -0.568401       -15.4670
  44   2.0000      -0.528734       -14.3876
  45   2.0000      -0.525462       -14.2985
  46   2.0000      -0.517257       -14.0753
  47   2.0000      -0.516596       -14.0573
  48   2.0000      -0.501977       -13.6595
  49   2.0000      -0.498822       -13.5736
  50   2.0000      -0.491956       -13.3868
  51   2.0000      -0.484771       -13.1913
  52   2.0000      -0.476207       -12.9583
  53   2.0000      -0.462751       -12.5921
  54   2.0000      -0.459703       -12.5092
  55   2.0000      -0.454762       -12.3747
  56   2.0000      -0.442870       -12.0511
  57   2.0000      -0.441802       -12.0220
  58   2.0000      -0.430220       -11.7069
  59   2.0000      -0.422791       -11.5047
  60   2.0000      -0.419832       -11.4242
  61   2.0000      -0.416993       -11.3470
  62   2.0000      -0.402324       -10.9478
  63   2.0000      -0.345582        -9.4038
  64   2.0000      -0.333165        -9.0659
  65   2.0000      -0.326754        -8.8914
  66   2.0000      -0.291682        -7.9371
  67   0.0000       0.023512         0.6398
  68   0.0000       0.064900         1.7660
  69   0.0000       0.108828         2.9614
  70   0.0000       0.113573         3.0905
  71   0.0000       0.134521         3.6605

MULLIKEN ATOMIC CHARGES
-----------------------
   0 S :    0.099980
   1 C :   -0.101616
   2 C :   -0.085032
   3 C :    0.033961
   4 C :   -0.113917
   5 H :    0.000100
   6 C :    0.034604
   7 H :    0.029425
   8 H :    0.048244
   9 C :   -0.136348
  10 H :    0.039986
  11 H :    0.019233
  12 C :    0.010632
  13 H :    0.030379
  14 H :    0.014204
  15 H :    0.032946
  16 S :    0.113035
  17 C :   -0.093118
  18 C :   -0.027507
  19 C :   -0.023243
  20 C :   -0.197756
  21 H :    0.012511
  22 C :    0.042498
  23 H :    0.034334
  24 H :    0.046923
  25 C :   -0.083784
  26 H :    0.026935
  27 H :    0.021259
  28 C :   -0.023787
  29 H :    0.049564
  30 H :    0.023085
  31 H :    0.019633
  32 H :    0.037199
  33 H :    0.065438
Sum of atomic charges:   -0.0000000

LOEWDIN ATOMIC CHARGES
----------------------
   0 S :    0.381574
   1 C :   -0.192625
   2 C :   -0.059834
   3 C :   -0.063062
   4 C :   -0.172253
   5 H :    0.025066
   6 C :   -0.033139
   7 H :    0.030902
   8 H :    0.034820
   9 C :   -0.053152
  10 H :    0.025364
  11 H :    0.016017
  12 C :   -0.052611
  13 H :    0.027495
  14 H :    0.022241
  15 H :    0.021796
  16 S :    0.392011
  17 C :   -0.174353
  18 C :   -0.074799
  19 C :   -0.040250
  20 C :   -0.201417
  21 H :    0.028406
  22 C :   -0.032148
  23 H :    0.033629
  24 H :    0.033769
  25 C :   -0.045002
  26 H :    0.020904
  27 H :    0.021496
  28 C :   -0.063460
  29 H :    0.036156
  30 H :    0.018944
  31 H :    0.027617
  32 H :    0.025024
  33 H :    0.034873

  Mayer bond orders larger than 0.100000
B(  0-S ,  1-C ) :   1.1040 B(  0-S ,  4-C ) :   1.1474 B(  1-C ,  2-C ) :   1.6256
B(  1-C ,  4-C ) :   0.1016 B(  1-C , 32-H ) :   0.9691 B(  2-C ,  3-C ) :   1.2340
B(  2-C ,  6-C ) :   1.0035 B(  3-C ,  4-C ) :   1.5733 B(  3-C ,  5-H ) :   1.0092
B(  4-C , 20-C ) :   1.0604 B(  6-C ,  7-H ) :   0.9407 B(  6-C ,  8-H ) :   0.9466
B(  6-C ,  9-C ) :   1.0726 B(  9-C , 10-H ) :   0.9576 B(  9-C , 11-H ) :   0.9465
B(  9-C , 12-C ) :   1.0741 B( 12-C , 13-H ) :   0.9747 B( 12-C , 14-H ) :   0.9765
B( 12-C , 15-H ) :   0.9740 B( 16-S , 17-C ) :   1.1552 B( 16-S , 20-C ) :   1.1338
B( 17-C , 18-C ) :   1.6218 B( 17-C , 20-C ) :   0.1001 B( 17-C , 33-H ) :   0.9579
B( 18-C , 19-C ) :   1.2367 B( 18-C , 21-H ) :   0.9893 B( 19-C , 20-C ) :   1.5893
B( 19-C , 22-C ) :   1.0171 B( 22-C , 23-H ) :   0.9400 B( 22-C , 24-H ) :   0.9305
B( 22-C , 25-C ) :   1.0833 B( 25-C , 26-H ) :   0.9490 B( 25-C , 27-H ) :   0.9543
B( 25-C , 28-C ) :   1.0758 B( 28-C , 29-H ) :   0.9732 B( 28-C , 30-H ) :   0.9754
B( 28-C , 31-H ) :   0.9721

Dispersion correction           -0.013339172
FINAL SINGLE POINT ENERGY     -1339.859661915312

DIPOLE MOMENT
-------------
                                X             Y             Z
Electronic contribution:      9.78045     -24.58970      10.80171
Nuclear contribution   :    -10.06562      25.28148     -10.73123
                        -----------------------------------------
Total Dipole Moment    :     -0.28517       0.69178       0.07048
                        -----------------------------------------
Magnitude (a.u.)       :      0.75157
Magnitude (Debye)      :      1.91033

Rotational constants in cm-1:     0.018711     0.007613     0.005797
Rotational constants in MHz :   560.953658   228.243734   173.800441

                             ****ORCA TERMINATED NORMALLY****
TOTAL RUN TIME: 0 days 0 hours 0 minutes 20 seconds 827 msec
