                         Program Version 4.2.1 -  RELEASE  -
|  1> ! wB97X-D3 SP def2-SVP
|  2> %pal
|  3> nprocs 24
|  4> end
|  5>
|  6> * xyz 0 1
|  7> S 	 -2.86273 	 -27.4123 	 -116.485
|  8> C 	 -1.65542 	 -26.0982 	 -116.533
|  9> C 	 -0.6665 	 -26.3407 	 -115.618
| 10> C 	 -0.94945 	 -27.4305 	 -114.748
| 11> C 	 -2.13937 	 -28.0703 	 -115.04
| 12> H 	 -0.468367 	 -27.8118 	 -113.849
| 13> C 	 0.616472 	 -25.497 	 -115.41
| 14> H 	 0.879281 	 -25.0603 	 -116.293
| 15> H 	 1.37031 	 -26.1063 	 -115.04
| 16> C 	 0.230017 	 -24.4016 	 -114.427
| 17> H 	 -0.515313 	 -23.6517 	 -114.73
| 18> H 	 -0.340526 	 -24.7779 	 -113.523
| 19> C 	 1.45383 	 -23.6241 	 -113.908
| 20> H 	 1.95643 	 -23.1443 	 -114.761
| 21> H 	 1.11946 	 -22.8625 	 -113.218
| 22> H 	 2.2154 	 -24.2342 	 -113.352
| 23> S 	 -2.15484 	 -30.7949 	 -114.609
| 24> C 	 -3.12774 	 -31.4083 	 -113.334
| 25> C 	 -3.6711 	 -30.4252 	 -112.565
| 26> C 	 -3.27227 	 -29.1132 	 -113.027
| 27> C 	 -2.64511 	 -29.1549 	 -114.252
| 28> H 	 -4.16995 	 -30.6968 	 -111.556
| 29> C 	 -3.46518 	 -27.7758 	 -112.212
| 30> H 	 -2.63799 	 -27.0772 	 -112.267
| 31> H 	 -3.51229 	 -28.0066 	 -111.173
| 32> C 	 -4.77686 	 -26.9847 	 -112.67
| 33> H 	 -5.55534 	 -27.4935 	 -112.125
| 34> H 	 -4.93754 	 -27.2517 	 -113.718
| 35> C 	 -4.72236 	 -25.4631 	 -112.608
| 36> H 	 -3.87432 	 -24.9489 	 -112.929
| 37> H 	 -4.86973 	 -25.0497 	 -111.614
| 38> H 	 -5.65899 	 -25.0226 	 -113.058
| 39> H 	 -1.6199 	 -25.2202 	 -117.228
| 40> H 	 -3.1313 	 -32.4521 	 -113.083
| 41> *
| 42>
| 43>                          ****END OF INPUT****

CARTESIAN COORDINATES (ANGSTROEM)
---------------------------------
  S     -2.862730  -27.412300  -116.485000
  C     -1.655420  -26.098200  -116.533000
  C     -0.666500  -26.340700  -115.618000
  C     -0.949450  -27.430500  -114.748000
  C     -2.139370  -28.070300  -115.040000
  H     -0.468367  -27.811800  -113.849000
  C      0.616472  -25.497000  -115.410000
  H      0.879281  -25.060300  -116.293000
  H      1.370310  -26.106300  -115.040000
  C      0.230017  -24.401600  -114.427000
  H     -0.515313  -23.651700  -114.730000
  H     -0.340526  -24.777900  -113.523000
  C      1.453830  -23.624100  -113.908000
  H      1.956430  -23.144300  -114.761000
  H      1.119460  -22.862500  -113.218000
  H      2.215400  -24.234200  -113.352000
  S     -2.154840  -30.794900  -114.609000
  C     -3.127740  -31.408300  -113.334000
  C     -3.671100  -30.425200  -112.565000
  C     -3.272270  -29.113200  -113.027000
  C     -2.645110  -29.154900  -114.252000
  H     -4.169950  -30.696800  -111.556000
  C     -3.465180  -27.775800  -112.212000
  H     -2.637990  -27.077200  -112.267000
  H     -3.512290  -28.006600  -111.173000
  C     -4.776860  -26.984700  -112.670000
  H     -5.555340  -27.493500  -112.125000
  H     -4.937540  -27.251700  -113.718000
  C     -4.722360  -25.463100  -112.608000
  H     -3.874320  -24.948900  -112.929000
  H     -4.869730  -25.049700  -111.614000
  H     -5.658990  -25.022600  -113.058000
  H     -1.619900  -25.220200  -117.228000
  H     -3.131300  -32.452100  -113.083000

 Total Charge           Charge          ....    0
 Multiplicity           Mult            ....    1
 Number of Electrons    NEL             ....  134
 Basis Dimension        Dim             ....  322

ORBITAL ENERGIES
----------------

  NO   OCC          E(Eh)            E(eV)
   0   2.0000     -88.966732     -2420.9078
   1   2.0000     -88.962735     -2420.7991
   2   2.0000     -10.323195      -280.9084
   3   2.0000     -10.319657      -280.8121
   4   2.0000     -10.318108      -280.7700
   5   2.0000     -10.312774      -280.6249
   6   2.0000     -10.308157      -280.4992
   7   2.0000     -10.301724      -280.3242
   8   2.0000     -10.300655      -280.2951
   9   2.0000     -10.291884      -280.0564
  10   2.0000     -10.291431      -280.0441
  11   2.0000     -10.290490      -280.0185
  12   2.0000     -10.285139      -279.8729
  13   2.0000     -10.283067      -279.8165
  14   2.0000     -10.280183      -279.7380
  15   2.0000     -10.272934      -279.5408
  16   2.0000      -8.080640      -219.8854
  17   2.0000      -8.078422      -219.8250
  18   2.0000      -6.039218      -164.3355
  19   2.0000      -6.036829      -164.2705
  20   2.0000      -6.035274      -164.2282
  21   2.0000      -6.032911      -164.1639
  22   2.0000      -6.031349      -164.1214
  23   2.0000      -6.029115      -164.0606
  24   2.0000      -1.009121       -27.4596
  25   2.0000      -0.985369       -26.8132
  26   2.0000      -0.915131       -24.9020
  27   2.0000      -0.895364       -24.3641
  28   2.0000      -0.871149       -23.7052
  29   2.0000      -0.845660       -23.0116
  30   2.0000      -0.843937       -22.9647
  31   2.0000      -0.812040       -22.0967
  32   2.0000      -0.785337       -21.3701
  33   2.0000      -0.774068       -21.0635
  34   2.0000      -0.705500       -19.1976
  35   2.0000      -0.699768       -19.0417
  36   2.0000      -0.695571       -18.9275
  37   2.0000      -0.655131       -17.8270
  38   2.0000      -0.643328       -17.5058
  39   2.0000      -0.615570       -16.7505
  40   2.0000      -0.594229       -16.1698
  41   2.0000      -0.569540       -15.4980
  42   2.0000      -0.559124       -15.2145
  43   2.0000      -0.554201       -15.0806
  44   2.0000      -0.530699       -14.4411
  45   2.0000      -0.520351       -14.1595
  46   2.0000      -0.510466       -13.8905
  47   2.0000      -0.507196       -13.8015
  48   2.0000      -0.504825       -13.7370
  49   2.0000      -0.498792       -13.5728
  50   2.0000      -0.493795       -13.4368
  51   2.0000      -0.482826       -13.1384
  52   2.0000      -0.474734       -12.9182
  53   2.0000      -0.470065       -12.7911
  54   2.0000      -0.460043       -12.5184
  55   2.0000      -0.449796       -12.2396
  56   2.0000      -0.442695       -12.0464
  57   2.0000      -0.437749       -11.9118
  58   2.0000      -0.433099       -11.7852
  59   2.0000      -0.420191       -11.4340
  60   2.0000      -0.417996       -11.3742
  61   2.0000      -0.412303       -11.2193
  62   2.0000      -0.407194       -11.0803
  63   2.0000      -0.333643        -9.0789
  64   2.0000      -0.327990        -8.9251
  65   2.0000      -0.319641        -8.6979
  66   2.0000      -0.310841        -8.4584
  67   0.0000       0.047580         1.2947
  68   0.0000       0.051603         1.4042
  69   0.0000       0.109391         2.9767
  70   0.0000       0.117457         3.1962
  71   0.0000       0.127172         3.4605

MULLIKEN ATOMIC CHARGES
-----------------------
   0 S :    0.119823
   1 C :   -0.145935
   2 C :   -0.102250
   3 C :    0.038794
   4 C :   -0.174811
   5 H :    0.019236
   6 C :    0.210790
   7 H :   -0.004453
   8 H :    0.011062
   9 C :   -0.136290
  10 H :    0.028642
  11 H :    0.029230
  12 C :   -0.048345
  13 H :    0.030074
  14 H :    0.031153
  15 H :    0.037280
  16 S :    0.116880
  17 C :   -0.090442
  18 C :   -0.052548
  19 C :   -0.044301
  20 C :   -0.192329
  21 H :    0.053053
  22 C :    0.081387
  23 H :    0.015155
  24 H :    0.015350
  25 C :   -0.060513
  26 H :    0.024652
  27 H :    0.034748
  28 C :   -0.034251
  29 H :    0.029558
  30 H :    0.010909
  31 H :    0.032994
  32 H :    0.060837
  33 H :    0.054863
Sum of atomic charges:    0.0000000

LOEWDIN ATOMIC CHARGES
----------------------
   0 S :    0.397271
   1 C :   -0.200308
   2 C :   -0.056047
   3 C :   -0.060735
   4 C :   -0.200517
   5 H :    0.035393
   6 C :   -0.004934
   7 H :    0.017590
   8 H :    0.025346
   9 C :   -0.048322
  10 H :    0.027156
  11 H :    0.026792
  12 C :   -0.071954
  13 H :    0.023667
  14 H :    0.023962
  15 H :    0.026673
  16 S :    0.418596
  17 C :   -0.190418
  18 C :   -0.089052
  19 C :   -0.044609
  20 C :   -0.211220
  21 H :    0.049091
  22 C :   -0.023518
  23 H :    0.024090
  24 H :    0.021799
  25 C :   -0.036900
  26 H :    0.023446
  27 H :    0.024153
  28 C :   -0.071719
  29 H :    0.018603
  30 H :    0.022043
  31 H :    0.037285
  32 H :    0.040465
  33 H :    0.026831

  Mayer bond orders larger than 0.100000
B(  0-S ,  1-C ) :   1.1241 B(  0-S ,  4-C ) :   1.1394 B(  1-C ,  2-C ) :   1.6366
B(  1-C , 32-H ) :   0.9625 B(  2-C ,  3-C ) :   1.2065 B(  2-C ,  6-C ) :   1.0246
B(  3-C ,  4-C ) :   1.6039 B(  3-C ,  5-H ) :   0.9932 B(  4-C , 20-C ) :   1.0373
B(  6-C ,  7-H ) :   0.9267 B(  6-C ,  8-H ) :   0.9404 B(  6-C ,  9-C ) :   1.0531
B(  9-C , 10-H ) :   0.9548 B(  9-C , 11-H ) :   0.9586 B(  9-C , 12-C ) :   1.0831
B( 12-C , 13-H ) :   0.9722 B( 12-C , 14-H ) :   0.9734 B( 12-C , 15-H ) :   0.9768
B( 16-S , 17-C ) :   1.1684 B( 16-S , 20-C ) :   1.1417 B( 17-C , 18-C ) :   1.6190
B( 17-C , 33-H ) :   0.9672 B( 18-C , 19-C ) :   1.2405 B( 18-C , 21-H ) :   0.9736
B( 19-C , 20-C ) :   1.6123 B( 19-C , 22-C ) :   1.0390 B( 22-C , 23-H ) :   0.9466
B( 22-C , 24-H ) :   0.9407 B( 22-C , 25-C ) :   1.0360 B( 25-C , 26-H ) :   0.9580
B( 25-C , 27-H ) :   0.9671 B( 25-C , 28-C ) :   1.0780 B( 28-C , 29-H ) :   0.9766
B( 28-C , 30-H ) :   0.9712 B( 28-C , 31-H ) :   0.9705

Dispersion correction           -0.015175729
FINAL SINGLE POINT ENERGY     -1339.859319739388

DIPOLE MOMENT
-------------
                                X             Y             Z
Electronic contribution:     -4.51823     -25.00865     -13.88216
Nuclear contribution   :      4.81831      25.41504      14.42388
                        -----------------------------------------
Total Dipole Moment    :      0.30008       0.40640       0.54172
                        -----------------------------------------
Magnitude (a.u.)       :      0.74072
Magnitude (Debye)      :      1.88276

Rotational constants in cm-1:     0.018363     0.008781     0.007624
Rotational constants in MHz :   550.495239   263.262573   228.569249

                             ****ORCA TERMINATED NORMALLY****
TOTAL RUN TIME: 0 days 0 hours 0 minutes 20 seconds 915 msec
