                         Program Version 4.2.1 -  RELEASE  -
|  1> ! wB97X-D3 SP def2-SVP
|  2> %pal
|  3> nprocs 24
|  4> end
|  5>
|  6> * xyz 0 1
|  7> S 	 -0.549965 	 -23.8488 	 -110.64
|  8> C 	 0.489709 	 -23.5916 	 -112.065
|  9> C 	 1.58127 	 -24.4721 	 -112.097
| 10> C 	 1.64231 	 -25.2684 	 -110.833
| 11> C 	 0.50066 	 -25.0947 	 -110.012
| 12> H 	 2.31581 	 -25.9551 	 -110.514
| 13> C 	 2.58631 	 -24.5383 	 -113.162
| 14> H 	 2.68956 	 -23.5248 	 -113.716
| 15> H 	 2.30539 	 -25.2346 	 -113.986
| 16> C 	 4.01907 	 -24.4468 	 -112.691
| 17> H 	 4.04054 	 -23.6283 	 -111.931
| 18> H 	 4.33164 	 -25.3516 	 -112.212
| 19> C 	 5.01677 	 -24.1766 	 -113.83
| 20> H 	 4.6891 	 -24.7753 	 -114.716
| 21> H 	 5.0062 	 -23.1491 	 -114.11
| 22> H 	 6.01284 	 -24.3954 	 -113.488
| 23> S 	 -0.0864632 	 -24.9808 	 -107.414
| 24> C 	 -0.550137 	 -26.4441 	 -106.58
| 25> C 	 -0.381686 	 -27.5649 	 -107.35
| 26> C 	 0.0528401 	 -27.2326 	 -108.652
| 27> C 	 0.079859 	 -25.9013 	 -108.877
| 28> H 	 -0.693469 	 -28.4447 	 -106.851
| 29> C 	 0.321408 	 -28.3633 	 -109.587
| 30> H 	 0.517543 	 -27.8542 	 -110.508
| 31> H 	 -0.654012 	 -28.7642 	 -109.788
| 32> C 	 1.47774 	 -29.2399 	 -109.152
| 33> H 	 1.19868 	 -29.6361 	 -108.171
| 34> H 	 2.42854 	 -28.6923 	 -109.003
| 35> C 	 1.74916 	 -30.3715 	 -110.152
| 36> H 	 2.58389 	 -31.0404 	 -109.849
| 37> H 	 1.95738 	 -29.9749 	 -111.14
| 38> H 	 0.894575 	 -30.944 	 -110.339
| 39> H 	 0.312333 	 -22.8532 	 -112.799
| 40> H 	 -0.809402 	 -26.5161 	 -105.54
| 41> *
| 42>
| 43>                          ****END OF INPUT****

CARTESIAN COORDINATES (ANGSTROEM)
---------------------------------
  S     -0.549965  -23.848800  -110.640000
  C      0.489709  -23.591600  -112.065000
  C      1.581270  -24.472100  -112.097000
  C      1.642310  -25.268400  -110.833000
  C      0.500660  -25.094700  -110.012000
  H      2.315810  -25.955100  -110.514000
  C      2.586310  -24.538300  -113.162000
  H      2.689560  -23.524800  -113.716000
  H      2.305390  -25.234600  -113.986000
  C      4.019070  -24.446800  -112.691000
  H      4.040540  -23.628300  -111.931000
  H      4.331640  -25.351600  -112.212000
  C      5.016770  -24.176600  -113.830000
  H      4.689100  -24.775300  -114.716000
  H      5.006200  -23.149100  -114.110000
  H      6.012840  -24.395400  -113.488000
  S     -0.086463  -24.980800  -107.414000
  C     -0.550137  -26.444100  -106.580000
  C     -0.381686  -27.564900  -107.350000
  C      0.052840  -27.232600  -108.652000
  C      0.079859  -25.901300  -108.877000
  H     -0.693469  -28.444700  -106.851000
  C      0.321408  -28.363300  -109.587000
  H      0.517543  -27.854200  -110.508000
  H     -0.654012  -28.764200  -109.788000
  C      1.477740  -29.239900  -109.152000
  H      1.198680  -29.636100  -108.171000
  H      2.428540  -28.692300  -109.003000
  C      1.749160  -30.371500  -110.152000
  H      2.583890  -31.040400  -109.849000
  H      1.957380  -29.974900  -111.140000
  H      0.894575  -30.944000  -110.339000
  H      0.312333  -22.853200  -112.799000
  H     -0.809402  -26.516100  -105.540000

 Total Charge           Charge          ....    0
 Multiplicity           Mult            ....    1
 Number of Electrons    NEL             ....  134
 Basis Dimension        Dim             ....  322

ORBITAL ENERGIES
----------------

  NO   OCC          E(Eh)            E(eV)
   0   2.0000     -88.964688     -2420.8522
   1   2.0000     -88.961494     -2420.7653
   2   2.0000     -10.329966      -281.0927
   3   2.0000     -10.319237      -280.8007
   4   2.0000     -10.315404      -280.6964
   5   2.0000     -10.311462      -280.5891
   6   2.0000     -10.309506      -280.5359
   7   2.0000     -10.297241      -280.2022
   8   2.0000     -10.296390      -280.1790
   9   2.0000     -10.295612      -280.1578
  10   2.0000     -10.291364      -280.0423
  11   2.0000     -10.286618      -279.9131
  12   2.0000     -10.285558      -279.8843
  13   2.0000     -10.281914      -279.7851
  14   2.0000     -10.279090      -279.7083
  15   2.0000     -10.274881      -279.5937
  16   2.0000      -8.078909      -219.8383
  17   2.0000      -8.076973      -219.7856
  18   2.0000      -6.037463      -164.2877
  19   2.0000      -6.035449      -164.2329
  20   2.0000      -6.033418      -164.1776
  21   2.0000      -6.031511      -164.1258
  22   2.0000      -6.029725      -164.0772
  23   2.0000      -6.027589      -164.0190
  24   2.0000      -1.010193       -27.4888
  25   2.0000      -0.977694       -26.6044
  26   2.0000      -0.919915       -25.0322
  27   2.0000      -0.915058       -24.9000
  28   2.0000      -0.871497       -23.7146
  29   2.0000      -0.854541       -23.2532
  30   2.0000      -0.844018       -22.9669
  31   2.0000      -0.815997       -22.2044
  32   2.0000      -0.782903       -21.3039
  33   2.0000      -0.772991       -21.0342
  34   2.0000      -0.711962       -19.3735
  35   2.0000      -0.704775       -19.1779
  36   2.0000      -0.690431       -18.7876
  37   2.0000      -0.663898       -18.0656
  38   2.0000      -0.648116       -17.6361
  39   2.0000      -0.618823       -16.8390
  40   2.0000      -0.594360       -16.1734
  41   2.0000      -0.575531       -15.6610
  42   2.0000      -0.572196       -15.5703
  43   2.0000      -0.561598       -15.2819
  44   2.0000      -0.537985       -14.6393
  45   2.0000      -0.530975       -14.4486
  46   2.0000      -0.514872       -14.0104
  47   2.0000      -0.512775       -13.9533
  48   2.0000      -0.508219       -13.8293
  49   2.0000      -0.501634       -13.6502
  50   2.0000      -0.492958       -13.4141
  51   2.0000      -0.476985       -12.9794
  52   2.0000      -0.466757       -12.7011
  53   2.0000      -0.464884       -12.6501
  54   2.0000      -0.454560       -12.3692
  55   2.0000      -0.452990       -12.3265
  56   2.0000      -0.447531       -12.1779
  57   2.0000      -0.440967       -11.9993
  58   2.0000      -0.434534       -11.8243
  59   2.0000      -0.425618       -11.5816
  60   2.0000      -0.420977       -11.4554
  61   2.0000      -0.415640       -11.3101
  62   2.0000      -0.400455       -10.8969
  63   2.0000      -0.340628        -9.2690
  64   2.0000      -0.330747        -9.0001
  65   2.0000      -0.324922        -8.8416
  66   2.0000      -0.296834        -8.0773
  67   0.0000       0.033631         0.9152
  68   0.0000       0.070484         1.9180
  69   0.0000       0.112389         3.0583
  70   0.0000       0.119420         3.2496
  71   0.0000       0.128061         3.4847

MULLIKEN ATOMIC CHARGES
-----------------------
   0 S :    0.107806
   1 C :   -0.094381
   2 C :   -0.074086
   3 C :    0.087436
   4 C :   -0.174788
   5 H :   -0.033191
   6 C :   -0.007306
   7 H :    0.026026
   8 H :    0.058003
   9 C :   -0.096494
  10 H :    0.045014
  11 H :    0.024446
  12 C :   -0.034761
  13 H :    0.039183
  14 H :    0.028089
  15 H :    0.034314
  16 S :    0.103599
  17 C :   -0.085811
  18 C :   -0.040140
  19 C :   -0.049627
  20 C :   -0.143284
  21 H :    0.009487
  22 C :    0.116135
  23 H :   -0.006790
  24 H :    0.029375
  25 C :   -0.077641
  26 H :    0.026869
  27 H :    0.038819
  28 C :   -0.008280
  29 H :    0.042498
  30 H :    0.017942
  31 H :    0.010785
  32 H :    0.035101
  33 H :    0.045653
Sum of atomic charges:   -0.0000000

LOEWDIN ATOMIC CHARGES
----------------------
   0 S :    0.395073
   1 C :   -0.182075
   2 C :   -0.055525
   3 C :   -0.049209
   4 C :   -0.196043
   5 H :    0.010038
   6 C :   -0.056065
   7 H :    0.043469
   8 H :    0.037936
   9 C :   -0.041635
  10 H :    0.032981
  11 H :    0.011706
  12 C :   -0.060766
  13 H :    0.032313
  14 H :    0.019725
  15 H :    0.026610
  16 S :    0.407667
  17 C :   -0.174260
  18 C :   -0.070597
  19 C :   -0.051780
  20 C :   -0.209155
  21 H :    0.030179
  22 C :   -0.032010
  23 H :    0.023635
  24 H :    0.035330
  25 C :   -0.034404
  26 H :    0.022532
  27 H :    0.031312
  28 C :   -0.063036
  29 H :    0.031248
  30 H :    0.024273
  31 H :    0.016345
  32 H :    0.019694
  33 H :    0.024493

  Mayer bond orders larger than 0.100000
B(  0-S ,  1-C ) :   1.1260 B(  0-S ,  4-C ) :   1.1547 B(  1-C ,  2-C ) :   1.6244
B(  1-C , 32-H ) :   0.9752 B(  2-C ,  3-C ) :   1.1864 B(  2-C ,  6-C ) :   1.0436
B(  3-C ,  4-C ) :   1.5867 B(  3-C ,  5-H ) :   1.0094 B(  4-C , 20-C ) :   0.9994
B(  6-C ,  7-H ) :   0.9549 B(  6-C ,  8-H ) :   0.9285 B(  6-C ,  9-C ) :   1.0355
B(  9-C , 10-H ) :   0.9605 B(  9-C , 11-H ) :   0.9510 B(  9-C , 12-C ) :   1.0858
B( 12-C , 13-H ) :   0.9740 B( 12-C , 14-H ) :   0.9733 B( 12-C , 15-H ) :   0.9738
B( 16-S , 17-C ) :   1.1513 B( 16-S , 20-C ) :   1.1376 B( 17-C , 18-C ) :   1.6484
B( 17-C , 33-H ) :   0.9652 B( 18-C , 19-C ) :   1.1800 B( 18-C , 21-H ) :   1.0010
B( 19-C , 20-C ) :   1.6485 B( 19-C , 22-C ) :   1.0364 B( 22-C , 23-H ) :   0.9180
B( 22-C , 24-H ) :   0.9306 B( 22-C , 25-C ) :   1.0512 B( 25-C , 26-H ) :   0.9560
B( 25-C , 27-H ) :   0.9539 B( 25-C , 28-C ) :   1.0877 B( 28-C , 29-H ) :   0.9748
B( 28-C , 30-H ) :   0.9709 B( 28-C , 31-H ) :   0.9712

Dispersion correction           -0.013767292
FINAL SINGLE POINT ENERGY     -1339.855820864625

DIPOLE MOMENT
-------------
                                X             Y             Z
Electronic contribution:    -20.04539      15.31735      16.17651
Nuclear contribution   :     20.44529     -15.82269     -16.42406
                        -----------------------------------------
Total Dipole Moment    :      0.39989      -0.50534      -0.24755
                        -----------------------------------------
Magnitude (a.u.)       :      0.69034
Magnitude (Debye)      :      1.75470

Rotational constants in cm-1:     0.016996     0.008712     0.006463
Rotational constants in MHz :   509.512530   261.175058   193.769410

                             ****ORCA TERMINATED NORMALLY****
TOTAL RUN TIME: 0 days 0 hours 0 minutes 21 seconds 300 msec
