                         Program Version 4.2.1 -  RELEASE  -
|  1> ! wB97X-D3 SP def2-SVP
|  2> %pal
|  3> nprocs 24
|  4> end
|  5>
|  6> * xyz 0 1
|  7> S 	 -57.1779 	 -3.19315 	 -17.9666
|  8> C 	 -57.9398 	 -1.96436 	 -16.9711
|  9> C 	 -58.3232 	 -2.4339 	 -15.7039
| 10> C 	 -57.6802 	 -3.68907 	 -15.4689
| 11> C 	 -56.9158 	 -4.18513 	 -16.4984
| 12> H 	 -57.6024 	 -4.12875 	 -14.5193
| 13> C 	 -58.9949 	 -1.67956 	 -14.59
| 14> H 	 -59.4706 	 -2.38859 	 -13.992
| 15> H 	 -59.6806 	 -1.0269 	 -15.0613
| 16> C 	 -57.9676 	 -0.96265 	 -13.5953
| 17> H 	 -57.4026 	 -1.80735 	 -13.2787
| 18> H 	 -57.2502 	 -0.280804 	 -14.1964
| 19> C 	 -58.5421 	 -0.253222 	 -12.4751
| 20> H 	 -57.7805 	 0.246554 	 -11.8499
| 21> H 	 -59.2501 	 0.424699 	 -12.8126
| 22> H 	 -59.0168 	 -1.04598 	 -11.8645
| 23> S 	 -54.1852 	 -4.50597 	 -16.4678
| 24> C 	 -53.4869 	 -5.82542 	 -15.5786
| 25> C 	 -54.4144 	 -6.73171 	 -15.2197
| 26> C 	 -55.7488 	 -6.36933 	 -15.6503
| 27> C 	 -55.7958 	 -5.11432 	 -16.2602
| 28> H 	 -54.0641 	 -7.663 	 -14.7691
| 29> C 	 -56.8714 	 -7.26476 	 -15.4115
| 30> H 	 -57.6526 	 -6.50323 	 -15.2628
| 31> H 	 -56.7001 	 -7.70103 	 -14.4668
| 32> C 	 -57.4359 	 -8.1908 	 -16.4874
| 33> H 	 -58.4757 	 -8.42319 	 -16.2344
| 34> H 	 -57.0149 	 -9.20935 	 -16.4122
| 35> C 	 -57.365 	 -7.77811 	 -17.9291
| 36> H 	 -57.8952 	 -6.90219 	 -18.1656
| 37> H 	 -57.8396 	 -8.57552 	 -18.533
| 38> H 	 -56.3161 	 -7.74425 	 -18.3051
| 39> H 	 -58.269 	 -1.01737 	 -17.3749
| 40> H 	 -52.4354 	 -5.81761 	 -15.323
| 41> *
| 42>
| 43>                          ****END OF INPUT****

CARTESIAN COORDINATES (ANGSTROEM)
---------------------------------
  S    -57.177900   -3.193150  -17.966600
  C    -57.939800   -1.964360  -16.971100
  C    -58.323200   -2.433900  -15.703900
  C    -57.680200   -3.689070  -15.468900
  C    -56.915800   -4.185130  -16.498400
  H    -57.602400   -4.128750  -14.519300
  C    -58.994900   -1.679560  -14.590000
  H    -59.470600   -2.388590  -13.992000
  H    -59.680600   -1.026900  -15.061300
  C    -57.967600   -0.962650  -13.595300
  H    -57.402600   -1.807350  -13.278700
  H    -57.250200   -0.280804  -14.196400
  C    -58.542100   -0.253222  -12.475100
  H    -57.780500    0.246554  -11.849900
  H    -59.250100    0.424699  -12.812600
  H    -59.016800   -1.045980  -11.864500
  S    -54.185200   -4.505970  -16.467800
  C    -53.486900   -5.825420  -15.578600
  C    -54.414400   -6.731710  -15.219700
  C    -55.748800   -6.369330  -15.650300
  C    -55.795800   -5.114320  -16.260200
  H    -54.064100   -7.663000  -14.769100
  C    -56.871400   -7.264760  -15.411500
  H    -57.652600   -6.503230  -15.262800
  H    -56.700100   -7.701030  -14.466800
  C    -57.435900   -8.190800  -16.487400
  H    -58.475700   -8.423190  -16.234400
  H    -57.014900   -9.209350  -16.412200
  C    -57.365000   -7.778110  -17.929100
  H    -57.895200   -6.902190  -18.165600
  H    -57.839600   -8.575520  -18.533000
  H    -56.316100   -7.744250  -18.305100
  H    -58.269000   -1.017370  -17.374900
  H    -52.435400   -5.817610  -15.323000

 Total Charge           Charge          ....    0
 Multiplicity           Mult            ....    1
 Number of Electrons    NEL             ....  134
 Basis Dimension        Dim             ....  322

ORBITAL ENERGIES
----------------

  NO   OCC          E(Eh)            E(eV)
   0   2.0000     -88.967796     -2420.9368
   1   2.0000     -88.958741     -2420.6904
   2   2.0000     -10.331395      -281.1316
   3   2.0000     -10.324993      -280.9573
   4   2.0000     -10.317355      -280.7495
   5   2.0000     -10.311150      -280.5807
   6   2.0000     -10.303064      -280.3606
   7   2.0000     -10.299103      -280.2529
   8   2.0000     -10.290266      -280.0124
   9   2.0000     -10.289163      -279.9824
  10   2.0000     -10.289108      -279.9809
  11   2.0000     -10.287633      -279.9407
  12   2.0000     -10.282921      -279.8125
  13   2.0000     -10.278567      -279.6940
  14   2.0000     -10.273329      -279.5515
  15   2.0000     -10.269831      -279.4563
  16   2.0000      -8.081707      -219.9144
  17   2.0000      -8.074448      -219.7169
  18   2.0000      -6.040293      -164.3647
  19   2.0000      -6.036489      -164.2612
  20   2.0000      -6.032937      -164.1646
  21   2.0000      -6.032285      -164.1468
  22   2.0000      -6.028754      -164.0507
  23   2.0000      -6.025223      -163.9547
  24   2.0000      -1.005854       -27.3707
  25   2.0000      -0.983340       -26.7580
  26   2.0000      -0.916520       -24.9398
  27   2.0000      -0.911684       -24.8082
  28   2.0000      -0.871679       -23.7196
  29   2.0000      -0.857060       -23.3218
  30   2.0000      -0.850187       -23.1348
  31   2.0000      -0.818192       -22.2641
  32   2.0000      -0.784173       -21.3384
  33   2.0000      -0.771850       -21.0031
  34   2.0000      -0.706448       -19.2234
  35   2.0000      -0.695809       -18.9339
  36   2.0000      -0.691061       -18.8047
  37   2.0000      -0.659487       -17.9455
  38   2.0000      -0.642163       -17.4741
  39   2.0000      -0.621525       -16.9126
  40   2.0000      -0.586676       -15.9643
  41   2.0000      -0.578233       -15.7345
  42   2.0000      -0.564338       -15.3564
  43   2.0000      -0.555208       -15.1080
  44   2.0000      -0.546301       -14.8656
  45   2.0000      -0.530509       -14.4359
  46   2.0000      -0.517798       -14.0900
  47   2.0000      -0.513472       -13.9723
  48   2.0000      -0.509805       -13.8725
  49   2.0000      -0.502115       -13.6632
  50   2.0000      -0.491739       -13.3809
  51   2.0000      -0.479160       -13.0386
  52   2.0000      -0.471008       -12.8168
  53   2.0000      -0.464386       -12.6366
  54   2.0000      -0.453383       -12.3372
  55   2.0000      -0.450435       -12.2570
  56   2.0000      -0.446523       -12.1505
  57   2.0000      -0.434971       -11.8362
  58   2.0000      -0.433238       -11.7890
  59   2.0000      -0.425399       -11.5757
  60   2.0000      -0.419054       -11.4030
  61   2.0000      -0.414975       -11.2920
  62   2.0000      -0.399303       -10.8656
  63   2.0000      -0.348370        -9.4796
  64   2.0000      -0.327816        -8.9203
  65   2.0000      -0.321702        -8.7540
  66   2.0000      -0.290113        -7.8944
  67   0.0000       0.029770         0.8101
  68   0.0000       0.065075         1.7708
  69   0.0000       0.103639         2.8202
  70   0.0000       0.128478         3.4961
  71   0.0000       0.130243         3.5441

MULLIKEN ATOMIC CHARGES
-----------------------
   0 S :    0.108699
   1 C :   -0.130745
   2 C :   -0.088439
   3 C :    0.050421
   4 C :   -0.172300
   5 H :    0.004931
   6 C :    0.105770
   7 H :    0.005486
   8 H :    0.015645
   9 C :   -0.109933
  10 H :    0.015104
  11 H :    0.036227
  12 C :    0.015175
  13 H :    0.044856
  14 H :    0.019671
  15 H :    0.022438
  16 S :    0.102166
  17 C :   -0.102169
  18 C :   -0.018019
  19 C :   -0.106759
  20 C :   -0.128142
  21 H :    0.023442
  22 C :    0.122887
  23 H :    0.008962
  24 H :    0.008634
  25 C :   -0.056120
  26 H :    0.020543
  27 H :    0.016890
  28 C :   -0.038155
  29 H :    0.025766
  30 H :    0.027195
  31 H :    0.045361
  32 H :    0.045901
  33 H :    0.058611
Sum of atomic charges:   -0.0000000

LOEWDIN ATOMIC CHARGES
----------------------
   0 S :    0.379731
   1 C :   -0.185751
   2 C :   -0.058920
   3 C :   -0.047400
   4 C :   -0.186455
   5 H :    0.021652
   6 C :   -0.019629
   7 H :    0.022732
   8 H :    0.022630
   9 C :   -0.039074
  10 H :    0.017451
  11 H :    0.028370
  12 C :   -0.061990
  13 H :    0.035474
  14 H :    0.016701
  15 H :    0.029926
  16 S :    0.413511
  17 C :   -0.182805
  18 C :   -0.078847
  19 C :   -0.057541
  20 C :   -0.204114
  21 H :    0.035891
  22 C :   -0.041960
  23 H :    0.037361
  24 H :    0.026818
  25 C :   -0.041847
  26 H :    0.026401
  27 H :    0.023223
  28 C :   -0.064347
  29 H :    0.016276
  30 H :    0.032167
  31 H :    0.032429
  32 H :    0.022830
  33 H :    0.029107

  Mayer bond orders larger than 0.100000
B(  0-S ,  1-C ) :   1.1414 B(  0-S ,  4-C ) :   1.1241 B(  1-C ,  2-C ) :   1.6030
B(  1-C , 32-H ) :   0.9675 B(  2-C ,  3-C ) :   1.2273 B(  2-C ,  6-C ) :   1.0504
B(  3-C ,  4-C ) :   1.5995 B(  3-C ,  5-H ) :   0.9857 B(  4-C , 20-C ) :   1.0238
B(  6-C ,  7-H ) :   0.9320 B(  6-C ,  8-H ) :   0.9354 B(  6-C ,  9-C ) :   1.0481
B(  9-C , 10-H ) :   0.9572 B(  9-C , 11-H ) :   0.9541 B(  9-C , 12-C ) :   1.0971
B( 12-C , 13-H ) :   0.9669 B( 12-C , 14-H ) :   0.9711 B( 12-C , 15-H ) :   0.9669
B( 16-S , 17-C ) :   1.1610 B( 16-S , 20-C ) :   1.1376 B( 17-C , 18-C ) :   1.6138
B( 17-C , 33-H ) :   0.9670 B( 18-C , 19-C ) :   1.2201 B( 18-C , 21-H ) :   0.9947
B( 19-C , 20-C ) :   1.5843 B( 19-C , 22-C ) :   1.0601 B( 22-C , 23-H ) :   0.9144
B( 22-C , 24-H ) :   0.9277 B( 22-C , 25-C ) :   1.0596 B( 25-C , 26-H ) :   0.9517
B( 25-C , 27-H ) :   0.9517 B( 25-C , 28-C ) :   1.1043 B( 28-C , 29-H ) :   0.9736
B( 28-C , 30-H ) :   0.9673 B( 28-C , 31-H ) :   0.9666

Dispersion correction           -0.014666566
FINAL SINGLE POINT ENERGY     -1339.855808038362

DIPOLE MOMENT
-------------
                                X             Y             Z
Electronic contribution:     13.02982       2.00108     -13.26213
Nuclear contribution   :    -13.24093      -2.04059      13.90283
                        -----------------------------------------
Total Dipole Moment    :     -0.21111      -0.03951       0.64070
                        -----------------------------------------
Magnitude (a.u.)       :      0.67574
Magnitude (Debye)      :      1.71761

Rotational constants in cm-1:     0.019299     0.008009     0.007654
Rotational constants in MHz :   578.582290   240.093671   229.467680

                             ****ORCA TERMINATED NORMALLY****
TOTAL RUN TIME: 0 days 0 hours 0 minutes 21 seconds 869 msec
