                         Program Version 4.2.1 -  RELEASE  -
|  1> ! wB97X-D3 SP def2-SVP
|  2> %pal
|  3> nprocs 24
|  4> end
|  5>
|  6> * xyz 0 1
|  7> S 	 -140.255 	 8.9813 	 5.20417
|  8> C 	 -139.232 	 9.20826 	 3.81912
|  9> C 	 -138.475 	 8.02891 	 3.59049
| 10> C 	 -138.61 	 7.10781 	 4.65898
| 11> C 	 -139.514 	 7.46573 	 5.63096
| 12> H 	 -138.173 	 6.1008 	 4.66121
| 13> C 	 -137.631 	 7.74146 	 2.34117
| 14> H 	 -138.282 	 7.23584 	 1.63004
| 15> H 	 -136.937 	 6.93391 	 2.6002
| 16> C 	 -136.831 	 8.87142 	 1.75476
| 17> H 	 -137.371 	 9.78434 	 1.64265
| 18> H 	 -136.01 	 9.14809 	 2.46906
| 19> C 	 -136.134 	 8.54111 	 0.434984
| 20> H 	 -135.547 	 9.44442 	 0.132096
| 21> H 	 -135.346 	 7.75927 	 0.450404
| 22> H 	 -136.77 	 8.22021 	 -0.383296
| 23> S 	 -139.943 	 4.96886 	 6.70123
| 24> C 	 -140.242 	 4.84728 	 8.41475
| 25> C 	 -140.267 	 6.07625 	 9.06441
| 26> C 	 -140.052 	 7.17491 	 8.15822
| 27> C 	 -139.839 	 6.72502 	 6.84656
| 28> H 	 -140.681 	 6.20269 	 10.0218
| 29> C 	 -140.175 	 8.62818 	 8.53438
| 30> H 	 -141.078 	 9.12322 	 8.08312
| 31> H 	 -139.31 	 9.14104 	 8.06159
| 32> C 	 -140.095 	 8.95148 	 10.025
| 33> H 	 -139.074 	 8.64022 	 10.3605
| 34> H 	 -140.824 	 8.31668 	 10.5463
| 35> C 	 -140.342 	 10.4875 	 10.1527
| 36> H 	 -139.803 	 11.0684 	 9.40762
| 37> H 	 -140.033 	 10.8873 	 11.08
| 38> H 	 -141.41 	 10.7414 	 10.013
| 39> H 	 -139.444 	 10.0314 	 3.05809
| 40> H 	 -140.359 	 3.84885 	 8.88895
| 41> *
| 42>
| 43>                          ****END OF INPUT****

CARTESIAN COORDINATES (ANGSTROEM)
---------------------------------
  S    -140.255000    8.981300    5.204170
  C    -139.232000    9.208260    3.819120
  C    -138.475000    8.028910    3.590490
  C    -138.610000    7.107810    4.658980
  C    -139.514000    7.465730    5.630960
  H    -138.173000    6.100800    4.661210
  C    -137.631000    7.741460    2.341170
  H    -138.282000    7.235840    1.630040
  H    -136.937000    6.933910    2.600200
  C    -136.831000    8.871420    1.754760
  H    -137.371000    9.784340    1.642650
  H    -136.010000    9.148090    2.469060
  C    -136.134000    8.541110    0.434984
  H    -135.547000    9.444420    0.132096
  H    -135.346000    7.759270    0.450404
  H    -136.770000    8.220210   -0.383296
  S    -139.943000    4.968860    6.701230
  C    -140.242000    4.847280    8.414750
  C    -140.267000    6.076250    9.064410
  C    -140.052000    7.174910    8.158220
  C    -139.839000    6.725020    6.846560
  H    -140.681000    6.202690   10.021800
  C    -140.175000    8.628180    8.534380
  H    -141.078000    9.123220    8.083120
  H    -139.310000    9.141040    8.061590
  C    -140.095000    8.951480   10.025000
  H    -139.074000    8.640220   10.360500
  H    -140.824000    8.316680   10.546300
  C    -140.342000   10.487500   10.152700
  H    -139.803000   11.068400    9.407620
  H    -140.033000   10.887300   11.080000
  H    -141.410000   10.741400   10.013000
  H    -139.444000   10.031400    3.058090
  H    -140.359000    3.848850    8.888950

 Total Charge           Charge          ....    0
 Multiplicity           Mult            ....    1
 Number of Electrons    NEL             ....  134
 Basis Dimension        Dim             ....  322

ORBITAL ENERGIES
----------------

  NO   OCC          E(Eh)            E(eV)
   0   2.0000     -88.968987     -2420.9692
   1   2.0000     -88.966609     -2420.9045
   2   2.0000     -10.327340      -281.0212
   3   2.0000     -10.326824      -281.0072
   4   2.0000     -10.322414      -280.8872
   5   2.0000     -10.319110      -280.7973
   6   2.0000     -10.305228      -280.4195
   7   2.0000     -10.304413      -280.3973
   8   2.0000     -10.293820      -280.1091
   9   2.0000     -10.292646      -280.0771
  10   2.0000     -10.291999      -280.0595
  11   2.0000     -10.291703      -280.0515
  12   2.0000     -10.290915      -280.0300
  13   2.0000     -10.287760      -279.9442
  14   2.0000     -10.282064      -279.7892
  15   2.0000     -10.278059      -279.6802
  16   2.0000      -8.083422      -219.9611
  17   2.0000      -8.081069      -219.8971
  18   2.0000      -6.041837      -164.4067
  19   2.0000      -6.039484      -164.3427
  20   2.0000      -6.038046      -164.3036
  21   2.0000      -6.035498      -164.2342
  22   2.0000      -6.034257      -164.2005
  23   2.0000      -6.032077      -164.1412
  24   2.0000      -1.005407       -27.3585
  25   2.0000      -0.982112       -26.7246
  26   2.0000      -0.911421       -24.8010
  27   2.0000      -0.909818       -24.7574
  28   2.0000      -0.866223       -23.5711
  29   2.0000      -0.853138       -23.2151
  30   2.0000      -0.845391       -23.0043
  31   2.0000      -0.810082       -22.0434
  32   2.0000      -0.781065       -21.2539
  33   2.0000      -0.767031       -20.8720
  34   2.0000      -0.710151       -19.3242
  35   2.0000      -0.702956       -19.1284
  36   2.0000      -0.689211       -18.7544
  37   2.0000      -0.657569       -17.8934
  38   2.0000      -0.634745       -17.2723
  39   2.0000      -0.613811       -16.7026
  40   2.0000      -0.601073       -16.3560
  41   2.0000      -0.568482       -15.4692
  42   2.0000      -0.566944       -15.4273
  43   2.0000      -0.555804       -15.1242
  44   2.0000      -0.526331       -14.3222
  45   2.0000      -0.519962       -14.1489
  46   2.0000      -0.514819       -14.0089
  47   2.0000      -0.510583       -13.8937
  48   2.0000      -0.505185       -13.7468
  49   2.0000      -0.495304       -13.4779
  50   2.0000      -0.486307       -13.2331
  51   2.0000      -0.475649       -12.9431
  52   2.0000      -0.468533       -12.7494
  53   2.0000      -0.466433       -12.6923
  54   2.0000      -0.457805       -12.4575
  55   2.0000      -0.454704       -12.3731
  56   2.0000      -0.448419       -12.2021
  57   2.0000      -0.438339       -11.9278
  58   2.0000      -0.433496       -11.7960
  59   2.0000      -0.425031       -11.5657
  60   2.0000      -0.423127       -11.5139
  61   2.0000      -0.416480       -11.3330
  62   2.0000      -0.412342       -11.2204
  63   2.0000      -0.349398        -9.5076
  64   2.0000      -0.333516        -9.0754
  65   2.0000      -0.327535        -8.9127
  66   2.0000      -0.284680        -7.7465
  67   0.0000       0.024848         0.6762
  68   0.0000       0.074253         2.0205
  69   0.0000       0.107320         2.9203
  70   0.0000       0.120477         3.2783
  71   0.0000       0.126134         3.4323

MULLIKEN ATOMIC CHARGES
-----------------------
   0 S :    0.107608
   1 C :   -0.161418
   2 C :   -0.096468
   3 C :   -0.000359
   4 C :   -0.144190
   5 H :    0.019623
   6 C :    0.083570
   7 H :    0.036609
   8 H :    0.016036
   9 C :   -0.069194
  10 H :    0.024506
  11 H :    0.038323
  12 C :   -0.075718
  13 H :    0.036868
  14 H :    0.028406
  15 H :    0.032528
  16 S :    0.108950
  17 C :   -0.104789
  18 C :   -0.017285
  19 C :   -0.025302
  20 C :   -0.138256
  21 H :    0.010113
  22 C :   -0.016874
  23 H :    0.053522
  24 H :    0.043435
  25 C :   -0.090889
  26 H :    0.039443
  27 H :    0.036053
  28 C :   -0.014560
  29 H :    0.026372
  30 H :    0.021225
  31 H :    0.035910
  32 H :    0.083240
  33 H :    0.072963
Sum of atomic charges:   -0.0000000

LOEWDIN ATOMIC CHARGES
----------------------
   0 S :    0.429827
   1 C :   -0.227630
   2 C :   -0.058950
   3 C :   -0.078347
   4 C :   -0.196151
   5 H :    0.030941
   6 C :   -0.035362
   7 H :    0.033471
   8 H :    0.031944
   9 C :   -0.043886
  10 H :    0.018899
  11 H :    0.036116
  12 C :   -0.072809
  13 H :    0.033245
  14 H :    0.025415
  15 H :    0.021752
  16 S :    0.410155
  17 C :   -0.185952
  18 C :   -0.071782
  19 C :   -0.053619
  20 C :   -0.194151
  21 H :    0.024641
  22 C :   -0.050672
  23 H :    0.033212
  24 H :    0.035216
  25 C :   -0.040137
  26 H :    0.029879
  27 H :    0.021083
  28 C :   -0.060113
  29 H :    0.027107
  30 H :    0.018064
  31 H :    0.030847
  32 H :    0.042691
  33 H :    0.035056

  Mayer bond orders larger than 0.100000
B(  0-S ,  1-C ) :   1.1547 B(  0-S ,  4-C ) :   1.1696 B(  1-C ,  2-C ) :   1.5595
B(  1-C ,  4-C ) :   0.1019 B(  1-C , 32-H ) :   0.9594 B(  2-C ,  3-C ) :   1.2971
B(  2-C ,  6-C ) :   1.0119 B(  3-C ,  4-C ) :   1.5418 B(  3-C ,  5-H ) :   0.9847
B(  4-C , 20-C ) :   1.0422 B(  6-C ,  7-H ) :   0.9331 B(  6-C ,  8-H ) :   0.9411
B(  6-C ,  9-C ) :   1.0677 B(  9-C , 10-H ) :   0.9556 B(  9-C , 11-H ) :   0.9527
B(  9-C , 12-C ) :   1.0840 B( 12-C , 13-H ) :   0.9732 B( 12-C , 14-H ) :   0.9751
B( 12-C , 15-H ) :   0.9761 B( 16-S , 17-C ) :   1.1672 B( 16-S , 20-C ) :   1.1419
B( 17-C , 18-C ) :   1.5916 B( 17-C , 33-H ) :   0.9595 B( 18-C , 19-C ) :   1.2590
B( 18-C , 21-H ) :   0.9890 B( 19-C , 20-C ) :   1.5769 B( 19-C , 22-C ) :   1.0268
B( 22-C , 23-H ) :   0.9412 B( 22-C , 24-H ) :   0.9233 B( 22-C , 25-C ) :   1.0734
B( 25-C , 26-H ) :   0.9570 B( 25-C , 27-H ) :   0.9513 B( 25-C , 28-C ) :   1.0750
B( 28-C , 29-H ) :   0.9731 B( 28-C , 30-H ) :   0.9740 B( 28-C , 31-H ) :   0.9744

Dispersion correction           -0.013278074
FINAL SINGLE POINT ENERGY     -1339.892215877592

DIPOLE MOMENT
-------------
                                X             Y             Z
Electronic contribution:    -10.70171     -13.62640       3.88091
Nuclear contribution   :     10.79013      13.71725      -3.92349
                        -----------------------------------------
Total Dipole Moment    :      0.08841       0.09084      -0.04258
                        -----------------------------------------
Magnitude (a.u.)       :      0.13373
Magnitude (Debye)      :      0.33991

Rotational constants in cm-1:     0.022030     0.006989     0.005667
Rotational constants in MHz :   660.455944   209.536236   169.902779

                             ****ORCA TERMINATED NORMALLY****
TOTAL RUN TIME: 0 days 0 hours 0 minutes 19 seconds 547 msec
