                         Program Version 4.2.1 -  RELEASE  -
|  1> ! wB97X-D3 SP def2-SVP
|  2> %pal
|  3> nprocs 24
|  4> end
|  5>
|  6> * xyz 0 1
|  7> S 	 -31.8912 	 13.1215 	 -1.18147
|  8> C 	 -33.0207 	 11.8053 	 -1.32041
|  9> C 	 -33.0293 	 11.0931 	 -0.168473
| 10> C 	 -32.281 	 11.6488 	 0.880197
| 11> C 	 -31.6844 	 12.8483 	 0.569928
| 12> H 	 -32 	 11.1908 	 1.84233
| 13> C 	 -33.6596 	 9.78227 	 -0.0212311
| 14> H 	 -33.7959 	 9.34715 	 1.01232
| 15> H 	 -32.9156 	 9.1074 	 -0.441483
| 16> C 	 -35.0293 	 9.74092 	 -0.816503
| 17> H 	 -34.8517 	 9.60957 	 -1.94045
| 18> H 	 -35.4691 	 8.74434 	 -0.415175
| 19> C 	 -36.094 	 10.7115 	 -0.408779
| 20> H 	 -35.779 	 11.6894 	 -0.708976
| 21> H 	 -37.0313 	 10.4159 	 -0.748384
| 22> H 	 -36.1582 	 10.724 	 0.714248
| 23> S 	 -29.0466 	 13.6223 	 0.942703
| 24> C 	 -28.6222 	 14.6288 	 2.26294
| 25> C 	 -29.6851 	 14.7264 	 3.13363
| 26> C 	 -30.8709 	 14.1058 	 2.65689
| 27> C 	 -30.7164 	 13.5784 	 1.36528
| 28> H 	 -29.5692 	 15.1455 	 4.0956
| 29> C 	 -32.125 	 14.0931 	 3.50676
| 30> H 	 -32.9865 	 13.7197 	 2.92833
| 31> H 	 -32.3959 	 15.1689 	 3.73984
| 32> C 	 -32.0886 	 13.4086 	 4.93566
| 33> H 	 -31.2643 	 13.6452 	 5.61551
| 34> H 	 -31.9817 	 12.2999 	 4.80892
| 35> C 	 -33.3552 	 13.607 	 5.87173
| 36> H 	 -33.2883 	 12.9068 	 6.71708
| 37> H 	 -34.2995 	 13.5433 	 5.34347
| 38> H 	 -33.2351 	 14.5907 	 6.46112
| 39> H 	 -33.6189 	 11.605 	 -2.20883
| 40> H 	 -27.5988 	 15.0096 	 2.52285
| 41> *
| 42>
| 43>                          ****END OF INPUT****

CARTESIAN COORDINATES (ANGSTROEM)
---------------------------------
  S    -31.891200   13.121500   -1.181470
  C    -33.020700   11.805300   -1.320410
  C    -33.029300   11.093100   -0.168473
  C    -32.281000   11.648800    0.880197
  C    -31.684400   12.848300    0.569928
  H    -32.000000   11.190800    1.842330
  C    -33.659600    9.782270   -0.021231
  H    -33.795900    9.347150    1.012320
  H    -32.915600    9.107400   -0.441483
  C    -35.029300    9.740920   -0.816503
  H    -34.851700    9.609570   -1.940450
  H    -35.469100    8.744340   -0.415175
  C    -36.094000   10.711500   -0.408779
  H    -35.779000   11.689400   -0.708976
  H    -37.031300   10.415900   -0.748384
  H    -36.158200   10.724000    0.714248
  S    -29.046600   13.622300    0.942703
  C    -28.622200   14.628800    2.262940
  C    -29.685100   14.726400    3.133630
  C    -30.870900   14.105800    2.656890
  C    -30.716400   13.578400    1.365280
  H    -29.569200   15.145500    4.095600
  C    -32.125000   14.093100    3.506760
  H    -32.986500   13.719700    2.928330
  H    -32.395900   15.168900    3.739840
  C    -32.088600   13.408600    4.935660
  H    -31.264300   13.645200    5.615510
  H    -31.981700   12.299900    4.808920
  C    -33.355200   13.607000    5.871730
  H    -33.288300   12.906800    6.717080
  H    -34.299500   13.543300    5.343470
  H    -33.235100   14.590700    6.461120
  H    -33.618900   11.605000   -2.208830
  H    -27.598800   15.009600    2.522850

 Total Charge           Charge          ....    0
 Multiplicity           Mult            ....    1
 Number of Electrons    NEL             ....  134
 Basis Dimension        Dim             ....  322

ORBITAL ENERGIES
----------------

  NO   OCC          E(Eh)            E(eV)
   0   2.0000     -88.965984     -2420.8875
   1   2.0000     -88.962749     -2420.7995
   2   2.0000     -10.329294      -281.0744
   3   2.0000     -10.324682      -280.9489
   4   2.0000     -10.317489      -280.7531
   5   2.0000     -10.311565      -280.5920
   6   2.0000     -10.303164      -280.3633
   7   2.0000     -10.300093      -280.2798
   8   2.0000     -10.299275      -280.2575
   9   2.0000     -10.297651      -280.2133
  10   2.0000     -10.294128      -280.1175
  11   2.0000     -10.293002      -280.0868
  12   2.0000     -10.292531      -280.0740
  13   2.0000     -10.289479      -279.9910
  14   2.0000     -10.287292      -279.9314
  15   2.0000     -10.273453      -279.5549
  16   2.0000      -8.081631      -219.9124
  17   2.0000      -8.077320      -219.7951
  18   2.0000      -6.040095      -164.3594
  19   2.0000      -6.035984      -164.2475
  20   2.0000      -6.035841      -164.2436
  21   2.0000      -6.032393      -164.1498
  22   2.0000      -6.031889      -164.1360
  23   2.0000      -6.028026      -164.0309
  24   2.0000      -1.011900       -27.5352
  25   2.0000      -0.992144       -26.9976
  26   2.0000      -0.913926       -24.8692
  27   2.0000      -0.896357       -24.3911
  28   2.0000      -0.871071       -23.7030
  29   2.0000      -0.852804       -23.2060
  30   2.0000      -0.847080       -23.0502
  31   2.0000      -0.816915       -22.2294
  32   2.0000      -0.782009       -21.2796
  33   2.0000      -0.769303       -20.9338
  34   2.0000      -0.706264       -19.2184
  35   2.0000      -0.696491       -18.9525
  36   2.0000      -0.690027       -18.7766
  37   2.0000      -0.658503       -17.9188
  38   2.0000      -0.640163       -17.4197
  39   2.0000      -0.610919       -16.6239
  40   2.0000      -0.594335       -16.1727
  41   2.0000      -0.581095       -15.8124
  42   2.0000      -0.559974       -15.2377
  43   2.0000      -0.551845       -15.0165
  44   2.0000      -0.539463       -14.6795
  45   2.0000      -0.526377       -14.3235
  46   2.0000      -0.525047       -14.2873
  47   2.0000      -0.510660       -13.8958
  48   2.0000      -0.502745       -13.6804
  49   2.0000      -0.501522       -13.6471
  50   2.0000      -0.482478       -13.1289
  51   2.0000      -0.479956       -13.0603
  52   2.0000      -0.472789       -12.8652
  53   2.0000      -0.468379       -12.7452
  54   2.0000      -0.458760       -12.4835
  55   2.0000      -0.454743       -12.3742
  56   2.0000      -0.444373       -12.0920
  57   2.0000      -0.435050       -11.8383
  58   2.0000      -0.428838       -11.6693
  59   2.0000      -0.422248       -11.4899
  60   2.0000      -0.417895       -11.3715
  61   2.0000      -0.410185       -11.1617
  62   2.0000      -0.402491       -10.9523
  63   2.0000      -0.347240        -9.4489
  64   2.0000      -0.327064        -8.8999
  65   2.0000      -0.325029        -8.8445
  66   2.0000      -0.294840        -8.0230
  67   0.0000       0.030263         0.8235
  68   0.0000       0.065417         1.7801
  69   0.0000       0.114024         3.1028
  70   0.0000       0.120026         3.2661
  71   0.0000       0.132230         3.5982

MULLIKEN ATOMIC CHARGES
-----------------------
   0 S :    0.099741
   1 C :   -0.127100
   2 C :   -0.073304
   3 C :    0.027742
   4 C :   -0.178055
   5 H :    0.027228
   6 C :    0.059596
   7 H :    0.031753
   8 H :    0.045107
   9 C :   -0.180407
  10 H :    0.051291
  11 H :    0.030574
  12 C :    0.023157
  13 H :    0.027054
  14 H :    0.028244
  15 H :    0.026007
  16 S :    0.126125
  17 C :   -0.106101
  18 C :   -0.023565
  19 C :   -0.015215
  20 C :   -0.150217
  21 H :    0.002682
  22 C :    0.047988
  23 H :    0.034319
  24 H :    0.038324
  25 C :   -0.102225
  26 H :    0.029925
  27 H :    0.030723
  28 C :   -0.087208
  29 H :    0.035815
  30 H :    0.046900
  31 H :    0.039413
  32 H :    0.058134
  33 H :    0.075555
Sum of atomic charges:    0.0000000

LOEWDIN ATOMIC CHARGES
----------------------
   0 S :    0.395637
   1 C :   -0.198863
   2 C :   -0.077470
   3 C :   -0.059391
   4 C :   -0.183279
   5 H :    0.038921
   6 C :   -0.038321
   7 H :    0.034249
   8 H :    0.040293
   9 C :   -0.054942
  10 H :    0.028113
  11 H :    0.031112
  12 C :   -0.058311
  13 H :    0.019160
  14 H :    0.019746
  15 H :    0.034496
  16 S :    0.437430
  17 C :   -0.206067
  18 C :   -0.068543
  19 C :   -0.057692
  20 C :   -0.216705
  21 H :    0.024363
  22 C :   -0.039733
  23 H :    0.032776
  24 H :    0.038240
  25 C :   -0.048032
  26 H :    0.023429
  27 H :    0.022534
  28 C :   -0.073636
  29 H :    0.028812
  30 H :    0.022961
  31 H :    0.032310
  32 H :    0.032918
  33 H :    0.043483

  Mayer bond orders larger than 0.100000
B(  0-S ,  1-C ) :   1.1316 B(  0-S ,  4-C ) :   1.1497 B(  1-C ,  2-C ) :   1.5908
B(  1-C , 32-H ) :   0.9677 B(  2-C ,  3-C ) :   1.2513 B(  2-C ,  6-C ) :   1.0176
B(  3-C ,  4-C ) :   1.5620 B(  3-C ,  5-H ) :   0.9940 B(  4-C , 20-C ) :   1.0408
B(  6-C ,  7-H ) :   0.9500 B(  6-C ,  8-H ) :   0.9286 B(  6-C ,  9-C ) :   1.0707
B(  9-C , 10-H ) :   0.9494 B(  9-C , 11-H ) :   0.9599 B(  9-C , 12-C ) :   1.0742
B( 12-C , 13-H ) :   0.9693 B( 12-C , 14-H ) :   0.9728 B( 12-C , 15-H ) :   0.9679
B( 16-S , 17-C ) :   1.1686 B( 16-S , 20-C ) :   1.1639 B( 17-C , 18-C ) :   1.5759
B( 17-C , 33-H ) :   0.9619 B( 18-C , 19-C ) :   1.2731 B( 18-C , 21-H ) :   0.9985
B( 19-C , 20-C ) :   1.5503 B( 19-C , 22-C ) :   1.0581 B( 22-C , 23-H ) :   0.9322
B( 22-C , 24-H ) :   0.9403 B( 22-C , 25-C ) :   1.0395 B( 25-C , 26-H ) :   0.9595
B( 25-C , 27-H ) :   0.9596 B( 25-C , 28-C ) :   1.0755 B( 28-C , 29-H ) :   0.9744
B( 28-C , 30-H ) :   0.9784 B( 28-C , 31-H ) :   0.9766

Dispersion correction           -0.014051100
FINAL SINGLE POINT ENERGY     -1339.862541488273

DIPOLE MOMENT
-------------
                                X             Y             Z
Electronic contribution:     22.36525       9.66908     -16.10398
Nuclear contribution   :    -22.60397     -10.12577      16.64314
                        -----------------------------------------
Total Dipole Moment    :     -0.23872      -0.45668       0.53916
                        -----------------------------------------
Magnitude (a.u.)       :      0.74581
Magnitude (Debye)      :      1.89571

Rotational constants in cm-1:     0.017761     0.008810     0.006381
Rotational constants in MHz :   532.450384   264.126605   191.300850

                             ****ORCA TERMINATED NORMALLY****
TOTAL RUN TIME: 0 days 0 hours 0 minutes 21 seconds 381 msec
