                         Program Version 4.2.1 -  RELEASE  -
|  1> ! wB97X-D3 SP def2-SVP
|  2> %pal
|  3> nprocs 24
|  4> end
|  5>
|  6> * xyz 0 1
|  7> S 	 -86.6362 	 2.56345 	 -117.606
|  8> C 	 -86.1924 	 0.932512 	 -117.81
|  9> C 	 -87.3041 	 0.223504 	 -118.224
| 10> C 	 -88.5166 	 0.989235 	 -118.347
| 11> C 	 -88.3047 	 2.31844 	 -118.021
| 12> H 	 -89.4734 	 0.626655 	 -118.644
| 13> C 	 -87.1935 	 -1.25734 	 -118.511
| 14> H 	 -86.427 	 -1.5052 	 -119.279
| 15> H 	 -88.0799 	 -1.5817 	 -119.033
| 16> C 	 -87.0161 	 -2.22315 	 -117.376
| 17> H 	 -86.9822 	 -3.28824 	 -117.74
| 18> H 	 -86.0524 	 -2.02235 	 -116.903
| 19> C 	 -88.0294 	 -2.12909 	 -116.219
| 20> H 	 -87.9312 	 -1.07829 	 -115.928
| 21> H 	 -89.0451 	 -2.37096 	 -116.564
| 22> H 	 -87.8321 	 -2.7301 	 -115.386
| 23> S 	 -88.7122 	 4.95215 	 -118.761
| 24> C 	 -90.3044 	 5.68124 	 -118.647
| 25> C 	 -91.1703 	 4.81954 	 -117.959
| 26> C 	 -90.5917 	 3.53609 	 -117.594
| 27> C 	 -89.2817 	 3.45282 	 -117.982
| 28> H 	 -92.1083 	 5.25023 	 -117.827
| 29> C 	 -91.3241 	 2.42048 	 -117.067
| 30> H 	 -90.6557 	 1.85413 	 -116.357
| 31> H 	 -91.5487 	 1.64861 	 -117.813
| 32> C 	 -92.6841 	 2.73364 	 -116.314
| 33> H 	 -93.2241 	 3.41282 	 -116.888
| 34> H 	 -92.5274 	 3.25162 	 -115.429
| 35> C 	 -93.5885 	 1.51271 	 -116.03
| 36> H 	 -93.1764 	 1.07848 	 -115.111
| 37> H 	 -93.592 	 0.720435 	 -116.776
| 38> H 	 -94.6174 	 1.88876 	 -115.79
| 39> H 	 -85.1445 	 0.526753 	 -117.643
| 40> H 	 -90.4273 	 6.69799 	 -118.981
| 41> *
| 42>
| 43>                          ****END OF INPUT****

CARTESIAN COORDINATES (ANGSTROEM)
---------------------------------
  S    -86.636200    2.563450  -117.606000
  C    -86.192400    0.932512  -117.810000
  C    -87.304100    0.223504  -118.224000
  C    -88.516600    0.989235  -118.347000
  C    -88.304700    2.318440  -118.021000
  H    -89.473400    0.626655  -118.644000
  C    -87.193500   -1.257340  -118.511000
  H    -86.427000   -1.505200  -119.279000
  H    -88.079900   -1.581700  -119.033000
  C    -87.016100   -2.223150  -117.376000
  H    -86.982200   -3.288240  -117.740000
  H    -86.052400   -2.022350  -116.903000
  C    -88.029400   -2.129090  -116.219000
  H    -87.931200   -1.078290  -115.928000
  H    -89.045100   -2.370960  -116.564000
  H    -87.832100   -2.730100  -115.386000
  S    -88.712200    4.952150  -118.761000
  C    -90.304400    5.681240  -118.647000
  C    -91.170300    4.819540  -117.959000
  C    -90.591700    3.536090  -117.594000
  C    -89.281700    3.452820  -117.982000
  H    -92.108300    5.250230  -117.827000
  C    -91.324100    2.420480  -117.067000
  H    -90.655700    1.854130  -116.357000
  H    -91.548700    1.648610  -117.813000
  C    -92.684100    2.733640  -116.314000
  H    -93.224100    3.412820  -116.888000
  H    -92.527400    3.251620  -115.429000
  C    -93.588500    1.512710  -116.030000
  H    -93.176400    1.078480  -115.111000
  H    -93.592000    0.720435  -116.776000
  H    -94.617400    1.888760  -115.790000
  H    -85.144500    0.526753  -117.643000
  H    -90.427300    6.697990  -118.981000

 Total Charge           Charge          ....    0
 Multiplicity           Mult            ....    1
 Number of Electrons    NEL             ....  134
 Basis Dimension        Dim             ....  322

ORBITAL ENERGIES
----------------

  NO   OCC          E(Eh)            E(eV)
   0   2.0000     -88.965840     -2420.8836
   1   2.0000     -88.961429     -2420.7636
   2   2.0000     -10.333942      -281.2009
   3   2.0000     -10.330334      -281.1027
   4   2.0000     -10.321536      -280.8633
   5   2.0000     -10.317731      -280.7597
   6   2.0000     -10.306133      -280.4441
   7   2.0000     -10.302951      -280.3576
   8   2.0000     -10.297875      -280.2194
   9   2.0000     -10.297604      -280.2121
  10   2.0000     -10.294557      -280.1291
  11   2.0000     -10.287453      -279.9358
  12   2.0000     -10.285597      -279.8853
  13   2.0000     -10.283955      -279.8406
  14   2.0000     -10.279609      -279.7224
  15   2.0000     -10.269797      -279.4554
  16   2.0000      -8.081668      -219.9134
  17   2.0000      -8.076060      -219.7608
  18   2.0000      -6.040134      -164.3604
  19   2.0000      -6.035777      -164.2418
  20   2.0000      -6.034577      -164.2092
  21   2.0000      -6.032643      -164.1566
  22   2.0000      -6.030538      -164.0993
  23   2.0000      -6.026859      -163.9992
  24   2.0000      -1.009610       -27.4729
  25   2.0000      -0.986297       -26.8385
  26   2.0000      -0.912828       -24.8393
  27   2.0000      -0.910036       -24.7633
  28   2.0000      -0.869023       -23.6473
  29   2.0000      -0.854212       -23.2443
  30   2.0000      -0.846387       -23.0313
  31   2.0000      -0.817733       -22.2516
  32   2.0000      -0.783505       -21.3203
  33   2.0000      -0.772665       -21.0253
  34   2.0000      -0.713951       -19.4276
  35   2.0000      -0.695992       -18.9389
  36   2.0000      -0.694336       -18.8938
  37   2.0000      -0.660219       -17.9655
  38   2.0000      -0.643989       -17.5238
  39   2.0000      -0.616908       -16.7869
  40   2.0000      -0.601158       -16.3584
  41   2.0000      -0.578196       -15.7335
  42   2.0000      -0.566110       -15.4046
  43   2.0000      -0.551572       -15.0090
  44   2.0000      -0.545385       -14.8407
  45   2.0000      -0.528773       -14.3887
  46   2.0000      -0.517305       -14.0766
  47   2.0000      -0.513279       -13.9670
  48   2.0000      -0.506582       -13.7848
  49   2.0000      -0.500131       -13.6093
  50   2.0000      -0.491478       -13.3738
  51   2.0000      -0.481448       -13.1009
  52   2.0000      -0.473392       -12.8816
  53   2.0000      -0.466214       -12.6863
  54   2.0000      -0.457482       -12.4487
  55   2.0000      -0.453347       -12.3362
  56   2.0000      -0.446118       -12.1395
  57   2.0000      -0.438697       -11.9376
  58   2.0000      -0.435779       -11.8582
  59   2.0000      -0.418776       -11.3955
  60   2.0000      -0.417326       -11.3560
  61   2.0000      -0.411759       -11.2045
  62   2.0000      -0.405429       -11.0323
  63   2.0000      -0.352420        -9.5898
  64   2.0000      -0.331754        -9.0275
  65   2.0000      -0.327569        -8.9136
  66   2.0000      -0.293999        -8.0001
  67   0.0000       0.028582         0.7778
  68   0.0000       0.071014         1.9324
  69   0.0000       0.113709         3.0942
  70   0.0000       0.119983         3.2649
  71   0.0000       0.127240         3.4624

MULLIKEN ATOMIC CHARGES
-----------------------
   0 S :    0.116636
   1 C :   -0.140102
   2 C :   -0.105292
   3 C :    0.043973
   4 C :   -0.143511
   5 H :   -0.001282
   6 C :    0.071994
   7 H :    0.039075
   8 H :    0.002279
   9 C :   -0.091741
  10 H :    0.033682
  11 H :    0.015907
  12 C :   -0.039776
  13 H :    0.041278
  14 H :    0.023445
  15 H :    0.025261
  16 S :    0.084574
  17 C :   -0.105062
  18 C :   -0.029997
  19 C :    0.024066
  20 C :   -0.131512
  21 H :    0.003148
  22 C :   -0.002599
  23 H :    0.042360
  24 H :    0.040254
  25 C :   -0.044526
  26 H :    0.010434
  27 H :    0.016719
  28 C :   -0.056565
  29 H :    0.030663
  30 H :    0.035010
  31 H :    0.042902
  32 H :    0.083522
  33 H :    0.064782
Sum of atomic charges:   -0.0000000

LOEWDIN ATOMIC CHARGES
----------------------
   0 S :    0.434696
   1 C :   -0.220748
   2 C :   -0.070080
   3 C :   -0.060702
   4 C :   -0.194718
   5 H :    0.027644
   6 C :   -0.042360
   7 H :    0.039344
   8 H :    0.024399
   9 C :   -0.044060
  10 H :    0.026957
  11 H :    0.017346
  12 C :   -0.063120
  13 H :    0.029817
  14 H :    0.021589
  15 H :    0.017593
  16 S :    0.383321
  17 C :   -0.173628
  18 C :   -0.065229
  19 C :   -0.060222
  20 C :   -0.180656
  21 H :    0.021747
  22 C :   -0.039127
  23 H :    0.041473
  24 H :    0.033183
  25 C :   -0.029775
  26 H :    0.010872
  27 H :    0.017921
  28 C :   -0.063920
  29 H :    0.026916
  30 H :    0.022232
  31 H :    0.034334
  32 H :    0.048998
  33 H :    0.027965

  Mayer bond orders larger than 0.100000
B(  0-S ,  1-C ) :   1.1547 B(  0-S ,  4-C ) :   1.1830 B(  1-C ,  2-C ) :   1.5720
B(  1-C , 32-H ) :   0.9656 B(  2-C ,  3-C ) :   1.2561 B(  2-C ,  6-C ) :   1.0207
B(  3-C ,  4-C ) :   1.5389 B(  3-C ,  5-H ) :   1.0055 B(  4-C , 20-C ) :   1.0101
B(  6-C ,  7-H ) :   0.9404 B(  6-C ,  8-H ) :   0.9360 B(  6-C ,  9-C ) :   1.0787
B(  9-C , 10-H ) :   0.9542 B(  9-C , 11-H ) :   0.9560 B(  9-C , 12-C ) :   1.0737
B( 12-C , 13-H ) :   0.9733 B( 12-C , 14-H ) :   0.9768 B( 12-C , 15-H ) :   0.9752
B( 16-S , 17-C ) :   1.1577 B( 16-S , 20-C ) :   1.1361 B( 17-C , 18-C ) :   1.6097
B( 17-C , 33-H ) :   0.9697 B( 18-C , 19-C ) :   1.1797 B( 18-C , 21-H ) :   1.0062
B( 19-C , 20-C ) :   1.6147 B( 19-C , 22-C ) :   1.0800 B( 22-C , 23-H ) :   0.9246
B( 22-C , 24-H ) :   0.9255 B( 22-C , 25-C ) :   1.0568 B( 25-C , 26-H ) :   0.9532
B( 25-C , 27-H ) :   0.9570 B( 25-C , 28-C ) :   1.0815 B( 28-C , 29-H ) :   0.9782
B( 28-C , 30-H ) :   0.9772 B( 28-C , 31-H ) :   0.9744

Dispersion correction           -0.013943585
FINAL SINGLE POINT ENERGY     -1339.877118092783

DIPOLE MOMENT
-------------
                                X             Y             Z
Electronic contribution:     15.58372      23.83679      -9.80597
Nuclear contribution   :    -16.01153     -24.20899       9.88657
                        -----------------------------------------
Total Dipole Moment    :     -0.42782      -0.37220       0.08061
                        -----------------------------------------
Magnitude (a.u.)       :      0.57276
Magnitude (Debye)      :      1.45585

Rotational constants in cm-1:     0.017161     0.009165     0.006320
Rotational constants in MHz :   514.460550   274.755812   189.468371

                             ****ORCA TERMINATED NORMALLY****
TOTAL RUN TIME: 0 days 0 hours 0 minutes 21 seconds 341 msec
