                         Program Version 4.2.1 -  RELEASE  -
|  1> ! wB97X-D3 SP def2-SVP
|  2> %pal
|  3> nprocs 24
|  4> end
|  5>
|  6> * xyz 0 1
|  7> S 	 17.3183 	 -4.24612 	 -115.111
|  8> C 	 17.7086 	 -5.02569 	 -113.602
|  9> C 	 16.8512 	 -6.09007 	 -113.352
| 10> C 	 15.9365 	 -6.28617 	 -114.437
| 11> C 	 16.0986 	 -5.38002 	 -115.475
| 12> H 	 15.1549 	 -7.03444 	 -114.476
| 13> C 	 17.0276 	 -6.97783 	 -112.11
| 14> H 	 16.1128 	 -7.42439 	 -111.849
| 15> H 	 17.5055 	 -6.4349 	 -111.279
| 16> C 	 17.9837 	 -8.22655 	 -112.203
| 17> H 	 18.9961 	 -7.99165 	 -111.973
| 18> H 	 17.7019 	 -8.97635 	 -111.533
| 19> C 	 17.993 	 -8.88652 	 -113.552
| 20> H 	 18.7005 	 -9.73237 	 -113.678
| 21> H 	 16.9971 	 -9.2476 	 -113.701
| 22> H 	 18.2905 	 -8.05555 	 -114.217
| 23> S 	 16.0664 	 -5.90937 	 -118.14
| 24> C 	 14.5473 	 -5.68446 	 -119.014
| 25> C 	 13.5047 	 -5.33306 	 -118.203
| 26> C 	 13.9241 	 -5.07604 	 -116.867
| 27> C 	 15.2435 	 -5.34749 	 -116.656
| 28> H 	 12.4849 	 -5.22416 	 -118.608
| 29> C 	 13.0641 	 -4.44303 	 -115.823
| 30> H 	 12.7976 	 -3.47804 	 -116.22
| 31> H 	 13.6417 	 -4.20388 	 -114.985
| 32> C 	 11.969 	 -5.2874 	 -115.298
| 33> H 	 11.1787 	 -5.50167 	 -115.912
| 34> H 	 11.3747 	 -4.64567 	 -114.625
| 35> C 	 12.4165 	 -6.52768 	 -114.583
| 36> H 	 13.0909 	 -6.24487 	 -113.801
| 37> H 	 12.9296 	 -7.17835 	 -115.316
| 38> H 	 11.5355 	 -7.06447 	 -114.243
| 39> H 	 18.4987 	 -4.73366 	 -112.958
| 40> H 	 14.3696 	 -5.81746 	 -120.097
| 41> *
| 42>
| 43>                          ****END OF INPUT****

CARTESIAN COORDINATES (ANGSTROEM)
---------------------------------
  S     17.318300   -4.246120  -115.111000
  C     17.708600   -5.025690  -113.602000
  C     16.851200   -6.090070  -113.352000
  C     15.936500   -6.286170  -114.437000
  C     16.098600   -5.380020  -115.475000
  H     15.154900   -7.034440  -114.476000
  C     17.027600   -6.977830  -112.110000
  H     16.112800   -7.424390  -111.849000
  H     17.505500   -6.434900  -111.279000
  C     17.983700   -8.226550  -112.203000
  H     18.996100   -7.991650  -111.973000
  H     17.701900   -8.976350  -111.533000
  C     17.993000   -8.886520  -113.552000
  H     18.700500   -9.732370  -113.678000
  H     16.997100   -9.247600  -113.701000
  H     18.290500   -8.055550  -114.217000
  S     16.066400   -5.909370  -118.140000
  C     14.547300   -5.684460  -119.014000
  C     13.504700   -5.333060  -118.203000
  C     13.924100   -5.076040  -116.867000
  C     15.243500   -5.347490  -116.656000
  H     12.484900   -5.224160  -118.608000
  C     13.064100   -4.443030  -115.823000
  H     12.797600   -3.478040  -116.220000
  H     13.641700   -4.203880  -114.985000
  C     11.969000   -5.287400  -115.298000
  H     11.178700   -5.501670  -115.912000
  H     11.374700   -4.645670  -114.625000
  C     12.416500   -6.527680  -114.583000
  H     13.090900   -6.244870  -113.801000
  H     12.929600   -7.178350  -115.316000
  H     11.535500   -7.064470  -114.243000
  H     18.498700   -4.733660  -112.958000
  H     14.369600   -5.817460  -120.097000

 Total Charge           Charge          ....    0
 Multiplicity           Mult            ....    1
 Number of Electrons    NEL             ....  134
 Basis Dimension        Dim             ....  322

ORBITAL ENERGIES
----------------

  NO   OCC          E(Eh)            E(eV)
   0   2.0000     -88.968119     -2420.9456
   1   2.0000     -88.962226     -2420.7852
   2   2.0000     -10.324937      -280.9558
   3   2.0000     -10.322641      -280.8933
   4   2.0000     -10.318432      -280.7788
   5   2.0000     -10.312524      -280.6180
   6   2.0000     -10.304473      -280.3990
   7   2.0000     -10.298303      -280.2311
   8   2.0000     -10.294412      -280.1252
   9   2.0000     -10.293304      -280.0950
  10   2.0000     -10.292918      -280.0845
  11   2.0000     -10.278704      -279.6978
  12   2.0000     -10.273786      -279.5639
  13   2.0000     -10.273098      -279.5452
  14   2.0000     -10.272501      -279.5290
  15   2.0000     -10.267590      -279.3953
  16   2.0000      -8.083574      -219.9652
  17   2.0000      -8.076444      -219.7712
  18   2.0000      -6.041922      -164.4090
  19   2.0000      -6.037843      -164.2980
  20   2.0000      -6.035002      -164.2208
  21   2.0000      -6.034603      -164.2099
  22   2.0000      -6.031178      -164.1167
  23   2.0000      -6.027024      -164.0037
  24   2.0000      -1.009098       -27.4590
  25   2.0000      -0.985233       -26.8096
  26   2.0000      -0.921919       -25.0867
  27   2.0000      -0.911641       -24.8070
  28   2.0000      -0.869772       -23.6677
  29   2.0000      -0.851377       -23.1671
  30   2.0000      -0.847443       -23.0601
  31   2.0000      -0.815692       -22.1961
  32   2.0000      -0.785995       -21.3880
  33   2.0000      -0.775376       -21.0990
  34   2.0000      -0.709671       -19.3111
  35   2.0000      -0.697246       -18.9730
  36   2.0000      -0.694526       -18.8990
  37   2.0000      -0.657156       -17.8821
  38   2.0000      -0.644699       -17.5431
  39   2.0000      -0.613693       -16.6994
  40   2.0000      -0.597981       -16.2719
  41   2.0000      -0.579708       -15.7747
  42   2.0000      -0.570401       -15.5214
  43   2.0000      -0.555348       -15.1118
  44   2.0000      -0.544155       -14.8072
  45   2.0000      -0.539530       -14.6814
  46   2.0000      -0.519228       -14.1289
  47   2.0000      -0.513192       -13.9647
  48   2.0000      -0.504878       -13.7384
  49   2.0000      -0.493728       -13.4350
  50   2.0000      -0.491768       -13.3817
  51   2.0000      -0.473235       -12.8774
  52   2.0000      -0.471242       -12.8231
  53   2.0000      -0.468305       -12.7432
  54   2.0000      -0.461562       -12.5598
  55   2.0000      -0.447351       -12.1730
  56   2.0000      -0.443943       -12.0803
  57   2.0000      -0.439684       -11.9644
  58   2.0000      -0.427823       -11.6416
  59   2.0000      -0.423269       -11.5177
  60   2.0000      -0.419899       -11.4260
  61   2.0000      -0.414915       -11.2904
  62   2.0000      -0.404753       -11.0139
  63   2.0000      -0.336363        -9.1529
  64   2.0000      -0.329503        -8.9662
  65   2.0000      -0.326915        -8.8958
  66   2.0000      -0.307024        -8.3546
  67   0.0000       0.041011         1.1160
  68   0.0000       0.062617         1.7039
  69   0.0000       0.116528         3.1709
  70   0.0000       0.117405         3.1948
  71   0.0000       0.129062         3.5120

MULLIKEN ATOMIC CHARGES
-----------------------
   0 S :    0.133059
   1 C :   -0.111726
   2 C :   -0.110195
   3 C :    0.055448
   4 C :   -0.171913
   5 H :    0.001095
   6 C :    0.106120
   7 H :    0.012837
   8 H :    0.033075
   9 C :   -0.065375
  10 H :    0.013028
  11 H :    0.012761
  12 C :   -0.068473
  13 H :    0.037796
  14 H :    0.019657
  15 H :    0.053683
  16 S :    0.099037
  17 C :   -0.088775
  18 C :   -0.049261
  19 C :   -0.036126
  20 C :   -0.192758
  21 H :    0.027185
  22 C :    0.140264
  23 H :    0.026178
  24 H :    0.001831
  25 C :   -0.052292
  26 H :   -0.007537
  27 H :    0.009918
  28 C :   -0.044668
  29 H :    0.034320
  30 H :    0.049817
  31 H :    0.033542
  32 H :    0.035792
  33 H :    0.062655
Sum of atomic charges:    0.0000000

LOEWDIN ATOMIC CHARGES
----------------------
   0 S :    0.436020
   1 C :   -0.193985
   2 C :   -0.065081
   3 C :   -0.056612
   4 C :   -0.222721
   5 H :    0.028929
   6 C :   -0.023653
   7 H :    0.023365
   8 H :    0.038143
   9 C :   -0.035889
  10 H :    0.013713
  11 H :    0.014792
  12 C :   -0.066006
  13 H :    0.027135
  14 H :    0.016940
  15 H :    0.031353
  16 S :    0.378481
  17 C :   -0.177097
  18 C :   -0.076724
  19 C :   -0.053211
  20 C :   -0.186982
  21 H :    0.037579
  22 C :   -0.023252
  23 H :    0.035320
  24 H :    0.026343
  25 C :   -0.043100
  26 H :    0.008498
  27 H :    0.027801
  28 C :   -0.056150
  29 H :    0.021219
  30 H :    0.028347
  31 H :    0.029038
  32 H :    0.021641
  33 H :    0.035804

  Mayer bond orders larger than 0.100000
B(  0-S ,  1-C ) :   1.1537 B(  0-S ,  4-C ) :   1.1740 B(  1-C ,  2-C ) :   1.5729
B(  1-C , 32-H ) :   0.9766 B(  2-C ,  3-C ) :   1.2483 B(  2-C ,  6-C ) :   1.0442
B(  3-C ,  4-C ) :   1.5576 B(  3-C ,  5-H ) :   0.9941 B(  4-C , 20-C ) :   1.0006
B(  6-C ,  7-H ) :   0.9356 B(  6-C ,  8-H ) :   0.9445 B(  6-C ,  9-C ) :   1.0553
B(  9-C , 10-H ) :   0.9587 B(  9-C , 11-H ) :   0.9580 B(  9-C , 12-C ) :   1.0921
B( 12-C , 13-H ) :   0.9733 B( 12-C , 14-H ) :   0.9783 B( 12-C , 15-H ) :   0.9662
B( 16-S , 17-C ) :   1.1402 B( 16-S , 20-C ) :   1.1233 B( 17-C , 18-C ) :   1.6544
B( 17-C , 33-H ) :   0.9601 B( 18-C , 19-C ) :   1.1955 B( 18-C , 21-H ) :   0.9874
B( 19-C , 20-C ) :   1.6522 B( 19-C , 22-C ) :   1.0457 B( 22-C , 23-H ) :   0.9267
B( 22-C , 24-H ) :   0.9222 B( 22-C , 25-C ) :   1.0740 B( 25-C , 26-H ) :   0.9515
B( 25-C , 27-H ) :   0.9427 B( 25-C , 28-C ) :   1.0846 B( 28-C , 29-H ) :   0.9698
B( 28-C , 30-H ) :   0.9672 B( 28-C , 31-H ) :   0.9648

Dispersion correction           -0.015942654
FINAL SINGLE POINT ENERGY     -1339.872260078959

DIPOLE MOMENT
-------------
                                X             Y             Z
Electronic contribution:      9.18727      13.00040     -16.85466
Nuclear contribution   :     -9.65121     -13.13144      17.21192
                        -----------------------------------------
Total Dipole Moment    :     -0.46394      -0.13104       0.35726
                        -----------------------------------------
Magnitude (a.u.)       :      0.60003
Magnitude (Debye)      :      1.52517

Rotational constants in cm-1:     0.019718     0.009195     0.008044
Rotational constants in MHz :   591.139296   275.673705   241.162496

                             ****ORCA TERMINATED NORMALLY****
TOTAL RUN TIME: 0 days 0 hours 0 minutes 22 seconds 863 msec
