                         Program Version 4.2.1 -  RELEASE  -
|  1> ! wB97X-D3 SP def2-SVP
|  2> %pal
|  3> nprocs 24
|  4> end
|  5>
|  6> * xyz 0 1
|  7> S 	 -141.184 	 8.56436 	 4.06475
|  8> C 	 -142.429 	 7.91846 	 3.05262
|  9> C 	 -141.998 	 7.58969 	 1.81898
| 10> C 	 -140.566 	 7.96937 	 1.66566
| 11> C 	 -139.986 	 8.47027 	 2.76122
| 12> H 	 -140.078 	 7.906 	 0.720761
| 13> C 	 -142.83 	 7.02718 	 0.745229
| 14> H 	 -142.622 	 7.5848 	 -0.199655
| 15> H 	 -143.848 	 7.15098 	 1.15818
| 16> C 	 -142.519 	 5.49302 	 0.42636
| 17> H 	 -141.471 	 5.37665 	 0.144632
| 18> H 	 -142.752 	 4.93503 	 1.33183
| 19> C 	 -143.413 	 4.98531 	 -0.757398
| 20> H 	 -143.152 	 5.55688 	 -1.64329
| 21> H 	 -143.266 	 3.98125 	 -1.05598
| 22> H 	 -144.497 	 5.08916 	 -0.548804
| 23> S 	 -138.532 	 10.7113 	 3.37961
| 24> C 	 -136.808 	 10.744 	 3.25248
| 25> C 	 -136.389 	 9.46502 	 2.81039
| 26> C 	 -137.417 	 8.52293 	 2.56377
| 27> C 	 -138.638 	 9.06528 	 2.84575
| 28> H 	 -135.355 	 9.28952 	 2.7118
| 29> C 	 -137.008 	 7.12056 	 2.08684
| 30> H 	 -136.522 	 7.16144 	 1.16892
| 31> H 	 -137.984 	 6.53125 	 1.91356
| 32> C 	 -136.149 	 6.28168 	 3.10059
| 33> H 	 -135.23 	 6.80556 	 3.35285
| 34> H 	 -135.892 	 5.35293 	 2.58555
| 35> C 	 -136.841 	 6.06756 	 4.47005
| 36> H 	 -137.722 	 5.48064 	 4.32691
| 37> H 	 -137.187 	 6.93936 	 4.88664
| 38> H 	 -136.149 	 5.5781 	 5.16798
| 39> H 	 -143.429 	 7.57116 	 3.52933
| 40> H 	 -136.239 	 11.5477 	 3.64139
| 41> *
| 42>
| 43>                          ****END OF INPUT****

CARTESIAN COORDINATES (ANGSTROEM)
---------------------------------
  S    -141.184000    8.564360    4.064750
  C    -142.429000    7.918460    3.052620
  C    -141.998000    7.589690    1.818980
  C    -140.566000    7.969370    1.665660
  C    -139.986000    8.470270    2.761220
  H    -140.078000    7.906000    0.720761
  C    -142.830000    7.027180    0.745229
  H    -142.622000    7.584800   -0.199655
  H    -143.848000    7.150980    1.158180
  C    -142.519000    5.493020    0.426360
  H    -141.471000    5.376650    0.144632
  H    -142.752000    4.935030    1.331830
  C    -143.413000    4.985310   -0.757398
  H    -143.152000    5.556880   -1.643290
  H    -143.266000    3.981250   -1.055980
  H    -144.497000    5.089160   -0.548804
  S    -138.532000   10.711300    3.379610
  C    -136.808000   10.744000    3.252480
  C    -136.389000    9.465020    2.810390
  C    -137.417000    8.522930    2.563770
  C    -138.638000    9.065280    2.845750
  H    -135.355000    9.289520    2.711800
  C    -137.008000    7.120560    2.086840
  H    -136.522000    7.161440    1.168920
  H    -137.984000    6.531250    1.913560
  C    -136.149000    6.281680    3.100590
  H    -135.230000    6.805560    3.352850
  H    -135.892000    5.352930    2.585550
  C    -136.841000    6.067560    4.470050
  H    -137.722000    5.480640    4.326910
  H    -137.187000    6.939360    4.886640
  H    -136.149000    5.578100    5.167980
  H    -143.429000    7.571160    3.529330
  H    -136.239000   11.547700    3.641390

 Total Charge           Charge          ....    0
 Multiplicity           Mult            ....    1
 Number of Electrons    NEL             ....  134
 Basis Dimension        Dim             ....  322

ORBITAL ENERGIES
----------------

  NO   OCC          E(Eh)            E(eV)
   0   2.0000     -88.964439     -2420.8455
   1   2.0000     -88.960667     -2420.7428
   2   2.0000     -10.327944      -281.0376
   3   2.0000     -10.326207      -280.9904
   4   2.0000     -10.316593      -280.7288
   5   2.0000     -10.316005      -280.7128
   6   2.0000     -10.301714      -280.3239
   7   2.0000     -10.298213      -280.2286
   8   2.0000     -10.298007      -280.2230
   9   2.0000     -10.296357      -280.1781
  10   2.0000     -10.294917      -280.1389
  11   2.0000     -10.291709      -280.0516
  12   2.0000     -10.291522      -280.0466
  13   2.0000     -10.288422      -279.9622
  14   2.0000     -10.279033      -279.7067
  15   2.0000     -10.264660      -279.3156
  16   2.0000      -8.079904      -219.8654
  17   2.0000      -8.075878      -219.7558
  18   2.0000      -6.038291      -164.3102
  19   2.0000      -6.034625      -164.2105
  20   2.0000      -6.034169      -164.1981
  21   2.0000      -6.030883      -164.1087
  22   2.0000      -6.030336      -164.0938
  23   2.0000      -6.026341      -163.9851
  24   2.0000      -1.009590       -27.4723
  25   2.0000      -0.987783       -26.8789
  26   2.0000      -0.907923       -24.7059
  27   2.0000      -0.903824       -24.5943
  28   2.0000      -0.869291       -23.6546
  29   2.0000      -0.849887       -23.1266
  30   2.0000      -0.843526       -22.9535
  31   2.0000      -0.816060       -22.2061
  32   2.0000      -0.784409       -21.3449
  33   2.0000      -0.770469       -20.9655
  34   2.0000      -0.707591       -19.2545
  35   2.0000      -0.699236       -19.0272
  36   2.0000      -0.692943       -18.8560
  37   2.0000      -0.665073       -18.0975
  38   2.0000      -0.638531       -17.3753
  39   2.0000      -0.620932       -16.8964
  40   2.0000      -0.598967       -16.2987
  41   2.0000      -0.573181       -15.5971
  42   2.0000      -0.555960       -15.1284
  43   2.0000      -0.551558       -15.0087
  44   2.0000      -0.540011       -14.6945
  45   2.0000      -0.524260       -14.2658
  46   2.0000      -0.517588       -14.0843
  47   2.0000      -0.513806       -13.9814
  48   2.0000      -0.506728       -13.7888
  49   2.0000      -0.495921       -13.4947
  50   2.0000      -0.493285       -13.4230
  51   2.0000      -0.477489       -12.9931
  52   2.0000      -0.465801       -12.6751
  53   2.0000      -0.462836       -12.5944
  54   2.0000      -0.454457       -12.3664
  55   2.0000      -0.448853       -12.2139
  56   2.0000      -0.444820       -12.1042
  57   2.0000      -0.436486       -11.8774
  58   2.0000      -0.434502       -11.8234
  59   2.0000      -0.427751       -11.6397
  60   2.0000      -0.423855       -11.5337
  61   2.0000      -0.419531       -11.4160
  62   2.0000      -0.413818       -11.2606
  63   2.0000      -0.351150        -9.5553
  64   2.0000      -0.332895        -9.0585
  65   2.0000      -0.321616        -8.7516
  66   2.0000      -0.300512        -8.1774
  67   0.0000       0.037899         1.0313
  68   0.0000       0.073881         2.0104
  69   0.0000       0.119264         3.2453
  70   0.0000       0.124387         3.3848
  71   0.0000       0.127074         3.4578

MULLIKEN ATOMIC CHARGES
-----------------------
   0 S :    0.094422
   1 C :   -0.159616
   2 C :   -0.087519
   3 C :    0.047751
   4 C :   -0.135356
   5 H :    0.001707
   6 C :    0.036151
   7 H :    0.039937
   8 H :    0.027953
   9 C :   -0.081509
  10 H :    0.035429
  11 H :    0.033745
  12 C :   -0.037716
  13 H :    0.023215
  14 H :    0.026942
  15 H :    0.035662
  16 S :    0.115950
  17 C :   -0.095432
  18 C :   -0.035185
  19 C :   -0.015950
  20 C :   -0.180159
  21 H :    0.004455
  22 C :    0.071662
  23 H :    0.024095
  24 H :    0.032127
  25 C :   -0.084537
  26 H :    0.026749
  27 H :    0.034545
  28 C :   -0.017143
  29 H :    0.020045
  30 H :    0.022234
  31 H :    0.036459
  32 H :    0.083254
  33 H :    0.055630
Sum of atomic charges:    0.0000000

LOEWDIN ATOMIC CHARGES
----------------------
   0 S :    0.385245
   1 C :   -0.213042
   2 C :   -0.071855
   3 C :   -0.054568
   4 C :   -0.184742
   5 H :    0.025454
   6 C :   -0.034324
   7 H :    0.037093
   8 H :    0.035231
   9 C :   -0.031549
  10 H :    0.023522
  11 H :    0.022873
  12 C :   -0.068026
  13 H :    0.023600
  14 H :    0.019586
  15 H :    0.028510
  16 S :    0.427782
  17 C :   -0.190897
  18 C :   -0.061906
  19 C :   -0.063248
  20 C :   -0.202042
  21 H :    0.020605
  22 C :   -0.026493
  23 H :    0.021897
  24 H :    0.036891
  25 C :   -0.033987
  26 H :    0.019129
  27 H :    0.025429
  28 C :   -0.054997
  29 H :    0.022243
  30 H :    0.015661
  31 H :    0.029564
  32 H :    0.047812
  33 H :    0.023549

  Mayer bond orders larger than 0.100000
B(  0-S ,  1-C ) :   1.1219 B(  0-S ,  4-C ) :   1.1231 B(  1-C ,  2-C ) :   1.6712
B(  1-C , 32-H ) :   0.9447 B(  2-C ,  3-C ) :   1.1824 B(  2-C ,  6-C ) :   1.0421
B(  3-C ,  4-C ) :   1.6382 B(  3-C ,  5-H ) :   0.9979 B(  4-C , 20-C ) :   1.0020
B(  6-C ,  7-H ) :   0.9370 B(  6-C ,  8-H ) :   0.9414 B(  6-C ,  9-C ) :   1.0525
B(  9-C , 10-H ) :   0.9605 B(  9-C , 11-H ) :   0.9588 B(  9-C , 12-C ) :   1.0761
B( 12-C , 13-H ) :   0.9748 B( 12-C , 14-H ) :   0.9762 B( 12-C , 15-H ) :   0.9765
B( 16-S , 17-C ) :   1.1670 B( 16-S , 20-C ) :   1.1721 B( 17-C , 18-C ) :   1.5656
B( 17-C , 20-C ) :   0.1046 B( 17-C , 33-H ) :   0.9782 B( 18-C , 19-C ) :   1.2532
B( 18-C , 21-H ) :   0.9988 B( 19-C , 20-C ) :   1.5901 B( 19-C , 22-C ) :   1.0315
B( 22-C , 23-H ) :   0.9364 B( 22-C , 24-H ) :   0.9354 B( 22-C , 25-C ) :   1.0752
B( 25-C , 26-H ) :   0.9587 B( 25-C , 27-H ) :   0.9574 B( 25-C , 28-C ) :   1.0678
B( 28-C , 29-H ) :   0.9755 B( 28-C , 30-H ) :   0.9745 B( 28-C , 31-H ) :   0.9751

Dispersion correction           -0.014276490
FINAL SINGLE POINT ENERGY     -1339.884737323033

DIPOLE MOMENT
-------------
                                X             Y             Z
Electronic contribution:      0.67431      23.44313      11.85704
Nuclear contribution   :     -0.52854     -23.92185     -12.25902
                        -----------------------------------------
Total Dipole Moment    :      0.14576      -0.47873      -0.40198
                        -----------------------------------------
Magnitude (a.u.)       :      0.64188
Magnitude (Debye)      :      1.63153

Rotational constants in cm-1:     0.019797     0.007969     0.006728
Rotational constants in MHz :   593.499092   238.897154   201.691991

                             ****ORCA TERMINATED NORMALLY****
TOTAL RUN TIME: 0 days 0 hours 0 minutes 20 seconds 294 msec
