                         Program Version 4.2.1 -  RELEASE  -
|  1> ! wB97X-D3 SP def2-SVP
|  2> %pal
|  3> nprocs 24
|  4> end
|  5>
|  6> * xyz 0 1
|  7> S 	 -49.3126 	 18.8069 	 22.9407
|  8> C 	 -49.0541 	 20.3513 	 23.6207
|  9> C 	 -48.6361 	 21.2615 	 22.6599
| 10> C 	 -48.691 	 20.7284 	 21.3719
| 11> C 	 -49.0667 	 19.3825 	 21.3339
| 12> H 	 -48.3879 	 21.2417 	 20.4155
| 13> C 	 -48.3329 	 22.6898 	 23.0114
| 14> H 	 -48.2524 	 22.8084 	 24.0834
| 15> H 	 -49.2244 	 23.2273 	 22.6248
| 16> C 	 -47.0859 	 23.3207 	 22.3999
| 17> H 	 -46.9111 	 23.2001 	 21.3423
| 18> H 	 -47.0981 	 24.4154 	 22.5167
| 19> C 	 -45.842 	 22.8041 	 23.1846
| 20> H 	 -46.0011 	 23.2069 	 24.2047
| 21> H 	 -45.6855 	 21.6979 	 23.2689
| 22> H 	 -44.8849 	 23.1907 	 22.7585
| 23> S 	 -50.1203 	 19.2141 	 18.8316
| 24> C 	 -50.0316 	 17.7286 	 17.9145
| 25> C 	 -49.4083 	 16.7001 	 18.6838
| 26> C 	 -48.8196 	 17.2055 	 19.8937
| 27> C 	 -49.1482 	 18.5472 	 20.1249
| 28> H 	 -49.3169 	 15.6785 	 18.3259
| 29> C 	 -47.796 	 16.4718 	 20.7421
| 30> H 	 -48.0951 	 15.3872 	 20.638
| 31> H 	 -48.057 	 16.7643 	 21.7702
| 32> C 	 -46.2948 	 16.7076 	 20.4691
| 33> H 	 -46.0542 	 16.3287 	 19.4559
| 34> H 	 -45.6586 	 16.0681 	 21.1512
| 35> C 	 -45.884 	 18.1059 	 20.789
| 36> H 	 -46.2544 	 18.404 	 21.8011
| 37> H 	 -46.2382 	 18.8831 	 20.0506
| 38> H 	 -44.8027 	 18.2687 	 20.7915
| 39> H 	 -49.2059 	 20.552 	 24.7071
| 40> H 	 -50.4686 	 17.5606 	 16.9332
| 41> *
| 42>
| 43>                          ****END OF INPUT****

CARTESIAN COORDINATES (ANGSTROEM)
---------------------------------
  S    -49.312600   18.806900   22.940700
  C    -49.054100   20.351300   23.620700
  C    -48.636100   21.261500   22.659900
  C    -48.691000   20.728400   21.371900
  C    -49.066700   19.382500   21.333900
  H    -48.387900   21.241700   20.415500
  C    -48.332900   22.689800   23.011400
  H    -48.252400   22.808400   24.083400
  H    -49.224400   23.227300   22.624800
  C    -47.085900   23.320700   22.399900
  H    -46.911100   23.200100   21.342300
  H    -47.098100   24.415400   22.516700
  C    -45.842000   22.804100   23.184600
  H    -46.001100   23.206900   24.204700
  H    -45.685500   21.697900   23.268900
  H    -44.884900   23.190700   22.758500
  S    -50.120300   19.214100   18.831600
  C    -50.031600   17.728600   17.914500
  C    -49.408300   16.700100   18.683800
  C    -48.819600   17.205500   19.893700
  C    -49.148200   18.547200   20.124900
  H    -49.316900   15.678500   18.325900
  C    -47.796000   16.471800   20.742100
  H    -48.095100   15.387200   20.638000
  H    -48.057000   16.764300   21.770200
  C    -46.294800   16.707600   20.469100
  H    -46.054200   16.328700   19.455900
  H    -45.658600   16.068100   21.151200
  C    -45.884000   18.105900   20.789000
  H    -46.254400   18.404000   21.801100
  H    -46.238200   18.883100   20.050600
  H    -44.802700   18.268700   20.791500
  H    -49.205900   20.552000   24.707100
  H    -50.468600   17.560600   16.933200

 Total Charge           Charge          ....    0
 Multiplicity           Mult            ....    1
 Number of Electrons    NEL             ....  134
 Basis Dimension        Dim             ....  322

ORBITAL ENERGIES
----------------

  NO   OCC          E(Eh)            E(eV)
   0   2.0000     -88.969006     -2420.9697
   1   2.0000     -88.968348     -2420.9518
   2   2.0000     -10.329301      -281.0746
   3   2.0000     -10.326424      -280.9963
   4   2.0000     -10.322477      -280.8889
   5   2.0000     -10.313350      -280.6405
   6   2.0000     -10.302995      -280.3587
   7   2.0000     -10.300777      -280.2984
   8   2.0000     -10.298866      -280.2464
   9   2.0000     -10.295523      -280.1554
  10   2.0000     -10.293988      -280.1136
  11   2.0000     -10.293065      -280.0885
  12   2.0000     -10.290451      -280.0174
  13   2.0000     -10.288994      -279.9778
  14   2.0000     -10.283140      -279.8185
  15   2.0000     -10.275038      -279.5980
  16   2.0000      -8.084236      -219.9832
  17   2.0000      -8.082719      -219.9420
  18   2.0000      -6.042589      -164.4272
  19   2.0000      -6.041148      -164.3880
  20   2.0000      -6.038534      -164.3169
  21   2.0000      -6.037166      -164.2796
  22   2.0000      -6.035293      -164.2287
  23   2.0000      -6.033693      -164.1851
  24   2.0000      -1.010902       -27.5080
  25   2.0000      -0.984630       -26.7932
  26   2.0000      -0.914124       -24.8746
  27   2.0000      -0.906158       -24.6578
  28   2.0000      -0.865462       -23.5504
  29   2.0000      -0.852354       -23.1937
  30   2.0000      -0.845029       -22.9944
  31   2.0000      -0.809048       -22.0153
  32   2.0000      -0.778413       -21.1817
  33   2.0000      -0.766278       -20.8515
  34   2.0000      -0.706809       -19.2332
  35   2.0000      -0.695921       -18.9370
  36   2.0000      -0.684025       -18.6133
  37   2.0000      -0.665783       -18.1169
  38   2.0000      -0.635054       -17.2807
  39   2.0000      -0.619731       -16.8637
  40   2.0000      -0.585763       -15.9394
  41   2.0000      -0.566646       -15.4192
  42   2.0000      -0.555919       -15.1273
  43   2.0000      -0.548258       -14.9189
  44   2.0000      -0.545609       -14.8468
  45   2.0000      -0.534527       -14.5452
  46   2.0000      -0.516444       -14.0531
  47   2.0000      -0.508491       -13.8367
  48   2.0000      -0.500782       -13.6270
  49   2.0000      -0.493336       -13.4244
  50   2.0000      -0.482175       -13.1206
  51   2.0000      -0.475031       -12.9263
  52   2.0000      -0.471050       -12.8179
  53   2.0000      -0.465844       -12.6762
  54   2.0000      -0.455843       -12.4041
  55   2.0000      -0.446978       -12.1629
  56   2.0000      -0.443941       -12.0802
  57   2.0000      -0.435130       -11.8405
  58   2.0000      -0.432815       -11.7775
  59   2.0000      -0.425608       -11.5814
  60   2.0000      -0.422148       -11.4872
  61   2.0000      -0.415000       -11.2927
  62   2.0000      -0.404002       -10.9934
  63   2.0000      -0.346884        -9.4392
  64   2.0000      -0.332185        -9.0392
  65   2.0000      -0.330409        -8.9909
  66   2.0000      -0.284469        -7.7408
  67   0.0000       0.025637         0.6976
  68   0.0000       0.071289         1.9399
  69   0.0000       0.111222         3.0265
  70   0.0000       0.116427         3.1681
  71   0.0000       0.132171         3.5965

MULLIKEN ATOMIC CHARGES
-----------------------
   0 S :    0.124541
   1 C :   -0.157312
   2 C :   -0.066794
   3 C :   -0.015534
   4 C :   -0.136727
   5 H :    0.034481
   6 C :    0.078901
   7 H :    0.011699
   8 H :    0.048437
   9 C :   -0.067390
  10 H :    0.029341
  11 H :    0.032251
  12 C :   -0.099193
  13 H :    0.028540
  14 H :    0.051082
  15 H :    0.038133
  16 S :    0.117703
  17 C :   -0.105154
  18 C :   -0.039306
  19 C :   -0.076101
  20 C :   -0.151319
  21 H :    0.023193
  22 C :    0.048710
  23 H :    0.027091
  24 H :    0.017047
  25 C :   -0.027482
  26 H :    0.028257
  27 H :    0.035290
  28 C :   -0.074258
  29 H :    0.037073
  30 H :    0.045334
  31 H :    0.028912
  32 H :    0.065584
  33 H :    0.064969
Sum of atomic charges:    0.0000000

LOEWDIN ATOMIC CHARGES
----------------------
   0 S :    0.449247
   1 C :   -0.221201
   2 C :   -0.068485
   3 C :   -0.075212
   4 C :   -0.204689
   5 H :    0.039096
   6 C :   -0.028935
   7 H :    0.027461
   8 H :    0.040494
   9 C :   -0.043385
  10 H :    0.019302
  11 H :    0.029219
  12 C :   -0.074293
  13 H :    0.024244
  14 H :    0.029618
  15 H :    0.026421
  16 S :    0.421645
  17 C :   -0.194423
  18 C :   -0.066641
  19 C :   -0.066706
  20 C :   -0.199885
  21 H :    0.031464
  22 C :   -0.039092
  23 H :    0.034477
  24 H :    0.017406
  25 C :   -0.042933
  26 H :    0.025539
  27 H :    0.033148
  28 C :   -0.075607
  29 H :    0.029501
  30 H :    0.030719
  31 H :    0.024358
  32 H :    0.037143
  33 H :    0.030984

  Mayer bond orders larger than 0.100000
B(  0-S ,  1-C ) :   1.1630 B(  0-S ,  4-C ) :   1.1748 B(  1-C ,  2-C ) :   1.5549
B(  1-C , 32-H ) :   0.9654 B(  2-C ,  3-C ) :   1.2890 B(  2-C ,  6-C ) :   1.0245
B(  3-C ,  4-C ) :   1.5156 B(  3-C ,  5-H ) :   0.9856 B(  4-C , 20-C ) :   1.0392
B(  6-C ,  7-H ) :   0.9432 B(  6-C ,  8-H ) :   0.9322 B(  6-C ,  9-C ) :   1.0739
B(  9-C , 10-H ) :   0.9591 B(  9-C , 11-H ) :   0.9546 B(  9-C , 12-C ) :   1.0594
B( 12-C , 13-H ) :   0.9762 B( 12-C , 14-H ) :   0.9803 B( 12-C , 15-H ) :   0.9754
B( 16-S , 17-C ) :   1.1665 B( 16-S , 20-C ) :   1.1549 B( 17-C , 18-C ) :   1.5716
B( 17-C , 20-C ) :   0.1068 B( 17-C , 33-H ) :   0.9693 B( 18-C , 19-C ) :   1.2702
B( 18-C , 21-H ) :   0.9891 B( 19-C , 20-C ) :   1.5575 B( 19-C , 22-C ) :   1.0364
B( 22-C , 23-H ) :   0.9317 B( 22-C , 24-H ) :   0.9304 B( 22-C , 25-C ) :   1.0701
B( 25-C , 26-H ) :   0.9517 B( 25-C , 27-H ) :   0.9502 B( 25-C , 28-C ) :   1.0833
B( 28-C , 29-H ) :   0.9692 B( 28-C , 30-H ) :   0.9693 B( 28-C , 31-H ) :   0.9712

Dispersion correction           -0.015919648
FINAL SINGLE POINT ENERGY     -1339.893129760353

DIPOLE MOMENT
-------------
                                X             Y             Z
Electronic contribution:    -20.54257      -7.92393      -6.37932
Nuclear contribution   :     20.85029       8.06212       6.41604
                        -----------------------------------------
Total Dipole Moment    :      0.30772       0.13820       0.03673
                        -----------------------------------------
Magnitude (a.u.)       :      0.33932
Magnitude (Debye)      :      0.86249

Rotational constants in cm-1:     0.021184     0.008852     0.008056
Rotational constants in MHz :   635.082558   265.388263   241.504250

                             ****ORCA TERMINATED NORMALLY****
TOTAL RUN TIME: 0 days 0 hours 0 minutes 22 seconds 683 msec
