                         Program Version 4.2.1 -  RELEASE  -
|  1> ! wB97X-D3 SP def2-SVP
|  2> %pal
|  3> nprocs 24
|  4> end
|  5>
|  6> * xyz 0 1
|  7> S 	 -98.8035 	 1.72444 	 -106.854
|  8> C 	 -98.9573 	 3.32785 	 -107.433
|  9> C 	 -97.8099 	 4.08897 	 -107.201
| 10> C 	 -96.7713 	 3.35828 	 -106.499
| 11> C 	 -97.1763 	 2.05184 	 -106.233
| 12> H 	 -95.6866 	 3.67499 	 -106.393
| 13> C 	 -97.5375 	 5.58737 	 -107.604
| 14> H 	 -97.1635 	 6.03154 	 -106.785
| 15> H 	 -98.5516 	 5.99164 	 -107.773
| 16> C 	 -96.6184 	 5.76901 	 -108.822
| 17> H 	 -95.5797 	 5.59037 	 -108.533
| 18> H 	 -96.8868 	 5.09009 	 -109.63
| 19> C 	 -96.6376 	 7.27231 	 -109.286
| 20> H 	 -97.5251 	 7.41403 	 -109.704
| 21> H 	 -96.5198 	 8.00853 	 -108.498
| 22> H 	 -95.7537 	 7.4293 	 -109.969
| 23> S 	 -95.5675 	 -0.100843 	 -106.888
| 24> C 	 -94.6464 	 -0.774284 	 -105.571
| 25> C 	 -94.9483 	 -0.265852 	 -104.364
| 26> C 	 -95.7393 	 0.884483 	 -104.47
| 27> C 	 -96.2593 	 1.02427 	 -105.738
| 28> H 	 -94.5246 	 -0.699125 	 -103.429
| 29> C 	 -95.9938 	 1.8789 	 -103.35
| 30> H 	 -95.8821 	 1.35315 	 -102.381
| 31> H 	 -96.9613 	 2.24804 	 -103.503
| 32> C 	 -94.974 	 3.05282 	 -103.209
| 33> H 	 -94.8917 	 3.68402 	 -104.105
| 34> H 	 -94.0313 	 2.58271 	 -103.218
| 35> C 	 -95.2233 	 3.97068 	 -102.005
| 36> H 	 -96.2917 	 4.30112 	 -101.883
| 37> H 	 -94.6936 	 4.85029 	 -102.129
| 38> H 	 -94.7891 	 3.61773 	 -101.097
| 39> H 	 -99.8459 	 3.58484 	 -107.987
| 40> H 	 -94.0008 	 -1.74454 	 -105.602
| 41> *
| 42>
| 43>                          ****END OF INPUT****

CARTESIAN COORDINATES (ANGSTROEM)
---------------------------------
  S    -98.803500    1.724440  -106.854000
  C    -98.957300    3.327850  -107.433000
  C    -97.809900    4.088970  -107.201000
  C    -96.771300    3.358280  -106.499000
  C    -97.176300    2.051840  -106.233000
  H    -95.686600    3.674990  -106.393000
  C    -97.537500    5.587370  -107.604000
  H    -97.163500    6.031540  -106.785000
  H    -98.551600    5.991640  -107.773000
  C    -96.618400    5.769010  -108.822000
  H    -95.579700    5.590370  -108.533000
  H    -96.886800    5.090090  -109.630000
  C    -96.637600    7.272310  -109.286000
  H    -97.525100    7.414030  -109.704000
  H    -96.519800    8.008530  -108.498000
  H    -95.753700    7.429300  -109.969000
  S    -95.567500   -0.100843  -106.888000
  C    -94.646400   -0.774284  -105.571000
  C    -94.948300   -0.265852  -104.364000
  C    -95.739300    0.884483  -104.470000
  C    -96.259300    1.024270  -105.738000
  H    -94.524600   -0.699125  -103.429000
  C    -95.993800    1.878900  -103.350000
  H    -95.882100    1.353150  -102.381000
  H    -96.961300    2.248040  -103.503000
  C    -94.974000    3.052820  -103.209000
  H    -94.891700    3.684020  -104.105000
  H    -94.031300    2.582710  -103.218000
  C    -95.223300    3.970680  -102.005000
  H    -96.291700    4.301120  -101.883000
  H    -94.693600    4.850290  -102.129000
  H    -94.789100    3.617730  -101.097000
  H    -99.845900    3.584840  -107.987000
  H    -94.000800   -1.744540  -105.602000

 Total Charge           Charge          ....    0
 Multiplicity           Mult            ....    1
 Number of Electrons    NEL             ....  134
 Basis Dimension        Dim             ....  322

ORBITAL ENERGIES
----------------

  NO   OCC          E(Eh)            E(eV)
   0   2.0000     -88.966955     -2420.9139
   1   2.0000     -88.966104     -2420.8908
   2   2.0000     -10.327631      -281.0291
   3   2.0000     -10.318982      -280.7938
   4   2.0000     -10.315863      -280.7089
   5   2.0000     -10.313968      -280.6573
   6   2.0000     -10.305346      -280.4227
   7   2.0000     -10.300179      -280.2821
   8   2.0000     -10.295929      -280.1665
   9   2.0000     -10.288772      -279.9717
  10   2.0000     -10.288013      -279.9511
  11   2.0000     -10.287318      -279.9321
  12   2.0000     -10.285750      -279.8895
  13   2.0000     -10.282386      -279.7979
  14   2.0000     -10.273293      -279.5505
  15   2.0000     -10.272832      -279.5380
  16   2.0000      -8.081929      -219.9205
  17   2.0000      -8.080953      -219.8939
  18   2.0000      -6.040329      -164.3657
  19   2.0000      -6.039371      -164.3396
  20   2.0000      -6.036371      -164.2580
  21   2.0000      -6.035641      -164.2381
  22   2.0000      -6.032836      -164.1618
  23   2.0000      -6.031604      -164.1283
  24   2.0000      -1.007480       -27.4149
  25   2.0000      -0.984393       -26.7867
  26   2.0000      -0.905726       -24.6461
  27   2.0000      -0.904326       -24.6080
  28   2.0000      -0.868707       -23.6387
  29   2.0000      -0.852962       -23.2103
  30   2.0000      -0.846467       -23.0335
  31   2.0000      -0.811827       -22.0909
  32   2.0000      -0.783191       -21.3117
  33   2.0000      -0.769339       -20.9348
  34   2.0000      -0.705666       -19.2022
  35   2.0000      -0.702601       -19.1188
  36   2.0000      -0.690398       -18.7867
  37   2.0000      -0.654541       -17.8110
  38   2.0000      -0.643813       -17.5190
  39   2.0000      -0.611474       -16.6391
  40   2.0000      -0.590168       -16.0593
  41   2.0000      -0.574882       -15.6433
  42   2.0000      -0.564602       -15.3636
  43   2.0000      -0.553331       -15.0569
  44   2.0000      -0.521379       -14.1875
  45   2.0000      -0.519515       -14.1367
  46   2.0000      -0.516576       -14.0568
  47   2.0000      -0.509343       -13.8599
  48   2.0000      -0.503525       -13.7016
  49   2.0000      -0.497292       -13.5320
  50   2.0000      -0.488524       -13.2934
  51   2.0000      -0.477434       -12.9916
  52   2.0000      -0.470255       -12.7963
  53   2.0000      -0.465548       -12.6682
  54   2.0000      -0.458446       -12.4749
  55   2.0000      -0.452408       -12.3106
  56   2.0000      -0.447548       -12.1784
  57   2.0000      -0.440118       -11.9762
  58   2.0000      -0.431672       -11.7464
  59   2.0000      -0.430446       -11.7130
  60   2.0000      -0.427833       -11.6419
  61   2.0000      -0.415763       -11.3135
  62   2.0000      -0.406911       -11.0726
  63   2.0000      -0.343495        -9.3470
  64   2.0000      -0.329107        -8.9554
  65   2.0000      -0.321273        -8.7423
  66   2.0000      -0.300960        -8.1895
  67   0.0000       0.041062         1.1173
  68   0.0000       0.062715         1.7066
  69   0.0000       0.120101         3.2681
  70   0.0000       0.123437         3.3589
  71   0.0000       0.124572         3.3898

MULLIKEN ATOMIC CHARGES
-----------------------
   0 S :    0.119318
   1 C :   -0.136557
   2 C :   -0.098662
   3 C :    0.012621
   4 C :   -0.187143
   5 H :    0.060146
   6 C :    0.112064
   7 H :   -0.001076
   8 H :    0.016902
   9 C :   -0.085073
  10 H :    0.027587
  11 H :    0.041001
  12 C :   -0.019696
  13 H :    0.007058
  14 H :    0.025161
  15 H :    0.042043
  16 S :    0.126312
  17 C :   -0.120375
  18 C :   -0.044574
  19 C :   -0.039953
  20 C :   -0.183163
  21 H :    0.030399
  22 C :    0.109038
  23 H :    0.018041
  24 H :    0.019877
  25 C :   -0.061891
  26 H :    0.010353
  27 H :    0.007380
  28 C :   -0.007806
  29 H :    0.042306
  30 H :    0.006407
  31 H :    0.022541
  32 H :    0.051181
  33 H :    0.078233
Sum of atomic charges:    0.0000000

LOEWDIN ATOMIC CHARGES
----------------------
   0 S :    0.414774
   1 C :   -0.212385
   2 C :   -0.060941
   3 C :   -0.064042
   4 C :   -0.198193
   5 H :    0.045884
   6 C :   -0.018931
   7 H :    0.012461
   8 H :    0.029560
   9 C :   -0.032794
  10 H :    0.022129
  11 H :    0.027058
  12 C :   -0.052941
  13 H :    0.002622
  14 H :    0.024550
  15 H :    0.034258
  16 S :    0.407828
  17 C :   -0.203087
  18 C :   -0.081663
  19 C :   -0.054278
  20 C :   -0.203952
  21 H :    0.040237
  22 C :   -0.021109
  23 H :    0.032965
  24 H :    0.021366
  25 C :   -0.036627
  26 H :    0.019505
  27 H :    0.017449
  28 C :   -0.063140
  29 H :    0.036070
  30 H :    0.018991
  31 H :    0.022453
  32 H :    0.026053
  33 H :    0.047870

  Mayer bond orders larger than 0.100000
B(  0-S ,  1-C ) :   1.1490 B(  0-S ,  4-C ) :   1.1550 B(  1-C ,  2-C ) :   1.6044
B(  1-C , 32-H ) :   0.9727 B(  2-C ,  3-C ) :   1.2420 B(  2-C ,  6-C ) :   1.0088
B(  3-C ,  4-C ) :   1.5874 B(  3-C ,  5-H ) :   0.9701 B(  4-C , 20-C ) :   1.0218
B(  6-C ,  7-H ) :   0.9350 B(  6-C ,  8-H ) :   0.9493 B(  6-C ,  9-C ) :   1.0661
B(  9-C , 10-H ) :   0.9573 B(  9-C , 11-H ) :   0.9610 B(  9-C , 12-C ) :   1.0723
B( 12-C , 13-H ) :   0.9799 B( 12-C , 14-H ) :   0.9742 B( 12-C , 15-H ) :   0.9772
B( 16-S , 17-C ) :   1.1459 B( 16-S , 20-C ) :   1.1404 B( 17-C , 18-C ) :   1.6515
B( 17-C , 33-H ) :   0.9457 B( 18-C , 19-C ) :   1.2333 B( 18-C , 21-H ) :   0.9804
B( 19-C , 20-C ) :   1.6228 B( 19-C , 22-C ) :   1.0542 B( 22-C , 23-H ) :   0.9363
B( 22-C , 24-H ) :   0.9192 B( 22-C , 25-C ) :   1.0628 B( 25-C , 26-H ) :   0.9527
B( 25-C , 27-H ) :   0.9512 B( 25-C , 28-C ) :   1.0871 B( 28-C , 29-H ) :   0.9735
B( 28-C , 30-H ) :   0.9686 B( 28-C , 31-H ) :   0.9729

Dispersion correction           -0.014210738
FINAL SINGLE POINT ENERGY     -1339.857943118581

DIPOLE MOMENT
-------------
                                X             Y             Z
Electronic contribution:     -7.77584     -26.22896      -6.54120
Nuclear contribution   :      8.07508      26.72611       6.69958
                        -----------------------------------------
Total Dipole Moment    :      0.29924       0.49715       0.15838
                        -----------------------------------------
Magnitude (a.u.)       :      0.60148
Magnitude (Debye)      :      1.52885

Rotational constants in cm-1:     0.016778     0.008496     0.006982
Rotational constants in MHz :   502.990092   254.716273   209.301074

                             ****ORCA TERMINATED NORMALLY****
TOTAL RUN TIME: 0 days 0 hours 0 minutes 20 seconds 97 msec
