                         Program Version 4.2.1 -  RELEASE  -
|  1> ! wB97X-D3 SP def2-SVP
|  2> %pal
|  3> nprocs 24
|  4> end
|  5>
|  6> * xyz 0 1
|  7> S 	 -127.929 	 61.9973 	 -54.1075
|  8> C 	 -128.927 	 61.2002 	 -55.2896
|  9> C 	 -128.252 	 60.7874 	 -56.423
| 10> C 	 -126.89 	 61.2016 	 -56.3804
| 11> C 	 -126.557 	 62.0171 	 -55.2741
| 12> H 	 -126.165 	 61.1742 	 -57.1438
| 13> C 	 -128.9 	 60.1485 	 -57.6847
| 14> H 	 -129.351 	 59.2972 	 -57.246
| 15> H 	 -128.181 	 59.7641 	 -58.3857
| 16> C 	 -129.977 	 61.0695 	 -58.2645
| 17> H 	 -130.756 	 61.401 	 -57.5171
| 18> H 	 -129.443 	 62.0163 	 -58.5531
| 19> C 	 -130.627 	 60.4021 	 -59.4758
| 20> H 	 -131.161 	 59.4749 	 -59.401
| 21> H 	 -131.296 	 61.1755 	 -59.7495
| 22> H 	 -129.965 	 60.2594 	 -60.295
| 23> S 	 -125.629 	 64.4739 	 -54.4571
| 24> C 	 -123.942 	 64.7718 	 -54.3346
| 25> C 	 -123.238 	 63.7433 	 -54.9072
| 26> C 	 -124.022 	 62.6588 	 -55.4336
| 27> C 	 -125.375 	 62.8066 	 -55.0481
| 28> H 	 -122.17 	 63.7223 	 -54.8994
| 29> C 	 -123.294 	 61.4161 	 -55.8967
| 30> H 	 -122.343 	 61.6375 	 -56.3488
| 31> H 	 -123.913 	 60.9092 	 -56.734
| 32> C 	 -123.148 	 60.2806 	 -54.8539
| 33> H 	 -124.09 	 60.1414 	 -54.3645
| 34> H 	 -122.481 	 60.5762 	 -54.1423
| 35> C 	 -122.524 	 59.0198 	 -55.4459
| 36> H 	 -121.531 	 59.2063 	 -55.6242
| 37> H 	 -123.181 	 58.6413 	 -56.1812
| 38> H 	 -122.454 	 58.2206 	 -54.6509
| 39> H 	 -129.962 	 61.1864 	 -55.3942
| 40> H 	 -123.553 	 65.6649 	 -53.8399
| 41> *
| 42>
| 43>                          ****END OF INPUT****

CARTESIAN COORDINATES (ANGSTROEM)
---------------------------------
  S    -127.929000   61.997300  -54.107500
  C    -128.927000   61.200200  -55.289600
  C    -128.252000   60.787400  -56.423000
  C    -126.890000   61.201600  -56.380400
  C    -126.557000   62.017100  -55.274100
  H    -126.165000   61.174200  -57.143800
  C    -128.900000   60.148500  -57.684700
  H    -129.351000   59.297200  -57.246000
  H    -128.181000   59.764100  -58.385700
  C    -129.977000   61.069500  -58.264500
  H    -130.756000   61.401000  -57.517100
  H    -129.443000   62.016300  -58.553100
  C    -130.627000   60.402100  -59.475800
  H    -131.161000   59.474900  -59.401000
  H    -131.296000   61.175500  -59.749500
  H    -129.965000   60.259400  -60.295000
  S    -125.629000   64.473900  -54.457100
  C    -123.942000   64.771800  -54.334600
  C    -123.238000   63.743300  -54.907200
  C    -124.022000   62.658800  -55.433600
  C    -125.375000   62.806600  -55.048100
  H    -122.170000   63.722300  -54.899400
  C    -123.294000   61.416100  -55.896700
  H    -122.343000   61.637500  -56.348800
  H    -123.913000   60.909200  -56.734000
  C    -123.148000   60.280600  -54.853900
  H    -124.090000   60.141400  -54.364500
  H    -122.481000   60.576200  -54.142300
  C    -122.524000   59.019800  -55.445900
  H    -121.531000   59.206300  -55.624200
  H    -123.181000   58.641300  -56.181200
  H    -122.454000   58.220600  -54.650900
  H    -129.962000   61.186400  -55.394200
  H    -123.553000   65.664900  -53.839900

 Total Charge           Charge          ....    0
 Multiplicity           Mult            ....    1
 Number of Electrons    NEL             ....  134
 Basis Dimension        Dim             ....  322

ORBITAL ENERGIES
----------------

  NO   OCC          E(Eh)            E(eV)
   0   2.0000     -88.968237     -2420.9488
   1   2.0000     -88.963127     -2420.8098
   2   2.0000     -10.332908      -281.1727
   3   2.0000     -10.332104      -281.1508
   4   2.0000     -10.315502      -280.6991
   5   2.0000     -10.307955      -280.4937
   6   2.0000     -10.304915      -280.4110
   7   2.0000     -10.300595      -280.2934
   8   2.0000     -10.298062      -280.2245
   9   2.0000     -10.297096      -280.1982
  10   2.0000     -10.292710      -280.0789
  11   2.0000     -10.291637      -280.0497
  12   2.0000     -10.289677      -279.9963
  13   2.0000     -10.272849      -279.5384
  14   2.0000     -10.271323      -279.4969
  15   2.0000     -10.271252      -279.4950
  16   2.0000      -8.081867      -219.9188
  17   2.0000      -8.078105      -219.8164
  18   2.0000      -6.040483      -164.3699
  19   2.0000      -6.036608      -164.2645
  20   2.0000      -6.036550      -164.2629
  21   2.0000      -6.032570      -164.1546
  22   2.0000      -6.032520      -164.1532
  23   2.0000      -6.028899      -164.0547
  24   2.0000      -1.001806       -27.2605
  25   2.0000      -0.980083       -26.6694
  26   2.0000      -0.912586       -24.8327
  27   2.0000      -0.911052       -24.7910
  28   2.0000      -0.869688       -23.6654
  29   2.0000      -0.855327       -23.2746
  30   2.0000      -0.846407       -23.0319
  31   2.0000      -0.812221       -22.1016
  32   2.0000      -0.783984       -21.3333
  33   2.0000      -0.772095       -21.0098
  34   2.0000      -0.711311       -19.3557
  35   2.0000      -0.704929       -19.1821
  36   2.0000      -0.693898       -18.8819
  37   2.0000      -0.663914       -18.0660
  38   2.0000      -0.637723       -17.3533
  39   2.0000      -0.614554       -16.7229
  40   2.0000      -0.597687       -16.2639
  41   2.0000      -0.579723       -15.7751
  42   2.0000      -0.573186       -15.5972
  43   2.0000      -0.555843       -15.1253
  44   2.0000      -0.534490       -14.5442
  45   2.0000      -0.521660       -14.1951
  46   2.0000      -0.517174       -14.0730
  47   2.0000      -0.513139       -13.9632
  48   2.0000      -0.505923       -13.7669
  49   2.0000      -0.499817       -13.6007
  50   2.0000      -0.488980       -13.3058
  51   2.0000      -0.485354       -13.2071
  52   2.0000      -0.472361       -12.8536
  53   2.0000      -0.467611       -12.7243
  54   2.0000      -0.461842       -12.5674
  55   2.0000      -0.452929       -12.3248
  56   2.0000      -0.446366       -12.1462
  57   2.0000      -0.434940       -11.8353
  58   2.0000      -0.426220       -11.5980
  59   2.0000      -0.424492       -11.5510
  60   2.0000      -0.419695       -11.4205
  61   2.0000      -0.416642       -11.3374
  62   2.0000      -0.413063       -11.2400
  63   2.0000      -0.349297        -9.5048
  64   2.0000      -0.331046        -9.0082
  65   2.0000      -0.327998        -8.9253
  66   2.0000      -0.281275        -7.6539
  67   0.0000       0.013496         0.3672
  68   0.0000       0.077149         2.0993
  69   0.0000       0.107450         2.9239
  70   0.0000       0.117606         3.2002
  71   0.0000       0.136608         3.7173

MULLIKEN ATOMIC CHARGES
-----------------------
   0 S :    0.115974
   1 C :   -0.083040
   2 C :   -0.112773
   3 C :    0.044033
   4 C :   -0.167212
   5 H :   -0.008586
   6 C :    0.116799
   7 H :    0.021014
   8 H :    0.020866
   9 C :   -0.137990
  10 H :    0.043519
  11 H :    0.045254
  12 C :   -0.001888
  13 H :    0.033162
  14 H :    0.022254
  15 H :    0.019852
  16 S :    0.097161
  17 C :   -0.087686
  18 C :   -0.030346
  19 C :    0.005089
  20 C :   -0.155478
  21 H :    0.008535
  22 C :    0.005615
  23 H :    0.017069
  24 H :    0.021979
  25 C :   -0.023746
  26 H :    0.030266
  27 H :   -0.003996
  28 C :   -0.013902
  29 H :    0.016685
  30 H :    0.031201
  31 H :    0.029330
  32 H :    0.014217
  33 H :    0.066770
Sum of atomic charges:    0.0000000

LOEWDIN ATOMIC CHARGES
----------------------
   0 S :    0.391194
   1 C :   -0.202161
   2 C :   -0.053339
   3 C :   -0.057909
   4 C :   -0.180686
   5 H :    0.019591
   6 C :   -0.027166
   7 H :    0.027952
   8 H :    0.028723
   9 C :   -0.039365
  10 H :    0.029729
  11 H :    0.033863
  12 C :   -0.064221
  13 H :    0.024879
  14 H :    0.026531
  15 H :    0.021837
  16 S :    0.405817
  17 C :   -0.195489
  18 C :   -0.069507
  19 C :   -0.053598
  20 C :   -0.188880
  21 H :    0.025695
  22 C :   -0.034913
  23 H :    0.025090
  24 H :    0.033008
  25 C :   -0.027438
  26 H :    0.024273
  27 H :    0.009372
  28 C :   -0.051957
  29 H :    0.015209
  30 H :    0.020112
  31 H :    0.035380
  32 H :    0.014269
  33 H :    0.034106

  Mayer bond orders larger than 0.100000
B(  0-S ,  1-C ) :   1.1314 B(  0-S ,  4-C ) :   1.1319 B(  1-C ,  2-C ) :   1.6271
B(  1-C , 32-H ) :   0.9644 B(  2-C ,  3-C ) :   1.2507 B(  2-C ,  6-C ) :   0.9993
B(  3-C ,  4-C ) :   1.5629 B(  3-C ,  5-H ) :   0.9925 B(  4-C , 20-C ) :   1.0944
B(  6-C ,  7-H ) :   0.9312 B(  6-C ,  8-H ) :   0.9501 B(  6-C ,  9-C ) :   1.0613
B(  9-C , 10-H ) :   0.9562 B(  9-C , 11-H ) :   0.9556 B(  9-C , 12-C ) :   1.0748
B( 12-C , 13-H ) :   0.9765 B( 12-C , 14-H ) :   0.9722 B( 12-C , 15-H ) :   0.9719
B( 16-S , 17-C ) :   1.1552 B( 16-S , 20-C ) :   1.1456 B( 17-C , 18-C ) :   1.5852
B( 17-C , 20-C ) :   0.1013 B( 17-C , 33-H ) :   0.9693 B( 18-C , 19-C ) :   1.2483
B( 18-C , 21-H ) :   0.9940 B( 19-C , 20-C ) :   1.5357 B( 19-C , 22-C ) :   1.0659
B( 22-C , 23-H ) :   0.9355 B( 22-C , 24-H ) :   0.9349 B( 22-C , 25-C ) :   1.0597
B( 25-C , 26-H ) :   0.9550 B( 25-C , 27-H ) :   0.9512 B( 25-C , 28-C ) :   1.0878
B( 28-C , 29-H ) :   0.9741 B( 28-C , 30-H ) :   0.9776 B( 28-C , 31-H ) :   0.9702

Dispersion correction           -0.013707691
FINAL SINGLE POINT ENERGY     -1339.849077862620

DIPOLE MOMENT
-------------
                                X             Y             Z
Electronic contribution:     -1.05218      18.63618      17.28162
Nuclear contribution   :      1.27413     -18.90964     -17.78134
                        -----------------------------------------
Total Dipole Moment    :      0.22195      -0.27346      -0.49973
                        -----------------------------------------
Magnitude (a.u.)       :      0.61136
Magnitude (Debye)      :      1.55396

Rotational constants in cm-1:     0.018446     0.007845     0.006440
Rotational constants in MHz :   552.999646   235.178424   193.078693

                             ****ORCA TERMINATED NORMALLY****
TOTAL RUN TIME: 0 days 0 hours 0 minutes 21 seconds 128 msec
