                         Program Version 4.2.1 -  RELEASE  -
|  1> ! wB97X-D3 SP def2-SVP
|  2> %pal
|  3> nprocs 24
|  4> end
|  5>
|  6> * xyz 0 1
|  7> S 	 -86.5847 	 -33.4397 	 -77.6682
|  8> C 	 -85.2677 	 -33.7654 	 -78.7572
|  9> C 	 -85.7107 	 -34.0013 	 -80.0736
| 10> C 	 -87.1322 	 -33.9522 	 -80.1373
| 11> C 	 -87.7314 	 -33.4902 	 -78.9643
| 12> H 	 -87.6552 	 -34.0094 	 -81.1497
| 13> C 	 -84.9133 	 -34.3428 	 -81.2499
| 14> H 	 -85.2362 	 -35.3838 	 -81.5485
| 15> H 	 -83.8856 	 -34.4972 	 -81.0783
| 16> C 	 -84.9075 	 -33.2959 	 -82.3755
| 17> H 	 -84.3248 	 -33.7122 	 -83.2115
| 18> H 	 -85.8306 	 -33.2818 	 -82.872
| 19> C 	 -84.3718 	 -31.8653 	 -82.0351
| 20> H 	 -84.4665 	 -31.1676 	 -82.8352
| 21> H 	 -84.8579 	 -31.4421 	 -81.1446
| 22> H 	 -83.3373 	 -31.8298 	 -81.8427
| 23> S 	 -89.9287 	 -33.7794 	 -77.3032
| 24> C 	 -91.4039 	 -32.9492 	 -77.5596
| 25> C 	 -91.3958 	 -32.3383 	 -78.7997
| 26> C 	 -90.1513 	 -32.4684 	 -79.521
| 27> C 	 -89.1698 	 -33.1358 	 -78.7693
| 28> H 	 -92.2821 	 -31.847 	 -79.1515
| 29> C 	 -90.015 	 -31.8322 	 -80.8836
| 30> H 	 -88.9952 	 -31.584 	 -81.1425
| 31> H 	 -90.4877 	 -30.8361 	 -80.9696
| 32> C 	 -90.7144 	 -32.6497 	 -82.0548
| 33> H 	 -91.6247 	 -33.1258 	 -81.6638
| 34> H 	 -90.1149 	 -33.5752 	 -82.1544
| 35> C 	 -90.9462 	 -31.9654 	 -83.4314
| 36> H 	 -89.9805 	 -32.0056 	 -83.942
| 37> H 	 -91.136 	 -30.934 	 -83.305
| 38> H 	 -91.7856 	 -32.4243 	 -83.9553
| 39> H 	 -84.2657 	 -33.7965 	 -78.3558
| 40> H 	 -92.2853 	 -33.0906 	 -76.9541
| 41> *
| 42>
| 43>                          ****END OF INPUT****

CARTESIAN COORDINATES (ANGSTROEM)
---------------------------------
  S    -86.584700  -33.439700  -77.668200
  C    -85.267700  -33.765400  -78.757200
  C    -85.710700  -34.001300  -80.073600
  C    -87.132200  -33.952200  -80.137300
  C    -87.731400  -33.490200  -78.964300
  H    -87.655200  -34.009400  -81.149700
  C    -84.913300  -34.342800  -81.249900
  H    -85.236200  -35.383800  -81.548500
  H    -83.885600  -34.497200  -81.078300
  C    -84.907500  -33.295900  -82.375500
  H    -84.324800  -33.712200  -83.211500
  H    -85.830600  -33.281800  -82.872000
  C    -84.371800  -31.865300  -82.035100
  H    -84.466500  -31.167600  -82.835200
  H    -84.857900  -31.442100  -81.144600
  H    -83.337300  -31.829800  -81.842700
  S    -89.928700  -33.779400  -77.303200
  C    -91.403900  -32.949200  -77.559600
  C    -91.395800  -32.338300  -78.799700
  C    -90.151300  -32.468400  -79.521000
  C    -89.169800  -33.135800  -78.769300
  H    -92.282100  -31.847000  -79.151500
  C    -90.015000  -31.832200  -80.883600
  H    -88.995200  -31.584000  -81.142500
  H    -90.487700  -30.836100  -80.969600
  C    -90.714400  -32.649700  -82.054800
  H    -91.624700  -33.125800  -81.663800
  H    -90.114900  -33.575200  -82.154400
  C    -90.946200  -31.965400  -83.431400
  H    -89.980500  -32.005600  -83.942000
  H    -91.136000  -30.934000  -83.305000
  H    -91.785600  -32.424300  -83.955300
  H    -84.265700  -33.796500  -78.355800
  H    -92.285300  -33.090600  -76.954100

 Total Charge           Charge          ....    0
 Multiplicity           Mult            ....    1
 Number of Electrons    NEL             ....  134
 Basis Dimension        Dim             ....  322

ORBITAL ENERGIES
----------------

  NO   OCC          E(Eh)            E(eV)
   0   2.0000     -88.968230     -2420.9486
   1   2.0000     -88.962321     -2420.7878
   2   2.0000     -10.334833      -281.2251
   3   2.0000     -10.334485      -281.2156
   4   2.0000     -10.315797      -280.7071
   5   2.0000     -10.314480      -280.6713
   6   2.0000     -10.310056      -280.5509
   7   2.0000     -10.301507      -280.3183
   8   2.0000     -10.298641      -280.2403
   9   2.0000     -10.294687      -280.1327
  10   2.0000     -10.293080      -280.0890
  11   2.0000     -10.290514      -280.0191
  12   2.0000     -10.290186      -280.0102
  13   2.0000     -10.287561      -279.9388
  14   2.0000     -10.280574      -279.7486
  15   2.0000     -10.274900      -279.5942
  16   2.0000      -8.083363      -219.9595
  17   2.0000      -8.077634      -219.8036
  18   2.0000      -6.041816      -164.4062
  19   2.0000      -6.037727      -164.2949
  20   2.0000      -6.036147      -164.2519
  21   2.0000      -6.034257      -164.2005
  22   2.0000      -6.031925      -164.1370
  23   2.0000      -6.028484      -164.0434
  24   2.0000      -1.005570       -27.3630
  25   2.0000      -0.985659       -26.8212
  26   2.0000      -0.915017       -24.8989
  27   2.0000      -0.900680       -24.5088
  28   2.0000      -0.863368       -23.4934
  29   2.0000      -0.851118       -23.1601
  30   2.0000      -0.845381       -23.0040
  31   2.0000      -0.812390       -22.1063
  32   2.0000      -0.786332       -21.3972
  33   2.0000      -0.775542       -21.1036
  34   2.0000      -0.714152       -19.4331
  35   2.0000      -0.701446       -19.0873
  36   2.0000      -0.692340       -18.8395
  37   2.0000      -0.659650       -17.9500
  38   2.0000      -0.638471       -17.3737
  39   2.0000      -0.626657       -17.0522
  40   2.0000      -0.600518       -16.3409
  41   2.0000      -0.567326       -15.4377
  42   2.0000      -0.556112       -15.1326
  43   2.0000      -0.548632       -14.9290
  44   2.0000      -0.532543       -14.4912
  45   2.0000      -0.529396       -14.4056
  46   2.0000      -0.514314       -13.9952
  47   2.0000      -0.508828       -13.8459
  48   2.0000      -0.504871       -13.7382
  49   2.0000      -0.497694       -13.5429
  50   2.0000      -0.491259       -13.3678
  51   2.0000      -0.478275       -13.0145
  52   2.0000      -0.475871       -12.9491
  53   2.0000      -0.463773       -12.6199
  54   2.0000      -0.459139       -12.4938
  55   2.0000      -0.454201       -12.3594
  56   2.0000      -0.447106       -12.1664
  57   2.0000      -0.445062       -12.1108
  58   2.0000      -0.436298       -11.8723
  59   2.0000      -0.423356       -11.5201
  60   2.0000      -0.417123       -11.3505
  61   2.0000      -0.414821       -11.2879
  62   2.0000      -0.407514       -11.0890
  63   2.0000      -0.348556        -9.4847
  64   2.0000      -0.331541        -9.0217
  65   2.0000      -0.326950        -8.8968
  66   2.0000      -0.289758        -7.8847
  67   0.0000       0.027274         0.7422
  68   0.0000       0.074174         2.0184
  69   0.0000       0.110541         3.0080
  70   0.0000       0.121747         3.3129
  71   0.0000       0.122455         3.3322

MULLIKEN ATOMIC CHARGES
-----------------------
   0 S :    0.120125
   1 C :   -0.125068
   2 C :   -0.086145
   3 C :    0.008235
   4 C :   -0.145984
   5 H :    0.041295
   6 C :    0.066540
   7 H :    0.044958
   8 H :    0.001474
   9 C :   -0.061942
  10 H :    0.018925
  11 H :    0.006882
  12 C :   -0.024593
  13 H :    0.025286
  14 H :    0.045556
  15 H :    0.015172
  16 S :    0.091317
  17 C :   -0.081169
  18 C :   -0.038631
  19 C :   -0.016891
  20 C :   -0.142820
  21 H :    0.014791
  22 C :    0.052810
  23 H :    0.021420
  24 H :    0.020388
  25 C :   -0.119717
  26 H :    0.021674
  27 H :    0.019416
  28 C :   -0.009493
  29 H :    0.037274
  30 H :    0.018876
  31 H :    0.048823
  32 H :    0.049781
  33 H :    0.061434
Sum of atomic charges:   -0.0000000

LOEWDIN ATOMIC CHARGES
----------------------
   0 S :    0.424223
   1 C :   -0.200479
   2 C :   -0.065511
   3 C :   -0.069616
   4 C :   -0.202353
   5 H :    0.042582
   6 C :   -0.038311
   7 H :    0.046306
   8 H :    0.023632
   9 C :   -0.037758
  10 H :    0.028012
  11 H :    0.011934
  12 C :   -0.060442
  13 H :    0.025486
  14 H :    0.031410
  15 H :    0.019254
  16 S :    0.408445
  17 C :   -0.196127
  18 C :   -0.068408
  19 C :   -0.055291
  20 C :   -0.186370
  21 H :    0.028647
  22 C :   -0.035615
  23 H :    0.025145
  24 H :    0.030455
  25 C :   -0.048596
  26 H :    0.021592
  27 H :    0.020457
  28 C :   -0.061688
  29 H :    0.030892
  30 H :    0.018274
  31 H :    0.033915
  32 H :    0.024691
  33 H :    0.031214

  Mayer bond orders larger than 0.100000
B(  0-S ,  1-C ) :   1.1500 B(  0-S ,  4-C ) :   1.1766 B(  1-C ,  2-C ) :   1.5602
B(  1-C ,  4-C ) :   0.1009 B(  1-C , 32-H ) :   0.9736 B(  2-C ,  3-C ) :   1.2652
B(  2-C ,  6-C ) :   1.0441 B(  3-C ,  4-C ) :   1.5429 B(  3-C ,  5-H ) :   0.9780
B(  4-C , 20-C ) :   1.0235 B(  6-C ,  7-H ) :   0.9344 B(  6-C ,  8-H ) :   0.9386
B(  6-C ,  9-C ) :   1.0667 B(  9-C , 10-H ) :   0.9507 B(  9-C , 11-H ) :   0.9579
B(  9-C , 12-C ) :   1.0643 B( 12-C , 13-H ) :   0.9738 B( 12-C , 14-H ) :   0.9765
B( 12-C , 15-H ) :   0.9740 B( 16-S , 17-C ) :   1.1609 B( 16-S , 20-C ) :   1.1512
B( 17-C , 18-C ) :   1.5941 B( 17-C , 33-H ) :   0.9687 B( 18-C , 19-C ) :   1.2439
B( 18-C , 21-H ) :   0.9933 B( 19-C , 20-C ) :   1.5809 B( 19-C , 22-C ) :   1.0598
B( 22-C , 23-H ) :   0.9387 B( 22-C , 24-H ) :   0.9391 B( 22-C , 25-C ) :   1.0380
B( 25-C , 26-H ) :   0.9622 B( 25-C , 27-H ) :   0.9546 B( 25-C , 28-C ) :   1.0629
B( 28-C , 29-H ) :   0.9761 B( 28-C , 30-H ) :   0.9764 B( 28-C , 31-H ) :   0.9755

Dispersion correction           -0.014302294
FINAL SINGLE POINT ENERGY     -1339.877192795662

DIPOLE MOMENT
-------------
                                X             Y             Z
Electronic contribution:     -3.83227      -7.33627      30.29063
Nuclear contribution   :      3.85956       7.45396     -30.99948
                        -----------------------------------------
Total Dipole Moment    :      0.02730       0.11769      -0.70885
                        -----------------------------------------
Magnitude (a.u.)       :      0.71907
Magnitude (Debye)      :      1.82772

Rotational constants in cm-1:     0.016180     0.009999     0.006615
Rotational constants in MHz :   485.052361   299.760869   198.308900

                             ****ORCA TERMINATED NORMALLY****
TOTAL RUN TIME: 0 days 0 hours 0 minutes 21 seconds 569 msec
