                         Program Version 4.2.1 -  RELEASE  -
|  1> ! wB97X-D3 SP def2-SVP
|  2> %pal
|  3> nprocs 24
|  4> end
|  5>
|  6> * xyz 0 1
|  7> S 	 -40.1519 	 -50.0228 	 -73.6938
|  8> C 	 -40.5795 	 -49.0233 	 -75.1284
|  9> C 	 -39.4467 	 -48.8596 	 -75.9522
| 10> C 	 -38.3488 	 -49.6847 	 -75.4608
| 11> C 	 -38.5225 	 -50.2384 	 -74.2252
| 12> H 	 -37.3889 	 -49.7692 	 -75.9933
| 13> C 	 -39.5271 	 -48.1053 	 -77.299
| 14> H 	 -40.5454 	 -48.2093 	 -77.6745
| 15> H 	 -38.9235 	 -48.7323 	 -77.9317
| 16> C 	 -38.9229 	 -46.6756 	 -77.5592
| 17> H 	 -37.8677 	 -46.6245 	 -77.235
| 18> H 	 -38.8523 	 -46.586 	 -78.6387
| 19> C 	 -39.7368 	 -45.5656 	 -76.8927
| 20> H 	 -39.705 	 -45.5758 	 -75.7784
| 21> H 	 -39.4011 	 -44.5686 	 -77.257
| 22> H 	 -40.8081 	 -45.6655 	 -77.0003
| 23> S 	 -38.2191 	 -52.4856 	 -72.7004
| 24> C 	 -36.609 	 -52.8933 	 -72.2401
| 25> C 	 -35.7629 	 -51.8267 	 -72.3801
| 26> C 	 -36.3582 	 -50.7234 	 -73.0323
| 27> C 	 -37.6162 	 -51.0266 	 -73.4001
| 28> H 	 -34.7856 	 -51.9456 	 -72.0417
| 29> C 	 -35.7451 	 -49.3633 	 -73.1267
| 30> H 	 -35.5709 	 -49.1576 	 -72.1154
| 31> H 	 -36.4065 	 -48.5513 	 -73.4295
| 32> C 	 -34.4784 	 -49.2501 	 -73.9837
| 33> H 	 -33.9089 	 -50.165 	 -73.8124
| 34> H 	 -33.906 	 -48.3758 	 -73.6794
| 35> C 	 -34.6849 	 -49.334 	 -75.4879
| 36> H 	 -33.7748 	 -49.0797 	 -76.0563
| 37> H 	 -35.5464 	 -48.6546 	 -75.7853
| 38> H 	 -35.0196 	 -50.3219 	 -75.8033
| 39> H 	 -41.5826 	 -48.5778 	 -75.1511
| 40> H 	 -36.3004 	 -53.806 	 -71.8007
| 41> *
| 42>
| 43>                          ****END OF INPUT****

CARTESIAN COORDINATES (ANGSTROEM)
---------------------------------
  S    -40.151900  -50.022800  -73.693800
  C    -40.579500  -49.023300  -75.128400
  C    -39.446700  -48.859600  -75.952200
  C    -38.348800  -49.684700  -75.460800
  C    -38.522500  -50.238400  -74.225200
  H    -37.388900  -49.769200  -75.993300
  C    -39.527100  -48.105300  -77.299000
  H    -40.545400  -48.209300  -77.674500
  H    -38.923500  -48.732300  -77.931700
  C    -38.922900  -46.675600  -77.559200
  H    -37.867700  -46.624500  -77.235000
  H    -38.852300  -46.586000  -78.638700
  C    -39.736800  -45.565600  -76.892700
  H    -39.705000  -45.575800  -75.778400
  H    -39.401100  -44.568600  -77.257000
  H    -40.808100  -45.665500  -77.000300
  S    -38.219100  -52.485600  -72.700400
  C    -36.609000  -52.893300  -72.240100
  C    -35.762900  -51.826700  -72.380100
  C    -36.358200  -50.723400  -73.032300
  C    -37.616200  -51.026600  -73.400100
  H    -34.785600  -51.945600  -72.041700
  C    -35.745100  -49.363300  -73.126700
  H    -35.570900  -49.157600  -72.115400
  H    -36.406500  -48.551300  -73.429500
  C    -34.478400  -49.250100  -73.983700
  H    -33.908900  -50.165000  -73.812400
  H    -33.906000  -48.375800  -73.679400
  C    -34.684900  -49.334000  -75.487900
  H    -33.774800  -49.079700  -76.056300
  H    -35.546400  -48.654600  -75.785300
  H    -35.019600  -50.321900  -75.803300
  H    -41.582600  -48.577800  -75.151100
  H    -36.300400  -53.806000  -71.800700

 Total Charge           Charge          ....    0
 Multiplicity           Mult            ....    1
 Number of Electrons    NEL             ....  134
 Basis Dimension        Dim             ....  322

ORBITAL ENERGIES
----------------

  NO   OCC          E(Eh)            E(eV)
   0   2.0000     -88.964119     -2420.8368
   1   2.0000     -88.959097     -2420.7001
   2   2.0000     -10.324926      -280.9555
   3   2.0000     -10.319744      -280.8145
   4   2.0000     -10.317923      -280.7650
   5   2.0000     -10.311595      -280.5928
   6   2.0000     -10.311189      -280.5817
   7   2.0000     -10.296791      -280.1899
   8   2.0000     -10.295042      -280.1423
   9   2.0000     -10.294697      -280.1329
  10   2.0000     -10.294295      -280.1220
  11   2.0000     -10.286886      -279.9204
  12   2.0000     -10.285283      -279.8768
  13   2.0000     -10.284986      -279.8687
  14   2.0000     -10.283038      -279.8157
  15   2.0000     -10.280224      -279.7391
  16   2.0000      -8.080182      -219.8729
  17   2.0000      -8.073993      -219.7045
  18   2.0000      -6.038540      -164.3170
  19   2.0000      -6.034729      -164.2133
  20   2.0000      -6.032468      -164.1518
  21   2.0000      -6.030782      -164.1059
  22   2.0000      -6.028488      -164.0435
  23   2.0000      -6.024787      -163.9428
  24   2.0000      -1.016320       -27.6555
  25   2.0000      -0.982141       -26.7254
  26   2.0000      -0.915467       -24.9111
  27   2.0000      -0.904263       -24.6062
  28   2.0000      -0.868653       -23.6372
  29   2.0000      -0.856043       -23.2941
  30   2.0000      -0.839407       -22.8414
  31   2.0000      -0.816510       -22.2184
  32   2.0000      -0.786782       -21.4094
  33   2.0000      -0.775835       -21.1115
  34   2.0000      -0.709642       -19.3103
  35   2.0000      -0.697753       -18.9868
  36   2.0000      -0.694841       -18.9076
  37   2.0000      -0.662288       -18.0218
  38   2.0000      -0.640508       -17.4291
  39   2.0000      -0.619139       -16.8476
  40   2.0000      -0.605641       -16.4803
  41   2.0000      -0.562455       -15.3052
  42   2.0000      -0.558369       -15.1940
  43   2.0000      -0.547510       -14.8985
  44   2.0000      -0.540317       -14.7028
  45   2.0000      -0.536240       -14.5918
  46   2.0000      -0.521988       -14.2040
  47   2.0000      -0.517500       -14.0819
  48   2.0000      -0.503251       -13.6942
  49   2.0000      -0.494034       -13.4433
  50   2.0000      -0.487981       -13.2786
  51   2.0000      -0.479114       -13.0374
  52   2.0000      -0.467431       -12.7194
  53   2.0000      -0.466812       -12.7026
  54   2.0000      -0.464524       -12.6403
  55   2.0000      -0.451822       -12.2947
  56   2.0000      -0.446012       -12.1366
  57   2.0000      -0.444642       -12.0993
  58   2.0000      -0.429123       -11.6770
  59   2.0000      -0.425803       -11.5867
  60   2.0000      -0.420810       -11.4508
  61   2.0000      -0.410473       -11.1695
  62   2.0000      -0.408190       -11.1074
  63   2.0000      -0.346587        -9.4311
  64   2.0000      -0.332287        -9.0420
  65   2.0000      -0.325969        -8.8701
  66   2.0000      -0.291963        -7.9447
  67   0.0000       0.033947         0.9237
  68   0.0000       0.070560         1.9200
  69   0.0000       0.102778         2.7967
  70   0.0000       0.117721         3.2033
  71   0.0000       0.134726         3.6661

MULLIKEN ATOMIC CHARGES
-----------------------
   0 S :    0.073406
   1 C :   -0.148351
   2 C :   -0.077900
   3 C :    0.023959
   4 C :   -0.132680
   5 H :    0.001267
   6 C :    0.034408
   7 H :    0.032694
   8 H :    0.017970
   9 C :   -0.043872
  10 H :    0.031199
  11 H :    0.031690
  12 C :   -0.060002
  13 H :    0.037861
  14 H :    0.040668
  15 H :    0.018838
  16 S :    0.119342
  17 C :   -0.069625
  18 C :   -0.023061
  19 C :   -0.019947
  20 C :   -0.159475
  21 H :   -0.007253
  22 C :    0.094369
  23 H :    0.020378
  24 H :    0.030914
  25 C :   -0.068809
  26 H :    0.021853
  27 H :    0.035190
  28 C :   -0.080268
  29 H :    0.045422
  30 H :    0.033954
  31 H :    0.042212
  32 H :    0.066148
  33 H :    0.037500
Sum of atomic charges:    0.0000000

LOEWDIN ATOMIC CHARGES
----------------------
   0 S :    0.379714
   1 C :   -0.187593
   2 C :   -0.058026
   3 C :   -0.074770
   4 C :   -0.190357
   5 H :    0.031760
   6 C :   -0.033302
   7 H :    0.032791
   8 H :    0.030674
   9 C :   -0.037818
  10 H :    0.028080
  11 H :    0.026237
  12 C :   -0.076217
  13 H :    0.032047
  14 H :    0.029267
  15 H :    0.020714
  16 S :    0.418405
  17 C :   -0.178209
  18 C :   -0.062064
  19 C :   -0.056207
  20 C :   -0.203240
  21 H :    0.021300
  22 C :   -0.025504
  23 H :    0.031690
  24 H :    0.033381
  25 C :   -0.041759
  26 H :    0.023920
  27 H :    0.025035
  28 C :   -0.070325
  29 H :    0.031225
  30 H :    0.023613
  31 H :    0.023317
  32 H :    0.029889
  33 H :    0.022333

  Mayer bond orders larger than 0.100000
B(  0-S ,  1-C ) :   1.1290 B(  0-S ,  4-C ) :   1.1482 B(  1-C ,  2-C ) :   1.5948
B(  1-C , 32-H ) :   0.9728 B(  2-C ,  3-C ) :   1.2285 B(  2-C ,  6-C ) :   1.0119
B(  3-C ,  4-C ) :   1.6085 B(  3-C ,  5-H ) :   0.9814 B(  4-C , 20-C ) :   1.0162
B(  6-C ,  7-H ) :   0.9513 B(  6-C ,  8-H ) :   0.9373 B(  6-C ,  9-C ) :   1.0697
B(  9-C , 10-H ) :   0.9538 B(  9-C , 11-H ) :   0.9549 B(  9-C , 12-C ) :   1.0706
B( 12-C , 13-H ) :   0.9747 B( 12-C , 14-H ) :   0.9747 B( 12-C , 15-H ) :   0.9759
B( 16-S , 17-C ) :   1.1494 B( 16-S , 20-C ) :   1.1385 B( 17-C , 18-C ) :   1.6248
B( 17-C , 33-H ) :   0.9733 B( 18-C , 19-C ) :   1.2080 B( 18-C , 21-H ) :   1.0026
B( 19-C , 20-C ) :   1.6146 B( 19-C , 22-C ) :   1.0329 B( 22-C , 23-H ) :   0.9269
B( 22-C , 24-H ) :   0.9345 B( 22-C , 25-C ) :   1.0720 B( 25-C , 26-H ) :   0.9592
B( 25-C , 27-H ) :   0.9562 B( 25-C , 28-C ) :   1.0720 B( 28-C , 29-H ) :   0.9681
B( 28-C , 30-H ) :   0.9684 B( 28-C , 31-H ) :   0.9707

Dispersion correction           -0.015027972
FINAL SINGLE POINT ENERGY     -1339.876291704609

DIPOLE MOMENT
-------------
                                X             Y             Z
Electronic contribution:    -12.01502     -21.45156      16.99448
Nuclear contribution   :     12.53805      21.79190     -17.21944
                        -----------------------------------------
Total Dipole Moment    :      0.52303       0.34033      -0.22496
                        -----------------------------------------
Magnitude (a.u.)       :      0.66332
Magnitude (Debye)      :      1.68602

Rotational constants in cm-1:     0.020434     0.009093     0.006811
Rotational constants in MHz :   612.581696   272.610682   204.178694

                             ****ORCA TERMINATED NORMALLY****
TOTAL RUN TIME: 0 days 0 hours 0 minutes 21 seconds 50 msec
