                         Program Version 4.2.1 -  RELEASE  -
|  1> ! wB97X-D3 SP def2-SVP
|  2> %pal
|  3> nprocs 24
|  4> end
|  5>
|  6> * xyz 0 1
|  7> S 	 -134.876 	 30.5311 	 -17.6353
|  8> C 	 -135.326 	 29.5292 	 -18.99
|  9> C 	 -136.497 	 28.9591 	 -18.8231
| 10> C 	 -137.054 	 29.1175 	 -17.5382
| 11> C 	 -136.273 	 29.9843 	 -16.7577
| 12> H 	 -137.906 	 28.666 	 -17.1542
| 13> C 	 -137.162 	 28.1358 	 -19.8496
| 14> H 	 -136.472 	 27.9989 	 -20.6899
| 15> H 	 -138.094 	 28.5404 	 -20.2537
| 16> C 	 -137.573 	 26.7204 	 -19.3634
| 17> H 	 -136.723 	 26.2488 	 -18.9326
| 18> H 	 -138.303 	 26.9262 	 -18.5314
| 19> C 	 -138.189 	 25.7459 	 -20.3701
| 20> H 	 -138.394 	 24.8096 	 -19.7899
| 21> H 	 -139.092 	 26.2021 	 -20.8077
| 22> H 	 -137.401 	 25.5408 	 -21.0961
| 23> S 	 -136.886 	 28.831 	 -14.2782
| 24> C 	 -136.997 	 29.8307 	 -12.8925
| 25> C 	 -136.669 	 31.1028 	 -13.2453
| 26> C 	 -136.446 	 31.3729 	 -14.63
| 27> C 	 -136.435 	 30.1979 	 -15.3482
| 28> H 	 -136.594 	 31.8489 	 -12.4468
| 29> C 	 -136.08 	 32.7567 	 -15.2616
| 30> H 	 -135.194 	 32.6969 	 -15.847
| 31> H 	 -135.801 	 33.4398 	 -14.4678
| 32> C 	 -137.121 	 33.4467 	 -16.0707
| 33> H 	 -138.166 	 33.4933 	 -15.6195
| 34> H 	 -137.412 	 32.8108 	 -16.9624
| 35> C 	 -136.694 	 34.793 	 -16.6261
| 36> H 	 -135.79 	 34.6655 	 -17.2314
| 37> H 	 -136.68 	 35.6192 	 -15.906
| 38> H 	 -137.477 	 35.1396 	 -17.3065
| 39> H 	 -134.633 	 29.3685 	 -19.7773
| 40> H 	 -136.981 	 29.5077 	 -11.8779
| 41> *
| 42>
| 43>                          ****END OF INPUT****

CARTESIAN COORDINATES (ANGSTROEM)
---------------------------------
  S    -134.876000   30.531100  -17.635300
  C    -135.326000   29.529200  -18.990000
  C    -136.497000   28.959100  -18.823100
  C    -137.054000   29.117500  -17.538200
  C    -136.273000   29.984300  -16.757700
  H    -137.906000   28.666000  -17.154200
  C    -137.162000   28.135800  -19.849600
  H    -136.472000   27.998900  -20.689900
  H    -138.094000   28.540400  -20.253700
  C    -137.573000   26.720400  -19.363400
  H    -136.723000   26.248800  -18.932600
  H    -138.303000   26.926200  -18.531400
  C    -138.189000   25.745900  -20.370100
  H    -138.394000   24.809600  -19.789900
  H    -139.092000   26.202100  -20.807700
  H    -137.401000   25.540800  -21.096100
  S    -136.886000   28.831000  -14.278200
  C    -136.997000   29.830700  -12.892500
  C    -136.669000   31.102800  -13.245300
  C    -136.446000   31.372900  -14.630000
  C    -136.435000   30.197900  -15.348200
  H    -136.594000   31.848900  -12.446800
  C    -136.080000   32.756700  -15.261600
  H    -135.194000   32.696900  -15.847000
  H    -135.801000   33.439800  -14.467800
  C    -137.121000   33.446700  -16.070700
  H    -138.166000   33.493300  -15.619500
  H    -137.412000   32.810800  -16.962400
  C    -136.694000   34.793000  -16.626100
  H    -135.790000   34.665500  -17.231400
  H    -136.680000   35.619200  -15.906000
  H    -137.477000   35.139600  -17.306500
  H    -134.633000   29.368500  -19.777300
  H    -136.981000   29.507700  -11.877900

 Total Charge           Charge          ....    0
 Multiplicity           Mult            ....    1
 Number of Electrons    NEL             ....  134
 Basis Dimension        Dim             ....  322

ORBITAL ENERGIES
----------------

  NO   OCC          E(Eh)            E(eV)
   0   2.0000     -88.966248     -2420.8947
   1   2.0000     -88.963868     -2420.8299
   2   2.0000     -10.328569      -281.0546
   3   2.0000     -10.325861      -280.9810
   4   2.0000     -10.310376      -280.5596
   5   2.0000     -10.305132      -280.4169
   6   2.0000     -10.303630      -280.3760
   7   2.0000     -10.291772      -280.0533
   8   2.0000     -10.290605      -280.0216
   9   2.0000     -10.289712      -279.9973
  10   2.0000     -10.288840      -279.9736
  11   2.0000     -10.287926      -279.9487
  12   2.0000     -10.285822      -279.8915
  13   2.0000     -10.284413      -279.8531
  14   2.0000     -10.283414      -279.8259
  15   2.0000     -10.276721      -279.6438
  16   2.0000      -8.081379      -219.9055
  17   2.0000      -8.078558      -219.8287
  18   2.0000      -6.039886      -164.3536
  19   2.0000      -6.037139      -164.2789
  20   2.0000      -6.035882      -164.2447
  21   2.0000      -6.033034      -164.1672
  22   2.0000      -6.032083      -164.1413
  23   2.0000      -6.029268      -164.0647
  24   2.0000      -1.013357       -27.5748
  25   2.0000      -0.991244       -26.9731
  26   2.0000      -0.916299       -24.9338
  27   2.0000      -0.909458       -24.7476
  28   2.0000      -0.876175       -23.8419
  29   2.0000      -0.853043       -23.2125
  30   2.0000      -0.847884       -23.0721
  31   2.0000      -0.814830       -22.1727
  32   2.0000      -0.785999       -21.3881
  33   2.0000      -0.776689       -21.1348
  34   2.0000      -0.714400       -19.4398
  35   2.0000      -0.690401       -18.7868
  36   2.0000      -0.685080       -18.6420
  37   2.0000      -0.665226       -18.1017
  38   2.0000      -0.645802       -17.5732
  39   2.0000      -0.619710       -16.8632
  40   2.0000      -0.600549       -16.3418
  41   2.0000      -0.579510       -15.7693
  42   2.0000      -0.562425       -15.3044
  43   2.0000      -0.560124       -15.2418
  44   2.0000      -0.528119       -14.3708
  45   2.0000      -0.525503       -14.2997
  46   2.0000      -0.521650       -14.1948
  47   2.0000      -0.517270       -14.0756
  48   2.0000      -0.508246       -13.8301
  49   2.0000      -0.505422       -13.7532
  50   2.0000      -0.490893       -13.3579
  51   2.0000      -0.481117       -13.0918
  52   2.0000      -0.474300       -12.9064
  53   2.0000      -0.468072       -12.7369
  54   2.0000      -0.465645       -12.6709
  55   2.0000      -0.446739       -12.1564
  56   2.0000      -0.442721       -12.0470
  57   2.0000      -0.436305       -11.8725
  58   2.0000      -0.429487       -11.6869
  59   2.0000      -0.425681       -11.5834
  60   2.0000      -0.416912       -11.3448
  61   2.0000      -0.412711       -11.2304
  62   2.0000      -0.399062       -10.8590
  63   2.0000      -0.353567        -9.6211
  64   2.0000      -0.333848        -9.0845
  65   2.0000      -0.331482        -9.0201
  66   2.0000      -0.290594        -7.9075
  67   0.0000       0.027804         0.7566
  68   0.0000       0.071279         1.9396
  69   0.0000       0.110527         3.0076
  70   0.0000       0.120539         3.2800
  71   0.0000       0.135215         3.6794

MULLIKEN ATOMIC CHARGES
-----------------------
   0 S :    0.100722
   1 C :   -0.141680
   2 C :   -0.003271
   3 C :    0.013530
   4 C :   -0.145786
   5 H :   -0.009341
   6 C :    0.094093
   7 H :    0.004119
   8 H :    0.030123
   9 C :   -0.156011
  10 H :    0.023578
  11 H :    0.033079
  12 C :   -0.028581
  13 H :    0.049216
  14 H :    0.039204
  15 H :    0.034444
  16 S :    0.100557
  17 C :   -0.073370
  18 C :   -0.051607
  19 C :   -0.024015
  20 C :   -0.138127
  21 H :    0.017485
  22 C :    0.114869
  23 H :    0.013255
  24 H :    0.009220
  25 C :   -0.126809
  26 H :    0.031881
  27 H :    0.034846
  28 C :   -0.035726
  29 H :    0.038549
  30 H :    0.033924
  31 H :    0.026529
  32 H :    0.035876
  33 H :    0.055225
Sum of atomic charges:    0.0000000

LOEWDIN ATOMIC CHARGES
----------------------
   0 S :    0.413881
   1 C :   -0.183692
   2 C :   -0.068987
   3 C :   -0.051201
   4 C :   -0.186076
   5 H :    0.017950
   6 C :   -0.029972
   7 H :    0.024416
   8 H :    0.031733
   9 C :   -0.046083
  10 H :    0.016777
  11 H :    0.022198
  12 C :   -0.063901
  13 H :    0.037239
  14 H :    0.026677
  15 H :    0.025413
  16 S :    0.403035
  17 C :   -0.199655
  18 C :   -0.071931
  19 C :   -0.055725
  20 C :   -0.180462
  21 H :    0.029941
  22 C :   -0.031455
  23 H :    0.019559
  24 H :    0.029653
  25 C :   -0.057436
  26 H :    0.029498
  27 H :    0.028737
  28 C :   -0.067892
  29 H :    0.028626
  30 H :    0.024427
  31 H :    0.030347
  32 H :    0.023018
  33 H :    0.031345

  Mayer bond orders larger than 0.100000
B(  0-S ,  1-C ) :   1.1214 B(  0-S ,  4-C ) :   1.1635 B(  1-C ,  2-C ) :   1.6345
B(  1-C , 32-H ) :   0.9726 B(  2-C ,  3-C ) :   1.2043 B(  2-C ,  6-C ) :   1.0420
B(  3-C ,  4-C ) :   1.5567 B(  3-C ,  5-H ) :   1.0142 B(  4-C , 20-C ) :   1.0600
B(  6-C ,  7-H ) :   0.9387 B(  6-C ,  8-H ) :   0.9301 B(  6-C ,  9-C ) :   1.0520
B(  9-C , 10-H ) :   0.9596 B(  9-C , 11-H ) :   0.9522 B(  9-C , 12-C ) :   1.0878
B( 12-C , 13-H ) :   0.9720 B( 12-C , 14-H ) :   0.9729 B( 12-C , 15-H ) :   0.9742
B( 16-S , 17-C ) :   1.1484 B( 16-S , 20-C ) :   1.1347 B( 17-C , 18-C ) :   1.6201
B( 17-C , 33-H ) :   0.9647 B( 18-C , 19-C ) :   1.2552 B( 18-C , 21-H ) :   0.9825
B( 19-C , 20-C ) :   1.5808 B( 19-C , 22-C ) :   1.0276 B( 22-C , 23-H ) :   0.9340
B( 22-C , 24-H ) :   0.9307 B( 22-C , 25-C ) :   1.0612 B( 25-C , 26-H ) :   0.9505
B( 25-C , 27-H ) :   0.9494 B( 25-C , 28-C ) :   1.0905 B( 28-C , 29-H ) :   0.9711
B( 28-C , 30-H ) :   0.9735 B( 28-C , 31-H ) :   0.9697

Dispersion correction           -0.014053900
FINAL SINGLE POINT ENERGY     -1339.881171723557

DIPOLE MOMENT
-------------
                                X             Y             Z
Electronic contribution:      8.58696      -3.06584      13.76460
Nuclear contribution   :     -8.66781       3.09291     -13.92994
                        -----------------------------------------
Total Dipole Moment    :     -0.08085       0.02707      -0.16534
                        -----------------------------------------
Magnitude (a.u.)       :      0.18603
Magnitude (Debye)      :      0.47284

Rotational constants in cm-1:     0.019083     0.008486     0.006630
Rotational constants in MHz :   572.079677   254.414245   198.764224

                             ****ORCA TERMINATED NORMALLY****
TOTAL RUN TIME: 0 days 0 hours 0 minutes 21 seconds 366 msec
