                         Program Version 4.2.1 -  RELEASE  -
|  1> ! wB97X-D3 SP def2-SVP
|  2> %pal
|  3> nprocs 24
|  4> end
|  5>
|  6> * xyz 0 1
|  7> S 	 -106.241 	 57.8085 	 -107.303
|  8> C 	 -105.994 	 56.9075 	 -108.776
|  9> C 	 -107.102 	 56.1616 	 -109.141
| 10> C 	 -108.23 	 56.5776 	 -108.324
| 11> C 	 -107.915 	 57.4473 	 -107.3
| 12> H 	 -109.232 	 56.3096 	 -108.411
| 13> C 	 -107.2 	 55.2037 	 -110.29
| 14> H 	 -108.225 	 55.2839 	 -110.692
| 15> H 	 -107.221 	 54.2625 	 -109.76
| 16> C 	 -106.215 	 55.4449 	 -111.405
| 17> H 	 -105.206 	 55.2248 	 -111.004
| 18> H 	 -106.454 	 54.5409 	 -112.059
| 19> C 	 -106.304 	 56.7799 	 -112.156
| 20> H 	 -105.711 	 56.7678 	 -113.06
| 21> H 	 -107.355 	 56.9953 	 -112.351
| 22> H 	 -106.046 	 57.6556 	 -111.581
| 23> S 	 -108.749 	 59.7301 	 -105.968
| 24> C 	 -110.183 	 59.6966 	 -105.063
| 25> C 	 -110.701 	 58.3837 	 -105.018
| 26> C 	 -109.953 	 57.4032 	 -105.71
| 27> C 	 -108.889 	 58.0247 	 -106.343
| 28> H 	 -111.656 	 58.198 	 -104.472
| 29> C 	 -110.298 	 55.8925 	 -105.647
| 30> H 	 -110.735 	 55.7036 	 -106.618
| 31> H 	 -110.96 	 55.6959 	 -104.863
| 32> C 	 -109.146 	 54.8809 	 -105.404
| 33> H 	 -108.567 	 55.177 	 -104.5
| 34> H 	 -108.492 	 54.8241 	 -106.261
| 35> C 	 -109.735 	 53.4903 	 -105.174
| 36> H 	 -110.368 	 53.0522 	 -105.97
| 37> H 	 -110.258 	 53.33 	 -104.22
| 38> H 	 -108.941 	 52.683 	 -105.066
| 39> H 	 -105.055 	 56.7052 	 -109.285
| 40> H 	 -110.483 	 60.6112 	 -104.482
| 41> *
| 42>
| 43>                          ****END OF INPUT****

CARTESIAN COORDINATES (ANGSTROEM)
---------------------------------
  S    -106.241000   57.808500  -107.303000
  C    -105.994000   56.907500  -108.776000
  C    -107.102000   56.161600  -109.141000
  C    -108.230000   56.577600  -108.324000
  C    -107.915000   57.447300  -107.300000
  H    -109.232000   56.309600  -108.411000
  C    -107.200000   55.203700  -110.290000
  H    -108.225000   55.283900  -110.692000
  H    -107.221000   54.262500  -109.760000
  C    -106.215000   55.444900  -111.405000
  H    -105.206000   55.224800  -111.004000
  H    -106.454000   54.540900  -112.059000
  C    -106.304000   56.779900  -112.156000
  H    -105.711000   56.767800  -113.060000
  H    -107.355000   56.995300  -112.351000
  H    -106.046000   57.655600  -111.581000
  S    -108.749000   59.730100  -105.968000
  C    -110.183000   59.696600  -105.063000
  C    -110.701000   58.383700  -105.018000
  C    -109.953000   57.403200  -105.710000
  C    -108.889000   58.024700  -106.343000
  H    -111.656000   58.198000  -104.472000
  C    -110.298000   55.892500  -105.647000
  H    -110.735000   55.703600  -106.618000
  H    -110.960000   55.695900  -104.863000
  C    -109.146000   54.880900  -105.404000
  H    -108.567000   55.177000  -104.500000
  H    -108.492000   54.824100  -106.261000
  C    -109.735000   53.490300  -105.174000
  H    -110.368000   53.052200  -105.970000
  H    -110.258000   53.330000  -104.220000
  H    -108.941000   52.683000  -105.066000
  H    -105.055000   56.705200  -109.285000
  H    -110.483000   60.611200  -104.482000

 Total Charge           Charge          ....    0
 Multiplicity           Mult            ....    1
 Number of Electrons    NEL             ....  134
 Basis Dimension        Dim             ....  322

ORBITAL ENERGIES
----------------

  NO   OCC          E(Eh)            E(eV)
   0   2.0000     -88.965681     -2420.8793
   1   2.0000     -88.964603     -2420.8499
   2   2.0000     -10.325723      -280.9772
   3   2.0000     -10.323545      -280.9179
   4   2.0000     -10.319498      -280.8078
   5   2.0000     -10.308100      -280.4977
   6   2.0000     -10.304650      -280.4038
   7   2.0000     -10.299189      -280.2552
   8   2.0000     -10.297492      -280.2090
   9   2.0000     -10.296947      -280.1942
  10   2.0000     -10.293079      -280.0889
  11   2.0000     -10.292540      -280.0743
  12   2.0000     -10.287910      -279.9483
  13   2.0000     -10.285634      -279.8863
  14   2.0000     -10.283488      -279.8279
  15   2.0000     -10.278922      -279.7037
  16   2.0000      -8.081470      -219.9080
  17   2.0000      -8.079837      -219.8635
  18   2.0000      -6.039714      -164.3490
  19   2.0000      -6.038350      -164.3119
  20   2.0000      -6.035756      -164.2413
  21   2.0000      -6.034321      -164.2022
  22   2.0000      -6.032525      -164.1533
  23   2.0000      -6.030530      -164.0991
  24   2.0000      -1.008683       -27.4477
  25   2.0000      -0.986911       -26.8552
  26   2.0000      -0.918643       -24.9976
  27   2.0000      -0.908552       -24.7230
  28   2.0000      -0.861145       -23.4329
  29   2.0000      -0.854909       -23.2632
  30   2.0000      -0.845543       -23.0084
  31   2.0000      -0.806980       -21.9590
  32   2.0000      -0.787094       -21.4179
  33   2.0000      -0.777192       -21.1485
  34   2.0000      -0.710839       -19.3429
  35   2.0000      -0.702915       -19.1273
  36   2.0000      -0.684238       -18.6191
  37   2.0000      -0.661597       -18.0030
  38   2.0000      -0.635979       -17.3059
  39   2.0000      -0.605996       -16.4900
  40   2.0000      -0.592976       -16.1357
  41   2.0000      -0.575296       -15.6546
  42   2.0000      -0.574633       -15.6365
  43   2.0000      -0.563831       -15.3426
  44   2.0000      -0.528968       -14.3939
  45   2.0000      -0.519868       -14.1463
  46   2.0000      -0.514631       -14.0038
  47   2.0000      -0.507612       -13.8128
  48   2.0000      -0.504834       -13.7372
  49   2.0000      -0.492360       -13.3978
  50   2.0000      -0.488584       -13.2950
  51   2.0000      -0.481595       -13.1049
  52   2.0000      -0.476227       -12.9588
  53   2.0000      -0.467425       -12.7193
  54   2.0000      -0.460500       -12.5308
  55   2.0000      -0.453919       -12.3518
  56   2.0000      -0.445195       -12.1144
  57   2.0000      -0.436627       -11.8812
  58   2.0000      -0.430197       -11.7062
  59   2.0000      -0.426986       -11.6189
  60   2.0000      -0.419756       -11.4221
  61   2.0000      -0.417889       -11.3713
  62   2.0000      -0.412193       -11.2163
  63   2.0000      -0.345511        -9.4018
  64   2.0000      -0.333738        -9.0815
  65   2.0000      -0.325681        -8.8622
  66   2.0000      -0.287839        -7.8325
  67   0.0000       0.031089         0.8460
  68   0.0000       0.081075         2.2062
  69   0.0000       0.112612         3.0643
  70   0.0000       0.124505         3.3880
  71   0.0000       0.134861         3.6698

MULLIKEN ATOMIC CHARGES
-----------------------
   0 S :    0.118154
   1 C :   -0.118506
   2 C :   -0.128109
   3 C :    0.025201
   4 C :   -0.138988
   5 H :   -0.027672
   6 C :    0.084022
   7 H :    0.023144
   8 H :    0.040645
   9 C :   -0.106279
  10 H :    0.030769
  11 H :    0.039518
  12 C :   -0.011994
  13 H :    0.043990
  14 H :    0.023640
  15 H :    0.034714
  16 S :    0.123158
  17 C :   -0.123983
  18 C :   -0.065590
  19 C :   -0.017591
  20 C :   -0.174175
  21 H :    0.029321
  22 C :    0.096134
  23 H :    0.034279
  24 H :    0.007960
  25 C :   -0.053457
  26 H :    0.044314
  27 H :    0.043117
  28 C :   -0.096735
  29 H :    0.032984
  30 H :    0.031661
  31 H :    0.030823
  32 H :    0.042093
  33 H :    0.083438
Sum of atomic charges:    0.0000000

LOEWDIN ATOMIC CHARGES
----------------------
   0 S :    0.417139
   1 C :   -0.212851
   2 C :   -0.059208
   3 C :   -0.064943
   4 C :   -0.202245
   5 H :    0.015685
   6 C :   -0.038846
   7 H :    0.032387
   8 H :    0.039654
   9 C :   -0.048962
  10 H :    0.022167
  11 H :    0.036854
  12 C :   -0.062241
  13 H :    0.029916
  14 H :    0.029607
  15 H :    0.027913
  16 S :    0.432873
  17 C :   -0.217426
  18 C :   -0.079102
  19 C :   -0.057505
  20 C :   -0.200977
  21 H :    0.035079
  22 C :   -0.018643
  23 H :    0.031973
  24 H :    0.023376
  25 C :   -0.036712
  26 H :    0.033983
  27 H :    0.023897
  28 C :   -0.082038
  29 H :    0.025586
  30 H :    0.023691
  31 H :    0.032008
  32 H :    0.026862
  33 H :    0.041051

  Mayer bond orders larger than 0.100000
B(  0-S ,  1-C ) :   1.1256 B(  0-S ,  4-C ) :   1.1584 B(  1-C ,  2-C ) :   1.6374
B(  1-C , 32-H ) :   0.9568 B(  2-C ,  3-C ) :   1.2182 B(  2-C ,  6-C ) :   0.9996
B(  3-C ,  4-C ) :   1.5864 B(  3-C ,  5-H ) :   1.0037 B(  4-C , 20-C ) :   1.0264
B(  6-C ,  7-H ) :   0.9415 B(  6-C ,  8-H ) :   0.9239 B(  6-C ,  9-C ) :   1.0831
B(  9-C , 10-H ) :   0.9481 B(  9-C , 11-H ) :   0.9517 B(  9-C , 12-C ) :   1.0691
B( 12-C , 13-H ) :   0.9742 B( 12-C , 14-H ) :   0.9710 B( 12-C , 15-H ) :   0.9703
B( 16-S , 17-C ) :   1.1824 B( 16-S , 20-C ) :   1.1670 B( 17-C , 18-C ) :   1.5528
B( 17-C , 20-C ) :   0.1059 B( 17-C , 33-H ) :   0.9641 B( 18-C , 19-C ) :   1.2847
B( 18-C , 21-H ) :   0.9849 B( 19-C , 20-C ) :   1.5607 B( 19-C , 22-C ) :   1.0196
B( 22-C , 23-H ) :   0.9254 B( 22-C , 24-H ) :   0.9437 B( 22-C , 25-C ) :   1.0707
B( 25-C , 26-H ) :   0.9550 B( 25-C , 27-H ) :   0.9476 B( 25-C , 28-C ) :   1.0861
B( 28-C , 29-H ) :   0.9742 B( 28-C , 30-H ) :   0.9733 B( 28-C , 31-H ) :   0.9723

Dispersion correction           -0.014745796
FINAL SINGLE POINT ENERGY     -1339.881597929624

DIPOLE MOMENT
-------------
                                X             Y             Z
Electronic contribution:      3.24355      22.56452      11.40063
Nuclear contribution   :     -3.53374     -23.12316     -11.57317
                        -----------------------------------------
Total Dipole Moment    :     -0.29019      -0.55864      -0.17253
                        -----------------------------------------
Magnitude (a.u.)       :      0.65273
Magnitude (Debye)      :      1.65911

Rotational constants in cm-1:     0.019117     0.008817     0.006852
Rotational constants in MHz :   573.116366   264.315218   205.423388

                             ****ORCA TERMINATED NORMALLY****
TOTAL RUN TIME: 0 days 0 hours 0 minutes 22 seconds 64 msec
