                         Program Version 4.2.1 -  RELEASE  -
|  1> ! wB97X-D3 SP def2-SVP
|  2> %pal
|  3> nprocs 24
|  4> end
|  5>
|  6> * xyz 0 1
|  7> S 	 -122.76 	 63.3286 	 -47.0161
|  8> C 	 -122.36 	 62.0209 	 -45.87
|  9> C 	 -122.767 	 60.7739 	 -46.31
| 10> C 	 -123.597 	 60.9581 	 -47.4366
| 11> C 	 -123.776 	 62.2408 	 -47.8967
| 12> H 	 -124.084 	 60.1993 	 -47.9834
| 13> C 	 -122.224 	 59.4117 	 -45.8561
| 14> H 	 -121.327 	 59.7067 	 -45.1991
| 15> H 	 -121.887 	 58.8065 	 -46.692
| 16> C 	 -123.169 	 58.5498 	 -44.9683
| 17> H 	 -122.658 	 57.8024 	 -44.3692
| 18> H 	 -123.727 	 59.2587 	 -44.2633
| 19> C 	 -124.167 	 57.7048 	 -45.7626
| 20> H 	 -124.307 	 57.9116 	 -46.8369
| 21> H 	 -123.961 	 56.6556 	 -45.7741
| 22> H 	 -125.167 	 57.7947 	 -45.2806
| 23> S 	 -123.494 	 63.2626 	 -50.4145
| 24> C 	 -124.996 	 63.4796 	 -51.4111
| 25> C 	 -126.128 	 63.0106 	 -50.7862
| 26> C 	 -125.866 	 62.5452 	 -49.4369
| 27> C 	 -124.513 	 62.6577 	 -49.0921
| 28> H 	 -127.042 	 63 	 -51.3338
| 29> C 	 -126.926 	 61.8724 	 -48.6498
| 30> H 	 -126.437 	 60.9267 	 -48.3718
| 31> H 	 -127.77 	 61.6027 	 -49.2771
| 32> C 	 -127.448 	 62.6292 	 -47.4362
| 33> H 	 -127.915 	 63.5678 	 -47.7539
| 34> H 	 -126.627 	 62.9505 	 -46.8429
| 35> C 	 -128.364 	 61.8357 	 -46.6338
| 36> H 	 -129.149 	 61.4253 	 -47.1677
| 37> H 	 -128.855 	 62.4636 	 -45.8672
| 38> H 	 -127.855 	 61.1389 	 -45.9971
| 39> H 	 -121.641 	 61.9796 	 -45.0396
| 40> H 	 -125.163 	 64.0214 	 -52.2961
| 41> *
| 42>
| 43>                          ****END OF INPUT****

CARTESIAN COORDINATES (ANGSTROEM)
---------------------------------
  S    -122.760000   63.328600  -47.016100
  C    -122.360000   62.020900  -45.870000
  C    -122.767000   60.773900  -46.310000
  C    -123.597000   60.958100  -47.436600
  C    -123.776000   62.240800  -47.896700
  H    -124.084000   60.199300  -47.983400
  C    -122.224000   59.411700  -45.856100
  H    -121.327000   59.706700  -45.199100
  H    -121.887000   58.806500  -46.692000
  C    -123.169000   58.549800  -44.968300
  H    -122.658000   57.802400  -44.369200
  H    -123.727000   59.258700  -44.263300
  C    -124.167000   57.704800  -45.762600
  H    -124.307000   57.911600  -46.836900
  H    -123.961000   56.655600  -45.774100
  H    -125.167000   57.794700  -45.280600
  S    -123.494000   63.262600  -50.414500
  C    -124.996000   63.479600  -51.411100
  C    -126.128000   63.010600  -50.786200
  C    -125.866000   62.545200  -49.436900
  C    -124.513000   62.657700  -49.092100
  H    -127.042000   63.000000  -51.333800
  C    -126.926000   61.872400  -48.649800
  H    -126.437000   60.926700  -48.371800
  H    -127.770000   61.602700  -49.277100
  C    -127.448000   62.629200  -47.436200
  H    -127.915000   63.567800  -47.753900
  H    -126.627000   62.950500  -46.842900
  C    -128.364000   61.835700  -46.633800
  H    -129.149000   61.425300  -47.167700
  H    -128.855000   62.463600  -45.867200
  H    -127.855000   61.138900  -45.997100
  H    -121.641000   61.979600  -45.039600
  H    -125.163000   64.021400  -52.296100

 Total Charge           Charge          ....    0
 Multiplicity           Mult            ....    1
 Number of Electrons    NEL             ....  134
 Basis Dimension        Dim             ....  322

ORBITAL ENERGIES
----------------

  NO   OCC          E(Eh)            E(eV)
   0   2.0000     -88.970857     -2421.0201
   1   2.0000     -88.967916     -2420.9401
   2   2.0000     -10.328923      -281.0643
   3   2.0000     -10.326182      -280.9897
   4   2.0000     -10.318018      -280.7675
   5   2.0000     -10.315531      -280.6999
   6   2.0000     -10.306028      -280.4413
   7   2.0000     -10.304662      -280.4041
   8   2.0000     -10.302047      -280.3330
   9   2.0000     -10.295343      -280.1505
  10   2.0000     -10.292823      -280.0820
  11   2.0000     -10.287113      -279.9266
  12   2.0000     -10.285733      -279.8890
  13   2.0000     -10.278425      -279.6902
  14   2.0000     -10.272823      -279.5377
  15   2.0000     -10.263197      -279.2758
  16   2.0000      -8.085061      -220.0057
  17   2.0000      -8.081067      -219.8970
  18   2.0000      -6.043597      -164.4546
  19   2.0000      -6.039845      -164.3525
  20   2.0000      -6.039754      -164.3501
  21   2.0000      -6.035928      -164.2460
  22   2.0000      -6.035684      -164.2393
  23   2.0000      -6.031507      -164.1256
  24   2.0000      -1.005129       -27.3510
  25   2.0000      -0.977716       -26.6050
  26   2.0000      -0.916785       -24.9470
  27   2.0000      -0.908780       -24.7292
  28   2.0000      -0.869836       -23.6695
  29   2.0000      -0.855160       -23.2701
  30   2.0000      -0.846788       -23.0423
  31   2.0000      -0.817512       -22.2456
  32   2.0000      -0.785061       -21.3626
  33   2.0000      -0.769757       -20.9462
  34   2.0000      -0.709656       -19.3107
  35   2.0000      -0.699236       -19.0272
  36   2.0000      -0.692787       -18.8517
  37   2.0000      -0.662760       -18.0346
  38   2.0000      -0.639454       -17.4004
  39   2.0000      -0.616813       -16.7843
  40   2.0000      -0.592254       -16.1161
  41   2.0000      -0.577173       -15.7057
  42   2.0000      -0.571728       -15.5575
  43   2.0000      -0.546906       -14.8821
  44   2.0000      -0.539078       -14.6691
  45   2.0000      -0.524276       -14.2663
  46   2.0000      -0.516755       -14.0616
  47   2.0000      -0.512731       -13.9521
  48   2.0000      -0.508146       -13.8274
  49   2.0000      -0.496300       -13.5050
  50   2.0000      -0.490128       -13.3371
  51   2.0000      -0.481484       -13.1019
  52   2.0000      -0.474811       -12.9203
  53   2.0000      -0.463196       -12.6042
  54   2.0000      -0.456542       -12.4232
  55   2.0000      -0.449608       -12.2344
  56   2.0000      -0.440041       -11.9741
  57   2.0000      -0.436386       -11.8747
  58   2.0000      -0.432457       -11.7678
  59   2.0000      -0.428472       -11.6593
  60   2.0000      -0.418761       -11.3951
  61   2.0000      -0.414810       -11.2875
  62   2.0000      -0.410413       -11.1679
  63   2.0000      -0.339811        -9.2467
  64   2.0000      -0.333639        -9.0788
  65   2.0000      -0.326832        -8.8935
  66   2.0000      -0.296225        -8.0607
  67   0.0000       0.030753         0.8368
  68   0.0000       0.059840         1.6283
  69   0.0000       0.098915         2.6916
  70   0.0000       0.108405         2.9498
  71   0.0000       0.132985         3.6187

MULLIKEN ATOMIC CHARGES
-----------------------
   0 S :    0.123893
   1 C :   -0.108530
   2 C :   -0.081706
   3 C :    0.053876
   4 C :   -0.170737
   5 H :   -0.010723
   6 C :    0.030520
   7 H :    0.030899
   8 H :    0.047557
   9 C :   -0.062071
  10 H :    0.036207
  11 H :    0.044620
  12 C :   -0.082090
  13 H :    0.029865
  14 H :    0.027015
  15 H :    0.039034
  16 S :    0.101221
  17 C :   -0.062884
  18 C :   -0.045684
  19 C :   -0.021993
  20 C :   -0.167781
  21 H :    0.014983
  22 C :    0.070569
  23 H :    0.020938
  24 H :    0.010345
  25 C :   -0.050674
  26 H :    0.019542
  27 H :    0.022061
  28 C :    0.011326
  29 H :    0.010314
  30 H :    0.017904
  31 H :    0.022638
  32 H :    0.043227
  33 H :    0.036319
Sum of atomic charges:    0.0000000

LOEWDIN ATOMIC CHARGES
----------------------
   0 S :    0.409140
   1 C :   -0.191416
   2 C :   -0.065185
   3 C :   -0.057472
   4 C :   -0.209300
   5 H :    0.019770
   6 C :   -0.028235
   7 H :    0.038623
   8 H :    0.033327
   9 C :   -0.046808
  10 H :    0.026610
  11 H :    0.033692
  12 C :   -0.079690
  13 H :    0.023294
  14 H :    0.021593
  15 H :    0.034025
  16 S :    0.370737
  17 C :   -0.163131
  18 C :   -0.062311
  19 C :   -0.049117
  20 C :   -0.192682
  21 H :    0.030062
  22 C :   -0.033180
  23 H :    0.034204
  24 H :    0.027692
  25 C :   -0.038336
  26 H :    0.025234
  27 H :    0.023661
  28 C :   -0.058160
  29 H :    0.013670
  30 H :    0.031552
  31 H :    0.025404
  32 H :    0.030599
  33 H :    0.022132

  Mayer bond orders larger than 0.100000
B(  0-S ,  1-C ) :   1.1411 B(  0-S ,  4-C ) :   1.1356 B(  1-C ,  2-C ) :   1.6337
B(  1-C , 32-H ) :   0.9526 B(  2-C ,  3-C ) :   1.2369 B(  2-C ,  6-C ) :   1.0144
B(  3-C ,  4-C ) :   1.5933 B(  3-C ,  5-H ) :   0.9976 B(  4-C , 20-C ) :   1.0226
B(  6-C ,  7-H ) :   0.9385 B(  6-C ,  8-H ) :   0.9541 B(  6-C ,  9-C ) :   1.0624
B(  9-C , 10-H ) :   0.9621 B(  9-C , 11-H ) :   0.9638 B(  9-C , 12-C ) :   1.0517
B( 12-C , 13-H ) :   0.9797 B( 12-C , 14-H ) :   0.9787 B( 12-C , 15-H ) :   0.9775
B( 16-S , 17-C ) :   1.1188 B( 16-S , 20-C ) :   1.1271 B( 17-C , 18-C ) :   1.6711
B( 17-C , 33-H ) :   0.9640 B( 18-C , 19-C ) :   1.2070 B( 18-C , 21-H ) :   0.9883
B( 19-C , 20-C ) :   1.6246 B( 19-C , 22-C ) :   1.0425 B( 22-C , 23-H ) :   0.9283
B( 22-C , 24-H ) :   0.9292 B( 22-C , 25-C ) :   1.0682 B( 25-C , 26-H ) :   0.9477
B( 25-C , 27-H ) :   0.9508 B( 25-C , 28-C ) :   1.1094 B( 28-C , 29-H ) :   0.9685
B( 28-C , 30-H ) :   0.9648 B( 28-C , 31-H ) :   0.9697

Dispersion correction           -0.014329604
FINAL SINGLE POINT ENERGY     -1339.857032962304

DIPOLE MOMENT
-------------
                                X             Y             Z
Electronic contribution:     15.67225      19.93319     -14.76392
Nuclear contribution   :    -16.01539     -20.52681      14.89565
                        -----------------------------------------
Total Dipole Moment    :     -0.34314      -0.59362       0.13173
                        -----------------------------------------
Magnitude (a.u.)       :      0.69820
Magnitude (Debye)      :      1.77469

Rotational constants in cm-1:     0.016869     0.009403     0.007387
Rotational constants in MHz :   505.727488   281.908767   221.446589

                             ****ORCA TERMINATED NORMALLY****
TOTAL RUN TIME: 0 days 0 hours 0 minutes 21 seconds 994 msec
