                         Program Version 4.2.1 -  RELEASE  -
|  1> ! wB97X-D3 SP def2-SVP
|  2> %pal
|  3> nprocs 24
|  4> end
|  5>
|  6> * xyz 0 1
|  7> S 	 -119.192 	 28.6089 	 -16.3927
|  8> C 	 -119.106 	 28.0126 	 -18.0401
|  9> C 	 -117.783 	 28.0002 	 -18.425
| 10> C 	 -116.903 	 28.5945 	 -17.4532
| 11> C 	 -117.506 	 28.7388 	 -16.1603
| 12> H 	 -115.835 	 28.8249 	 -17.4974
| 13> C 	 -117.231 	 27.5854 	 -19.8077
| 14> H 	 -116.619 	 28.5183 	 -20.0083
| 15> H 	 -117.993 	 27.6454 	 -20.6034
| 16> C 	 -116.312 	 26.4079 	 -19.9023
| 17> H 	 -115.362 	 26.7206 	 -19.3624
| 18> H 	 -116.666 	 25.5168 	 -19.4376
| 19> C 	 -115.909 	 26.067 	 -21.3439
| 20> H 	 -116.706 	 26.2045 	 -22.1146
| 21> H 	 -115.078 	 26.6488 	 -21.6965
| 22> H 	 -115.69 	 25.0074 	 -21.4631
| 23> S 	 -115.512 	 28.4388 	 -14.2527
| 24> C 	 -115.246 	 29.7035 	 -13.0532
| 25> C 	 -116.144 	 30.7533 	 -13.1799
| 26> C 	 -117.111 	 30.5059 	 -14.2057
| 27> C 	 -116.855 	 29.2994 	 -14.927
| 28> H 	 -116.067 	 31.6342 	 -12.5912
| 29> C 	 -118.029 	 31.6143 	 -14.6491
| 30> H 	 -118.217 	 31.4968 	 -15.7385
| 31> H 	 -117.298 	 32.4113 	 -14.5264
| 32> C 	 -119.237 	 31.9603 	 -13.7246
| 33> H 	 -119.493 	 32.9503 	 -14.0578
| 34> H 	 -118.942 	 32.0773 	 -12.6594
| 35> C 	 -120.496 	 31.0397 	 -13.8298
| 36> H 	 -121.159 	 31.2973 	 -12.938
| 37> H 	 -120.347 	 29.9506 	 -13.8724
| 38> H 	 -121.109 	 31.3014 	 -14.7767
| 39> H 	 -119.934 	 27.6687 	 -18.7077
| 40> H 	 -114.511 	 29.6685 	 -12.2395
| 41> *
| 42>
| 43>                          ****END OF INPUT****

CARTESIAN COORDINATES (ANGSTROEM)
---------------------------------
  S    -119.192000   28.608900  -16.392700
  C    -119.106000   28.012600  -18.040100
  C    -117.783000   28.000200  -18.425000
  C    -116.903000   28.594500  -17.453200
  C    -117.506000   28.738800  -16.160300
  H    -115.835000   28.824900  -17.497400
  C    -117.231000   27.585400  -19.807700
  H    -116.619000   28.518300  -20.008300
  H    -117.993000   27.645400  -20.603400
  C    -116.312000   26.407900  -19.902300
  H    -115.362000   26.720600  -19.362400
  H    -116.666000   25.516800  -19.437600
  C    -115.909000   26.067000  -21.343900
  H    -116.706000   26.204500  -22.114600
  H    -115.078000   26.648800  -21.696500
  H    -115.690000   25.007400  -21.463100
  S    -115.512000   28.438800  -14.252700
  C    -115.246000   29.703500  -13.053200
  C    -116.144000   30.753300  -13.179900
  C    -117.111000   30.505900  -14.205700
  C    -116.855000   29.299400  -14.927000
  H    -116.067000   31.634200  -12.591200
  C    -118.029000   31.614300  -14.649100
  H    -118.217000   31.496800  -15.738500
  H    -117.298000   32.411300  -14.526400
  C    -119.237000   31.960300  -13.724600
  H    -119.493000   32.950300  -14.057800
  H    -118.942000   32.077300  -12.659400
  C    -120.496000   31.039700  -13.829800
  H    -121.159000   31.297300  -12.938000
  H    -120.347000   29.950600  -13.872400
  H    -121.109000   31.301400  -14.776700
  H    -119.934000   27.668700  -18.707700
  H    -114.511000   29.668500  -12.239500

 Total Charge           Charge          ....    0
 Multiplicity           Mult            ....    1
 Number of Electrons    NEL             ....  134
 Basis Dimension        Dim             ....  322

ORBITAL ENERGIES
----------------

  NO   OCC          E(Eh)            E(eV)
   0   2.0000     -88.969840     -2420.9924
   1   2.0000     -88.967297     -2420.9232
   2   2.0000     -10.334807      -281.2244
   3   2.0000     -10.332217      -281.1539
   4   2.0000     -10.321471      -280.8615
   5   2.0000     -10.317944      -280.7655
   6   2.0000     -10.305509      -280.4271
   7   2.0000     -10.305293      -280.4213
   8   2.0000     -10.298867      -280.2464
   9   2.0000     -10.296390      -280.1790
  10   2.0000     -10.294357      -280.1237
  11   2.0000     -10.292015      -280.0600
  12   2.0000     -10.291644      -280.0499
  13   2.0000     -10.287771      -279.9445
  14   2.0000     -10.286872      -279.9200
  15   2.0000     -10.278205      -279.6842
  16   2.0000      -8.084259      -219.9839
  17   2.0000      -8.081853      -219.9184
  18   2.0000      -6.042695      -164.4301
  19   2.0000      -6.040350      -164.3663
  20   2.0000      -6.038742      -164.3225
  21   2.0000      -6.036182      -164.2529
  22   2.0000      -6.035181      -164.2256
  23   2.0000      -6.032806      -164.1610
  24   2.0000      -1.003839       -27.3159
  25   2.0000      -0.984197       -26.7814
  26   2.0000      -0.911334       -24.7987
  27   2.0000      -0.902349       -24.5542
  28   2.0000      -0.867013       -23.5926
  29   2.0000      -0.847756       -23.0686
  30   2.0000      -0.840424       -22.8691
  31   2.0000      -0.810231       -22.0475
  32   2.0000      -0.781132       -21.2557
  33   2.0000      -0.767285       -20.8789
  34   2.0000      -0.704167       -19.1614
  35   2.0000      -0.698321       -19.0023
  36   2.0000      -0.686325       -18.6758
  37   2.0000      -0.662313       -18.0225
  38   2.0000      -0.636826       -17.3289
  39   2.0000      -0.612499       -16.6669
  40   2.0000      -0.589036       -16.0285
  41   2.0000      -0.571360       -15.5475
  42   2.0000      -0.561009       -15.2658
  43   2.0000      -0.540518       -14.7083
  44   2.0000      -0.536672       -14.6036
  45   2.0000      -0.521289       -14.1850
  46   2.0000      -0.516252       -14.0479
  47   2.0000      -0.508660       -13.8413
  48   2.0000      -0.503674       -13.7057
  49   2.0000      -0.497163       -13.5285
  50   2.0000      -0.491287       -13.3686
  51   2.0000      -0.473710       -12.8903
  52   2.0000      -0.468524       -12.7492
  53   2.0000      -0.465984       -12.6801
  54   2.0000      -0.458902       -12.4874
  55   2.0000      -0.449916       -12.2428
  56   2.0000      -0.440541       -11.9877
  57   2.0000      -0.435779       -11.8581
  58   2.0000      -0.431960       -11.7542
  59   2.0000      -0.423122       -11.5137
  60   2.0000      -0.419723       -11.4212
  61   2.0000      -0.411116       -11.1870
  62   2.0000      -0.401972       -10.9382
  63   2.0000      -0.343312        -9.3420
  64   2.0000      -0.329694        -8.9714
  65   2.0000      -0.326209        -8.8766
  66   2.0000      -0.293533        -7.9874
  67   0.0000       0.031312         0.8520
  68   0.0000       0.067779         1.8444
  69   0.0000       0.105450         2.8694
  70   0.0000       0.124751         3.3946
  71   0.0000       0.126568         3.4441

MULLIKEN ATOMIC CHARGES
-----------------------
   0 S :    0.108062
   1 C :   -0.131524
   2 C :   -0.070112
   3 C :    0.008012
   4 C :   -0.152622
   5 H :    0.023937
   6 C :    0.022749
   7 H :    0.036755
   8 H :    0.019179
   9 C :   -0.048529
  10 H :    0.039800
  11 H :    0.031649
  12 C :   -0.055158
  13 H :    0.024676
  14 H :    0.032266
  15 H :    0.030844
  16 S :    0.120765
  17 C :   -0.099071
  18 C :   -0.030690
  19 C :   -0.020398
  20 C :   -0.180541
  21 H :    0.013823
  22 C :    0.023279
  23 H :    0.043784
  24 H :    0.024856
  25 C :   -0.041387
  26 H :    0.025069
  27 H :    0.031917
  28 C :   -0.100891
  29 H :    0.044536
  30 H :    0.051783
  31 H :    0.042522
  32 H :    0.068061
  33 H :    0.062603
Sum of atomic charges:    0.0000000

LOEWDIN ATOMIC CHARGES
----------------------
   0 S :    0.437684
   1 C :   -0.213082
   2 C :   -0.066241
   3 C :   -0.071758
   4 C :   -0.212952
   5 H :    0.030519
   6 C :   -0.040861
   7 H :    0.042280
   8 H :    0.024703
   9 C :   -0.044020
  10 H :    0.035863
  11 H :    0.021192
  12 C :   -0.067826
  13 H :    0.026448
  14 H :    0.022799
  15 H :    0.027935
  16 S :    0.419336
  17 C :   -0.185041
  18 C :   -0.068128
  19 C :   -0.055148
  20 C :   -0.216729
  21 H :    0.028277
  22 C :   -0.039363
  23 H :    0.034837
  24 H :    0.036109
  25 C :   -0.039863
  26 H :    0.024070
  27 H :    0.027240
  28 C :   -0.083194
  29 H :    0.033525
  30 H :    0.020521
  31 H :    0.033036
  32 H :    0.044872
  33 H :    0.032960

  Mayer bond orders larger than 0.100000
B(  0-S ,  1-C ) :   1.1390 B(  0-S ,  4-C ) :   1.1787 B(  1-C ,  2-C ) :   1.5940
B(  1-C , 32-H ) :   0.9669 B(  2-C ,  3-C ) :   1.2580 B(  2-C ,  6-C ) :   1.0046
B(  3-C ,  4-C ) :   1.5391 B(  3-C ,  5-H ) :   0.9847 B(  4-C , 20-C ) :   1.0105
B(  6-C ,  7-H ) :   0.9436 B(  6-C ,  8-H ) :   0.9512 B(  6-C ,  9-C ) :   1.0583
B(  9-C , 10-H ) :   0.9528 B(  9-C , 11-H ) :   0.9630 B(  9-C , 12-C ) :   1.0739
B( 12-C , 13-H ) :   0.9755 B( 12-C , 14-H ) :   0.9785 B( 12-C , 15-H ) :   0.9768
B( 16-S , 17-C ) :   1.1589 B( 16-S , 20-C ) :   1.1583 B( 17-C , 18-C ) :   1.6004
B( 17-C , 33-H ) :   0.9644 B( 18-C , 19-C ) :   1.2645 B( 18-C , 21-H ) :   0.9900
B( 19-C , 20-C ) :   1.5497 B( 19-C , 22-C ) :   1.0244 B( 22-C , 23-H ) :   0.9431
B( 22-C , 24-H ) :   0.9377 B( 22-C , 25-C ) :   1.0585 B( 25-C , 26-H ) :   0.9543
B( 25-C , 27-H ) :   0.9606 B( 25-C , 28-C ) :   1.0630 B( 28-C , 29-H ) :   0.9738
B( 28-C , 30-H ) :   0.9770 B( 28-C , 31-H ) :   0.9762

Dispersion correction           -0.014288346
FINAL SINGLE POINT ENERGY     -1339.866526321475

DIPOLE MOMENT
-------------
                                X             Y             Z
Electronic contribution:      3.49693      -2.97876      13.08481
Nuclear contribution   :     -3.32357       3.32075     -13.34269
                        -----------------------------------------
Total Dipole Moment    :      0.17336       0.34199      -0.25789
                        -----------------------------------------
Magnitude (a.u.)       :      0.46208
Magnitude (Debye)      :      1.17451

Rotational constants in cm-1:     0.021925     0.007695     0.006126
Rotational constants in MHz :   657.293243   230.682395   183.655373

                             ****ORCA TERMINATED NORMALLY****
TOTAL RUN TIME: 0 days 0 hours 0 minutes 21 seconds 24 msec
