                         Program Version 4.2.1 -  RELEASE  -
|  1> ! wB97X-D3 SP def2-SVP
|  2> %pal
|  3> nprocs 24
|  4> end
|  5>
|  6> * xyz 0 1
|  7> S 	 -95.6158 	 42.0568 	 -86.4619
|  8> C 	 -95.9834 	 40.6933 	 -85.4018
|  9> C 	 -96.0368 	 39.552 	 -86.1567
| 10> C 	 -95.9832 	 39.7884 	 -87.5385
| 11> C 	 -95.8726 	 41.1502 	 -87.8636
| 12> H 	 -96.0794 	 39.0479 	 -88.3074
| 13> C 	 -96.2867 	 38.1284 	 -85.6402
| 14> H 	 -95.3275 	 37.6156 	 -85.8301
| 15> H 	 -96.9049 	 37.6674 	 -86.3354
| 16> C 	 -96.8726 	 37.8065 	 -84.2372
| 17> H 	 -96.1063 	 37.9717 	 -83.3654
| 18> H 	 -97.7454 	 38.4962 	 -84.0878
| 19> C 	 -97.3573 	 36.3747 	 -84.1612
| 20> H 	 -96.7388 	 35.6228 	 -84.75
| 21> H 	 -97.2239 	 35.9592 	 -83.1226
| 22> H 	 -98.3551 	 36.2292 	 -84.4488
| 23> S 	 -95.513 	 43.4273 	 -89.3597
| 24> C 	 -95.8636 	 43.4284 	 -91.0805
| 25> C 	 -96.0273 	 42.1193 	 -91.5188
| 26> C 	 -96.0252 	 41.1379 	 -90.4991
| 27> C 	 -95.7811 	 41.6694 	 -89.2546
| 28> H 	 -96.3295 	 41.9286 	 -92.4857
| 29> C 	 -96.1935 	 39.7036 	 -90.8368
| 30> H 	 -95.507 	 38.9894 	 -90.3834
| 31> H 	 -96.036 	 39.5396 	 -91.9176
| 32> C 	 -97.616 	 39.1231 	 -90.4339
| 33> H 	 -98.0104 	 39.4017 	 -89.4401
| 34> H 	 -97.5963 	 37.995 	 -90.4708
| 35> C 	 -98.6509 	 39.6134 	 -91.4601
| 36> H 	 -99.6258 	 39.2107 	 -91.1534
| 37> H 	 -98.5226 	 39.2959 	 -92.4853
| 38> H 	 -98.7189 	 40.6779 	 -91.5338
| 39> H 	 -96.0236 	 40.6979 	 -84.3295
| 40> H 	 -95.7952 	 44.256 	 -91.7513
| 41> *
| 42>
| 43>                          ****END OF INPUT****

CARTESIAN COORDINATES (ANGSTROEM)
---------------------------------
  S    -95.615800   42.056800  -86.461900
  C    -95.983400   40.693300  -85.401800
  C    -96.036800   39.552000  -86.156700
  C    -95.983200   39.788400  -87.538500
  C    -95.872600   41.150200  -87.863600
  H    -96.079400   39.047900  -88.307400
  C    -96.286700   38.128400  -85.640200
  H    -95.327500   37.615600  -85.830100
  H    -96.904900   37.667400  -86.335400
  C    -96.872600   37.806500  -84.237200
  H    -96.106300   37.971700  -83.365400
  H    -97.745400   38.496200  -84.087800
  C    -97.357300   36.374700  -84.161200
  H    -96.738800   35.622800  -84.750000
  H    -97.223900   35.959200  -83.122600
  H    -98.355100   36.229200  -84.448800
  S    -95.513000   43.427300  -89.359700
  C    -95.863600   43.428400  -91.080500
  C    -96.027300   42.119300  -91.518800
  C    -96.025200   41.137900  -90.499100
  C    -95.781100   41.669400  -89.254600
  H    -96.329500   41.928600  -92.485700
  C    -96.193500   39.703600  -90.836800
  H    -95.507000   38.989400  -90.383400
  H    -96.036000   39.539600  -91.917600
  C    -97.616000   39.123100  -90.433900
  H    -98.010400   39.401700  -89.440100
  H    -97.596300   37.995000  -90.470800
  C    -98.650900   39.613400  -91.460100
  H    -99.625800   39.210700  -91.153400
  H    -98.522600   39.295900  -92.485300
  H    -98.718900   40.677900  -91.533800
  H    -96.023600   40.697900  -84.329500
  H    -95.795200   44.256000  -91.751300

 Total Charge           Charge          ....    0
 Multiplicity           Mult            ....    1
 Number of Electrons    NEL             ....  134
 Basis Dimension        Dim             ....  322

ORBITAL ENERGIES
----------------

  NO   OCC          E(Eh)            E(eV)
   0   2.0000     -88.967320     -2420.9239
   1   2.0000     -88.965749     -2420.8811
   2   2.0000     -10.333363      -281.1851
   3   2.0000     -10.331330      -281.1298
   4   2.0000     -10.319469      -280.8070
   5   2.0000     -10.310613      -280.5660
   6   2.0000     -10.303602      -280.3753
   7   2.0000     -10.302976      -280.3582
   8   2.0000     -10.298931      -280.2482
   9   2.0000     -10.297472      -280.2085
  10   2.0000     -10.296661      -280.1864
  11   2.0000     -10.291030      -280.0332
  12   2.0000     -10.289856      -280.0012
  13   2.0000     -10.288061      -279.9524
  14   2.0000     -10.284030      -279.8427
  15   2.0000     -10.271890      -279.5123
  16   2.0000      -8.082638      -219.9397
  17   2.0000      -8.080108      -219.8709
  18   2.0000      -6.041202      -164.3895
  19   2.0000      -6.038698      -164.3213
  20   2.0000      -6.037102      -164.2779
  21   2.0000      -6.034694      -164.2124
  22   2.0000      -6.033260      -164.1734
  23   2.0000      -6.030794      -164.1062
  24   2.0000      -1.011410       -27.5219
  25   2.0000      -0.988057       -26.8864
  26   2.0000      -0.911842       -24.8125
  27   2.0000      -0.907948       -24.7065
  28   2.0000      -0.870105       -23.6768
  29   2.0000      -0.853354       -23.2209
  30   2.0000      -0.847491       -23.0614
  31   2.0000      -0.812941       -22.1213
  32   2.0000      -0.784156       -21.3380
  33   2.0000      -0.777140       -21.1471
  34   2.0000      -0.712803       -19.3964
  35   2.0000      -0.701134       -19.0788
  36   2.0000      -0.689224       -18.7547
  37   2.0000      -0.673046       -18.3145
  38   2.0000      -0.638952       -17.3868
  39   2.0000      -0.615070       -16.7369
  40   2.0000      -0.601523       -16.3683
  41   2.0000      -0.570980       -15.5372
  42   2.0000      -0.568919       -15.4811
  43   2.0000      -0.547021       -14.8852
  44   2.0000      -0.544242       -14.8096
  45   2.0000      -0.524265       -14.2660
  46   2.0000      -0.515136       -14.0176
  47   2.0000      -0.512446       -13.9444
  48   2.0000      -0.507348       -13.8056
  49   2.0000      -0.498232       -13.5576
  50   2.0000      -0.492298       -13.3961
  51   2.0000      -0.488552       -13.2942
  52   2.0000      -0.476193       -12.9579
  53   2.0000      -0.470919       -12.8143
  54   2.0000      -0.462675       -12.5900
  55   2.0000      -0.451645       -12.2899
  56   2.0000      -0.441441       -12.0122
  57   2.0000      -0.434903       -11.8343
  58   2.0000      -0.427542       -11.6340
  59   2.0000      -0.425347       -11.5743
  60   2.0000      -0.419982       -11.4283
  61   2.0000      -0.417936       -11.3726
  62   2.0000      -0.411707       -11.2031
  63   2.0000      -0.360146        -9.8001
  64   2.0000      -0.335549        -9.1308
  65   2.0000      -0.327452        -8.9104
  66   2.0000      -0.282226        -7.6798
  67   0.0000       0.016819         0.4577
  68   0.0000       0.090753         2.4695
  69   0.0000       0.092420         2.5149
  70   0.0000       0.123660         3.3649
  71   0.0000       0.134561         3.6616

MULLIKEN ATOMIC CHARGES
-----------------------
   0 S :    0.105464
   1 C :   -0.124551
   2 C :   -0.056438
   3 C :   -0.028365
   4 C :   -0.069211
   5 H :   -0.010441
   6 C :    0.065362
   7 H :    0.037185
   8 H :    0.007796
   9 C :   -0.093094
  10 H :    0.051122
  11 H :    0.045255
  12 C :   -0.066253
  13 H :    0.032809
  14 H :    0.036639
  15 H :    0.033258
  16 S :    0.083125
  17 C :   -0.074724
  18 C :    0.000660
  19 C :   -0.043035
  20 C :   -0.108720
  21 H :   -0.010996
  22 C :    0.015870
  23 H :    0.037662
  24 H :    0.026092
  25 C :   -0.110985
  26 H :    0.056191
  27 H :    0.035767
  28 C :   -0.042769
  29 H :    0.026792
  30 H :    0.017502
  31 H :    0.031782
  32 H :    0.040711
  33 H :    0.052536
Sum of atomic charges:   -0.0000000

LOEWDIN ATOMIC CHARGES
----------------------
   0 S :    0.423796
   1 C :   -0.199398
   2 C :   -0.059358
   3 C :   -0.072564
   4 C :   -0.202635
   5 H :    0.024727
   6 C :   -0.034683
   7 H :    0.039397
   8 H :    0.021120
   9 C :   -0.051131
  10 H :    0.034490
  11 H :    0.032079
  12 C :   -0.072901
  13 H :    0.031244
  14 H :    0.034230
  15 H :    0.017997
  16 S :    0.386538
  17 C :   -0.174556
  18 C :   -0.060707
  19 C :   -0.062956
  20 C :   -0.168296
  21 H :    0.017333
  22 C :   -0.034919
  23 H :    0.028768
  24 H :    0.035061
  25 C :   -0.042408
  26 H :    0.029662
  27 H :    0.026807
  28 C :   -0.067929
  29 H :    0.025974
  30 H :    0.018810
  31 H :    0.021210
  32 H :    0.027457
  33 H :    0.027742

  Mayer bond orders larger than 0.100000
B(  0-S ,  1-C ) :   1.1186 B(  0-S ,  4-C ) :   1.1768 B(  1-C ,  2-C ) :   1.5997
B(  1-C , 32-H ) :   0.9712 B(  2-C ,  3-C ) :   1.2795 B(  2-C ,  6-C ) :   1.0032
B(  3-C ,  4-C ) :   1.5110 B(  3-C ,  5-H ) :   0.9993 B(  4-C , 20-C ) :   1.0647
B(  6-C ,  7-H ) :   0.9217 B(  6-C ,  8-H ) :   0.9495 B(  6-C ,  9-C ) :   1.0615
B(  9-C , 10-H ) :   0.9561 B(  9-C , 11-H ) :   0.9569 B(  9-C , 12-C ) :   1.0749
B( 12-C , 13-H ) :   0.9742 B( 12-C , 14-H ) :   0.9750 B( 12-C , 15-H ) :   0.9759
B( 16-S , 17-C ) :   1.1543 B( 16-S , 20-C ) :   1.1264 B( 17-C , 18-C ) :   1.5987
B( 17-C , 33-H ) :   0.9694 B( 18-C , 19-C ) :   1.2620 B( 18-C , 21-H ) :   0.9921
B( 19-C , 20-C ) :   1.5968 B( 19-C , 22-C ) :   1.0376 B( 22-C , 23-H ) :   0.9455
B( 22-C , 24-H ) :   0.9390 B( 22-C , 25-C ) :   1.0467 B( 25-C , 26-H ) :   0.9585
B( 25-C , 27-H ) :   0.9574 B( 25-C , 28-C ) :   1.0744 B( 28-C , 29-H ) :   0.9731
B( 28-C , 30-H ) :   0.9751 B( 28-C , 31-H ) :   0.9778

Dispersion correction           -0.014249092
FINAL SINGLE POINT ENERGY     -1339.871093410327

DIPOLE MOMENT
-------------
                                X             Y             Z
Electronic contribution:     12.60049      28.35608      -1.19694
Nuclear contribution   :    -12.84563     -29.09174       0.99268
                        -----------------------------------------
Total Dipole Moment    :     -0.24514      -0.73566      -0.20426
                        -----------------------------------------
Magnitude (a.u.)       :      0.80188
Magnitude (Debye)      :      2.03821

Rotational constants in cm-1:     0.021091     0.008246     0.006196
Rotational constants in MHz :   632.292932   247.215110   185.754047

                             ****ORCA TERMINATED NORMALLY****
TOTAL RUN TIME: 0 days 0 hours 0 minutes 21 seconds 885 msec
