                         Program Version 4.2.1 -  RELEASE  -
|  1> ! wB97X-D3 SP def2-SVP
|  2> %pal
|  3> nprocs 24
|  4> end
|  5>
|  6> * xyz 0 1
|  7> S 	 -31.1484 	 5.03937 	 6.01562
|  8> C 	 -31.3879 	 6.45127 	 6.98923
|  9> C 	 -32.6944 	 6.93893 	 6.9369
| 10> C 	 -33.4909 	 6.12761 	 6.03618
| 11> C 	 -32.7914 	 5.13336 	 5.42336
| 12> H 	 -34.5146 	 6.46053 	 5.78502
| 13> C 	 -33.189 	 8.16512 	 7.65591
| 14> H 	 -32.8187 	 8.29782 	 8.62862
| 15> H 	 -34.2486 	 8.06008 	 7.81977
| 16> C 	 -33.0724 	 9.4546 	 6.78398
| 17> H 	 -33.7419 	 9.28883 	 5.90301
| 18> H 	 -33.4894 	 10.2529 	 7.35756
| 19> C 	 -31.6415 	 9.89239 	 6.41494
| 20> H 	 -31.5568 	 10.9884 	 6.53579
| 21> H 	 -30.924 	 9.47443 	 7.16276
| 22> H 	 -31.4433 	 9.42958 	 5.5104
| 23> S 	 -33.2876 	 2.41226 	 5.2972
| 24> C 	 -33.8323 	 1.70771 	 3.85625
| 25> C 	 -33.9032 	 2.61767 	 2.81587
| 26> C 	 -33.5881 	 3.99031 	 3.20125
| 27> C 	 -33.3205 	 4.02403 	 4.58894
| 28> H 	 -34.1101 	 2.29273 	 1.79896
| 29> C 	 -33.5013 	 5.10433 	 2.17473
| 30> H 	 -33.8841 	 5.96386 	 2.72003
| 31> H 	 -34.0492 	 4.95653 	 1.24387
| 32> C 	 -32.125 	 5.40287 	 1.51351
| 33> H 	 -32.317 	 5.93599 	 0.540568
| 34> H 	 -31.5865 	 4.46805 	 1.38814
| 35> C 	 -31.195 	 6.27355 	 2.38795
| 36> H 	 -31.0474 	 5.93877 	 3.39547
| 37> H 	 -31.59 	 7.31762 	 2.49784
| 38> H 	 -30.2413 	 6.29864 	 1.82187
| 39> H 	 -30.644 	 6.75907 	 7.66492
| 40> H 	 -33.7532 	 0.714394 	 3.64419
| 41> *
| 42>
| 43>                          ****END OF INPUT****

CARTESIAN COORDINATES (ANGSTROEM)
---------------------------------
  S    -31.148400    5.039370    6.015620
  C    -31.387900    6.451270    6.989230
  C    -32.694400    6.938930    6.936900
  C    -33.490900    6.127610    6.036180
  C    -32.791400    5.133360    5.423360
  H    -34.514600    6.460530    5.785020
  C    -33.189000    8.165120    7.655910
  H    -32.818700    8.297820    8.628620
  H    -34.248600    8.060080    7.819770
  C    -33.072400    9.454600    6.783980
  H    -33.741900    9.288830    5.903010
  H    -33.489400   10.252900    7.357560
  C    -31.641500    9.892390    6.414940
  H    -31.556800   10.988400    6.535790
  H    -30.924000    9.474430    7.162760
  H    -31.443300    9.429580    5.510400
  S    -33.287600    2.412260    5.297200
  C    -33.832300    1.707710    3.856250
  C    -33.903200    2.617670    2.815870
  C    -33.588100    3.990310    3.201250
  C    -33.320500    4.024030    4.588940
  H    -34.110100    2.292730    1.798960
  C    -33.501300    5.104330    2.174730
  H    -33.884100    5.963860    2.720030
  H    -34.049200    4.956530    1.243870
  C    -32.125000    5.402870    1.513510
  H    -32.317000    5.935990    0.540568
  H    -31.586500    4.468050    1.388140
  C    -31.195000    6.273550    2.387950
  H    -31.047400    5.938770    3.395470
  H    -31.590000    7.317620    2.497840
  H    -30.241300    6.298640    1.821870
  H    -30.644000    6.759070    7.664920
  H    -33.753200    0.714394    3.644190

 Total Charge           Charge          ....    0
 Multiplicity           Mult            ....    1
 Number of Electrons    NEL             ....  134
 Basis Dimension        Dim             ....  322

ORBITAL ENERGIES
----------------

  NO   OCC          E(Eh)            E(eV)
   0   2.0000     -88.967924     -2420.9403
   1   2.0000     -88.966217     -2420.8938
   2   2.0000     -10.329475      -281.0793
   3   2.0000     -10.329252      -281.0732
   4   2.0000     -10.311390      -280.5872
   5   2.0000     -10.310114      -280.5525
   6   2.0000     -10.305644      -280.4308
   7   2.0000     -10.303581      -280.3747
   8   2.0000     -10.298441      -280.2348
   9   2.0000     -10.293513      -280.1007
  10   2.0000     -10.290552      -280.0202
  11   2.0000     -10.288648      -279.9683
  12   2.0000     -10.287994      -279.9505
  13   2.0000     -10.287008      -279.9237
  14   2.0000     -10.274979      -279.5964
  15   2.0000     -10.269950      -279.4595
  16   2.0000      -8.082414      -219.9337
  17   2.0000      -8.081741      -219.9154
  18   2.0000      -6.040818      -164.3790
  19   2.0000      -6.040205      -164.3623
  20   2.0000      -6.036917      -164.2729
  21   2.0000      -6.036073      -164.2499
  22   2.0000      -6.033311      -164.1748
  23   2.0000      -6.032568      -164.1545
  24   2.0000      -1.006614       -27.3914
  25   2.0000      -0.985217       -26.8091
  26   2.0000      -0.911531       -24.8040
  27   2.0000      -0.904752       -24.6195
  28   2.0000      -0.864444       -23.5227
  29   2.0000      -0.849463       -23.1151
  30   2.0000      -0.844314       -22.9750
  31   2.0000      -0.813888       -22.1470
  32   2.0000      -0.786152       -21.3923
  33   2.0000      -0.773664       -21.0525
  34   2.0000      -0.703465       -19.1423
  35   2.0000      -0.693387       -18.8680
  36   2.0000      -0.689358       -18.7584
  37   2.0000      -0.655428       -17.8351
  38   2.0000      -0.645576       -17.5670
  39   2.0000      -0.623717       -16.9722
  40   2.0000      -0.598137       -16.2761
  41   2.0000      -0.573682       -15.6107
  42   2.0000      -0.552665       -15.0388
  43   2.0000      -0.546033       -14.8583
  44   2.0000      -0.540290       -14.7020
  45   2.0000      -0.532430       -14.4882
  46   2.0000      -0.521311       -14.1856
  47   2.0000      -0.511125       -13.9084
  48   2.0000      -0.507348       -13.8057
  49   2.0000      -0.498119       -13.5545
  50   2.0000      -0.491264       -13.3680
  51   2.0000      -0.476026       -12.9533
  52   2.0000      -0.473446       -12.8831
  53   2.0000      -0.461252       -12.5513
  54   2.0000      -0.458680       -12.4813
  55   2.0000      -0.446804       -12.1582
  56   2.0000      -0.441320       -12.0089
  57   2.0000      -0.432270       -11.7627
  58   2.0000      -0.430709       -11.7202
  59   2.0000      -0.423690       -11.5292
  60   2.0000      -0.419332       -11.4106
  61   2.0000      -0.417076       -11.3492
  62   2.0000      -0.407175       -11.0798
  63   2.0000      -0.340155        -9.2561
  64   2.0000      -0.329383        -8.9630
  65   2.0000      -0.322593        -8.7782
  66   2.0000      -0.304360        -8.2820
  67   0.0000       0.037947         1.0326
  68   0.0000       0.058140         1.5821
  69   0.0000       0.116954         3.1825
  70   0.0000       0.119176         3.2429
  71   0.0000       0.125457         3.4139

MULLIKEN ATOMIC CHARGES
-----------------------
   0 S :    0.109532
   1 C :   -0.113068
   2 C :   -0.108992
   3 C :    0.051507
   4 C :   -0.172064
   5 H :    0.024770
   6 C :    0.092705
   7 H :    0.015220
   8 H :    0.012333
   9 C :   -0.102338
  10 H :    0.033294
  11 H :    0.021471
  12 C :   -0.022140
  13 H :    0.043165
  14 H :    0.020559
  15 H :    0.036845
  16 S :    0.120512
  17 C :   -0.042518
  18 C :   -0.054887
  19 C :   -0.031068
  20 C :   -0.171187
  21 H :    0.018195
  22 C :    0.084333
  23 H :    0.023607
  24 H :    0.023182
  25 C :   -0.085586
  26 H :    0.041541
  27 H :    0.032542
  28 C :   -0.056997
  29 H :    0.026924
  30 H :    0.027344
  31 H :    0.035152
  32 H :    0.036270
  33 H :    0.029844
Sum of atomic charges:    0.0000000

LOEWDIN ATOMIC CHARGES
----------------------
   0 S :    0.421109
   1 C :   -0.193255
   2 C :   -0.060126
   3 C :   -0.057243
   4 C :   -0.201094
   5 H :    0.037256
   6 C :   -0.029791
   7 H :    0.022465
   8 H :    0.030798
   9 C :   -0.036656
  10 H :    0.026093
  11 H :    0.017614
  12 C :   -0.062756
  13 H :    0.032984
  14 H :    0.027454
  15 H :    0.019564
  16 S :    0.431462
  17 C :   -0.196272
  18 C :   -0.067325
  19 C :   -0.047450
  20 C :   -0.206054
  21 H :    0.029052
  22 C :   -0.038078
  23 H :    0.031241
  24 H :    0.034494
  25 C :   -0.037297
  26 H :    0.030253
  27 H :    0.025049
  28 C :   -0.072824
  29 H :    0.008696
  30 H :    0.024602
  31 H :    0.027935
  32 H :    0.015642
  33 H :    0.012455

  Mayer bond orders larger than 0.100000
B(  0-S ,  1-C ) :   1.1481 B(  0-S ,  4-C ) :   1.1530 B(  1-C ,  2-C ) :   1.6033
B(  1-C , 32-H ) :   0.9732 B(  2-C ,  3-C ) :   1.2456 B(  2-C ,  6-C ) :   1.0378
B(  3-C ,  4-C ) :   1.6041 B(  3-C ,  5-H ) :   0.9855 B(  4-C , 20-C ) :   0.9907
B(  6-C ,  7-H ) :   0.9401 B(  6-C ,  8-H ) :   0.9327 B(  6-C ,  9-C ) :   1.0791
B(  9-C , 10-H ) :   0.9609 B(  9-C , 11-H ) :   0.9601 B(  9-C , 12-C ) :   1.0607
B( 12-C , 13-H ) :   0.9774 B( 12-C , 14-H ) :   0.9750 B( 12-C , 15-H ) :   0.9765
B( 16-S , 17-C ) :   1.1673 B( 16-S , 20-C ) :   1.1623 B( 17-C , 18-C ) :   1.6060
B( 17-C , 33-H ) :   0.9705 B( 18-C , 19-C ) :   1.2542 B( 18-C , 21-H ) :   0.9872
B( 19-C , 20-C ) :   1.5753 B( 19-C , 22-C ) :   1.0490 B( 22-C , 23-H ) :   0.9304
B( 22-C , 24-H ) :   0.9400 B( 22-C , 25-C ) :   1.0548 B( 25-C , 26-H ) :   0.9600
B( 25-C , 27-H ) :   0.9545 B( 25-C , 28-C ) :   1.0813 B( 28-C , 29-H ) :   0.9731
B( 28-C , 30-H ) :   0.9738 B( 28-C , 31-H ) :   0.9736

Dispersion correction           -0.015663663
FINAL SINGLE POINT ENERGY     -1339.871702759316

DIPOLE MOMENT
-------------
                                X             Y             Z
Electronic contribution:     -1.80842     -24.68541       7.60607
Nuclear contribution   :      1.75316      25.09199      -7.73599
                        -----------------------------------------
Total Dipole Moment    :     -0.05525       0.40657      -0.12992
                        -----------------------------------------
Magnitude (a.u.)       :      0.43039
Magnitude (Debye)      :      1.09396

Rotational constants in cm-1:     0.021934     0.008892     0.007508
Rotational constants in MHz :   657.570363   266.561137   225.092339

                             ****ORCA TERMINATED NORMALLY****
TOTAL RUN TIME: 0 days 0 hours 0 minutes 22 seconds 678 msec
