                         Program Version 4.2.1 -  RELEASE  -
|  1> ! wB97X-D3 SP def2-SVP
|  2> %pal
|  3> nprocs 24
|  4> end
|  5>
|  6> * xyz 0 1
|  7> S 	 -40.6275 	 -49.9972 	 -71.4215
|  8> C 	 -39.7861 	 -48.9549 	 -70.2679
|  9> C 	 -39.1388 	 -49.82 	 -69.3163
| 10> C 	 -39.3941 	 -51.204 	 -69.479
| 11> C 	 -40.0507 	 -51.4734 	 -70.6063
| 12> H 	 -39.0744 	 -51.9678 	 -68.811
| 13> C 	 -38.2956 	 -49.378 	 -68.1237
| 14> H 	 -37.8109 	 -48.437 	 -68.4332
| 15> H 	 -37.5043 	 -50.1659 	 -67.8841
| 16> C 	 -38.9611 	 -49.0426 	 -66.7267
| 17> H 	 -39.9211 	 -49.5237 	 -66.6498
| 18> H 	 -38.4039 	 -49.3135 	 -65.8434
| 19> C 	 -39.3117 	 -47.5767 	 -66.4153
| 20> H 	 -39.7711 	 -47.1175 	 -67.2286
| 21> H 	 -40.0696 	 -47.6591 	 -65.6017
| 22> H 	 -38.4475 	 -46.9541 	 -66.1278
| 23> S 	 -42.1182 	 -52.9878 	 -71.682
| 24> C 	 -41.931 	 -54.7125 	 -71.8421
| 25> C 	 -40.6942 	 -55.1089 	 -71.4839
| 26> C 	 -39.8015 	 -54.0526 	 -71.0757
| 27> C 	 -40.4557 	 -52.8158 	 -71.0285
| 28> H 	 -40.4445 	 -56.1045 	 -71.3975
| 29> C 	 -38.4152 	 -54.3944 	 -70.6451
| 30> H 	 -37.9225 	 -53.3986 	 -70.6883
| 31> H 	 -37.9181 	 -54.9711 	 -71.4385
| 32> C 	 -38.3132 	 -55.0874 	 -69.2164
| 33> H 	 -38.7061 	 -56.0625 	 -69.0456
| 34> H 	 -39.026 	 -54.5185 	 -68.6189
| 35> C 	 -36.8458 	 -54.9313 	 -68.6964
| 36> H 	 -36.6479 	 -55.2006 	 -67.7079
| 37> H 	 -36.6217 	 -53.8723 	 -68.6614
| 38> H 	 -36.1313 	 -55.4443 	 -69.3089
| 39> H 	 -39.844 	 -47.8559 	 -70.237
| 40> H 	 -42.5821 	 -55.4478 	 -72.2845
| 41> *
| 42>
| 43>                          ****END OF INPUT****

CARTESIAN COORDINATES (ANGSTROEM)
---------------------------------
  S    -40.627500  -49.997200  -71.421500
  C    -39.786100  -48.954900  -70.267900
  C    -39.138800  -49.820000  -69.316300
  C    -39.394100  -51.204000  -69.479000
  C    -40.050700  -51.473400  -70.606300
  H    -39.074400  -51.967800  -68.811000
  C    -38.295600  -49.378000  -68.123700
  H    -37.810900  -48.437000  -68.433200
  H    -37.504300  -50.165900  -67.884100
  C    -38.961100  -49.042600  -66.726700
  H    -39.921100  -49.523700  -66.649800
  H    -38.403900  -49.313500  -65.843400
  C    -39.311700  -47.576700  -66.415300
  H    -39.771100  -47.117500  -67.228600
  H    -40.069600  -47.659100  -65.601700
  H    -38.447500  -46.954100  -66.127800
  S    -42.118200  -52.987800  -71.682000
  C    -41.931000  -54.712500  -71.842100
  C    -40.694200  -55.108900  -71.483900
  C    -39.801500  -54.052600  -71.075700
  C    -40.455700  -52.815800  -71.028500
  H    -40.444500  -56.104500  -71.397500
  C    -38.415200  -54.394400  -70.645100
  H    -37.922500  -53.398600  -70.688300
  H    -37.918100  -54.971100  -71.438500
  C    -38.313200  -55.087400  -69.216400
  H    -38.706100  -56.062500  -69.045600
  H    -39.026000  -54.518500  -68.618900
  C    -36.845800  -54.931300  -68.696400
  H    -36.647900  -55.200600  -67.707900
  H    -36.621700  -53.872300  -68.661400
  H    -36.131300  -55.444300  -69.308900
  H    -39.844000  -47.855900  -70.237000
  H    -42.582100  -55.447800  -72.284500

 Total Charge           Charge          ....    0
 Multiplicity           Mult            ....    1
 Number of Electrons    NEL             ....  134
 Basis Dimension        Dim             ....  322

ORBITAL ENERGIES
----------------

  NO   OCC          E(Eh)            E(eV)
   0   2.0000     -88.969881     -2420.9935
   1   2.0000     -88.964132     -2420.8371
   2   2.0000     -10.332581      -281.1638
   3   2.0000     -10.330786      -281.1150
   4   2.0000     -10.327902      -281.0365
   5   2.0000     -10.312479      -280.6168
   6   2.0000     -10.309863      -280.5456
   7   2.0000     -10.303530      -280.3733
   8   2.0000     -10.300699      -280.2963
   9   2.0000     -10.298084      -280.2251
  10   2.0000     -10.295376      -280.1514
  11   2.0000     -10.289202      -279.9834
  12   2.0000     -10.284160      -279.8462
  13   2.0000     -10.281899      -279.7847
  14   2.0000     -10.275412      -279.6082
  15   2.0000     -10.274958      -279.5958
  16   2.0000      -8.083622      -219.9665
  17   2.0000      -8.078419      -219.8250
  18   2.0000      -6.042327      -164.4201
  19   2.0000      -6.038213      -164.3081
  20   2.0000      -6.037115      -164.2783
  21   2.0000      -6.034275      -164.2010
  22   2.0000      -6.033021      -164.1668
  23   2.0000      -6.028970      -164.0566
  24   2.0000      -1.005302       -27.3557
  25   2.0000      -0.982163       -26.7260
  26   2.0000      -0.905628       -24.6434
  27   2.0000      -0.901975       -24.5440
  28   2.0000      -0.870705       -23.6931
  29   2.0000      -0.855670       -23.2840
  30   2.0000      -0.848497       -23.0888
  31   2.0000      -0.819297       -22.2942
  32   2.0000      -0.779608       -21.2142
  33   2.0000      -0.767250       -20.8779
  34   2.0000      -0.718095       -19.5404
  35   2.0000      -0.701098       -19.0779
  36   2.0000      -0.696831       -18.9617
  37   2.0000      -0.662888       -18.0381
  38   2.0000      -0.644050       -17.5255
  39   2.0000      -0.625358       -17.0169
  40   2.0000      -0.593367       -16.1463
  41   2.0000      -0.567513       -15.4428
  42   2.0000      -0.560794       -15.2600
  43   2.0000      -0.548379       -14.9221
  44   2.0000      -0.531085       -14.4516
  45   2.0000      -0.528219       -14.3736
  46   2.0000      -0.525268       -14.2933
  47   2.0000      -0.515043       -14.0150
  48   2.0000      -0.506850       -13.7921
  49   2.0000      -0.503842       -13.7102
  50   2.0000      -0.490429       -13.3453
  51   2.0000      -0.485708       -13.2168
  52   2.0000      -0.470145       -12.7933
  53   2.0000      -0.465489       -12.6666
  54   2.0000      -0.457084       -12.4379
  55   2.0000      -0.449657       -12.2358
  56   2.0000      -0.444475       -12.0948
  57   2.0000      -0.440830       -11.9956
  58   2.0000      -0.428385       -11.6570
  59   2.0000      -0.423701       -11.5295
  60   2.0000      -0.419819       -11.4238
  61   2.0000      -0.416071       -11.3219
  62   2.0000      -0.412313       -11.2196
  63   2.0000      -0.356258        -9.6943
  64   2.0000      -0.331303        -9.0152
  65   2.0000      -0.327595        -8.9143
  66   2.0000      -0.290509        -7.9051
  67   0.0000       0.023485         0.6391
  68   0.0000       0.073348         1.9959
  69   0.0000       0.100187         2.7262
  70   0.0000       0.118418         3.2223
  71   0.0000       0.124851         3.3974

MULLIKEN ATOMIC CHARGES
-----------------------
   0 S :    0.103860
   1 C :   -0.127412
   2 C :   -0.079833
   3 C :    0.015034
   4 C :   -0.101156
   5 H :    0.005361
   6 C :    0.025250
   7 H :    0.027960
   8 H :    0.042479
   9 C :   -0.059959
  10 H :    0.024294
  11 H :    0.027383
  12 C :   -0.065281
  13 H :    0.011625
  14 H :    0.037073
  15 H :    0.039710
  16 S :    0.091952
  17 C :   -0.060031
  18 C :   -0.012336
  19 C :   -0.059426
  20 C :   -0.154664
  21 H :   -0.012390
  22 C :    0.043083
  23 H :    0.032184
  24 H :    0.036892
  25 C :   -0.055853
  26 H :    0.027854
  27 H :    0.022808
  28 C :   -0.014157
  29 H :    0.015623
  30 H :    0.018574
  31 H :    0.032487
  32 H :    0.068635
  33 H :    0.052373
Sum of atomic charges:    0.0000000

LOEWDIN ATOMIC CHARGES
----------------------
   0 S :    0.387517
   1 C :   -0.200383
   2 C :   -0.058345
   3 C :   -0.060956
   4 C :   -0.177387
   5 H :    0.032416
   6 C :   -0.042563
   7 H :    0.031409
   8 H :    0.039893
   9 C :   -0.044245
  10 H :    0.022674
  11 H :    0.024106
  12 C :   -0.063767
  13 H :    0.009429
  14 H :    0.034043
  15 H :    0.024184
  16 S :    0.382989
  17 C :   -0.181991
  18 C :   -0.065340
  19 C :   -0.057143
  20 C :   -0.179188
  21 H :    0.017449
  22 C :   -0.035036
  23 H :    0.036880
  24 H :    0.033438
  25 C :   -0.033556
  26 H :    0.021127
  27 H :    0.023005
  28 C :   -0.059133
  29 H :    0.017254
  30 H :    0.025418
  31 H :    0.024636
  32 H :    0.036970
  33 H :    0.034197

  Mayer bond orders larger than 0.100000
B(  0-S ,  1-C ) :   1.1302 B(  0-S ,  4-C ) :   1.1347 B(  1-C ,  2-C ) :   1.5789
B(  1-C , 32-H ) :   0.9710 B(  2-C ,  3-C ) :   1.2359 B(  2-C ,  6-C ) :   1.0388
B(  3-C ,  4-C ) :   1.5775 B(  3-C ,  5-H ) :   1.0033 B(  4-C , 20-C ) :   1.0491
B(  6-C ,  7-H ) :   0.9473 B(  6-C ,  8-H ) :   0.9478 B(  6-C ,  9-C ) :   1.0353
B(  9-C , 10-H ) :   0.9643 B(  9-C , 11-H ) :   0.9624 B(  9-C , 12-C ) :   1.0830
B( 12-C , 13-H ) :   0.9772 B( 12-C , 14-H ) :   0.9764 B( 12-C , 15-H ) :   0.9766
B( 16-S , 17-C ) :   1.1332 B( 16-S , 20-C ) :   1.1187 B( 17-C , 18-C ) :   1.6469
B( 17-C , 33-H ) :   0.9622 B( 18-C , 19-C ) :   1.2185 B( 18-C , 21-H ) :   0.9985
B( 19-C , 20-C ) :   1.6007 B( 19-C , 22-C ) :   1.0636 B( 22-C , 23-H ) :   0.9376
B( 22-C , 24-H ) :   0.9294 B( 22-C , 25-C ) :   1.0287 B( 25-C , 26-H ) :   0.9590
B( 25-C , 27-H ) :   0.9566 B( 25-C , 28-C ) :   1.0761 B( 28-C , 29-H ) :   0.9744
B( 28-C , 30-H ) :   0.9756 B( 28-C , 31-H ) :   0.9770

Dispersion correction           -0.014133430
FINAL SINGLE POINT ENERGY     -1339.857931695258

DIPOLE MOMENT
-------------
                                X             Y             Z
Electronic contribution:    -18.77375      -0.26173     -23.05416
Nuclear contribution   :     19.20232      -0.04224      23.59689
                        -----------------------------------------
Total Dipole Moment    :      0.42857      -0.30397       0.54272
                        -----------------------------------------
Magnitude (a.u.)       :      0.75539
Magnitude (Debye)      :      1.92006

Rotational constants in cm-1:     0.017680     0.008713     0.006396
Rotational constants in MHz :   530.038418   261.217634   191.761738

                             ****ORCA TERMINATED NORMALLY****
TOTAL RUN TIME: 0 days 0 hours 0 minutes 20 seconds 136 msec
