                         Program Version 4.2.1 -  RELEASE  -
|  1> ! wB97X-D3 SP def2-SVP
|  2> %pal
|  3> nprocs 24
|  4> end
|  5>
|  6> * xyz 0 1
|  7> S 	 -65.5731 	 -54.0282 	 -83.1018
|  8> C 	 -64.039 	 -54.9198 	 -83.1641
|  9> C 	 -63.6931 	 -55.3023 	 -81.8499
| 10> C 	 -64.5574 	 -54.7597 	 -80.8398
| 11> C 	 -65.7078 	 -54.159 	 -81.3342
| 12> H 	 -64.374 	 -54.7063 	 -79.7186
| 13> C 	 -62.4515 	 -56.1139 	 -81.4847
| 14> H 	 -62.9238 	 -57.1149 	 -81.3799
| 15> H 	 -62.0102 	 -55.8274 	 -80.6123
| 16> C 	 -61.3759 	 -56.2236 	 -82.6123
| 17> H 	 -60.7078 	 -57.1226 	 -82.4806
| 18> H 	 -61.825 	 -56.4688 	 -83.6002
| 19> C 	 -60.5027 	 -54.896 	 -82.7063
| 20> H 	 -59.8789 	 -54.7778 	 -83.5908
| 21> H 	 -61.1639 	 -54.0211 	 -82.9527
| 22> H 	 -59.8776 	 -54.7496 	 -81.7957
| 23> S 	 -67.3482 	 -52.0543 	 -80.9138
| 24> C 	 -68.7076 	 -52.244 	 -79.8564
| 25> C 	 -68.5952 	 -53.4168 	 -79.1581
| 26> C 	 -67.4765 	 -54.2153 	 -79.4425
| 27> C 	 -66.7846 	 -53.6459 	 -80.5075
| 28> H 	 -69.3592 	 -53.6548 	 -78.4538
| 29> C 	 -67.1958 	 -55.5125 	 -78.775
| 30> H 	 -66.3511 	 -56.1371 	 -79.2499
| 31> H 	 -68.1375 	 -56.0917 	 -78.732
| 32> C 	 -66.6795 	 -55.3058 	 -77.2726
| 33> H 	 -65.8726 	 -54.6112 	 -77.3425
| 34> H 	 -66.3181 	 -56.2484 	 -76.9104
| 35> C 	 -67.6078 	 -54.6708 	 -76.2475
| 36> H 	 -68.5925 	 -55.1674 	 -76.0241
| 37> H 	 -67.8819 	 -53.681 	 -76.7291
| 38> H 	 -67.0831 	 -54.5107 	 -75.2882
| 39> H 	 -63.4967 	 -55.0278 	 -84.1054
| 40> H 	 -69.4199 	 -51.4921 	 -79.6519
| 41> *
| 42>
| 43>                          ****END OF INPUT****

CARTESIAN COORDINATES (ANGSTROEM)
---------------------------------
  S    -65.573100  -54.028200  -83.101800
  C    -64.039000  -54.919800  -83.164100
  C    -63.693100  -55.302300  -81.849900
  C    -64.557400  -54.759700  -80.839800
  C    -65.707800  -54.159000  -81.334200
  H    -64.374000  -54.706300  -79.718600
  C    -62.451500  -56.113900  -81.484700
  H    -62.923800  -57.114900  -81.379900
  H    -62.010200  -55.827400  -80.612300
  C    -61.375900  -56.223600  -82.612300
  H    -60.707800  -57.122600  -82.480600
  H    -61.825000  -56.468800  -83.600200
  C    -60.502700  -54.896000  -82.706300
  H    -59.878900  -54.777800  -83.590800
  H    -61.163900  -54.021100  -82.952700
  H    -59.877600  -54.749600  -81.795700
  S    -67.348200  -52.054300  -80.913800
  C    -68.707600  -52.244000  -79.856400
  C    -68.595200  -53.416800  -79.158100
  C    -67.476500  -54.215300  -79.442500
  C    -66.784600  -53.645900  -80.507500
  H    -69.359200  -53.654800  -78.453800
  C    -67.195800  -55.512500  -78.775000
  H    -66.351100  -56.137100  -79.249900
  H    -68.137500  -56.091700  -78.732000
  C    -66.679500  -55.305800  -77.272600
  H    -65.872600  -54.611200  -77.342500
  H    -66.318100  -56.248400  -76.910400
  C    -67.607800  -54.670800  -76.247500
  H    -68.592500  -55.167400  -76.024100
  H    -67.881900  -53.681000  -76.729100
  H    -67.083100  -54.510700  -75.288200
  H    -63.496700  -55.027800  -84.105400
  H    -69.419900  -51.492100  -79.651900

 Total Charge           Charge          ....    0
 Multiplicity           Mult            ....    1
 Number of Electrons    NEL             ....  134
 Basis Dimension        Dim             ....  322

ORBITAL ENERGIES
----------------

  NO   OCC          E(Eh)            E(eV)
   0   2.0000     -88.965365     -2420.8707
   1   2.0000     -88.964846     -2420.8565
   2   2.0000     -10.330680      -281.1121
   3   2.0000     -10.326432      -280.9965
   4   2.0000     -10.320233      -280.8278
   5   2.0000     -10.312228      -280.6100
   6   2.0000     -10.309363      -280.5320
   7   2.0000     -10.303691      -280.3777
   8   2.0000     -10.302705      -280.3509
   9   2.0000     -10.300638      -280.2946
  10   2.0000     -10.298976      -280.2494
  11   2.0000     -10.292510      -280.0734
  12   2.0000     -10.289766      -279.9988
  13   2.0000     -10.287131      -279.9271
  14   2.0000     -10.285885      -279.8932
  15   2.0000     -10.285335      -279.8782
  16   2.0000      -8.080817      -219.8902
  17   2.0000      -8.078535      -219.8281
  18   2.0000      -6.039173      -164.3342
  19   2.0000      -6.037199      -164.2805
  20   2.0000      -6.035183      -164.2257
  21   2.0000      -6.033112      -164.1693
  22   2.0000      -6.031737      -164.1319
  23   2.0000      -6.029254      -164.0644
  24   2.0000      -1.010150       -27.4876
  25   2.0000      -0.981001       -26.6944
  26   2.0000      -0.908833       -24.7306
  27   2.0000      -0.904561       -24.6143
  28   2.0000      -0.866531       -23.5795
  29   2.0000      -0.853190       -23.2165
  30   2.0000      -0.839243       -22.8370
  31   2.0000      -0.810806       -22.0632
  32   2.0000      -0.782386       -21.2898
  33   2.0000      -0.771648       -20.9976
  34   2.0000      -0.710241       -19.3266
  35   2.0000      -0.701276       -19.0827
  36   2.0000      -0.689713       -18.7681
  37   2.0000      -0.666689       -18.1415
  38   2.0000      -0.638409       -17.3720
  39   2.0000      -0.608068       -16.5464
  40   2.0000      -0.597087       -16.2476
  41   2.0000      -0.576057       -15.6753
  42   2.0000      -0.554829       -15.0977
  43   2.0000      -0.551175       -14.9982
  44   2.0000      -0.540595       -14.7103
  45   2.0000      -0.530796       -14.4437
  46   2.0000      -0.520062       -14.1516
  47   2.0000      -0.510718       -13.8973
  48   2.0000      -0.506719       -13.7885
  49   2.0000      -0.499615       -13.5952
  50   2.0000      -0.488324       -13.2880
  51   2.0000      -0.480919       -13.0865
  52   2.0000      -0.477064       -12.9816
  53   2.0000      -0.459929       -12.5153
  54   2.0000      -0.456175       -12.4131
  55   2.0000      -0.441534       -12.0147
  56   2.0000      -0.436350       -11.8737
  57   2.0000      -0.435904       -11.8615
  58   2.0000      -0.428977       -11.6731
  59   2.0000      -0.425492       -11.5782
  60   2.0000      -0.421344       -11.4654
  61   2.0000      -0.420016       -11.4292
  62   2.0000      -0.412359       -11.2209
  63   2.0000      -0.347782        -9.4636
  64   2.0000      -0.333204        -9.0670
  65   2.0000      -0.325249        -8.8505
  66   2.0000      -0.288402        -7.8478
  67   0.0000       0.023319         0.6345
  68   0.0000       0.076273         2.0755
  69   0.0000       0.112534         3.0622
  70   0.0000       0.124007         3.3744
  71   0.0000       0.129031         3.5111

MULLIKEN ATOMIC CHARGES
-----------------------
   0 S :    0.102777
   1 C :   -0.149154
   2 C :   -0.095348
   3 C :   -0.022742
   4 C :   -0.123983
   5 H :    0.047441
   6 C :    0.117391
   7 H :    0.050116
   8 H :    0.008752
   9 C :   -0.106960
  10 H :    0.038058
  11 H :    0.027133
  12 C :   -0.083180
  13 H :    0.029517
  14 H :    0.038954
  15 H :    0.050143
  16 S :    0.114786
  17 C :   -0.070642
  18 C :   -0.047795
  19 C :    0.012883
  20 C :   -0.195854
  21 H :    0.010576
  22 C :    0.023854
  23 H :    0.052837
  24 H :    0.039471
  25 C :   -0.055907
  26 H :    0.021904
  27 H :    0.026547
  28 C :   -0.094956
  29 H :    0.037407
  30 H :    0.040202
  31 H :    0.046348
  32 H :    0.066674
  33 H :    0.042750
Sum of atomic charges:   -0.0000000

LOEWDIN ATOMIC CHARGES
----------------------
   0 S :    0.384003
   1 C :   -0.203459
   2 C :   -0.056678
   3 C :   -0.078986
   4 C :   -0.188667
   5 H :    0.044032
   6 C :   -0.021722
   7 H :    0.046440
   8 H :    0.015244
   9 C :   -0.046549
  10 H :    0.029384
  11 H :    0.023238
  12 C :   -0.082747
  13 H :    0.024668
  14 H :    0.032422
  15 H :    0.030164
  16 S :    0.420681
  17 C :   -0.184082
  18 C :   -0.068505
  19 C :   -0.058238
  20 C :   -0.196832
  21 H :    0.026995
  22 C :   -0.034444
  23 H :    0.044269
  24 H :    0.033915
  25 C :   -0.035516
  26 H :    0.020796
  27 H :    0.017749
  28 C :   -0.079853
  29 H :    0.024318
  30 H :    0.032126
  31 H :    0.031257
  32 H :    0.031765
  33 H :    0.022810

  Mayer bond orders larger than 0.100000
B(  0-S ,  1-C ) :   1.1246 B(  0-S ,  4-C ) :   1.1468 B(  1-C ,  2-C ) :   1.5849
B(  1-C , 32-H ) :   0.9680 B(  2-C ,  3-C ) :   1.2477 B(  2-C ,  6-C ) :   1.0055
B(  3-C ,  4-C ) :   1.5605 B(  3-C ,  5-H ) :   0.9806 B(  4-C , 20-C ) :   1.0647
B(  6-C ,  7-H ) :   0.9283 B(  6-C ,  8-H ) :   0.9506 B(  6-C ,  9-C ) :   1.0768
B(  9-C , 10-H ) :   0.9587 B(  9-C , 11-H ) :   0.9513 B(  9-C , 12-C ) :   1.0608
B( 12-C , 13-H ) :   0.9761 B( 12-C , 14-H ) :   0.9738 B( 12-C , 15-H ) :   0.9774
B( 16-S , 17-C ) :   1.1490 B( 16-S , 20-C ) :   1.1666 B( 17-C , 18-C ) :   1.5948
B( 17-C , 33-H ) :   0.9737 B( 18-C , 19-C ) :   1.2489 B( 18-C , 21-H ) :   0.9875
B( 19-C , 20-C ) :   1.5537 B( 19-C , 22-C ) :   1.0504 B( 22-C , 23-H ) :   0.9322
B( 22-C , 24-H ) :   0.9357 B( 22-C , 25-C ) :   1.0557 B( 25-C , 26-H ) :   0.9507
B( 25-C , 27-H ) :   0.9595 B( 25-C , 28-C ) :   1.0824 B( 28-C , 29-H ) :   0.9752
B( 28-C , 30-H ) :   0.9657 B( 28-C , 31-H ) :   0.9699

Dispersion correction           -0.014503370
FINAL SINGLE POINT ENERGY     -1339.871384977410

DIPOLE MOMENT
-------------
                                X             Y             Z
Electronic contribution:    -14.58066      13.17280     -13.72339
Nuclear contribution   :     14.83080     -13.50680      14.20956
                        -----------------------------------------
Total Dipole Moment    :      0.25014      -0.33400       0.48616
                        -----------------------------------------
Magnitude (a.u.)       :      0.64069
Magnitude (Debye)      :      1.62849

Rotational constants in cm-1:     0.022283     0.007759     0.006190
Rotational constants in MHz :   668.039974   232.601481   185.563713

                             ****ORCA TERMINATED NORMALLY****
TOTAL RUN TIME: 0 days 0 hours 0 minutes 20 seconds 498 msec
