                         Program Version 4.2.1 -  RELEASE  -
|  1> ! wB97X-D3 SP def2-SVP
|  2> %pal
|  3> nprocs 24
|  4> end
|  5>
|  6> * xyz 0 1
|  7> S 	 -38.8529 	 6.14977 	 28.3334
|  8> C 	 -40.4842 	 5.35107 	 28.1036
|  9> C 	 -41.5336 	 6.09766 	 28.5878
| 10> C 	 -41.0403 	 7.33289 	 29.103
| 11> C 	 -39.6546 	 7.61634 	 28.9264
| 12> H 	 -41.7345 	 8.05112 	 29.5382
| 13> C 	 -43.0097 	 5.7833 	 28.4734
| 14> H 	 -43.1684 	 4.77418 	 28.8845
| 15> H 	 -43.3626 	 5.77936 	 27.3835
| 16> C 	 -44.0397 	 6.804 	 29.1521
| 17> H 	 -43.9171 	 6.90606 	 30.2075
| 18> H 	 -43.7343 	 7.79406 	 28.742
| 19> C 	 -45.528 	 6.64242 	 28.8388
| 20> H 	 -46.0776 	 7.53512 	 29.1423
| 21> H 	 -45.5611 	 6.64703 	 27.7065
| 22> H 	 -45.9455 	 5.74315 	 29.153
| 23> S 	 -38.1516 	 9.7369 	 28.1289
| 24> C 	 -37.8539 	 11.0566 	 29.2765
| 25> C 	 -38.3208 	 10.7216 	 30.5271
| 26> C 	 -38.9356 	 9.45508 	 30.6103
| 27> C 	 -38.9588 	 8.80826 	 29.3934
| 28> H 	 -38.2461 	 11.4046 	 31.3323
| 29> C 	 -39.4326 	 8.96612 	 31.9522
| 30> H 	 -38.6157 	 9.03246 	 32.7237
| 31> H 	 -39.6399 	 7.88518 	 31.8248
| 32> C 	 -40.5011 	 9.82879 	 32.6347
| 33> H 	 -40.1194 	 10.759 	 32.8156
| 34> H 	 -40.676 	 9.34254 	 33.6109
| 35> C 	 -41.8272 	 9.92363 	 31.7463
| 36> H 	 -42.1373 	 8.97783 	 31.4099
| 37> H 	 -41.4671 	 10.4719 	 30.93
| 38> H 	 -42.6265 	 10.4779 	 32.2148
| 39> H 	 -40.6098 	 4.39124 	 27.5585
| 40> H 	 -37.2874 	 11.9597 	 28.9576
| 41> *
| 42>
| 43>                          ****END OF INPUT****

CARTESIAN COORDINATES (ANGSTROEM)
---------------------------------
  S    -38.852900    6.149770   28.333400
  C    -40.484200    5.351070   28.103600
  C    -41.533600    6.097660   28.587800
  C    -41.040300    7.332890   29.103000
  C    -39.654600    7.616340   28.926400
  H    -41.734500    8.051120   29.538200
  C    -43.009700    5.783300   28.473400
  H    -43.168400    4.774180   28.884500
  H    -43.362600    5.779360   27.383500
  C    -44.039700    6.804000   29.152100
  H    -43.917100    6.906060   30.207500
  H    -43.734300    7.794060   28.742000
  C    -45.528000    6.642420   28.838800
  H    -46.077600    7.535120   29.142300
  H    -45.561100    6.647030   27.706500
  H    -45.945500    5.743150   29.153000
  S    -38.151600    9.736900   28.128900
  C    -37.853900   11.056600   29.276500
  C    -38.320800   10.721600   30.527100
  C    -38.935600    9.455080   30.610300
  C    -38.958800    8.808260   29.393400
  H    -38.246100   11.404600   31.332300
  C    -39.432600    8.966120   31.952200
  H    -38.615700    9.032460   32.723700
  H    -39.639900    7.885180   31.824800
  C    -40.501100    9.828790   32.634700
  H    -40.119400   10.759000   32.815600
  H    -40.676000    9.342540   33.610900
  C    -41.827200    9.923630   31.746300
  H    -42.137300    8.977830   31.409900
  H    -41.467100   10.471900   30.930000
  H    -42.626500   10.477900   32.214800
  H    -40.609800    4.391240   27.558500
  H    -37.287400   11.959700   28.957600

 Total Charge           Charge          ....    0
 Multiplicity           Mult            ....    1
 Number of Electrons    NEL             ....  134
 Basis Dimension        Dim             ....  322

ORBITAL ENERGIES
----------------

  NO   OCC          E(Eh)            E(eV)
   0   2.0000     -88.968630     -2420.9595
   1   2.0000     -88.963195     -2420.8116
   2   2.0000     -10.334444      -281.2145
   3   2.0000     -10.326872      -281.0085
   4   2.0000     -10.323750      -280.9235
   5   2.0000     -10.321602      -280.8651
   6   2.0000     -10.307867      -280.4913
   7   2.0000     -10.304260      -280.3932
   8   2.0000     -10.301804      -280.3263
   9   2.0000     -10.296790      -280.1899
  10   2.0000     -10.295021      -280.1418
  11   2.0000     -10.293532      -280.1012
  12   2.0000     -10.291014      -280.0327
  13   2.0000     -10.286751      -279.9167
  14   2.0000     -10.282627      -279.8045
  15   2.0000     -10.270062      -279.4626
  16   2.0000      -8.081543      -219.9100
  17   2.0000      -8.077790      -219.8078
  18   2.0000      -6.040196      -164.3621
  19   2.0000      -6.036419      -164.2593
  20   2.0000      -6.036286      -164.2557
  21   2.0000      -6.032319      -164.1478
  22   2.0000      -6.032140      -164.1429
  23   2.0000      -6.028557      -164.0454
  24   2.0000      -1.001262       -27.2457
  25   2.0000      -0.976040       -26.5594
  26   2.0000      -0.909243       -24.7418
  27   2.0000      -0.905174       -24.6310
  28   2.0000      -0.869874       -23.6705
  29   2.0000      -0.845627       -23.0107
  30   2.0000      -0.843517       -22.9533
  31   2.0000      -0.807775       -21.9807
  32   2.0000      -0.784181       -21.3386
  33   2.0000      -0.775505       -21.1026
  34   2.0000      -0.716204       -19.4889
  35   2.0000      -0.701228       -19.0814
  36   2.0000      -0.689431       -18.7604
  37   2.0000      -0.662311       -18.0224
  38   2.0000      -0.631888       -17.1946
  39   2.0000      -0.617938       -16.8149
  40   2.0000      -0.598745       -16.2927
  41   2.0000      -0.570768       -15.5314
  42   2.0000      -0.562833       -15.3155
  43   2.0000      -0.546668       -14.8756
  44   2.0000      -0.543474       -14.7887
  45   2.0000      -0.529691       -14.4136
  46   2.0000      -0.520354       -14.1595
  47   2.0000      -0.507082       -13.7984
  48   2.0000      -0.496893       -13.5211
  49   2.0000      -0.496425       -13.5084
  50   2.0000      -0.491871       -13.3845
  51   2.0000      -0.481995       -13.1157
  52   2.0000      -0.470921       -12.8144
  53   2.0000      -0.468209       -12.7406
  54   2.0000      -0.457303       -12.4439
  55   2.0000      -0.451450       -12.2846
  56   2.0000      -0.443035       -12.0556
  57   2.0000      -0.442211       -12.0332
  58   2.0000      -0.427861       -11.6427
  59   2.0000      -0.424605       -11.5541
  60   2.0000      -0.420713       -11.4482
  61   2.0000      -0.416074       -11.3219
  62   2.0000      -0.414175       -11.2703
  63   2.0000      -0.338862        -9.2209
  64   2.0000      -0.334115        -9.0917
  65   2.0000      -0.325856        -8.8670
  66   2.0000      -0.296014        -8.0550
  67   0.0000       0.028284         0.7696
  68   0.0000       0.061300         1.6681
  69   0.0000       0.107085         2.9139
  70   0.0000       0.115079         3.1315
  71   0.0000       0.127021         3.4564

MULLIKEN ATOMIC CHARGES
-----------------------
   0 S :    0.103535
   1 C :   -0.157439
   2 C :   -0.046446
   3 C :    0.015903
   4 C :   -0.132277
   5 H :   -0.005679
   6 C :    0.033413
   7 H :    0.041674
   8 H :    0.054412
   9 C :   -0.141702
  10 H :    0.033215
  11 H :    0.040493
  12 C :   -0.009389
  13 H :    0.043785
  14 H :    0.022998
  15 H :    0.028433
  16 S :    0.096781
  17 C :   -0.110172
  18 C :   -0.022131
  19 C :   -0.007862
  20 C :   -0.185655
  21 H :    0.005647
  22 C :    0.027348
  23 H :    0.038865
  24 H :    0.040874
  25 C :   -0.057578
  26 H :    0.008687
  27 H :    0.033846
  28 C :   -0.022468
  29 H :    0.028269
  30 H :    0.031086
  31 H :    0.035176
  32 H :    0.058186
  33 H :    0.076173
Sum of atomic charges:   -0.0000000

LOEWDIN ATOMIC CHARGES
----------------------
   0 S :    0.370062
   1 C :   -0.175261
   2 C :   -0.069341
   3 C :   -0.059884
   4 C :   -0.195356
   5 H :    0.025273
   6 C :   -0.035211
   7 H :    0.033228
   8 H :    0.044232
   9 C :   -0.047247
  10 H :    0.015018
  11 H :    0.027462
  12 C :   -0.057058
  13 H :    0.033354
  14 H :    0.030583
  15 H :    0.014394
  16 S :    0.391228
  17 C :   -0.174453
  18 C :   -0.068636
  19 C :   -0.058090
  20 C :   -0.197859
  21 H :    0.024877
  22 C :   -0.034703
  23 H :    0.040561
  24 H :    0.034424
  25 C :   -0.023760
  26 H :    0.007175
  27 H :    0.026965
  28 C :   -0.053958
  29 H :    0.014112
  30 H :    0.021936
  31 H :    0.025137
  32 H :    0.033411
  33 H :    0.037382

  Mayer bond orders larger than 0.100000
B(  0-S ,  1-C ) :   1.1295 B(  0-S ,  4-C ) :   1.1405 B(  1-C ,  2-C ) :   1.6171
B(  1-C ,  4-C ) :   0.1053 B(  1-C , 32-H ) :   0.9647 B(  2-C ,  3-C ) :   1.2714
B(  2-C ,  6-C ) :   1.0072 B(  3-C ,  4-C ) :   1.5541 B(  3-C ,  5-H ) :   0.9780
B(  4-C , 20-C ) :   1.0242 B(  6-C ,  7-H ) :   0.9370 B(  6-C ,  8-H ) :   0.9414
B(  6-C ,  9-C ) :   1.0675 B(  9-C , 10-H ) :   0.9564 B(  9-C , 11-H ) :   0.9477
B(  9-C , 12-C ) :   1.0853 B( 12-C , 13-H ) :   0.9716 B( 12-C , 14-H ) :   0.9716
B( 12-C , 15-H ) :   0.9772 B( 16-S , 17-C ) :   1.1530 B( 16-S , 20-C ) :   1.1402
B( 17-C , 18-C ) :   1.6012 B( 17-C , 33-H ) :   0.9656 B( 18-C , 19-C ) :   1.2244
B( 18-C , 21-H ) :   0.9984 B( 19-C , 20-C ) :   1.6024 B( 19-C , 22-C ) :   1.0422
B( 22-C , 23-H ) :   0.9382 B( 22-C , 24-H ) :   0.9386 B( 22-C , 25-C ) :   1.0657
B( 25-C , 26-H ) :   0.9582 B( 25-C , 27-H ) :   0.9564 B( 25-C , 28-C ) :   1.0612
B( 28-C , 29-H ) :   0.9714 B( 28-C , 30-H ) :   0.9746 B( 28-C , 31-H ) :   0.9728

Dispersion correction           -0.015163560
FINAL SINGLE POINT ENERGY     -1339.868830699668

DIPOLE MOMENT
-------------
                                X             Y             Z
Electronic contribution:     27.37667      -1.53250     -13.06948
Nuclear contribution   :    -27.96571       1.74299      13.48322
                        -----------------------------------------
Total Dipole Moment    :     -0.58904       0.21049       0.41374
                        -----------------------------------------
Magnitude (a.u.)       :      0.74997
Magnitude (Debye)      :      1.90627

Rotational constants in cm-1:     0.017284     0.009422     0.007122
Rotational constants in MHz :   518.166306   282.466130   213.513075

                             ****ORCA TERMINATED NORMALLY****
TOTAL RUN TIME: 0 days 0 hours 0 minutes 22 seconds 371 msec
