                         Program Version 4.2.1 -  RELEASE  -
|  1> ! wB97X-D3 SP def2-SVP
|  2> %pal
|  3> nprocs 24
|  4> end
|  5>
|  6> * xyz 0 1
|  7> S 	 33.4576 	 -37.7837 	 -132.42
|  8> C 	 34.0032 	 -36.074 	 -132.659
|  9> C 	 32.9909 	 -35.1397 	 -132.438
| 10> C 	 31.7768 	 -35.8047 	 -132.132
| 11> C 	 31.8137 	 -37.1962 	 -132.198
| 12> H 	 30.8826 	 -35.3462 	 -131.887
| 13> C 	 33.0977 	 -33.6493 	 -132.613
| 14> H 	 32.4339 	 -33.3071 	 -133.396
| 15> H 	 34.0826 	 -33.3551 	 -132.954
| 16> C 	 32.7783 	 -32.8516 	 -131.315
| 17> H 	 32.7581 	 -31.7897 	 -131.578
| 18> H 	 31.879 	 -32.9604 	 -130.803
| 19> C 	 33.8476 	 -32.9404 	 -130.205
| 20> H 	 34.024 	 -32.0796 	 -129.556
| 21> H 	 33.6364 	 -33.7801 	 -129.587
| 22> H 	 34.834 	 -33.1577 	 -130.579
| 23> S 	 31.0115 	 -39.833 	 -132.562
| 24> C 	 29.4291 	 -40.2867 	 -132.052
| 25> C 	 28.8102 	 -39.301 	 -131.4
| 26> C 	 29.5135 	 -38.0763 	 -131.266
| 27> C 	 30.7553 	 -38.2178 	 -131.85
| 28> H 	 27.81 	 -39.5607 	 -131.08
| 29> C 	 29.0729 	 -36.9151 	 -130.353
| 30> H 	 29.9675 	 -36.2266 	 -130.063
| 31> H 	 28.93 	 -37.2695 	 -129.407
| 32> C 	 28.0352 	 -35.9567 	 -131.039
| 33> H 	 27.2307 	 -36.6272 	 -131.388
| 34> H 	 28.537 	 -35.4526 	 -131.872
| 35> C 	 27.5694 	 -34.9569 	 -129.938
| 36> H 	 28.4488 	 -34.3383 	 -129.589
| 37> H 	 27.0769 	 -35.4108 	 -129.029
| 38> H 	 26.9305 	 -34.248 	 -130.486
| 39> H 	 34.9864 	 -35.7346 	 -132.885
| 40> H 	 28.9303 	 -41.2347 	 -132.333
| 41> *
| 42>
| 43>                          ****END OF INPUT****

CARTESIAN COORDINATES (ANGSTROEM)
---------------------------------
  S     33.457600  -37.783700  -132.420000
  C     34.003200  -36.074000  -132.659000
  C     32.990900  -35.139700  -132.438000
  C     31.776800  -35.804700  -132.132000
  C     31.813700  -37.196200  -132.198000
  H     30.882600  -35.346200  -131.887000
  C     33.097700  -33.649300  -132.613000
  H     32.433900  -33.307100  -133.396000
  H     34.082600  -33.355100  -132.954000
  C     32.778300  -32.851600  -131.315000
  H     32.758100  -31.789700  -131.578000
  H     31.879000  -32.960400  -130.803000
  C     33.847600  -32.940400  -130.205000
  H     34.024000  -32.079600  -129.556000
  H     33.636400  -33.780100  -129.587000
  H     34.834000  -33.157700  -130.579000
  S     31.011500  -39.833000  -132.562000
  C     29.429100  -40.286700  -132.052000
  C     28.810200  -39.301000  -131.400000
  C     29.513500  -38.076300  -131.266000
  C     30.755300  -38.217800  -131.850000
  H     27.810000  -39.560700  -131.080000
  C     29.072900  -36.915100  -130.353000
  H     29.967500  -36.226600  -130.063000
  H     28.930000  -37.269500  -129.407000
  C     28.035200  -35.956700  -131.039000
  H     27.230700  -36.627200  -131.388000
  H     28.537000  -35.452600  -131.872000
  C     27.569400  -34.956900  -129.938000
  H     28.448800  -34.338300  -129.589000
  H     27.076900  -35.410800  -129.029000
  H     26.930500  -34.248000  -130.486000
  H     34.986400  -35.734600  -132.885000
  H     28.930300  -41.234700  -132.333000

 Total Charge           Charge          ....    0
 Multiplicity           Mult            ....    1
 Number of Electrons    NEL             ....  134
 Basis Dimension        Dim             ....  322

ORBITAL ENERGIES
----------------

  NO   OCC          E(Eh)            E(eV)
   0   2.0000     -88.967795     -2420.9368
   1   2.0000     -88.963856     -2420.8296
   2   2.0000     -10.334779      -281.2236
   3   2.0000     -10.332457      -281.1604
   4   2.0000     -10.315634      -280.7027
   5   2.0000     -10.312277      -280.6113
   6   2.0000     -10.304678      -280.4045
   7   2.0000     -10.302467      -280.3444
   8   2.0000     -10.299017      -280.2505
   9   2.0000     -10.298444      -280.2349
  10   2.0000     -10.295967      -280.1675
  11   2.0000     -10.292638      -280.0769
  12   2.0000     -10.288575      -279.9664
  13   2.0000     -10.287808      -279.9455
  14   2.0000     -10.285858      -279.8924
  15   2.0000     -10.269862      -279.4572
  16   2.0000      -8.081241      -219.9017
  17   2.0000      -8.078950      -219.8394
  18   2.0000      -6.039902      -164.3541
  19   2.0000      -6.037415      -164.2864
  20   2.0000      -6.036116      -164.2511
  21   2.0000      -6.033535      -164.1808
  22   2.0000      -6.031745      -164.1321
  23   2.0000      -6.029618      -164.0742
  24   2.0000      -1.005450       -27.3597
  25   2.0000      -0.981416       -26.7057
  26   2.0000      -0.911424       -24.8011
  27   2.0000      -0.906552       -24.6685
  28   2.0000      -0.864976       -23.5372
  29   2.0000      -0.852574       -23.1997
  30   2.0000      -0.841530       -22.8992
  31   2.0000      -0.815556       -22.1924
  32   2.0000      -0.785453       -21.3733
  33   2.0000      -0.774069       -21.0635
  34   2.0000      -0.711346       -19.3567
  35   2.0000      -0.703456       -19.1420
  36   2.0000      -0.694750       -18.9051
  37   2.0000      -0.658317       -17.9137
  38   2.0000      -0.639312       -17.3966
  39   2.0000      -0.626257       -17.0413
  40   2.0000      -0.600433       -16.3386
  41   2.0000      -0.567626       -15.4459
  42   2.0000      -0.561864       -15.2891
  43   2.0000      -0.551767       -15.0143
  44   2.0000      -0.535897       -14.5825
  45   2.0000      -0.529930       -14.4201
  46   2.0000      -0.517006       -14.0685
  47   2.0000      -0.510600       -13.8941
  48   2.0000      -0.501770       -13.6539
  49   2.0000      -0.494652       -13.4602
  50   2.0000      -0.489127       -13.3098
  51   2.0000      -0.474347       -12.9077
  52   2.0000      -0.470060       -12.7910
  53   2.0000      -0.465423       -12.6648
  54   2.0000      -0.459420       -12.5015
  55   2.0000      -0.452846       -12.3226
  56   2.0000      -0.446495       -12.1498
  57   2.0000      -0.441137       -12.0039
  58   2.0000      -0.434942       -11.8354
  59   2.0000      -0.433185       -11.7876
  60   2.0000      -0.423806       -11.5324
  61   2.0000      -0.413679       -11.2568
  62   2.0000      -0.405373       -11.0308
  63   2.0000      -0.355440        -9.6720
  64   2.0000      -0.336539        -9.1577
  65   2.0000      -0.330304        -8.9880
  66   2.0000      -0.284561        -7.7433
  67   0.0000       0.022365         0.6086
  68   0.0000       0.079897         2.1741
  69   0.0000       0.095197         2.5904
  70   0.0000       0.117953         3.2097
  71   0.0000       0.123071         3.3489

MULLIKEN ATOMIC CHARGES
-----------------------
   0 S :    0.085910
   1 C :   -0.099649
   2 C :   -0.069646
   3 C :    0.026214
   4 C :   -0.081172
   5 H :   -0.049811
   6 C :    0.105850
   7 H :    0.039926
   8 H :    0.012920
   9 C :   -0.075783
  10 H :    0.022977
  11 H :    0.019715
  12 C :   -0.053350
  13 H :    0.035897
  14 H :    0.028305
  15 H :    0.008090
  16 S :    0.085737
  17 C :   -0.093531
  18 C :   -0.032034
  19 C :   -0.018118
  20 C :   -0.117765
  21 H :    0.009192
  22 C :    0.003814
  23 H :    0.022897
  24 H :    0.012568
  25 C :   -0.074083
  26 H :    0.042525
  27 H :    0.048032
  28 C :   -0.067212
  29 H :    0.034522
  30 H :    0.055776
  31 H :    0.039644
  32 H :    0.026347
  33 H :    0.065297
Sum of atomic charges:   -0.0000000

LOEWDIN ATOMIC CHARGES
----------------------
   0 S :    0.373356
   1 C :   -0.176795
   2 C :   -0.057697
   3 C :   -0.062850
   4 C :   -0.171201
   5 H :    0.012329
   6 C :   -0.018923
   7 H :    0.036050
   8 H :    0.030312
   9 C :   -0.038680
  10 H :    0.026740
  11 H :    0.015570
  12 C :   -0.068133
  13 H :    0.028226
  14 H :    0.022160
  15 H :    0.019078
  16 S :    0.388783
  17 C :   -0.193229
  18 C :   -0.076444
  19 C :   -0.060653
  20 C :   -0.175507
  21 H :    0.031112
  22 C :   -0.032570
  23 H :    0.037814
  24 H :    0.017192
  25 C :   -0.034353
  26 H :    0.026759
  27 H :    0.027381
  28 C :   -0.074281
  29 H :    0.029237
  30 H :    0.034459
  31 H :    0.026553
  32 H :    0.019206
  33 H :    0.038999

  Mayer bond orders larger than 0.100000
B(  0-S ,  1-C ) :   1.1196 B(  0-S ,  4-C ) :   1.1386 B(  1-C ,  2-C ) :   1.6274
B(  1-C , 32-H ) :   0.9654 B(  2-C ,  3-C ) :   1.2279 B(  2-C ,  6-C ) :   1.0322
B(  3-C ,  4-C ) :   1.5978 B(  3-C ,  5-H ) :   0.9987 B(  4-C , 20-C ) :   1.0157
B(  6-C ,  7-H ) :   0.9404 B(  6-C ,  8-H ) :   0.9384 B(  6-C ,  9-C ) :   1.0651
B(  9-C , 10-H ) :   0.9581 B(  9-C , 11-H ) :   0.9656 B(  9-C , 12-C ) :   1.0596
B( 12-C , 13-H ) :   0.9788 B( 12-C , 14-H ) :   0.9772 B( 12-C , 15-H ) :   0.9756
B( 16-S , 17-C ) :   1.1362 B( 16-S , 20-C ) :   1.1331 B( 17-C , 18-C ) :   1.6603
B( 17-C , 33-H ) :   0.9595 B( 18-C , 19-C ) :   1.2043 B( 18-C , 21-H ) :   0.9913
B( 19-C , 20-C ) :   1.6394 B( 19-C , 22-C ) :   1.0051 B( 22-C , 23-H ) :   0.9443
B( 22-C , 24-H ) :   0.9540 B( 22-C , 25-C ) :   1.0324 B( 25-C , 26-H ) :   0.9613
B( 25-C , 27-H ) :   0.9523 B( 25-C , 28-C ) :   1.0736 B( 28-C , 29-H ) :   0.9711
B( 28-C , 30-H ) :   0.9758 B( 28-C , 31-H ) :   0.9751

Dispersion correction           -0.014321319
FINAL SINGLE POINT ENERGY     -1339.859547339726

DIPOLE MOMENT
-------------
                                X             Y             Z
Electronic contribution:      8.53421     -28.42409     -11.87928
Nuclear contribution   :     -9.00530      29.01395      12.12052
                        -----------------------------------------
Total Dipole Moment    :     -0.47108       0.58986       0.24124
                        -----------------------------------------
Magnitude (a.u.)       :      0.79250
Magnitude (Debye)      :      2.01436

Rotational constants in cm-1:     0.016962     0.009875     0.006596
Rotational constants in MHz :   508.500565   296.054967   197.728260

                             ****ORCA TERMINATED NORMALLY****
TOTAL RUN TIME: 0 days 0 hours 0 minutes 21 seconds 811 msec
