                         Program Version 4.2.1 -  RELEASE  -
|  1> ! wB97X-D3 SP def2-SVP
|  2> %pal
|  3> nprocs 24
|  4> end
|  5>
|  6> * xyz 0 1
|  7> S 	 -50.0068 	 7.54853 	 -20.3623
|  8> C 	 -50.7002 	 8.60686 	 -19.1374
|  9> C 	 -50.3552 	 9.94274 	 -19.482
| 10> C 	 -49.5908 	 10.0549 	 -20.658
| 11> C 	 -49.3453 	 8.80436 	 -21.3033
| 12> H 	 -49.14 	 10.8929 	 -21.1341
| 13> C 	 -50.8568 	 11.1181 	 -18.764
| 14> H 	 -51.405 	 10.757 	 -17.9043
| 15> H 	 -51.5996 	 11.5583 	 -19.3651
| 16> C 	 -49.8694 	 12.1917 	 -18.4425
| 17> H 	 -49.4337 	 12.5718 	 -19.3256
| 18> H 	 -50.3396 	 13.0395 	 -17.9213
| 19> C 	 -48.8248 	 11.5968 	 -17.4062
| 20> H 	 -49.3658 	 11.0386 	 -16.629
| 21> H 	 -48.1491 	 10.8948 	 -17.8692
| 22> H 	 -48.1585 	 12.3295 	 -16.9886
| 23> S 	 -49.1122 	 7.10747 	 -23.5827
| 24> C 	 -47.7112 	 7.13212 	 -24.5627
| 25> C 	 -46.884 	 8.17198 	 -24.1566
| 26> C 	 -47.4379 	 8.99535 	 -23.1095
| 27> C 	 -48.5574 	 8.47881 	 -22.5187
| 28> H 	 -45.914 	 8.35635 	 -24.5969
| 29> C 	 -46.6711 	 10.2505 	 -22.6333
| 30> H 	 -45.6472 	 10.0616 	 -22.6058
| 31> H 	 -46.9194 	 10.3797 	 -21.5586
| 32> C 	 -47.0988 	 11.4084 	 -23.5442
| 33> H 	 -48.1175 	 11.7852 	 -23.2747
| 34> H 	 -47.108 	 11.0995 	 -24.5592
| 35> C 	 -46.1659 	 12.6126 	 -23.3946
| 36> H 	 -46.4642 	 13.3534 	 -24.1865
| 37> H 	 -45.2047 	 12.1736 	 -23.7438
| 38> H 	 -46.0763 	 13.0515 	 -22.3983
| 39> H 	 -51.3336 	 8.38561 	 -18.3238
| 40> H 	 -47.5218 	 6.41041 	 -25.3432
| 41> *
| 42>
| 43>                          ****END OF INPUT****

CARTESIAN COORDINATES (ANGSTROEM)
---------------------------------
  S    -50.006800    7.548530  -20.362300
  C    -50.700200    8.606860  -19.137400
  C    -50.355200    9.942740  -19.482000
  C    -49.590800   10.054900  -20.658000
  C    -49.345300    8.804360  -21.303300
  H    -49.140000   10.892900  -21.134100
  C    -50.856800   11.118100  -18.764000
  H    -51.405000   10.757000  -17.904300
  H    -51.599600   11.558300  -19.365100
  C    -49.869400   12.191700  -18.442500
  H    -49.433700   12.571800  -19.325600
  H    -50.339600   13.039500  -17.921300
  C    -48.824800   11.596800  -17.406200
  H    -49.365800   11.038600  -16.629000
  H    -48.149100   10.894800  -17.869200
  H    -48.158500   12.329500  -16.988600
  S    -49.112200    7.107470  -23.582700
  C    -47.711200    7.132120  -24.562700
  C    -46.884000    8.171980  -24.156600
  C    -47.437900    8.995350  -23.109500
  C    -48.557400    8.478810  -22.518700
  H    -45.914000    8.356350  -24.596900
  C    -46.671100   10.250500  -22.633300
  H    -45.647200   10.061600  -22.605800
  H    -46.919400   10.379700  -21.558600
  C    -47.098800   11.408400  -23.544200
  H    -48.117500   11.785200  -23.274700
  H    -47.108000   11.099500  -24.559200
  C    -46.165900   12.612600  -23.394600
  H    -46.464200   13.353400  -24.186500
  H    -45.204700   12.173600  -23.743800
  H    -46.076300   13.051500  -22.398300
  H    -51.333600    8.385610  -18.323800
  H    -47.521800    6.410410  -25.343200

 Total Charge           Charge          ....    0
 Multiplicity           Mult            ....    1
 Number of Electrons    NEL             ....  134
 Basis Dimension        Dim             ....  322

ORBITAL ENERGIES
----------------

  NO   OCC          E(Eh)            E(eV)
   0   2.0000     -88.969662     -2420.9876
   1   2.0000     -88.961873     -2420.7756
   2   2.0000     -10.336007      -281.2570
   3   2.0000     -10.334755      -281.2230
   4   2.0000     -10.320446      -280.8336
   5   2.0000     -10.314676      -280.6766
   6   2.0000     -10.305964      -280.4395
   7   2.0000     -10.301692      -280.3233
   8   2.0000     -10.296469      -280.1812
   9   2.0000     -10.293993      -280.1138
  10   2.0000     -10.291990      -280.0593
  11   2.0000     -10.288981      -279.9774
  12   2.0000     -10.286158      -279.9006
  13   2.0000     -10.284368      -279.8519
  14   2.0000     -10.279788      -279.7272
  15   2.0000     -10.274268      -279.5770
  16   2.0000      -8.084296      -219.9849
  17   2.0000      -8.076613      -219.7758
  18   2.0000      -6.042716      -164.4307
  19   2.0000      -6.038493      -164.3157
  20   2.0000      -6.035455      -164.2331
  21   2.0000      -6.035183      -164.2257
  22   2.0000      -6.031049      -164.1132
  23   2.0000      -6.027350      -164.0125
  24   2.0000      -1.005768       -27.3683
  25   2.0000      -0.985566       -26.8186
  26   2.0000      -0.922231       -25.0952
  27   2.0000      -0.913361       -24.8538
  28   2.0000      -0.866181       -23.5700
  29   2.0000      -0.851095       -23.1595
  30   2.0000      -0.839851       -22.8535
  31   2.0000      -0.812984       -22.1224
  32   2.0000      -0.783749       -21.3269
  33   2.0000      -0.775704       -21.1080
  34   2.0000      -0.714029       -19.4297
  35   2.0000      -0.699006       -19.0209
  36   2.0000      -0.696499       -18.9527
  37   2.0000      -0.662556       -18.0291
  38   2.0000      -0.643644       -17.5144
  39   2.0000      -0.622536       -16.9401
  40   2.0000      -0.598049       -16.2737
  41   2.0000      -0.571173       -15.5424
  42   2.0000      -0.567826       -15.4513
  43   2.0000      -0.561245       -15.2723
  44   2.0000      -0.538552       -14.6547
  45   2.0000      -0.532850       -14.4996
  46   2.0000      -0.523613       -14.2482
  47   2.0000      -0.519010       -14.1230
  48   2.0000      -0.508146       -13.8274
  49   2.0000      -0.504395       -13.7253
  50   2.0000      -0.490708       -13.3529
  51   2.0000      -0.481845       -13.1117
  52   2.0000      -0.469444       -12.7742
  53   2.0000      -0.465811       -12.6754
  54   2.0000      -0.457437       -12.4475
  55   2.0000      -0.447959       -12.1896
  56   2.0000      -0.442387       -12.0380
  57   2.0000      -0.440319       -11.9817
  58   2.0000      -0.432817       -11.7775
  59   2.0000      -0.429297       -11.6818
  60   2.0000      -0.420969       -11.4551
  61   2.0000      -0.416036       -11.3209
  62   2.0000      -0.405083       -11.0229
  63   2.0000      -0.352599        -9.5947
  64   2.0000      -0.330842        -9.0027
  65   2.0000      -0.327996        -8.9252
  66   2.0000      -0.288073        -7.8389
  67   0.0000       0.022768         0.6195
  68   0.0000       0.076961         2.0942
  69   0.0000       0.114415         3.1134
  70   0.0000       0.120099         3.2681
  71   0.0000       0.126500         3.4422

MULLIKEN ATOMIC CHARGES
-----------------------
   0 S :    0.122946
   1 C :   -0.097886
   2 C :   -0.100366
   3 C :    0.034853
   4 C :   -0.154134
   5 H :   -0.013742
   6 C :    0.099791
   7 H :    0.001217
   8 H :    0.027265
   9 C :   -0.060513
  10 H :    0.022801
  11 H :    0.032802
  12 C :   -0.057448
  13 H :    0.029635
  14 H :    0.033356
  15 H :    0.028353
  16 S :    0.084621
  17 C :   -0.078543
  18 C :   -0.028867
  19 C :   -0.075754
  20 C :   -0.123675
  21 H :    0.016541
  22 C :    0.069822
  23 H :    0.007607
  24 H :    0.029169
  25 C :   -0.073997
  26 H :    0.035568
  27 H :    0.029665
  28 C :   -0.053325
  29 H :    0.042852
  30 H :    0.024432
  31 H :    0.045976
  32 H :    0.033544
  33 H :    0.065437
Sum of atomic charges:    0.0000000

LOEWDIN ATOMIC CHARGES
----------------------
   0 S :    0.441991
   1 C :   -0.205014
   2 C :   -0.053969
   3 C :   -0.072172
   4 C :   -0.200718
   5 H :    0.022575
   6 C :   -0.034463
   7 H :    0.026799
   8 H :    0.031337
   9 C :   -0.030730
  10 H :    0.015868
  11 H :    0.028907
  12 C :   -0.063853
  13 H :    0.026701
  14 H :    0.023343
  15 H :    0.020282
  16 S :    0.385504
  17 C :   -0.187827
  18 C :   -0.078109
  19 C :   -0.051606
  20 C :   -0.180096
  21 H :    0.028585
  22 C :   -0.025394
  23 H :    0.018866
  24 H :    0.033549
  25 C :   -0.037295
  26 H :    0.025443
  27 H :    0.022421
  28 C :   -0.069615
  29 H :    0.032290
  30 H :    0.025118
  31 H :    0.025391
  32 H :    0.022884
  33 H :    0.033009

  Mayer bond orders larger than 0.100000
B(  0-S ,  1-C ) :   1.1451 B(  0-S ,  4-C ) :   1.2043 B(  1-C ,  2-C ) :   1.5411
B(  1-C ,  4-C ) :   0.1149 B(  1-C , 32-H ) :   0.9758 B(  2-C ,  3-C ) :   1.2729
B(  2-C ,  6-C ) :   1.0361 B(  3-C ,  4-C ) :   1.5039 B(  3-C ,  5-H ) :   1.0000
B(  4-C , 20-C ) :   1.0348 B(  6-C ,  7-H ) :   0.9330 B(  6-C ,  8-H ) :   0.9272
B(  6-C ,  9-C ) :   1.0868 B(  9-C , 10-H ) :   0.9530 B(  9-C , 11-H ) :   0.9548
B(  9-C , 12-C ) :   1.0639 B( 12-C , 13-H ) :   0.9771 B( 12-C , 14-H ) :   0.9753
B( 12-C , 15-H ) :   0.9778 B( 16-S , 17-C ) :   1.1678 B( 16-S , 20-C ) :   1.1145
B( 17-C , 18-C ) :   1.5829 B( 17-C , 33-H ) :   0.9710 B( 18-C , 19-C ) :   1.2386
B( 18-C , 21-H ) :   0.9913 B( 19-C , 20-C ) :   1.6204 B( 19-C , 22-C ) :   1.0364
B( 22-C , 23-H ) :   0.9434 B( 22-C , 24-H ) :   0.9338 B( 22-C , 25-C ) :   1.0504
B( 25-C , 26-H ) :   0.9506 B( 25-C , 27-H ) :   0.9590 B( 25-C , 28-C ) :   1.0807
B( 28-C , 29-H ) :   0.9737 B( 28-C , 30-H ) :   0.9769 B( 28-C , 31-H ) :   0.9743

Dispersion correction           -0.014427927
FINAL SINGLE POINT ENERGY     -1339.875341167556

DIPOLE MOMENT
-------------
                                X             Y             Z
Electronic contribution:     -9.62181     -27.37358      -8.60879
Nuclear contribution   :      9.93059      27.97023       8.61092
                        -----------------------------------------
Total Dipole Moment    :      0.30878       0.59665       0.00214
                        -----------------------------------------
Magnitude (a.u.)       :      0.67182
Magnitude (Debye)      :      1.70763

Rotational constants in cm-1:     0.017415     0.009809     0.006674
Rotational constants in MHz :   522.084515   294.061191   200.071602

                             ****ORCA TERMINATED NORMALLY****
TOTAL RUN TIME: 0 days 0 hours 0 minutes 22 seconds 119 msec
