                         Program Version 4.2.1 -  RELEASE  -
|  1> ! wB97X-D3 SP def2-SVP
|  2> %pal
|  3> nprocs 24
|  4> end
|  5>
|  6> * xyz 0 1
|  7> S 	 -118.245 	 24.1038 	 -116.233
|  8> C 	 -119.709 	 23.4034 	 -115.514
|  9> C 	 -120.059 	 24.1008 	 -114.352
| 10> C 	 -119.144 	 25.1233 	 -114.054
| 11> C 	 -118.11 	 25.2477 	 -114.926
| 12> H 	 -119.27 	 25.7149 	 -113.179
| 13> C 	 -121.24 	 23.7809 	 -113.428
| 14> H 	 -121.716 	 22.8754 	 -113.797
| 15> H 	 -121.976 	 24.5605 	 -113.506
| 16> C 	 -120.96 	 23.4916 	 -111.96
| 17> H 	 -120.261 	 24.1701 	 -111.468
| 18> H 	 -121.941 	 23.7611 	 -111.465
| 19> C 	 -120.442 	 22.1 	 -111.657
| 20> H 	 -119.474 	 21.8624 	 -112.187
| 21> H 	 -120.14 	 21.992 	 -110.614
| 22> H 	 -121.208 	 21.3555 	 -112.049
| 23> S 	 -115.475 	 25.4625 	 -114.51
| 24> C 	 -114.733 	 27.0375 	 -114.483
| 25> C 	 -115.606 	 28.0095 	 -114.835
| 26> C 	 -116.962 	 27.5143 	 -114.966
| 27> C 	 -117.036 	 26.1314 	 -114.865
| 28> H 	 -115.165 	 29.0201 	 -114.965
| 29> C 	 -118.118 	 28.4367 	 -115.413
| 30> H 	 -119.067 	 27.7949 	 -115.407
| 31> H 	 -118.004 	 28.6409 	 -116.45
| 32> C 	 -118.248 	 29.7773 	 -114.648
| 33> H 	 -119.185 	 30.2204 	 -114.892
| 34> H 	 -117.441 	 30.5147 	 -114.867
| 35> C 	 -118.273 	 29.5733 	 -113.114
| 36> H 	 -118.372 	 30.5132 	 -112.526
| 37> H 	 -117.371 	 29.0921 	 -112.825
| 38> H 	 -119.155 	 28.9703 	 -112.955
| 39> H 	 -120.344 	 22.6373 	 -115.82
| 40> H 	 -113.698 	 27.1953 	 -114.339
| 41> *
| 42>
| 43>                          ****END OF INPUT****

CARTESIAN COORDINATES (ANGSTROEM)
---------------------------------
  S    -118.245000   24.103800  -116.233000
  C    -119.709000   23.403400  -115.514000
  C    -120.059000   24.100800  -114.352000
  C    -119.144000   25.123300  -114.054000
  C    -118.110000   25.247700  -114.926000
  H    -119.270000   25.714900  -113.179000
  C    -121.240000   23.780900  -113.428000
  H    -121.716000   22.875400  -113.797000
  H    -121.976000   24.560500  -113.506000
  C    -120.960000   23.491600  -111.960000
  H    -120.261000   24.170100  -111.468000
  H    -121.941000   23.761100  -111.465000
  C    -120.442000   22.100000  -111.657000
  H    -119.474000   21.862400  -112.187000
  H    -120.140000   21.992000  -110.614000
  H    -121.208000   21.355500  -112.049000
  S    -115.475000   25.462500  -114.510000
  C    -114.733000   27.037500  -114.483000
  C    -115.606000   28.009500  -114.835000
  C    -116.962000   27.514300  -114.966000
  C    -117.036000   26.131400  -114.865000
  H    -115.165000   29.020100  -114.965000
  C    -118.118000   28.436700  -115.413000
  H    -119.067000   27.794900  -115.407000
  H    -118.004000   28.640900  -116.450000
  C    -118.248000   29.777300  -114.648000
  H    -119.185000   30.220400  -114.892000
  H    -117.441000   30.514700  -114.867000
  C    -118.273000   29.573300  -113.114000
  H    -118.372000   30.513200  -112.526000
  H    -117.371000   29.092100  -112.825000
  H    -119.155000   28.970300  -112.955000
  H    -120.344000   22.637300  -115.820000
  H    -113.698000   27.195300  -114.339000

 Total Charge           Charge          ....    0
 Multiplicity           Mult            ....    1
 Number of Electrons    NEL             ....  134
 Basis Dimension        Dim             ....  322

ORBITAL ENERGIES
----------------

  NO   OCC          E(Eh)            E(eV)
   0   2.0000     -88.968264     -2420.9495
   1   2.0000     -88.961225     -2420.7580
   2   2.0000     -10.321193      -280.8539
   3   2.0000     -10.319304      -280.8025
   4   2.0000     -10.311704      -280.5957
   5   2.0000     -10.311059      -280.5782
   6   2.0000     -10.307961      -280.4939
   7   2.0000     -10.297270      -280.2030
   8   2.0000     -10.295186      -280.1463
   9   2.0000     -10.294651      -280.1317
  10   2.0000     -10.292242      -280.0662
  11   2.0000     -10.289675      -279.9963
  12   2.0000     -10.286310      -279.9047
  13   2.0000     -10.285371      -279.8792
  14   2.0000     -10.284764      -279.8627
  15   2.0000     -10.270820      -279.4832
  16   2.0000      -8.082505      -219.9361
  17   2.0000      -8.076869      -219.7828
  18   2.0000      -6.041067      -164.3858
  19   2.0000      -6.037034      -164.2760
  20   2.0000      -6.035344      -164.2301
  21   2.0000      -6.033274      -164.1737
  22   2.0000      -6.031267      -164.1191
  23   2.0000      -6.027579      -164.0188
  24   2.0000      -1.012822       -27.5603
  25   2.0000      -0.984844       -26.7990
  26   2.0000      -0.914359       -24.8810
  27   2.0000      -0.903618       -24.5887
  28   2.0000      -0.877568       -23.8799
  29   2.0000      -0.848252       -23.0821
  30   2.0000      -0.842098       -22.9146
  31   2.0000      -0.817272       -22.2391
  32   2.0000      -0.784532       -21.3482
  33   2.0000      -0.773019       -21.0349
  34   2.0000      -0.716298       -19.4915
  35   2.0000      -0.693102       -18.8603
  36   2.0000      -0.692315       -18.8389
  37   2.0000      -0.654665       -17.8143
  38   2.0000      -0.641579       -17.4583
  39   2.0000      -0.627257       -17.0685
  40   2.0000      -0.595297       -16.1989
  41   2.0000      -0.570087       -15.5129
  42   2.0000      -0.559084       -15.2135
  43   2.0000      -0.551984       -15.0202
  44   2.0000      -0.545033       -14.8311
  45   2.0000      -0.535726       -14.5779
  46   2.0000      -0.521687       -14.1958
  47   2.0000      -0.511707       -13.9242
  48   2.0000      -0.508362       -13.8332
  49   2.0000      -0.489666       -13.3245
  50   2.0000      -0.486718       -13.2443
  51   2.0000      -0.475843       -12.9483
  52   2.0000      -0.468848       -12.7580
  53   2.0000      -0.465071       -12.6552
  54   2.0000      -0.458377       -12.4731
  55   2.0000      -0.446219       -12.1422
  56   2.0000      -0.441089       -12.0026
  57   2.0000      -0.438988       -11.9455
  58   2.0000      -0.437782       -11.9126
  59   2.0000      -0.425486       -11.5781
  60   2.0000      -0.417488       -11.3604
  61   2.0000      -0.415417       -11.3041
  62   2.0000      -0.406071       -11.0497
  63   2.0000      -0.342371        -9.3164
  64   2.0000      -0.332480        -9.0472
  65   2.0000      -0.326428        -8.8825
  66   2.0000      -0.300135        -8.1671
  67   0.0000       0.039431         1.0730
  68   0.0000       0.063584         1.7302
  69   0.0000       0.118698         3.2299
  70   0.0000       0.122515         3.3338
  71   0.0000       0.132334         3.6010

MULLIKEN ATOMIC CHARGES
-----------------------
   0 S :    0.122064
   1 C :   -0.083428
   2 C :   -0.111811
   3 C :    0.058020
   4 C :   -0.173443
   5 H :   -0.003923
   6 C :    0.095083
   7 H :    0.002931
   8 H :    0.032823
   9 C :   -0.092967
  10 H :    0.026840
  11 H :    0.033106
  12 C :   -0.073714
  13 H :    0.045091
  14 H :    0.040976
  15 H :    0.040307
  16 S :    0.110384
  17 C :   -0.081581
  18 C :   -0.046405
  19 C :   -0.025498
  20 C :   -0.166326
  21 H :    0.035429
  22 C :    0.058818
  23 H :    0.038662
  24 H :    0.036099
  25 C :   -0.080354
  26 H :    0.024326
  27 H :    0.035578
  28 C :   -0.054212
  29 H :    0.036961
  30 H :    0.038101
  31 H :    0.025605
  32 H :    0.013606
  33 H :    0.042852
Sum of atomic charges:    0.0000000

LOEWDIN ATOMIC CHARGES
----------------------
   0 S :    0.407378
   1 C :   -0.187526
   2 C :   -0.060692
   3 C :   -0.054473
   4 C :   -0.202352
   5 H :    0.027395
   6 C :   -0.028973
   7 H :    0.027768
   8 H :    0.030879
   9 C :   -0.051639
  10 H :    0.021363
  11 H :    0.032074
  12 C :   -0.074711
  13 H :    0.034677
  14 H :    0.028397
  15 H :    0.029853
  16 S :    0.412870
  17 C :   -0.177723
  18 C :   -0.078960
  19 C :   -0.049150
  20 C :   -0.213320
  21 H :    0.040961
  22 C :   -0.033497
  23 H :    0.039594
  24 H :    0.030642
  25 C :   -0.041081
  26 H :    0.021073
  27 H :    0.024065
  28 C :   -0.063100
  29 H :    0.028390
  30 H :    0.018889
  31 H :    0.022137
  32 H :    0.016632
  33 H :    0.022162

  Mayer bond orders larger than 0.100000
B(  0-S ,  1-C ) :   1.1292 B(  0-S ,  4-C ) :   1.1457 B(  1-C ,  2-C ) :   1.6137
B(  1-C ,  4-C ) :   0.1021 B(  1-C , 32-H ) :   0.9700 B(  2-C ,  3-C ) :   1.2530
B(  2-C ,  6-C ) :   1.0216 B(  3-C ,  4-C ) :   1.5752 B(  3-C ,  5-H ) :   1.0047
B(  4-C , 20-C ) :   1.0390 B(  6-C ,  7-H ) :   0.9373 B(  6-C ,  8-H ) :   0.9375
B(  6-C ,  9-C ) :   1.0664 B(  9-C , 10-H ) :   0.9564 B(  9-C , 11-H ) :   0.9519
B(  9-C , 12-C ) :   1.0768 B( 12-C , 13-H ) :   0.9733 B( 12-C , 14-H ) :   0.9727
B( 12-C , 15-H ) :   0.9723 B( 16-S , 17-C ) :   1.1507 B( 16-S , 20-C ) :   1.1433
B( 17-C , 18-C ) :   1.6442 B( 17-C , 33-H ) :   0.9699 B( 18-C , 19-C ) :   1.1945
B( 18-C , 21-H ) :   0.9858 B( 19-C , 20-C ) :   1.6132 B( 19-C , 22-C ) :   1.0347
B( 22-C , 23-H ) :   0.9353 B( 22-C , 24-H ) :   0.9391 B( 22-C , 25-C ) :   1.0633
B( 25-C , 26-H ) :   0.9586 B( 25-C , 27-H ) :   0.9552 B( 25-C , 28-C ) :   1.0769
B( 28-C , 29-H ) :   0.9748 B( 28-C , 30-H ) :   0.9724 B( 28-C , 31-H ) :   0.9781

Dispersion correction           -0.014721552
FINAL SINGLE POINT ENERGY     -1339.881399325036

DIPOLE MOMENT
-------------
                                X             Y             Z
Electronic contribution:     16.52751      -7.66979     -15.08781
Nuclear contribution   :    -16.84282       8.05038      15.34057
                        -----------------------------------------
Total Dipole Moment    :     -0.31531       0.38059       0.25276
                        -----------------------------------------
Magnitude (a.u.)       :      0.55512
Magnitude (Debye)      :      1.41100

Rotational constants in cm-1:     0.019136     0.008516     0.007395
Rotational constants in MHz :   573.695028   255.294902   221.688675

                             ****ORCA TERMINATED NORMALLY****
TOTAL RUN TIME: 0 days 0 hours 0 minutes 20 seconds 808 msec
