                         Program Version 4.2.1 -  RELEASE  -
|  1> ! wB97X-D3 SP def2-SVP
|  2> %pal
|  3> nprocs 24
|  4> end
|  5>
|  6> * xyz 0 1
|  7> S 	 -34.8987 	 -39.4529 	 -89.2262
|  8> C 	 -33.2493 	 -39.6545 	 -88.7174
|  9> C 	 -32.607 	 -38.4408 	 -88.5052
| 10> C 	 -33.449 	 -37.3519 	 -88.8405
| 11> C 	 -34.7415 	 -37.7199 	 -89.2648
| 12> H 	 -33.2833 	 -36.2867 	 -88.7146
| 13> C 	 -31.2048 	 -38.2615 	 -87.9822
| 14> H 	 -30.5477 	 -39.0966 	 -88.1276
| 15> H 	 -31.2295 	 -38.3111 	 -86.8886
| 16> C 	 -30.5133 	 -36.8828 	 -88.2234
| 17> H 	 -31.0948 	 -36.087 	 -87.8704
| 18> H 	 -29.5734 	 -36.8266 	 -87.7787
| 19> C 	 -30.2594 	 -36.6768 	 -89.7213
| 20> H 	 -31.1191 	 -36.3817 	 -90.2919
| 21> H 	 -29.5147 	 -35.9072 	 -89.8591
| 22> H 	 -29.8858 	 -37.5841 	 -90.1509
| 23> S 	 -36.3633 	 -35.4719 	 -88.7662
| 24> C 	 -37.2588 	 -34.8342 	 -90.1839
| 25> C 	 -37.1361 	 -35.6305 	 -91.3114
| 26> C 	 -36.3879 	 -36.8261 	 -91.0168
| 27> C 	 -35.7997 	 -36.8036 	 -89.7451
| 28> H 	 -37.5733 	 -35.3624 	 -92.2217
| 29> C 	 -36.241 	 -37.9564 	 -92.0264
| 30> H 	 -35.3211 	 -38.477 	 -91.8685
| 31> H 	 -36.1323 	 -37.5846 	 -93.0703
| 32> C 	 -37.29 	 -39.0687 	 -92.0632
| 33> H 	 -38.1777 	 -38.5631 	 -91.8293
| 34> H 	 -37.0212 	 -39.7587 	 -91.2747
| 35> C 	 -37.5267 	 -39.7093 	 -93.4549
| 36> H 	 -38.2328 	 -40.4934 	 -93.4518
| 37> H 	 -36.4851 	 -39.9928 	 -93.8283
| 38> H 	 -38.0175 	 -38.9501 	 -94.0409
| 39> H 	 -32.7544 	 -40.6363 	 -88.5298
| 40> H 	 -37.7124 	 -33.8041 	 -90.0808
| 41> *
| 42>
| 43>                          ****END OF INPUT****

CARTESIAN COORDINATES (ANGSTROEM)
---------------------------------
  S    -34.898700  -39.452900  -89.226200
  C    -33.249300  -39.654500  -88.717400
  C    -32.607000  -38.440800  -88.505200
  C    -33.449000  -37.351900  -88.840500
  C    -34.741500  -37.719900  -89.264800
  H    -33.283300  -36.286700  -88.714600
  C    -31.204800  -38.261500  -87.982200
  H    -30.547700  -39.096600  -88.127600
  H    -31.229500  -38.311100  -86.888600
  C    -30.513300  -36.882800  -88.223400
  H    -31.094800  -36.087000  -87.870400
  H    -29.573400  -36.826600  -87.778700
  C    -30.259400  -36.676800  -89.721300
  H    -31.119100  -36.381700  -90.291900
  H    -29.514700  -35.907200  -89.859100
  H    -29.885800  -37.584100  -90.150900
  S    -36.363300  -35.471900  -88.766200
  C    -37.258800  -34.834200  -90.183900
  C    -37.136100  -35.630500  -91.311400
  C    -36.387900  -36.826100  -91.016800
  C    -35.799700  -36.803600  -89.745100
  H    -37.573300  -35.362400  -92.221700
  C    -36.241000  -37.956400  -92.026400
  H    -35.321100  -38.477000  -91.868500
  H    -36.132300  -37.584600  -93.070300
  C    -37.290000  -39.068700  -92.063200
  H    -38.177700  -38.563100  -91.829300
  H    -37.021200  -39.758700  -91.274700
  C    -37.526700  -39.709300  -93.454900
  H    -38.232800  -40.493400  -93.451800
  H    -36.485100  -39.992800  -93.828300
  H    -38.017500  -38.950100  -94.040900
  H    -32.754400  -40.636300  -88.529800
  H    -37.712400  -33.804100  -90.080800

 Total Charge           Charge          ....    0
 Multiplicity           Mult            ....    1
 Number of Electrons    NEL             ....  134
 Basis Dimension        Dim             ....  322

ORBITAL ENERGIES
----------------

  NO   OCC          E(Eh)            E(eV)
   0   2.0000     -88.970978     -2421.0234
   1   2.0000     -88.969602     -2420.9859
   2   2.0000     -10.331109      -281.1238
   3   2.0000     -10.330225      -281.0997
   4   2.0000     -10.327613      -281.0286
   5   2.0000     -10.316162      -280.7170
   6   2.0000     -10.307384      -280.4782
   7   2.0000     -10.303989      -280.3858
   8   2.0000     -10.298061      -280.2245
   9   2.0000     -10.294619      -280.1308
  10   2.0000     -10.291742      -280.0525
  11   2.0000     -10.284032      -279.8427
  12   2.0000     -10.279281      -279.7135
  13   2.0000     -10.279147      -279.7098
  14   2.0000     -10.274109      -279.5727
  15   2.0000     -10.265001      -279.3249
  16   2.0000      -8.085071      -220.0060
  17   2.0000      -8.083651      -219.9673
  18   2.0000      -6.043466      -164.4511
  19   2.0000      -6.042126      -164.4146
  20   2.0000      -6.039575      -164.3452
  21   2.0000      -6.038349      -164.3118
  22   2.0000      -6.036099      -164.2506
  23   2.0000      -6.034400      -164.2044
  24   2.0000      -1.003829       -27.3156
  25   2.0000      -0.982015       -26.7220
  26   2.0000      -0.912084       -24.8191
  27   2.0000      -0.906354       -24.6631
  28   2.0000      -0.867202       -23.5978
  29   2.0000      -0.851124       -23.1603
  30   2.0000      -0.844364       -22.9763
  31   2.0000      -0.814241       -22.1566
  32   2.0000      -0.784244       -21.3404
  33   2.0000      -0.770389       -20.9633
  34   2.0000      -0.709587       -19.3089
  35   2.0000      -0.695354       -18.9215
  36   2.0000      -0.685617       -18.6566
  37   2.0000      -0.667171       -18.1546
  38   2.0000      -0.637904       -17.3583
  39   2.0000      -0.624135       -16.9836
  40   2.0000      -0.601086       -16.3564
  41   2.0000      -0.569103       -15.4861
  42   2.0000      -0.563911       -15.3448
  43   2.0000      -0.547210       -14.8903
  44   2.0000      -0.541229       -14.7276
  45   2.0000      -0.529054       -14.3963
  46   2.0000      -0.514785       -14.0080
  47   2.0000      -0.512543       -13.9470
  48   2.0000      -0.505161       -13.7461
  49   2.0000      -0.490936       -13.3591
  50   2.0000      -0.486692       -13.2436
  51   2.0000      -0.481128       -13.0922
  52   2.0000      -0.469448       -12.7743
  53   2.0000      -0.462027       -12.5724
  54   2.0000      -0.461235       -12.5508
  55   2.0000      -0.452952       -12.3254
  56   2.0000      -0.443557       -12.0698
  57   2.0000      -0.435019       -11.8375
  58   2.0000      -0.432131       -11.7589
  59   2.0000      -0.427122       -11.6226
  60   2.0000      -0.420422       -11.4403
  61   2.0000      -0.417838       -11.3699
  62   2.0000      -0.410946       -11.1824
  63   2.0000      -0.342468        -9.3190
  64   2.0000      -0.336231        -9.1493
  65   2.0000      -0.326219        -8.8769
  66   2.0000      -0.292376        -7.9560
  67   0.0000       0.029798         0.8108
  68   0.0000       0.068138         1.8541
  69   0.0000       0.108270         2.9462
  70   0.0000       0.113873         3.0986
  71   0.0000       0.129769         3.5312

MULLIKEN ATOMIC CHARGES
-----------------------
   0 S :    0.119959
   1 C :   -0.144113
   2 C :   -0.051748
   3 C :    0.019763
   4 C :   -0.178957
   5 H :    0.013738
   6 C :    0.056054
   7 H :    0.012382
   8 H :    0.034004
   9 C :   -0.032638
  10 H :    0.020011
  11 H :    0.014846
  12 C :   -0.042833
  13 H :    0.032485
  14 H :    0.022293
  15 H :    0.019714
  16 S :    0.107198
  17 C :   -0.132244
  18 C :    0.014010
  19 C :   -0.034070
  20 C :   -0.143605
  21 H :    0.003784
  22 C :    0.036805
  23 H :    0.018977
  24 H :    0.016477
  25 C :   -0.037632
  26 H :    0.007397
  27 H :    0.025766
  28 C :   -0.044527
  29 H :    0.029435
  30 H :    0.047156
  31 H :    0.025869
  32 H :    0.060105
  33 H :    0.084138
Sum of atomic charges:   -0.0000000

LOEWDIN ATOMIC CHARGES
----------------------
   0 S :    0.435106
   1 C :   -0.212020
   2 C :   -0.062121
   3 C :   -0.064490
   4 C :   -0.196902
   5 H :    0.030137
   6 C :   -0.034747
   7 H :    0.027228
   8 H :    0.038717
   9 C :   -0.026887
  10 H :    0.016764
  11 H :    0.020834
  12 C :   -0.060854
  13 H :    0.021707
  14 H :    0.021899
  15 H :    0.021151
  16 S :    0.391061
  17 C :   -0.177155
  18 C :   -0.057136
  19 C :   -0.048796
  20 C :   -0.202605
  21 H :    0.026029
  22 C :   -0.041665
  23 H :    0.019504
  24 H :    0.030234
  25 C :   -0.037042
  26 H :    0.013310
  27 H :    0.012913
  28 C :   -0.058855
  29 H :    0.020886
  30 H :    0.033837
  31 H :    0.024293
  32 H :    0.036976
  33 H :    0.038685

  Mayer bond orders larger than 0.100000
B(  0-S ,  1-C ) :   1.1514 B(  0-S ,  4-C ) :   1.1687 B(  1-C ,  2-C ) :   1.5860
B(  1-C ,  4-C ) :   0.1004 B(  1-C , 32-H ) :   0.9636 B(  2-C ,  3-C ) :   1.2686
B(  2-C ,  6-C ) :   1.0156 B(  3-C ,  4-C ) :   1.5585 B(  3-C ,  5-H ) :   0.9859
B(  4-C , 20-C ) :   1.0134 B(  6-C ,  7-H ) :   0.9403 B(  6-C ,  8-H ) :   0.9262
B(  6-C ,  9-C ) :   1.0964 B(  9-C , 10-H ) :   0.9469 B(  9-C , 11-H ) :   0.9513
B(  9-C , 12-C ) :   1.0823 B( 12-C , 13-H ) :   0.9752 B( 12-C , 14-H ) :   0.9762
B( 12-C , 15-H ) :   0.9756 B( 16-S , 17-C ) :   1.1447 B( 16-S , 20-C ) :   1.1402
B( 17-C , 18-C ) :   1.6050 B( 17-C , 33-H ) :   0.9591 B( 18-C , 19-C ) :   1.2286
B( 18-C , 21-H ) :   1.0043 B( 19-C , 20-C ) :   1.5895 B( 19-C , 22-C ) :   1.0587
B( 22-C , 23-H ) :   0.9206 B( 22-C , 24-H ) :   0.9394 B( 22-C , 25-C ) :   1.0515
B( 25-C , 26-H ) :   0.9588 B( 25-C , 27-H ) :   0.9512 B( 25-C , 28-C ) :   1.0814
B( 28-C , 29-H ) :   0.9736 B( 28-C , 30-H ) :   0.9777 B( 28-C , 31-H ) :   0.9740

Dispersion correction           -0.014496878
FINAL SINGLE POINT ENERGY     -1339.873678523899

DIPOLE MOMENT
-------------
                                X             Y             Z
Electronic contribution:    -11.55751       4.05479      11.97656
Nuclear contribution   :     11.85051      -3.94698     -12.12892
                        -----------------------------------------
Total Dipole Moment    :      0.29299       0.10781      -0.15236
                        -----------------------------------------
Magnitude (a.u.)       :      0.34739
Magnitude (Debye)      :      0.88300

Rotational constants in cm-1:     0.018362     0.008772     0.007094
Rotational constants in MHz :   550.473499   262.977330   212.681056

                             ****ORCA TERMINATED NORMALLY****
TOTAL RUN TIME: 0 days 0 hours 0 minutes 21 seconds 514 msec
