                         Program Version 4.2.1 -  RELEASE  -
|  1> ! wB97X-D3 SP def2-SVP
|  2> %pal
|  3> nprocs 24
|  4> end
|  5>
|  6> * xyz 0 1
|  7> S 	 -89.4949 	 -2.7939 	 -118.542
|  8> C 	 -89.7805 	 -4.18571 	 -119.526
|  9> C 	 -91.1729 	 -4.48017 	 -119.478
| 10> C 	 -91.9366 	 -3.48103 	 -118.931
| 11> C 	 -91.184 	 -2.40132 	 -118.435
| 12> H 	 -93.0382 	 -3.45052 	 -118.899
| 13> C 	 -91.6755 	 -5.71601 	 -120.216
| 14> H 	 -91.5406 	 -5.45686 	 -121.287
| 15> H 	 -92.7562 	 -5.75507 	 -120.069
| 16> C 	 -90.9744 	 -7.03683 	 -119.833
| 17> H 	 -89.8925 	 -6.99254 	 -119.883
| 18> H 	 -91.2746 	 -7.31765 	 -118.826
| 19> C 	 -91.4915 	 -8.13501 	 -120.754
| 20> H 	 -91.1074 	 -7.76507 	 -121.713
| 21> H 	 -90.9704 	 -8.95086 	 -120.395
| 22> H 	 -92.5321 	 -8.40092 	 -120.881
| 23> S 	 -91.0931 	 -0.989273 	 -116.088
| 24> C 	 -92.228 	 0.308573 	 -115.841
| 25> C 	 -93.0685 	 0.469225 	 -116.913
| 26> C 	 -92.8264 	 -0.426253 	 -117.999
| 27> C 	 -91.7132 	 -1.25797 	 -117.724
| 28> H 	 -93.7414 	 1.32793 	 -116.837
| 29> C 	 -93.6679 	 -0.538758 	 -119.248
| 30> H 	 -93.298 	 -1.3623 	 -119.873
| 31> H 	 -93.452 	 0.447065 	 -119.825
| 32> C 	 -95.1212 	 -0.472579 	 -119.018
| 33> H 	 -95.5529 	 0.561238 	 -118.875
| 34> H 	 -95.2826 	 -0.777292 	 -118.034
| 35> C 	 -95.8963 	 -1.26517 	 -120.068
| 36> H 	 -96.9684 	 -1.1603 	 -119.964
| 37> H 	 -95.7122 	 -2.34605 	 -119.999
| 38> H 	 -95.7041 	 -0.85746 	 -121.072
| 39> H 	 -88.9672 	 -4.82224 	 -120.016
| 40> H 	 -92.2998 	 1.0476 	 -115.044
| 41> *
| 42>
| 43>                          ****END OF INPUT****

CARTESIAN COORDINATES (ANGSTROEM)
---------------------------------
  S    -89.494900   -2.793900  -118.542000
  C    -89.780500   -4.185710  -119.526000
  C    -91.172900   -4.480170  -119.478000
  C    -91.936600   -3.481030  -118.931000
  C    -91.184000   -2.401320  -118.435000
  H    -93.038200   -3.450520  -118.899000
  C    -91.675500   -5.716010  -120.216000
  H    -91.540600   -5.456860  -121.287000
  H    -92.756200   -5.755070  -120.069000
  C    -90.974400   -7.036830  -119.833000
  H    -89.892500   -6.992540  -119.883000
  H    -91.274600   -7.317650  -118.826000
  C    -91.491500   -8.135010  -120.754000
  H    -91.107400   -7.765070  -121.713000
  H    -90.970400   -8.950860  -120.395000
  H    -92.532100   -8.400920  -120.881000
  S    -91.093100   -0.989273  -116.088000
  C    -92.228000    0.308573  -115.841000
  C    -93.068500    0.469225  -116.913000
  C    -92.826400   -0.426253  -117.999000
  C    -91.713200   -1.257970  -117.724000
  H    -93.741400    1.327930  -116.837000
  C    -93.667900   -0.538758  -119.248000
  H    -93.298000   -1.362300  -119.873000
  H    -93.452000    0.447065  -119.825000
  C    -95.121200   -0.472579  -119.018000
  H    -95.552900    0.561238  -118.875000
  H    -95.282600   -0.777292  -118.034000
  C    -95.896300   -1.265170  -120.068000
  H    -96.968400   -1.160300  -119.964000
  H    -95.712200   -2.346050  -119.999000
  H    -95.704100   -0.857460  -121.072000
  H    -88.967200   -4.822240  -120.016000
  H    -92.299800    1.047600  -115.044000

 Total Charge           Charge          ....    0
 Multiplicity           Mult            ....    1
 Number of Electrons    NEL             ....  134
 Basis Dimension        Dim             ....  322

ORBITAL ENERGIES
----------------

  NO   OCC          E(Eh)            E(eV)
   0   2.0000     -88.969603     -2420.9860
   1   2.0000     -88.965489     -2420.8740
   2   2.0000     -10.327891      -281.0362
   3   2.0000     -10.327586      -281.0279
   4   2.0000     -10.318905      -280.7917
   5   2.0000     -10.313975      -280.6575
   6   2.0000     -10.306091      -280.4430
   7   2.0000     -10.298116      -280.2260
   8   2.0000     -10.293691      -280.1056
   9   2.0000     -10.292769      -280.0805
  10   2.0000     -10.292442      -280.0716
  11   2.0000     -10.292371      -280.0696
  12   2.0000     -10.288020      -279.9513
  13   2.0000     -10.281210      -279.7659
  14   2.0000     -10.280634      -279.7503
  15   2.0000     -10.270257      -279.4679
  16   2.0000      -8.084347      -219.9863
  17   2.0000      -8.079929      -219.8660
  18   2.0000      -6.042595      -164.4274
  19   2.0000      -6.038700      -164.3214
  20   2.0000      -6.038481      -164.3154
  21   2.0000      -6.035539      -164.2354
  22   2.0000      -6.034509      -164.2073
  23   2.0000      -6.030631      -164.1018
  24   2.0000      -1.007634       -27.4191
  25   2.0000      -0.984255       -26.7829
  26   2.0000      -0.918226       -24.9862
  27   2.0000      -0.913751       -24.8644
  28   2.0000      -0.870194       -23.6792
  29   2.0000      -0.856862       -23.3164
  30   2.0000      -0.847430       -23.0597
  31   2.0000      -0.813464       -22.1355
  32   2.0000      -0.782241       -21.2859
  33   2.0000      -0.766011       -20.8442
  34   2.0000      -0.706310       -19.2197
  35   2.0000      -0.704766       -19.1776
  36   2.0000      -0.696790       -18.9606
  37   2.0000      -0.651450       -17.7268
  38   2.0000      -0.633772       -17.2458
  39   2.0000      -0.619454       -16.8562
  40   2.0000      -0.596411       -16.2292
  41   2.0000      -0.573539       -15.6068
  42   2.0000      -0.564761       -15.3679
  43   2.0000      -0.563109       -15.3230
  44   2.0000      -0.533563       -14.5190
  45   2.0000      -0.527016       -14.3408
  46   2.0000      -0.520737       -14.1700
  47   2.0000      -0.514497       -14.0002
  48   2.0000      -0.502872       -13.6838
  49   2.0000      -0.499137       -13.5822
  50   2.0000      -0.491328       -13.3697
  51   2.0000      -0.485597       -13.2138
  52   2.0000      -0.472076       -12.8458
  53   2.0000      -0.463911       -12.6237
  54   2.0000      -0.458337       -12.4720
  55   2.0000      -0.451089       -12.2748
  56   2.0000      -0.446073       -12.1383
  57   2.0000      -0.443031       -12.0555
  58   2.0000      -0.437892       -11.9157
  59   2.0000      -0.428504       -11.6602
  60   2.0000      -0.417070       -11.3490
  61   2.0000      -0.407198       -11.0804
  62   2.0000      -0.401673       -10.9301
  63   2.0000      -0.347395        -9.4531
  64   2.0000      -0.333715        -9.0808
  65   2.0000      -0.326891        -8.8951
  66   2.0000      -0.281501        -7.6600
  67   0.0000       0.024339         0.6623
  68   0.0000       0.068233         1.8567
  69   0.0000       0.112850         3.0708
  70   0.0000       0.119078         3.2403
  71   0.0000       0.128367         3.4930

MULLIKEN ATOMIC CHARGES
-----------------------
   0 S :    0.132239
   1 C :   -0.163911
   2 C :   -0.070996
   3 C :    0.023054
   4 C :   -0.178008
   5 H :    0.021521
   6 C :    0.033157
   7 H :    0.044274
   8 H :    0.016741
   9 C :   -0.077959
  10 H :    0.031201
  11 H :    0.029171
  12 C :   -0.013153
  13 H :    0.018882
  14 H :    0.016435
  15 H :    0.038850
  16 S :    0.107145
  17 C :   -0.084158
  18 C :   -0.060336
  19 C :   -0.040594
  20 C :   -0.148665
  21 H :    0.021858
  22 C :    0.055650
  23 H :    0.034702
  24 H :    0.047922
  25 C :   -0.058180
  26 H :    0.026514
  27 H :    0.006669
  28 C :   -0.045588
  29 H :    0.024498
  30 H :    0.039048
  31 H :    0.036140
  32 H :    0.083471
  33 H :    0.052407
Sum of atomic charges:    0.0000000

LOEWDIN ATOMIC CHARGES
----------------------
   0 S :    0.437548
   1 C :   -0.226356
   2 C :   -0.068499
   3 C :   -0.069505
   4 C :   -0.208112
   5 H :    0.036096
   6 C :   -0.035730
   7 H :    0.035980
   8 H :    0.027640
   9 C :   -0.030206
  10 H :    0.023059
  11 H :    0.024018
  12 C :   -0.059343
  13 H :    0.025705
  14 H :    0.016843
  15 H :    0.025875
  16 S :    0.399827
  17 C :   -0.192896
  18 C :   -0.078761
  19 C :   -0.053687
  20 C :   -0.193748
  21 H :    0.034422
  22 C :   -0.040823
  23 H :    0.032602
  24 H :    0.049385
  25 C :   -0.052588
  26 H :    0.031286
  27 H :    0.013282
  28 C :   -0.062004
  29 H :    0.024348
  30 H :    0.026983
  31 H :    0.028853
  32 H :    0.044563
  33 H :    0.033944

  Mayer bond orders larger than 0.100000
B(  0-S ,  1-C ) :   1.1732 B(  0-S ,  4-C ) :   1.1906 B(  1-C ,  2-C ) :   1.5015
B(  1-C ,  4-C ) :   0.1246 B(  1-C , 32-H ) :   0.9641 B(  2-C ,  3-C ) :   1.3469
B(  2-C ,  6-C ) :   1.0089 B(  3-C ,  4-C ) :   1.4657 B(  3-C ,  5-H ) :   0.9892
B(  4-C , 20-C ) :   1.0578 B(  6-C ,  7-H ) :   0.9441 B(  6-C ,  8-H ) :   0.9458
B(  6-C ,  9-C ) :   1.0631 B(  9-C , 10-H ) :   0.9573 B(  9-C , 11-H ) :   0.9559
B(  9-C , 12-C ) :   1.0709 B( 12-C , 13-H ) :   0.9766 B( 12-C , 14-H ) :   0.9734
B( 12-C , 15-H ) :   0.9782 B( 16-S , 17-C ) :   1.1439 B( 16-S , 20-C ) :   1.1392
B( 17-C , 18-C ) :   1.6438 B( 17-C , 33-H ) :   0.9599 B( 18-C , 19-C ) :   1.2214
B( 18-C , 21-H ) :   0.9856 B( 19-C , 20-C ) :   1.5843 B( 19-C , 22-C ) :   1.0560
B( 22-C , 23-H ) :   0.9456 B( 22-C , 24-H ) :   0.9142 B( 22-C , 25-C ) :   1.0486
B( 25-C , 26-H ) :   0.9377 B( 25-C , 27-H ) :   0.9601 B( 25-C , 28-C ) :   1.0876
B( 28-C , 29-H ) :   0.9718 B( 28-C , 30-H ) :   0.9765 B( 28-C , 31-H ) :   0.9726

Dispersion correction           -0.013690343
FINAL SINGLE POINT ENERGY     -1339.858871819665

DIPOLE MOMENT
-------------
                                X             Y             Z
Electronic contribution:     18.84456      14.35320      16.93215
Nuclear contribution   :    -19.37328     -14.56035     -17.24797
                        -----------------------------------------
Total Dipole Moment    :     -0.52872      -0.20715      -0.31582
                        -----------------------------------------
Magnitude (a.u.)       :      0.64977
Magnitude (Debye)      :      1.65158

Rotational constants in cm-1:     0.018876     0.008101     0.006109
Rotational constants in MHz :   565.890033   242.870924   183.134977

                             ****ORCA TERMINATED NORMALLY****
TOTAL RUN TIME: 0 days 0 hours 0 minutes 21 seconds 253 msec
