                         Program Version 4.2.1 -  RELEASE  -
|  1> ! wB97X-D3 SP def2-SVP
|  2> %pal
|  3> nprocs 24
|  4> end
|  5>
|  6> * xyz 0 1
|  7> S 	 -1.62092 	 -25.1615 	 -107.136
|  8> C 	 -1.13961 	 -25.2014 	 -108.815
|  9> C 	 -2.01853 	 -26.0029 	 -109.568
| 10> C 	 -3.09209 	 -26.5746 	 -108.798
| 11> C 	 -2.98141 	 -26.2512 	 -107.426
| 12> H 	 -3.90771 	 -27.1578 	 -109.146
| 13> C 	 -2.00374 	 -26.0343 	 -111.053
| 14> H 	 -2.9908 	 -26.307 	 -111.421
| 15> H 	 -1.34091 	 -26.8625 	 -111.236
| 16> C 	 -1.5526 	 -24.7751 	 -111.815
| 17> H 	 -2.13168 	 -23.9907 	 -111.432
| 18> H 	 -0.529024 	 -24.5152 	 -111.537
| 19> C 	 -1.84606 	 -24.9514 	 -113.309
| 20> H 	 -1.17298 	 -25.7107 	 -113.796
| 21> H 	 -2.86838 	 -25.2278 	 -113.542
| 22> H 	 -1.7344 	 -23.9632 	 -113.786
| 23> S 	 -3.69189 	 -28.3075 	 -105.827
| 24> C 	 -5.00835 	 -28.1702 	 -104.683
| 25> C 	 -5.35886 	 -26.8623 	 -104.546
| 26> C 	 -4.60966 	 -26.0062 	 -105.372
| 27> C 	 -3.78761 	 -26.6922 	 -106.287
| 28> H 	 -6.20257 	 -26.4959 	 -103.929
| 29> C 	 -4.72649 	 -24.4572 	 -105.449
| 30> H 	 -3.71812 	 -24.139 	 -105.639
| 31> H 	 -4.99591 	 -23.9272 	 -104.496
| 32> C 	 -5.44542 	 -23.7777 	 -106.67
| 33> H 	 -5.0252 	 -24.333 	 -107.579
| 34> H 	 -5.0351 	 -22.7869 	 -106.732
| 35> C 	 -6.95843 	 -23.7198 	 -106.481
| 36> H 	 -7.17462 	 -24.7544 	 -106.373
| 37> H 	 -7.59641 	 -23.288 	 -107.228
| 38> H 	 -7.23178 	 -23.2795 	 -105.567
| 39> H 	 -0.276166 	 -24.7739 	 -109.322
| 40> H 	 -5.55365 	 -28.9942 	 -104.165
| 41> *
| 42>
| 43>                          ****END OF INPUT****

CARTESIAN COORDINATES (ANGSTROEM)
---------------------------------
  S     -1.620920  -25.161500  -107.136000
  C     -1.139610  -25.201400  -108.815000
  C     -2.018530  -26.002900  -109.568000
  C     -3.092090  -26.574600  -108.798000
  C     -2.981410  -26.251200  -107.426000
  H     -3.907710  -27.157800  -109.146000
  C     -2.003740  -26.034300  -111.053000
  H     -2.990800  -26.307000  -111.421000
  H     -1.340910  -26.862500  -111.236000
  C     -1.552600  -24.775100  -111.815000
  H     -2.131680  -23.990700  -111.432000
  H     -0.529024  -24.515200  -111.537000
  C     -1.846060  -24.951400  -113.309000
  H     -1.172980  -25.710700  -113.796000
  H     -2.868380  -25.227800  -113.542000
  H     -1.734400  -23.963200  -113.786000
  S     -3.691890  -28.307500  -105.827000
  C     -5.008350  -28.170200  -104.683000
  C     -5.358860  -26.862300  -104.546000
  C     -4.609660  -26.006200  -105.372000
  C     -3.787610  -26.692200  -106.287000
  H     -6.202570  -26.495900  -103.929000
  C     -4.726490  -24.457200  -105.449000
  H     -3.718120  -24.139000  -105.639000
  H     -4.995910  -23.927200  -104.496000
  C     -5.445420  -23.777700  -106.670000
  H     -5.025200  -24.333000  -107.579000
  H     -5.035100  -22.786900  -106.732000
  C     -6.958430  -23.719800  -106.481000
  H     -7.174620  -24.754400  -106.373000
  H     -7.596410  -23.288000  -107.228000
  H     -7.231780  -23.279500  -105.567000
  H     -0.276166  -24.773900  -109.322000
  H     -5.553650  -28.994200  -104.165000

 Total Charge           Charge          ....    0
 Multiplicity           Mult            ....    1
 Number of Electrons    NEL             ....  134
 Basis Dimension        Dim             ....  322

ORBITAL ENERGIES
----------------

  NO   OCC          E(Eh)            E(eV)
   0   2.0000     -88.971282     -2421.0317
   1   2.0000     -88.965841     -2420.8836
   2   2.0000     -10.336966      -281.2831
   3   2.0000     -10.322582      -280.8917
   4   2.0000     -10.316580      -280.7284
   5   2.0000     -10.316224      -280.7187
   6   2.0000     -10.303229      -280.3651
   7   2.0000     -10.302643      -280.3492
   8   2.0000     -10.301348      -280.3139
   9   2.0000     -10.292764      -280.0803
  10   2.0000     -10.289717      -279.9974
  11   2.0000     -10.286735      -279.9163
  12   2.0000     -10.286636      -279.9136
  13   2.0000     -10.285976      -279.8956
  14   2.0000     -10.285163      -279.8735
  15   2.0000     -10.262896      -279.2676
  16   2.0000      -8.084877      -220.0007
  17   2.0000      -8.081602      -219.9116
  18   2.0000      -6.043422      -164.4499
  19   2.0000      -6.039982      -164.3563
  20   2.0000      -6.039378      -164.3398
  21   2.0000      -6.035835      -164.2434
  22   2.0000      -6.035777      -164.2418
  23   2.0000      -6.032600      -164.1554
  24   2.0000      -1.011838       -27.5335
  25   2.0000      -0.985015       -26.8036
  26   2.0000      -0.916879       -24.9495
  27   2.0000      -0.899597       -24.4793
  28   2.0000      -0.871299       -23.7092
  29   2.0000      -0.853341       -23.2206
  30   2.0000      -0.843844       -22.9622
  31   2.0000      -0.817076       -22.2338
  32   2.0000      -0.780064       -21.2266
  33   2.0000      -0.768645       -20.9159
  34   2.0000      -0.716532       -19.4978
  35   2.0000      -0.703405       -19.1406
  36   2.0000      -0.684467       -18.6253
  37   2.0000      -0.659177       -17.9371
  38   2.0000      -0.640777       -17.4364
  39   2.0000      -0.612271       -16.6607
  40   2.0000      -0.591119       -16.0852
  41   2.0000      -0.578707       -15.7474
  42   2.0000      -0.567506       -15.4426
  43   2.0000      -0.547717       -14.9041
  44   2.0000      -0.540552       -14.7092
  45   2.0000      -0.522845       -14.2273
  46   2.0000      -0.518474       -14.1084
  47   2.0000      -0.509764       -13.8714
  48   2.0000      -0.506580       -13.7847
  49   2.0000      -0.500488       -13.6190
  50   2.0000      -0.485738       -13.2176
  51   2.0000      -0.479804       -13.0561
  52   2.0000      -0.476666       -12.9707
  53   2.0000      -0.466958       -12.7066
  54   2.0000      -0.458941       -12.4884
  55   2.0000      -0.454849       -12.3771
  56   2.0000      -0.441739       -12.0203
  57   2.0000      -0.435218       -11.8429
  58   2.0000      -0.430039       -11.7020
  59   2.0000      -0.424256       -11.5446
  60   2.0000      -0.420815       -11.4509
  61   2.0000      -0.420234       -11.4352
  62   2.0000      -0.405022       -11.0212
  63   2.0000      -0.340815        -9.2740
  64   2.0000      -0.334478        -9.1016
  65   2.0000      -0.322791        -8.7836
  66   2.0000      -0.295016        -8.0278
  67   0.0000       0.028343         0.7712
  68   0.0000       0.064763         1.7623
  69   0.0000       0.112067         3.0495
  70   0.0000       0.120608         3.2819
  71   0.0000       0.131426         3.5763

MULLIKEN ATOMIC CHARGES
-----------------------
   0 S :    0.128352
   1 C :   -0.114595
   2 C :   -0.107477
   3 C :    0.063032
   4 C :   -0.187084
   5 H :    0.007824
   6 C :    0.054615
   7 H :    0.015918
   8 H :    0.035437
   9 C :   -0.052658
  10 H :    0.020619
  11 H :    0.027603
  12 C :   -0.054850
  13 H :    0.043412
  14 H :    0.029755
  15 H :    0.035920
  16 S :    0.133755
  17 C :   -0.112055
  18 C :   -0.041690
  19 C :   -0.014346
  20 C :   -0.177379
  21 H :    0.031175
  22 C :    0.030206
  23 H :    0.005374
  24 H :    0.030302
  25 C :   -0.078457
  26 H :    0.045148
  27 H :    0.021108
  28 C :    0.010914
  29 H :    0.013263
  30 H :    0.032915
  31 H :    0.005255
  32 H :    0.046816
  33 H :    0.071873
Sum of atomic charges:    0.0000000

LOEWDIN ATOMIC CHARGES
----------------------
   0 S :    0.418916
   1 C :   -0.212839
   2 C :   -0.060477
   3 C :   -0.051998
   4 C :   -0.191115
   5 H :    0.029811
   6 C :   -0.035969
   7 H :    0.028565
   8 H :    0.034478
   9 C :   -0.035707
  10 H :    0.019626
  11 H :    0.022467
  12 C :   -0.065155
  13 H :    0.031823
  14 H :    0.024495
  15 H :    0.029924
  16 S :    0.449068
  17 C :   -0.201016
  18 C :   -0.078837
  19 C :   -0.061004
  20 C :   -0.232552
  21 H :    0.039989
  22 C :   -0.040669
  23 H :    0.018998
  24 H :    0.031448
  25 C :   -0.036454
  26 H :    0.034017
  27 H :    0.016820
  28 C :   -0.064841
  29 H :    0.024372
  30 H :    0.022977
  31 H :    0.017494
  32 H :    0.031566
  33 H :    0.041777

  Mayer bond orders larger than 0.100000
B(  0-S ,  1-C ) :   1.1369 B(  0-S ,  4-C ) :   1.1674 B(  1-C ,  2-C ) :   1.6005
B(  1-C ,  4-C ) :   0.1036 B(  1-C , 32-H ) :   0.9651 B(  2-C ,  3-C ) :   1.2469
B(  2-C ,  6-C ) :   1.0176 B(  3-C ,  4-C ) :   1.5566 B(  3-C ,  5-H ) :   0.9996
B(  4-C , 20-C ) :   1.0128 B(  6-C ,  7-H ) :   0.9525 B(  6-C ,  8-H ) :   0.9168
B(  6-C ,  9-C ) :   1.0773 B(  9-C , 10-H ) :   0.9562 B(  9-C , 11-H ) :   0.9452
B(  9-C , 12-C ) :   1.0879 B( 12-C , 13-H ) :   0.9763 B( 12-C , 14-H ) :   0.9733
B( 12-C , 15-H ) :   0.9731 B( 16-S , 17-C ) :   1.1647 B( 16-S , 20-C ) :   1.1877
B( 17-C , 18-C ) :   1.5700 B( 17-C , 20-C ) :   0.1068 B( 17-C , 33-H ) :   0.9634
B( 18-C , 19-C ) :   1.2923 B( 18-C , 21-H ) :   0.9871 B( 19-C , 20-C ) :   1.5288
B( 19-C , 22-C ) :   1.0388 B( 22-C , 23-H ) :   0.9231 B( 22-C , 24-H ) :   0.9443
B( 22-C , 25-C ) :   1.0695 B( 25-C , 26-H ) :   0.9541 B( 25-C , 27-H ) :   0.9558
B( 25-C , 28-C ) :   1.0627 B( 28-C , 29-H ) :   0.9768 B( 28-C , 30-H ) :   0.9764
B( 28-C , 31-H ) :   0.9712

Dispersion correction           -0.014594258
FINAL SINGLE POINT ENERGY     -1339.868163556888

DIPOLE MOMENT
-------------
                                X             Y             Z
Electronic contribution:      7.86233     -14.58931      18.83375
Nuclear contribution   :     -8.09507      14.78285     -19.27746
                        -----------------------------------------
Total Dipole Moment    :     -0.23274       0.19354      -0.44371
                        -----------------------------------------
Magnitude (a.u.)       :      0.53713
Magnitude (Debye)      :      1.36526

Rotational constants in cm-1:     0.021380     0.007645     0.006682
Rotational constants in MHz :   640.960716   229.183321   200.316927

                             ****ORCA TERMINATED NORMALLY****
TOTAL RUN TIME: 0 days 0 hours 0 minutes 21 seconds 620 msec
