                         Program Version 4.2.1 -  RELEASE  -
|  1> ! wB97X-D3 SP def2-SVP
|  2> %pal
|  3> nprocs 24
|  4> end
|  5>
|  6> * xyz 0 1
|  7> S 	 -126.72 	 60.739 	 -52.1792
|  8> C 	 -127.662 	 61.7636 	 -53.27
|  9> C 	 -127.007 	 61.8307 	 -54.4408
| 10> C 	 -125.735 	 61.2189 	 -54.4859
| 11> C 	 -125.405 	 60.5906 	 -53.291
| 12> H 	 -124.992 	 61.3395 	 -55.2213
| 13> C 	 -127.47 	 62.4256 	 -55.7377
| 14> H 	 -127.07 	 61.7755 	 -56.5089
| 15> H 	 -126.741 	 63.2568 	 -55.7645
| 16> C 	 -129.007 	 62.7199 	 -55.8833
| 17> H 	 -129.52 	 61.856 	 -55.5064
| 18> H 	 -129.269 	 63.5084 	 -55.1562
| 19> C 	 -129.468 	 63.1666 	 -57.2569
| 20> H 	 -128.746 	 62.9234 	 -58.0116
| 21> H 	 -130.471 	 62.7463 	 -57.5112
| 22> H 	 -129.621 	 64.2823 	 -57.2891
| 23> S 	 -123.51 	 60.4271 	 -51.3447
| 24> C 	 -122.143 	 59.3697 	 -51.5834
| 25> C 	 -122.099 	 58.8043 	 -52.863
| 26> C 	 -123.218 	 59.2372 	 -53.6968
| 27> C 	 -124.115 	 60.0594 	 -52.9887
| 28> H 	 -121.265 	 58.1297 	 -53.2123
| 29> C 	 -123.382 	 58.6207 	 -55.0586
| 30> H 	 -122.413 	 58.2415 	 -55.3912
| 31> H 	 -123.696 	 59.3615 	 -55.829
| 32> C 	 -124.304 	 57.4822 	 -55.0407
| 33> H 	 -125.321 	 57.8848 	 -54.9526
| 34> H 	 -124.122 	 56.8803 	 -54.1487
| 35> C 	 -124.209 	 56.5146 	 -56.2922
| 36> H 	 -123.143 	 56.2203 	 -56.293
| 37> H 	 -124.492 	 56.9574 	 -57.2517
| 38> H 	 -124.767 	 55.5879 	 -56.0027
| 39> H 	 -128.633 	 62.1671 	 -53.0324
| 40> H 	 -121.363 	 59.1044 	 -50.7282
| 41> *
| 42>
| 43>                          ****END OF INPUT****

CARTESIAN COORDINATES (ANGSTROEM)
---------------------------------
  S    -126.720000   60.739000  -52.179200
  C    -127.662000   61.763600  -53.270000
  C    -127.007000   61.830700  -54.440800
  C    -125.735000   61.218900  -54.485900
  C    -125.405000   60.590600  -53.291000
  H    -124.992000   61.339500  -55.221300
  C    -127.470000   62.425600  -55.737700
  H    -127.070000   61.775500  -56.508900
  H    -126.741000   63.256800  -55.764500
  C    -129.007000   62.719900  -55.883300
  H    -129.520000   61.856000  -55.506400
  H    -129.269000   63.508400  -55.156200
  C    -129.468000   63.166600  -57.256900
  H    -128.746000   62.923400  -58.011600
  H    -130.471000   62.746300  -57.511200
  H    -129.621000   64.282300  -57.289100
  S    -123.510000   60.427100  -51.344700
  C    -122.143000   59.369700  -51.583400
  C    -122.099000   58.804300  -52.863000
  C    -123.218000   59.237200  -53.696800
  C    -124.115000   60.059400  -52.988700
  H    -121.265000   58.129700  -53.212300
  C    -123.382000   58.620700  -55.058600
  H    -122.413000   58.241500  -55.391200
  H    -123.696000   59.361500  -55.829000
  C    -124.304000   57.482200  -55.040700
  H    -125.321000   57.884800  -54.952600
  H    -124.122000   56.880300  -54.148700
  C    -124.209000   56.514600  -56.292200
  H    -123.143000   56.220300  -56.293000
  H    -124.492000   56.957400  -57.251700
  H    -124.767000   55.587900  -56.002700
  H    -128.633000   62.167100  -53.032400
  H    -121.363000   59.104400  -50.728200

 Total Charge           Charge          ....    0
 Multiplicity           Mult            ....    1
 Number of Electrons    NEL             ....  134
 Basis Dimension        Dim             ....  322

ORBITAL ENERGIES
----------------

  NO   OCC          E(Eh)            E(eV)
   0   2.0000     -88.967935     -2420.9406
   1   2.0000     -88.962646     -2420.7967
   2   2.0000     -10.330799      -281.1153
   3   2.0000     -10.329458      -281.0788
   4   2.0000     -10.327208      -281.0176
   5   2.0000     -10.310524      -280.5636
   6   2.0000     -10.308761      -280.5157
   7   2.0000     -10.304128      -280.3896
   8   2.0000     -10.294353      -280.1236
   9   2.0000     -10.292540      -280.0742
  10   2.0000     -10.290889      -280.0293
  11   2.0000     -10.289690      -279.9967
  12   2.0000     -10.285429      -279.8807
  13   2.0000     -10.284755      -279.8624
  14   2.0000     -10.283858      -279.8380
  15   2.0000     -10.280656      -279.7509
  16   2.0000      -8.082053      -219.9238
  17   2.0000      -8.077542      -219.8011
  18   2.0000      -6.040636      -164.3741
  19   2.0000      -6.036600      -164.2642
  20   2.0000      -6.036162      -164.2523
  21   2.0000      -6.032805      -164.1610
  22   2.0000      -6.031972      -164.1383
  23   2.0000      -6.028213      -164.0360
  24   2.0000      -1.008956       -27.4551
  25   2.0000      -0.981677       -26.7128
  26   2.0000      -0.916616       -24.9424
  27   2.0000      -0.910725       -24.7821
  28   2.0000      -0.870480       -23.6870
  29   2.0000      -0.854469       -23.2513
  30   2.0000      -0.843735       -22.9592
  31   2.0000      -0.808866       -22.0104
  32   2.0000      -0.780657       -21.2428
  33   2.0000      -0.771376       -20.9902
  34   2.0000      -0.717537       -19.5252
  35   2.0000      -0.700522       -19.0622
  36   2.0000      -0.684183       -18.6176
  37   2.0000      -0.661588       -18.0027
  38   2.0000      -0.640459       -17.4278
  39   2.0000      -0.610558       -16.6141
  40   2.0000      -0.592081       -16.1113
  41   2.0000      -0.567979       -15.4555
  42   2.0000      -0.564893       -15.3715
  43   2.0000      -0.559550       -15.2261
  44   2.0000      -0.529763       -14.4156
  45   2.0000      -0.523239       -14.2381
  46   2.0000      -0.518806       -14.1174
  47   2.0000      -0.512845       -13.9552
  48   2.0000      -0.505114       -13.7448
  49   2.0000      -0.503791       -13.7088
  50   2.0000      -0.489577       -13.3221
  51   2.0000      -0.485201       -13.2030
  52   2.0000      -0.477254       -12.9867
  53   2.0000      -0.463939       -12.6244
  54   2.0000      -0.453055       -12.3283
  55   2.0000      -0.450820       -12.2674
  56   2.0000      -0.445705       -12.1283
  57   2.0000      -0.438766       -11.9394
  58   2.0000      -0.429565       -11.6891
  59   2.0000      -0.420036       -11.4298
  60   2.0000      -0.418190       -11.3795
  61   2.0000      -0.416003       -11.3200
  62   2.0000      -0.411221       -11.1899
  63   2.0000      -0.351532        -9.5657
  64   2.0000      -0.332282        -9.0419
  65   2.0000      -0.323560        -8.8045
  66   2.0000      -0.287174        -7.8144
  67   0.0000       0.022732         0.6186
  68   0.0000       0.079466         2.1624
  69   0.0000       0.107365         2.9215
  70   0.0000       0.118407         3.2220
  71   0.0000       0.137804         3.7498

MULLIKEN ATOMIC CHARGES
-----------------------
   0 S :    0.099016
   1 C :   -0.152726
   2 C :   -0.057716
   3 C :   -0.000012
   4 C :   -0.116992
   5 H :   -0.000882
   6 C :    0.049155
   7 H :    0.025307
   8 H :    0.037501
   9 C :   -0.070217
  10 H :    0.031103
  11 H :    0.033444
  12 C :   -0.038098
  13 H :    0.031663
  14 H :    0.039532
  15 H :    0.038313
  16 S :    0.110891
  17 C :   -0.132913
  18 C :   -0.056365
  19 C :   -0.036767
  20 C :   -0.166603
  21 H :    0.044569
  22 C :    0.083954
  23 H :    0.001080
  24 H :    0.027194
  25 C :   -0.093129
  26 H :    0.037095
  27 H :    0.028044
  28 C :   -0.056739
  29 H :    0.024843
  30 H :    0.045624
  31 H :    0.047567
  32 H :    0.044441
  33 H :    0.098820
Sum of atomic charges:   -0.0000000

LOEWDIN ATOMIC CHARGES
----------------------
   0 S :    0.399307
   1 C :   -0.201155
   2 C :   -0.062803
   3 C :   -0.065872
   4 C :   -0.195212
   5 H :    0.023028
   6 C :   -0.035892
   7 H :    0.029166
   8 H :    0.040777
   9 C :   -0.045870
  10 H :    0.023129
  11 H :    0.028500
  12 C :   -0.068440
  13 H :    0.022187
  14 H :    0.033250
  15 H :    0.033220
  16 S :    0.396684
  17 C :   -0.207984
  18 C :   -0.082444
  19 C :   -0.046702
  20 C :   -0.185938
  21 H :    0.042399
  22 C :   -0.038694
  23 H :    0.025268
  24 H :    0.031665
  25 C :   -0.043320
  26 H :    0.025664
  27 H :    0.025800
  28 C :   -0.067387
  29 H :    0.023773
  30 H :    0.024849
  31 H :    0.034813
  32 H :    0.028835
  33 H :    0.055399

  Mayer bond orders larger than 0.100000
B(  0-S ,  1-C ) :   1.0952 B(  0-S ,  4-C ) :   1.1580 B(  1-C ,  2-C ) :   1.6296
B(  1-C , 32-H ) :   0.9756 B(  2-C ,  3-C ) :   1.2370 B(  2-C ,  6-C ) :   0.9897
B(  3-C ,  4-C ) :   1.5484 B(  3-C ,  5-H ) :   1.0028 B(  4-C , 20-C ) :   1.0957
B(  6-C ,  7-H ) :   0.9453 B(  6-C ,  8-H ) :   0.9308 B(  6-C ,  9-C ) :   1.0573
B(  9-C , 10-H ) :   0.9621 B(  9-C , 11-H ) :   0.9529 B(  9-C , 12-C ) :   1.0737
B( 12-C , 13-H ) :   0.9799 B( 12-C , 14-H ) :   0.9747 B( 12-C , 15-H ) :   0.9767
B( 16-S , 17-C ) :   1.1547 B( 16-S , 20-C ) :   1.1268 B( 17-C , 18-C ) :   1.6138
B( 17-C , 33-H ) :   0.9489 B( 18-C , 19-C ) :   1.2391 B( 18-C , 21-H ) :   0.9765
B( 19-C , 20-C ) :   1.5756 B( 19-C , 22-C ) :   1.0597 B( 22-C , 23-H ) :   0.9247
B( 22-C , 24-H ) :   0.9251 B( 22-C , 25-C ) :   1.0748 B( 25-C , 26-H ) :   0.9496
B( 25-C , 27-H ) :   0.9536 B( 25-C , 28-C ) :   1.0754 B( 28-C , 29-H ) :   0.9750
B( 28-C , 30-H ) :   0.9762 B( 28-C , 31-H ) :   0.9763

Dispersion correction           -0.013751078
FINAL SINGLE POINT ENERGY     -1339.871777033431

DIPOLE MOMENT
-------------
                                X             Y             Z
Electronic contribution:      8.91481       3.61115      26.87185
Nuclear contribution   :     -8.89894      -3.68173     -27.48691
                        -----------------------------------------
Total Dipole Moment    :      0.01588      -0.07058      -0.61506
                        -----------------------------------------
Magnitude (a.u.)       :      0.61930
Magnitude (Debye)      :      1.57414

Rotational constants in cm-1:     0.019362     0.007968     0.006189
Rotational constants in MHz :   580.449233   238.877648   185.536073

                             ****ORCA TERMINATED NORMALLY****
TOTAL RUN TIME: 0 days 0 hours 0 minutes 20 seconds 18 msec
