                         Program Version 4.2.1 -  RELEASE  -
|  1> ! wB97X-D3 SP def2-SVP
|  2> %pal
|  3> nprocs 24
|  4> end
|  5>
|  6> * xyz 0 1
|  7> S 	 43.5969 	 -19.5618 	 -114.468
|  8> C 	 43.0535 	 -18.0121 	 -114.79
|  9> C 	 42.9865 	 -17.2692 	 -113.616
| 10> C 	 43.4325 	 -18.0323 	 -112.475
| 11> C 	 43.6544 	 -19.3684 	 -112.753
| 12> H 	 43.5413 	 -17.7376 	 -111.474
| 13> C 	 42.5159 	 -15.8478 	 -113.524
| 14> H 	 42.6707 	 -15.4963 	 -114.452
| 15> H 	 43.2903 	 -15.3636 	 -112.956
| 16> C 	 41.1824 	 -15.5174 	 -112.944
| 17> H 	 41.041 	 -16.0331 	 -112.004
| 18> H 	 41.0669 	 -14.3778 	 -112.875
| 19> C 	 40.0198 	 -16.0545 	 -113.854
| 20> H 	 40.1584 	 -17.1487 	 -113.706
| 21> H 	 39.0705 	 -15.7242 	 -113.496
| 22> H 	 40.0834 	 -15.8498 	 -114.894
| 23> S 	 45.512 	 -21.4135 	 -112.528
| 24> C 	 45.6943 	 -22.2098 	 -111.04
| 25> C 	 44.6932 	 -21.8776 	 -110.125
| 26> C 	 43.8972 	 -20.7675 	 -110.538
| 27> C 	 44.176 	 -20.4245 	 -111.891
| 28> H 	 44.7377 	 -22.3913 	 -109.151
| 29> C 	 43.0166 	 -19.9645 	 -109.589
| 30> H 	 42.3286 	 -19.352 	 -110.181
| 31> H 	 43.6183 	 -19.1771 	 -109.19
| 32> C 	 42.3248 	 -20.7915 	 -108.534
| 33> H 	 43.0611 	 -21.4248 	 -107.957
| 34> H 	 41.7568 	 -21.5387 	 -109.026
| 35> C 	 41.4858 	 -20.0339 	 -107.5
| 36> H 	 42.1831 	 -19.3352 	 -106.995
| 37> H 	 41.0815 	 -20.7758 	 -106.789
| 38> H 	 40.6636 	 -19.4041 	 -107.959
| 39> H 	 42.9525 	 -17.6876 	 -115.832
| 40> H 	 46.477 	 -22.9654 	 -110.751
| 41> *
| 42>
| 43>                          ****END OF INPUT****

CARTESIAN COORDINATES (ANGSTROEM)
---------------------------------
  S     43.596900  -19.561800  -114.468000
  C     43.053500  -18.012100  -114.790000
  C     42.986500  -17.269200  -113.616000
  C     43.432500  -18.032300  -112.475000
  C     43.654400  -19.368400  -112.753000
  H     43.541300  -17.737600  -111.474000
  C     42.515900  -15.847800  -113.524000
  H     42.670700  -15.496300  -114.452000
  H     43.290300  -15.363600  -112.956000
  C     41.182400  -15.517400  -112.944000
  H     41.041000  -16.033100  -112.004000
  H     41.066900  -14.377800  -112.875000
  C     40.019800  -16.054500  -113.854000
  H     40.158400  -17.148700  -113.706000
  H     39.070500  -15.724200  -113.496000
  H     40.083400  -15.849800  -114.894000
  S     45.512000  -21.413500  -112.528000
  C     45.694300  -22.209800  -111.040000
  C     44.693200  -21.877600  -110.125000
  C     43.897200  -20.767500  -110.538000
  C     44.176000  -20.424500  -111.891000
  H     44.737700  -22.391300  -109.151000
  C     43.016600  -19.964500  -109.589000
  H     42.328600  -19.352000  -110.181000
  H     43.618300  -19.177100  -109.190000
  C     42.324800  -20.791500  -108.534000
  H     43.061100  -21.424800  -107.957000
  H     41.756800  -21.538700  -109.026000
  C     41.485800  -20.033900  -107.500000
  H     42.183100  -19.335200  -106.995000
  H     41.081500  -20.775800  -106.789000
  H     40.663600  -19.404100  -107.959000
  H     42.952500  -17.687600  -115.832000
  H     46.477000  -22.965400  -110.751000

 Total Charge           Charge          ....    0
 Multiplicity           Mult            ....    1
 Number of Electrons    NEL             ....  134
 Basis Dimension        Dim             ....  322

ORBITAL ENERGIES
----------------

  NO   OCC          E(Eh)            E(eV)
   0   2.0000     -88.969356     -2420.9793
   1   2.0000     -88.961050     -2420.7532
   2   2.0000     -10.331289      -281.1287
   3   2.0000     -10.327017      -281.0124
   4   2.0000     -10.319572      -280.8098
   5   2.0000     -10.311685      -280.5952
   6   2.0000     -10.311561      -280.5918
   7   2.0000     -10.301796      -280.3261
   8   2.0000     -10.295986      -280.1680
   9   2.0000     -10.292743      -280.0798
  10   2.0000     -10.290932      -280.0305
  11   2.0000     -10.290510      -280.0190
  12   2.0000     -10.288651      -279.9684
  13   2.0000     -10.287386      -279.9340
  14   2.0000     -10.274986      -279.5966
  15   2.0000     -10.270814      -279.4831
  16   2.0000      -8.084263      -219.9840
  17   2.0000      -8.077948      -219.8122
  18   2.0000      -6.042684      -164.4298
  19   2.0000      -6.038682      -164.3209
  20   2.0000      -6.036214      -164.2537
  21   2.0000      -6.035163      -164.2251
  22   2.0000      -6.032018      -164.1396
  23   2.0000      -6.028970      -164.0566
  24   2.0000      -1.012779       -27.5591
  25   2.0000      -0.989137       -26.9158
  26   2.0000      -0.917686       -24.9715
  27   2.0000      -0.914454       -24.8836
  28   2.0000      -0.870938       -23.6994
  29   2.0000      -0.853725       -23.2310
  30   2.0000      -0.845356       -23.0033
  31   2.0000      -0.814852       -22.1733
  32   2.0000      -0.787389       -21.4259
  33   2.0000      -0.773220       -21.0404
  34   2.0000      -0.709619       -19.3097
  35   2.0000      -0.701872       -19.0989
  36   2.0000      -0.690274       -18.7833
  37   2.0000      -0.657164       -17.8823
  38   2.0000      -0.641117       -17.4457
  39   2.0000      -0.624595       -16.9961
  40   2.0000      -0.598279       -16.2800
  41   2.0000      -0.570345       -15.5199
  42   2.0000      -0.563437       -15.3319
  43   2.0000      -0.550733       -14.9862
  44   2.0000      -0.540994       -14.7212
  45   2.0000      -0.534613       -14.5476
  46   2.0000      -0.522622       -14.2213
  47   2.0000      -0.514883       -14.0107
  48   2.0000      -0.506254       -13.7759
  49   2.0000      -0.495586       -13.4856
  50   2.0000      -0.487228       -13.2581
  51   2.0000      -0.482883       -13.1399
  52   2.0000      -0.476004       -12.9527
  53   2.0000      -0.468286       -12.7427
  54   2.0000      -0.461042       -12.5456
  55   2.0000      -0.452747       -12.3199
  56   2.0000      -0.447631       -12.1807
  57   2.0000      -0.441031       -12.0011
  58   2.0000      -0.435511       -11.8509
  59   2.0000      -0.426797       -11.6137
  60   2.0000      -0.420814       -11.4509
  61   2.0000      -0.415381       -11.3031
  62   2.0000      -0.402206       -10.9446
  63   2.0000      -0.355676        -9.6784
  64   2.0000      -0.332621        -9.0511
  65   2.0000      -0.325595        -8.8599
  66   2.0000      -0.285025        -7.7559
  67   0.0000       0.027930         0.7600
  68   0.0000       0.074624         2.0306
  69   0.0000       0.115839         3.1521
  70   0.0000       0.121745         3.3128
  71   0.0000       0.126798         3.4504

MULLIKEN ATOMIC CHARGES
-----------------------
   0 S :    0.100883
   1 C :   -0.121958
   2 C :   -0.144157
   3 C :    0.035933
   4 C :   -0.150129
   5 H :   -0.012979
   6 C :    0.163318
   7 H :   -0.026746
   8 H :    0.016046
   9 C :   -0.068158
  10 H :    0.029574
  11 H :    0.044113
  12 C :   -0.057529
  13 H :    0.043572
  14 H :    0.028722
  15 H :    0.022283
  16 S :    0.124306
  17 C :   -0.109839
  18 C :   -0.071126
  19 C :   -0.035068
  20 C :   -0.150436
  21 H :    0.030260
  22 C :    0.097583
  23 H :    0.016835
  24 H :    0.029554
  25 C :   -0.102692
  26 H :    0.031422
  27 H :    0.023285
  28 C :   -0.047716
  29 H :    0.032487
  30 H :    0.046410
  31 H :    0.043482
  32 H :    0.063113
  33 H :    0.075353
Sum of atomic charges:    0.0000000

LOEWDIN ATOMIC CHARGES
----------------------
   0 S :    0.440998
   1 C :   -0.223871
   2 C :   -0.062666
   3 C :   -0.064555
   4 C :   -0.200570
   5 H :    0.020029
   6 C :   -0.032015
   7 H :    0.013627
   8 H :    0.034418
   9 C :   -0.034749
  10 H :    0.023937
  11 H :    0.031911
  12 C :   -0.063725
  13 H :    0.033039
  14 H :    0.019333
  15 H :    0.015721
  16 S :    0.422107
  17 C :   -0.210524
  18 C :   -0.084748
  19 C :   -0.044363
  20 C :   -0.197578
  21 H :    0.034925
  22 C :   -0.033478
  23 H :    0.031093
  24 H :    0.029545
  25 C :   -0.046868
  26 H :    0.028344
  27 H :    0.020288
  28 C :   -0.067088
  29 H :    0.026628
  30 H :    0.032162
  31 H :    0.030278
  32 H :    0.034570
  33 H :    0.043846

  Mayer bond orders larger than 0.100000
B(  0-S ,  1-C ) :   1.1727 B(  0-S ,  4-C ) :   1.1701 B(  1-C ,  2-C ) :   1.5573
B(  1-C , 32-H ) :   0.9714 B(  2-C ,  3-C ) :   1.2527 B(  2-C ,  6-C ) :   1.0207
B(  3-C ,  4-C ) :   1.5371 B(  3-C ,  5-H ) :   1.0038 B(  4-C , 20-C ) :   1.0610
B(  6-C ,  7-H ) :   0.9234 B(  6-C ,  8-H ) :   0.9237 B(  6-C ,  9-C ) :   1.0750
B(  9-C , 10-H ) :   0.9584 B(  9-C , 11-H ) :   0.9533 B(  9-C , 12-C ) :   1.0640
B( 12-C , 13-H ) :   0.9790 B( 12-C , 14-H ) :   0.9765 B( 12-C , 15-H ) :   0.9794
B( 16-S , 17-C ) :   1.1781 B( 16-S , 20-C ) :   1.1431 B( 17-C , 18-C ) :   1.6015
B( 17-C , 20-C ) :   0.1032 B( 17-C , 33-H ) :   0.9560 B( 18-C , 19-C ) :   1.2515
B( 18-C , 21-H ) :   0.9839 B( 19-C , 20-C ) :   1.5629 B( 19-C , 22-C ) :   1.0433
B( 22-C , 23-H ) :   0.9205 B( 22-C , 24-H ) :   0.9266 B( 22-C , 25-C ) :   1.0618
B( 25-C , 26-H ) :   0.9464 B( 25-C , 27-H ) :   0.9579 B( 25-C , 28-C ) :   1.0855
B( 28-C , 29-H ) :   0.9739 B( 28-C , 30-H ) :   0.9729 B( 28-C , 31-H ) :   0.9742

Dispersion correction           -0.013814232
FINAL SINGLE POINT ENERGY     -1339.873130560533

DIPOLE MOMENT
-------------
                                X             Y             Z
Electronic contribution:     19.20632     -15.20484     -16.34054
Nuclear contribution   :    -19.27088      15.52783      16.84405
                        -----------------------------------------
Total Dipole Moment    :     -0.06456       0.32300       0.50351
                        -----------------------------------------
Magnitude (a.u.)       :      0.60168
Magnitude (Debye)      :      1.52935

Rotational constants in cm-1:     0.017058     0.009071     0.006281
Rotational constants in MHz :   511.383007   271.944255   188.303238

                             ****ORCA TERMINATED NORMALLY****
TOTAL RUN TIME: 0 days 0 hours 0 minutes 21 seconds 240 msec
