                         Program Version 4.2.1 -  RELEASE  -
|  1> ! wB97X-D3 SP def2-SVP
|  2> %pal
|  3> nprocs 24
|  4> end
|  5>
|  6> * xyz 0 1
|  7> S 	 -127.26 	 61.1298 	 -50.6139
|  8> C 	 -128.441 	 60.7277 	 -51.8378
|  9> C 	 -127.869 	 60.4745 	 -53.0884
| 10> C 	 -126.562 	 61.0071 	 -53.0292
| 11> C 	 -126.02 	 61.1998 	 -51.8344
| 12> H 	 -125.853 	 61.0791 	 -53.8177
| 13> C 	 -128.59 	 60.1273 	 -54.3575
| 14> H 	 -129.173 	 59.2238 	 -54.0969
| 15> H 	 -127.764 	 59.8464 	 -55.0442
| 16> C 	 -129.49 	 61.2061 	 -55.0516
| 17> H 	 -130.218 	 61.4281 	 -54.3077
| 18> H 	 -129.012 	 62.1536 	 -55.2194
| 19> C 	 -130.247 	 60.6727 	 -56.302
| 20> H 	 -130.957 	 59.9564 	 -55.8918
| 21> H 	 -130.815 	 61.5214 	 -56.764
| 22> H 	 -129.625 	 60.0331 	 -57.0167
| 23> S 	 -124.45 	 62.9977 	 -50.477
| 24> C 	 -122.768 	 63.1287 	 -50.8306
| 25> C 	 -122.439 	 62.215 	 -51.7618
| 26> C 	 -123.46 	 61.332 	 -52.1717
| 27> C 	 -124.638 	 61.5816 	 -51.4928
| 28> H 	 -121.404 	 62.0994 	 -52.1009
| 29> C 	 -123.263 	 60.3459 	 -53.3017
| 30> H 	 -123.319 	 60.9067 	 -54.2173
| 31> H 	 -124.151 	 59.7267 	 -53.2937
| 32> C 	 -121.961 	 59.5803 	 -53.2801
| 33> H 	 -121.112 	 60.2919 	 -53.3532
| 34> H 	 -121.878 	 58.9272 	 -54.1591
| 35> C 	 -121.777 	 58.7292 	 -52.0909
| 36> H 	 -122.571 	 58.0225 	 -52.1502
| 37> H 	 -121.831 	 59.2698 	 -51.2014
| 38> H 	 -120.863 	 58.1853 	 -52.2369
| 39> H 	 -129.474 	 60.5967 	 -51.6191
| 40> H 	 -121.989 	 63.7645 	 -50.3007
| 41> *
| 42>
| 43>                          ****END OF INPUT****

CARTESIAN COORDINATES (ANGSTROEM)
---------------------------------
  S    -127.260000   61.129800  -50.613900
  C    -128.441000   60.727700  -51.837800
  C    -127.869000   60.474500  -53.088400
  C    -126.562000   61.007100  -53.029200
  C    -126.020000   61.199800  -51.834400
  H    -125.853000   61.079100  -53.817700
  C    -128.590000   60.127300  -54.357500
  H    -129.173000   59.223800  -54.096900
  H    -127.764000   59.846400  -55.044200
  C    -129.490000   61.206100  -55.051600
  H    -130.218000   61.428100  -54.307700
  H    -129.012000   62.153600  -55.219400
  C    -130.247000   60.672700  -56.302000
  H    -130.957000   59.956400  -55.891800
  H    -130.815000   61.521400  -56.764000
  H    -129.625000   60.033100  -57.016700
  S    -124.450000   62.997700  -50.477000
  C    -122.768000   63.128700  -50.830600
  C    -122.439000   62.215000  -51.761800
  C    -123.460000   61.332000  -52.171700
  C    -124.638000   61.581600  -51.492800
  H    -121.404000   62.099400  -52.100900
  C    -123.263000   60.345900  -53.301700
  H    -123.319000   60.906700  -54.217300
  H    -124.151000   59.726700  -53.293700
  C    -121.961000   59.580300  -53.280100
  H    -121.112000   60.291900  -53.353200
  H    -121.878000   58.927200  -54.159100
  C    -121.777000   58.729200  -52.090900
  H    -122.571000   58.022500  -52.150200
  H    -121.831000   59.269800  -51.201400
  H    -120.863000   58.185300  -52.236900
  H    -129.474000   60.596700  -51.619100
  H    -121.989000   63.764500  -50.300700

 Total Charge           Charge          ....    0
 Multiplicity           Mult            ....    1
 Number of Electrons    NEL             ....  134
 Basis Dimension        Dim             ....  322

ORBITAL ENERGIES
----------------

  NO   OCC          E(Eh)            E(eV)
   0   2.0000     -88.962714     -2420.7985
   1   2.0000     -88.962203     -2420.7846
   2   2.0000     -10.324888      -280.9545
   3   2.0000     -10.320260      -280.8285
   4   2.0000     -10.317859      -280.7632
   5   2.0000     -10.313692      -280.6498
   6   2.0000     -10.300784      -280.2986
   7   2.0000     -10.299735      -280.2700
   8   2.0000     -10.299290      -280.2579
   9   2.0000     -10.290985      -280.0319
  10   2.0000     -10.288572      -279.9663
  11   2.0000     -10.287475      -279.9364
  12   2.0000     -10.286882      -279.9203
  13   2.0000     -10.282874      -279.8112
  14   2.0000     -10.282529      -279.8018
  15   2.0000     -10.260646      -279.2064
  16   2.0000      -8.077977      -219.8129
  17   2.0000      -8.077598      -219.8026
  18   2.0000      -6.036418      -164.2593
  19   2.0000      -6.036135      -164.2516
  20   2.0000      -6.032465      -164.1517
  21   2.0000      -6.031981      -164.1386
  22   2.0000      -6.028740      -164.0504
  23   2.0000      -6.028290      -164.0381
  24   2.0000      -1.014554       -27.6074
  25   2.0000      -0.992612       -27.0104
  26   2.0000      -0.921593       -25.0778
  27   2.0000      -0.909381       -24.7455
  28   2.0000      -0.871231       -23.7074
  29   2.0000      -0.857814       -23.3423
  30   2.0000      -0.847766       -23.0689
  31   2.0000      -0.818923       -22.2840
  32   2.0000      -0.787385       -21.4258
  33   2.0000      -0.772729       -21.0270
  34   2.0000      -0.707395       -19.2492
  35   2.0000      -0.701204       -19.0807
  36   2.0000      -0.694502       -18.8984
  37   2.0000      -0.656453       -17.8630
  38   2.0000      -0.645940       -17.5769
  39   2.0000      -0.620675       -16.8894
  40   2.0000      -0.599138       -16.3034
  41   2.0000      -0.567150       -15.4329
  42   2.0000      -0.561903       -15.2901
  43   2.0000      -0.558461       -15.1965
  44   2.0000      -0.551790       -15.0150
  45   2.0000      -0.529683       -14.4134
  46   2.0000      -0.519569       -14.1382
  47   2.0000      -0.511818       -13.9273
  48   2.0000      -0.505338       -13.7510
  49   2.0000      -0.502756       -13.6807
  50   2.0000      -0.493378       -13.4255
  51   2.0000      -0.475147       -12.9294
  52   2.0000      -0.472156       -12.8480
  53   2.0000      -0.463271       -12.6062
  54   2.0000      -0.456737       -12.4284
  55   2.0000      -0.449425       -12.2295
  56   2.0000      -0.444426       -12.0934
  57   2.0000      -0.442897       -12.0518
  58   2.0000      -0.436831       -11.8868
  59   2.0000      -0.426930       -11.6173
  60   2.0000      -0.420681       -11.4473
  61   2.0000      -0.417511       -11.3610
  62   2.0000      -0.412745       -11.2314
  63   2.0000      -0.351672        -9.5695
  64   2.0000      -0.332036        -9.0351
  65   2.0000      -0.328800        -8.9471
  66   2.0000      -0.293527        -7.9873
  67   0.0000       0.030405         0.8274
  68   0.0000       0.076955         2.0941
  69   0.0000       0.109699         2.9851
  70   0.0000       0.121566         3.3080
  71   0.0000       0.137896         3.7524

MULLIKEN ATOMIC CHARGES
-----------------------
   0 S :    0.104607
   1 C :   -0.111767
   2 C :   -0.084353
   3 C :    0.022304
   4 C :   -0.153445
   5 H :   -0.013014
   6 C :    0.033997
   7 H :    0.036937
   8 H :    0.027377
   9 C :   -0.037371
  10 H :    0.013623
  11 H :    0.029870
  12 C :   -0.074290
  13 H :    0.027218
  14 H :    0.054985
  15 H :    0.046954
  16 S :    0.095960
  17 C :   -0.098170
  18 C :   -0.050295
  19 C :   -0.096049
  20 C :   -0.105001
  21 H :    0.018320
  22 C :    0.092364
  23 H :    0.039631
  24 H :    0.022090
  25 C :   -0.098685
  26 H :    0.023106
  27 H :    0.023877
  28 C :    0.019351
  29 H :    0.012822
  30 H :    0.031383
  31 H :    0.026266
  32 H :    0.038349
  33 H :    0.081048
Sum of atomic charges:    0.0000000

LOEWDIN ATOMIC CHARGES
----------------------
   0 S :    0.401096
   1 C :   -0.180512
   2 C :   -0.065788
   3 C :   -0.064103
   4 C :   -0.196379
   5 H :    0.024226
   6 C :   -0.035739
   7 H :    0.036685
   8 H :    0.032411
   9 C :   -0.036192
  10 H :    0.020148
  11 H :    0.021977
  12 C :   -0.073645
  13 H :    0.024080
  14 H :    0.035860
  15 H :    0.032613
  16 S :    0.411906
  17 C :   -0.199667
  18 C :   -0.082698
  19 C :   -0.058239
  20 C :   -0.198432
  21 H :    0.030839
  22 C :   -0.031751
  23 H :    0.033687
  24 H :    0.028089
  25 C :   -0.043004
  26 H :    0.019715
  27 H :    0.026858
  28 C :   -0.050616
  29 H :    0.023277
  30 H :    0.018412
  31 H :    0.027092
  32 H :    0.017936
  33 H :    0.049858

  Mayer bond orders larger than 0.100000
B(  0-S ,  1-C ) :   1.1595 B(  0-S ,  4-C ) :   1.1264 B(  1-C ,  2-C ) :   1.5840
B(  1-C , 32-H ) :   0.9739 B(  2-C ,  3-C ) :   1.2222 B(  2-C ,  6-C ) :   1.0419
B(  3-C ,  4-C ) :   1.6378 B(  3-C ,  5-H ) :   0.9804 B(  4-C , 20-C ) :   0.9985
B(  6-C ,  7-H ) :   0.9356 B(  6-C ,  8-H ) :   0.9366 B(  6-C ,  9-C ) :   1.0571
B(  9-C , 10-H ) :   0.9533 B(  9-C , 11-H ) :   0.9607 B(  9-C , 12-C ) :   1.0667
B( 12-C , 13-H ) :   0.9762 B( 12-C , 14-H ) :   0.9731 B( 12-C , 15-H ) :   0.9776
B( 16-S , 17-C ) :   1.1550 B( 16-S , 20-C ) :   1.1471 B( 17-C , 18-C ) :   1.6099
B( 17-C , 33-H ) :   0.9550 B( 18-C , 19-C ) :   1.2560 B( 18-C , 21-H ) :   0.9845
B( 19-C , 20-C ) :   1.5994 B( 19-C , 22-C ) :   1.0312 B( 22-C , 23-H ) :   0.9236
B( 22-C , 24-H ) :   0.9303 B( 22-C , 25-C ) :   1.0790 B( 25-C , 26-H ) :   0.9477
B( 25-C , 27-H ) :   0.9505 B( 25-C , 28-C ) :   1.0885 B( 28-C , 29-H ) :   0.9702
B( 28-C , 30-H ) :   0.9721 B( 28-C , 31-H ) :   0.9695

Dispersion correction           -0.013810410
FINAL SINGLE POINT ENERGY     -1339.872292316324

DIPOLE MOMENT
-------------
                                X             Y             Z
Electronic contribution:      0.75384      12.64502      22.45115
Nuclear contribution   :     -0.64505     -12.84215     -23.11971
                        -----------------------------------------
Total Dipole Moment    :      0.10879      -0.19713      -0.66856
                        -----------------------------------------
Magnitude (a.u.)       :      0.70546
Magnitude (Debye)      :      1.79314

Rotational constants in cm-1:     0.020216     0.007616     0.006352
Rotational constants in MHz :   606.063330   228.314804   190.419524

                             ****ORCA TERMINATED NORMALLY****
TOTAL RUN TIME: 0 days 0 hours 0 minutes 21 seconds 504 msec
