                         Program Version 4.2.1 -  RELEASE  -
|  1> ! wB97X-D3 SP def2-SVP
|  2> %pal
|  3> nprocs 24
|  4> end
|  5>
|  6> * xyz 0 1
|  7> S 	 -102.57 	 60.9312 	 -95.9619
|  8> C 	 -104.013 	 60.3896 	 -96.8077
|  9> C 	 -103.614 	 59.6734 	 -97.9063
| 10> C 	 -102.204 	 59.6284 	 -98.1138
| 11> C 	 -101.474 	 60.1643 	 -97.0803
| 12> H 	 -101.753 	 59.1355 	 -98.8873
| 13> C 	 -104.56 	 59.1348 	 -98.944
| 14> H 	 -105.365 	 58.6697 	 -98.2986
| 15> H 	 -104.096 	 58.2324 	 -99.3452
| 16> C 	 -105.037 	 60.18 	 -99.995
| 17> H 	 -105.532 	 60.9657 	 -99.516
| 18> H 	 -104.192 	 60.6206 	 -100.455
| 19> C 	 -105.949 	 59.5802 	 -100.995
| 20> H 	 -105.449 	 58.7342 	 -101.564
| 21> H 	 -106.797 	 59.136 	 -100.48
| 22> H 	 -106.386 	 60.3596 	 -101.664
| 23> S 	 -99.2773 	 61.349 	 -98.2198
| 24> C 	 -97.7206 	 60.7634 	 -97.7593
| 25> C 	 -97.7454 	 59.7736 	 -96.8383
| 26> C 	 -99.0376 	 59.5057 	 -96.3548
| 27> C 	 -100.03 	 60.2753 	 -97.0238
| 28> H 	 -96.8392 	 59.3666 	 -96.6315
| 29> C 	 -99.2205 	 58.2486 	 -95.4595
| 30> H 	 -100.204 	 57.8466 	 -95.6149
| 31> H 	 -99.2405 	 58.6994 	 -94.4875
| 32> C 	 -98.0218 	 57.1923 	 -95.5058
| 33> H 	 -98.1155 	 56.4622 	 -94.6891
| 34> H 	 -97.1028 	 57.6966 	 -95.3942
| 35> C 	 -97.8318 	 56.4229 	 -96.8562
| 36> H 	 -96.9468 	 55.7476 	 -96.8452
| 37> H 	 -97.5237 	 57.1247 	 -97.6434
| 38> H 	 -98.7079 	 55.8241 	 -97.0402
| 39> H 	 -105.052 	 60.6732 	 -96.5593
| 40> H 	 -96.7922 	 61.1557 	 -98.1579
| 41> *
| 42>
| 43>                          ****END OF INPUT****

CARTESIAN COORDINATES (ANGSTROEM)
---------------------------------
  S    -102.570000   60.931200  -95.961900
  C    -104.013000   60.389600  -96.807700
  C    -103.614000   59.673400  -97.906300
  C    -102.204000   59.628400  -98.113800
  C    -101.474000   60.164300  -97.080300
  H    -101.753000   59.135500  -98.887300
  C    -104.560000   59.134800  -98.944000
  H    -105.365000   58.669700  -98.298600
  H    -104.096000   58.232400  -99.345200
  C    -105.037000   60.180000  -99.995000
  H    -105.532000   60.965700  -99.516000
  H    -104.192000   60.620600  -100.455000
  C    -105.949000   59.580200  -100.995000
  H    -105.449000   58.734200  -101.564000
  H    -106.797000   59.136000  -100.480000
  H    -106.386000   60.359600  -101.664000
  S    -99.277300   61.349000  -98.219800
  C    -97.720600   60.763400  -97.759300
  C    -97.745400   59.773600  -96.838300
  C    -99.037600   59.505700  -96.354800
  C    -100.030000   60.275300  -97.023800
  H    -96.839200   59.366600  -96.631500
  C    -99.220500   58.248600  -95.459500
  H    -100.204000   57.846600  -95.614900
  H    -99.240500   58.699400  -94.487500
  C    -98.021800   57.192300  -95.505800
  H    -98.115500   56.462200  -94.689100
  H    -97.102800   57.696600  -95.394200
  C    -97.831800   56.422900  -96.856200
  H    -96.946800   55.747600  -96.845200
  H    -97.523700   57.124700  -97.643400
  H    -98.707900   55.824100  -97.040200
  H    -105.052000   60.673200  -96.559300
  H    -96.792200   61.155700  -98.157900

 Total Charge           Charge          ....    0
 Multiplicity           Mult            ....    1
 Number of Electrons    NEL             ....  134
 Basis Dimension        Dim             ....  322

ORBITAL ENERGIES
----------------

  NO   OCC          E(Eh)            E(eV)
   0   2.0000     -88.965871     -2420.8844
   1   2.0000     -88.960995     -2420.7518
   2   2.0000     -10.327904      -281.0365
   3   2.0000     -10.324920      -280.9553
   4   2.0000     -10.313743      -280.6512
   5   2.0000     -10.311375      -280.5868
   6   2.0000     -10.308599      -280.5112
   7   2.0000     -10.294663      -280.1320
   8   2.0000     -10.293440      -280.0987
   9   2.0000     -10.292854      -280.0828
  10   2.0000     -10.291410      -280.0435
  11   2.0000     -10.283040      -279.8157
  12   2.0000     -10.280439      -279.7450
  13   2.0000     -10.279913      -279.7306
  14   2.0000     -10.279904      -279.7304
  15   2.0000     -10.277606      -279.6679
  16   2.0000      -8.080624      -219.8850
  17   2.0000      -8.075754      -219.7524
  18   2.0000      -6.038990      -164.3293
  19   2.0000      -6.035135      -164.2244
  20   2.0000      -6.034315      -164.2021
  21   2.0000      -6.031540      -164.1265
  22   2.0000      -6.030074      -164.0867
  23   2.0000      -6.026632      -163.9930
  24   2.0000      -1.005771       -27.3684
  25   2.0000      -0.985767       -26.8241
  26   2.0000      -0.913224       -24.8501
  27   2.0000      -0.900198       -24.4956
  28   2.0000      -0.873524       -23.7698
  29   2.0000      -0.850073       -23.1317
  30   2.0000      -0.845321       -23.0023
  31   2.0000      -0.817907       -22.2564
  32   2.0000      -0.782613       -21.2960
  33   2.0000      -0.765508       -20.8305
  34   2.0000      -0.708723       -19.2853
  35   2.0000      -0.704395       -19.1676
  36   2.0000      -0.696756       -18.9597
  37   2.0000      -0.657675       -17.8962
  38   2.0000      -0.643741       -17.5171
  39   2.0000      -0.618140       -16.8204
  40   2.0000      -0.598799       -16.2942
  41   2.0000      -0.573017       -15.5926
  42   2.0000      -0.560516       -15.2524
  43   2.0000      -0.547367       -14.8946
  44   2.0000      -0.537800       -14.6343
  45   2.0000      -0.531573       -14.4648
  46   2.0000      -0.522247       -14.2111
  47   2.0000      -0.512699       -13.9512
  48   2.0000      -0.510187       -13.8829
  49   2.0000      -0.497543       -13.5388
  50   2.0000      -0.487138       -13.2557
  51   2.0000      -0.474473       -12.9111
  52   2.0000      -0.470027       -12.7901
  53   2.0000      -0.464494       -12.6395
  54   2.0000      -0.456083       -12.4107
  55   2.0000      -0.447892       -12.1877
  56   2.0000      -0.445989       -12.1360
  57   2.0000      -0.436490       -11.8775
  58   2.0000      -0.431679       -11.7466
  59   2.0000      -0.427797       -11.6409
  60   2.0000      -0.418962       -11.4005
  61   2.0000      -0.416060       -11.3216
  62   2.0000      -0.412762       -11.2318
  63   2.0000      -0.336638        -9.1604
  64   2.0000      -0.330755        -9.0003
  65   2.0000      -0.323826        -8.8117
  66   2.0000      -0.301821        -8.2130
  67   0.0000       0.041606         1.1322
  68   0.0000       0.056920         1.5489
  69   0.0000       0.112166         3.0522
  70   0.0000       0.130240         3.5440
  71   0.0000       0.135209         3.6792

MULLIKEN ATOMIC CHARGES
-----------------------
   0 S :    0.102469
   1 C :   -0.134492
   2 C :   -0.100731
   3 C :    0.064484
   4 C :   -0.149914
   5 H :   -0.025058
   6 C :    0.023012
   7 H :    0.026841
   8 H :    0.015217
   9 C :    0.013920
  10 H :    0.007093
  11 H :    0.018210
  12 C :   -0.053586
  13 H :    0.038405
  14 H :    0.021225
  15 H :    0.042150
  16 S :    0.122350
  17 C :   -0.085523
  18 C :   -0.019773
  19 C :   -0.006260
  20 C :   -0.199861
  21 H :   -0.028206
  22 C :    0.113534
  23 H :    0.030515
  24 H :    0.033816
  25 C :   -0.079555
  26 H :    0.037590
  27 H :    0.020714
  28 C :   -0.066629
  29 H :    0.031497
  30 H :    0.037240
  31 H :    0.040718
  32 H :    0.060206
  33 H :    0.048382
Sum of atomic charges:    0.0000000

LOEWDIN ATOMIC CHARGES
----------------------
   0 S :    0.404473
   1 C :   -0.200301
   2 C :   -0.070799
   3 C :   -0.053362
   4 C :   -0.203765
   5 H :    0.015894
   6 C :   -0.036835
   7 H :    0.035595
   8 H :    0.026565
   9 C :   -0.031958
  10 H :    0.019052
  11 H :    0.022362
  12 C :   -0.069036
  13 H :    0.030689
  14 H :    0.022385
  15 H :    0.031151
  16 S :    0.414581
  17 C :   -0.181019
  18 C :   -0.072697
  19 C :   -0.039849
  20 C :   -0.205121
  21 H :    0.015354
  22 C :   -0.021944
  23 H :    0.028185
  24 H :    0.036698
  25 C :   -0.034203
  26 H :    0.028519
  27 H :    0.015157
  28 C :   -0.069214
  29 H :    0.029062
  30 H :    0.026827
  31 H :    0.022734
  32 H :    0.037373
  33 H :    0.027447

  Mayer bond orders larger than 0.100000
B(  0-S ,  1-C ) :   1.1381 B(  0-S ,  4-C ) :   1.1567 B(  1-C ,  2-C ) :   1.5969
B(  1-C , 32-H ) :   0.9703 B(  2-C ,  3-C ) :   1.2531 B(  2-C ,  6-C ) :   1.0260
B(  3-C ,  4-C ) :   1.5607 B(  3-C ,  5-H ) :   1.0133 B(  4-C , 20-C ) :   1.0249
B(  6-C ,  7-H ) :   0.9387 B(  6-C ,  8-H ) :   0.9412 B(  6-C ,  9-C ) :   1.0519
B(  9-C , 10-H ) :   0.9490 B(  9-C , 11-H ) :   0.9515 B(  9-C , 12-C ) :   1.0947
B( 12-C , 13-H ) :   0.9735 B( 12-C , 14-H ) :   0.9713 B( 12-C , 15-H ) :   0.9711
B( 16-S , 17-C ) :   1.1685 B( 16-S , 20-C ) :   1.1507 B( 17-C , 18-C ) :   1.6183
B( 17-C , 20-C ) :   0.1000 B( 17-C , 33-H ) :   0.9590 B( 18-C , 19-C ) :   1.2458
B( 18-C , 21-H ) :   1.0040 B( 19-C , 20-C ) :   1.5727 B( 19-C , 22-C ) :   1.0074
B( 22-C , 23-H ) :   0.9448 B( 22-C , 24-H ) :   0.9229 B( 22-C , 25-C ) :   1.0740
B( 25-C , 26-H ) :   0.9577 B( 25-C , 27-H ) :   0.9497 B( 25-C , 28-C ) :   1.0767
B( 28-C , 29-H ) :   0.9737 B( 28-C , 30-H ) :   0.9726 B( 28-C , 31-H ) :   0.9789

Dispersion correction           -0.013991602
FINAL SINGLE POINT ENERGY     -1339.866596386280

DIPOLE MOMENT
-------------
                                X             Y             Z
Electronic contribution:      5.49642      17.72632       8.26125
Nuclear contribution   :     -5.39459     -18.15801      -8.47170
                        -----------------------------------------
Total Dipole Moment    :      0.10183      -0.43169      -0.21045
                        -----------------------------------------
Magnitude (a.u.)       :      0.49094
Magnitude (Debye)      :      1.24786

Rotational constants in cm-1:     0.021594     0.006846     0.006621
Rotational constants in MHz :   647.375466   205.224482   198.478574

                             ****ORCA TERMINATED NORMALLY****
TOTAL RUN TIME: 0 days 0 hours 0 minutes 20 seconds 970 msec
