                         Program Version 4.2.1 -  RELEASE  -
|  1> ! wB97X-D3 SP def2-SVP
|  2> %pal
|  3> nprocs 24
|  4> end
|  5>
|  6> * xyz 0 1
|  7> S 	 -49.4239 	 22.6572 	 30.0034
|  8> C 	 -49.5439 	 21.6934 	 28.5414
|  9> C 	 -50.37 	 20.5797 	 28.7397
| 10> C 	 -51.059 	 20.539 	 29.9957
| 11> C 	 -50.6659 	 21.6028 	 30.8178
| 12> H 	 -51.7988 	 19.8844 	 30.3316
| 13> C 	 -50.6478 	 19.6225 	 27.6548
| 14> H 	 -50.6541 	 18.6469 	 28.2241
| 15> H 	 -49.76 	 19.5075 	 27.022
| 16> C 	 -51.8695 	 19.8602 	 26.7866
| 17> H 	 -51.8888 	 20.8849 	 26.3479
| 18> H 	 -51.9568 	 19.17 	 25.8628
| 19> C 	 -53.2436 	 19.6549 	 27.4705
| 20> H 	 -53.2854 	 18.7496 	 28.1021
| 21> H 	 -53.5866 	 20.513 	 28.0592
| 22> H 	 -53.895 	 19.6764 	 26.5873
| 23> S 	 -49.8097 	 22.0726 	 33.3863
| 24> C 	 -50.9675 	 22.3347 	 34.6275
| 25> C 	 -52.2379 	 22.1134 	 34.1648
| 26> C 	 -52.3586 	 21.8563 	 32.7494
| 27> C 	 -51.1171 	 21.847 	 32.1551
| 28> H 	 -53.0963 	 22.1358 	 34.8481
| 29> C 	 -53.6453 	 21.4819 	 32.0679
| 30> H 	 -53.4402 	 20.4377 	 31.7349
| 31> H 	 -53.8019 	 22.0943 	 31.228
| 32> C 	 -54.9824 	 21.5898 	 32.883
| 33> H 	 -55.207 	 22.6415 	 33.3086
| 34> H 	 -55.0121 	 20.9705 	 33.7053
| 35> C 	 -56.1416 	 21.163 	 31.9531
| 36> H 	 -57.094 	 21.4612 	 32.3674
| 37> H 	 -56.114 	 20.0613 	 31.7827
| 38> H 	 -56.0811 	 21.6236 	 30.965
| 39> H 	 -48.8484 	 21.5155 	 27.8016
| 40> H 	 -50.8206 	 22.6231 	 35.6472
| 41> *
| 42>
| 43>                          ****END OF INPUT****

CARTESIAN COORDINATES (ANGSTROEM)
---------------------------------
  S    -49.423900   22.657200   30.003400
  C    -49.543900   21.693400   28.541400
  C    -50.370000   20.579700   28.739700
  C    -51.059000   20.539000   29.995700
  C    -50.665900   21.602800   30.817800
  H    -51.798800   19.884400   30.331600
  C    -50.647800   19.622500   27.654800
  H    -50.654100   18.646900   28.224100
  H    -49.760000   19.507500   27.022000
  C    -51.869500   19.860200   26.786600
  H    -51.888800   20.884900   26.347900
  H    -51.956800   19.170000   25.862800
  C    -53.243600   19.654900   27.470500
  H    -53.285400   18.749600   28.102100
  H    -53.586600   20.513000   28.059200
  H    -53.895000   19.676400   26.587300
  S    -49.809700   22.072600   33.386300
  C    -50.967500   22.334700   34.627500
  C    -52.237900   22.113400   34.164800
  C    -52.358600   21.856300   32.749400
  C    -51.117100   21.847000   32.155100
  H    -53.096300   22.135800   34.848100
  C    -53.645300   21.481900   32.067900
  H    -53.440200   20.437700   31.734900
  H    -53.801900   22.094300   31.228000
  C    -54.982400   21.589800   32.883000
  H    -55.207000   22.641500   33.308600
  H    -55.012100   20.970500   33.705300
  C    -56.141600   21.163000   31.953100
  H    -57.094000   21.461200   32.367400
  H    -56.114000   20.061300   31.782700
  H    -56.081100   21.623600   30.965000
  H    -48.848400   21.515500   27.801600
  H    -50.820600   22.623100   35.647200

 Total Charge           Charge          ....    0
 Multiplicity           Mult            ....    1
 Number of Electrons    NEL             ....  134
 Basis Dimension        Dim             ....  322

ORBITAL ENERGIES
----------------

  NO   OCC          E(Eh)            E(eV)
   0   2.0000     -88.968711     -2420.9617
   1   2.0000     -88.963475     -2420.8192
   2   2.0000     -10.335439      -281.2416
   3   2.0000     -10.324992      -280.9573
   4   2.0000     -10.313810      -280.6530
   5   2.0000     -10.306545      -280.4554
   6   2.0000     -10.305493      -280.4267
   7   2.0000     -10.299876      -280.2739
   8   2.0000     -10.298013      -280.2232
   9   2.0000     -10.297051      -280.1970
  10   2.0000     -10.295537      -280.1558
  11   2.0000     -10.295015      -280.1416
  12   2.0000     -10.292444      -280.0716
  13   2.0000     -10.291834      -280.0551
  14   2.0000     -10.283031      -279.8155
  15   2.0000     -10.281163      -279.7647
  16   2.0000      -8.081888      -219.9194
  17   2.0000      -8.078064      -219.8153
  18   2.0000      -6.040541      -164.3715
  19   2.0000      -6.036695      -164.2668
  20   2.0000      -6.036612      -164.2646
  21   2.0000      -6.032597      -164.1553
  22   2.0000      -6.032569      -164.1545
  23   2.0000      -6.028681      -164.0488
  24   2.0000      -1.002155       -27.2700
  25   2.0000      -0.979091       -26.6424
  26   2.0000      -0.911182       -24.7945
  27   2.0000      -0.911074       -24.7916
  28   2.0000      -0.872589       -23.7443
  29   2.0000      -0.853010       -23.2116
  30   2.0000      -0.845403       -23.0046
  31   2.0000      -0.817133       -22.2353
  32   2.0000      -0.783260       -21.3136
  33   2.0000      -0.769354       -20.9352
  34   2.0000      -0.713005       -19.4019
  35   2.0000      -0.707738       -19.2585
  36   2.0000      -0.695486       -18.9251
  37   2.0000      -0.653727       -17.7888
  38   2.0000      -0.641432       -17.4542
  39   2.0000      -0.614838       -16.7306
  40   2.0000      -0.598946       -16.2981
  41   2.0000      -0.573004       -15.5922
  42   2.0000      -0.566196       -15.4070
  43   2.0000      -0.552134       -15.0243
  44   2.0000      -0.541465       -14.7340
  45   2.0000      -0.529505       -14.4086
  46   2.0000      -0.517631       -14.0855
  47   2.0000      -0.511948       -13.9308
  48   2.0000      -0.509013       -13.8509
  49   2.0000      -0.500896       -13.6301
  50   2.0000      -0.481804       -13.1106
  51   2.0000      -0.478460       -13.0196
  52   2.0000      -0.471301       -12.8248
  53   2.0000      -0.468877       -12.7588
  54   2.0000      -0.456593       -12.4245
  55   2.0000      -0.452720       -12.3191
  56   2.0000      -0.443736       -12.0747
  57   2.0000      -0.437692       -11.9102
  58   2.0000      -0.434512       -11.8237
  59   2.0000      -0.430482       -11.7140
  60   2.0000      -0.420460       -11.4413
  61   2.0000      -0.415715       -11.3122
  62   2.0000      -0.405059       -11.0222
  63   2.0000      -0.346595        -9.4313
  64   2.0000      -0.331545        -9.0218
  65   2.0000      -0.327239        -8.9046
  66   2.0000      -0.290490        -7.9046
  67   0.0000       0.019584         0.5329
  68   0.0000       0.067453         1.8355
  69   0.0000       0.108717         2.9583
  70   0.0000       0.116766         3.1774
  71   0.0000       0.123501         3.3606

MULLIKEN ATOMIC CHARGES
-----------------------
   0 S :    0.108807
   1 C :   -0.048029
   2 C :   -0.132063
   3 C :    0.054675
   4 C :   -0.147723
   5 H :   -0.014431
   6 C :    0.050411
   7 H :    0.030937
   8 H :    0.018203
   9 C :   -0.086072
  10 H :    0.035998
  11 H :    0.042432
  12 C :   -0.072375
  13 H :    0.040308
  14 H :    0.038154
  15 H :    0.034000
  16 S :    0.103016
  17 C :   -0.053448
  18 C :   -0.067885
  19 C :   -0.010096
  20 C :   -0.181634
  21 H :    0.019992
  22 C :    0.049358
  23 H :    0.050180
  24 H :    0.030796
  25 C :   -0.086954
  26 H :    0.047759
  27 H :    0.018719
  28 C :   -0.042920
  29 H :    0.031726
  30 H :    0.036830
  31 H :    0.027464
  32 H :    0.026975
  33 H :    0.046891
Sum of atomic charges:   -0.0000000

LOEWDIN ATOMIC CHARGES
----------------------
   0 S :    0.381172
   1 C :   -0.200896
   2 C :   -0.055383
   3 C :   -0.050443
   4 C :   -0.166192
   5 H :    0.021176
   6 C :   -0.048141
   7 H :    0.037128
   8 H :    0.030505
   9 C :   -0.046800
  10 H :    0.031262
  11 H :    0.033222
  12 C :   -0.073842
  13 H :    0.024420
  14 H :    0.023057
  15 H :    0.031175
  16 S :    0.393308
  17 C :   -0.189978
  18 C :   -0.078417
  19 C :   -0.050383
  20 C :   -0.187889
  21 H :    0.030622
  22 C :   -0.027935
  23 H :    0.040627
  24 H :    0.030050
  25 C :   -0.038015
  26 H :    0.035121
  27 H :    0.010077
  28 C :   -0.063162
  29 H :    0.024058
  30 H :    0.029238
  31 H :    0.023569
  32 H :    0.016945
  33 H :    0.030746

  Mayer bond orders larger than 0.100000
B(  0-S ,  1-C ) :   1.1218 B(  0-S ,  4-C ) :   1.1342 B(  1-C ,  2-C ) :   1.6217
B(  1-C ,  4-C ) :   0.1000 B(  1-C , 32-H ) :   0.9567 B(  2-C ,  3-C ) :   1.2271
B(  2-C ,  6-C ) :   1.0395 B(  3-C ,  4-C ) :   1.5578 B(  3-C ,  5-H ) :   1.0000
B(  4-C , 20-C ) :   1.0867 B(  6-C ,  7-H ) :   0.9396 B(  6-C ,  8-H ) :   0.9331
B(  6-C ,  9-C ) :   1.0661 B(  9-C , 10-H ) :   0.9494 B(  9-C , 11-H ) :   0.9622
B(  9-C , 12-C ) :   1.0731 B( 12-C , 13-H ) :   0.9752 B( 12-C , 14-H ) :   0.9732
B( 12-C , 15-H ) :   0.9753 B( 16-S , 17-C ) :   1.1483 B( 16-S , 20-C ) :   1.1211
B( 17-C , 18-C ) :   1.6180 B( 17-C , 33-H ) :   0.9634 B( 18-C , 19-C ) :   1.2401
B( 18-C , 21-H ) :   0.9801 B( 19-C , 20-C ) :   1.6093 B( 19-C , 22-C ) :   1.0274
B( 22-C , 23-H ) :   0.9325 B( 22-C , 24-H ) :   0.9277 B( 22-C , 25-C ) :   1.0777
B( 25-C , 26-H ) :   0.9564 B( 25-C , 27-H ) :   0.9478 B( 25-C , 28-C ) :   1.0832
B( 28-C , 29-H ) :   0.9735 B( 28-C , 30-H ) :   0.9747 B( 28-C , 31-H ) :   0.9756

Dispersion correction           -0.014304030
FINAL SINGLE POINT ENERGY     -1339.862689866595

DIPOLE MOMENT
-------------
                                X             Y             Z
Electronic contribution:     26.73911      11.80071      12.48868
Nuclear contribution   :    -27.42698     -12.22822     -12.54654
                        -----------------------------------------
Total Dipole Moment    :     -0.68787      -0.42751      -0.05786
                        -----------------------------------------
Magnitude (a.u.)       :      0.81196
Magnitude (Debye)      :      2.06384

Rotational constants in cm-1:     0.015876     0.010162     0.006584
Rotational constants in MHz :   475.942354   304.660631   197.378039

                             ****ORCA TERMINATED NORMALLY****
TOTAL RUN TIME: 0 days 0 hours 0 minutes 21 seconds 888 msec
