                         Program Version 4.2.1 -  RELEASE  -
|  1> ! wB97X-D3 SP def2-SVP
|  2> %pal
|  3> nprocs 24
|  4> end
|  5>
|  6> * xyz 0 1
|  7> S 	 -48.0377 	 2.85023 	 -17.5729
|  8> C 	 -48.4146 	 1.21116 	 -18.2538
|  9> C 	 -49.7566 	 0.891108 	 -18.1391
| 10> C 	 -50.487 	 1.97874 	 -17.565
| 11> C 	 -49.7409 	 3.0599 	 -17.1683
| 12> H 	 -51.5301 	 1.88845 	 -17.2515
| 13> C 	 -50.3628 	 -0.435779 	 -18.3956
| 14> H 	 -51.242 	 -0.462997 	 -17.7909
| 15> H 	 -49.5673 	 -1.12817 	 -18.0129
| 16> C 	 -50.8444 	 -0.717347 	 -19.8054
| 17> H 	 -51.5309 	 0.0949759 	 -20.0944
| 18> H 	 -49.9045 	 -0.638618 	 -20.3815
| 19> C 	 -51.6106 	 -2.05307 	 -19.8569
| 20> H 	 -51.784 	 -2.41076 	 -20.8689
| 21> H 	 -51.0835 	 -2.8959 	 -19.4476
| 22> H 	 -52.5628 	 -2.04597 	 -19.2631
| 23> S 	 -51.4798 	 5.08403 	 -16.9851
| 24> C 	 -51.2316 	 6.42607 	 -15.8883
| 25> C 	 -50.2976 	 6.11913 	 -14.9241
| 26> C 	 -49.7383 	 4.82156 	 -15.1394
| 27> C 	 -50.1977 	 4.20068 	 -16.3533
| 28> H 	 -50.0212 	 6.71652 	 -14.0657
| 29> C 	 -48.7646 	 4.17095 	 -14.2036
| 30> H 	 -47.7949 	 4.57462 	 -14.5044
| 31> H 	 -48.5715 	 3.1736 	 -14.3802
| 32> C 	 -49.0243 	 4.37151 	 -12.6625
| 33> H 	 -49.2469 	 5.44783 	 -12.5074
| 34> H 	 -48.1413 	 4.19339 	 -12.1345
| 35> C 	 -50.2699 	 3.64736 	 -12.1046
| 36> H 	 -51.2377 	 3.88624 	 -12.4955
| 37> H 	 -50.2945 	 3.76494 	 -11.0446
| 38> H 	 -50.1383 	 2.58911 	 -12.2304
| 39> H 	 -47.7237 	 0.416171 	 -18.6308
| 40> H 	 -51.7429 	 7.37057 	 -15.8958
| 41> *
| 42>
| 43>                          ****END OF INPUT****

CARTESIAN COORDINATES (ANGSTROEM)
---------------------------------
  S    -48.037700    2.850230  -17.572900
  C    -48.414600    1.211160  -18.253800
  C    -49.756600    0.891108  -18.139100
  C    -50.487000    1.978740  -17.565000
  C    -49.740900    3.059900  -17.168300
  H    -51.530100    1.888450  -17.251500
  C    -50.362800   -0.435779  -18.395600
  H    -51.242000   -0.462997  -17.790900
  H    -49.567300   -1.128170  -18.012900
  C    -50.844400   -0.717347  -19.805400
  H    -51.530900    0.094976  -20.094400
  H    -49.904500   -0.638618  -20.381500
  C    -51.610600   -2.053070  -19.856900
  H    -51.784000   -2.410760  -20.868900
  H    -51.083500   -2.895900  -19.447600
  H    -52.562800   -2.045970  -19.263100
  S    -51.479800    5.084030  -16.985100
  C    -51.231600    6.426070  -15.888300
  C    -50.297600    6.119130  -14.924100
  C    -49.738300    4.821560  -15.139400
  C    -50.197700    4.200680  -16.353300
  H    -50.021200    6.716520  -14.065700
  C    -48.764600    4.170950  -14.203600
  H    -47.794900    4.574620  -14.504400
  H    -48.571500    3.173600  -14.380200
  C    -49.024300    4.371510  -12.662500
  H    -49.246900    5.447830  -12.507400
  H    -48.141300    4.193390  -12.134500
  C    -50.269900    3.647360  -12.104600
  H    -51.237700    3.886240  -12.495500
  H    -50.294500    3.764940  -11.044600
  H    -50.138300    2.589110  -12.230400
  H    -47.723700    0.416171  -18.630800
  H    -51.742900    7.370570  -15.895800

 Total Charge           Charge          ....    0
 Multiplicity           Mult            ....    1
 Number of Electrons    NEL             ....  134
 Basis Dimension        Dim             ....  322

ORBITAL ENERGIES
----------------

  NO   OCC          E(Eh)            E(eV)
   0   2.0000     -88.970239     -2421.0033
   1   2.0000     -88.965192     -2420.8660
   2   2.0000     -10.332846      -281.1710
   3   2.0000     -10.323553      -280.9182
   4   2.0000     -10.319528      -280.8086
   5   2.0000     -10.315573      -280.7010
   6   2.0000     -10.304932      -280.4115
   7   2.0000     -10.298152      -280.2270
   8   2.0000     -10.294000      -280.1140
   9   2.0000     -10.292292      -280.0675
  10   2.0000     -10.291959      -280.0584
  11   2.0000     -10.289000      -279.9779
  12   2.0000     -10.287677      -279.9419
  13   2.0000     -10.282377      -279.7977
  14   2.0000     -10.281737      -279.7803
  15   2.0000     -10.269697      -279.4527
  16   2.0000      -8.083274      -219.9571
  17   2.0000      -8.080974      -219.8945
  18   2.0000      -6.041996      -164.4111
  19   2.0000      -6.039430      -164.3413
  20   2.0000      -6.038114      -164.3054
  21   2.0000      -6.035131      -164.2243
  22   2.0000      -6.033814      -164.1884
  23   2.0000      -6.031927      -164.1371
  24   2.0000      -1.006908       -27.3994
  25   2.0000      -0.982170       -26.7262
  26   2.0000      -0.917968       -24.9792
  27   2.0000      -0.904958       -24.6252
  28   2.0000      -0.869259       -23.6537
  29   2.0000      -0.851055       -23.1584
  30   2.0000      -0.841675       -22.9031
  31   2.0000      -0.815506       -22.1910
  32   2.0000      -0.784457       -21.3462
  33   2.0000      -0.770887       -20.9769
  34   2.0000      -0.709978       -19.3195
  35   2.0000      -0.705379       -19.1943
  36   2.0000      -0.697489       -18.9796
  37   2.0000      -0.658851       -17.9282
  38   2.0000      -0.629193       -17.1212
  39   2.0000      -0.617942       -16.8151
  40   2.0000      -0.601554       -16.3691
  41   2.0000      -0.578614       -15.7449
  42   2.0000      -0.561427       -15.2772
  43   2.0000      -0.547902       -14.9092
  44   2.0000      -0.535625       -14.5751
  45   2.0000      -0.521846       -14.2002
  46   2.0000      -0.519139       -14.1265
  47   2.0000      -0.512422       -13.9437
  48   2.0000      -0.503268       -13.6946
  49   2.0000      -0.495979       -13.4963
  50   2.0000      -0.490762       -13.3543
  51   2.0000      -0.475706       -12.9446
  52   2.0000      -0.470054       -12.7908
  53   2.0000      -0.466740       -12.7006
  54   2.0000      -0.457733       -12.4555
  55   2.0000      -0.453790       -12.3483
  56   2.0000      -0.450395       -12.2559
  57   2.0000      -0.438067       -11.9204
  58   2.0000      -0.432378       -11.7656
  59   2.0000      -0.426149       -11.5961
  60   2.0000      -0.421882       -11.4800
  61   2.0000      -0.418209       -11.3800
  62   2.0000      -0.411882       -11.2079
  63   2.0000      -0.348112        -9.4726
  64   2.0000      -0.332441        -9.0462
  65   2.0000      -0.322043        -8.7632
  66   2.0000      -0.287279        -7.8173
  67   0.0000       0.028914         0.7868
  68   0.0000       0.068557         1.8655
  69   0.0000       0.099032         2.6948
  70   0.0000       0.118398         3.2218
  71   0.0000       0.130474         3.5504

MULLIKEN ATOMIC CHARGES
-----------------------
   0 S :    0.111900
   1 C :   -0.140649
   2 C :   -0.098005
   3 C :    0.019709
   4 C :   -0.122388
   5 H :    0.017097
   6 C :    0.046282
   7 H :    0.005224
   8 H :    0.041498
   9 C :   -0.053636
  10 H :    0.038345
  11 H :    0.030498
  12 C :   -0.037867
  13 H :    0.034786
  14 H :    0.016752
  15 H :    0.039019
  16 S :    0.127240
  17 C :   -0.086295
  18 C :   -0.029800
  19 C :   -0.064685
  20 C :   -0.177805
  21 H :    0.024047
  22 C :    0.098549
  23 H :    0.026085
  24 H :   -0.001988
  25 C :   -0.066708
  26 H :    0.018232
  27 H :    0.018496
  28 C :   -0.019106
  29 H :    0.038108
  30 H :    0.022803
  31 H :    0.017390
  32 H :    0.055259
  33 H :    0.051610
Sum of atomic charges:    0.0000000

LOEWDIN ATOMIC CHARGES
----------------------
   0 S :    0.381264
   1 C :   -0.195194
   2 C :   -0.063020
   3 C :   -0.071377
   4 C :   -0.186699
   5 H :    0.031500
   6 C :   -0.036265
   7 H :    0.024688
   8 H :    0.039340
   9 C :   -0.037794
  10 H :    0.030803
  11 H :    0.027104
  12 C :   -0.071768
  13 H :    0.027407
  14 H :    0.022027
  15 H :    0.033349
  16 S :    0.448825
  17 C :   -0.187688
  18 C :   -0.070173
  19 C :   -0.053622
  20 C :   -0.231540
  21 H :    0.033167
  22 C :   -0.035013
  23 H :    0.036577
  24 H :    0.016170
  25 C :   -0.028837
  26 H :    0.021730
  27 H :    0.018573
  28 C :   -0.060352
  29 H :    0.025650
  30 H :    0.024225
  31 H :    0.021822
  32 H :    0.037134
  33 H :    0.027986

  Mayer bond orders larger than 0.100000
B(  0-S ,  1-C ) :   1.1113 B(  0-S ,  4-C ) :   1.1293 B(  1-C ,  2-C ) :   1.6446
B(  1-C , 32-H ) :   0.9560 B(  2-C ,  3-C ) :   1.2396 B(  2-C ,  6-C ) :   1.0182
B(  3-C ,  4-C ) :   1.5993 B(  3-C ,  5-H ) :   0.9813 B(  4-C , 20-C ) :   1.0165
B(  6-C ,  7-H ) :   0.9348 B(  6-C ,  8-H ) :   0.9390 B(  6-C ,  9-C ) :   1.0615
B(  9-C , 10-H ) :   0.9545 B(  9-C , 11-H ) :   0.9560 B(  9-C , 12-C ) :   1.0763
B( 12-C , 13-H ) :   0.9744 B( 12-C , 14-H ) :   0.9728 B( 12-C , 15-H ) :   0.9716
B( 16-S , 17-C ) :   1.1732 B( 16-S , 20-C ) :   1.1763 B( 17-C , 18-C ) :   1.5609
B( 17-C , 20-C ) :   0.1026 B( 17-C , 33-H ) :   0.9705 B( 18-C , 19-C ) :   1.2890
B( 18-C , 21-H ) :   0.9881 B( 19-C , 20-C ) :   1.5214 B( 19-C , 22-C ) :   1.0410
B( 22-C , 23-H ) :   0.9223 B( 22-C , 24-H ) :   0.9364 B( 22-C , 25-C ) :   1.0710
B( 25-C , 26-H ) :   0.9585 B( 25-C , 27-H ) :   0.9543 B( 25-C , 28-C ) :   1.0707
B( 28-C , 29-H ) :   0.9771 B( 28-C , 30-H ) :   0.9727 B( 28-C , 31-H ) :   0.9744

Dispersion correction           -0.013935830
FINAL SINGLE POINT ENERGY     -1339.866352306252

DIPOLE MOMENT
-------------
                                X             Y             Z
Electronic contribution:      3.95772      17.30474      -7.80580
Nuclear contribution   :     -4.03995     -17.68996       8.18850
                        -----------------------------------------
Total Dipole Moment    :     -0.08223      -0.38523       0.38270
                        -----------------------------------------
Magnitude (a.u.)       :      0.54920
Magnitude (Debye)      :      1.39595

Rotational constants in cm-1:     0.022291     0.006841     0.006414
Rotational constants in MHz :   668.270117   205.078843   192.290997

                             ****ORCA TERMINATED NORMALLY****
TOTAL RUN TIME: 0 days 0 hours 0 minutes 20 seconds 998 msec
