                         Program Version 4.2.1 -  RELEASE  -
|  1> ! wB97X-D3 SP def2-SVP
|  2> %pal
|  3> nprocs 24
|  4> end
|  5>
|  6> * xyz 0 1
|  7> S 	 -48.9663 	 20.873 	 28.4105
|  8> C 	 -49.9648 	 22.217 	 29.0199
|  9> C 	 -51.0929 	 22.3529 	 28.2048
| 10> C 	 -51.1666 	 21.3889 	 27.1708
| 11> C 	 -50.137 	 20.4736 	 27.1613
| 12> H 	 -51.987 	 21.4193 	 26.5094
| 13> C 	 -52.1921 	 23.3088 	 28.3895
| 14> H 	 -52.6388 	 23.6709 	 27.4623
| 15> H 	 -51.974 	 24.263 	 28.954
| 16> C 	 -53.3785 	 22.687 	 29.1746
| 17> H 	 -53.2686 	 22.5273 	 30.2982
| 18> H 	 -54.2565 	 23.3596 	 29.1384
| 19> C 	 -53.8994 	 21.3063 	 28.5384
| 20> H 	 -54.9381 	 21.0409 	 28.8916
| 21> H 	 -53.9958 	 21.3131 	 27.4432
| 22> H 	 -53.206 	 20.527 	 28.9163
| 23> S 	 -49.7462 	 17.8163 	 27.5094
| 24> C 	 -50.034 	 16.7041 	 26.1988
| 25> C 	 -50.189 	 17.3602 	 25.0291
| 26> C 	 -50.2638 	 18.7633 	 25.1384
| 27> C 	 -50.0327 	 19.2074 	 26.4551
| 28> H 	 -50.4331 	 16.8397 	 24.1417
| 29> C 	 -50.8366 	 19.6677 	 23.983
| 30> H 	 -50.2695 	 19.2296 	 23.1361
| 31> H 	 -50.2826 	 20.6392 	 24.0691
| 32> C 	 -52.3874 	 19.7105 	 23.8531
| 33> H 	 -52.7777 	 20.3362 	 24.5935
| 34> H 	 -52.7922 	 18.7413 	 24.0818
| 35> C 	 -52.9899 	 20.0783 	 22.4628
| 36> H 	 -52.7913 	 21.1732 	 22.2923
| 37> H 	 -54.0118 	 19.9117 	 22.4971
| 38> H 	 -52.5895 	 19.5637 	 21.6036
| 39> H 	 -49.7976 	 22.8468 	 29.8802
| 40> H 	 -50.2528 	 15.654 	 26.3144
| 41> *
| 42>
| 43>                          ****END OF INPUT****

CARTESIAN COORDINATES (ANGSTROEM)
---------------------------------
  S    -48.966300   20.873000   28.410500
  C    -49.964800   22.217000   29.019900
  C    -51.092900   22.352900   28.204800
  C    -51.166600   21.388900   27.170800
  C    -50.137000   20.473600   27.161300
  H    -51.987000   21.419300   26.509400
  C    -52.192100   23.308800   28.389500
  H    -52.638800   23.670900   27.462300
  H    -51.974000   24.263000   28.954000
  C    -53.378500   22.687000   29.174600
  H    -53.268600   22.527300   30.298200
  H    -54.256500   23.359600   29.138400
  C    -53.899400   21.306300   28.538400
  H    -54.938100   21.040900   28.891600
  H    -53.995800   21.313100   27.443200
  H    -53.206000   20.527000   28.916300
  S    -49.746200   17.816300   27.509400
  C    -50.034000   16.704100   26.198800
  C    -50.189000   17.360200   25.029100
  C    -50.263800   18.763300   25.138400
  C    -50.032700   19.207400   26.455100
  H    -50.433100   16.839700   24.141700
  C    -50.836600   19.667700   23.983000
  H    -50.269500   19.229600   23.136100
  H    -50.282600   20.639200   24.069100
  C    -52.387400   19.710500   23.853100
  H    -52.777700   20.336200   24.593500
  H    -52.792200   18.741300   24.081800
  C    -52.989900   20.078300   22.462800
  H    -52.791300   21.173200   22.292300
  H    -54.011800   19.911700   22.497100
  H    -52.589500   19.563700   21.603600
  H    -49.797600   22.846800   29.880200
  H    -50.252800   15.654000   26.314400

 Total Charge           Charge          ....    0
 Multiplicity           Mult            ....    1
 Number of Electrons    NEL             ....  134
 Basis Dimension        Dim             ....  322

ORBITAL ENERGIES
----------------

  NO   OCC          E(Eh)            E(eV)
   0   2.0000     -88.967061     -2420.9168
   1   2.0000     -88.963815     -2420.8285
   2   2.0000     -10.332293      -281.1560
   3   2.0000     -10.329346      -281.0758
   4   2.0000     -10.316688      -280.7313
   5   2.0000     -10.313808      -280.6530
   6   2.0000     -10.306267      -280.4478
   7   2.0000     -10.302353      -280.3413
   8   2.0000     -10.298473      -280.2357
   9   2.0000     -10.297523      -280.2098
  10   2.0000     -10.297336      -280.2048
  11   2.0000     -10.290433      -280.0169
  12   2.0000     -10.289138      -279.9817
  13   2.0000     -10.287252      -279.9303
  14   2.0000     -10.284905      -279.8665
  15   2.0000     -10.279866      -279.7294
  16   2.0000      -8.081013      -219.8955
  17   2.0000      -8.078570      -219.8291
  18   2.0000      -6.039688      -164.3483
  19   2.0000      -6.037105      -164.2780
  20   2.0000      -6.035560      -164.2359
  21   2.0000      -6.033006      -164.1664
  22   2.0000      -6.031698      -164.1309
  23   2.0000      -6.029332      -164.0665
  24   2.0000      -1.006478       -27.3877
  25   2.0000      -0.983971       -26.7752
  26   2.0000      -0.910971       -24.7888
  27   2.0000      -0.901194       -24.5227
  28   2.0000      -0.866594       -23.5812
  29   2.0000      -0.851356       -23.1666
  30   2.0000      -0.837652       -22.7937
  31   2.0000      -0.815633       -22.1945
  32   2.0000      -0.783228       -21.3127
  33   2.0000      -0.771378       -20.9903
  34   2.0000      -0.713180       -19.4066
  35   2.0000      -0.701746       -19.0955
  36   2.0000      -0.695404       -18.9229
  37   2.0000      -0.663193       -18.0464
  38   2.0000      -0.638761       -17.3816
  39   2.0000      -0.623124       -16.9561
  40   2.0000      -0.592301       -16.1173
  41   2.0000      -0.572502       -15.5786
  42   2.0000      -0.557271       -15.1641
  43   2.0000      -0.542977       -14.7751
  44   2.0000      -0.536040       -14.5864
  45   2.0000      -0.533271       -14.5110
  46   2.0000      -0.514680       -14.0052
  47   2.0000      -0.513791       -13.9810
  48   2.0000      -0.507778       -13.8173
  49   2.0000      -0.502777       -13.6812
  50   2.0000      -0.494215       -13.4483
  51   2.0000      -0.473512       -12.8849
  52   2.0000      -0.466738       -12.7006
  53   2.0000      -0.462300       -12.5798
  54   2.0000      -0.460565       -12.5326
  55   2.0000      -0.450824       -12.2675
  56   2.0000      -0.445293       -12.1171
  57   2.0000      -0.437494       -11.9048
  58   2.0000      -0.436329       -11.8731
  59   2.0000      -0.420022       -11.4294
  60   2.0000      -0.416795       -11.3416
  61   2.0000      -0.412734       -11.2311
  62   2.0000      -0.409579       -11.1452
  63   2.0000      -0.350867        -9.5476
  64   2.0000      -0.331532        -9.0214
  65   2.0000      -0.329139        -8.9563
  66   2.0000      -0.287617        -7.8265
  67   0.0000       0.027246         0.7414
  68   0.0000       0.064943         1.7672
  69   0.0000       0.108482         2.9520
  70   0.0000       0.120210         3.2711
  71   0.0000       0.132200         3.5973

MULLIKEN ATOMIC CHARGES
-----------------------
   0 S :    0.102343
   1 C :   -0.114570
   2 C :   -0.074058
   3 C :    0.066296
   4 C :   -0.119945
   5 H :   -0.033837
   6 C :    0.051146
   7 H :    0.029003
   8 H :    0.035971
   9 C :   -0.119903
  10 H :    0.045731
  11 H :    0.029441
  12 C :   -0.101046
  13 H :    0.037020
  14 H :    0.029474
  15 H :    0.065454
  16 S :    0.099397
  17 C :   -0.086641
  18 C :   -0.016162
  19 C :   -0.065825
  20 C :   -0.148601
  21 H :    0.002323
  22 C :    0.045910
  23 H :    0.022509
  24 H :    0.038770
  25 C :   -0.015444
  26 H :    0.015418
  27 H :    0.021222
  28 C :   -0.039368
  29 H :    0.035497
  30 H :    0.025041
  31 H :    0.033078
  32 H :    0.044204
  33 H :    0.060152
Sum of atomic charges:    0.0000000

LOEWDIN ATOMIC CHARGES
----------------------
   0 S :    0.392728
   1 C :   -0.189479
   2 C :   -0.064687
   3 C :   -0.052869
   4 C :   -0.187528
   5 H :    0.018676
   6 C :   -0.040738
   7 H :    0.033052
   8 H :    0.039066
   9 C :   -0.045651
  10 H :    0.030115
  11 H :    0.020626
  12 C :   -0.078244
  13 H :    0.028845
  14 H :    0.018678
  15 H :    0.033261
  16 S :    0.402472
  17 C :   -0.182481
  18 C :   -0.071817
  19 C :   -0.057829
  20 C :   -0.192434
  21 H :    0.025908
  22 C :   -0.037103
  23 H :    0.032617
  24 H :    0.036489
  25 C :   -0.031448
  26 H :    0.016931
  27 H :    0.024851
  28 C :   -0.057152
  29 H :    0.030969
  30 H :    0.017803
  31 H :    0.024111
  32 H :    0.029911
  33 H :    0.032351

  Mayer bond orders larger than 0.100000
B(  0-S ,  1-C ) :   1.1228 B(  0-S ,  4-C ) :   1.1509 B(  1-C ,  2-C ) :   1.5952
B(  1-C , 32-H ) :   0.9701 B(  2-C ,  3-C ) :   1.2655 B(  2-C ,  6-C ) :   1.0450
B(  3-C ,  4-C ) :   1.5401 B(  3-C ,  5-H ) :   0.9995 B(  4-C , 20-C ) :   1.0407
B(  6-C ,  7-H ) :   0.9383 B(  6-C ,  8-H ) :   0.9413 B(  6-C ,  9-C ) :   1.0614
B(  9-C , 10-H ) :   0.9597 B(  9-C , 11-H ) :   0.9611 B(  9-C , 12-C ) :   1.0688
B( 12-C , 13-H ) :   0.9738 B( 12-C , 14-H ) :   0.9746 B( 12-C , 15-H ) :   0.9708
B( 16-S , 17-C ) :   1.1529 B( 16-S , 20-C ) :   1.1456 B( 17-C , 18-C ) :   1.6069
B( 17-C , 33-H ) :   0.9665 B( 18-C , 19-C ) :   1.2587 B( 18-C , 21-H ) :   0.9925
B( 19-C , 20-C ) :   1.5824 B( 19-C , 22-C ) :   1.0353 B( 22-C , 23-H ) :   0.9396
B( 22-C , 24-H ) :   0.9375 B( 22-C , 25-C ) :   1.0357 B( 25-C , 26-H ) :   0.9531
B( 25-C , 27-H ) :   0.9571 B( 25-C , 28-C ) :   1.0837 B( 28-C , 29-H ) :   0.9775
B( 28-C , 30-H ) :   0.9752 B( 28-C , 31-H ) :   0.9782

Dispersion correction           -0.015056158
FINAL SINGLE POINT ENERGY     -1339.866668469920

DIPOLE MOMENT
-------------
                                X             Y             Z
Electronic contribution:     23.81030      -9.89569      11.76298
Nuclear contribution   :    -24.61301      10.00837     -12.09655
                        -----------------------------------------
Total Dipole Moment    :     -0.80271       0.11268      -0.33357
                        -----------------------------------------
Magnitude (a.u.)       :      0.87654
Magnitude (Debye)      :      2.22798

Rotational constants in cm-1:     0.016192     0.010364     0.007595
Rotational constants in MHz :   485.410901   310.701502   227.682995

                             ****ORCA TERMINATED NORMALLY****
TOTAL RUN TIME: 0 days 0 hours 0 minutes 22 seconds 619 msec
