                         Program Version 4.2.1 -  RELEASE  -
|  1> ! wB97X-D3 SP def2-SVP
|  2> %pal
|  3> nprocs 24
|  4> end
|  5>
|  6> * xyz 0 1
|  7> S 	 47.3814 	 -21.7178 	 -111.874
|  8> C 	 48.1964 	 -20.6444 	 -110.784
|  9> C 	 47.4484 	 -20.4664 	 -109.595
| 10> C 	 46.1502 	 -21.064 	 -109.758
| 11> C 	 45.8976 	 -21.7157 	 -110.903
| 12> H 	 45.3124 	 -20.877 	 -109.068
| 13> C 	 47.6629 	 -19.4936 	 -108.415
| 14> H 	 46.6323 	 -19.4833 	 -107.996
| 15> H 	 47.8548 	 -18.4805 	 -108.737
| 16> C 	 48.7537 	 -19.8386 	 -107.386
| 17> H 	 49.712 	 -19.556 	 -107.806
| 18> H 	 48.6057 	 -19.2011 	 -106.546
| 19> C 	 48.6639 	 -21.2562 	 -106.9
| 20> H 	 49.4936 	 -21.3816 	 -106.274
| 21> H 	 47.8284 	 -21.4979 	 -106.347
| 22> H 	 48.7465 	 -22.0634 	 -107.648
| 23> S 	 43.1348 	 -21.5432 	 -110.645
| 24> C 	 42.2012 	 -22.9906 	 -110.96
| 25> C 	 43.0017 	 -24.0015 	 -111.477
| 26> C 	 44.3685 	 -23.6426 	 -111.728
| 27> C 	 44.6477 	 -22.4081 	 -111.192
| 28> H 	 42.6071 	 -24.9596 	 -111.718
| 29> C 	 45.344 	 -24.6867 	 -112.214
| 30> H 	 45.3212 	 -25.561 	 -111.648
| 31> H 	 46.3449 	 -24.3588 	 -112.021
| 32> C 	 45.1005 	 -25.0212 	 -113.69
| 33> H 	 44.0551 	 -25.4642 	 -113.778
| 34> H 	 45.6845 	 -25.8505 	 -114.071
| 35> C 	 45.2976 	 -23.8716 	 -114.639
| 36> H 	 45.1828 	 -24.3636 	 -115.694
| 37> H 	 46.3423 	 -23.4636 	 -114.486
| 38> H 	 44.6629 	 -22.9671 	 -114.52
| 39> H 	 49.2268 	 -20.2699 	 -111.008
| 40> H 	 41.1591 	 -23.159 	 -110.57
| 41> *
| 42>
| 43>                          ****END OF INPUT****

CARTESIAN COORDINATES (ANGSTROEM)
---------------------------------
  S     47.381400  -21.717800  -111.874000
  C     48.196400  -20.644400  -110.784000
  C     47.448400  -20.466400  -109.595000
  C     46.150200  -21.064000  -109.758000
  C     45.897600  -21.715700  -110.903000
  H     45.312400  -20.877000  -109.068000
  C     47.662900  -19.493600  -108.415000
  H     46.632300  -19.483300  -107.996000
  H     47.854800  -18.480500  -108.737000
  C     48.753700  -19.838600  -107.386000
  H     49.712000  -19.556000  -107.806000
  H     48.605700  -19.201100  -106.546000
  C     48.663900  -21.256200  -106.900000
  H     49.493600  -21.381600  -106.274000
  H     47.828400  -21.497900  -106.347000
  H     48.746500  -22.063400  -107.648000
  S     43.134800  -21.543200  -110.645000
  C     42.201200  -22.990600  -110.960000
  C     43.001700  -24.001500  -111.477000
  C     44.368500  -23.642600  -111.728000
  C     44.647700  -22.408100  -111.192000
  H     42.607100  -24.959600  -111.718000
  C     45.344000  -24.686700  -112.214000
  H     45.321200  -25.561000  -111.648000
  H     46.344900  -24.358800  -112.021000
  C     45.100500  -25.021200  -113.690000
  H     44.055100  -25.464200  -113.778000
  H     45.684500  -25.850500  -114.071000
  C     45.297600  -23.871600  -114.639000
  H     45.182800  -24.363600  -115.694000
  H     46.342300  -23.463600  -114.486000
  H     44.662900  -22.967100  -114.520000
  H     49.226800  -20.269900  -111.008000
  H     41.159100  -23.159000  -110.570000

 Total Charge           Charge          ....    0
 Multiplicity           Mult            ....    1
 Number of Electrons    NEL             ....  134
 Basis Dimension        Dim             ....  322

ORBITAL ENERGIES
----------------

  NO   OCC          E(Eh)            E(eV)
   0   2.0000     -88.968451     -2420.9546
   1   2.0000     -88.966664     -2420.9060
   2   2.0000     -10.333922      -281.2003
   3   2.0000     -10.327088      -281.0143
   4   2.0000     -10.324084      -280.9326
   5   2.0000     -10.322318      -280.8845
   6   2.0000     -10.306857      -280.4638
   7   2.0000     -10.303190      -280.3641
   8   2.0000     -10.293645      -280.1043
   9   2.0000     -10.292995      -280.0866
  10   2.0000     -10.290243      -280.0118
  11   2.0000     -10.287350      -279.9330
  12   2.0000     -10.284414      -279.8531
  13   2.0000     -10.284023      -279.8425
  14   2.0000     -10.282530      -279.8019
  15   2.0000     -10.261978      -279.2426
  16   2.0000      -8.082627      -219.9395
  17   2.0000      -8.080217      -219.8739
  18   2.0000      -6.041206      -164.3896
  19   2.0000      -6.038920      -164.3274
  20   2.0000      -6.037155      -164.2793
  21   2.0000      -6.035039      -164.2218
  22   2.0000      -6.033411      -164.1774
  23   2.0000      -6.030704      -164.1038
  24   2.0000      -1.004808       -27.3422
  25   2.0000      -0.980836       -26.6899
  26   2.0000      -0.911690       -24.8083
  27   2.0000      -0.910944       -24.7880
  28   2.0000      -0.870057       -23.6754
  29   2.0000      -0.852059       -23.1857
  30   2.0000      -0.845256       -23.0006
  31   2.0000      -0.808381       -21.9972
  32   2.0000      -0.786101       -21.3909
  33   2.0000      -0.774870       -21.0853
  34   2.0000      -0.707909       -19.2632
  35   2.0000      -0.698070       -18.9955
  36   2.0000      -0.688690       -18.7402
  37   2.0000      -0.663395       -18.0519
  38   2.0000      -0.636658       -17.3243
  39   2.0000      -0.611279       -16.6338
  40   2.0000      -0.598282       -16.2801
  41   2.0000      -0.566885       -15.4257
  42   2.0000      -0.555836       -15.1251
  43   2.0000      -0.552064       -15.0224
  44   2.0000      -0.543126       -14.7792
  45   2.0000      -0.540843       -14.7171
  46   2.0000      -0.511579       -13.9208
  47   2.0000      -0.511227       -13.9112
  48   2.0000      -0.503960       -13.7135
  49   2.0000      -0.496475       -13.5098
  50   2.0000      -0.492010       -13.3883
  51   2.0000      -0.476447       -12.9648
  52   2.0000      -0.465639       -12.6707
  53   2.0000      -0.463561       -12.6141
  54   2.0000      -0.458690       -12.4816
  55   2.0000      -0.445055       -12.1106
  56   2.0000      -0.441700       -12.0193
  57   2.0000      -0.437682       -11.9099
  58   2.0000      -0.429043       -11.6749
  59   2.0000      -0.427091       -11.6217
  60   2.0000      -0.423188       -11.5155
  61   2.0000      -0.409631       -11.1466
  62   2.0000      -0.404373       -11.0035
  63   2.0000      -0.356812        -9.7093
  64   2.0000      -0.332802        -9.0560
  65   2.0000      -0.328874        -8.9491
  66   2.0000      -0.288100        -7.8396
  67   0.0000       0.024479         0.6661
  68   0.0000       0.071842         1.9549
  69   0.0000       0.099497         2.7074
  70   0.0000       0.107229         2.9179
  71   0.0000       0.127714         3.4753

MULLIKEN ATOMIC CHARGES
-----------------------
   0 S :    0.103646
   1 C :   -0.146245
   2 C :   -0.067596
   3 C :   -0.037640
   4 C :   -0.101614
   5 H :    0.027615
   6 C :    0.043331
   7 H :    0.020369
   8 H :    0.033999
   9 C :   -0.038720
  10 H :    0.024229
  11 H :    0.021365
  12 C :   -0.015120
  13 H :    0.012557
  14 H :    0.013164
  15 H :    0.038230
  16 S :    0.086678
  17 C :   -0.104232
  18 C :   -0.027784
  19 C :   -0.041928
  20 C :   -0.154932
  21 H :    0.009010
  22 C :    0.116802
  23 H :    0.014474
  24 H :    0.001476
  25 C :   -0.085730
  26 H :    0.026930
  27 H :    0.025863
  28 C :   -0.097374
  29 H :    0.050079
  30 H :    0.036007
  31 H :    0.057822
  32 H :    0.073159
  33 H :    0.082111
Sum of atomic charges:    0.0000000

LOEWDIN ATOMIC CHARGES
----------------------
   0 S :    0.405763
   1 C :   -0.201695
   2 C :   -0.064728
   3 C :   -0.073033
   4 C :   -0.191968
   5 H :    0.027872
   6 C :   -0.030962
   7 H :    0.031985
   8 H :    0.030091
   9 C :   -0.033949
  10 H :    0.022972
  11 H :    0.025003
  12 C :   -0.059878
  13 H :    0.021445
  14 H :    0.016461
  15 H :    0.030566
  16 S :    0.373942
  17 C :   -0.195724
  18 C :   -0.061634
  19 C :   -0.055191
  20 C :   -0.156911
  21 H :    0.024124
  22 C :   -0.026619
  23 H :    0.027143
  24 H :    0.017391
  25 C :   -0.049126
  26 H :    0.025929
  27 H :    0.023717
  28 C :   -0.079947
  29 H :    0.039863
  30 H :    0.026810
  31 H :    0.029360
  32 H :    0.037670
  33 H :    0.043258

  Mayer bond orders larger than 0.100000
B(  0-S ,  1-C ) :   1.1572 B(  0-S ,  4-C ) :   1.1180 B(  1-C ,  2-C ) :   1.5780
B(  1-C , 32-H ) :   0.9652 B(  2-C ,  3-C ) :   1.2511 B(  2-C ,  6-C ) :   1.0031
B(  3-C ,  4-C ) :   1.5978 B(  3-C ,  5-H ) :   0.9731 B(  4-C , 20-C ) :   1.0527
B(  6-C ,  7-H ) :   0.9466 B(  6-C ,  8-H ) :   0.9476 B(  6-C ,  9-C ) :   1.0739
B(  9-C , 10-H ) :   0.9566 B(  9-C , 11-H ) :   0.9502 B(  9-C , 12-C ) :   1.0887
B( 12-C , 13-H ) :   0.9697 B( 12-C , 14-H ) :   0.9751 B( 12-C , 15-H ) :   0.9681
B( 16-S , 17-C ) :   1.1285 B( 16-S , 20-C ) :   1.1221 B( 17-C , 18-C ) :   1.6406
B( 17-C , 33-H ) :   0.9576 B( 18-C , 19-C ) :   1.2063 B( 18-C , 21-H ) :   0.9885
B( 19-C , 20-C ) :   1.6093 B( 19-C , 22-C ) :   1.0414 B( 22-C , 23-H ) :   0.9333
B( 22-C , 24-H ) :   0.9327 B( 22-C , 25-C ) :   1.0655 B( 25-C , 26-H ) :   0.9527
B( 25-C , 27-H ) :   0.9548 B( 25-C , 28-C ) :   1.0692 B( 28-C , 29-H ) :   0.9719
B( 28-C , 30-H ) :   0.9713 B( 28-C , 31-H ) :   0.9727

Dispersion correction           -0.014798294
FINAL SINGLE POINT ENERGY     -1339.871166006518

DIPOLE MOMENT
-------------
                                X             Y             Z
Electronic contribution:     -9.95565       4.97274      -4.25682
Nuclear contribution   :     10.15652      -5.16692       4.63387
                        -----------------------------------------
Total Dipole Moment    :      0.20087      -0.19419       0.37705
                        -----------------------------------------
Magnitude (a.u.)       :      0.46928
Magnitude (Debye)      :      1.19281

Rotational constants in cm-1:     0.022343     0.008148     0.006801
Rotational constants in MHz :   669.813293   244.283968   203.902332

                             ****ORCA TERMINATED NORMALLY****
TOTAL RUN TIME: 0 days 0 hours 0 minutes 21 seconds 410 msec
