                         Program Version 4.2.1 -  RELEASE  -
|  1> ! wB97X-D3 SP def2-SVP
|  2> %pal
|  3> nprocs 24
|  4> end
|  5>
|  6> * xyz 0 1
|  7> S 	 15.4314 	 -13.0379 	 -120.638
|  8> C 	 13.8926 	 -12.2365 	 -121.058
|  9> C 	 13.4347 	 -12.5519 	 -122.298
| 10> C 	 14.2627 	 -13.5629 	 -122.906
| 11> C 	 15.3112 	 -14.0641 	 -122.069
| 12> H 	 14.2641 	 -13.7821 	 -123.95
| 13> C 	 12.229 	 -11.9045 	 -123.063
| 14> H 	 11.8459 	 -12.5686 	 -123.881
| 15> H 	 12.7298 	 -11.166 	 -123.556
| 16> C 	 11.2402 	 -11.0817 	 -122.306
| 17> H 	 11.1606 	 -11.3595 	 -121.271
| 18> H 	 11.4937 	 -10.0284 	 -122.428
| 19> C 	 9.77856 	 -11.3421 	 -122.817
| 20> H 	 9.62598 	 -12.0865 	 -123.575
| 21> H 	 9.19094 	 -11.5999 	 -121.977
| 22> H 	 9.31318 	 -10.4528 	 -123.108
| 23> S 	 18.0319 	 -14.6813 	 -122.002
| 24> C 	 18.6575 	 -16.0656 	 -122.826
| 25> C 	 17.6035 	 -16.7354 	 -123.419
| 26> C 	 16.2928 	 -16.1042 	 -123.237
| 27> C 	 16.3845 	 -14.9449 	 -122.47
| 28> H 	 17.8576 	 -17.5255 	 -123.976
| 29> C 	 14.9722 	 -16.6607 	 -123.861
| 30> H 	 15.1893 	 -17.3554 	 -124.666
| 31> H 	 14.5138 	 -15.7735 	 -124.355
| 32> C 	 14.0367 	 -17.5338 	 -122.862
| 33> H 	 13.3685 	 -18.0851 	 -123.59
| 34> H 	 13.4334 	 -16.8859 	 -122.233
| 35> C 	 14.8181 	 -18.4286 	 -121.967
| 36> H 	 15.2262 	 -19.2335 	 -122.555
| 37> H 	 14.1802 	 -18.7822 	 -121.152
| 38> H 	 15.6909 	 -17.9878 	 -121.557
| 39> H 	 13.3391 	 -11.5361 	 -120.428
| 40> H 	 19.6627 	 -16.4122 	 -122.939
| 41> *
| 42>
| 43>                          ****END OF INPUT****

CARTESIAN COORDINATES (ANGSTROEM)
---------------------------------
  S     15.431400  -13.037900  -120.638000
  C     13.892600  -12.236500  -121.058000
  C     13.434700  -12.551900  -122.298000
  C     14.262700  -13.562900  -122.906000
  C     15.311200  -14.064100  -122.069000
  H     14.264100  -13.782100  -123.950000
  C     12.229000  -11.904500  -123.063000
  H     11.845900  -12.568600  -123.881000
  H     12.729800  -11.166000  -123.556000
  C     11.240200  -11.081700  -122.306000
  H     11.160600  -11.359500  -121.271000
  H     11.493700  -10.028400  -122.428000
  C      9.778560  -11.342100  -122.817000
  H      9.625980  -12.086500  -123.575000
  H      9.190940  -11.599900  -121.977000
  H      9.313180  -10.452800  -123.108000
  S     18.031900  -14.681300  -122.002000
  C     18.657500  -16.065600  -122.826000
  C     17.603500  -16.735400  -123.419000
  C     16.292800  -16.104200  -123.237000
  C     16.384500  -14.944900  -122.470000
  H     17.857600  -17.525500  -123.976000
  C     14.972200  -16.660700  -123.861000
  H     15.189300  -17.355400  -124.666000
  H     14.513800  -15.773500  -124.355000
  C     14.036700  -17.533800  -122.862000
  H     13.368500  -18.085100  -123.590000
  H     13.433400  -16.885900  -122.233000
  C     14.818100  -18.428600  -121.967000
  H     15.226200  -19.233500  -122.555000
  H     14.180200  -18.782200  -121.152000
  H     15.690900  -17.987800  -121.557000
  H     13.339100  -11.536100  -120.428000
  H     19.662700  -16.412200  -122.939000

 Total Charge           Charge          ....    0
 Multiplicity           Mult            ....    1
 Number of Electrons    NEL             ....  134
 Basis Dimension        Dim             ....  322

ORBITAL ENERGIES
----------------

  NO   OCC          E(Eh)            E(eV)
   0   2.0000     -88.967996     -2420.9422
   1   2.0000     -88.965141     -2420.8646
   2   2.0000     -10.336565      -281.2722
   3   2.0000     -10.326614      -281.0014
   4   2.0000     -10.314860      -280.6816
   5   2.0000     -10.313466      -280.6437
   6   2.0000     -10.307084      -280.4700
   7   2.0000     -10.304943      -280.4118
   8   2.0000     -10.297643      -280.2131
   9   2.0000     -10.297152      -280.1997
  10   2.0000     -10.290862      -280.0286
  11   2.0000     -10.289199      -279.9833
  12   2.0000     -10.288103      -279.9535
  13   2.0000     -10.287246      -279.9302
  14   2.0000     -10.270370      -279.4710
  15   2.0000     -10.263595      -279.2866
  16   2.0000      -8.081726      -219.9149
  17   2.0000      -8.080386      -219.8785
  18   2.0000      -6.040414      -164.3680
  19   2.0000      -6.039005      -164.3297
  20   2.0000      -6.036527      -164.2623
  21   2.0000      -6.034649      -164.2111
  22   2.0000      -6.032211      -164.1448
  23   2.0000      -6.031161      -164.1162
  24   2.0000      -1.004534       -27.3348
  25   2.0000      -0.979650       -26.6576
  26   2.0000      -0.917506       -24.9666
  27   2.0000      -0.898183       -24.4408
  28   2.0000      -0.872893       -23.7526
  29   2.0000      -0.849347       -23.1119
  30   2.0000      -0.840822       -22.8799
  31   2.0000      -0.812062       -22.0973
  32   2.0000      -0.791212       -21.5300
  33   2.0000      -0.773748       -21.0547
  34   2.0000      -0.713978       -19.4283
  35   2.0000      -0.703791       -19.1511
  36   2.0000      -0.685159       -18.6441
  37   2.0000      -0.665332       -18.1046
  38   2.0000      -0.633152       -17.2290
  39   2.0000      -0.614587       -16.7238
  40   2.0000      -0.584018       -15.8919
  41   2.0000      -0.580170       -15.7872
  42   2.0000      -0.570113       -15.5136
  43   2.0000      -0.555199       -15.1077
  44   2.0000      -0.538985       -14.6665
  45   2.0000      -0.527128       -14.3439
  46   2.0000      -0.521834       -14.1998
  47   2.0000      -0.516671       -14.0593
  48   2.0000      -0.506055       -13.7705
  49   2.0000      -0.490681       -13.3521
  50   2.0000      -0.486771       -13.2457
  51   2.0000      -0.482408       -13.1270
  52   2.0000      -0.477195       -12.9851
  53   2.0000      -0.463753       -12.6194
  54   2.0000      -0.459202       -12.4955
  55   2.0000      -0.449000       -12.2179
  56   2.0000      -0.444586       -12.0978
  57   2.0000      -0.436207       -11.8698
  58   2.0000      -0.426142       -11.5959
  59   2.0000      -0.423106       -11.5133
  60   2.0000      -0.416544       -11.3347
  61   2.0000      -0.412166       -11.2156
  62   2.0000      -0.408416       -11.1136
  63   2.0000      -0.357430        -9.7262
  64   2.0000      -0.329008        -8.9528
  65   2.0000      -0.325839        -8.8665
  66   2.0000      -0.283594        -7.7170
  67   0.0000       0.020377         0.5545
  68   0.0000       0.080517         2.1910
  69   0.0000       0.102733         2.7955
  70   0.0000       0.122974         3.3463
  71   0.0000       0.137412         3.7392

MULLIKEN ATOMIC CHARGES
-----------------------
   0 S :    0.100269
   1 C :   -0.135974
   2 C :   -0.091036
   3 C :   -0.014591
   4 C :   -0.125327
   5 H :    0.022359
   6 C :    0.119714
   7 H :    0.038881
   8 H :    0.015336
   9 C :   -0.098107
  10 H :    0.038165
  11 H :    0.041666
  12 C :   -0.023023
  13 H :    0.034573
  14 H :    0.014590
  15 H :    0.012761
  16 S :    0.107709
  17 C :   -0.085103
  18 C :    0.006156
  19 C :   -0.089316
  20 C :   -0.127854
  21 H :   -0.033176
  22 C :    0.060676
  23 H :    0.015928
  24 H :    0.028855
  25 C :   -0.072336
  26 H :    0.038109
  27 H :    0.035542
  28 C :   -0.026706
  29 H :    0.013957
  30 H :    0.039624
  31 H :    0.039018
  32 H :    0.046254
  33 H :    0.052408
Sum of atomic charges:   -0.0000000

LOEWDIN ATOMIC CHARGES
----------------------
   0 S :    0.384716
   1 C :   -0.196984
   2 C :   -0.054851
   3 C :   -0.060579
   4 C :   -0.179821
   5 H :    0.024293
   6 C :   -0.032044
   7 H :    0.036689
   8 H :    0.031042
   9 C :   -0.035390
  10 H :    0.023738
  11 H :    0.028992
  12 C :   -0.055197
  13 H :    0.022909
  14 H :    0.023940
  15 H :    0.019083
  16 S :    0.418289
  17 C :   -0.191192
  18 C :   -0.059416
  19 C :   -0.057895
  20 C :   -0.209879
  21 H :    0.007166
  22 C :   -0.034798
  23 H :    0.025656
  24 H :    0.031509
  25 C :   -0.034151
  26 H :    0.028902
  27 H :    0.021225
  28 C :   -0.065007
  29 H :    0.022045
  30 H :    0.031448
  31 H :    0.024617
  32 H :    0.028364
  33 H :    0.032583

  Mayer bond orders larger than 0.100000
B(  0-S ,  1-C ) :   1.1125 B(  0-S ,  4-C ) :   1.1422 B(  1-C ,  2-C ) :   1.6556
B(  1-C , 32-H ) :   0.9539 B(  2-C ,  3-C ) :   1.2492 B(  2-C ,  6-C ) :   0.9948
B(  3-C ,  4-C ) :   1.5488 B(  3-C ,  5-H ) :   0.9828 B(  4-C , 20-C ) :   1.0974
B(  6-C ,  7-H ) :   0.9544 B(  6-C ,  8-H ) :   0.9217 B(  6-C ,  9-C ) :   1.0484
B(  9-C , 10-H ) :   0.9704 B(  9-C , 11-H ) :   0.9642 B(  9-C , 12-C ) :   1.0609
B( 12-C , 13-H ) :   0.9837 B( 12-C , 14-H ) :   0.9820 B( 12-C , 15-H ) :   0.9734
B( 16-S , 17-C ) :   1.1511 B( 16-S , 20-C ) :   1.1385 B( 17-C , 18-C ) :   1.6092
B( 17-C , 33-H ) :   0.9708 B( 18-C , 19-C ) :   1.2378 B( 18-C , 21-H ) :   1.0086
B( 19-C , 20-C ) :   1.5686 B( 19-C , 22-C ) :   1.0355 B( 22-C , 23-H ) :   0.9403
B( 22-C , 24-H ) :   0.9417 B( 22-C , 25-C ) :   1.0411 B( 25-C , 26-H ) :   0.9625
B( 25-C , 27-H ) :   0.9601 B( 25-C , 28-C ) :   1.0847 B( 28-C , 29-H ) :   0.9735
B( 28-C , 30-H ) :   0.9727 B( 28-C , 31-H ) :   0.9658

Dispersion correction           -0.014154708
FINAL SINGLE POINT ENERGY     -1339.838364499152

DIPOLE MOMENT
-------------
                                X             Y             Z
Electronic contribution:     25.64815       4.08128       8.26787
Nuclear contribution   :    -26.14003      -4.03256      -8.80448
                        -----------------------------------------
Total Dipole Moment    :     -0.49188       0.04872      -0.53662
                        -----------------------------------------
Magnitude (a.u.)       :      0.72957
Magnitude (Debye)      :      1.85443

Rotational constants in cm-1:     0.022175     0.007631     0.006330
Rotational constants in MHz :   664.788966   228.760109   189.760135

                             ****ORCA TERMINATED NORMALLY****
TOTAL RUN TIME: 0 days 0 hours 0 minutes 21 seconds 503 msec
