                         Program Version 4.2.1 -  RELEASE  -
|  1> ! wB97X-D3 SP def2-SVP
|  2> %pal
|  3> nprocs 24
|  4> end
|  5>
|  6> * xyz 0 1
|  7> S 	 -52.855 	 -50.2882 	 -80.2954
|  8> C 	 -53.6121 	 -50.4013 	 -81.8614
|  9> C 	 -53.8742 	 -49.1047 	 -82.3527
| 10> C 	 -53.3753 	 -48.0658 	 -81.529
| 11> C 	 -52.8268 	 -48.5206 	 -80.3444
| 12> H 	 -53.2582 	 -47.0577 	 -81.8672
| 13> C 	 -54.5505 	 -48.7957 	 -83.6756
| 14> H 	 -53.742 	 -48.4873 	 -84.3421
| 15> H 	 -55.2848 	 -48.0395 	 -83.7093
| 16> C 	 -55.1655 	 -49.9841 	 -84.452
| 17> H 	 -55.303 	 -49.8134 	 -85.4787
| 18> H 	 -54.6242 	 -50.9383 	 -84.2257
| 19> C 	 -56.5747 	 -50.2055 	 -83.8622
| 20> H 	 -57.2822 	 -49.368 	 -84.1634
| 21> H 	 -56.8602 	 -51.1876 	 -84.2233
| 22> H 	 -56.6116 	 -50.337 	 -82.7933
| 23> S 	 -50.8962 	 -48.2347 	 -78.5007
| 24> C 	 -50.5956 	 -46.695 	 -77.7367
| 25> C 	 -51.5163 	 -45.7798 	 -78.1349
| 26> C 	 -52.5826 	 -46.3486 	 -78.9498
| 27> C 	 -52.2971 	 -47.6737 	 -79.2799
| 28> H 	 -51.5241 	 -44.7653 	 -77.8968
| 29> C 	 -53.7679 	 -45.53 	 -79.2825
| 30> H 	 -54.3191 	 -45.4419 	 -78.3253
| 31> H 	 -54.4149 	 -46.0963 	 -79.9263
| 32> C 	 -53.441 	 -44.095 	 -79.881
| 33> H 	 -52.5893 	 -44.0374 	 -80.6089
| 34> H 	 -53.2607 	 -43.28 	 -79.1105
| 35> C 	 -54.7329 	 -43.6944 	 -80.6377
| 36> H 	 -54.5294 	 -42.8398 	 -81.2471
| 37> H 	 -55.5172 	 -43.4048 	 -79.9626
| 38> H 	 -55.0431 	 -44.4664 	 -81.312
| 39> H 	 -53.808 	 -51.3535 	 -82.3312
| 40> H 	 -49.7716 	 -46.455 	 -77.0107
| 41> *
| 42>
| 43>                          ****END OF INPUT****

CARTESIAN COORDINATES (ANGSTROEM)
---------------------------------
  S    -52.855000  -50.288200  -80.295400
  C    -53.612100  -50.401300  -81.861400
  C    -53.874200  -49.104700  -82.352700
  C    -53.375300  -48.065800  -81.529000
  C    -52.826800  -48.520600  -80.344400
  H    -53.258200  -47.057700  -81.867200
  C    -54.550500  -48.795700  -83.675600
  H    -53.742000  -48.487300  -84.342100
  H    -55.284800  -48.039500  -83.709300
  C    -55.165500  -49.984100  -84.452000
  H    -55.303000  -49.813400  -85.478700
  H    -54.624200  -50.938300  -84.225700
  C    -56.574700  -50.205500  -83.862200
  H    -57.282200  -49.368000  -84.163400
  H    -56.860200  -51.187600  -84.223300
  H    -56.611600  -50.337000  -82.793300
  S    -50.896200  -48.234700  -78.500700
  C    -50.595600  -46.695000  -77.736700
  C    -51.516300  -45.779800  -78.134900
  C    -52.582600  -46.348600  -78.949800
  C    -52.297100  -47.673700  -79.279900
  H    -51.524100  -44.765300  -77.896800
  C    -53.767900  -45.530000  -79.282500
  H    -54.319100  -45.441900  -78.325300
  H    -54.414900  -46.096300  -79.926300
  C    -53.441000  -44.095000  -79.881000
  H    -52.589300  -44.037400  -80.608900
  H    -53.260700  -43.280000  -79.110500
  C    -54.732900  -43.694400  -80.637700
  H    -54.529400  -42.839800  -81.247100
  H    -55.517200  -43.404800  -79.962600
  H    -55.043100  -44.466400  -81.312000
  H    -53.808000  -51.353500  -82.331200
  H    -49.771600  -46.455000  -77.010700

 Total Charge           Charge          ....    0
 Multiplicity           Mult            ....    1
 Number of Electrons    NEL             ....  134
 Basis Dimension        Dim             ....  322

ORBITAL ENERGIES
----------------

  NO   OCC          E(Eh)            E(eV)
   0   2.0000     -88.966439     -2420.8999
   1   2.0000     -88.961570     -2420.7674
   2   2.0000     -10.332143      -281.1519
   3   2.0000     -10.322059      -280.8775
   4   2.0000     -10.318739      -280.7872
   5   2.0000     -10.316758      -280.7332
   6   2.0000     -10.305876      -280.4371
   7   2.0000     -10.302954      -280.3576
   8   2.0000     -10.300683      -280.2958
   9   2.0000     -10.294358      -280.1237
  10   2.0000     -10.290533      -280.0196
  11   2.0000     -10.287837      -279.9463
  12   2.0000     -10.287382      -279.9339
  13   2.0000     -10.285841      -279.8920
  14   2.0000     -10.275341      -279.6062
  15   2.0000     -10.274008      -279.5700
  16   2.0000      -8.080879      -219.8919
  17   2.0000      -8.077667      -219.8045
  18   2.0000      -6.039437      -164.3414
  19   2.0000      -6.036244      -164.2546
  20   2.0000      -6.035384      -164.2311
  21   2.0000      -6.031904      -164.1364
  22   2.0000      -6.031664      -164.1299
  23   2.0000      -6.028347      -164.0397
  24   2.0000      -1.009809       -27.4783
  25   2.0000      -0.984889       -26.8002
  26   2.0000      -0.912910       -24.8415
  27   2.0000      -0.908841       -24.7308
  28   2.0000      -0.869461       -23.6592
  29   2.0000      -0.855517       -23.2798
  30   2.0000      -0.847646       -23.0656
  31   2.0000      -0.813848       -22.1459
  32   2.0000      -0.778488       -21.1837
  33   2.0000      -0.767533       -20.8856
  34   2.0000      -0.706896       -19.2356
  35   2.0000      -0.703793       -19.1512
  36   2.0000      -0.690748       -18.7962
  37   2.0000      -0.664317       -18.0770
  38   2.0000      -0.640759       -17.4359
  39   2.0000      -0.617591       -16.8055
  40   2.0000      -0.597942       -16.2708
  41   2.0000      -0.582068       -15.8389
  42   2.0000      -0.567099       -15.4315
  43   2.0000      -0.548159       -14.9162
  44   2.0000      -0.539738       -14.6870
  45   2.0000      -0.529479       -14.4078
  46   2.0000      -0.521090       -14.1796
  47   2.0000      -0.515655       -14.0317
  48   2.0000      -0.507032       -13.7970
  49   2.0000      -0.497575       -13.5397
  50   2.0000      -0.486597       -13.2410
  51   2.0000      -0.484082       -13.1725
  52   2.0000      -0.470728       -12.8092
  53   2.0000      -0.463799       -12.6206
  54   2.0000      -0.460879       -12.5411
  55   2.0000      -0.451203       -12.2779
  56   2.0000      -0.441440       -12.0122
  57   2.0000      -0.439695       -11.9647
  58   2.0000      -0.431587       -11.7441
  59   2.0000      -0.429792       -11.6952
  60   2.0000      -0.426275       -11.5995
  61   2.0000      -0.417354       -11.3568
  62   2.0000      -0.404644       -11.0109
  63   2.0000      -0.355958        -9.6861
  64   2.0000      -0.330740        -8.9999
  65   2.0000      -0.321806        -8.7568
  66   2.0000      -0.284553        -7.7431
  67   0.0000       0.026281         0.7152
  68   0.0000       0.085638         2.3303
  69   0.0000       0.107127         2.9151
  70   0.0000       0.114624         3.1191
  71   0.0000       0.128071         3.4850

MULLIKEN ATOMIC CHARGES
-----------------------
   0 S :    0.105429
   1 C :   -0.135276
   2 C :   -0.077792
   3 C :    0.002304
   4 C :   -0.116734
   5 H :    0.014927
   6 C :    0.078482
   7 H :    0.035416
   8 H :    0.017057
   9 C :   -0.076637
  10 H :    0.027555
  11 H :    0.029614
  12 C :   -0.080584
  13 H :    0.043510
  14 H :    0.022475
  15 H :    0.032465
  16 S :    0.097812
  17 C :   -0.088761
  18 C :   -0.004402
  19 C :   -0.081278
  20 C :   -0.114568
  21 H :   -0.006788
  22 C :    0.063516
  23 H :    0.050886
  24 H :    0.014430
  25 C :   -0.129764
  26 H :    0.049586
  27 H :    0.047396
  28 C :   -0.029280
  29 H :    0.020177
  30 H :    0.032960
  31 H :    0.027403
  32 H :    0.052758
  33 H :    0.075708
Sum of atomic charges:   -0.0000000

LOEWDIN ATOMIC CHARGES
----------------------
   0 S :    0.399335
   1 C :   -0.208602
   2 C :   -0.054354
   3 C :   -0.067469
   4 C :   -0.179809
   5 H :    0.031432
   6 C :   -0.031275
   7 H :    0.036545
   8 H :    0.022344
   9 C :   -0.035230
  10 H :    0.019925
  11 H :    0.026426
  12 C :   -0.070506
  13 H :    0.029100
  14 H :    0.021136
  15 H :    0.020720
  16 S :    0.422007
  17 C :   -0.191127
  18 C :   -0.063161
  19 C :   -0.055785
  20 C :   -0.218789
  21 H :    0.019993
  22 C :   -0.033864
  23 H :    0.045447
  24 H :    0.024855
  25 C :   -0.042852
  26 H :    0.028920
  27 H :    0.031104
  28 C :   -0.061086
  29 H :    0.020559
  30 H :    0.024493
  31 H :    0.020037
  32 H :    0.025713
  33 H :    0.043818

  Mayer bond orders larger than 0.100000
B(  0-S ,  1-C ) :   1.1328 B(  0-S ,  4-C ) :   1.1558 B(  1-C ,  2-C ) :   1.5812
B(  1-C ,  4-C ) :   0.1000 B(  1-C , 32-H ) :   0.9701 B(  2-C ,  3-C ) :   1.2717
B(  2-C ,  6-C ) :   1.0133 B(  3-C ,  4-C ) :   1.5604 B(  3-C ,  5-H ) :   0.9956
B(  4-C , 20-C ) :   1.0391 B(  6-C ,  7-H ) :   0.9301 B(  6-C ,  8-H ) :   0.9487
B(  6-C ,  9-C ) :   1.0826 B(  9-C , 10-H ) :   0.9553 B(  9-C , 11-H ) :   0.9540
B(  9-C , 12-C ) :   1.0755 B( 12-C , 13-H ) :   0.9747 B( 12-C , 14-H ) :   0.9766
B( 12-C , 15-H ) :   0.9780 B( 16-S , 17-C ) :   1.1468 B( 16-S , 20-C ) :   1.1403
B( 17-C , 18-C ) :   1.6056 B( 17-C , 33-H ) :   0.9622 B( 18-C , 19-C ) :   1.2416
B( 18-C , 21-H ) :   1.0000 B( 19-C , 20-C ) :   1.5789 B( 19-C , 22-C ) :   1.0553
B( 22-C , 23-H ) :   0.9192 B( 22-C , 24-H ) :   0.9479 B( 22-C , 25-C ) :   1.0351
B( 25-C , 26-H ) :   0.9686 B( 25-C , 27-H ) :   0.9494 B( 25-C , 28-C ) :   1.0853
B( 28-C , 29-H ) :   0.9733 B( 28-C , 30-H ) :   0.9739 B( 28-C , 31-H ) :   0.9786

Dispersion correction           -0.013963806
FINAL SINGLE POINT ENERGY     -1339.871765828907

DIPOLE MOMENT
-------------
                                X             Y             Z
Electronic contribution:     19.73081     -13.59671      17.43675
Nuclear contribution   :    -19.99782      14.24908     -17.79602
                        -----------------------------------------
Total Dipole Moment    :     -0.26702       0.65237      -0.35927
                        -----------------------------------------
Magnitude (a.u.)       :      0.79117
Magnitude (Debye)      :      2.01100

Rotational constants in cm-1:     0.018849     0.008713     0.006236
Rotational constants in MHz :   565.067412   261.194649   186.946005

                             ****ORCA TERMINATED NORMALLY****
TOTAL RUN TIME: 0 days 0 hours 0 minutes 21 seconds 516 msec
