                         Program Version 4.2.1 -  RELEASE  -
|  1> ! wB97X-D3 SP def2-SVP
|  2> %pal
|  3> nprocs 24
|  4> end
|  5>
|  6> * xyz 0 1
|  7> S 	 -42.2656 	 -49.2174 	 -70.9678
|  8> C 	 -42.3331 	 -47.4501 	 -71.01
|  9> C 	 -43.1989 	 -46.9222 	 -70.0523
| 10> C 	 -43.6674 	 -47.8851 	 -69.1031
| 11> C 	 -43.2799 	 -49.1872 	 -69.4666
| 12> H 	 -44.3677 	 -47.6401 	 -68.3457
| 13> C 	 -43.71 	 -45.5069 	 -70.0663
| 14> H 	 -42.9502 	 -44.9028 	 -70.5699
| 15> H 	 -43.7397 	 -45.2997 	 -69.0299
| 16> C 	 -45.0095 	 -45.142 	 -70.8757
| 17> H 	 -45.3347 	 -44.1339 	 -70.5618
| 18> H 	 -44.8462 	 -45.1452 	 -71.8909
| 19> C 	 -46.1668 	 -46.0424 	 -70.5301
| 20> H 	 -46.2805 	 -46.1736 	 -69.4042
| 21> H 	 -47.0681 	 -45.6341 	 -70.8164
| 22> H 	 -46.2367 	 -47.0476 	 -70.9764
| 23> S 	 -42.7037 	 -51.6444 	 -68.2363
| 24> C 	 -43.8154 	 -52.3937 	 -67.3064
| 25> C 	 -45.0514 	 -51.7814 	 -67.3496
| 26> C 	 -45.0736 	 -50.5958 	 -68.1543
| 27> C 	 -43.8165 	 -50.3099 	 -68.7074
| 28> H 	 -45.8609 	 -52.2642 	 -66.8103
| 29> C 	 -46.4652 	 -50.065 	 -68.4986
| 30> H 	 -46.6598 	 -49.2031 	 -67.9145
| 31> H 	 -47.2635 	 -50.7357 	 -68.2765
| 32> C 	 -46.6391 	 -49.6623 	 -69.9893
| 33> H 	 -45.8938 	 -48.9087 	 -70.0543
| 34> H 	 -47.6466 	 -49.163 	 -70.2066
| 35> C 	 -46.3206 	 -50.7533 	 -71.029
| 36> H 	 -45.309 	 -51.1615 	 -70.8858
| 37> H 	 -46.5107 	 -50.3742 	 -72.0286
| 38> H 	 -47.114 	 -51.4462 	 -70.8344
| 39> H 	 -41.8847 	 -46.8749 	 -71.7965
| 40> H 	 -43.6513 	 -53.3608 	 -66.8779
| 41> *
| 42>
| 43>                          ****END OF INPUT****

CARTESIAN COORDINATES (ANGSTROEM)
---------------------------------
  S    -42.265600  -49.217400  -70.967800
  C    -42.333100  -47.450100  -71.010000
  C    -43.198900  -46.922200  -70.052300
  C    -43.667400  -47.885100  -69.103100
  C    -43.279900  -49.187200  -69.466600
  H    -44.367700  -47.640100  -68.345700
  C    -43.710000  -45.506900  -70.066300
  H    -42.950200  -44.902800  -70.569900
  H    -43.739700  -45.299700  -69.029900
  C    -45.009500  -45.142000  -70.875700
  H    -45.334700  -44.133900  -70.561800
  H    -44.846200  -45.145200  -71.890900
  C    -46.166800  -46.042400  -70.530100
  H    -46.280500  -46.173600  -69.404200
  H    -47.068100  -45.634100  -70.816400
  H    -46.236700  -47.047600  -70.976400
  S    -42.703700  -51.644400  -68.236300
  C    -43.815400  -52.393700  -67.306400
  C    -45.051400  -51.781400  -67.349600
  C    -45.073600  -50.595800  -68.154300
  C    -43.816500  -50.309900  -68.707400
  H    -45.860900  -52.264200  -66.810300
  C    -46.465200  -50.065000  -68.498600
  H    -46.659800  -49.203100  -67.914500
  H    -47.263500  -50.735700  -68.276500
  C    -46.639100  -49.662300  -69.989300
  H    -45.893800  -48.908700  -70.054300
  H    -47.646600  -49.163000  -70.206600
  C    -46.320600  -50.753300  -71.029000
  H    -45.309000  -51.161500  -70.885800
  H    -46.510700  -50.374200  -72.028600
  H    -47.114000  -51.446200  -70.834400
  H    -41.884700  -46.874900  -71.796500
  H    -43.651300  -53.360800  -66.877900

 Total Charge           Charge          ....    0
 Multiplicity           Mult            ....    1
 Number of Electrons    NEL             ....  134
 Basis Dimension        Dim             ....  322

ORBITAL ENERGIES
----------------

  NO   OCC          E(Eh)            E(eV)
   0   2.0000     -88.974482     -2421.1187
   1   2.0000     -88.961710     -2420.7712
   2   2.0000     -10.338814      -281.3334
   3   2.0000     -10.331792      -281.1423
   4   2.0000     -10.315410      -280.6966
   5   2.0000     -10.309252      -280.5290
   6   2.0000     -10.307028      -280.4685
   7   2.0000     -10.300403      -280.2882
   8   2.0000     -10.295591      -280.1573
   9   2.0000     -10.289189      -279.9831
  10   2.0000     -10.288739      -279.9708
  11   2.0000     -10.287587      -279.9395
  12   2.0000     -10.287229      -279.9297
  13   2.0000     -10.279552      -279.7208
  14   2.0000     -10.272131      -279.5189
  15   2.0000     -10.267965      -279.4055
  16   2.0000      -8.087346      -220.0679
  17   2.0000      -8.078521      -219.8277
  18   2.0000      -6.046001      -164.5201
  19   2.0000      -6.042263      -164.4183
  20   2.0000      -6.037922      -164.3002
  21   2.0000      -6.036677      -164.2663
  22   2.0000      -6.032627      -164.1561
  23   2.0000      -6.029618      -164.0742
  24   2.0000      -1.006505       -27.3884
  25   2.0000      -0.981738       -26.7144
  26   2.0000      -0.910940       -24.7880
  27   2.0000      -0.908655       -24.7258
  28   2.0000      -0.867888       -23.6164
  29   2.0000      -0.853042       -23.2125
  30   2.0000      -0.846385       -23.0313
  31   2.0000      -0.810522       -22.0554
  32   2.0000      -0.787526       -21.4297
  33   2.0000      -0.772379       -21.0175
  34   2.0000      -0.709816       -19.3151
  35   2.0000      -0.707473       -19.2513
  36   2.0000      -0.682711       -18.5775
  37   2.0000      -0.660931       -17.9849
  38   2.0000      -0.638481       -17.3739
  39   2.0000      -0.614284       -16.7155
  40   2.0000      -0.593473       -16.1492
  41   2.0000      -0.573546       -15.6070
  42   2.0000      -0.556183       -15.1345
  43   2.0000      -0.550906       -14.9909
  44   2.0000      -0.547233       -14.8910
  45   2.0000      -0.541874       -14.7451
  46   2.0000      -0.519842       -14.1456
  47   2.0000      -0.509412       -13.8618
  48   2.0000      -0.500204       -13.6112
  49   2.0000      -0.495679       -13.4881
  50   2.0000      -0.488942       -13.3048
  51   2.0000      -0.477428       -12.9915
  52   2.0000      -0.475381       -12.9358
  53   2.0000      -0.466139       -12.6843
  54   2.0000      -0.461339       -12.5537
  55   2.0000      -0.447423       -12.1750
  56   2.0000      -0.440184       -11.9780
  57   2.0000      -0.435811       -11.8590
  58   2.0000      -0.434399       -11.8206
  59   2.0000      -0.428014       -11.6468
  60   2.0000      -0.418880       -11.3983
  61   2.0000      -0.417937       -11.3726
  62   2.0000      -0.396448       -10.7879
  63   2.0000      -0.347942        -9.4680
  64   2.0000      -0.331545        -9.0218
  65   2.0000      -0.327546        -8.9130
  66   2.0000      -0.285968        -7.7816
  67   0.0000       0.021410         0.5826
  68   0.0000       0.071786         1.9534
  69   0.0000       0.100612         2.7378
  70   0.0000       0.122784         3.3411
  71   0.0000       0.125558         3.4166

MULLIKEN ATOMIC CHARGES
-----------------------
   0 S :    0.115296
   1 C :   -0.118221
   2 C :   -0.106312
   3 C :    0.042834
   4 C :   -0.118481
   5 H :    0.007446
   6 C :    0.065238
   7 H :    0.019365
   8 H :    0.021400
   9 C :    0.002758
  10 H :    0.033552
  11 H :    0.014049
  12 C :   -0.065556
  13 H :    0.020859
  14 H :    0.002860
  15 H :    0.047491
  16 S :    0.114207
  17 C :   -0.071696
  18 C :   -0.071692
  19 C :   -0.017515
  20 C :   -0.207709
  21 H :    0.019642
  22 C :    0.114311
  23 H :    0.018277
  24 H :    0.014652
  25 C :   -0.144283
  26 H :    0.028889
  27 H :    0.036565
  28 C :   -0.014201
  29 H :    0.053553
  30 H :    0.029609
  31 H :    0.015706
  32 H :    0.042739
  33 H :    0.054368
Sum of atomic charges:   -0.0000000

LOEWDIN ATOMIC CHARGES
----------------------
   0 S :    0.379479
   1 C :   -0.192343
   2 C :   -0.060499
   3 C :   -0.048236
   4 C :   -0.176147
   5 H :    0.027257
   6 C :   -0.029334
   7 H :    0.032330
   8 H :    0.025475
   9 C :   -0.023087
  10 H :    0.033078
  11 H :    0.014774
  12 C :   -0.072254
  13 H :    0.027566
  14 H :    0.013408
  15 H :    0.030226
  16 S :    0.438371
  17 C :   -0.215802
  18 C :   -0.081881
  19 C :   -0.049033
  20 C :   -0.194886
  21 H :    0.031718
  22 C :   -0.020738
  23 H :    0.027079
  24 H :    0.023396
  25 C :   -0.046602
  26 H :    0.009994
  27 H :    0.028629
  28 C :   -0.060005
  29 H :    0.030009
  30 H :    0.026042
  31 H :    0.019676
  32 H :    0.023780
  33 H :    0.028559

  Mayer bond orders larger than 0.100000
B(  0-S ,  1-C ) :   1.1194 B(  0-S ,  4-C ) :   1.1375 B(  1-C ,  2-C ) :   1.6111
B(  1-C , 32-H ) :   0.9682 B(  2-C ,  3-C ) :   1.2433 B(  2-C ,  6-C ) :   1.0278
B(  3-C ,  4-C ) :   1.5398 B(  3-C ,  5-H ) :   0.9938 B(  4-C , 20-C ) :   1.0867
B(  6-C ,  7-H ) :   0.9369 B(  6-C ,  8-H ) :   0.9399 B(  6-C ,  9-C ) :   1.0702
B(  9-C , 10-H ) :   0.9531 B(  9-C , 11-H ) :   0.9531 B(  9-C , 12-C ) :   1.0907
B( 12-C , 13-H ) :   0.9730 B( 12-C , 14-H ) :   0.9630 B( 12-C , 15-H ) :   0.9626
B( 16-S , 17-C ) :   1.2064 B( 16-S , 20-C ) :   1.1333 B( 17-C , 18-C ) :   1.5693
B( 17-C , 33-H ) :   0.9653 B( 18-C , 19-C ) :   1.2621 B( 18-C , 21-H ) :   0.9952
B( 19-C , 20-C ) :   1.5531 B( 19-C , 22-C ) :   1.0230 B( 22-C , 23-H ) :   0.9225
B( 22-C , 24-H ) :   0.9492 B( 22-C , 25-C ) :   1.0679 B( 25-C , 26-H ) :   0.9396
B( 25-C , 27-H ) :   0.9553 B( 25-C , 28-C ) :   1.0761 B( 28-C , 29-H ) :   0.9698
B( 28-C , 30-H ) :   0.9730 B( 28-C , 31-H ) :   0.9782

Dispersion correction           -0.017493954
FINAL SINGLE POINT ENERGY     -1339.857396943643

DIPOLE MOMENT
-------------
                                X             Y             Z
Electronic contribution:     22.24388     -14.92880       5.66692
Nuclear contribution   :    -22.88751      15.29725      -5.71643
                        -----------------------------------------
Total Dipole Moment    :     -0.64362       0.36845      -0.04951
                        -----------------------------------------
Magnitude (a.u.)       :      0.74327
Magnitude (Debye)      :      1.88925

Rotational constants in cm-1:     0.021004     0.010226     0.008233
Rotational constants in MHz :   629.681488   306.579453   246.826720

                             ****ORCA TERMINATED NORMALLY****
TOTAL RUN TIME: 0 days 0 hours 0 minutes 22 seconds 887 msec
