                         Program Version 4.2.1 -  RELEASE  -
|  1> ! wB97X-D3 SP def2-SVP
|  2> %pal
|  3> nprocs 24
|  4> end
|  5>
|  6> * xyz 0 1
|  7> S 	 -51.6031 	 -45.1281 	 -79.2873
|  8> C 	 -52.176 	 -44.4804 	 -80.8331
|  9> C 	 -51.6155 	 -43.2324 	 -81.0807
| 10> C 	 -50.6801 	 -42.8424 	 -80.006
| 11> C 	 -50.4619 	 -43.7908 	 -79.0123
| 12> H 	 -50.1956 	 -41.843 	 -79.9184
| 13> C 	 -52.1867 	 -42.2147 	 -82.0565
| 14> H 	 -52.2918 	 -41.2859 	 -81.55
| 15> H 	 -53.2308 	 -42.4378 	 -82.2692
| 16> C 	 -51.4104 	 -42.0247 	 -83.3582
| 17> H 	 -51.465 	 -42.9605 	 -83.9832
| 18> H 	 -51.8465 	 -41.2166 	 -83.9408
| 19> C 	 -49.9471 	 -41.7252 	 -83.0327
| 20> H 	 -49.4705 	 -42.6041 	 -82.666
| 21> H 	 -49.3193 	 -41.4632 	 -83.8865
| 22> H 	 -49.8004 	 -40.9964 	 -82.2186
| 23> S 	 -50.0664 	 -44.6637 	 -76.4864
| 24> C 	 -48.6229 	 -44.3464 	 -75.6603
| 25> C 	 -47.7344 	 -43.5517 	 -76.3598
| 26> C 	 -48.3366 	 -43.1419 	 -77.6408
| 27> C 	 -49.5847 	 -43.7419 	 -77.8551
| 28> H 	 -46.8402 	 -43.1994 	 -75.9065
| 29> C 	 -47.6773 	 -42.2342 	 -78.6562
| 30> H 	 -48.0652 	 -42.6007 	 -79.6369
| 31> H 	 -46.6495 	 -42.5461 	 -78.7162
| 32> C 	 -47.7336 	 -40.7086 	 -78.4853
| 33> H 	 -47.2036 	 -40.3945 	 -77.6139
| 34> H 	 -48.7608 	 -40.4139 	 -78.3417
| 35> C 	 -47.1524 	 -39.9731 	 -79.6386
| 36> H 	 -47.4708 	 -40.4386 	 -80.6139
| 37> H 	 -46.0545 	 -39.8313 	 -79.7333
| 38> H 	 -47.5633 	 -38.9035 	 -79.6219
| 39> H 	 -52.9911 	 -44.8969 	 -81.4103
| 40> H 	 -48.3659 	 -44.77 	 -74.6858
| 41> *
| 42>
| 43>                          ****END OF INPUT****

CARTESIAN COORDINATES (ANGSTROEM)
---------------------------------
  S    -51.603100  -45.128100  -79.287300
  C    -52.176000  -44.480400  -80.833100
  C    -51.615500  -43.232400  -81.080700
  C    -50.680100  -42.842400  -80.006000
  C    -50.461900  -43.790800  -79.012300
  H    -50.195600  -41.843000  -79.918400
  C    -52.186700  -42.214700  -82.056500
  H    -52.291800  -41.285900  -81.550000
  H    -53.230800  -42.437800  -82.269200
  C    -51.410400  -42.024700  -83.358200
  H    -51.465000  -42.960500  -83.983200
  H    -51.846500  -41.216600  -83.940800
  C    -49.947100  -41.725200  -83.032700
  H    -49.470500  -42.604100  -82.666000
  H    -49.319300  -41.463200  -83.886500
  H    -49.800400  -40.996400  -82.218600
  S    -50.066400  -44.663700  -76.486400
  C    -48.622900  -44.346400  -75.660300
  C    -47.734400  -43.551700  -76.359800
  C    -48.336600  -43.141900  -77.640800
  C    -49.584700  -43.741900  -77.855100
  H    -46.840200  -43.199400  -75.906500
  C    -47.677300  -42.234200  -78.656200
  H    -48.065200  -42.600700  -79.636900
  H    -46.649500  -42.546100  -78.716200
  C    -47.733600  -40.708600  -78.485300
  H    -47.203600  -40.394500  -77.613900
  H    -48.760800  -40.413900  -78.341700
  C    -47.152400  -39.973100  -79.638600
  H    -47.470800  -40.438600  -80.613900
  H    -46.054500  -39.831300  -79.733300
  H    -47.563300  -38.903500  -79.621900
  H    -52.991100  -44.896900  -81.410300
  H    -48.365900  -44.770000  -74.685800

 Total Charge           Charge          ....    0
 Multiplicity           Mult            ....    1
 Number of Electrons    NEL             ....  134
 Basis Dimension        Dim             ....  322

ORBITAL ENERGIES
----------------

  NO   OCC          E(Eh)            E(eV)
   0   2.0000     -88.967140     -2420.9190
   1   2.0000     -88.965239     -2420.8672
   2   2.0000     -10.335985      -281.2564
   3   2.0000     -10.327220      -281.0179
   4   2.0000     -10.319716      -280.8138
   5   2.0000     -10.316631      -280.7298
   6   2.0000     -10.310113      -280.5524
   7   2.0000     -10.307693      -280.4866
   8   2.0000     -10.301783      -280.3258
   9   2.0000     -10.297480      -280.2087
  10   2.0000     -10.289933      -280.0033
  11   2.0000     -10.289879      -280.0018
  12   2.0000     -10.289469      -279.9907
  13   2.0000     -10.287488      -279.9368
  14   2.0000     -10.285005      -279.8692
  15   2.0000     -10.272514      -279.5293
  16   2.0000      -8.083566      -219.9650
  17   2.0000      -8.079194      -219.8460
  18   2.0000      -6.041968      -164.4103
  19   2.0000      -6.037954      -164.3011
  20   2.0000      -6.037783      -164.2964
  21   2.0000      -6.034402      -164.2044
  22   2.0000      -6.033841      -164.1892
  23   2.0000      -6.029685      -164.0761
  24   2.0000      -1.010012       -27.4838
  25   2.0000      -0.980365       -26.6771
  26   2.0000      -0.914506       -24.8850
  27   2.0000      -0.913182       -24.8490
  28   2.0000      -0.871748       -23.7215
  29   2.0000      -0.857248       -23.3269
  30   2.0000      -0.835873       -22.7453
  31   2.0000      -0.817190       -22.2369
  32   2.0000      -0.783680       -21.3250
  33   2.0000      -0.771528       -20.9943
  34   2.0000      -0.706663       -19.2293
  35   2.0000      -0.702009       -19.1026
  36   2.0000      -0.695601       -18.9283
  37   2.0000      -0.665958       -18.1216
  38   2.0000      -0.636926       -17.3316
  39   2.0000      -0.615370       -16.7451
  40   2.0000      -0.594700       -16.1826
  41   2.0000      -0.574342       -15.6287
  42   2.0000      -0.568209       -15.4618
  43   2.0000      -0.547740       -14.9048
  44   2.0000      -0.542441       -14.7606
  45   2.0000      -0.527760       -14.3611
  46   2.0000      -0.515944       -14.0395
  47   2.0000      -0.510739       -13.8979
  48   2.0000      -0.509200       -13.8560
  49   2.0000      -0.504628       -13.7316
  50   2.0000      -0.495910       -13.4944
  51   2.0000      -0.474970       -12.9246
  52   2.0000      -0.471342       -12.8259
  53   2.0000      -0.462110       -12.5746
  54   2.0000      -0.460739       -12.5374
  55   2.0000      -0.448236       -12.1971
  56   2.0000      -0.438552       -11.9336
  57   2.0000      -0.436486       -11.8774
  58   2.0000      -0.436137       -11.8679
  59   2.0000      -0.427600       -11.6356
  60   2.0000      -0.423209       -11.5161
  61   2.0000      -0.414142       -11.2694
  62   2.0000      -0.410350       -11.1662
  63   2.0000      -0.361042        -9.8244
  64   2.0000      -0.332004        -9.0343
  65   2.0000      -0.325088        -8.8461
  66   2.0000      -0.287266        -7.8169
  67   0.0000       0.022855         0.6219
  68   0.0000       0.077575         2.1109
  69   0.0000       0.103849         2.8259
  70   0.0000       0.117328         3.1926
  71   0.0000       0.125634         3.4187

MULLIKEN ATOMIC CHARGES
-----------------------
   0 S :    0.086700
   1 C :   -0.111845
   2 C :   -0.079874
   3 C :   -0.022933
   4 C :   -0.112033
   5 H :    0.026123
   6 C :    0.047226
   7 H :    0.024931
   8 H :    0.018944
   9 C :   -0.050804
  10 H :    0.037372
  11 H :    0.031452
  12 C :   -0.065464
  13 H :    0.032762
  14 H :    0.032956
  15 H :    0.026089
  16 S :    0.116500
  17 C :   -0.089467
  18 C :   -0.011689
  19 C :   -0.069805
  20 C :   -0.130730
  21 H :    0.011297
  22 C :    0.024111
  23 H :    0.027224
  24 H :    0.012958
  25 C :    0.006634
  26 H :    0.020184
  27 H :    0.024562
  28 C :   -0.098751
  29 H :    0.033109
  30 H :    0.043576
  31 H :    0.041212
  32 H :    0.055369
  33 H :    0.062103
Sum of atomic charges:    0.0000000

LOEWDIN ATOMIC CHARGES
----------------------
   0 S :    0.375523
   1 C :   -0.184510
   2 C :   -0.061775
   3 C :   -0.072015
   4 C :   -0.181991
   5 H :    0.033856
   6 C :   -0.031578
   7 H :    0.029071
   8 H :    0.029626
   9 C :   -0.037985
  10 H :    0.030254
  11 H :    0.022360
  12 C :   -0.071134
  13 H :    0.023176
  14 H :    0.026177
  15 H :    0.021517
  16 S :    0.441242
  17 C :   -0.199457
  18 C :   -0.068313
  19 C :   -0.047992
  20 C :   -0.211767
  21 H :    0.028181
  22 C :   -0.041705
  23 H :    0.034427
  24 H :    0.028209
  25 C :   -0.039590
  26 H :    0.025030
  27 H :    0.023415
  28 C :   -0.076652
  29 H :    0.026617
  30 H :    0.027754
  31 H :    0.036036
  32 H :    0.031092
  33 H :    0.032900

  Mayer bond orders larger than 0.100000
B(  0-S ,  1-C ) :   1.1287 B(  0-S ,  4-C ) :   1.1240 B(  1-C ,  2-C ) :   1.6318
B(  1-C , 32-H ) :   0.9670 B(  2-C ,  3-C ) :   1.2110 B(  2-C ,  6-C ) :   1.0105
B(  3-C ,  4-C ) :   1.5858 B(  3-C ,  5-H ) :   0.9833 B(  4-C , 20-C ) :   1.0826
B(  6-C ,  7-H ) :   0.9474 B(  6-C ,  8-H ) :   0.9472 B(  6-C ,  9-C ) :   1.0710
B(  9-C , 10-H ) :   0.9552 B(  9-C , 11-H ) :   0.9572 B(  9-C , 12-C ) :   1.0789
B( 12-C , 13-H ) :   0.9661 B( 12-C , 14-H ) :   0.9718 B( 12-C , 15-H ) :   0.9732
B( 16-S , 17-C ) :   1.1777 B( 16-S , 20-C ) :   1.1392 B( 17-C , 18-C ) :   1.6004
B( 17-C , 33-H ) :   0.9633 B( 18-C , 19-C ) :   1.2402 B( 18-C , 21-H ) :   0.9981
B( 19-C , 20-C ) :   1.5706 B( 19-C , 22-C ) :   1.0510 B( 22-C , 23-H ) :   0.9314
B( 22-C , 24-H ) :   0.9265 B( 22-C , 25-C ) :   1.0622 B( 25-C , 26-H ) :   0.9454
B( 25-C , 27-H ) :   0.9517 B( 25-C , 28-C ) :   1.0836 B( 28-C , 29-H ) :   0.9720
B( 28-C , 30-H ) :   0.9742 B( 28-C , 31-H ) :   0.9728

Dispersion correction           -0.015031108
FINAL SINGLE POINT ENERGY     -1339.888025323826

DIPOLE MOMENT
-------------
                                X             Y             Z
Electronic contribution:    -10.44658     -22.93961      20.02669
Nuclear contribution   :     10.67402      23.50863     -20.17661
                        -----------------------------------------
Total Dipole Moment    :      0.22744       0.56902      -0.14992
                        -----------------------------------------
Magnitude (a.u.)       :      0.63087
Magnitude (Debye)      :      1.60353

Rotational constants in cm-1:     0.017232     0.010495     0.006778
Rotational constants in MHz :   516.603133   314.646358   203.201616

                             ****ORCA TERMINATED NORMALLY****
TOTAL RUN TIME: 0 days 0 hours 0 minutes 22 seconds 406 msec
