                         Program Version 4.2.1 -  RELEASE  -
|  1> ! wB97X-D3 SP def2-SVP
|  2> %pal
|  3> nprocs 24
|  4> end
|  5>
|  6> * xyz 0 1
|  7> S 	 -80.7084 	 -15.9765 	 -54.4317
|  8> C 	 -82.3659 	 -15.4107 	 -54.2055
|  9> C 	 -83.0993 	 -15.7889 	 -55.3331
| 10> C 	 -82.3492 	 -16.5672 	 -56.289
| 11> C 	 -81.0585 	 -16.7646 	 -55.9639
| 12> H 	 -82.8167 	 -16.9072 	 -57.3138
| 13> C 	 -84.5784 	 -15.4528 	 -55.436
| 14> H 	 -84.6874 	 -14.3664 	 -55.3529
| 15> H 	 -84.9505 	 -15.943 	 -54.584
| 16> C 	 -85.3855 	 -15.8345 	 -56.7305
| 17> H 	 -84.8253 	 -15.2667 	 -57.5517
| 18> H 	 -85.3909 	 -16.9246 	 -56.8921
| 19> C 	 -86.8513 	 -15.3251 	 -56.7478
| 20> H 	 -87.4907 	 -15.6356 	 -57.5676
| 21> H 	 -87.4041 	 -15.6693 	 -55.8645
| 22> H 	 -86.8612 	 -14.2525 	 -56.9489
| 23> S 	 -78.8678 	 -18.4211 	 -55.948
| 24> C 	 -77.8043 	 -18.4946 	 -57.3772
| 25> C 	 -78.3842 	 -17.7612 	 -58.377
| 26> C 	 -79.6536 	 -17.185 	 -58.0961
| 27> C 	 -79.9874 	 -17.3331 	 -56.759
| 28> H 	 -77.8326 	 -17.6912 	 -59.313
| 29> C 	 -80.3514 	 -16.2498 	 -59.0758
| 30> H 	 -79.9251 	 -15.2338 	 -58.883
| 31> H 	 -81.3866 	 -16.1336 	 -58.9596
| 32> C 	 -80.1505 	 -16.4288 	 -60.6207
| 33> H 	 -79.0738 	 -16.6137 	 -60.8314
| 34> H 	 -80.4892 	 -15.582 	 -61.1872
| 35> C 	 -80.8386 	 -17.7225 	 -61.1292
| 36> H 	 -80.5507 	 -18.6192 	 -60.5301
| 37> H 	 -80.6088 	 -17.8718 	 -62.2418
| 38> H 	 -81.9338 	 -17.6164 	 -61.0678
| 39> H 	 -82.7243 	 -14.7505 	 -53.3705
| 40> H 	 -76.8368 	 -19.0236 	 -57.415
| 41> *
| 42>
| 43>                          ****END OF INPUT****

CARTESIAN COORDINATES (ANGSTROEM)
---------------------------------
  S    -80.708400  -15.976500  -54.431700
  C    -82.365900  -15.410700  -54.205500
  C    -83.099300  -15.788900  -55.333100
  C    -82.349200  -16.567200  -56.289000
  C    -81.058500  -16.764600  -55.963900
  H    -82.816700  -16.907200  -57.313800
  C    -84.578400  -15.452800  -55.436000
  H    -84.687400  -14.366400  -55.352900
  H    -84.950500  -15.943000  -54.584000
  C    -85.385500  -15.834500  -56.730500
  H    -84.825300  -15.266700  -57.551700
  H    -85.390900  -16.924600  -56.892100
  C    -86.851300  -15.325100  -56.747800
  H    -87.490700  -15.635600  -57.567600
  H    -87.404100  -15.669300  -55.864500
  H    -86.861200  -14.252500  -56.948900
  S    -78.867800  -18.421100  -55.948000
  C    -77.804300  -18.494600  -57.377200
  C    -78.384200  -17.761200  -58.377000
  C    -79.653600  -17.185000  -58.096100
  C    -79.987400  -17.333100  -56.759000
  H    -77.832600  -17.691200  -59.313000
  C    -80.351400  -16.249800  -59.075800
  H    -79.925100  -15.233800  -58.883000
  H    -81.386600  -16.133600  -58.959600
  C    -80.150500  -16.428800  -60.620700
  H    -79.073800  -16.613700  -60.831400
  H    -80.489200  -15.582000  -61.187200
  C    -80.838600  -17.722500  -61.129200
  H    -80.550700  -18.619200  -60.530100
  H    -80.608800  -17.871800  -62.241800
  H    -81.933800  -17.616400  -61.067800
  H    -82.724300  -14.750500  -53.370500
  H    -76.836800  -19.023600  -57.415000

 Total Charge           Charge          ....    0
 Multiplicity           Mult            ....    1
 Number of Electrons    NEL             ....  134
 Basis Dimension        Dim             ....  322

ORBITAL ENERGIES
----------------

  NO   OCC          E(Eh)            E(eV)
   0   2.0000     -88.963894     -2420.8306
   1   2.0000     -88.963705     -2420.8255
   2   2.0000     -10.329114      -281.0695
   3   2.0000     -10.328099      -281.0419
   4   2.0000     -10.321737      -280.8687
   5   2.0000     -10.319498      -280.8078
   6   2.0000     -10.308629      -280.5120
   7   2.0000     -10.305168      -280.4179
   8   2.0000     -10.301008      -280.3047
   9   2.0000     -10.300414      -280.2885
  10   2.0000     -10.294994      -280.1410
  11   2.0000     -10.293618      -280.1036
  12   2.0000     -10.292008      -280.0598
  13   2.0000     -10.291172      -280.0370
  14   2.0000     -10.284888      -279.8660
  15   2.0000     -10.283154      -279.8188
  16   2.0000      -8.078222      -219.8196
  17   2.0000      -8.077945      -219.8121
  18   2.0000      -6.036847      -164.2710
  19   2.0000      -6.036568      -164.2634
  20   2.0000      -6.032706      -164.1583
  21   2.0000      -6.032422      -164.1506
  22   2.0000      -6.028930      -164.0555
  23   2.0000      -6.028708      -164.0495
  24   2.0000      -1.006894       -27.3990
  25   2.0000      -0.982696       -26.7405
  26   2.0000      -0.906879       -24.6774
  27   2.0000      -0.904016       -24.5995
  28   2.0000      -0.870997       -23.7010
  29   2.0000      -0.846987       -23.0477
  30   2.0000      -0.839915       -22.8553
  31   2.0000      -0.819501       -22.2998
  32   2.0000      -0.780609       -21.2414
  33   2.0000      -0.770284       -20.9605
  34   2.0000      -0.712514       -19.3885
  35   2.0000      -0.695055       -18.9134
  36   2.0000      -0.688708       -18.7407
  37   2.0000      -0.653098       -17.7717
  38   2.0000      -0.637232       -17.3400
  39   2.0000      -0.615230       -16.7412
  40   2.0000      -0.602344       -16.3906
  41   2.0000      -0.578758       -15.7488
  42   2.0000      -0.560457       -15.2508
  43   2.0000      -0.546412       -14.8686
  44   2.0000      -0.538682       -14.6583
  45   2.0000      -0.524370       -14.2688
  46   2.0000      -0.520405       -14.1609
  47   2.0000      -0.506017       -13.7694
  48   2.0000      -0.502999       -13.6873
  49   2.0000      -0.495672       -13.4879
  50   2.0000      -0.495073       -13.4716
  51   2.0000      -0.478749       -13.0274
  52   2.0000      -0.475364       -12.9353
  53   2.0000      -0.465850       -12.6764
  54   2.0000      -0.455595       -12.3974
  55   2.0000      -0.453686       -12.3454
  56   2.0000      -0.444586       -12.0978
  57   2.0000      -0.435410       -11.8481
  58   2.0000      -0.426036       -11.5930
  59   2.0000      -0.422057       -11.4848
  60   2.0000      -0.416732       -11.3399
  61   2.0000      -0.413362       -11.2482
  62   2.0000      -0.408766       -11.1231
  63   2.0000      -0.351296        -9.5592
  64   2.0000      -0.330285        -8.9875
  65   2.0000      -0.328340        -8.9346
  66   2.0000      -0.291470        -7.9313
  67   0.0000       0.026267         0.7147
  68   0.0000       0.071881         1.9560
  69   0.0000       0.114087         3.1045
  70   0.0000       0.122196         3.3251
  71   0.0000       0.127489         3.4691

MULLIKEN ATOMIC CHARGES
-----------------------
   0 S :    0.105019
   1 C :   -0.151846
   2 C :   -0.110580
   3 C :   -0.021042
   4 C :   -0.110064
   5 H :    0.060068
   6 C :    0.057472
   7 H :    0.037298
   8 H :    0.033284
   9 C :   -0.122429
  10 H :    0.041214
  11 H :    0.047065
  12 C :   -0.043938
  13 H :    0.027338
  14 H :    0.039693
  15 H :    0.031352
  16 S :    0.095049
  17 C :   -0.104151
  18 C :   -0.052301
  19 C :    0.007052
  20 C :   -0.164089
  21 H :    0.024978
  22 C :    0.059768
  23 H :    0.050995
  24 H :    0.004307
  25 C :   -0.075808
  26 H :    0.029389
  27 H :    0.034180
  28 C :   -0.101140
  29 H :    0.052028
  30 H :    0.045493
  31 H :    0.027527
  32 H :    0.074519
  33 H :    0.072299
Sum of atomic charges:    0.0000000

LOEWDIN ATOMIC CHARGES
----------------------
   0 S :    0.398744
   1 C :   -0.207541
   2 C :   -0.063225
   3 C :   -0.082320
   4 C :   -0.192896
   5 H :    0.050895
   6 C :   -0.034731
   7 H :    0.035033
   8 H :    0.027639
   9 C :   -0.046685
  10 H :    0.031244
  11 H :    0.024232
  12 C :   -0.073746
  13 H :    0.028037
  14 H :    0.028074
  15 H :    0.027409
  16 S :    0.386822
  17 C :   -0.178716
  18 C :   -0.074182
  19 C :   -0.056471
  20 C :   -0.189793
  21 H :    0.033041
  22 C :   -0.030283
  23 H :    0.045590
  24 H :    0.017721
  25 C :   -0.039559
  26 H :    0.022494
  27 H :    0.024714
  28 C :   -0.078245
  29 H :    0.030594
  30 H :    0.032163
  31 H :    0.020100
  32 H :    0.044411
  33 H :    0.039436

  Mayer bond orders larger than 0.100000
B(  0-S ,  1-C ) :   1.1289 B(  0-S ,  4-C ) :   1.1505 B(  1-C ,  2-C ) :   1.6052
B(  1-C , 32-H ) :   0.9702 B(  2-C ,  3-C ) :   1.2559 B(  2-C ,  6-C ) :   0.9939
B(  3-C ,  4-C ) :   1.5834 B(  3-C ,  5-H ) :   0.9679 B(  4-C , 20-C ) :   1.0354
B(  6-C ,  7-H ) :   0.9446 B(  6-C ,  8-H ) :   0.9410 B(  6-C ,  9-C ) :   1.0738
B(  9-C , 10-H ) :   0.9569 B(  9-C , 11-H ) :   0.9532 B(  9-C , 12-C ) :   1.0816
B( 12-C , 13-H ) :   0.9725 B( 12-C , 14-H ) :   0.9753 B( 12-C , 15-H ) :   0.9740
B( 16-S , 17-C ) :   1.1332 B( 16-S , 20-C ) :   1.1479 B( 17-C , 18-C ) :   1.6262
B( 17-C , 20-C ) :   0.1031 B( 17-C , 33-H ) :   0.9657 B( 18-C , 19-C ) :   1.2242
B( 18-C , 21-H ) :   0.9844 B( 19-C , 20-C ) :   1.5877 B( 19-C , 22-C ) :   1.0377
B( 22-C , 23-H ) :   0.9296 B( 22-C , 24-H ) :   0.9401 B( 22-C , 25-C ) :   1.0749
B( 25-C , 26-H ) :   0.9543 B( 25-C , 27-H ) :   0.9552 B( 25-C , 28-C ) :   1.0708
B( 28-C , 29-H ) :   0.9759 B( 28-C , 30-H ) :   0.9753 B( 28-C , 31-H ) :   0.9759

Dispersion correction           -0.013769280
FINAL SINGLE POINT ENERGY     -1339.874997856476

DIPOLE MOMENT
-------------
                                X             Y             Z
Electronic contribution:     21.90619      -6.28878      21.28559
Nuclear contribution   :    -22.33028       6.63954     -21.86240
                        -----------------------------------------
Total Dipole Moment    :     -0.42409       0.35076      -0.57681
                        -----------------------------------------
Magnitude (a.u.)       :      0.79724
Magnitude (Debye)      :      2.02642

Rotational constants in cm-1:     0.017184     0.008766     0.006234
Rotational constants in MHz :   515.171978   262.787994   186.882253

                             ****ORCA TERMINATED NORMALLY****
TOTAL RUN TIME: 0 days 0 hours 0 minutes 20 seconds 97 msec
