                         Program Version 4.2.1 -  RELEASE  -
|  1> ! wB97X-D3 SP def2-SVP
|  2> %pal
|  3> nprocs 24
|  4> end
|  5>
|  6> * xyz 0 1
|  7> S 	 29.1819 	 -30.2778 	 -130.366
|  8> C 	 28.8944 	 -28.5529 	 -130.931
|  9> C 	 30.1359 	 -27.8596 	 -131.02
| 10> C 	 31.2803 	 -28.7931 	 -130.93
| 11> C 	 30.91 	 -30.0422 	 -130.535
| 12> H 	 32.3106 	 -28.5078 	 -130.994
| 13> C 	 30.3228 	 -26.4388 	 -131.488
| 14> H 	 29.7026 	 -26.1942 	 -132.298
| 15> H 	 31.3474 	 -26.4057 	 -131.989
| 16> C 	 29.907 	 -25.4236 	 -130.516
| 17> H 	 28.9233 	 -25.5614 	 -130.044
| 18> H 	 30.6364 	 -25.5436 	 -129.671
| 19> C 	 29.9852 	 -23.9264 	 -130.969
| 20> H 	 30.9434 	 -23.7513 	 -131.497
| 21> H 	 29.2234 	 -23.7185 	 -131.69
| 22> H 	 29.8504 	 -23.262 	 -130.102
| 23> S 	 32.4989 	 -31.8977 	 -131.831
| 24> C 	 33.3659 	 -33.064 	 -130.824
| 25> C 	 33.232 	 -32.7658 	 -129.501
| 26> C 	 32.2161 	 -31.8186 	 -129.218
| 27> C 	 31.8168 	 -31.1598 	 -130.407
| 28> H 	 33.6239 	 -33.3814 	 -128.728
| 29> C 	 31.7046 	 -31.5157 	 -127.771
| 30> H 	 31.8129 	 -32.4249 	 -127.177
| 31> H 	 30.5863 	 -31.3444 	 -127.929
| 32> C 	 32.5005 	 -30.51 	 -127.058
| 33> H 	 32.2409 	 -29.5461 	 -127.572
| 34> H 	 33.58 	 -30.623 	 -127.24
| 35> C 	 32.2252 	 -30.5034 	 -125.543
| 36> H 	 32.6285 	 -29.6231 	 -125.12
| 37> H 	 32.6575 	 -31.3689 	 -125.148
| 38> H 	 31.1281 	 -30.5276 	 -125.347
| 39> H 	 27.9389 	 -28.0897 	 -131.11
| 40> H 	 33.9122 	 -33.899 	 -131.175
| 41> *
| 42>
| 43>                          ****END OF INPUT****

CARTESIAN COORDINATES (ANGSTROEM)
---------------------------------
  S     29.181900  -30.277800  -130.366000
  C     28.894400  -28.552900  -130.931000
  C     30.135900  -27.859600  -131.020000
  C     31.280300  -28.793100  -130.930000
  C     30.910000  -30.042200  -130.535000
  H     32.310600  -28.507800  -130.994000
  C     30.322800  -26.438800  -131.488000
  H     29.702600  -26.194200  -132.298000
  H     31.347400  -26.405700  -131.989000
  C     29.907000  -25.423600  -130.516000
  H     28.923300  -25.561400  -130.044000
  H     30.636400  -25.543600  -129.671000
  C     29.985200  -23.926400  -130.969000
  H     30.943400  -23.751300  -131.497000
  H     29.223400  -23.718500  -131.690000
  H     29.850400  -23.262000  -130.102000
  S     32.498900  -31.897700  -131.831000
  C     33.365900  -33.064000  -130.824000
  C     33.232000  -32.765800  -129.501000
  C     32.216100  -31.818600  -129.218000
  C     31.816800  -31.159800  -130.407000
  H     33.623900  -33.381400  -128.728000
  C     31.704600  -31.515700  -127.771000
  H     31.812900  -32.424900  -127.177000
  H     30.586300  -31.344400  -127.929000
  C     32.500500  -30.510000  -127.058000
  H     32.240900  -29.546100  -127.572000
  H     33.580000  -30.623000  -127.240000
  C     32.225200  -30.503400  -125.543000
  H     32.628500  -29.623100  -125.120000
  H     32.657500  -31.368900  -125.148000
  H     31.128100  -30.527600  -125.347000
  H     27.938900  -28.089700  -131.110000
  H     33.912200  -33.899000  -131.175000

 Total Charge           Charge          ....    0
 Multiplicity           Mult            ....    1
 Number of Electrons    NEL             ....  134
 Basis Dimension        Dim             ....  322

ORBITAL ENERGIES
----------------

  NO   OCC          E(Eh)            E(eV)
   0   2.0000     -88.968898     -2420.9668
   1   2.0000     -88.967456     -2420.9275
   2   2.0000     -10.326259      -280.9918
   3   2.0000     -10.324358      -280.9401
   4   2.0000     -10.323076      -280.9052
   5   2.0000     -10.313792      -280.6525
   6   2.0000     -10.311078      -280.5787
   7   2.0000     -10.302910      -280.3564
   8   2.0000     -10.295187      -280.1463
   9   2.0000     -10.293551      -280.1018
  10   2.0000     -10.289540      -279.9926
  11   2.0000     -10.287717      -279.9430
  12   2.0000     -10.287244      -279.9301
  13   2.0000     -10.282038      -279.7885
  14   2.0000     -10.281663      -279.7783
  15   2.0000     -10.271907      -279.5128
  16   2.0000      -8.081920      -219.9202
  17   2.0000      -8.081787      -219.9166
  18   2.0000      -6.040656      -164.3746
  19   2.0000      -6.040297      -164.3648
  20   2.0000      -6.036752      -164.2684
  21   2.0000      -6.036332      -164.2569
  22   2.0000      -6.032597      -164.1553
  23   2.0000      -6.032449      -164.1513
  24   2.0000      -1.001844       -27.2616
  25   2.0000      -0.974430       -26.5156
  26   2.0000      -0.918419       -24.9914
  27   2.0000      -0.913020       -24.8445
  28   2.0000      -0.866174       -23.5698
  29   2.0000      -0.848529       -23.0896
  30   2.0000      -0.842100       -22.9147
  31   2.0000      -0.813058       -22.1244
  32   2.0000      -0.784684       -21.3523
  33   2.0000      -0.770680       -20.9713
  34   2.0000      -0.703907       -19.1543
  35   2.0000      -0.698593       -19.0097
  36   2.0000      -0.688664       -18.7395
  37   2.0000      -0.662515       -18.0280
  38   2.0000      -0.641081       -17.4447
  39   2.0000      -0.617680       -16.8079
  40   2.0000      -0.596742       -16.2382
  41   2.0000      -0.568098       -15.4587
  42   2.0000      -0.565245       -15.3811
  43   2.0000      -0.558729       -15.2038
  44   2.0000      -0.530020       -14.4226
  45   2.0000      -0.527784       -14.3617
  46   2.0000      -0.517929       -14.0936
  47   2.0000      -0.513430       -13.9711
  48   2.0000      -0.506328       -13.7779
  49   2.0000      -0.499922       -13.6036
  50   2.0000      -0.491953       -13.3867
  51   2.0000      -0.474846       -12.9212
  52   2.0000      -0.469928       -12.7874
  53   2.0000      -0.460681       -12.5358
  54   2.0000      -0.453538       -12.3414
  55   2.0000      -0.450802       -12.2669
  56   2.0000      -0.448812       -12.2128
  57   2.0000      -0.443831       -12.0773
  58   2.0000      -0.440518       -11.9871
  59   2.0000      -0.420063       -11.4305
  60   2.0000      -0.417511       -11.3611
  61   2.0000      -0.406131       -11.0514
  62   2.0000      -0.401062       -10.9134
  63   2.0000      -0.338024        -9.1981
  64   2.0000      -0.332078        -9.0363
  65   2.0000      -0.324484        -8.8296
  66   2.0000      -0.297196        -8.0871
  67   0.0000       0.040669         1.1067
  68   0.0000       0.051629         1.4049
  69   0.0000       0.100106         2.7240
  70   0.0000       0.110280         3.0009
  71   0.0000       0.125994         3.4285

MULLIKEN ATOMIC CHARGES
-----------------------
   0 S :    0.104640
   1 C :   -0.120423
   2 C :   -0.080789
   3 C :    0.024578
   4 C :   -0.144365
   5 H :    0.015586
   6 C :    0.079897
   7 H :    0.005440
   8 H :    0.036887
   9 C :   -0.116498
  10 H :    0.039118
  11 H :    0.025014
  12 C :   -0.043022
  13 H :    0.032195
  14 H :    0.026129
  15 H :    0.046619
  16 S :    0.126386
  17 C :   -0.085930
  18 C :    0.004198
  19 C :   -0.075664
  20 C :   -0.177855
  21 H :    0.005299
  22 C :    0.075977
  23 H :    0.005754
  24 H :    0.042417
  25 C :   -0.095251
  26 H :    0.031357
  27 H :    0.031618
  28 C :    0.001843
  29 H :    0.029935
  30 H :    0.021438
  31 H :    0.033820
  32 H :    0.048514
  33 H :    0.045138
Sum of atomic charges:    0.0000000

LOEWDIN ATOMIC CHARGES
----------------------
   0 S :    0.374997
   1 C :   -0.173300
   2 C :   -0.045659
   3 C :   -0.060369
   4 C :   -0.191997
   5 H :    0.031451
   6 C :   -0.046676
   7 H :    0.024019
   8 H :    0.042108
   9 C :   -0.047713
  10 H :    0.028310
  11 H :    0.024354
  12 C :   -0.064517
  13 H :    0.027494
  14 H :    0.017921
  15 H :    0.031966
  16 S :    0.409896
  17 C :   -0.174064
  18 C :   -0.068936
  19 C :   -0.048630
  20 C :   -0.213309
  21 H :    0.025926
  22 C :   -0.036179
  23 H :    0.024394
  24 H :    0.035616
  25 C :   -0.049736
  26 H :    0.028643
  27 H :    0.026942
  28 C :   -0.053062
  29 H :    0.022852
  30 H :    0.016897
  31 H :    0.031539
  32 H :    0.025295
  33 H :    0.023526

  Mayer bond orders larger than 0.100000
B(  0-S ,  1-C ) :   1.1111 B(  0-S ,  4-C ) :   1.1298 B(  1-C ,  2-C ) :   1.6350
B(  1-C , 32-H ) :   0.9706 B(  2-C ,  3-C ) :   1.1909 B(  2-C ,  6-C ) :   1.0248
B(  3-C ,  4-C ) :   1.6257 B(  3-C ,  5-H ) :   0.9929 B(  4-C , 20-C ) :   1.0293
B(  6-C ,  7-H ) :   0.9352 B(  6-C ,  8-H ) :   0.9429 B(  6-C ,  9-C ) :   1.0438
B(  9-C , 10-H ) :   0.9579 B(  9-C , 11-H ) :   0.9548 B(  9-C , 12-C ) :   1.0787
B( 12-C , 13-H ) :   0.9743 B( 12-C , 14-H ) :   0.9749 B( 12-C , 15-H ) :   0.9756
B( 16-S , 17-C ) :   1.1478 B( 16-S , 20-C ) :   1.1520 B( 17-C , 18-C ) :   1.6098
B( 17-C , 20-C ) :   0.1010 B( 17-C , 33-H ) :   0.9727 B( 18-C , 19-C ) :   1.2711
B( 18-C , 21-H ) :   0.9796 B( 19-C , 20-C ) :   1.5723 B( 19-C , 22-C ) :   1.0346
B( 22-C , 23-H ) :   0.9325 B( 22-C , 24-H ) :   0.9235 B( 22-C , 25-C ) :   1.0689
B( 25-C , 26-H ) :   0.9498 B( 25-C , 27-H ) :   0.9550 B( 25-C , 28-C ) :   1.0747
B( 28-C , 29-H ) :   0.9737 B( 28-C , 30-H ) :   0.9741 B( 28-C , 31-H ) :   0.9737

Dispersion correction           -0.013966114
FINAL SINGLE POINT ENERGY     -1339.860159146187

DIPOLE MOMENT
-------------
                                X             Y             Z
Electronic contribution:     -1.31664     -21.11411     -15.09855
Nuclear contribution   :      1.46008      21.42374      15.34597
                        -----------------------------------------
Total Dipole Moment    :      0.14344       0.30963       0.24742
                        -----------------------------------------
Magnitude (a.u.)       :      0.42150
Magnitude (Debye)      :      1.07136

Rotational constants in cm-1:     0.018494     0.007784     0.006527
Rotational constants in MHz :   554.432866   233.351870   195.686740

                             ****ORCA TERMINATED NORMALLY****
TOTAL RUN TIME: 0 days 0 hours 0 minutes 19 seconds 952 msec
