                         Program Version 4.2.1 -  RELEASE  -
|  1> ! wB97X-D3 SP def2-SVP
|  2> %pal
|  3> nprocs 24
|  4> end
|  5>
|  6> * xyz 0 1
|  7> S 	 -86.5522 	 -33.8043 	 -67.9078
|  8> C 	 -86.3039 	 -35.1873 	 -68.9377
|  9> C 	 -87.2902 	 -36.1787 	 -68.7991
| 10> C 	 -88.2395 	 -35.8468 	 -67.7614
| 11> C 	 -87.9587 	 -34.5741 	 -67.2336
| 12> H 	 -89.0587 	 -36.4415 	 -67.4913
| 13> C 	 -87.3806 	 -37.4266 	 -69.6366
| 14> H 	 -88.3261 	 -37.8901 	 -69.2891
| 15> H 	 -86.5559 	 -38.0923 	 -69.4056
| 16> C 	 -87.564 	 -37.2501 	 -71.1221
| 17> H 	 -86.8356 	 -36.5894 	 -71.6107
| 18> H 	 -87.3821 	 -38.2709 	 -71.5326
| 19> C 	 -89.0362 	 -36.9854 	 -71.4849
| 20> H 	 -89.457 	 -36.1694 	 -70.8964
| 21> H 	 -89.153 	 -36.8694 	 -72.5324
| 22> H 	 -89.7575 	 -37.8264 	 -71.2083
| 23> S 	 -87.6365 	 -33.5452 	 -64.6992
| 24> C 	 -89.05 	 -32.7668 	 -63.9972
| 25> C 	 -90.1911 	 -33.0287 	 -64.7038
| 26> C 	 -89.9858 	 -33.764 	 -65.8945
| 27> C 	 -88.6607 	 -34.0167 	 -66.0908
| 28> H 	 -91.0897 	 -32.5061 	 -64.3564
| 29> C 	 -91.0986 	 -34.039 	 -66.8699
| 30> H 	 -92.0479 	 -34.3828 	 -66.3773
| 31> H 	 -90.8464 	 -35.0354 	 -67.3638
| 32> C 	 -91.4431 	 -33.1211 	 -67.9997
| 33> H 	 -91.9113 	 -32.3519 	 -67.3947
| 34> H 	 -92.3517 	 -33.568 	 -68.5528
| 35> C 	 -90.2761 	 -32.605 	 -68.8645
| 36> H 	 -90.581 	 -31.8573 	 -69.5843
| 37> H 	 -89.8328 	 -33.3612 	 -69.5353
| 38> H 	 -89.5646 	 -32.192 	 -68.2129
| 39> H 	 -85.5378 	 -35.2313 	 -69.7014
| 40> H 	 -89.0016 	 -32.1482 	 -63.1246
| 41> *
| 42>
| 43>                          ****END OF INPUT****

CARTESIAN COORDINATES (ANGSTROEM)
---------------------------------
  S    -86.552200  -33.804300  -67.907800
  C    -86.303900  -35.187300  -68.937700
  C    -87.290200  -36.178700  -68.799100
  C    -88.239500  -35.846800  -67.761400
  C    -87.958700  -34.574100  -67.233600
  H    -89.058700  -36.441500  -67.491300
  C    -87.380600  -37.426600  -69.636600
  H    -88.326100  -37.890100  -69.289100
  H    -86.555900  -38.092300  -69.405600
  C    -87.564000  -37.250100  -71.122100
  H    -86.835600  -36.589400  -71.610700
  H    -87.382100  -38.270900  -71.532600
  C    -89.036200  -36.985400  -71.484900
  H    -89.457000  -36.169400  -70.896400
  H    -89.153000  -36.869400  -72.532400
  H    -89.757500  -37.826400  -71.208300
  S    -87.636500  -33.545200  -64.699200
  C    -89.050000  -32.766800  -63.997200
  C    -90.191100  -33.028700  -64.703800
  C    -89.985800  -33.764000  -65.894500
  C    -88.660700  -34.016700  -66.090800
  H    -91.089700  -32.506100  -64.356400
  C    -91.098600  -34.039000  -66.869900
  H    -92.047900  -34.382800  -66.377300
  H    -90.846400  -35.035400  -67.363800
  C    -91.443100  -33.121100  -67.999700
  H    -91.911300  -32.351900  -67.394700
  H    -92.351700  -33.568000  -68.552800
  C    -90.276100  -32.605000  -68.864500
  H    -90.581000  -31.857300  -69.584300
  H    -89.832800  -33.361200  -69.535300
  H    -89.564600  -32.192000  -68.212900
  H    -85.537800  -35.231300  -69.701400
  H    -89.001600  -32.148200  -63.124600

 Total Charge           Charge          ....    0
 Multiplicity           Mult            ....    1
 Number of Electrons    NEL             ....  134
 Basis Dimension        Dim             ....  322

ORBITAL ENERGIES
----------------

  NO   OCC          E(Eh)            E(eV)
   0   2.0000     -88.972759     -2421.0719
   1   2.0000     -88.962958     -2420.8051
   2   2.0000     -10.327927      -281.0372
   3   2.0000     -10.324499      -280.9439
   4   2.0000     -10.313317      -280.6396
   5   2.0000     -10.312272      -280.6112
   6   2.0000     -10.302031      -280.3325
   7   2.0000     -10.300475      -280.2902
   8   2.0000     -10.294482      -280.1271
   9   2.0000     -10.292606      -280.0761
  10   2.0000     -10.290863      -280.0286
  11   2.0000     -10.290815      -280.0273
  12   2.0000     -10.290691      -280.0239
  13   2.0000     -10.287957      -279.9495
  14   2.0000     -10.280491      -279.7464
  15   2.0000     -10.270285      -279.4687
  16   2.0000      -8.087212      -220.0642
  17   2.0000      -8.077344      -219.7957
  18   2.0000      -6.045569      -164.5083
  19   2.0000      -6.041757      -164.4046
  20   2.0000      -6.038150      -164.3064
  21   2.0000      -6.035841      -164.2436
  22   2.0000      -6.032061      -164.1407
  23   2.0000      -6.027978      -164.0296
  24   2.0000      -1.005739       -27.3675
  25   2.0000      -0.981661       -26.7124
  26   2.0000      -0.916587       -24.9416
  27   2.0000      -0.908994       -24.7350
  28   2.0000      -0.865631       -23.5550
  29   2.0000      -0.852931       -23.2094
  30   2.0000      -0.844685       -22.9851
  31   2.0000      -0.809321       -22.0227
  32   2.0000      -0.786946       -21.4139
  33   2.0000      -0.773867       -21.0580
  34   2.0000      -0.707153       -19.2426
  35   2.0000      -0.703199       -19.1350
  36   2.0000      -0.688280       -18.7291
  37   2.0000      -0.660192       -17.9647
  38   2.0000      -0.640682       -17.4338
  39   2.0000      -0.611360       -16.6359
  40   2.0000      -0.594174       -16.1683
  41   2.0000      -0.570023       -15.5111
  42   2.0000      -0.562785       -15.3141
  43   2.0000      -0.551025       -14.9942
  44   2.0000      -0.544711       -14.8224
  45   2.0000      -0.530590       -14.4381
  46   2.0000      -0.514196       -13.9920
  47   2.0000      -0.506047       -13.7702
  48   2.0000      -0.502886       -13.6842
  49   2.0000      -0.489509       -13.3202
  50   2.0000      -0.487082       -13.2542
  51   2.0000      -0.477598       -12.9961
  52   2.0000      -0.472542       -12.8585
  53   2.0000      -0.469570       -12.7776
  54   2.0000      -0.462087       -12.5740
  55   2.0000      -0.449630       -12.2350
  56   2.0000      -0.442720       -12.0470
  57   2.0000      -0.438970       -11.9450
  58   2.0000      -0.434278       -11.8173
  59   2.0000      -0.427364       -11.6292
  60   2.0000      -0.420546       -11.4436
  61   2.0000      -0.409302       -11.1377
  62   2.0000      -0.393817       -10.7163
  63   2.0000      -0.344198        -9.3661
  64   2.0000      -0.334769        -9.1095
  65   2.0000      -0.328533        -8.9398
  66   2.0000      -0.288752        -7.8573
  67   0.0000       0.027495         0.7482
  68   0.0000       0.068082         1.8526
  69   0.0000       0.107502         2.9253
  70   0.0000       0.114040         3.1032
  71   0.0000       0.127871         3.4795

MULLIKEN ATOMIC CHARGES
-----------------------
   0 S :    0.136447
   1 C :   -0.127147
   2 C :   -0.096146
   3 C :    0.050763
   4 C :   -0.162301
   5 H :    0.006597
   6 C :    0.061891
   7 H :    0.011612
   8 H :    0.045030
   9 C :   -0.062999
  10 H :    0.038040
  11 H :    0.028507
  12 C :   -0.068093
  13 H :    0.035701
  14 H :    0.033234
  15 H :    0.030829
  16 S :    0.098726
  17 C :   -0.094668
  18 C :   -0.038955
  19 C :   -0.001329
  20 C :   -0.170359
  21 H :    0.024466
  22 C :    0.023508
  23 H :    0.029897
  24 H :    0.002353
  25 C :   -0.062360
  26 H :    0.012065
  27 H :    0.036157
  28 C :   -0.009856
  29 H :    0.027007
  30 H :    0.040562
  31 H :    0.030550
  32 H :    0.042358
  33 H :    0.047914
Sum of atomic charges:   -0.0000000

LOEWDIN ATOMIC CHARGES
----------------------
   0 S :    0.426938
   1 C :   -0.205803
   2 C :   -0.059175
   3 C :   -0.049885
   4 C :   -0.197740
   5 H :    0.022475
   6 C :   -0.036344
   7 H :    0.033109
   8 H :    0.034421
   9 C :   -0.042411
  10 H :    0.024067
  11 H :    0.030848
  12 C :   -0.068555
  13 H :    0.023107
  14 H :    0.020725
  15 H :    0.031932
  16 S :    0.375731
  17 C :   -0.176562
  18 C :   -0.071728
  19 C :   -0.064666
  20 C :   -0.176226
  21 H :    0.036197
  22 C :   -0.047672
  23 H :    0.037874
  24 H :    0.027544
  25 C :   -0.046541
  26 H :    0.020016
  27 H :    0.033872
  28 C :   -0.061483
  29 H :    0.027191
  30 H :    0.031254
  31 H :    0.020821
  32 H :    0.022820
  33 H :    0.023848

  Mayer bond orders larger than 0.100000
B(  0-S ,  1-C ) :   1.1419 B(  0-S ,  4-C ) :   1.1670 B(  1-C ,  2-C ) :   1.5886
B(  1-C , 32-H ) :   0.9691 B(  2-C ,  3-C ) :   1.2638 B(  2-C ,  6-C ) :   1.0170
B(  3-C ,  4-C ) :   1.5394 B(  3-C ,  5-H ) :   0.9920 B(  4-C , 20-C ) :   1.0459
B(  6-C ,  7-H ) :   0.9407 B(  6-C ,  8-H ) :   0.9357 B(  6-C ,  9-C ) :   1.0755
B(  9-C , 10-H ) :   0.9594 B(  9-C , 11-H ) :   0.9499 B(  9-C , 12-C ) :   1.0737
B( 12-C , 13-H ) :   0.9795 B( 12-C , 14-H ) :   0.9745 B( 12-C , 15-H ) :   0.9695
B( 16-S , 17-C ) :   1.1311 B( 16-S , 20-C ) :   1.1349 B( 17-C , 18-C ) :   1.6497
B( 17-C , 33-H ) :   0.9683 B( 18-C , 19-C ) :   1.2017 B( 18-C , 21-H ) :   0.9889
B( 19-C , 20-C ) :   1.6280 B( 19-C , 22-C ) :   1.0425 B( 22-C , 23-H ) :   0.9343
B( 22-C , 24-H ) :   0.9201 B( 22-C , 25-C ) :   1.0732 B( 25-C , 26-H ) :   0.9539
B( 25-C , 27-H ) :   0.9483 B( 25-C , 28-C ) :   1.0764 B( 28-C , 29-H ) :   0.9709
B( 28-C , 30-H ) :   0.9721 B( 28-C , 31-H ) :   0.9683

Dispersion correction           -0.016021751
FINAL SINGLE POINT ENERGY     -1339.873889516916

DIPOLE MOMENT
-------------
                                X             Y             Z
Electronic contribution:     15.52510       8.84150      21.44880
Nuclear contribution   :    -15.89632      -9.06038     -21.84479
                        -----------------------------------------
Total Dipole Moment    :     -0.37122      -0.21889      -0.39599
                        -----------------------------------------
Magnitude (a.u.)       :      0.58526
Magnitude (Debye)      :      1.48762

Rotational constants in cm-1:     0.021772     0.009317     0.007596
Rotational constants in MHz :   652.706189   279.320009   227.715187

                             ****ORCA TERMINATED NORMALLY****
TOTAL RUN TIME: 0 days 0 hours 0 minutes 23 seconds 57 msec
