                         Program Version 4.2.1 -  RELEASE  -
|  1> ! wB97X-D3 SP def2-SVP
|  2> %pal
|  3> nprocs 24
|  4> end
|  5>
|  6> * xyz 0 1
|  7> S 	 46.6911 	 -24.6316 	 -117.752
|  8> C 	 45.3013 	 -24.6467 	 -116.637
|  9> C 	 44.8154 	 -23.4211 	 -116.353
| 10> C 	 45.571 	 -22.4239 	 -117.039
| 11> C 	 46.6896 	 -22.8879 	 -117.698
| 12> H 	 45.4093 	 -21.3775 	 -116.833
| 13> C 	 43.6761 	 -23.1437 	 -115.409
| 14> H 	 43.2216 	 -23.9837 	 -115.084
| 15> H 	 42.8988 	 -22.5979 	 -115.869
| 16> C 	 43.9798 	 -22.4762 	 -114.103
| 17> H 	 44.3968 	 -21.4933 	 -114.302
| 18> H 	 43.0452 	 -22.3925 	 -113.602
| 19> C 	 45.0322 	 -23.1815 	 -113.216
| 20> H 	 45.8984 	 -23.32 	 -113.925
| 21> H 	 45.3275 	 -22.5303 	 -112.454
| 22> H 	 44.667 	 -24.1696 	 -112.862
| 23> S 	 48.5402 	 -22.6664 	 -119.598
| 24> C 	 49.696 	 -21.3304 	 -119.644
| 25> C 	 49.5129 	 -20.5038 	 -118.511
| 26> C 	 48.4189 	 -21.0158 	 -117.651
| 27> C 	 47.7678 	 -22.0806 	 -118.217
| 28> H 	 50.1634 	 -19.629 	 -118.292
| 29> C 	 48.1169 	 -20.3858 	 -116.28
| 30> H 	 47.0054 	 -20.3509 	 -116.207
| 31> H 	 48.4972 	 -19.3494 	 -116.111
| 32> C 	 48.7168 	 -21.1711 	 -115.05
| 33> H 	 49.7928 	 -21.2512 	 -115.19
| 34> H 	 48.1621 	 -22.1576 	 -114.981
| 35> C 	 48.462 	 -20.518 	 -113.742
| 36> H 	 47.4857 	 -20.1728 	 -113.696
| 37> H 	 49.065 	 -19.6987 	 -113.486
| 38> H 	 48.6497 	 -21.2475 	 -112.926
| 39> H 	 45.067 	 -25.5574 	 -116.158
| 40> H 	 50.5355 	 -21.2302 	 -120.284
| 41> *
| 42>
| 43>                          ****END OF INPUT****

CARTESIAN COORDINATES (ANGSTROEM)
---------------------------------
  S     46.691100  -24.631600  -117.752000
  C     45.301300  -24.646700  -116.637000
  C     44.815400  -23.421100  -116.353000
  C     45.571000  -22.423900  -117.039000
  C     46.689600  -22.887900  -117.698000
  H     45.409300  -21.377500  -116.833000
  C     43.676100  -23.143700  -115.409000
  H     43.221600  -23.983700  -115.084000
  H     42.898800  -22.597900  -115.869000
  C     43.979800  -22.476200  -114.103000
  H     44.396800  -21.493300  -114.302000
  H     43.045200  -22.392500  -113.602000
  C     45.032200  -23.181500  -113.216000
  H     45.898400  -23.320000  -113.925000
  H     45.327500  -22.530300  -112.454000
  H     44.667000  -24.169600  -112.862000
  S     48.540200  -22.666400  -119.598000
  C     49.696000  -21.330400  -119.644000
  C     49.512900  -20.503800  -118.511000
  C     48.418900  -21.015800  -117.651000
  C     47.767800  -22.080600  -118.217000
  H     50.163400  -19.629000  -118.292000
  C     48.116900  -20.385800  -116.280000
  H     47.005400  -20.350900  -116.207000
  H     48.497200  -19.349400  -116.111000
  C     48.716800  -21.171100  -115.050000
  H     49.792800  -21.251200  -115.190000
  H     48.162100  -22.157600  -114.981000
  C     48.462000  -20.518000  -113.742000
  H     47.485700  -20.172800  -113.696000
  H     49.065000  -19.698700  -113.486000
  H     48.649700  -21.247500  -112.926000
  H     45.067000  -25.557400  -116.158000
  H     50.535500  -21.230200  -120.284000

 Total Charge           Charge          ....    0
 Multiplicity           Mult            ....    1
 Number of Electrons    NEL             ....  134
 Basis Dimension        Dim             ....  322

ORBITAL ENERGIES
----------------

  NO   OCC          E(Eh)            E(eV)
   0   2.0000     -88.966192     -2420.8932
   1   2.0000     -88.965913     -2420.8856
   2   2.0000     -10.330555      -281.1087
   3   2.0000     -10.322042      -280.8771
   4   2.0000     -10.320855      -280.8447
   5   2.0000     -10.311045      -280.5778
   6   2.0000     -10.308147      -280.4990
   7   2.0000     -10.306306      -280.4488
   8   2.0000     -10.299914      -280.2749
   9   2.0000     -10.299349      -280.2595
  10   2.0000     -10.292670      -280.0778
  11   2.0000     -10.286532      -279.9108
  12   2.0000     -10.281591      -279.7763
  13   2.0000     -10.278715      -279.6980
  14   2.0000     -10.278617      -279.6954
  15   2.0000     -10.265846      -279.3479
  16   2.0000      -8.081643      -219.9127
  17   2.0000      -8.080948      -219.8938
  18   2.0000      -6.040234      -164.3631
  19   2.0000      -6.039478      -164.3425
  20   2.0000      -6.035907      -164.2454
  21   2.0000      -6.035600      -164.2370
  22   2.0000      -6.032371      -164.1492
  23   2.0000      -6.031547      -164.1267
  24   2.0000      -1.013200       -27.5706
  25   2.0000      -0.985973       -26.8297
  26   2.0000      -0.923346       -25.1255
  27   2.0000      -0.906808       -24.6755
  28   2.0000      -0.872605       -23.7448
  29   2.0000      -0.855763       -23.2865
  30   2.0000      -0.843867       -22.9628
  31   2.0000      -0.816871       -22.2282
  32   2.0000      -0.791343       -21.5335
  33   2.0000      -0.774196       -21.0669
  34   2.0000      -0.708269       -19.2730
  35   2.0000      -0.695235       -18.9183
  36   2.0000      -0.689827       -18.7711
  37   2.0000      -0.666591       -18.1389
  38   2.0000      -0.643431       -17.5087
  39   2.0000      -0.631979       -17.1970
  40   2.0000      -0.592340       -16.1184
  41   2.0000      -0.573856       -15.6154
  42   2.0000      -0.570840       -15.5333
  43   2.0000      -0.561876       -15.2894
  44   2.0000      -0.543715       -14.7952
  45   2.0000      -0.526960       -14.3393
  46   2.0000      -0.520942       -14.1755
  47   2.0000      -0.517339       -14.0775
  48   2.0000      -0.507151       -13.8003
  49   2.0000      -0.498841       -13.5742
  50   2.0000      -0.495922       -13.4947
  51   2.0000      -0.485052       -13.1989
  52   2.0000      -0.472925       -12.8689
  53   2.0000      -0.464155       -12.6303
  54   2.0000      -0.457468       -12.4483
  55   2.0000      -0.452286       -12.3073
  56   2.0000      -0.445252       -12.1159
  57   2.0000      -0.442955       -12.0534
  58   2.0000      -0.428799       -11.6682
  59   2.0000      -0.424946       -11.5634
  60   2.0000      -0.423616       -11.5272
  61   2.0000      -0.414013       -11.2659
  62   2.0000      -0.408471       -11.1151
  63   2.0000      -0.354445        -9.6449
  64   2.0000      -0.336117        -9.1462
  65   2.0000      -0.327301        -8.9063
  66   2.0000      -0.289991        -7.8911
  67   0.0000       0.025320         0.6890
  68   0.0000       0.074568         2.0291
  69   0.0000       0.099791         2.7154
  70   0.0000       0.114476         3.1150
  71   0.0000       0.120689         3.2841

MULLIKEN ATOMIC CHARGES
-----------------------
   0 S :    0.099389
   1 C :   -0.119120
   2 C :   -0.086569
   3 C :    0.010783
   4 C :   -0.120177
   5 H :    0.008889
   6 C :    0.167912
   7 H :   -0.027002
   8 H :    0.021091
   9 C :   -0.095218
  10 H :    0.015340
  11 H :    0.025222
  12 C :   -0.052609
  13 H :    0.046706
  14 H :    0.031897
  15 H :    0.033691
  16 S :    0.099769
  17 C :   -0.081861
  18 C :   -0.045311
  19 C :   -0.046311
  20 C :   -0.126757
  21 H :    0.039247
  22 C :    0.028736
  23 H :    0.017448
  24 H :    0.025199
  25 C :   -0.089580
  26 H :    0.033868
  27 H :    0.048532
  28 C :   -0.000192
  29 H :    0.004751
  30 H :    0.013073
  31 H :    0.034888
  32 H :    0.033929
  33 H :    0.050347
Sum of atomic charges:   -0.0000000

LOEWDIN ATOMIC CHARGES
----------------------
   0 S :    0.384256
   1 C :   -0.170074
   2 C :   -0.058997
   3 C :   -0.063613
   4 C :   -0.185294
   5 H :    0.025752
   6 C :   -0.021997
   7 H :    0.016497
   8 H :    0.032721
   9 C :   -0.033305
  10 H :    0.016306
  11 H :    0.020262
  12 C :   -0.061563
  13 H :    0.033289
  14 H :    0.018245
  15 H :    0.025401
  16 S :    0.424268
  17 C :   -0.182771
  18 C :   -0.065410
  19 C :   -0.057222
  20 C :   -0.216903
  21 H :    0.038428
  22 C :   -0.038111
  23 H :    0.026898
  24 H :    0.031110
  25 C :   -0.039116
  26 H :    0.024986
  27 H :    0.032777
  28 C :   -0.062717
  29 H :    0.014082
  30 H :    0.016022
  31 H :    0.034775
  32 H :    0.016919
  33 H :    0.024099

  Mayer bond orders larger than 0.100000
B(  0-S ,  1-C ) :   1.1201 B(  0-S ,  4-C ) :   1.1402 B(  1-C ,  2-C ) :   1.6376
B(  1-C , 32-H ) :   0.9711 B(  2-C ,  3-C ) :   1.2173 B(  2-C ,  6-C ) :   1.0335
B(  3-C ,  4-C ) :   1.5860 B(  3-C ,  5-H ) :   0.9959 B(  4-C , 20-C ) :   1.0509
B(  6-C ,  7-H ) :   0.9237 B(  6-C ,  8-H ) :   0.9279 B(  6-C ,  9-C ) :   1.0752
B(  9-C , 10-H ) :   0.9559 B(  9-C , 11-H ) :   0.9546 B(  9-C , 12-C ) :   1.0786
B( 12-C , 13-H ) :   0.9722 B( 12-C , 14-H ) :   0.9743 B( 12-C , 15-H ) :   0.9732
B( 16-S , 17-C ) :   1.1493 B( 16-S , 20-C ) :   1.1383 B( 17-C , 18-C ) :   1.6088
B( 17-C , 33-H ) :   0.9740 B( 18-C , 19-C ) :   1.2338 B( 18-C , 21-H ) :   0.9821
B( 19-C , 20-C ) :   1.5998 B( 19-C , 22-C ) :   1.0429 B( 22-C , 23-H ) :   0.9323
B( 22-C , 24-H ) :   0.9421 B( 22-C , 25-C ) :   1.0629 B( 25-C , 26-H ) :   0.9551
B( 25-C , 27-H ) :   0.9523 B( 25-C , 28-C ) :   1.0960 B( 28-C , 29-H ) :   0.9672
B( 28-C , 30-H ) :   0.9688 B( 28-C , 31-H ) :   0.9703

Dispersion correction           -0.016078052
FINAL SINGLE POINT ENERGY     -1339.867307318328

DIPOLE MOMENT
-------------
                                X             Y             Z
Electronic contribution:      6.65476     -10.83353     -29.14850
Nuclear contribution   :     -6.71981      11.19728      29.86073
                        -----------------------------------------
Total Dipole Moment    :     -0.06505       0.36375       0.71223
                        -----------------------------------------
Magnitude (a.u.)       :      0.80238
Magnitude (Debye)      :      2.03949

Rotational constants in cm-1:     0.019156     0.010513     0.007541
Rotational constants in MHz :   574.272440   315.160258   226.063862

                             ****ORCA TERMINATED NORMALLY****
TOTAL RUN TIME: 0 days 0 hours 0 minutes 23 seconds 404 msec
