                         Program Version 4.2.1 -  RELEASE  -
|  1> ! wB97X-D3 SP def2-SVP
|  2> %pal
|  3> nprocs 24
|  4> end
|  5>
|  6> * xyz 0 1
|  7> S 	 -62.0764 	 19.0298 	 19.7155
|  8> C 	 -62.8539 	 17.718 	 20.576
|  9> C 	 -62.2558 	 17.4699 	 21.8256
| 10> C 	 -61.135 	 18.3116 	 22.0069
| 11> C 	 -60.8527 	 19.1653 	 20.9668
| 12> H 	 -60.427 	 18.2798 	 22.8649
| 13> C 	 -62.7384 	 16.5062 	 22.9113
| 14> H 	 -62.6104 	 15.4865 	 22.4641
| 15> H 	 -63.8301 	 16.5389 	 23.0606
| 16> C 	 -62.1485 	 16.6783 	 24.275
| 17> H 	 -61.0949 	 16.5365 	 24.1757
| 18> H 	 -62.1515 	 17.6894 	 24.7131
| 19> C 	 -62.8205 	 15.6955 	 25.285
| 20> H 	 -62.865 	 14.5998 	 25.1273
| 21> H 	 -62.3795 	 15.6115 	 26.2978
| 22> H 	 -63.8832 	 15.9033 	 25.5044
| 23> S 	 -58.9467 	 20.0075 	 19.2623
| 24> C 	 -57.7316 	 21.0622 	 19.7671
| 25> C 	 -57.795 	 21.2802 	 21.0935
| 26> C 	 -58.9234 	 20.7131 	 21.6401
| 27> C 	 -59.7051 	 19.9451 	 20.8069
| 28> H 	 -57.1119 	 22.0003 	 21.5777
| 29> C 	 -59.1508 	 20.7736 	 23.1006
| 30> H 	 -60.2588 	 20.4795 	 23.3431
| 31> H 	 -59.0071 	 21.8137 	 23.3596
| 32> C 	 -58.1706 	 19.9586 	 23.9517
| 33> H 	 -57.0838 	 20.2123 	 23.7336
| 34> H 	 -58.3356 	 18.9172 	 23.8351
| 35> C 	 -58.3579 	 20.2175 	 25.4414
| 36> H 	 -57.8629 	 21.1454 	 25.6014
| 37> H 	 -57.8345 	 19.5609 	 26.1319
| 38> H 	 -59.4054 	 20.2321 	 25.7889
| 39> H 	 -63.7173 	 17.1811 	 20.1171
| 40> H 	 -57.0105 	 21.5561 	 19.1691
| 41> *
| 42>
| 43>                          ****END OF INPUT****

CARTESIAN COORDINATES (ANGSTROEM)
---------------------------------
  S    -62.076400   19.029800   19.715500
  C    -62.853900   17.718000   20.576000
  C    -62.255800   17.469900   21.825600
  C    -61.135000   18.311600   22.006900
  C    -60.852700   19.165300   20.966800
  H    -60.427000   18.279800   22.864900
  C    -62.738400   16.506200   22.911300
  H    -62.610400   15.486500   22.464100
  H    -63.830100   16.538900   23.060600
  C    -62.148500   16.678300   24.275000
  H    -61.094900   16.536500   24.175700
  H    -62.151500   17.689400   24.713100
  C    -62.820500   15.695500   25.285000
  H    -62.865000   14.599800   25.127300
  H    -62.379500   15.611500   26.297800
  H    -63.883200   15.903300   25.504400
  S    -58.946700   20.007500   19.262300
  C    -57.731600   21.062200   19.767100
  C    -57.795000   21.280200   21.093500
  C    -58.923400   20.713100   21.640100
  C    -59.705100   19.945100   20.806900
  H    -57.111900   22.000300   21.577700
  C    -59.150800   20.773600   23.100600
  H    -60.258800   20.479500   23.343100
  H    -59.007100   21.813700   23.359600
  C    -58.170600   19.958600   23.951700
  H    -57.083800   20.212300   23.733600
  H    -58.335600   18.917200   23.835100
  C    -58.357900   20.217500   25.441400
  H    -57.862900   21.145400   25.601400
  H    -57.834500   19.560900   26.131900
  H    -59.405400   20.232100   25.788900
  H    -63.717300   17.181100   20.117100
  H    -57.010500   21.556100   19.169100

 Total Charge           Charge          ....    0
 Multiplicity           Mult            ....    1
 Number of Electrons    NEL             ....  134
 Basis Dimension        Dim             ....  322

ORBITAL ENERGIES
----------------

  NO   OCC          E(Eh)            E(eV)
   0   2.0000     -88.968838     -2420.9652
   1   2.0000     -88.960532     -2420.7392
   2   2.0000     -10.324950      -280.9562
   3   2.0000     -10.320264      -280.8287
   4   2.0000     -10.315645      -280.7030
   5   2.0000     -10.306487      -280.4538
   6   2.0000     -10.305050      -280.4147
   7   2.0000     -10.298200      -280.2283
   8   2.0000     -10.294771      -280.1349
   9   2.0000     -10.294428      -280.1256
  10   2.0000     -10.290662      -280.0232
  11   2.0000     -10.289408      -279.9890
  12   2.0000     -10.287978      -279.9501
  13   2.0000     -10.287319      -279.9322
  14   2.0000     -10.283860      -279.8381
  15   2.0000     -10.273671      -279.5608
  16   2.0000      -8.083320      -219.9583
  17   2.0000      -8.077275      -219.7938
  18   2.0000      -6.041736      -164.4040
  19   2.0000      -6.037828      -164.2977
  20   2.0000      -6.035546      -164.2355
  21   2.0000      -6.034234      -164.1999
  22   2.0000      -6.031427      -164.1235
  23   2.0000      -6.028199      -164.0356
  24   2.0000      -1.022554       -27.8251
  25   2.0000      -0.991532       -26.9810
  26   2.0000      -0.916765       -24.9464
  27   2.0000      -0.914169       -24.8758
  28   2.0000      -0.879989       -23.9457
  29   2.0000      -0.858219       -23.3533
  30   2.0000      -0.846477       -23.0338
  31   2.0000      -0.816298       -22.2126
  32   2.0000      -0.782687       -21.2980
  33   2.0000      -0.770928       -20.9780
  34   2.0000      -0.721965       -19.6457
  35   2.0000      -0.700017       -19.0484
  36   2.0000      -0.695664       -18.9300
  37   2.0000      -0.666600       -18.1391
  38   2.0000      -0.642797       -17.4914
  39   2.0000      -0.624077       -16.9820
  40   2.0000      -0.597879       -16.2691
  41   2.0000      -0.572741       -15.5851
  42   2.0000      -0.569666       -15.5014
  43   2.0000      -0.562411       -15.3040
  44   2.0000      -0.528566       -14.3830
  45   2.0000      -0.527136       -14.3441
  46   2.0000      -0.518082       -14.0977
  47   2.0000      -0.514289       -13.9945
  48   2.0000      -0.506367       -13.7789
  49   2.0000      -0.497818       -13.5463
  50   2.0000      -0.491513       -13.3748
  51   2.0000      -0.480933       -13.0869
  52   2.0000      -0.472244       -12.8504
  53   2.0000      -0.469545       -12.7770
  54   2.0000      -0.458292       -12.4708
  55   2.0000      -0.453607       -12.3433
  56   2.0000      -0.449321       -12.2267
  57   2.0000      -0.438253       -11.9255
  58   2.0000      -0.428973       -11.6730
  59   2.0000      -0.425850       -11.5880
  60   2.0000      -0.422906       -11.5078
  61   2.0000      -0.416382       -11.3303
  62   2.0000      -0.410444       -11.1688
  63   2.0000      -0.355683        -9.6786
  64   2.0000      -0.333053        -9.0628
  65   2.0000      -0.330590        -8.9958
  66   2.0000      -0.283965        -7.7271
  67   0.0000       0.024001         0.6531
  68   0.0000       0.081520         2.2183
  69   0.0000       0.111927         3.0457
  70   0.0000       0.124618         3.3910
  71   0.0000       0.127822         3.4782

MULLIKEN ATOMIC CHARGES
-----------------------
   0 S :    0.121012
   1 C :   -0.160460
   2 C :   -0.040217
   3 C :   -0.028165
   4 C :   -0.130348
   5 H :    0.013879
   6 C :    0.042102
   7 H :    0.047299
   8 H :    0.031879
   9 C :   -0.047667
  10 H :    0.027911
  11 H :    0.041578
  12 C :   -0.078770
  13 H :    0.026827
  14 H :    0.027740
  15 H :    0.033107
  16 S :    0.109854
  17 C :   -0.062766
  18 C :   -0.057403
  19 C :   -0.013410
  20 C :   -0.131978
  21 H :    0.025644
  22 C :    0.011577
  23 H :    0.044159
  24 H :    0.011836
  25 C :   -0.067292
  26 H :    0.038584
  27 H :    0.023544
  28 C :   -0.041369
  29 H :    0.017181
  30 H :    0.027410
  31 H :    0.033413
  32 H :    0.065626
  33 H :    0.037684
Sum of atomic charges:    0.0000000

LOEWDIN ATOMIC CHARGES
----------------------
   0 S :    0.409932
   1 C :   -0.202611
   2 C :   -0.061746
   3 C :   -0.068672
   4 C :   -0.194853
   5 H :    0.035157
   6 C :   -0.037707
   7 H :    0.043329
   8 H :    0.033444
   9 C :   -0.043313
  10 H :    0.020889
  11 H :    0.033651
  12 C :   -0.083346
  13 H :    0.029001
  14 H :    0.029978
  15 H :    0.027786
  16 S :    0.443368
  17 C :   -0.193234
  18 C :   -0.080446
  19 C :   -0.066439
  20 C :   -0.210284
  21 H :    0.038571
  22 C :   -0.038798
  23 H :    0.039518
  24 H :    0.026065
  25 C :   -0.038965
  26 H :    0.033029
  27 H :    0.013173
  28 C :   -0.068081
  29 H :    0.020150
  30 H :    0.024931
  31 H :    0.025858
  32 H :    0.035193
  33 H :    0.025473

  Mayer bond orders larger than 0.100000
B(  0-S ,  1-C ) :   1.1523 B(  0-S ,  4-C ) :   1.1424 B(  1-C ,  2-C ) :   1.5755
B(  1-C ,  4-C ) :   0.1048 B(  1-C , 32-H ) :   0.9689 B(  2-C ,  3-C ) :   1.2816
B(  2-C ,  6-C ) :   0.9944 B(  3-C ,  4-C ) :   1.5370 B(  3-C ,  5-H ) :   0.9784
B(  4-C , 20-C ) :   1.0957 B(  6-C ,  7-H ) :   0.9301 B(  6-C ,  8-H ) :   0.9492
B(  6-C ,  9-C ) :   1.0825 B(  9-C , 10-H ) :   0.9408 B(  9-C , 11-H ) :   0.9539
B(  9-C , 12-C ) :   1.0633 B( 12-C , 13-H ) :   0.9769 B( 12-C , 14-H ) :   0.9741
B( 12-C , 15-H ) :   0.9759 B( 16-S , 17-C ) :   1.1844 B( 16-S , 20-C ) :   1.1355
B( 17-C , 18-C ) :   1.5697 B( 17-C , 33-H ) :   0.9691 B( 18-C , 19-C ) :   1.2806
B( 18-C , 21-H ) :   0.9897 B( 19-C , 20-C ) :   1.5504 B( 19-C , 22-C ) :   1.0610
B( 22-C , 23-H ) :   0.9300 B( 22-C , 24-H ) :   0.9244 B( 22-C , 25-C ) :   1.0668
B( 25-C , 26-H ) :   0.9530 B( 25-C , 27-H ) :   0.9536 B( 25-C , 28-C ) :   1.0764
B( 28-C , 29-H ) :   0.9770 B( 28-C , 30-H ) :   0.9736 B( 28-C , 31-H ) :   0.9734

Dispersion correction           -0.014148911
FINAL SINGLE POINT ENERGY     -1339.870500307100

DIPOLE MOMENT
-------------
                                X             Y             Z
Electronic contribution:      0.11534       8.88523     -32.64044
Nuclear contribution   :     -0.00064      -9.04347      33.27347
                        -----------------------------------------
Total Dipole Moment    :      0.11469      -0.15824       0.63304
                        -----------------------------------------
Magnitude (a.u.)       :      0.66252
Magnitude (Debye)      :      1.68399

Rotational constants in cm-1:     0.016924     0.010023     0.006583
Rotational constants in MHz :   507.382641   300.486177   197.360311

                             ****ORCA TERMINATED NORMALLY****
TOTAL RUN TIME: 0 days 0 hours 0 minutes 20 seconds 932 msec
