                         Program Version 4.2.1 -  RELEASE  -
|  1> ! wB97X-D3 SP def2-SVP
|  2> %pal
|  3> nprocs 24
|  4> end
|  5>
|  6> * xyz 0 1
|  7> S 	 -89.7585 	 -9.48306 	 -114.29
|  8> C 	 -88.2162 	 -9.65231 	 -115.156
|  9> C 	 -88.5033 	 -9.49096 	 -116.518
| 10> C 	 -89.8501 	 -8.99171 	 -116.816
| 11> C 	 -90.6051 	 -8.80958 	 -115.674
| 12> H 	 -90.2207 	 -8.75974 	 -117.737
| 13> C 	 -87.5969 	 -9.88288 	 -117.613
| 14> H 	 -86.601 	 -9.69849 	 -117.347
| 15> H 	 -87.7692 	 -9.20254 	 -118.469
| 16> C 	 -87.6257 	 -11.3669 	 -118.059
| 17> H 	 -88.6598 	 -11.5272 	 -118.266
| 18> H 	 -87.0865 	 -11.515 	 -119.005
| 19> C 	 -86.858 	 -12.2664 	 -117.074
| 20> H 	 -86.6655 	 -13.2803 	 -117.471
| 21> H 	 -85.8789 	 -11.7858 	 -116.85
| 22> H 	 -87.3988 	 -12.3738 	 -116.101
| 23> S 	 -92.2761 	 -7.2638 	 -114.135
| 24> C 	 -93.8938 	 -7.0704 	 -114.619
| 25> C 	 -94.1225 	 -7.75309 	 -115.8
| 26> C 	 -93.0157 	 -8.38148 	 -116.412
| 27> C 	 -91.9589 	 -8.3136 	 -115.55
| 28> H 	 -95.1554 	 -7.76449 	 -116.218
| 29> C 	 -93.1424 	 -9.13435 	 -117.752
| 30> H 	 -94.1227 	 -9.60042 	 -117.716
| 31> H 	 -92.5373 	 -10.032 	 -117.811
| 32> C 	 -93.0444 	 -8.19708 	 -119.015
| 33> H 	 -92.1272 	 -7.65153 	 -119.079
| 34> H 	 -93.8168 	 -7.40121 	 -118.879
| 35> C 	 -93.2226 	 -9.14416 	 -120.23
| 36> H 	 -93.3079 	 -8.59206 	 -121.208
| 37> H 	 -94.1556 	 -9.68793 	 -120.134
| 38> H 	 -92.3926 	 -9.78765 	 -120.316
| 39> H 	 -87.332 	 -10.2221 	 -114.777
| 40> H 	 -94.776 	 -6.59889 	 -114.149
| 41> *
| 42>
| 43>                          ****END OF INPUT****

CARTESIAN COORDINATES (ANGSTROEM)
---------------------------------
  S    -89.758500   -9.483060  -114.290000
  C    -88.216200   -9.652310  -115.156000
  C    -88.503300   -9.490960  -116.518000
  C    -89.850100   -8.991710  -116.816000
  C    -90.605100   -8.809580  -115.674000
  H    -90.220700   -8.759740  -117.737000
  C    -87.596900   -9.882880  -117.613000
  H    -86.601000   -9.698490  -117.347000
  H    -87.769200   -9.202540  -118.469000
  C    -87.625700  -11.366900  -118.059000
  H    -88.659800  -11.527200  -118.266000
  H    -87.086500  -11.515000  -119.005000
  C    -86.858000  -12.266400  -117.074000
  H    -86.665500  -13.280300  -117.471000
  H    -85.878900  -11.785800  -116.850000
  H    -87.398800  -12.373800  -116.101000
  S    -92.276100   -7.263800  -114.135000
  C    -93.893800   -7.070400  -114.619000
  C    -94.122500   -7.753090  -115.800000
  C    -93.015700   -8.381480  -116.412000
  C    -91.958900   -8.313600  -115.550000
  H    -95.155400   -7.764490  -116.218000
  C    -93.142400   -9.134350  -117.752000
  H    -94.122700   -9.600420  -117.716000
  H    -92.537300  -10.032000  -117.811000
  C    -93.044400   -8.197080  -119.015000
  H    -92.127200   -7.651530  -119.079000
  H    -93.816800   -7.401210  -118.879000
  C    -93.222600   -9.144160  -120.230000
  H    -93.307900   -8.592060  -121.208000
  H    -94.155600   -9.687930  -120.134000
  H    -92.392600   -9.787650  -120.316000
  H    -87.332000  -10.222100  -114.777000
  H    -94.776000   -6.598890  -114.149000

 Total Charge           Charge          ....    0
 Multiplicity           Mult            ....    1
 Number of Electrons    NEL             ....  134
 Basis Dimension        Dim             ....  322

ORBITAL ENERGIES
----------------

  NO   OCC          E(Eh)            E(eV)
   0   2.0000     -88.968656     -2420.9602
   1   2.0000     -88.962146     -2420.7831
   2   2.0000     -10.330078      -281.0957
   3   2.0000     -10.327319      -281.0206
   4   2.0000     -10.318729      -280.7869
   5   2.0000     -10.315486      -280.6987
   6   2.0000     -10.304156      -280.3903
   7   2.0000     -10.304084      -280.3884
   8   2.0000     -10.299917      -280.2750
   9   2.0000     -10.297233      -280.2020
  10   2.0000     -10.292403      -280.0705
  11   2.0000     -10.289508      -279.9918
  12   2.0000     -10.286952      -279.9222
  13   2.0000     -10.286633      -279.9135
  14   2.0000     -10.283720      -279.8342
  15   2.0000     -10.282753      -279.8079
  16   2.0000      -8.083400      -219.9605
  17   2.0000      -8.076417      -219.7705
  18   2.0000      -6.041880      -164.4079
  19   2.0000      -6.037926      -164.3003
  20   2.0000      -6.035144      -164.2246
  21   2.0000      -6.034133      -164.1971
  22   2.0000      -6.030992      -164.1116
  23   2.0000      -6.026946      -164.0015
  24   2.0000      -1.008759       -27.4497
  25   2.0000      -0.982365       -26.7315
  26   2.0000      -0.913597       -24.8602
  27   2.0000      -0.909849       -24.7583
  28   2.0000      -0.867970       -23.6187
  29   2.0000      -0.855793       -23.2873
  30   2.0000      -0.841952       -22.9107
  31   2.0000      -0.811297       -22.0765
  32   2.0000      -0.783556       -21.3217
  33   2.0000      -0.771774       -21.0010
  34   2.0000      -0.713159       -19.4060
  35   2.0000      -0.705531       -19.1985
  36   2.0000      -0.695419       -18.9233
  37   2.0000      -0.660004       -17.9596
  38   2.0000      -0.639074       -17.3901
  39   2.0000      -0.622968       -16.9518
  40   2.0000      -0.597888       -16.2694
  41   2.0000      -0.569287       -15.4911
  42   2.0000      -0.565205       -15.3800
  43   2.0000      -0.546054       -14.8589
  44   2.0000      -0.541111       -14.7244
  45   2.0000      -0.523733       -14.2515
  46   2.0000      -0.516614       -14.0578
  47   2.0000      -0.513533       -13.9739
  48   2.0000      -0.504017       -13.7150
  49   2.0000      -0.499598       -13.5947
  50   2.0000      -0.490611       -13.3502
  51   2.0000      -0.480768       -13.0824
  52   2.0000      -0.475178       -12.9302
  53   2.0000      -0.462107       -12.5746
  54   2.0000      -0.460964       -12.5435
  55   2.0000      -0.454758       -12.3746
  56   2.0000      -0.441076       -12.0023
  57   2.0000      -0.437773       -11.9124
  58   2.0000      -0.435526       -11.8513
  59   2.0000      -0.431259       -11.7351
  60   2.0000      -0.424938       -11.5632
  61   2.0000      -0.417470       -11.3599
  62   2.0000      -0.408510       -11.1161
  63   2.0000      -0.353948        -9.6314
  64   2.0000      -0.335784        -9.1371
  65   2.0000      -0.321472        -8.7477
  66   2.0000      -0.288950        -7.8627
  67   0.0000       0.023188         0.6310
  68   0.0000       0.075168         2.0454
  69   0.0000       0.104851         2.8531
  70   0.0000       0.120253         3.2723
  71   0.0000       0.126987         3.4555

MULLIKEN ATOMIC CHARGES
-----------------------
   0 S :    0.087528
   1 C :   -0.120327
   2 C :   -0.108164
   3 C :    0.061102
   4 C :   -0.114803
   5 H :   -0.047081
   6 C :    0.052003
   7 H :   -0.001254
   8 H :    0.024619
   9 C :   -0.032767
  10 H :    0.020217
  11 H :    0.030256
  12 C :   -0.084418
  13 H :    0.043815
  14 H :    0.030128
  15 H :    0.045652
  16 S :    0.126422
  17 C :   -0.078109
  18 C :   -0.077023
  19 C :    0.001129
  20 C :   -0.164254
  21 H :    0.021940
  22 C :    0.027642
  23 H :    0.020078
  24 H :    0.026624
  25 C :   -0.069551
  26 H :    0.034391
  27 H :    0.036632
  28 C :   -0.030715
  29 H :    0.039318
  30 H :    0.030799
  31 H :    0.029100
  32 H :    0.074438
  33 H :    0.064632
Sum of atomic charges:   -0.0000000

LOEWDIN ATOMIC CHARGES
----------------------
   0 S :    0.386627
   1 C :   -0.206773
   2 C :   -0.054112
   3 C :   -0.058102
   4 C :   -0.178035
   5 H :    0.011359
   6 C :   -0.038165
   7 H :    0.018920
   8 H :    0.032782
   9 C :   -0.034724
  10 H :    0.018265
  11 H :    0.027504
  12 C :   -0.071749
  13 H :    0.028976
  14 H :    0.027107
  15 H :    0.027458
  16 S :    0.418097
  17 C :   -0.213370
  18 C :   -0.079862
  19 C :   -0.055014
  20 C :   -0.185522
  21 H :    0.032165
  22 C :   -0.028861
  23 H :    0.032400
  24 H :    0.028223
  25 C :   -0.033377
  26 H :    0.018828
  27 H :    0.029819
  28 C :   -0.061428
  29 H :    0.031268
  30 H :    0.025352
  31 H :    0.019834
  32 H :    0.040917
  33 H :    0.043194

  Mayer bond orders larger than 0.100000
B(  0-S ,  1-C ) :   1.1090 B(  0-S ,  4-C ) :   1.1562 B(  1-C ,  2-C ) :   1.6082
B(  1-C , 32-H ) :   0.9608 B(  2-C ,  3-C ) :   1.2156 B(  2-C ,  6-C ) :   1.0506
B(  3-C ,  4-C ) :   1.5601 B(  3-C ,  5-H ) :   1.0145 B(  4-C , 20-C ) :   1.0512
B(  6-C ,  7-H ) :   0.9361 B(  6-C ,  8-H ) :   0.9372 B(  6-C ,  9-C ) :   1.0623
B(  9-C , 10-H ) :   0.9574 B(  9-C , 11-H ) :   0.9551 B(  9-C , 12-C ) :   1.0689
B( 12-C , 13-H ) :   0.9744 B( 12-C , 14-H ) :   0.9723 B( 12-C , 15-H ) :   0.9741
B( 16-S , 17-C ) :   1.1471 B( 16-S , 20-C ) :   1.1379 B( 17-C , 18-C ) :   1.6219
B( 17-C , 33-H ) :   0.9593 B( 18-C , 19-C ) :   1.2466 B( 18-C , 21-H ) :   0.9765
B( 19-C , 20-C ) :   1.6037 B( 19-C , 22-C ) :   1.0200 B( 22-C , 23-H ) :   0.9373
B( 22-C , 24-H ) :   0.9461 B( 22-C , 25-C ) :   1.0403 B( 25-C , 26-H ) :   0.9601
B( 25-C , 27-H ) :   0.9557 B( 25-C , 28-C ) :   1.0718 B( 28-C , 29-H ) :   0.9740
B( 28-C , 30-H ) :   0.9750 B( 28-C , 31-H ) :   0.9756

Dispersion correction           -0.014380469
FINAL SINGLE POINT ENERGY     -1339.873183861785

DIPOLE MOMENT
-------------
                                X             Y             Z
Electronic contribution:     -5.34606      12.20420      26.28332
Nuclear contribution   :      5.14324     -12.48914     -27.07557
                        -----------------------------------------
Total Dipole Moment    :     -0.20282      -0.28494      -0.79225
                        -----------------------------------------
Magnitude (a.u.)       :      0.86602
Magnitude (Debye)      :      2.20125

Rotational constants in cm-1:     0.018128     0.009230     0.006469
Rotational constants in MHz :   543.466724   276.709700   193.923938

                             ****ORCA TERMINATED NORMALLY****
TOTAL RUN TIME: 0 days 0 hours 0 minutes 21 seconds 578 msec
