                         Program Version 4.2.1 -  RELEASE  -
|  1> ! wB97X-D3 SP def2-SVP
|  2> %pal
|  3> nprocs 24
|  4> end
|  5>
|  6> * xyz 0 1
|  7> S 	 24.1014 	 -8.46303 	 -110.213
|  8> C 	 23.5939 	 -8.63559 	 -111.882
|  9> C 	 23.4222 	 -7.34306 	 -112.479
| 10> C 	 23.3007 	 -6.36163 	 -111.485
| 11> C 	 23.5244 	 -6.81977 	 -110.197
| 12> H 	 23.1128 	 -5.3175 	 -111.658
| 13> C 	 23.0796 	 -7.08896 	 -113.876
| 14> H 	 23.9755 	 -6.86282 	 -114.431
| 15> H 	 22.4292 	 -6.17733 	 -113.839
| 16> C 	 22.2743 	 -8.1811 	 -114.568
| 17> H 	 22.933 	 -9.01481 	 -114.567
| 18> H 	 21.4245 	 -8.44762 	 -113.951
| 19> C 	 21.9093 	 -7.88059 	 -116.027
| 20> H 	 22.8085 	 -7.65828 	 -116.549
| 21> H 	 21.4504 	 -8.72927 	 -116.543
| 22> H 	 21.3185 	 -6.96038 	 -116.014
| 23> S 	 24.9871 	 -6.02564 	 -108.175
| 24> C 	 24.2671 	 -4.98296 	 -106.901
| 25> C 	 22.9632 	 -4.74326 	 -107.221
| 26> C 	 22.5427 	 -5.23283 	 -108.44
| 27> C 	 23.5308 	 -5.97979 	 -109.045
| 28> H 	 22.4026 	 -4.22896 	 -106.466
| 29> C 	 21.1828 	 -5.05134 	 -108.98
| 30> H 	 21.2207 	 -4.7827 	 -110.078
| 31> H 	 20.7081 	 -4.18083 	 -108.519
| 32> C 	 20.3375 	 -6.3317 	 -108.891
| 33> H 	 20.6182 	 -6.94851 	 -108.032
| 34> H 	 20.6363 	 -7.17858 	 -109.596
| 35> C 	 18.7826 	 -6.11228 	 -108.956
| 36> H 	 18.2571 	 -7.12038 	 -109.072
| 37> H 	 18.5153 	 -5.54273 	 -109.83
| 38> H 	 18.3524 	 -5.80065 	 -107.998
| 39> H 	 23.6653 	 -9.47566 	 -112.563
| 40> H 	 24.78 	 -4.70016 	 -106.043
| 41> *
| 42>
| 43>                          ****END OF INPUT****

CARTESIAN COORDINATES (ANGSTROEM)
---------------------------------
  S     24.101400   -8.463030  -110.213000
  C     23.593900   -8.635590  -111.882000
  C     23.422200   -7.343060  -112.479000
  C     23.300700   -6.361630  -111.485000
  C     23.524400   -6.819770  -110.197000
  H     23.112800   -5.317500  -111.658000
  C     23.079600   -7.088960  -113.876000
  H     23.975500   -6.862820  -114.431000
  H     22.429200   -6.177330  -113.839000
  C     22.274300   -8.181100  -114.568000
  H     22.933000   -9.014810  -114.567000
  H     21.424500   -8.447620  -113.951000
  C     21.909300   -7.880590  -116.027000
  H     22.808500   -7.658280  -116.549000
  H     21.450400   -8.729270  -116.543000
  H     21.318500   -6.960380  -116.014000
  S     24.987100   -6.025640  -108.175000
  C     24.267100   -4.982960  -106.901000
  C     22.963200   -4.743260  -107.221000
  C     22.542700   -5.232830  -108.440000
  C     23.530800   -5.979790  -109.045000
  H     22.402600   -4.228960  -106.466000
  C     21.182800   -5.051340  -108.980000
  H     21.220700   -4.782700  -110.078000
  H     20.708100   -4.180830  -108.519000
  C     20.337500   -6.331700  -108.891000
  H     20.618200   -6.948510  -108.032000
  H     20.636300   -7.178580  -109.596000
  C     18.782600   -6.112280  -108.956000
  H     18.257100   -7.120380  -109.072000
  H     18.515300   -5.542730  -109.830000
  H     18.352400   -5.800650  -107.998000
  H     23.665300   -9.475660  -112.563000
  H     24.780000   -4.700160  -106.043000

 Total Charge           Charge          ....    0
 Multiplicity           Mult            ....    1
 Number of Electrons    NEL             ....  134
 Basis Dimension        Dim             ....  322

ORBITAL ENERGIES
----------------

  NO   OCC          E(Eh)            E(eV)
   0   2.0000     -88.972206     -2421.0568
   1   2.0000     -88.962116     -2420.7822
   2   2.0000     -10.323669      -280.9213
   3   2.0000     -10.316779      -280.7338
   4   2.0000     -10.314808      -280.6802
   5   2.0000     -10.309846      -280.5452
   6   2.0000     -10.298301      -280.2310
   7   2.0000     -10.293429      -280.0984
   8   2.0000     -10.292422      -280.0710
   9   2.0000     -10.289174      -279.9827
  10   2.0000     -10.287838      -279.9463
  11   2.0000     -10.287504      -279.9372
  12   2.0000     -10.287042      -279.9246
  13   2.0000     -10.282749      -279.8078
  14   2.0000     -10.282547      -279.8023
  15   2.0000     -10.278708      -279.6979
  16   2.0000      -8.086293      -220.0392
  17   2.0000      -8.077499      -219.7999
  18   2.0000      -6.044764      -164.4864
  19   2.0000      -6.041046      -164.3852
  20   2.0000      -6.036970      -164.2743
  21   2.0000      -6.035851      -164.2439
  22   2.0000      -6.031907      -164.1365
  23   2.0000      -6.028394      -164.0409
  24   2.0000      -1.015719       -27.6391
  25   2.0000      -0.987597       -26.8739
  26   2.0000      -0.921763       -25.0825
  27   2.0000      -0.904673       -24.6174
  28   2.0000      -0.874645       -23.8003
  29   2.0000      -0.856125       -23.2963
  30   2.0000      -0.845312       -23.0021
  31   2.0000      -0.815260       -22.1843
  32   2.0000      -0.780426       -21.2365
  33   2.0000      -0.768049       -20.8997
  34   2.0000      -0.717605       -19.5270
  35   2.0000      -0.703267       -19.1369
  36   2.0000      -0.692088       -18.8327
  37   2.0000      -0.669800       -18.2262
  38   2.0000      -0.636724       -17.3261
  39   2.0000      -0.617313       -16.7979
  40   2.0000      -0.600994       -16.3539
  41   2.0000      -0.578910       -15.7529
  42   2.0000      -0.568148       -15.4601
  43   2.0000      -0.547920       -14.9097
  44   2.0000      -0.528118       -14.3708
  45   2.0000      -0.526893       -14.3375
  46   2.0000      -0.521923       -14.2022
  47   2.0000      -0.513385       -13.9699
  48   2.0000      -0.510089       -13.8802
  49   2.0000      -0.499350       -13.5880
  50   2.0000      -0.490284       -13.3413
  51   2.0000      -0.481745       -13.1089
  52   2.0000      -0.475250       -12.9322
  53   2.0000      -0.463971       -12.6253
  54   2.0000      -0.459857       -12.5133
  55   2.0000      -0.447520       -12.1776
  56   2.0000      -0.444314       -12.0904
  57   2.0000      -0.437454       -11.9037
  58   2.0000      -0.434830       -11.8323
  59   2.0000      -0.431453       -11.7404
  60   2.0000      -0.423866       -11.5340
  61   2.0000      -0.413618       -11.2551
  62   2.0000      -0.396399       -10.7866
  63   2.0000      -0.347977        -9.4689
  64   2.0000      -0.332788        -9.0556
  65   2.0000      -0.326557        -8.8861
  66   2.0000      -0.284542        -7.7428
  67   0.0000       0.027955         0.7607
  68   0.0000       0.059961         1.6316
  69   0.0000       0.107957         2.9377
  70   0.0000       0.126861         3.4521
  71   0.0000       0.135811         3.6956

MULLIKEN ATOMIC CHARGES
-----------------------
   0 S :    0.137915
   1 C :   -0.112148
   2 C :   -0.088118
   3 C :    0.013565
   4 C :   -0.140708
   5 H :    0.012735
   6 C :    0.058267
   7 H :    0.036177
   8 H :    0.024531
   9 C :   -0.104998
  10 H :    0.015263
  11 H :    0.035562
  12 C :   -0.008698
  13 H :    0.014856
  14 H :    0.044542
  15 H :    0.030077
  16 S :    0.093313
  17 C :   -0.081383
  18 C :   -0.036857
  19 C :   -0.006606
  20 C :   -0.176616
  21 H :    0.010496
  22 C :    0.100124
  23 H :    0.029868
  24 H :    0.020153
  25 C :   -0.115619
  26 H :    0.022321
  27 H :    0.044879
  28 C :   -0.054656
  29 H :    0.031125
  30 H :    0.038560
  31 H :    0.039570
  32 H :    0.042868
  33 H :    0.029641
Sum of atomic charges:   -0.0000000

LOEWDIN ATOMIC CHARGES
----------------------
   0 S :    0.419180
   1 C :   -0.210944
   2 C :   -0.058207
   3 C :   -0.059819
   4 C :   -0.201495
   5 H :    0.029427
   6 C :   -0.035808
   7 H :    0.033694
   8 H :    0.033105
   9 C :   -0.037891
  10 H :    0.014396
  11 H :    0.024640
  12 C :   -0.058434
  13 H :    0.020650
  14 H :    0.031130
  15 H :    0.026532
  16 S :    0.408849
  17 C :   -0.164796
  18 C :   -0.062002
  19 C :   -0.068187
  20 C :   -0.204198
  21 H :    0.032444
  22 C :   -0.035052
  23 H :    0.037644
  24 H :    0.031613
  25 C :   -0.056685
  26 H :    0.023528
  27 H :    0.036906
  28 C :   -0.072643
  29 H :    0.034526
  30 H :    0.022498
  31 H :    0.025667
  32 H :    0.025454
  33 H :    0.014275

  Mayer bond orders larger than 0.100000
B(  0-S ,  1-C ) :   1.1407 B(  0-S ,  4-C ) :   1.1481 B(  1-C ,  2-C ) :   1.5602
B(  1-C ,  4-C ) :   0.1108 B(  1-C , 32-H ) :   0.9651 B(  2-C ,  3-C ) :   1.2795
B(  2-C ,  6-C ) :   1.0343 B(  3-C ,  4-C ) :   1.5375 B(  3-C ,  5-H ) :   0.9938
B(  4-C , 20-C ) :   1.0603 B(  6-C ,  7-H ) :   0.9112 B(  6-C ,  8-H ) :   0.9506
B(  6-C ,  9-C ) :   1.0853 B(  9-C , 10-H ) :   0.9441 B(  9-C , 11-H ) :   0.9592
B(  9-C , 12-C ) :   1.0844 B( 12-C , 13-H ) :   0.9711 B( 12-C , 14-H ) :   0.9731
B( 12-C , 15-H ) :   0.9758 B( 16-S , 17-C ) :   1.1357 B( 16-S , 20-C ) :   1.1704
B( 17-C , 18-C ) :   1.5987 B( 17-C , 20-C ) :   0.1085 B( 17-C , 33-H ) :   0.9811
B( 18-C , 19-C ) :   1.2508 B( 18-C , 21-H ) :   0.9964 B( 19-C , 20-C ) :   1.5578
B( 19-C , 22-C ) :   1.0654 B( 22-C , 23-H ) :   0.9213 B( 22-C , 24-H ) :   0.9349
B( 22-C , 25-C ) :   1.0362 B( 25-C , 26-H ) :   0.9582 B( 25-C , 27-H ) :   0.9499
B( 25-C , 28-C ) :   1.0772 B( 28-C , 29-H ) :   0.9735 B( 28-C , 30-H ) :   0.9756
B( 28-C , 31-H ) :   0.9775

Dispersion correction           -0.014315026
FINAL SINGLE POINT ENERGY     -1339.862307445425

DIPOLE MOMENT
-------------
                                X             Y             Z
Electronic contribution:     22.60417      -1.01646      18.37322
Nuclear contribution   :    -22.96198       1.19305     -18.70987
                        -----------------------------------------
Total Dipole Moment    :     -0.35782       0.17659      -0.33665
                        -----------------------------------------
Magnitude (a.u.)       :      0.52207
Magnitude (Debye)      :      1.32698

Rotational constants in cm-1:     0.019981     0.008369     0.006681
Rotational constants in MHz :   599.009806   250.907170   200.280269

                             ****ORCA TERMINATED NORMALLY****
TOTAL RUN TIME: 0 days 0 hours 0 minutes 20 seconds 720 msec
