                         Program Version 4.2.1 -  RELEASE  -
|  1> ! wB97X-D3 SP def2-SVP
|  2> %pal
|  3> nprocs 24
|  4> end
|  5>
|  6> * xyz 0 1
|  7> S 	 3.11409 	 -18.6413 	 -112.622
|  8> C 	 2.42942 	 -17.8466 	 -114.045
|  9> C 	 1.29079 	 -18.5447 	 -114.445
| 10> C 	 1.10833 	 -19.8557 	 -113.76
| 11> C 	 2.13041 	 -20.0495 	 -112.856
| 12> H 	 0.381199 	 -20.673 	 -113.765
| 13> C 	 0.341342 	 -17.9623 	 -115.391
| 14> H 	 0.942008 	 -17.3189 	 -116.056
| 15> H 	 -0.348088 	 -17.3507 	 -114.819
| 16> C 	 -0.663909 	 -18.9469 	 -116.092
| 17> H 	 -1.18834 	 -19.5062 	 -115.329
| 18> H 	 -1.47169 	 -18.3537 	 -116.482
| 19> C 	 -0.121702 	 -19.7148 	 -117.238
| 20> H 	 0.663165 	 -20.3088 	 -116.735
| 21> H 	 -0.851466 	 -20.4255 	 -117.65
| 22> H 	 0.249749 	 -19.1161 	 -117.985
| 23> S 	 2.64871 	 -20.7823 	 -110.26
| 24> C 	 2.63316 	 -22.4946 	 -109.816
| 25> C 	 2.16143 	 -23.2877 	 -110.883
| 26> C 	 1.91499 	 -22.5028 	 -112.073
| 27> C 	 2.19367 	 -21.1713 	 -111.964
| 28> H 	 2.08342 	 -24.3397 	 -110.72
| 29> C 	 1.47206 	 -23.2492 	 -113.397
| 30> H 	 1.49734 	 -22.5911 	 -114.237
| 31> H 	 0.39352 	 -23.3719 	 -113.281
| 32> C 	 2.26468 	 -24.5933 	 -113.582
| 33> H 	 1.9977 	 -25.2513 	 -114.332
| 34> H 	 2.09467 	 -25.2624 	 -112.735
| 35> C 	 3.7169 	 -24.3852 	 -113.844
| 36> H 	 3.88584 	 -23.789 	 -114.693
| 37> H 	 4.32058 	 -25.2845 	 -113.938
| 38> H 	 4.10514 	 -23.8167 	 -112.988
| 39> H 	 2.64955 	 -16.8779 	 -114.41
| 40> H 	 2.68364 	 -22.8624 	 -108.786
| 41> *
| 42>
| 43>                          ****END OF INPUT****

CARTESIAN COORDINATES (ANGSTROEM)
---------------------------------
  S      3.114090  -18.641300  -112.622000
  C      2.429420  -17.846600  -114.045000
  C      1.290790  -18.544700  -114.445000
  C      1.108330  -19.855700  -113.760000
  C      2.130410  -20.049500  -112.856000
  H      0.381199  -20.673000  -113.765000
  C      0.341342  -17.962300  -115.391000
  H      0.942008  -17.318900  -116.056000
  H     -0.348088  -17.350700  -114.819000
  C     -0.663909  -18.946900  -116.092000
  H     -1.188340  -19.506200  -115.329000
  H     -1.471690  -18.353700  -116.482000
  C     -0.121702  -19.714800  -117.238000
  H      0.663165  -20.308800  -116.735000
  H     -0.851466  -20.425500  -117.650000
  H      0.249749  -19.116100  -117.985000
  S      2.648710  -20.782300  -110.260000
  C      2.633160  -22.494600  -109.816000
  C      2.161430  -23.287700  -110.883000
  C      1.914990  -22.502800  -112.073000
  C      2.193670  -21.171300  -111.964000
  H      2.083420  -24.339700  -110.720000
  C      1.472060  -23.249200  -113.397000
  H      1.497340  -22.591100  -114.237000
  H      0.393520  -23.371900  -113.281000
  C      2.264680  -24.593300  -113.582000
  H      1.997700  -25.251300  -114.332000
  H      2.094670  -25.262400  -112.735000
  C      3.716900  -24.385200  -113.844000
  H      3.885840  -23.789000  -114.693000
  H      4.320580  -25.284500  -113.938000
  H      4.105140  -23.816700  -112.988000
  H      2.649550  -16.877900  -114.410000
  H      2.683640  -22.862400  -108.786000

 Total Charge           Charge          ....    0
 Multiplicity           Mult            ....    1
 Number of Electrons    NEL             ....  134
 Basis Dimension        Dim             ....  322

ORBITAL ENERGIES
----------------

  NO   OCC          E(Eh)            E(eV)
   0   2.0000     -88.966136     -2420.8916
   1   2.0000     -88.963930     -2420.8316
   2   2.0000     -10.329387      -281.0769
   3   2.0000     -10.328653      -281.0569
   4   2.0000     -10.324142      -280.9342
   5   2.0000     -10.313173      -280.6357
   6   2.0000     -10.311052      -280.5780
   7   2.0000     -10.309096      -280.5248
   8   2.0000     -10.301168      -280.3090
   9   2.0000     -10.300617      -280.2940
  10   2.0000     -10.299863      -280.2735
  11   2.0000     -10.291340      -280.0416
  12   2.0000     -10.282601      -279.8038
  13   2.0000     -10.280852      -279.7562
  14   2.0000     -10.269813      -279.4558
  15   2.0000     -10.264134      -279.3013
  16   2.0000      -8.080788      -219.8894
  17   2.0000      -8.077775      -219.8074
  18   2.0000      -6.039499      -164.3431
  19   2.0000      -6.036465      -164.2606
  20   2.0000      -6.035416      -164.2320
  21   2.0000      -6.032470      -164.1519
  22   2.0000      -6.031208      -164.1175
  23   2.0000      -6.028324      -164.0390
  24   2.0000      -1.005879       -27.3714
  25   2.0000      -0.977537       -26.6001
  26   2.0000      -0.918202       -24.9856
  27   2.0000      -0.906789       -24.6750
  28   2.0000      -0.876298       -23.8453
  29   2.0000      -0.853730       -23.2312
  30   2.0000      -0.841738       -22.9049
  31   2.0000      -0.818432       -22.2707
  32   2.0000      -0.783701       -21.3256
  33   2.0000      -0.774333       -21.0707
  34   2.0000      -0.715046       -19.4574
  35   2.0000      -0.703556       -19.1447
  36   2.0000      -0.696324       -18.9479
  37   2.0000      -0.660221       -17.9655
  38   2.0000      -0.642617       -17.4865
  39   2.0000      -0.616367       -16.7722
  40   2.0000      -0.593304       -16.1446
  41   2.0000      -0.568200       -15.4615
  42   2.0000      -0.557873       -15.1805
  43   2.0000      -0.556749       -15.1499
  44   2.0000      -0.541537       -14.7360
  45   2.0000      -0.537985       -14.6393
  46   2.0000      -0.529364       -14.4047
  47   2.0000      -0.517515       -14.0823
  48   2.0000      -0.510079       -13.8800
  49   2.0000      -0.496504       -13.5106
  50   2.0000      -0.493904       -13.4398
  51   2.0000      -0.481374       -13.0988
  52   2.0000      -0.472132       -12.8474
  53   2.0000      -0.462732       -12.5916
  54   2.0000      -0.457222       -12.4416
  55   2.0000      -0.446391       -12.1469
  56   2.0000      -0.443455       -12.0670
  57   2.0000      -0.441720       -12.0198
  58   2.0000      -0.437044       -11.8926
  59   2.0000      -0.425127       -11.5683
  60   2.0000      -0.421970       -11.4824
  61   2.0000      -0.407734       -11.0950
  62   2.0000      -0.403564       -10.9815
  63   2.0000      -0.357365        -9.7244
  64   2.0000      -0.330903        -9.0043
  65   2.0000      -0.323124        -8.7926
  66   2.0000      -0.287448        -7.8219
  67   0.0000       0.021867         0.5950
  68   0.0000       0.070079         1.9069
  69   0.0000       0.097675         2.6579
  70   0.0000       0.118921         3.2360
  71   0.0000       0.131943         3.5904

MULLIKEN ATOMIC CHARGES
-----------------------
   0 S :    0.100515
   1 C :   -0.087953
   2 C :   -0.091878
   3 C :   -0.009088
   4 C :   -0.110402
   5 H :    0.027650
   6 C :    0.045409
   7 H :    0.028499
   8 H :    0.042990
   9 C :   -0.083863
  10 H :    0.022933
  11 H :    0.009317
  12 C :    0.005542
  13 H :    0.025364
  14 H :    0.034672
  15 H :    0.019330
  16 S :    0.079088
  17 C :   -0.094655
  18 C :   -0.046054
  19 C :   -0.074654
  20 C :   -0.140385
  21 H :    0.021591
  22 C :    0.086210
  23 H :    0.014485
  24 H :    0.039329
  25 C :   -0.040050
  26 H :    0.003457
  27 H :    0.015763
  28 C :   -0.031417
  29 H :    0.020249
  30 H :    0.031357
  31 H :    0.033378
  32 H :    0.033662
  33 H :    0.069608
Sum of atomic charges:   -0.0000000

LOEWDIN ATOMIC CHARGES
----------------------
   0 S :    0.400077
   1 C :   -0.195270
   2 C :   -0.050441
   3 C :   -0.073826
   4 C :   -0.189241
   5 H :    0.036447
   6 C :   -0.035954
   7 H :    0.033967
   8 H :    0.040451
   9 C :   -0.043239
  10 H :    0.023123
  11 H :    0.019060
  12 C :   -0.057598
  13 H :    0.028701
  14 H :    0.029695
  15 H :    0.014793
  16 S :    0.365827
  17 C :   -0.177657
  18 C :   -0.068198
  19 C :   -0.056891
  20 C :   -0.176396
  21 H :    0.029162
  22 C :   -0.021267
  23 H :    0.021568
  24 H :    0.034198
  25 C :   -0.041331
  26 H :    0.015774
  27 H :    0.023070
  28 C :   -0.059710
  29 H :    0.019416
  30 H :    0.026557
  31 H :    0.027850
  32 H :    0.023095
  33 H :    0.034187

  Mayer bond orders larger than 0.100000
B(  0-S ,  1-C ) :   1.1021 B(  0-S ,  4-C ) :   1.1473 B(  1-C ,  2-C ) :   1.6359
B(  1-C , 32-H ) :   0.9762 B(  2-C ,  3-C ) :   1.1688 B(  2-C ,  6-C ) :   1.0385
B(  3-C ,  4-C ) :   1.5790 B(  3-C ,  5-H ) :   0.9872 B(  4-C , 20-C ) :   1.0740
B(  6-C ,  7-H ) :   0.9418 B(  6-C ,  8-H ) :   0.9239 B(  6-C ,  9-C ) :   1.0875
B(  9-C , 10-H ) :   0.9440 B(  9-C , 11-H ) :   0.9505 B(  9-C , 12-C ) :   1.0820
B( 12-C , 13-H ) :   0.9755 B( 12-C , 14-H ) :   0.9706 B( 12-C , 15-H ) :   0.9722
B( 16-S , 17-C ) :   1.1456 B( 16-S , 20-C ) :   1.1052 B( 17-C , 18-C ) :   1.6309
B( 17-C , 33-H ) :   0.9625 B( 18-C , 19-C ) :   1.2056 B( 18-C , 21-H ) :   0.9935
B( 19-C , 20-C ) :   1.6478 B( 19-C , 22-C ) :   1.0147 B( 22-C , 23-H ) :   0.9426
B( 22-C , 24-H ) :   0.9352 B( 22-C , 25-C ) :   1.0565 B( 25-C , 26-H ) :   0.9523
B( 25-C , 27-H ) :   0.9505 B( 25-C , 28-C ) :   1.0819 B( 28-C , 29-H ) :   0.9720
B( 28-C , 30-H ) :   0.9717 B( 28-C , 31-H ) :   0.9728

Dispersion correction           -0.014497046
FINAL SINGLE POINT ENERGY     -1339.853080442759

DIPOLE MOMENT
-------------
                                X             Y             Z
Electronic contribution:      9.49324      12.25689      22.17856
Nuclear contribution   :    -10.07815     -12.53614     -22.55580
                        -----------------------------------------
Total Dipole Moment    :     -0.58491      -0.27925      -0.37724
                        -----------------------------------------
Magnitude (a.u.)       :      0.74994
Magnitude (Debye)      :      1.90620

Rotational constants in cm-1:     0.018277     0.009380     0.007018
Rotational constants in MHz :   547.918580   281.202505   210.383323

                             ****ORCA TERMINATED NORMALLY****
TOTAL RUN TIME: 0 days 0 hours 0 minutes 22 seconds 82 msec
