                         Program Version 4.2.1 -  RELEASE  -
|  1> ! wB97X-D3 SP def2-SVP
|  2> %pal
|  3> nprocs 24
|  4> end
|  5>
|  6> * xyz 0 1
|  7> S 	 -131.175 	 9.59737 	 -9.15613
|  8> C 	 -129.989 	 8.39689 	 -8.75056
|  9> C 	 -129.056 	 8.24232 	 -9.70007
| 10> C 	 -129.365 	 9.14541 	 -10.8506
| 11> C 	 -130.61 	 9.67279 	 -10.7634
| 12> H 	 -128.874 	 9.19054 	 -11.7928
| 13> C 	 -127.818 	 7.34836 	 -9.66868
| 14> H 	 -127.855 	 6.94703 	 -10.7461
| 15> H 	 -128.015 	 6.58597 	 -8.90614
| 16> C 	 -126.509 	 8.03969 	 -9.45951
| 17> H 	 -125.811 	 7.30067 	 -9.72022
| 18> H 	 -126.365 	 8.88175 	 -10.0284
| 19> C 	 -126.162 	 8.41275 	 -7.99287
| 20> H 	 -126.758 	 9.30663 	 -7.78183
| 21> H 	 -126.265 	 7.60016 	 -7.31944
| 22> H 	 -125.108 	 8.71905 	 -7.8926
| 23> S 	 -131.761 	 12.2262 	 -11.0989
| 24> C 	 -132.112 	 12.7848 	 -12.7473
| 25> C 	 -131.984 	 11.6866 	 -13.6098
| 26> C 	 -131.36 	 10.5454 	 -13.0038
| 27> C 	 -131.09 	 10.6909 	 -11.6659
| 28> H 	 -132.387 	 11.9008 	 -14.6225
| 29> C 	 -131.067 	 9.31881 	 -13.8375
| 30> H 	 -130.029 	 9.18124 	 -14.0126
| 31> H 	 -131.295 	 9.53629 	 -14.8684
| 32> C 	 -131.809 	 7.92578 	 -13.624
| 33> H 	 -132.887 	 8.09572 	 -13.4798
| 34> H 	 -131.407 	 7.68311 	 -12.6497
| 35> C 	 -131.449 	 7.02688 	 -14.7323
| 36> H 	 -132.074 	 6.13399 	 -14.9047
| 37> H 	 -130.51 	 6.51061 	 -14.4279
| 38> H 	 -131.367 	 7.46682 	 -15.6967
| 39> H 	 -129.87 	 7.81517 	 -7.80827
| 40> H 	 -132.683 	 13.6626 	 -12.9985
| 41> *
| 42>
| 43>                          ****END OF INPUT****

CARTESIAN COORDINATES (ANGSTROEM)
---------------------------------
  S    -131.175000    9.597370   -9.156130
  C    -129.989000    8.396890   -8.750560
  C    -129.056000    8.242320   -9.700070
  C    -129.365000    9.145410  -10.850600
  C    -130.610000    9.672790  -10.763400
  H    -128.874000    9.190540  -11.792800
  C    -127.818000    7.348360   -9.668680
  H    -127.855000    6.947030  -10.746100
  H    -128.015000    6.585970   -8.906140
  C    -126.509000    8.039690   -9.459510
  H    -125.811000    7.300670   -9.720220
  H    -126.365000    8.881750  -10.028400
  C    -126.162000    8.412750   -7.992870
  H    -126.758000    9.306630   -7.781830
  H    -126.265000    7.600160   -7.319440
  H    -125.108000    8.719050   -7.892600
  S    -131.761000   12.226200  -11.098900
  C    -132.112000   12.784800  -12.747300
  C    -131.984000   11.686600  -13.609800
  C    -131.360000   10.545400  -13.003800
  C    -131.090000   10.690900  -11.665900
  H    -132.387000   11.900800  -14.622500
  C    -131.067000    9.318810  -13.837500
  H    -130.029000    9.181240  -14.012600
  H    -131.295000    9.536290  -14.868400
  C    -131.809000    7.925780  -13.624000
  H    -132.887000    8.095720  -13.479800
  H    -131.407000    7.683110  -12.649700
  C    -131.449000    7.026880  -14.732300
  H    -132.074000    6.133990  -14.904700
  H    -130.510000    6.510610  -14.427900
  H    -131.367000    7.466820  -15.696700
  H    -129.870000    7.815170   -7.808270
  H    -132.683000   13.662600  -12.998500

 Total Charge           Charge          ....    0
 Multiplicity           Mult            ....    1
 Number of Electrons    NEL             ....  134
 Basis Dimension        Dim             ....  322

ORBITAL ENERGIES
----------------

  NO   OCC          E(Eh)            E(eV)
   0   2.0000     -88.964481     -2420.8466
   1   2.0000     -88.963253     -2420.8132
   2   2.0000     -10.326402      -280.9957
   3   2.0000     -10.323197      -280.9085
   4   2.0000     -10.318532      -280.7815
   5   2.0000     -10.311291      -280.5845
   6   2.0000     -10.303147      -280.3629
   7   2.0000     -10.300841      -280.3001
   8   2.0000     -10.300744      -280.2975
   9   2.0000     -10.299585      -280.2660
  10   2.0000     -10.293046      -280.0880
  11   2.0000     -10.284301      -279.8501
  12   2.0000     -10.283033      -279.8156
  13   2.0000     -10.276283      -279.6319
  14   2.0000     -10.276231      -279.6305
  15   2.0000     -10.275884      -279.6210
  16   2.0000      -8.079511      -219.8547
  17   2.0000      -8.078436      -219.8254
  18   2.0000      -6.038184      -164.3073
  19   2.0000      -6.037093      -164.2776
  20   2.0000      -6.034041      -164.1946
  21   2.0000      -6.033082      -164.1685
  22   2.0000      -6.029738      -164.0775
  23   2.0000      -6.029041      -164.0586
  24   2.0000      -1.014787       -27.6138
  25   2.0000      -0.984159       -26.7803
  26   2.0000      -0.919128       -25.0107
  27   2.0000      -0.907820       -24.7030
  28   2.0000      -0.875892       -23.8342
  29   2.0000      -0.854004       -23.2386
  30   2.0000      -0.843507       -22.9530
  31   2.0000      -0.816634       -22.2218
  32   2.0000      -0.784729       -21.3536
  33   2.0000      -0.774111       -21.0646
  34   2.0000      -0.713502       -19.4154
  35   2.0000      -0.703377       -19.1398
  36   2.0000      -0.693098       -18.8602
  37   2.0000      -0.660410       -17.9707
  38   2.0000      -0.639049       -17.3894
  39   2.0000      -0.620686       -16.8897
  40   2.0000      -0.595363       -16.2006
  41   2.0000      -0.574335       -15.6284
  42   2.0000      -0.562994       -15.3198
  43   2.0000      -0.549859       -14.9624
  44   2.0000      -0.545945       -14.8559
  45   2.0000      -0.524062       -14.2605
  46   2.0000      -0.519110       -14.1257
  47   2.0000      -0.517290       -14.0762
  48   2.0000      -0.504743       -13.7348
  49   2.0000      -0.497262       -13.5312
  50   2.0000      -0.495017       -13.4701
  51   2.0000      -0.482159       -13.1202
  52   2.0000      -0.473333       -12.8800
  53   2.0000      -0.468765       -12.7557
  54   2.0000      -0.457763       -12.4564
  55   2.0000      -0.452905       -12.3242
  56   2.0000      -0.447340       -12.1727
  57   2.0000      -0.442847       -12.0505
  58   2.0000      -0.431576       -11.7438
  59   2.0000      -0.421652       -11.4737
  60   2.0000      -0.415962       -11.3189
  61   2.0000      -0.406055       -11.0493
  62   2.0000      -0.399902       -10.8819
  63   2.0000      -0.356275        -9.6947
  64   2.0000      -0.328645        -8.9429
  65   2.0000      -0.323967        -8.8156
  66   2.0000      -0.294788        -8.0216
  67   0.0000       0.027978         0.7613
  68   0.0000       0.070802         1.9266
  69   0.0000       0.106190         2.8896
  70   0.0000       0.115119         3.1325
  71   0.0000       0.137862         3.7514

MULLIKEN ATOMIC CHARGES
-----------------------
   0 S :    0.098089
   1 C :   -0.115292
   2 C :   -0.109717
   3 C :    0.010162
   4 C :   -0.122981
   5 H :    0.009361
   6 C :    0.053225
   7 H :    0.044079
   8 H :    0.023236
   9 C :   -0.008790
  10 H :    0.018001
  11 H :    0.014193
  12 C :   -0.058431
  13 H :    0.042324
  14 H :    0.022220
  15 H :    0.032324
  16 S :    0.088369
  17 C :   -0.104392
  18 C :   -0.051352
  19 C :   -0.021278
  20 C :   -0.122959
  21 H :    0.038654
  22 C :    0.023180
  23 H :    0.016130
  24 H :   -0.012672
  25 C :   -0.036944
  26 H :    0.035474
  27 H :    0.036178
  28 C :   -0.043109
  29 H :    0.031419
  30 H :    0.030839
  31 H :    0.027497
  32 H :    0.051592
  33 H :    0.061369
Sum of atomic charges:   -0.0000000

LOEWDIN ATOMIC CHARGES
----------------------
   0 S :    0.414516
   1 C :   -0.207709
   2 C :   -0.066094
   3 C :   -0.054765
   4 C :   -0.201411
   5 H :    0.024241
   6 C :   -0.029624
   7 H :    0.044769
   8 H :    0.031082
   9 C :   -0.031940
  10 H :    0.021173
  11 H :    0.016283
  12 C :   -0.060488
  13 H :    0.028980
  14 H :    0.016586
  15 H :    0.029523
  16 S :    0.381521
  17 C :   -0.184917
  18 C :   -0.069108
  19 C :   -0.063970
  20 C :   -0.185160
  21 H :    0.040462
  22 C :   -0.038968
  23 H :    0.024189
  24 H :    0.023623
  25 C :   -0.036271
  26 H :    0.026102
  27 H :    0.024136
  28 C :   -0.072918
  29 H :    0.031003
  30 H :    0.035633
  31 H :    0.020253
  32 H :    0.039282
  33 H :    0.029986

  Mayer bond orders larger than 0.100000
B(  0-S ,  1-C ) :   1.1127 B(  0-S ,  4-C ) :   1.1309 B(  1-C ,  2-C ) :   1.6831
B(  1-C , 32-H ) :   0.9558 B(  2-C ,  3-C ) :   1.1820 B(  2-C ,  6-C ) :   1.0138
B(  3-C ,  4-C ) :   1.6029 B(  3-C ,  5-H ) :   0.9922 B(  4-C , 20-C ) :   1.0665
B(  6-C ,  7-H ) :   0.9356 B(  6-C ,  8-H ) :   0.9397 B(  6-C ,  9-C ) :   1.0786
B(  9-C , 10-H ) :   0.9502 B(  9-C , 11-H ) :   0.9555 B(  9-C , 12-C ) :   1.0800
B( 12-C , 13-H ) :   0.9792 B( 12-C , 14-H ) :   0.9761 B( 12-C , 15-H ) :   0.9734
B( 16-S , 17-C ) :   1.1443 B( 16-S , 20-C ) :   1.1220 B( 17-C , 18-C ) :   1.6215
B( 17-C , 33-H ) :   0.9655 B( 18-C , 19-C ) :   1.2448 B( 18-C , 21-H ) :   0.9839
B( 19-C , 20-C ) :   1.5987 B( 19-C , 22-C ) :   1.0352 B( 22-C , 23-H ) :   0.9339
B( 22-C , 24-H ) :   0.9279 B( 22-C , 25-C ) :   1.0339 B( 25-C , 26-H ) :   0.9584
B( 25-C , 27-H ) :   0.9587 B( 25-C , 28-C ) :   1.0786 B( 28-C , 29-H ) :   0.9704
B( 28-C , 30-H ) :   0.9702 B( 28-C , 31-H ) :   0.9748

Dispersion correction           -0.014298806
FINAL SINGLE POINT ENERGY     -1339.842975990887

DIPOLE MOMENT
-------------
                                X             Y             Z
Electronic contribution:    -15.40235      18.75638       8.40547
Nuclear contribution   :     15.80492     -19.21542      -8.78537
                        -----------------------------------------
Total Dipole Moment    :      0.40257      -0.45903      -0.37990
                        -----------------------------------------
Magnitude (a.u.)       :      0.71910
Magnitude (Debye)      :      1.82780

Rotational constants in cm-1:     0.018322     0.008770     0.006949
Rotational constants in MHz :   549.287195   262.904776   208.312723

                             ****ORCA TERMINATED NORMALLY****
TOTAL RUN TIME: 0 days 0 hours 0 minutes 20 seconds 681 msec
