                         Program Version 4.2.1 -  RELEASE  -
|  1> ! wB97X-D3 SP def2-SVP
|  2> %pal
|  3> nprocs 24
|  4> end
|  5>
|  6> * xyz 0 1
|  7> S 	 -40.0241 	 15.7805 	 18.6436
|  8> C 	 -41.5963 	 15.7179 	 19.3348
|  9> C 	 -42.5692 	 15.656 	 18.3369
| 10> C 	 -41.9677 	 15.642 	 17.0031
| 11> C 	 -40.6224 	 15.749 	 17.0521
| 12> H 	 -42.4645 	 15.5754 	 16.0149
| 13> C 	 -44.0345 	 15.502 	 18.62
| 14> H 	 -44.6036 	 16.4686 	 18.6565
| 15> H 	 -44.0774 	 15.195 	 19.6495
| 16> C 	 -44.6955 	 14.3536 	 17.8919
| 17> H 	 -44.499 	 14.4051 	 16.8522
| 18> H 	 -44.3454 	 13.3337 	 18.2389
| 19> C 	 -46.2726 	 14.3059 	 18.1332
| 20> H 	 -46.7475 	 13.4423 	 17.7732
| 21> H 	 -46.4691 	 14.3486 	 19.2261
| 22> H 	 -46.6811 	 15.1329 	 17.5336
| 23> S 	 -38.7224 	 14.2114 	 15.7132
| 24> C 	 -37.8984 	 14.989 	 14.4484
| 25> C 	 -38.4628 	 16.1623 	 13.9889
| 26> C 	 -39.548 	 16.5364 	 14.8561
| 27> C 	 -39.7054 	 15.6466 	 15.8903
| 28> H 	 -38.1168 	 16.6795 	 13.1405
| 29> C 	 -40.3061 	 17.8864 	 14.6542
| 30> H 	 -41.2947 	 17.7191 	 14.1674
| 31> H 	 -39.8515 	 18.4984 	 13.9027
| 32> C 	 -40.4563 	 18.777 	 15.8898
| 33> H 	 -40.6801 	 18.1509 	 16.7335
| 34> H 	 -41.1851 	 19.5439 	 15.7911
| 35> C 	 -39.1509 	 19.6121 	 16.1507
| 36> H 	 -39.5017 	 20.0744 	 17.1875
| 37> H 	 -39.0446 	 20.2786 	 15.3318
| 38> H 	 -38.2309 	 19.0316 	 16.3208
| 39> H 	 -41.9065 	 15.642 	 20.3957
| 40> H 	 -37.1189 	 14.508 	 13.8257
| 41> *
| 42>
| 43>                          ****END OF INPUT****

CARTESIAN COORDINATES (ANGSTROEM)
---------------------------------
  S    -40.024100   15.780500   18.643600
  C    -41.596300   15.717900   19.334800
  C    -42.569200   15.656000   18.336900
  C    -41.967700   15.642000   17.003100
  C    -40.622400   15.749000   17.052100
  H    -42.464500   15.575400   16.014900
  C    -44.034500   15.502000   18.620000
  H    -44.603600   16.468600   18.656500
  H    -44.077400   15.195000   19.649500
  C    -44.695500   14.353600   17.891900
  H    -44.499000   14.405100   16.852200
  H    -44.345400   13.333700   18.238900
  C    -46.272600   14.305900   18.133200
  H    -46.747500   13.442300   17.773200
  H    -46.469100   14.348600   19.226100
  H    -46.681100   15.132900   17.533600
  S    -38.722400   14.211400   15.713200
  C    -37.898400   14.989000   14.448400
  C    -38.462800   16.162300   13.988900
  C    -39.548000   16.536400   14.856100
  C    -39.705400   15.646600   15.890300
  H    -38.116800   16.679500   13.140500
  C    -40.306100   17.886400   14.654200
  H    -41.294700   17.719100   14.167400
  H    -39.851500   18.498400   13.902700
  C    -40.456300   18.777000   15.889800
  H    -40.680100   18.150900   16.733500
  H    -41.185100   19.543900   15.791100
  C    -39.150900   19.612100   16.150700
  H    -39.501700   20.074400   17.187500
  H    -39.044600   20.278600   15.331800
  H    -38.230900   19.031600   16.320800
  H    -41.906500   15.642000   20.395700
  H    -37.118900   14.508000   13.825700

 Total Charge           Charge          ....    0
 Multiplicity           Mult            ....    1
 Number of Electrons    NEL             ....  134
 Basis Dimension        Dim             ....  322

ORBITAL ENERGIES
----------------

  NO   OCC          E(Eh)            E(eV)
   0   2.0000     -88.968926     -2420.9675
   1   2.0000     -88.966326     -2420.8968
   2   2.0000     -10.322702      -280.8950
   3   2.0000     -10.321363      -280.8586
   4   2.0000     -10.314193      -280.6635
   5   2.0000     -10.313756      -280.6516
   6   2.0000     -10.305202      -280.4188
   7   2.0000     -10.302783      -280.3530
   8   2.0000     -10.293341      -280.0960
   9   2.0000     -10.290899      -280.0296
  10   2.0000     -10.290731      -280.0250
  11   2.0000     -10.289915      -280.0028
  12   2.0000     -10.289415      -279.9892
  13   2.0000     -10.280158      -279.7373
  14   2.0000     -10.279031      -279.7067
  15   2.0000     -10.274686      -279.5884
  16   2.0000      -8.084596      -219.9931
  17   2.0000      -8.082157      -219.9267
  18   2.0000      -6.042905      -164.4358
  19   2.0000      -6.040646      -164.3743
  20   2.0000      -6.039151      -164.3337
  21   2.0000      -6.036419      -164.2593
  22   2.0000      -6.035329      -164.2296
  23   2.0000      -6.032942      -164.1647
  24   2.0000      -1.013622       -27.5820
  25   2.0000      -0.991295       -26.9745
  26   2.0000      -0.912341       -24.8261
  27   2.0000      -0.902952       -24.5706
  28   2.0000      -0.866498       -23.5786
  29   2.0000      -0.849123       -23.1058
  30   2.0000      -0.843985       -22.9660
  31   2.0000      -0.814088       -22.1525
  32   2.0000      -0.780668       -21.2431
  33   2.0000      -0.769339       -20.9348
  34   2.0000      -0.707562       -19.2537
  35   2.0000      -0.694218       -18.8906
  36   2.0000      -0.678639       -18.4667
  37   2.0000      -0.661158       -17.9910
  38   2.0000      -0.642858       -17.4931
  39   2.0000      -0.618135       -16.8203
  40   2.0000      -0.599509       -16.3135
  41   2.0000      -0.569845       -15.5063
  42   2.0000      -0.561995       -15.2927
  43   2.0000      -0.548951       -14.9377
  44   2.0000      -0.535592       -14.5742
  45   2.0000      -0.522474       -14.2173
  46   2.0000      -0.514541       -14.0014
  47   2.0000      -0.507558       -13.8114
  48   2.0000      -0.500305       -13.6140
  49   2.0000      -0.494858       -13.4658
  50   2.0000      -0.490018       -13.3341
  51   2.0000      -0.480203       -13.0670
  52   2.0000      -0.471297       -12.8246
  53   2.0000      -0.466042       -12.6816
  54   2.0000      -0.462590       -12.5877
  55   2.0000      -0.456779       -12.4296
  56   2.0000      -0.449830       -12.2405
  57   2.0000      -0.431507       -11.7419
  58   2.0000      -0.425210       -11.5705
  59   2.0000      -0.423555       -11.5255
  60   2.0000      -0.417216       -11.3530
  61   2.0000      -0.409134       -11.1331
  62   2.0000      -0.403973       -10.9927
  63   2.0000      -0.339865        -9.2482
  64   2.0000      -0.333572        -9.0770
  65   2.0000      -0.324561        -8.8318
  66   2.0000      -0.304184        -8.2773
  67   0.0000       0.042041         1.1440
  68   0.0000       0.068791         1.8719
  69   0.0000       0.113532         3.0894
  70   0.0000       0.127560         3.4711
  71   0.0000       0.132813         3.6140

MULLIKEN ATOMIC CHARGES
-----------------------
   0 S :    0.131703
   1 C :   -0.118474
   2 C :   -0.108309
   3 C :    0.036835
   4 C :   -0.207605
   5 H :    0.028863
   6 C :    0.084594
   7 H :    0.050761
   8 H :   -0.001448
   9 C :   -0.110815
  10 H :    0.025732
  11 H :    0.040175
  12 C :   -0.047658
  13 H :    0.024113
  14 H :    0.036980
  15 H :    0.035178
  16 S :    0.142898
  17 C :   -0.093305
  18 C :   -0.026659
  19 C :   -0.006209
  20 C :   -0.186932
  21 H :    0.002121
  22 C :    0.079657
  23 H :    0.033076
  24 H :   -0.005350
  25 C :   -0.060795
  26 H :    0.050030
  27 H :    0.017540
  28 C :   -0.094442
  29 H :    0.050131
  30 H :    0.030563
  31 H :    0.048522
  32 H :    0.057732
  33 H :    0.060799
Sum of atomic charges:    0.0000000

LOEWDIN ATOMIC CHARGES
----------------------
   0 S :    0.439819
   1 C :   -0.218198
   2 C :   -0.060786
   3 C :   -0.067082
   4 C :   -0.217788
   5 H :    0.039312
   6 C :   -0.043573
   7 H :    0.039394
   8 H :    0.028073
   9 C :   -0.036812
  10 H :    0.012321
  11 H :    0.031654
  12 C :   -0.062750
  13 H :    0.016621
  14 H :    0.028129
  15 H :    0.027024
  16 S :    0.431626
  17 C :   -0.201828
  18 C :   -0.066516
  19 C :   -0.045987
  20 C :   -0.207996
  21 H :    0.025102
  22 C :   -0.034560
  23 H :    0.033595
  24 H :    0.020920
  25 C :   -0.037349
  26 H :    0.021472
  27 H :    0.020464
  28 C :   -0.067483
  29 H :    0.043086
  30 H :    0.014283
  31 H :    0.024599
  32 H :    0.038469
  33 H :    0.032745

  Mayer bond orders larger than 0.100000
B(  0-S ,  1-C ) :   1.1392 B(  0-S ,  4-C ) :   1.1644 B(  1-C ,  2-C ) :   1.6274
B(  1-C , 32-H ) :   0.9606 B(  2-C ,  3-C ) :   1.2144 B(  2-C ,  6-C ) :   1.0291
B(  3-C ,  4-C ) :   1.6085 B(  3-C ,  5-H ) :   0.9885 B(  4-C , 20-C ) :   0.9898
B(  6-C ,  7-H ) :   0.9372 B(  6-C ,  8-H ) :   0.9305 B(  6-C ,  9-C ) :   1.0509
B(  9-C , 10-H ) :   0.9634 B(  9-C , 11-H ) :   0.9592 B(  9-C , 12-C ) :   1.0744
B( 12-C , 13-H ) :   0.9774 B( 12-C , 14-H ) :   0.9769 B( 12-C , 15-H ) :   0.9783
B( 16-S , 17-C ) :   1.1684 B( 16-S , 20-C ) :   1.1493 B( 17-C , 18-C ) :   1.6144
B( 17-C , 33-H ) :   0.9578 B( 18-C , 19-C ) :   1.2384 B( 18-C , 21-H ) :   0.9991
B( 19-C , 20-C ) :   1.6226 B( 19-C , 22-C ) :   1.0246 B( 22-C , 23-H ) :   0.9309
B( 22-C , 24-H ) :   0.9406 B( 22-C , 25-C ) :   1.0685 B( 25-C , 26-H ) :   0.9614
B( 25-C , 27-H ) :   0.9528 B( 25-C , 28-C ) :   1.0600 B( 28-C , 29-H ) :   0.9783
B( 28-C , 30-H ) :   0.9771 B( 28-C , 31-H ) :   0.9805

Dispersion correction           -0.014791967
FINAL SINGLE POINT ENERGY     -1339.867517862580

DIPOLE MOMENT
-------------
                                X             Y             Z
Electronic contribution:     20.35047     -10.99062       0.46861
Nuclear contribution   :    -20.83177      11.06625      -0.71512
                        -----------------------------------------
Total Dipole Moment    :     -0.48130       0.07564      -0.24651
                        -----------------------------------------
Magnitude (a.u.)       :      0.54602
Magnitude (Debye)      :      1.38787

Rotational constants in cm-1:     0.020004     0.008133     0.007449
Rotational constants in MHz :   599.705395   243.815513   223.310035

                             ****ORCA TERMINATED NORMALLY****
TOTAL RUN TIME: 0 days 0 hours 0 minutes 20 seconds 892 msec
