                         Program Version 4.2.1 -  RELEASE  -
|  1> ! wB97X-D3 SP def2-SVP
|  2> %pal
|  3> nprocs 24
|  4> end
|  5>
|  6> * xyz 0 1
|  7> S 	 -76.7148 	 1.00619 	 -110.299
|  8> C 	 -76.9807 	 2.68653 	 -110.494
|  9> C 	 -75.9247 	 3.39906 	 -111.002
| 10> C 	 -74.7845 	 2.57669 	 -111.016
| 11> C 	 -75.0112 	 1.34089 	 -110.534
| 12> H 	 -73.8616 	 2.90484 	 -111.504
| 13> C 	 -75.8832 	 4.81275 	 -111.462
| 14> H 	 -74.9394 	 5.24728 	 -111.142
| 15> H 	 -76.693 	 5.42558 	 -111.041
| 16> C 	 -76.0468 	 4.99606 	 -113.012
| 17> H 	 -75.2115 	 4.50634 	 -113.493
| 18> H 	 -76.996 	 4.4424 	 -113.295
| 19> C 	 -76.2079 	 6.37623 	 -113.508
| 20> H 	 -75.5179 	 7.03468 	 -112.901
| 21> H 	 -75.8017 	 6.43057 	 -114.548
| 22> H 	 -77.1721 	 6.9127 	 -113.428
| 23> S 	 -74.489 	 -1.40815 	 -110.662
| 24> C 	 -72.8725 	 -1.97854 	 -110.718
| 25> C 	 -71.985 	 -0.959458 	 -110.294
| 26> C 	 -72.6675 	 0.363778 	 -110.207
| 27> C 	 -74.022 	 0.250846 	 -110.509
| 28> H 	 -70.8885 	 -1.19356 	 -110.177
| 29> C 	 -71.8271 	 1.42607 	 -109.777
| 30> H 	 -72.4748 	 2.30936 	 -109.741
| 31> H 	 -71.1816 	 1.64624 	 -110.603
| 32> C 	 -70.9821 	 1.2255 	 -108.533
| 33> H 	 -70.2307 	 0.432196 	 -108.811
| 34> H 	 -71.6991 	 0.794575 	 -107.76
| 35> C 	 -70.355 	 2.54064 	 -108.134
| 36> H 	 -69.6202 	 2.84133 	 -108.904
| 37> H 	 -69.7225 	 2.36911 	 -107.24
| 38> H 	 -71.0733 	 3.31464 	 -107.971
| 39> H 	 -77.9283 	 3.18283 	 -110.534
| 40> H 	 -72.5842 	 -2.89884 	 -111.196
| 41> *
| 42>
| 43>                          ****END OF INPUT****

CARTESIAN COORDINATES (ANGSTROEM)
---------------------------------
  S    -76.714800    1.006190  -110.299000
  C    -76.980700    2.686530  -110.494000
  C    -75.924700    3.399060  -111.002000
  C    -74.784500    2.576690  -111.016000
  C    -75.011200    1.340890  -110.534000
  H    -73.861600    2.904840  -111.504000
  C    -75.883200    4.812750  -111.462000
  H    -74.939400    5.247280  -111.142000
  H    -76.693000    5.425580  -111.041000
  C    -76.046800    4.996060  -113.012000
  H    -75.211500    4.506340  -113.493000
  H    -76.996000    4.442400  -113.295000
  C    -76.207900    6.376230  -113.508000
  H    -75.517900    7.034680  -112.901000
  H    -75.801700    6.430570  -114.548000
  H    -77.172100    6.912700  -113.428000
  S    -74.489000   -1.408150  -110.662000
  C    -72.872500   -1.978540  -110.718000
  C    -71.985000   -0.959458  -110.294000
  C    -72.667500    0.363778  -110.207000
  C    -74.022000    0.250846  -110.509000
  H    -70.888500   -1.193560  -110.177000
  C    -71.827100    1.426070  -109.777000
  H    -72.474800    2.309360  -109.741000
  H    -71.181600    1.646240  -110.603000
  C    -70.982100    1.225500  -108.533000
  H    -70.230700    0.432196  -108.811000
  H    -71.699100    0.794575  -107.760000
  C    -70.355000    2.540640  -108.134000
  H    -69.620200    2.841330  -108.904000
  H    -69.722500    2.369110  -107.240000
  H    -71.073300    3.314640  -107.971000
  H    -77.928300    3.182830  -110.534000
  H    -72.584200   -2.898840  -111.196000

 Total Charge           Charge          ....    0
 Multiplicity           Mult            ....    1
 Number of Electrons    NEL             ....  134
 Basis Dimension        Dim             ....  322

ORBITAL ENERGIES
----------------

  NO   OCC          E(Eh)            E(eV)
   0   2.0000     -88.969023     -2420.9702
   1   2.0000     -88.962227     -2420.7853
   2   2.0000     -10.326473      -280.9976
   3   2.0000     -10.325583      -280.9734
   4   2.0000     -10.316569      -280.7281
   5   2.0000     -10.304727      -280.4059
   6   2.0000     -10.301912      -280.3293
   7   2.0000     -10.300602      -280.2936
   8   2.0000     -10.293899      -280.1112
   9   2.0000     -10.293398      -280.0976
  10   2.0000     -10.292704      -280.0787
  11   2.0000     -10.289687      -279.9966
  12   2.0000     -10.287183      -279.9285
  13   2.0000     -10.284850      -279.8650
  14   2.0000     -10.280476      -279.7460
  15   2.0000     -10.277815      -279.6736
  16   2.0000      -8.084488      -219.9901
  17   2.0000      -8.078114      -219.8167
  18   2.0000      -6.042924      -164.4363
  19   2.0000      -6.039372      -164.3397
  20   2.0000      -6.036754      -164.2684
  21   2.0000      -6.034817      -164.2157
  22   2.0000      -6.032548      -164.1540
  23   2.0000      -6.028619      -164.0471
  24   2.0000      -1.014195       -27.5976
  25   2.0000      -0.988933       -26.9102
  26   2.0000      -0.922738       -25.1090
  27   2.0000      -0.914785       -24.8926
  28   2.0000      -0.869961       -23.6729
  29   2.0000      -0.861845       -23.4520
  30   2.0000      -0.849555       -23.1176
  31   2.0000      -0.814142       -22.1539
  32   2.0000      -0.780887       -21.2490
  33   2.0000      -0.771058       -20.9816
  34   2.0000      -0.705790       -19.2055
  35   2.0000      -0.696527       -18.9535
  36   2.0000      -0.694675       -18.9031
  37   2.0000      -0.657068       -17.8797
  38   2.0000      -0.635010       -17.2795
  39   2.0000      -0.628407       -17.0998
  40   2.0000      -0.598420       -16.2838
  41   2.0000      -0.573724       -15.6118
  42   2.0000      -0.570381       -15.5208
  43   2.0000      -0.560040       -15.2395
  44   2.0000      -0.530303       -14.4303
  45   2.0000      -0.523246       -14.2382
  46   2.0000      -0.519287       -14.1305
  47   2.0000      -0.515236       -14.0203
  48   2.0000      -0.507416       -13.8075
  49   2.0000      -0.497043       -13.5252
  50   2.0000      -0.493384       -13.4257
  51   2.0000      -0.479156       -13.0385
  52   2.0000      -0.473730       -12.8908
  53   2.0000      -0.467073       -12.7097
  54   2.0000      -0.463368       -12.6089
  55   2.0000      -0.455141       -12.3850
  56   2.0000      -0.446970       -12.1627
  57   2.0000      -0.440070       -11.9749
  58   2.0000      -0.426700       -11.6111
  59   2.0000      -0.421294       -11.4640
  60   2.0000      -0.418608       -11.3909
  61   2.0000      -0.415621       -11.3096
  62   2.0000      -0.412222       -11.2171
  63   2.0000      -0.358293        -9.7497
  64   2.0000      -0.333548        -9.0763
  65   2.0000      -0.319101        -8.6832
  66   2.0000      -0.280726        -7.6390
  67   0.0000       0.027760         0.7554
  68   0.0000       0.072027         1.9599
  69   0.0000       0.098624         2.6837
  70   0.0000       0.111509         3.0343
  71   0.0000       0.138784         3.7765

MULLIKEN ATOMIC CHARGES
-----------------------
   0 S :    0.114443
   1 C :   -0.085414
   2 C :   -0.085831
   3 C :   -0.034156
   4 C :   -0.100946
   5 H :    0.021977
   6 C :    0.060888
   7 H :    0.023249
   8 H :    0.019935
   9 C :   -0.086875
  10 H :    0.027352
  11 H :    0.036847
  12 C :   -0.058171
  13 H :    0.018400
  14 H :    0.044687
  15 H :    0.046683
  16 S :    0.094442
  17 C :   -0.098523
  18 C :   -0.073865
  19 C :   -0.068449
  20 C :   -0.107106
  21 H :    0.048564
  22 C :    0.061022
  23 H :    0.001561
  24 H :    0.020790
  25 C :   -0.107743
  26 H :    0.038081
  27 H :    0.050477
  28 C :   -0.014622
  29 H :    0.026874
  30 H :    0.037570
  31 H :    0.037300
  32 H :    0.025075
  33 H :    0.065483
Sum of atomic charges:    0.0000000

LOEWDIN ATOMIC CHARGES
----------------------
   0 S :    0.414110
   1 C :   -0.204183
   2 C :   -0.063786
   3 C :   -0.068847
   4 C :   -0.178044
   5 H :    0.034720
   6 C :   -0.031823
   7 H :    0.027713
   8 H :    0.031324
   9 C :   -0.046571
  10 H :    0.022202
  11 H :    0.031779
  12 C :   -0.079615
  13 H :    0.026458
  14 H :    0.036558
  15 H :    0.029167
  16 S :    0.410277
  17 C :   -0.198483
  18 C :   -0.073278
  19 C :   -0.055908
  20 C :   -0.204603
  21 H :    0.038453
  22 C :   -0.051617
  23 H :    0.026470
  24 H :    0.032052
  25 C :   -0.040615
  26 H :    0.028317
  27 H :    0.034347
  28 C :   -0.062617
  29 H :    0.029293
  30 H :    0.031156
  31 H :    0.024217
  32 H :    0.021492
  33 H :    0.029886

  Mayer bond orders larger than 0.100000
B(  0-S ,  1-C ) :   1.1341 B(  0-S ,  4-C ) :   1.1375 B(  1-C ,  2-C ) :   1.6377
B(  1-C , 32-H ) :   0.9575 B(  2-C ,  3-C ) :   1.2463 B(  2-C ,  6-C ) :   1.0406
B(  3-C ,  4-C ) :   1.5780 B(  3-C ,  5-H ) :   0.9898 B(  4-C , 20-C ) :   1.0630
B(  6-C ,  7-H ) :   0.9328 B(  6-C ,  8-H ) :   0.9395 B(  6-C ,  9-C ) :   1.0601
B(  9-C , 10-H ) :   0.9560 B(  9-C , 11-H ) :   0.9543 B(  9-C , 12-C ) :   1.0890
B( 12-C , 13-H ) :   0.9675 B( 12-C , 14-H ) :   0.9711 B( 12-C , 15-H ) :   0.9734
B( 16-S , 17-C ) :   1.1629 B( 16-S , 20-C ) :   1.1203 B( 17-C , 18-C ) :   1.6077
B( 17-C , 33-H ) :   0.9698 B( 18-C , 19-C ) :   1.2016 B( 18-C , 21-H ) :   0.9785
B( 19-C , 20-C ) :   1.5807 B( 19-C , 22-C ) :   1.0821 B( 22-C , 23-H ) :   0.9188
B( 22-C , 24-H ) :   0.9055 B( 22-C , 25-C ) :   1.0588 B( 25-C , 26-H ) :   0.9415
B( 25-C , 27-H ) :   0.9580 B( 25-C , 28-C ) :   1.0902 B( 28-C , 29-H ) :   0.9689
B( 28-C , 30-H ) :   0.9715 B( 28-C , 31-H ) :   0.9738

Dispersion correction           -0.013443502
FINAL SINGLE POINT ENERGY     -1339.861616845891

DIPOLE MOMENT
-------------
                                X             Y             Z
Electronic contribution:    -13.44429     -25.37238       2.62612
Nuclear contribution   :     13.94731      25.90811      -2.91305
                        -----------------------------------------
Total Dipole Moment    :      0.50302       0.53573      -0.28694
                        -----------------------------------------
Magnitude (a.u.)       :      0.78890
Magnitude (Debye)      :      2.00523

Rotational constants in cm-1:     0.017846     0.008135     0.006319
Rotational constants in MHz :   534.994923   243.870658   189.429650

                             ****ORCA TERMINATED NORMALLY****
TOTAL RUN TIME: 0 days 0 hours 0 minutes 21 seconds 343 msec
