                         Program Version 4.2.1 -  RELEASE  -
|  1> ! wB97X-D3 SP def2-SVP
|  2> %pal
|  3> nprocs 24
|  4> end
|  5>
|  6> * xyz 0 1
|  7> S 	 -49.8374 	 22.8964 	 28.7207
|  8> C 	 -51.2857 	 23.3477 	 29.6656
|  9> C 	 -50.9451 	 23.9661 	 30.8544
| 10> C 	 -49.4996 	 23.8768 	 31.0268
| 11> C 	 -48.8347 	 23.2003 	 30.0426
| 12> H 	 -48.9004 	 24.1606 	 31.9486
| 13> C 	 -51.9664 	 24.5816 	 31.8453
| 14> H 	 -51.5378 	 24.4259 	 32.8747
| 15> H 	 -52.8407 	 23.9042 	 31.8091
| 16> C 	 -52.4283 	 26.0978 	 31.5658
| 17> H 	 -51.5034 	 26.7741 	 31.5709
| 18> H 	 -52.8344 	 26.0287 	 30.5746
| 19> C 	 -53.6354 	 26.5958 	 32.4002
| 20> H 	 -53.4385 	 26.6839 	 33.5238
| 21> H 	 -54.017 	 27.5633 	 32.0864
| 22> H 	 -54.3258 	 25.8422 	 32.1924
| 23> S 	 -46.4304 	 24.3099 	 29.5788
| 24> C 	 -44.9768 	 23.3331 	 29.7313
| 25> C 	 -45.2414 	 22.0248 	 30.0979
| 26> C 	 -46.6641 	 21.7758 	 30.2975
| 27> C 	 -47.4035 	 22.9658 	 29.9986
| 28> H 	 -44.3538 	 21.3867 	 30.3199
| 29> C 	 -47.266 	 20.3771 	 30.6601
| 30> H 	 -47.903 	 20.1637 	 29.8466
| 31> H 	 -47.9665 	 20.4926 	 31.5364
| 32> C 	 -46.2914 	 19.1702 	 30.9201
| 33> H 	 -45.4553 	 19.192 	 31.5989
| 34> H 	 -45.8073 	 19.1026 	 29.9688
| 35> C 	 -46.9955 	 17.8028 	 31.1793
| 36> H 	 -47.9513 	 17.6952 	 30.6982
| 37> H 	 -47.1092 	 17.4754 	 32.1966
| 38> H 	 -46.3858 	 16.987 	 30.7473
| 39> H 	 -52.3489 	 23.1394 	 29.4459
| 40> H 	 -43.9307 	 23.6803 	 29.6763
| 41> *
| 42>
| 43>                          ****END OF INPUT****

CARTESIAN COORDINATES (ANGSTROEM)
---------------------------------
  S    -49.837400   22.896400   28.720700
  C    -51.285700   23.347700   29.665600
  C    -50.945100   23.966100   30.854400
  C    -49.499600   23.876800   31.026800
  C    -48.834700   23.200300   30.042600
  H    -48.900400   24.160600   31.948600
  C    -51.966400   24.581600   31.845300
  H    -51.537800   24.425900   32.874700
  H    -52.840700   23.904200   31.809100
  C    -52.428300   26.097800   31.565800
  H    -51.503400   26.774100   31.570900
  H    -52.834400   26.028700   30.574600
  C    -53.635400   26.595800   32.400200
  H    -53.438500   26.683900   33.523800
  H    -54.017000   27.563300   32.086400
  H    -54.325800   25.842200   32.192400
  S    -46.430400   24.309900   29.578800
  C    -44.976800   23.333100   29.731300
  C    -45.241400   22.024800   30.097900
  C    -46.664100   21.775800   30.297500
  C    -47.403500   22.965800   29.998600
  H    -44.353800   21.386700   30.319900
  C    -47.266000   20.377100   30.660100
  H    -47.903000   20.163700   29.846600
  H    -47.966500   20.492600   31.536400
  C    -46.291400   19.170200   30.920100
  H    -45.455300   19.192000   31.598900
  H    -45.807300   19.102600   29.968800
  C    -46.995500   17.802800   31.179300
  H    -47.951300   17.695200   30.698200
  H    -47.109200   17.475400   32.196600
  H    -46.385800   16.987000   30.747300
  H    -52.348900   23.139400   29.445900
  H    -43.930700   23.680300   29.676300

 Total Charge           Charge          ....    0
 Multiplicity           Mult            ....    1
 Number of Electrons    NEL             ....  134
 Basis Dimension        Dim             ....  322

ORBITAL ENERGIES
----------------

  NO   OCC          E(Eh)            E(eV)
   0   2.0000     -88.969013     -2420.9699
   1   2.0000     -88.965429     -2420.8724
   2   2.0000     -10.324130      -280.9339
   3   2.0000     -10.319517      -280.8083
   4   2.0000     -10.316967      -280.7389
   5   2.0000     -10.316932      -280.7380
   6   2.0000     -10.315528      -280.6998
   7   2.0000     -10.307248      -280.4745
   8   2.0000     -10.306726      -280.4603
   9   2.0000     -10.299742      -280.2702
  10   2.0000     -10.298930      -280.2481
  11   2.0000     -10.298464      -280.2355
  12   2.0000     -10.296332      -280.1774
  13   2.0000     -10.290216      -280.0110
  14   2.0000     -10.283169      -279.8193
  15   2.0000     -10.277475      -279.6643
  16   2.0000      -8.083862      -219.9731
  17   2.0000      -8.080699      -219.8870
  18   2.0000      -6.042305      -164.4195
  19   2.0000      -6.039229      -164.3358
  20   2.0000      -6.038316      -164.3109
  21   2.0000      -6.035231      -164.2270
  22   2.0000      -6.034724      -164.2132
  23   2.0000      -6.031283      -164.1195
  24   2.0000      -1.008401       -27.4400
  25   2.0000      -0.980655       -26.6850
  26   2.0000      -0.901837       -24.5402
  27   2.0000      -0.898829       -24.4584
  28   2.0000      -0.868239       -23.6260
  29   2.0000      -0.847604       -23.0645
  30   2.0000      -0.842610       -22.9286
  31   2.0000      -0.811359       -22.0782
  32   2.0000      -0.782566       -21.2947
  33   2.0000      -0.768685       -20.9170
  34   2.0000      -0.709662       -19.3109
  35   2.0000      -0.697637       -18.9837
  36   2.0000      -0.693258       -18.8645
  37   2.0000      -0.646612       -17.5952
  38   2.0000      -0.634935       -17.2775
  39   2.0000      -0.610159       -16.6033
  40   2.0000      -0.589372       -16.0376
  41   2.0000      -0.563834       -15.3427
  42   2.0000      -0.560704       -15.2575
  43   2.0000      -0.557199       -15.1622
  44   2.0000      -0.524753       -14.2792
  45   2.0000      -0.521578       -14.1928
  46   2.0000      -0.514881       -14.0106
  47   2.0000      -0.505016       -13.7422
  48   2.0000      -0.496992       -13.5238
  49   2.0000      -0.494688       -13.4611
  50   2.0000      -0.488350       -13.2887
  51   2.0000      -0.476360       -12.9624
  52   2.0000      -0.470684       -12.8080
  53   2.0000      -0.460166       -12.5218
  54   2.0000      -0.454598       -12.3702
  55   2.0000      -0.453631       -12.3439
  56   2.0000      -0.448820       -12.2130
  57   2.0000      -0.441685       -12.0189
  58   2.0000      -0.429670       -11.6919
  59   2.0000      -0.427321       -11.6280
  60   2.0000      -0.425132       -11.5684
  61   2.0000      -0.418978       -11.4010
  62   2.0000      -0.407557       -11.0902
  63   2.0000      -0.337135        -9.1739
  64   2.0000      -0.328147        -8.9293
  65   2.0000      -0.318354        -8.6628
  66   2.0000      -0.307467        -8.3666
  67   0.0000       0.041465         1.1283
  68   0.0000       0.060203         1.6382
  69   0.0000       0.112874         3.0715
  70   0.0000       0.121636         3.3099
  71   0.0000       0.128570         3.4986

MULLIKEN ATOMIC CHARGES
-----------------------
   0 S :    0.121702
   1 C :   -0.133092
   2 C :   -0.086107
   3 C :    0.012012
   4 C :   -0.177367
   5 H :    0.035592
   6 C :    0.026090
   7 H :    0.035441
   8 H :    0.024903
   9 C :   -0.077934
  10 H :    0.051892
  11 H :    0.025246
  12 C :   -0.041151
  13 H :    0.044632
  14 H :    0.041301
  15 H :    0.019524
  16 S :    0.141856
  17 C :   -0.100788
  18 C :   -0.074512
  19 C :   -0.023635
  20 C :   -0.197432
  21 H :    0.040072
  22 C :    0.087464
  23 H :    0.027405
  24 H :    0.044515
  25 C :   -0.071095
  26 H :    0.033281
  27 H :    0.023615
  28 C :   -0.051207
  29 H :    0.024402
  30 H :    0.033327
  31 H :    0.026241
  32 H :    0.053262
  33 H :    0.060548
Sum of atomic charges:   -0.0000000

LOEWDIN ATOMIC CHARGES
----------------------
   0 S :    0.416413
   1 C :   -0.194022
   2 C :   -0.063215
   3 C :   -0.072955
   4 C :   -0.229065
   5 H :    0.041380
   6 C :   -0.036415
   7 H :    0.032473
   8 H :    0.029937
   9 C :   -0.038980
  10 H :    0.031263
  11 H :    0.022484
  12 C :   -0.064817
  13 H :    0.032034
  14 H :    0.028157
  15 H :    0.017722
  16 S :    0.433904
  17 C :   -0.197107
  18 C :   -0.082778
  19 C :   -0.044395
  20 C :   -0.225783
  21 H :    0.040929
  22 C :   -0.028348
  23 H :    0.029600
  24 H :    0.037973
  25 C :   -0.042887
  26 H :    0.024654
  27 H :    0.023482
  28 C :   -0.066650
  29 H :    0.022628
  30 H :    0.022288
  31 H :    0.031603
  32 H :    0.033542
  33 H :    0.034952

  Mayer bond orders larger than 0.100000
B(  0-S ,  1-C ) :   1.1298 B(  0-S ,  4-C ) :   1.1547 B(  1-C ,  2-C ) :   1.6350
B(  1-C , 32-H ) :   0.9632 B(  2-C ,  3-C ) :   1.2189 B(  2-C ,  6-C ) :   1.0159
B(  3-C ,  4-C ) :   1.6125 B(  3-C ,  5-H ) :   0.9842 B(  4-C , 20-C ) :   1.0073
B(  6-C ,  7-H ) :   0.9456 B(  6-C ,  8-H ) :   0.9427 B(  6-C ,  9-C ) :   1.0457
B(  9-C , 10-H ) :   0.9597 B(  9-C , 11-H ) :   0.9574 B(  9-C , 12-C ) :   1.0656
B( 12-C , 13-H ) :   0.9778 B( 12-C , 14-H ) :   0.9756 B( 12-C , 15-H ) :   0.9752
B( 16-S , 17-C ) :   1.1520 B( 16-S , 20-C ) :   1.1754 B( 17-C , 18-C ) :   1.6291
B( 17-C , 20-C ) :   0.1002 B( 17-C , 33-H ) :   0.9586 B( 18-C , 19-C ) :   1.2462
B( 18-C , 21-H ) :   0.9766 B( 19-C , 20-C ) :   1.5783 B( 19-C , 22-C ) :   1.0201
B( 22-C , 23-H ) :   0.9307 B( 22-C , 24-H ) :   0.9367 B( 22-C , 25-C ) :   1.0618
B( 25-C , 26-H ) :   0.9624 B( 25-C , 27-H ) :   0.9516 B( 25-C , 28-C ) :   1.0784
B( 28-C , 29-H ) :   0.9758 B( 28-C , 30-H ) :   0.9786 B( 28-C , 31-H ) :   0.9745

Dispersion correction           -0.013215181
FINAL SINGLE POINT ENERGY     -1339.856715716807

DIPOLE MOMENT
-------------
                                X             Y             Z
Electronic contribution:     11.49049       8.17042     -14.69320
Nuclear contribution   :    -11.60706      -8.40275      15.09590
                        -----------------------------------------
Total Dipole Moment    :     -0.11657      -0.23233       0.40270
                        -----------------------------------------
Magnitude (a.u.)       :      0.47930
Magnitude (Debye)      :      1.21829

Rotational constants in cm-1:     0.020669     0.006641     0.005728
Rotational constants in MHz :   619.643372   199.101891   171.717853

                             ****ORCA TERMINATED NORMALLY****
TOTAL RUN TIME: 0 days 0 hours 0 minutes 19 seconds 995 msec
