                         Program Version 4.2.1 -  RELEASE  -
|  1> ! wB97X-D3 SP def2-SVP
|  2> %pal
|  3> nprocs 24
|  4> end
|  5>
|  6> * xyz 0 1
|  7> S 	 -74.0243 	 11.1145 	 -110.58
|  8> C 	 -75.3904 	 12.0906 	 -110.216
|  9> C 	 -76.3014 	 11.5305 	 -109.323
| 10> C 	 -75.9723 	 10.1544 	 -109.157
| 11> C 	 -74.8557 	 9.71315 	 -109.808
| 12> H 	 -76.5417 	 9.38918 	 -108.646
| 13> C 	 -77.4912 	 12.2193 	 -108.789
| 14> H 	 -77.2642 	 13.325 	 -108.695
| 15> H 	 -77.6409 	 11.8692 	 -107.712
| 16> C 	 -78.7547 	 11.8989 	 -109.468
| 17> H 	 -78.6869 	 12.4707 	 -110.403
| 18> H 	 -78.7625 	 10.8461 	 -109.53
| 19> C 	 -79.9364 	 12.289 	 -108.638
| 20> H 	 -80.859 	 11.9622 	 -109.127
| 21> H 	 -79.9269 	 11.8092 	 -107.647
| 22> H 	 -79.9851 	 13.3584 	 -108.487
| 23> S 	 -72.7691 	 7.87385 	 -109.897
| 24> C 	 -73.0306 	 6.22864 	 -110.269
| 25> C 	 -74.3565 	 6.11514 	 -110.624
| 26> C 	 -75.214 	 7.25173 	 -110.396
| 27> C 	 -74.4552 	 8.32142 	 -110.048
| 28> H 	 -74.7249 	 5.20406 	 -111.022
| 29> C 	 -76.6556 	 7.24289 	 -110.955
| 30> H 	 -76.6583 	 6.80587 	 -111.96
| 31> H 	 -76.9228 	 8.31146 	 -111.102
| 32> C 	 -77.7491 	 6.54365 	 -110.256
| 33> H 	 -77.8083 	 6.79551 	 -109.221
| 34> H 	 -77.5735 	 5.47939 	 -110.277
| 35> C 	 -79.071 	 6.74989 	 -111.033
| 36> H 	 -79.3846 	 7.764 	 -111.2
| 37> H 	 -79.9052 	 6.29149 	 -110.401
| 38> H 	 -79.0543 	 6.21852 	 -111.929
| 39> H 	 -75.4591 	 13.168 	 -110.41
| 40> H 	 -72.2386 	 5.58325 	 -110.473
| 41> *
| 42>
| 43>                          ****END OF INPUT****

CARTESIAN COORDINATES (ANGSTROEM)
---------------------------------
  S    -74.024300   11.114500  -110.580000
  C    -75.390400   12.090600  -110.216000
  C    -76.301400   11.530500  -109.323000
  C    -75.972300   10.154400  -109.157000
  C    -74.855700    9.713150  -109.808000
  H    -76.541700    9.389180  -108.646000
  C    -77.491200   12.219300  -108.789000
  H    -77.264200   13.325000  -108.695000
  H    -77.640900   11.869200  -107.712000
  C    -78.754700   11.898900  -109.468000
  H    -78.686900   12.470700  -110.403000
  H    -78.762500   10.846100  -109.530000
  C    -79.936400   12.289000  -108.638000
  H    -80.859000   11.962200  -109.127000
  H    -79.926900   11.809200  -107.647000
  H    -79.985100   13.358400  -108.487000
  S    -72.769100    7.873850  -109.897000
  C    -73.030600    6.228640  -110.269000
  C    -74.356500    6.115140  -110.624000
  C    -75.214000    7.251730  -110.396000
  C    -74.455200    8.321420  -110.048000
  H    -74.724900    5.204060  -111.022000
  C    -76.655600    7.242890  -110.955000
  H    -76.658300    6.805870  -111.960000
  H    -76.922800    8.311460  -111.102000
  C    -77.749100    6.543650  -110.256000
  H    -77.808300    6.795510  -109.221000
  H    -77.573500    5.479390  -110.277000
  C    -79.071000    6.749890  -111.033000
  H    -79.384600    7.764000  -111.200000
  H    -79.905200    6.291490  -110.401000
  H    -79.054300    6.218520  -111.929000
  H    -75.459100   13.168000  -110.410000
  H    -72.238600    5.583250  -110.473000

 Total Charge           Charge          ....    0
 Multiplicity           Mult            ....    1
 Number of Electrons    NEL             ....  134
 Basis Dimension        Dim             ....  322

ORBITAL ENERGIES
----------------

  NO   OCC          E(Eh)            E(eV)
   0   2.0000     -88.967031     -2420.9160
   1   2.0000     -88.959899     -2420.7219
   2   2.0000     -10.330118      -281.0968
   3   2.0000     -10.327229      -281.0182
   4   2.0000     -10.313909      -280.6557
   5   2.0000     -10.311604      -280.5930
   6   2.0000     -10.301795      -280.3261
   7   2.0000     -10.299532      -280.2645
   8   2.0000     -10.294469      -280.1267
   9   2.0000     -10.293763      -280.1075
  10   2.0000     -10.291255      -280.0393
  11   2.0000     -10.290676      -280.0235
  12   2.0000     -10.281242      -279.7668
  13   2.0000     -10.279640      -279.7232
  14   2.0000     -10.279004      -279.7059
  15   2.0000     -10.277791      -279.6729
  16   2.0000      -8.081606      -219.9117
  17   2.0000      -8.075988      -219.7588
  18   2.0000      -6.040103      -164.3596
  19   2.0000      -6.036357      -164.2576
  20   2.0000      -6.034525      -164.2078
  21   2.0000      -6.032162      -164.1435
  22   2.0000      -6.030221      -164.0907
  23   2.0000      -6.026724      -163.9955
  24   2.0000      -1.010408       -27.4946
  25   2.0000      -0.989583       -26.9279
  26   2.0000      -0.929244       -25.2860
  27   2.0000      -0.917339       -24.9621
  28   2.0000      -0.874556       -23.7979
  29   2.0000      -0.856348       -23.3024
  30   2.0000      -0.847611       -23.0647
  31   2.0000      -0.817421       -22.2432
  32   2.0000      -0.782846       -21.3023
  33   2.0000      -0.773457       -21.0468
  34   2.0000      -0.707309       -19.2469
  35   2.0000      -0.700731       -19.0679
  36   2.0000      -0.695882       -18.9359
  37   2.0000      -0.666305       -18.1311
  38   2.0000      -0.642876       -17.4935
  39   2.0000      -0.622715       -16.9449
  40   2.0000      -0.603678       -16.4269
  41   2.0000      -0.582733       -15.8570
  42   2.0000      -0.575966       -15.6728
  43   2.0000      -0.569238       -15.4898
  44   2.0000      -0.530529       -14.4364
  45   2.0000      -0.522801       -14.2261
  46   2.0000      -0.520517       -14.1640
  47   2.0000      -0.516282       -14.0488
  48   2.0000      -0.500658       -13.6236
  49   2.0000      -0.500025       -13.6064
  50   2.0000      -0.492824       -13.4104
  51   2.0000      -0.487340       -13.2612
  52   2.0000      -0.472988       -12.8707
  53   2.0000      -0.465675       -12.6717
  54   2.0000      -0.462462       -12.5842
  55   2.0000      -0.444891       -12.1061
  56   2.0000      -0.443695       -12.0735
  57   2.0000      -0.439312       -11.9543
  58   2.0000      -0.435893       -11.8612
  59   2.0000      -0.429540       -11.6884
  60   2.0000      -0.421320       -11.4647
  61   2.0000      -0.418159       -11.3787
  62   2.0000      -0.411356       -11.1936
  63   2.0000      -0.353589        -9.6217
  64   2.0000      -0.333206        -9.0670
  65   2.0000      -0.328292        -8.9333
  66   2.0000      -0.292040        -7.9468
  67   0.0000       0.029906         0.8138
  68   0.0000       0.069967         1.9039
  69   0.0000       0.112103         3.0505
  70   0.0000       0.114923         3.1272
  71   0.0000       0.126338         3.4378

MULLIKEN ATOMIC CHARGES
-----------------------
   0 S :    0.116255
   1 C :   -0.117106
   2 C :   -0.072732
   3 C :    0.011958
   4 C :   -0.132379
   5 H :    0.007018
   6 C :   -0.003889
   7 H :    0.033158
   8 H :    0.022904
   9 C :   -0.011973
  10 H :    0.031781
  11 H :    0.014514
  12 C :   -0.037099
  13 H :    0.033649
  14 H :    0.027849
  15 H :    0.026835
  16 S :    0.089915
  17 C :   -0.056009
  18 C :   -0.034183
  19 C :    0.009806
  20 C :   -0.160514
  21 H :    0.001522
  22 C :   -0.001827
  23 H :    0.025428
  24 H :    0.035478
  25 C :   -0.034130
  26 H :    0.018138
  27 H :    0.019457
  28 C :   -0.051413
  29 H :    0.031796
  30 H :    0.036441
  31 H :    0.023616
  32 H :    0.048391
  33 H :    0.047343
Sum of atomic charges:    0.0000000

LOEWDIN ATOMIC CHARGES
----------------------
   0 S :    0.393649
   1 C :   -0.201791
   2 C :   -0.068646
   3 C :   -0.056359
   4 C :   -0.176239
   5 H :    0.030743
   6 C :   -0.043746
   7 H :    0.033428
   8 H :    0.034868
   9 C :   -0.039842
  10 H :    0.031254
  11 H :    0.021747
  12 C :   -0.061901
  13 H :    0.027278
  14 H :    0.026454
  15 H :    0.022969
  16 S :    0.412993
  17 C :   -0.188600
  18 C :   -0.062161
  19 C :   -0.063275
  20 C :   -0.191818
  21 H :    0.019648
  22 C :   -0.034323
  23 H :    0.034330
  24 H :    0.032844
  25 C :   -0.039826
  26 H :    0.016612
  27 H :    0.023615
  28 C :   -0.057261
  29 H :    0.020934
  30 H :    0.035449
  31 H :    0.016878
  32 H :    0.028925
  33 H :    0.021169

  Mayer bond orders larger than 0.100000
B(  0-S ,  1-C ) :   1.1527 B(  0-S ,  4-C ) :   1.1206 B(  1-C ,  2-C ) :   1.6201
B(  1-C , 32-H ) :   0.9568 B(  2-C ,  3-C ) :   1.2079 B(  2-C ,  6-C ) :   1.0437
B(  3-C ,  4-C ) :   1.6103 B(  3-C ,  5-H ) :   0.9992 B(  4-C , 20-C ) :   1.0227
B(  6-C ,  7-H ) :   0.9339 B(  6-C ,  8-H ) :   0.9326 B(  6-C ,  9-C ) :   1.0708
B(  9-C , 10-H ) :   0.9452 B(  9-C , 11-H ) :   0.9492 B(  9-C , 12-C ) :   1.0993
B( 12-C , 13-H ) :   0.9717 B( 12-C , 14-H ) :   0.9692 B( 12-C , 15-H ) :   0.9722
B( 16-S , 17-C ) :   1.1521 B( 16-S , 20-C ) :   1.1494 B( 17-C , 18-C ) :   1.5945
B( 17-C , 33-H ) :   0.9791 B( 18-C , 19-C ) :   1.2360 B( 18-C , 21-H ) :   0.9920
B( 19-C , 20-C ) :   1.6036 B( 19-C , 22-C ) :   1.0246 B( 22-C , 23-H ) :   0.9421
B( 22-C , 24-H ) :   0.9431 B( 22-C , 25-C ) :   1.0730 B( 25-C , 26-H ) :   0.9521
B( 25-C , 27-H ) :   0.9478 B( 25-C , 28-C ) :   1.0819 B( 28-C , 29-H ) :   0.9778
B( 28-C , 30-H ) :   0.9736 B( 28-C , 31-H ) :   0.9740

Dispersion correction           -0.013991490
FINAL SINGLE POINT ENERGY     -1339.874123874124

DIPOLE MOMENT
-------------
                                X             Y             Z
Electronic contribution:     33.73380      -0.11875      -1.85698
Nuclear contribution   :    -34.47268      -0.00552       1.74843
                        -----------------------------------------
Total Dipole Moment    :     -0.73889      -0.12427      -0.10855
                        -----------------------------------------
Magnitude (a.u.)       :      0.75709
Magnitude (Debye)      :      1.92436

Rotational constants in cm-1:     0.017204     0.009548     0.006530
Rotational constants in MHz :   515.774615   286.238637   195.750449

                             ****ORCA TERMINATED NORMALLY****
TOTAL RUN TIME: 0 days 0 hours 0 minutes 22 seconds 133 msec
