                         Program Version 4.2.1 -  RELEASE  -
|  1> ! wB97X-D3 SP def2-SVP
|  2> %pal
|  3> nprocs 24
|  4> end
|  5>
|  6> * xyz 0 1
|  7> S 	 37.1224 	 -30.8509 	 -111.876
|  8> C 	 35.542 	 -31.4001 	 -111.536
|  9> C 	 35.2757 	 -32.6419 	 -111.984
| 10> C 	 36.3885 	 -33.0561 	 -112.811
| 11> C 	 37.4659 	 -32.1738 	 -112.841
| 12> H 	 36.5105 	 -34.0093 	 -113.381
| 13> C 	 34.0408 	 -33.3594 	 -111.87
| 14> H 	 33.682 	 -33.6126 	 -112.924
| 15> H 	 33.3822 	 -32.5816 	 -111.396
| 16> C 	 34.1509 	 -34.6085 	 -111.059
| 17> H 	 34.8236 	 -35.2743 	 -111.535
| 18> H 	 34.7288 	 -34.4726 	 -110.095
| 19> C 	 32.7918 	 -35.3118 	 -110.778
| 20> H 	 32.0264 	 -34.895 	 -110.102
| 21> H 	 32.2964 	 -35.3426 	 -111.757
| 22> H 	 33.0301 	 -36.3281 	 -110.361
| 23> S 	 38.5593 	 -32.6585 	 -115.224
| 24> C 	 40.2334 	 -32.711 	 -115.378
| 25> C 	 40.928 	 -32.7083 	 -114.204
| 26> C 	 40.0473 	 -32.5357 	 -113.141
| 27> C 	 38.7131 	 -32.3867 	 -113.53
| 28> H 	 41.9671 	 -32.8562 	 -114.173
| 29> C 	 40.4853 	 -32.3942 	 -111.723
| 30> H 	 41.2184 	 -33.227 	 -111.663
| 31> H 	 39.6798 	 -32.7422 	 -111.05
| 32> C 	 41.1321 	 -31.0707 	 -111.183
| 33> H 	 40.7969 	 -30.2722 	 -111.774
| 34> H 	 42.1941 	 -30.9782 	 -111.194
| 35> C 	 40.7269 	 -30.8313 	 -109.744
| 36> H 	 39.617 	 -30.7975 	 -109.669
| 37> H 	 41.11 	 -29.8903 	 -109.289
| 38> H 	 40.9643 	 -31.7418 	 -109.055
| 39> H 	 34.7999 	 -30.884 	 -110.878
| 40> H 	 40.7093 	 -32.6939 	 -116.314
| 41> *
| 42>
| 43>                          ****END OF INPUT****

CARTESIAN COORDINATES (ANGSTROEM)
---------------------------------
  S     37.122400  -30.850900  -111.876000
  C     35.542000  -31.400100  -111.536000
  C     35.275700  -32.641900  -111.984000
  C     36.388500  -33.056100  -112.811000
  C     37.465900  -32.173800  -112.841000
  H     36.510500  -34.009300  -113.381000
  C     34.040800  -33.359400  -111.870000
  H     33.682000  -33.612600  -112.924000
  H     33.382200  -32.581600  -111.396000
  C     34.150900  -34.608500  -111.059000
  H     34.823600  -35.274300  -111.535000
  H     34.728800  -34.472600  -110.095000
  C     32.791800  -35.311800  -110.778000
  H     32.026400  -34.895000  -110.102000
  H     32.296400  -35.342600  -111.757000
  H     33.030100  -36.328100  -110.361000
  S     38.559300  -32.658500  -115.224000
  C     40.233400  -32.711000  -115.378000
  C     40.928000  -32.708300  -114.204000
  C     40.047300  -32.535700  -113.141000
  C     38.713100  -32.386700  -113.530000
  H     41.967100  -32.856200  -114.173000
  C     40.485300  -32.394200  -111.723000
  H     41.218400  -33.227000  -111.663000
  H     39.679800  -32.742200  -111.050000
  C     41.132100  -31.070700  -111.183000
  H     40.796900  -30.272200  -111.774000
  H     42.194100  -30.978200  -111.194000
  C     40.726900  -30.831300  -109.744000
  H     39.617000  -30.797500  -109.669000
  H     41.110000  -29.890300  -109.289000
  H     40.964300  -31.741800  -109.055000
  H     34.799900  -30.884000  -110.878000
  H     40.709300  -32.693900  -116.314000

 Total Charge           Charge          ....    0
 Multiplicity           Mult            ....    1
 Number of Electrons    NEL             ....  134
 Basis Dimension        Dim             ....  322

ORBITAL ENERGIES
----------------

  NO   OCC          E(Eh)            E(eV)
   0   2.0000     -88.965381     -2420.8711
   1   2.0000     -88.964547     -2420.8484
   2   2.0000     -10.320814      -280.8436
   3   2.0000     -10.318572      -280.7826
   4   2.0000     -10.307608      -280.4843
   5   2.0000     -10.305290      -280.4212
   6   2.0000     -10.297961      -280.2218
   7   2.0000     -10.294014      -280.1144
   8   2.0000     -10.292553      -280.0746
   9   2.0000     -10.292144      -280.0635
  10   2.0000     -10.290602      -280.0215
  11   2.0000     -10.288229      -279.9569
  12   2.0000     -10.285508      -279.8829
  13   2.0000     -10.284459      -279.8544
  14   2.0000     -10.283028      -279.8154
  15   2.0000     -10.279566      -279.7212
  16   2.0000      -8.081961      -219.9213
  17   2.0000      -8.081208      -219.9009
  18   2.0000      -6.040263      -164.3639
  19   2.0000      -6.039341      -164.3388
  20   2.0000      -6.036166      -164.2524
  21   2.0000      -6.035451      -164.2330
  22   2.0000      -6.032866      -164.1626
  23   2.0000      -6.032249      -164.1458
  24   2.0000      -1.021902       -27.8074
  25   2.0000      -1.001039       -27.2397
  26   2.0000      -0.926254       -25.2046
  27   2.0000      -0.907600       -24.6971
  28   2.0000      -0.876401       -23.8481
  29   2.0000      -0.858396       -23.3581
  30   2.0000      -0.849217       -23.1084
  31   2.0000      -0.813205       -22.1284
  32   2.0000      -0.783560       -21.3217
  33   2.0000      -0.767174       -20.8759
  34   2.0000      -0.711986       -19.3741
  35   2.0000      -0.701980       -19.1018
  36   2.0000      -0.692844       -18.8533
  37   2.0000      -0.669594       -18.2206
  38   2.0000      -0.638514       -17.3749
  39   2.0000      -0.618135       -16.8203
  40   2.0000      -0.600478       -16.3398
  41   2.0000      -0.580365       -15.7925
  42   2.0000      -0.559635       -15.2285
  43   2.0000      -0.554689       -15.0939
  44   2.0000      -0.531475       -14.4622
  45   2.0000      -0.529113       -14.3979
  46   2.0000      -0.521717       -14.1966
  47   2.0000      -0.513811       -13.9815
  48   2.0000      -0.502404       -13.6711
  49   2.0000      -0.496393       -13.5075
  50   2.0000      -0.488196       -13.2845
  51   2.0000      -0.475795       -12.9470
  52   2.0000      -0.473595       -12.8872
  53   2.0000      -0.466544       -12.6953
  54   2.0000      -0.465343       -12.6626
  55   2.0000      -0.449600       -12.2342
  56   2.0000      -0.440748       -11.9934
  57   2.0000      -0.439062       -11.9475
  58   2.0000      -0.432938       -11.7808
  59   2.0000      -0.431594       -11.7443
  60   2.0000      -0.426241       -11.5986
  61   2.0000      -0.407981       -11.1017
  62   2.0000      -0.406102       -11.0506
  63   2.0000      -0.346029        -9.4159
  64   2.0000      -0.333548        -9.0763
  65   2.0000      -0.327766        -8.9190
  66   2.0000      -0.293060        -7.9746
  67   0.0000       0.043006         1.1703
  68   0.0000       0.070755         1.9253
  69   0.0000       0.106009         2.8847
  70   0.0000       0.127801         3.4777
  71   0.0000       0.140874         3.8334

MULLIKEN ATOMIC CHARGES
-----------------------
   0 S :    0.140081
   1 C :   -0.140434
   2 C :   -0.078367
   3 C :   -0.007614
   4 C :   -0.163774
   5 H :    0.022115
   6 C :    0.068707
   7 H :    0.049442
   8 H :    0.020604
   9 C :   -0.084795
  10 H :    0.017056
  11 H :    0.031948
  12 C :   -0.055357
  13 H :    0.042999
  14 H :    0.026979
  15 H :    0.043068
  16 S :    0.131229
  17 C :   -0.065119
  18 C :   -0.019279
  19 C :   -0.021821
  20 C :   -0.180689
  21 H :   -0.002020
  22 C :    0.027300
  23 H :    0.023451
  24 H :    0.032104
  25 C :    0.029150
  26 H :    0.015349
  27 H :    0.021985
  28 C :   -0.124147
  29 H :    0.029497
  30 H :    0.042731
  31 H :    0.039629
  32 H :    0.053293
  33 H :    0.034698
Sum of atomic charges:   -0.0000000

LOEWDIN ATOMIC CHARGES
----------------------
   0 S :    0.459463
   1 C :   -0.217961
   2 C :   -0.071555
   3 C :   -0.075196
   4 C :   -0.230977
   5 H :    0.030852
   6 C :   -0.040578
   7 H :    0.044366
   8 H :    0.036379
   9 C :   -0.045097
  10 H :    0.020675
  11 H :    0.031045
  12 C :   -0.072497
  13 H :    0.027180
  14 H :    0.025256
  15 H :    0.033115
  16 S :    0.457281
  17 C :   -0.190570
  18 C :   -0.066514
  19 C :   -0.058578
  20 C :   -0.213178
  21 H :    0.027822
  22 C :   -0.038795
  23 H :    0.037179
  24 H :    0.033449
  25 C :   -0.036635
  26 H :    0.018109
  27 H :    0.022096
  28 C :   -0.076986
  29 H :    0.019411
  30 H :    0.027278
  31 H :    0.031586
  32 H :    0.035446
  33 H :    0.017129

  Mayer bond orders larger than 0.100000
B(  0-S ,  1-C ) :   1.1461 B(  0-S ,  4-C ) :   1.1775 B(  1-C ,  2-C ) :   1.6260
B(  1-C , 32-H ) :   0.9513 B(  2-C ,  3-C ) :   1.2253 B(  2-C ,  6-C ) :   1.0447
B(  3-C ,  4-C ) :   1.5703 B(  3-C ,  5-H ) :   0.9860 B(  4-C , 20-C ) :   1.0121
B(  6-C ,  7-H ) :   0.9247 B(  6-C ,  8-H ) :   0.9359 B(  6-C ,  9-C ) :   1.0592
B(  9-C , 10-H ) :   0.9516 B(  9-C , 11-H ) :   0.9523 B(  9-C , 12-C ) :   1.0715
B( 12-C , 13-H ) :   0.9794 B( 12-C , 14-H ) :   0.9710 B( 12-C , 15-H ) :   0.9749
B( 16-S , 17-C ) :   1.1936 B( 16-S , 20-C ) :   1.1645 B( 17-C , 18-C ) :   1.5655
B( 17-C , 20-C ) :   0.1004 B( 17-C , 33-H ) :   0.9703 B( 18-C , 19-C ) :   1.2623
B( 18-C , 21-H ) :   1.0102 B( 19-C , 20-C ) :   1.5550 B( 19-C , 22-C ) :   1.0636
B( 22-C , 23-H ) :   0.9196 B( 22-C , 24-H ) :   0.9412 B( 22-C , 25-C ) :   1.0283
B( 25-C , 26-H ) :   0.9579 B( 25-C , 27-H ) :   0.9534 B( 25-C , 28-C ) :   1.0823
B( 28-C , 29-H ) :   0.9740 B( 28-C , 30-H ) :   0.9725 B( 28-C , 31-H ) :   0.9735

Dispersion correction           -0.014238586
FINAL SINGLE POINT ENERGY     -1339.868297525404

DIPOLE MOMENT
-------------
                                X             Y             Z
Electronic contribution:      5.14992       7.83700     -17.87134
Nuclear contribution   :     -5.12052      -8.10220      17.99514
                        -----------------------------------------
Total Dipole Moment    :      0.02940      -0.26519       0.12380
                        -----------------------------------------
Magnitude (a.u.)       :      0.29414
Magnitude (Debye)      :      0.74765

Rotational constants in cm-1:     0.019793     0.008135     0.006684
Rotational constants in MHz :   593.384455   243.881570   200.395574

                             ****ORCA TERMINATED NORMALLY****
TOTAL RUN TIME: 0 days 0 hours 0 minutes 21 seconds 474 msec
