                         Program Version 4.2.1 -  RELEASE  -
|  1> ! wB97X-D3 SP def2-SVP
|  2> %pal
|  3> nprocs 24
|  4> end
|  5>
|  6> * xyz 0 1
|  7> S 	 -100.025 	 7.5548 	 3.92982
|  8> C 	 -99.9434 	 5.90097 	 3.50263
|  9> C 	 -99.6114 	 5.05672 	 4.58914
| 10> C 	 -99.3682 	 5.87871 	 5.78911
| 11> C 	 -99.6153 	 7.23093 	 5.59569
| 12> H 	 -99.218 	 5.45626 	 6.76423
| 13> C 	 -99.4761 	 3.52804 	 4.5229
| 14> H 	 -99.1542 	 3.13316 	 5.51421
| 15> H 	 -98.5514 	 3.46005 	 3.91651
| 16> C 	 -100.615 	 2.67256 	 3.84341
| 17> H 	 -101.46 	 2.72338 	 4.48422
| 18> H 	 -100.956 	 3.0575 	 2.83442
| 19> C 	 -100.179 	 1.15795 	 3.79507
| 20> H 	 -100.945 	 0.403032 	 3.48942
| 21> H 	 -99.3859 	 1.09237 	 3.11357
| 22> H 	 -99.7409 	 0.732602 	 4.72833
| 23> S 	 -101.204 	 9.20159 	 6.67356
| 24> C 	 -100.643 	 10.1583 	 8.02822
| 25> C 	 -99.5604 	 9.50715 	 8.6106
| 26> C 	 -98.9616 	 8.51393 	 7.80034
| 27> C 	 -99.7607 	 8.23609 	 6.70288
| 28> H 	 -99.1263 	 9.95536 	 9.5104
| 29> C 	 -97.6056 	 7.88129 	 8.09902
| 30> H 	 -96.9143 	 8.61404 	 7.7875
| 31> H 	 -97.3785 	 6.95876 	 7.51207
| 32> C 	 -97.2814 	 7.74692 	 9.57117
| 33> H 	 -98.0747 	 7.1935 	 10.0473
| 34> H 	 -97.1889 	 8.80878 	 9.9591
| 35> C 	 -95.9802 	 6.92776 	 9.84837
| 36> H 	 -95.6774 	 7.16606 	 10.8694
| 37> H 	 -95.1671 	 7.47136 	 9.37557
| 38> H 	 -95.9714 	 5.88376 	 9.52149
| 39> H 	 -100.257 	 5.59539 	 2.53387
| 40> H 	 -101.187 	 10.8527 	 8.62258
| 41> *
| 42>
| 43>                          ****END OF INPUT****

CARTESIAN COORDINATES (ANGSTROEM)
---------------------------------
  S    -100.025000    7.554800    3.929820
  C    -99.943400    5.900970    3.502630
  C    -99.611400    5.056720    4.589140
  C    -99.368200    5.878710    5.789110
  C    -99.615300    7.230930    5.595690
  H    -99.218000    5.456260    6.764230
  C    -99.476100    3.528040    4.522900
  H    -99.154200    3.133160    5.514210
  H    -98.551400    3.460050    3.916510
  C    -100.615000    2.672560    3.843410
  H    -101.460000    2.723380    4.484220
  H    -100.956000    3.057500    2.834420
  C    -100.179000    1.157950    3.795070
  H    -100.945000    0.403032    3.489420
  H    -99.385900    1.092370    3.113570
  H    -99.740900    0.732602    4.728330
  S    -101.204000    9.201590    6.673560
  C    -100.643000   10.158300    8.028220
  C    -99.560400    9.507150    8.610600
  C    -98.961600    8.513930    7.800340
  C    -99.760700    8.236090    6.702880
  H    -99.126300    9.955360    9.510400
  C    -97.605600    7.881290    8.099020
  H    -96.914300    8.614040    7.787500
  H    -97.378500    6.958760    7.512070
  C    -97.281400    7.746920    9.571170
  H    -98.074700    7.193500   10.047300
  H    -97.188900    8.808780    9.959100
  C    -95.980200    6.927760    9.848370
  H    -95.677400    7.166060   10.869400
  H    -95.167100    7.471360    9.375570
  H    -95.971400    5.883760    9.521490
  H    -100.257000    5.595390    2.533870
  H    -101.187000   10.852700    8.622580

 Total Charge           Charge          ....    0
 Multiplicity           Mult            ....    1
 Number of Electrons    NEL             ....  134
 Basis Dimension        Dim             ....  322

ORBITAL ENERGIES
----------------

  NO   OCC          E(Eh)            E(eV)
   0   2.0000     -88.967087     -2420.9175
   1   2.0000     -88.965327     -2420.8696
   2   2.0000     -10.331458      -281.1333
   3   2.0000     -10.327422      -281.0234
   4   2.0000     -10.312625      -280.6208
   5   2.0000     -10.311521      -280.5907
   6   2.0000     -10.311158      -280.5809
   7   2.0000     -10.304282      -280.3938
   8   2.0000     -10.301560      -280.3197
   9   2.0000     -10.300756      -280.2978
  10   2.0000     -10.297355      -280.2053
  11   2.0000     -10.292898      -280.0840
  12   2.0000     -10.290585      -280.0211
  13   2.0000     -10.287384      -279.9339
  14   2.0000     -10.283933      -279.8401
  15   2.0000     -10.281536      -279.7748
  16   2.0000      -8.082390      -219.9330
  17   2.0000      -8.080102      -219.8708
  18   2.0000      -6.040868      -164.3804
  19   2.0000      -6.038571      -164.3179
  20   2.0000      -6.036679      -164.2664
  21   2.0000      -6.034590      -164.2095
  22   2.0000      -6.033301      -164.1745
  23   2.0000      -6.030897      -164.1090
  24   2.0000      -1.005239       -27.3539
  25   2.0000      -0.983564       -26.7641
  26   2.0000      -0.911870       -24.8133
  27   2.0000      -0.901506       -24.5312
  28   2.0000      -0.863693       -23.5023
  29   2.0000      -0.850964       -23.1559
  30   2.0000      -0.844882       -22.9904
  31   2.0000      -0.812898       -22.1201
  32   2.0000      -0.781496       -21.2656
  33   2.0000      -0.769838       -20.9483
  34   2.0000      -0.711035       -19.3482
  35   2.0000      -0.698395       -19.0043
  36   2.0000      -0.692991       -18.8572
  37   2.0000      -0.655881       -17.8474
  38   2.0000      -0.641556       -17.4576
  39   2.0000      -0.613785       -16.7019
  40   2.0000      -0.594085       -16.1659
  41   2.0000      -0.577000       -15.7010
  42   2.0000      -0.566898       -15.4261
  43   2.0000      -0.555272       -15.1097
  44   2.0000      -0.525662       -14.3040
  45   2.0000      -0.518493       -14.1089
  46   2.0000      -0.514093       -13.9892
  47   2.0000      -0.505888       -13.7659
  48   2.0000      -0.499313       -13.5870
  49   2.0000      -0.497318       -13.5327
  50   2.0000      -0.492841       -13.4109
  51   2.0000      -0.479615       -13.0510
  52   2.0000      -0.468329       -12.7439
  53   2.0000      -0.467530       -12.7221
  54   2.0000      -0.459612       -12.5067
  55   2.0000      -0.451825       -12.2948
  56   2.0000      -0.446127       -12.1397
  57   2.0000      -0.437607       -11.9079
  58   2.0000      -0.430904       -11.7255
  59   2.0000      -0.429682       -11.6923
  60   2.0000      -0.420464       -11.4414
  61   2.0000      -0.419414       -11.4128
  62   2.0000      -0.416613       -11.3366
  63   2.0000      -0.349194        -9.5020
  64   2.0000      -0.330270        -8.9871
  65   2.0000      -0.324093        -8.8190
  66   2.0000      -0.289036        -7.8651
  67   0.0000       0.030113         0.8194
  68   0.0000       0.073287         1.9943
  69   0.0000       0.112331         3.0567
  70   0.0000       0.118513         3.2249
  71   0.0000       0.131743         3.5849

MULLIKEN ATOMIC CHARGES
-----------------------
   0 S :    0.123090
   1 C :   -0.125622
   2 C :   -0.092094
   3 C :    0.034376
   4 C :   -0.149848
   5 H :    0.013289
   6 C :    0.023596
   7 H :    0.025357
   8 H :    0.047225
   9 C :   -0.051928
  10 H :    0.033865
  11 H :    0.046822
  12 C :   -0.070376
  13 H :    0.046219
  14 H :    0.016912
  15 H :    0.031345
  16 S :    0.110401
  17 C :   -0.070989
  18 C :   -0.079458
  19 C :   -0.025164
  20 C :   -0.164171
  21 H :    0.026450
  22 C :    0.104656
  23 H :    0.020186
  24 H :    0.029128
  25 C :   -0.145038
  26 H :    0.034382
  27 H :    0.043594
  28 C :   -0.016820
  29 H :    0.027608
  30 H :    0.009508
  31 H :    0.053737
  32 H :    0.040435
  33 H :    0.049328
Sum of atomic charges:    0.0000000

LOEWDIN ATOMIC CHARGES
----------------------
   0 S :    0.428315
   1 C :   -0.212630
   2 C :   -0.057067
   3 C :   -0.062763
   4 C :   -0.200957
   5 H :    0.027323
   6 C :   -0.040070
   7 H :    0.033046
   8 H :    0.039686
   9 C :   -0.033484
  10 H :    0.020133
  11 H :    0.032662
  12 C :   -0.072401
  13 H :    0.032279
  14 H :    0.015017
  15 H :    0.029416
  16 S :    0.414149
  17 C :   -0.190649
  18 C :   -0.071318
  19 C :   -0.060910
  20 C :   -0.197040
  21 H :    0.031167
  22 C :   -0.034564
  23 H :    0.031066
  24 H :    0.032519
  25 C :   -0.042020
  26 H :    0.019163
  27 H :    0.031084
  28 C :   -0.068991
  29 H :    0.030918
  30 H :    0.023381
  31 H :    0.030108
  32 H :    0.017899
  33 H :    0.025536

  Mayer bond orders larger than 0.100000
B(  0-S ,  1-C ) :   1.1577 B(  0-S ,  4-C ) :   1.1656 B(  1-C ,  2-C ) :   1.5786
B(  1-C , 32-H ) :   0.9755 B(  2-C ,  3-C ) :   1.2645 B(  2-C ,  6-C ) :   1.0075
B(  3-C ,  4-C ) :   1.5591 B(  3-C ,  5-H ) :   0.9875 B(  4-C , 20-C ) :   1.0166
B(  6-C ,  7-H ) :   0.9471 B(  6-C ,  8-H ) :   0.9423 B(  6-C ,  9-C ) :   1.0450
B(  9-C , 10-H ) :   0.9620 B(  9-C , 11-H ) :   0.9579 B(  9-C , 12-C ) :   1.0626
B( 12-C , 13-H ) :   0.9768 B( 12-C , 14-H ) :   0.9794 B( 12-C , 15-H ) :   0.9755
B( 16-S , 17-C ) :   1.1505 B( 16-S , 20-C ) :   1.1612 B( 17-C , 18-C ) :   1.6141
B( 17-C , 33-H ) :   0.9636 B( 18-C , 19-C ) :   1.2563 B( 18-C , 21-H ) :   0.9788
B( 19-C , 20-C ) :   1.5925 B( 19-C , 22-C ) :   1.0318 B( 22-C , 23-H ) :   0.9152
B( 22-C , 24-H ) :   0.9411 B( 22-C , 25-C ) :   1.0636 B( 25-C , 26-H ) :   0.9656
B( 25-C , 27-H ) :   0.9438 B( 25-C , 28-C ) :   1.0890 B( 28-C , 29-H ) :   0.9691
B( 28-C , 30-H ) :   0.9665 B( 28-C , 31-H ) :   0.9750

Dispersion correction           -0.013162247
FINAL SINGLE POINT ENERGY     -1339.868310265483

DIPOLE MOMENT
-------------
                                X             Y             Z
Electronic contribution:    -13.75478      23.26351      -8.60020
Nuclear contribution   :     14.06486     -23.76821       8.91911
                        -----------------------------------------
Total Dipole Moment    :      0.31008      -0.50470       0.31891
                        -----------------------------------------
Magnitude (a.u.)       :      0.67273
Magnitude (Debye)      :      1.70995

Rotational constants in cm-1:     0.018039     0.007450     0.005761
Rotational constants in MHz :   540.797166   223.347597   172.717584

                             ****ORCA TERMINATED NORMALLY****
TOTAL RUN TIME: 0 days 0 hours 0 minutes 20 seconds 363 msec
