                         Program Version 4.2.1 -  RELEASE  -
|  1> ! wB97X-D3 SP def2-SVP
|  2> %pal
|  3> nprocs 24
|  4> end
|  5>
|  6> * xyz 0 1
|  7> S 	 -40.2936 	 -8.79922 	 16.2528
|  8> C 	 -39.6281 	 -10.3473 	 16.0513
|  9> C 	 -40.091 	 -11.2618 	 16.9763
| 10> C 	 -40.9766 	 -10.6577 	 17.8884
| 11> C 	 -41.1083 	 -9.29116 	 17.7541
| 12> H 	 -41.6133 	 -11.1808 	 18.614
| 13> C 	 -39.6457 	 -12.7641 	 17.0957
| 14> H 	 -39.202 	 -12.9869 	 16.124
| 15> H 	 -40.5866 	 -13.3508 	 17.1842
| 16> C 	 -38.96 	 -13.1053 	 18.4555
| 17> H 	 -37.9969 	 -12.6103 	 18.6477
| 18> H 	 -39.6254 	 -12.7799 	 19.28
| 19> C 	 -38.7394 	 -14.6113 	 18.5877
| 20> H 	 -38.5916 	 -14.9917 	 19.6088
| 21> H 	 -39.6077 	 -15.1644 	 18.31
| 22> H 	 -37.8756 	 -14.9381 	 17.9764
| 23> S 	 -41.0261 	 -7.49781 	 19.8518
| 24> C 	 -42.5293 	 -7.0074 	 20.6067
| 25> C 	 -43.6105 	 -7.41356 	 19.8433
| 26> C 	 -43.2645 	 -8.23214 	 18.729
| 27> C 	 -41.8906 	 -8.39379 	 18.6102
| 28> H 	 -44.5883 	 -7.0606 	 20.0833
| 29> C 	 -44.2635 	 -8.69618 	 17.6418
| 30> H 	 -43.8292 	 -8.81097 	 16.65
| 31> H 	 -44.8533 	 -7.83786 	 17.4682
| 32> C 	 -45.3726 	 -9.70046 	 18.0585
| 33> H 	 -45.6893 	 -9.61956 	 19.1307
| 34> H 	 -45.0291 	 -10.7192 	 17.8019
| 35> C 	 -46.7077 	 -9.47435 	 17.2003
| 36> H 	 -46.4677 	 -9.57002 	 16.1876
| 37> H 	 -47.0996 	 -8.46042 	 17.2
| 38> H 	 -47.4243 	 -10.2773 	 17.3095
| 39> H 	 -38.8336 	 -10.6263 	 15.3249
| 40> H 	 -42.6304 	 -6.36008 	 21.4803
| 41> *
| 42>
| 43>                          ****END OF INPUT****

CARTESIAN COORDINATES (ANGSTROEM)
---------------------------------
  S    -40.293600   -8.799220   16.252800
  C    -39.628100  -10.347300   16.051300
  C    -40.091000  -11.261800   16.976300
  C    -40.976600  -10.657700   17.888400
  C    -41.108300   -9.291160   17.754100
  H    -41.613300  -11.180800   18.614000
  C    -39.645700  -12.764100   17.095700
  H    -39.202000  -12.986900   16.124000
  H    -40.586600  -13.350800   17.184200
  C    -38.960000  -13.105300   18.455500
  H    -37.996900  -12.610300   18.647700
  H    -39.625400  -12.779900   19.280000
  C    -38.739400  -14.611300   18.587700
  H    -38.591600  -14.991700   19.608800
  H    -39.607700  -15.164400   18.310000
  H    -37.875600  -14.938100   17.976400
  S    -41.026100   -7.497810   19.851800
  C    -42.529300   -7.007400   20.606700
  C    -43.610500   -7.413560   19.843300
  C    -43.264500   -8.232140   18.729000
  C    -41.890600   -8.393790   18.610200
  H    -44.588300   -7.060600   20.083300
  C    -44.263500   -8.696180   17.641800
  H    -43.829200   -8.810970   16.650000
  H    -44.853300   -7.837860   17.468200
  C    -45.372600   -9.700460   18.058500
  H    -45.689300   -9.619560   19.130700
  H    -45.029100  -10.719200   17.801900
  C    -46.707700   -9.474350   17.200300
  H    -46.467700   -9.570020   16.187600
  H    -47.099600   -8.460420   17.200000
  H    -47.424300  -10.277300   17.309500
  H    -38.833600  -10.626300   15.324900
  H    -42.630400   -6.360080   21.480300

 Total Charge           Charge          ....    0
 Multiplicity           Mult            ....    1
 Number of Electrons    NEL             ....  134
 Basis Dimension        Dim             ....  322

ORBITAL ENERGIES
----------------

  NO   OCC          E(Eh)            E(eV)
   0   2.0000     -88.965068     -2420.8626
   1   2.0000     -88.964649     -2420.8512
   2   2.0000     -10.326823      -281.0071
   3   2.0000     -10.324518      -280.9444
   4   2.0000     -10.319942      -280.8199
   5   2.0000     -10.311724      -280.5963
   6   2.0000     -10.306617      -280.4573
   7   2.0000     -10.301564      -280.3198
   8   2.0000     -10.298030      -280.2236
   9   2.0000     -10.297275      -280.2031
  10   2.0000     -10.293122      -280.0901
  11   2.0000     -10.292721      -280.0792
  12   2.0000     -10.291887      -280.0565
  13   2.0000     -10.290850      -280.0283
  14   2.0000     -10.276553      -279.6392
  15   2.0000     -10.274986      -279.5966
  16   2.0000      -8.080195      -219.8733
  17   2.0000      -8.079257      -219.8478
  18   2.0000      -6.038578      -164.3181
  19   2.0000      -6.037748      -164.2955
  20   2.0000      -6.034643      -164.2110
  21   2.0000      -6.033708      -164.1855
  22   2.0000      -6.031070      -164.1137
  23   2.0000      -6.030115      -164.0878
  24   2.0000      -1.005253       -27.3543
  25   2.0000      -0.985178       -26.8080
  26   2.0000      -0.904339       -24.6083
  27   2.0000      -0.901267       -24.5247
  28   2.0000      -0.868143       -23.6234
  29   2.0000      -0.848557       -23.0904
  30   2.0000      -0.845677       -23.0120
  31   2.0000      -0.812691       -22.1144
  32   2.0000      -0.781644       -21.2696
  33   2.0000      -0.768871       -20.9220
  34   2.0000      -0.707067       -19.2403
  35   2.0000      -0.700263       -19.0551
  36   2.0000      -0.691027       -18.8038
  37   2.0000      -0.659802       -17.9541
  38   2.0000      -0.639547       -17.4030
  39   2.0000      -0.617316       -16.7980
  40   2.0000      -0.595385       -16.2013
  41   2.0000      -0.569914       -15.5081
  42   2.0000      -0.560970       -15.2648
  43   2.0000      -0.555213       -15.1081
  44   2.0000      -0.522610       -14.2209
  45   2.0000      -0.521276       -14.1846
  46   2.0000      -0.513531       -13.9739
  47   2.0000      -0.509616       -13.8674
  48   2.0000      -0.504481       -13.7276
  49   2.0000      -0.495188       -13.4747
  50   2.0000      -0.491140       -13.3646
  51   2.0000      -0.475202       -12.9309
  52   2.0000      -0.467396       -12.7185
  53   2.0000      -0.466593       -12.6966
  54   2.0000      -0.458553       -12.4779
  55   2.0000      -0.447384       -12.1739
  56   2.0000      -0.444391       -12.0925
  57   2.0000      -0.435722       -11.8566
  58   2.0000      -0.433532       -11.7970
  59   2.0000      -0.425138       -11.5686
  60   2.0000      -0.423341       -11.5197
  61   2.0000      -0.419166       -11.4061
  62   2.0000      -0.412433       -11.2229
  63   2.0000      -0.337444        -9.1823
  64   2.0000      -0.328416        -8.9367
  65   2.0000      -0.319437        -8.6923
  66   2.0000      -0.308543        -8.3959
  67   0.0000       0.044520         1.2115
  68   0.0000       0.055374         1.5068
  69   0.0000       0.110181         2.9982
  70   0.0000       0.122113         3.3229
  71   0.0000       0.137731         3.7479

MULLIKEN ATOMIC CHARGES
-----------------------
   0 S :    0.119363
   1 C :   -0.132873
   2 C :   -0.095376
   3 C :    0.039200
   4 C :   -0.186403
   5 H :    0.023460
   6 C :    0.075565
   7 H :    0.024153
   8 H :    0.028079
   9 C :   -0.079735
  10 H :    0.039430
  11 H :    0.036779
  12 C :   -0.047973
  13 H :    0.031094
  14 H :    0.013965
  15 H :    0.039116
  16 S :    0.115529
  17 C :   -0.099898
  18 C :   -0.027659
  19 C :    0.011903
  20 C :   -0.198726
  21 H :    0.008515
  22 C :    0.089281
  23 H :    0.033347
  24 H :    0.002261
  25 C :   -0.088812
  26 H :    0.050174
  27 H :    0.038397
  28 C :   -0.060389
  29 H :    0.006947
  30 H :    0.035508
  31 H :    0.035366
  32 H :    0.056858
  33 H :    0.063554
Sum of atomic charges:   -0.0000000

LOEWDIN ATOMIC CHARGES
----------------------
   0 S :    0.414258
   1 C :   -0.219765
   2 C :   -0.074066
   3 C :   -0.056126
   4 C :   -0.197952
   5 H :    0.035670
   6 C :   -0.026677
   7 H :    0.028042
   8 H :    0.035824
   9 C :   -0.041327
  10 H :    0.026313
  11 H :    0.029577
  12 C :   -0.071049
  13 H :    0.027998
  14 H :    0.017445
  15 H :    0.028899
  16 S :    0.407650
  17 C :   -0.183975
  18 C :   -0.070985
  19 C :   -0.048453
  20 C :   -0.206088
  21 H :    0.026574
  22 C :   -0.033546
  23 H :    0.034932
  24 H :    0.028065
  25 C :   -0.034339
  26 H :    0.030280
  27 H :    0.025756
  28 C :   -0.072893
  29 H :    0.017007
  30 H :    0.024693
  31 H :    0.027614
  32 H :    0.036668
  33 H :    0.033974

  Mayer bond orders larger than 0.100000
B(  0-S ,  1-C ) :   1.1603 B(  0-S ,  4-C ) :   1.1422 B(  1-C ,  2-C ) :   1.6108
B(  1-C , 32-H ) :   0.9575 B(  2-C ,  3-C ) :   1.2552 B(  2-C ,  6-C ) :   1.0171
B(  3-C ,  4-C ) :   1.5940 B(  3-C ,  5-H ) :   0.9894 B(  4-C , 20-C ) :   1.0075
B(  6-C ,  7-H ) :   0.9485 B(  6-C ,  8-H ) :   0.9370 B(  6-C ,  9-C ) :   1.0465
B(  9-C , 10-H ) :   0.9589 B(  9-C , 11-H ) :   0.9536 B(  9-C , 12-C ) :   1.0834
B( 12-C , 13-H ) :   0.9737 B( 12-C , 14-H ) :   0.9722 B( 12-C , 15-H ) :   0.9765
B( 16-S , 17-C ) :   1.1609 B( 16-S , 20-C ) :   1.1466 B( 17-C , 18-C ) :   1.6053
B( 17-C , 33-H ) :   0.9663 B( 18-C , 19-C ) :   1.2427 B( 18-C , 21-H ) :   0.9906
B( 19-C , 20-C ) :   1.6020 B( 19-C , 22-C ) :   1.0272 B( 22-C , 23-H ) :   0.9387
B( 22-C , 24-H ) :   0.9390 B( 22-C , 25-C ) :   1.0353 B( 25-C , 26-H ) :   0.9650
B( 25-C , 27-H ) :   0.9573 B( 25-C , 28-C ) :   1.0709 B( 28-C , 29-H ) :   0.9724
B( 28-C , 30-H ) :   0.9755 B( 28-C , 31-H ) :   0.9753

Dispersion correction           -0.013614342
FINAL SINGLE POINT ENERGY     -1339.871286939497

DIPOLE MOMENT
-------------
                                X             Y             Z
Electronic contribution:     11.26568      22.02356       1.12178
Nuclear contribution   :    -11.65661     -22.41130      -1.10615
                        -----------------------------------------
Total Dipole Moment    :     -0.39093      -0.38775       0.01563
                        -----------------------------------------
Magnitude (a.u.)       :      0.55083
Magnitude (Debye)      :      1.40011

Rotational constants in cm-1:     0.016548     0.007698     0.006822
Rotational constants in MHz :   496.093416   230.785100   204.511537

                             ****ORCA TERMINATED NORMALLY****
TOTAL RUN TIME: 0 days 0 hours 0 minutes 20 seconds 691 msec
