                         Program Version 4.2.1 -  RELEASE  -
|  1> ! wB97X-D3 SP def2-SVP
|  2> %pal
|  3> nprocs 24
|  4> end
|  5>
|  6> * xyz 0 1
|  7> S 	 -83.3748 	 -41.7973 	 -74.7329
|  8> C 	 -84.4089 	 -41.6293 	 -76.1474
|  9> C 	 -84.3479 	 -40.3671 	 -76.6276
| 10> C 	 -83.6138 	 -39.4711 	 -75.7815
| 11> C 	 -83.0162 	 -40.0586 	 -74.6996
| 12> H 	 -83.4068 	 -38.4247 	 -75.9777
| 13> C 	 -84.8967 	 -39.8938 	 -77.9712
| 14> H 	 -85.3779 	 -38.9934 	 -77.9733
| 15> H 	 -85.6336 	 -40.5594 	 -78.534
| 16> C 	 -83.6724 	 -39.7799 	 -78.9666
| 17> H 	 -84.1788 	 -39.5752 	 -79.9396
| 18> H 	 -83.1235 	 -38.8809 	 -78.8686
| 19> C 	 -82.7902 	 -41.0141 	 -79.1082
| 20> H 	 -83.3565 	 -41.8409 	 -79.6019
| 21> H 	 -82.1006 	 -40.7268 	 -79.8949
| 22> H 	 -82.2666 	 -41.1585 	 -78.2063
| 23> S 	 -82.7465 	 -38.6684 	 -72.3299
| 24> C 	 -81.1642 	 -37.9153 	 -71.9094
| 25> C 	 -80.2042 	 -38.3664 	 -72.7649
| 26> C 	 -80.6741 	 -39.2265 	 -73.8293
| 27> C 	 -82.0738 	 -39.4082 	 -73.7667
| 28> H 	 -79.1233 	 -38.1077 	 -72.6264
| 29> C 	 -79.716 	 -39.7487 	 -74.8614
| 30> H 	 -80.4107 	 -39.9311 	 -75.6653
| 31> H 	 -79.335 	 -40.6228 	 -74.4567
| 32> C 	 -78.5122 	 -38.9224 	 -75.2054
| 33> H 	 -77.7133 	 -38.8398 	 -74.3699
| 34> H 	 -78.6857 	 -37.8642 	 -75.5248
| 35> C 	 -77.8038 	 -39.6677 	 -76.3763
| 36> H 	 -77.9278 	 -40.7716 	 -76.2762
| 37> H 	 -76.7065 	 -39.4401 	 -76.3542
| 38> H 	 -78.1765 	 -39.4231 	 -77.3875
| 39> H 	 -84.7333 	 -42.4167 	 -76.859
| 40> H 	 -80.9605 	 -37.188 	 -71.1675
| 41> *
| 42>
| 43>                          ****END OF INPUT****

CARTESIAN COORDINATES (ANGSTROEM)
---------------------------------
  S    -83.374800  -41.797300  -74.732900
  C    -84.408900  -41.629300  -76.147400
  C    -84.347900  -40.367100  -76.627600
  C    -83.613800  -39.471100  -75.781500
  C    -83.016200  -40.058600  -74.699600
  H    -83.406800  -38.424700  -75.977700
  C    -84.896700  -39.893800  -77.971200
  H    -85.377900  -38.993400  -77.973300
  H    -85.633600  -40.559400  -78.534000
  C    -83.672400  -39.779900  -78.966600
  H    -84.178800  -39.575200  -79.939600
  H    -83.123500  -38.880900  -78.868600
  C    -82.790200  -41.014100  -79.108200
  H    -83.356500  -41.840900  -79.601900
  H    -82.100600  -40.726800  -79.894900
  H    -82.266600  -41.158500  -78.206300
  S    -82.746500  -38.668400  -72.329900
  C    -81.164200  -37.915300  -71.909400
  C    -80.204200  -38.366400  -72.764900
  C    -80.674100  -39.226500  -73.829300
  C    -82.073800  -39.408200  -73.766700
  H    -79.123300  -38.107700  -72.626400
  C    -79.716000  -39.748700  -74.861400
  H    -80.410700  -39.931100  -75.665300
  H    -79.335000  -40.622800  -74.456700
  C    -78.512200  -38.922400  -75.205400
  H    -77.713300  -38.839800  -74.369900
  H    -78.685700  -37.864200  -75.524800
  C    -77.803800  -39.667700  -76.376300
  H    -77.927800  -40.771600  -76.276200
  H    -76.706500  -39.440100  -76.354200
  H    -78.176500  -39.423100  -77.387500
  H    -84.733300  -42.416700  -76.859000
  H    -80.960500  -37.188000  -71.167500

 Total Charge           Charge          ....    0
 Multiplicity           Mult            ....    1
 Number of Electrons    NEL             ....  134
 Basis Dimension        Dim             ....  322

ORBITAL ENERGIES
----------------

  NO   OCC          E(Eh)            E(eV)
   0   2.0000     -88.964360     -2420.8433
   1   2.0000     -88.964077     -2420.8356
   2   2.0000     -10.332407      -281.1591
   3   2.0000     -10.330486      -281.1068
   4   2.0000     -10.317464      -280.7525
   5   2.0000     -10.312765      -280.6246
   6   2.0000     -10.305719      -280.4329
   7   2.0000     -10.300444      -280.2893
   8   2.0000     -10.300007      -280.2774
   9   2.0000     -10.294800      -280.1357
  10   2.0000     -10.294752      -280.1345
  11   2.0000     -10.293737      -280.1068
  12   2.0000     -10.286346      -279.9057
  13   2.0000     -10.285498      -279.8826
  14   2.0000     -10.285324      -279.8779
  15   2.0000     -10.276451      -279.6364
  16   2.0000      -8.078472      -219.8264
  17   2.0000      -8.078001      -219.8136
  18   2.0000      -6.037113      -164.2782
  19   2.0000      -6.036679      -164.2664
  20   2.0000      -6.033090      -164.1687
  21   2.0000      -6.032593      -164.1552
  22   2.0000      -6.029077      -164.0595
  23   2.0000      -6.028640      -164.0476
  24   2.0000      -1.002406       -27.2769
  25   2.0000      -0.981045       -26.6956
  26   2.0000      -0.916033       -24.9265
  27   2.0000      -0.908856       -24.7312
  28   2.0000      -0.869155       -23.6509
  29   2.0000      -0.844646       -22.9840
  30   2.0000      -0.843547       -22.9541
  31   2.0000      -0.817759       -22.2523
  32   2.0000      -0.786579       -21.4039
  33   2.0000      -0.769622       -20.9425
  34   2.0000      -0.705605       -19.2005
  35   2.0000      -0.702000       -19.1024
  36   2.0000      -0.690978       -18.8025
  37   2.0000      -0.652401       -17.7527
  38   2.0000      -0.638212       -17.3666
  39   2.0000      -0.617792       -16.8110
  40   2.0000      -0.597514       -16.2592
  41   2.0000      -0.575530       -15.6610
  42   2.0000      -0.574107       -15.6223
  43   2.0000      -0.553415       -15.0592
  44   2.0000      -0.545653       -14.8480
  45   2.0000      -0.532932       -14.5018
  46   2.0000      -0.512133       -13.9358
  47   2.0000      -0.507791       -13.8177
  48   2.0000      -0.503259       -13.6944
  49   2.0000      -0.497574       -13.5397
  50   2.0000      -0.486435       -13.2366
  51   2.0000      -0.473190       -12.8761
  52   2.0000      -0.471456       -12.8290
  53   2.0000      -0.464729       -12.6459
  54   2.0000      -0.456960       -12.4345
  55   2.0000      -0.446021       -12.1369
  56   2.0000      -0.442745       -12.0477
  57   2.0000      -0.440950       -11.9989
  58   2.0000      -0.431875       -11.7519
  59   2.0000      -0.422180       -11.4881
  60   2.0000      -0.421448       -11.4682
  61   2.0000      -0.413903       -11.2629
  62   2.0000      -0.409061       -11.1311
  63   2.0000      -0.335626        -9.1328
  64   2.0000      -0.330300        -8.9879
  65   2.0000      -0.321229        -8.7411
  66   2.0000      -0.311181        -8.4677
  67   0.0000       0.042739         1.1630
  68   0.0000       0.052848         1.4381
  69   0.0000       0.114762         3.1228
  70   0.0000       0.123059         3.3486
  71   0.0000       0.128816         3.5053

MULLIKEN ATOMIC CHARGES
-----------------------
   0 S :    0.099576
   1 C :   -0.107078
   2 C :   -0.101807
   3 C :    0.053169
   4 C :   -0.176369
   5 H :    0.015613
   6 C :    0.095589
   7 H :    0.005855
   8 H :    0.030058
   9 C :   -0.132593
  10 H :    0.017113
  11 H :    0.021292
  12 C :   -0.019294
  13 H :    0.036439
  14 H :    0.026076
  15 H :    0.053004
  16 S :    0.103854
  17 C :   -0.071466
  18 C :   -0.050378
  19 C :   -0.044891
  20 C :   -0.195184
  21 H :    0.035161
  22 C :    0.146862
  23 H :    0.033136
  24 H :    0.024222
  25 C :   -0.140395
  26 H :    0.046639
  27 H :    0.044677
  28 C :   -0.069378
  29 H :    0.034374
  30 H :    0.036977
  31 H :    0.041629
  32 H :    0.063679
  33 H :    0.043840
Sum of atomic charges:   -0.0000000

LOEWDIN ATOMIC CHARGES
----------------------
   0 S :    0.384590
   1 C :   -0.201279
   2 C :   -0.067173
   3 C :   -0.055371
   4 C :   -0.193539
   5 H :    0.033744
   6 C :   -0.025896
   7 H :    0.016682
   8 H :    0.036588
   9 C :   -0.042372
  10 H :    0.023651
  11 H :    0.013441
  12 C :   -0.062884
  13 H :    0.032818
  14 H :    0.030388
  15 H :    0.022235
  16 S :    0.388957
  17 C :   -0.165198
  18 C :   -0.077857
  19 C :   -0.047776
  20 C :   -0.209549
  21 H :    0.038592
  22 C :   -0.031569
  23 H :    0.036270
  24 H :    0.032323
  25 C :   -0.049078
  26 H :    0.032484
  27 H :    0.028865
  28 C :   -0.071282
  29 H :    0.027349
  30 H :    0.028240
  31 H :    0.025999
  32 H :    0.042004
  33 H :    0.025603

  Mayer bond orders larger than 0.100000
B(  0-S ,  1-C ) :   1.1223 B(  0-S ,  4-C ) :   1.1308 B(  1-C ,  2-C ) :   1.6582
B(  1-C , 32-H ) :   0.9518 B(  2-C ,  3-C ) :   1.2042 B(  2-C ,  6-C ) :   1.0336
B(  3-C ,  4-C ) :   1.6170 B(  3-C ,  5-H ) :   0.9965 B(  4-C , 20-C ) :   1.0100
B(  6-C ,  7-H ) :   0.9385 B(  6-C ,  8-H ) :   0.9529 B(  6-C ,  9-C ) :   1.0579
B(  9-C , 10-H ) :   0.9572 B(  9-C , 11-H ) :   0.9597 B(  9-C , 12-C ) :   1.0787
B( 12-C , 13-H ) :   0.9727 B( 12-C , 14-H ) :   0.9681 B( 12-C , 15-H ) :   0.9716
B( 16-S , 17-C ) :   1.1350 B( 16-S , 20-C ) :   1.1415 B( 17-C , 18-C ) :   1.6349
B( 17-C , 33-H ) :   0.9698 B( 18-C , 19-C ) :   1.2362 B( 18-C , 21-H ) :   0.9734
B( 19-C , 20-C ) :   1.6020 B( 19-C , 22-C ) :   1.0302 B( 22-C , 23-H ) :   0.9356
B( 22-C , 24-H ) :   0.9033 B( 22-C , 25-C ) :   1.0817 B( 25-C , 26-H ) :   0.9461
B( 25-C , 27-H ) :   0.9590 B( 25-C , 28-C ) :   1.0669 B( 28-C , 29-H ) :   0.9718
B( 28-C , 30-H ) :   0.9766 B( 28-C , 31-H ) :   0.9775

Dispersion correction           -0.014853620
FINAL SINGLE POINT ENERGY     -1339.858443313282

DIPOLE MOMENT
-------------
                                X             Y             Z
Electronic contribution:    -14.32501      -1.58716      25.05453
Nuclear contribution   :     14.86634       1.91636     -25.78118
                        -----------------------------------------
Total Dipole Moment    :      0.54133       0.32920      -0.72665
                        -----------------------------------------
Magnitude (a.u.)       :      0.96407
Magnitude (Debye)      :      2.45048

Rotational constants in cm-1:     0.016881     0.009613     0.007192
Rotational constants in MHz :   506.072184   288.202608   215.605753

                             ****ORCA TERMINATED NORMALLY****
TOTAL RUN TIME: 0 days 0 hours 0 minutes 21 seconds 931 msec
