                         Program Version 4.2.1 -  RELEASE  -
|  1> ! wB97X-D3 SP def2-SVP
|  2> %pal
|  3> nprocs 24
|  4> end
|  5>
|  6> * xyz 0 1
|  7> S 	 -62.9141 	 19.2515 	 -104.257
|  8> C 	 -63.7723 	 18.7453 	 -102.865
|  9> C 	 -63.2582 	 17.5519 	 -102.362
| 10> C 	 -62.1884 	 17.0498 	 -103.138
| 11> C 	 -61.86 	 17.8701 	 -104.193
| 12> H 	 -61.7033 	 16.0685 	 -103.009
| 13> C 	 -63.786 	 16.7722 	 -101.243
| 14> H 	 -64.1321 	 17.5017 	 -100.424
| 15> H 	 -62.9161 	 16.3105 	 -100.713
| 16> C 	 -64.7343 	 15.6102 	 -101.668
| 17> H 	 -65.4452 	 16.0189 	 -102.434
| 18> H 	 -64.1707 	 14.802 	 -102.04
| 19> C 	 -65.6043 	 15.0789 	 -100.51
| 20> H 	 -66.3036 	 15.8562 	 -100.131
| 21> H 	 -66.1601 	 14.1778 	 -100.784
| 22> H 	 -65.08 	 14.7168 	 -99.6578
| 23> S 	 -59.2167 	 18.0139 	 -104.62
| 24> C 	 -58.6002 	 17.5602 	 -106.133
| 25> C 	 -59.5894 	 17.2814 	 -107.109
| 26> C 	 -60.8975 	 17.3867 	 -106.502
| 27> C 	 -60.8362 	 17.6664 	 -105.17
| 28> H 	 -59.4399 	 17.0617 	 -108.153
| 29> C 	 -62.1366 	 17.2355 	 -107.421
| 30> H 	 -61.7441 	 17.1608 	 -108.442
| 31> H 	 -62.7775 	 18.1322 	 -107.356
| 32> C 	 -63.0264 	 16.0504 	 -106.982
| 33> H 	 -63.9555 	 16.2373 	 -107.358
| 34> H 	 -63.0813 	 15.9514 	 -105.832
| 35> C 	 -62.4567 	 14.88 	 -107.738
| 36> H 	 -63.1164 	 13.932 	 -107.709
| 37> H 	 -61.5335 	 14.4601 	 -107.352
| 38> H 	 -62.368 	 15.0368 	 -108.767
| 39> H 	 -64.6022 	 19.3212 	 -102.421
| 40> H 	 -57.6269 	 17.7275 	 -106.374
| 41> *
| 42>
| 43>                          ****END OF INPUT****

CARTESIAN COORDINATES (ANGSTROEM)
---------------------------------
  S    -62.914100   19.251500  -104.257000
  C    -63.772300   18.745300  -102.865000
  C    -63.258200   17.551900  -102.362000
  C    -62.188400   17.049800  -103.138000
  C    -61.860000   17.870100  -104.193000
  H    -61.703300   16.068500  -103.009000
  C    -63.786000   16.772200  -101.243000
  H    -64.132100   17.501700  -100.424000
  H    -62.916100   16.310500  -100.713000
  C    -64.734300   15.610200  -101.668000
  H    -65.445200   16.018900  -102.434000
  H    -64.170700   14.802000  -102.040000
  C    -65.604300   15.078900  -100.510000
  H    -66.303600   15.856200  -100.131000
  H    -66.160100   14.177800  -100.784000
  H    -65.080000   14.716800  -99.657800
  S    -59.216700   18.013900  -104.620000
  C    -58.600200   17.560200  -106.133000
  C    -59.589400   17.281400  -107.109000
  C    -60.897500   17.386700  -106.502000
  C    -60.836200   17.666400  -105.170000
  H    -59.439900   17.061700  -108.153000
  C    -62.136600   17.235500  -107.421000
  H    -61.744100   17.160800  -108.442000
  H    -62.777500   18.132200  -107.356000
  C    -63.026400   16.050400  -106.982000
  H    -63.955500   16.237300  -107.358000
  H    -63.081300   15.951400  -105.832000
  C    -62.456700   14.880000  -107.738000
  H    -63.116400   13.932000  -107.709000
  H    -61.533500   14.460100  -107.352000
  H    -62.368000   15.036800  -108.767000
  H    -64.602200   19.321200  -102.421000
  H    -57.626900   17.727500  -106.374000

 Total Charge           Charge          ....    0
 Multiplicity           Mult            ....    1
 Number of Electrons    NEL             ....  134
 Basis Dimension        Dim             ....  322

ORBITAL ENERGIES
----------------

  NO   OCC          E(Eh)            E(eV)
   0   2.0000     -88.965371     -2420.8708
   1   2.0000     -88.965214     -2420.8665
   2   2.0000     -10.321226      -280.8548
   3   2.0000     -10.315116      -280.6886
   4   2.0000     -10.312527      -280.6181
   5   2.0000     -10.309220      -280.5281
   6   2.0000     -10.300022      -280.2778
   7   2.0000     -10.295194      -280.1465
   8   2.0000     -10.294910      -280.1387
   9   2.0000     -10.294519      -280.1281
  10   2.0000     -10.292542      -280.0743
  11   2.0000     -10.291035      -280.0333
  12   2.0000     -10.290884      -280.0292
  13   2.0000     -10.281000      -279.7602
  14   2.0000     -10.277319      -279.6601
  15   2.0000     -10.271520      -279.5023
  16   2.0000      -8.081272      -219.9026
  17   2.0000      -8.080635      -219.8853
  18   2.0000      -6.039548      -164.3445
  19   2.0000      -6.038963      -164.3285
  20   2.0000      -6.035607      -164.2372
  21   2.0000      -6.034900      -164.2180
  22   2.0000      -6.032233      -164.1454
  23   2.0000      -6.031708      -164.1311
  24   2.0000      -1.012173       -27.5426
  25   2.0000      -0.988370       -26.8949
  26   2.0000      -0.912053       -24.8182
  27   2.0000      -0.910363       -24.7722
  28   2.0000      -0.869176       -23.6515
  29   2.0000      -0.852802       -23.2059
  30   2.0000      -0.849563       -23.1178
  31   2.0000      -0.809434       -22.0258
  32   2.0000      -0.778159       -21.1748
  33   2.0000      -0.767489       -20.8844
  34   2.0000      -0.709376       -19.3031
  35   2.0000      -0.702323       -19.1112
  36   2.0000      -0.689494       -18.7621
  37   2.0000      -0.671430       -18.2705
  38   2.0000      -0.642705       -17.4889
  39   2.0000      -0.614610       -16.7244
  40   2.0000      -0.595288       -16.1986
  41   2.0000      -0.569939       -15.5088
  42   2.0000      -0.555976       -15.1289
  43   2.0000      -0.549433       -14.9508
  44   2.0000      -0.546803       -14.8793
  45   2.0000      -0.523327       -14.2405
  46   2.0000      -0.517511       -14.0822
  47   2.0000      -0.509846       -13.8736
  48   2.0000      -0.504879       -13.7384
  49   2.0000      -0.495681       -13.4882
  50   2.0000      -0.488580       -13.2949
  51   2.0000      -0.476599       -12.9689
  52   2.0000      -0.466606       -12.6970
  53   2.0000      -0.463461       -12.6114
  54   2.0000      -0.460202       -12.5227
  55   2.0000      -0.450483       -12.2583
  56   2.0000      -0.447920       -12.1885
  57   2.0000      -0.438569       -11.9341
  58   2.0000      -0.432755       -11.7758
  59   2.0000      -0.426117       -11.5952
  60   2.0000      -0.420220       -11.4348
  61   2.0000      -0.413271       -11.2457
  62   2.0000      -0.408221       -11.1083
  63   2.0000      -0.336735        -9.1630
  64   2.0000      -0.329283        -8.9602
  65   2.0000      -0.323374        -8.7995
  66   2.0000      -0.300501        -8.1770
  67   0.0000       0.042276         1.1504
  68   0.0000       0.061343         1.6692
  69   0.0000       0.111554         3.0355
  70   0.0000       0.120711         3.2847
  71   0.0000       0.126250         3.4354

MULLIKEN ATOMIC CHARGES
-----------------------
   0 S :    0.130904
   1 C :   -0.135846
   2 C :   -0.076338
   3 C :    0.033345
   4 C :   -0.190004
   5 H :    0.024131
   6 C :    0.010909
   7 H :    0.036228
   8 H :    0.025603
   9 C :   -0.037797
  10 H :    0.044001
  11 H :    0.025594
  12 C :   -0.057091
  13 H :    0.037256
  14 H :    0.030945
  15 H :    0.016767
  16 S :    0.135339
  17 C :   -0.048543
  18 C :   -0.043591
  19 C :   -0.021047
  20 C :   -0.203174
  21 H :    0.017389
  22 C :    0.054411
  23 H :    0.018063
  24 H :    0.032411
  25 C :   -0.012945
  26 H :    0.003144
  27 H :    0.066644
  28 C :   -0.064818
  29 H :    0.022813
  30 H :    0.032599
  31 H :    0.013863
  32 H :    0.056554
  33 H :    0.022282
Sum of atomic charges:    0.0000000

LOEWDIN ATOMIC CHARGES
----------------------
   0 S :    0.431426
   1 C :   -0.215583
   2 C :   -0.073962
   3 C :   -0.062574
   4 C :   -0.208447
   5 H :    0.038175
   6 C :   -0.047808
   7 H :    0.037974
   8 H :    0.033857
   9 C :   -0.030756
  10 H :    0.032394
  11 H :    0.019719
  12 C :   -0.070728
  13 H :    0.028586
  14 H :    0.027290
  15 H :    0.017968
  16 S :    0.444184
  17 C :   -0.185479
  18 C :   -0.068135
  19 C :   -0.048461
  20 C :   -0.218334
  21 H :    0.028786
  22 C :   -0.022784
  23 H :    0.027704
  24 H :    0.029146
  25 C :   -0.033765
  26 H :    0.010378
  27 H :    0.043324
  28 C :   -0.068808
  29 H :    0.027189
  30 H :    0.024662
  31 H :    0.014271
  32 H :    0.033729
  33 H :    0.004861

  Mayer bond orders larger than 0.100000
B(  0-S ,  1-C ) :   1.1531 B(  0-S ,  4-C ) :   1.1701 B(  1-C ,  2-C ) :   1.5752
B(  1-C , 32-H ) :   0.9692 B(  2-C ,  3-C ) :   1.2556 B(  2-C ,  6-C ) :   1.0490
B(  3-C ,  4-C ) :   1.5596 B(  3-C ,  5-H ) :   0.9930 B(  4-C , 20-C ) :   1.0217
B(  6-C ,  7-H ) :   0.9457 B(  6-C ,  8-H ) :   0.9310 B(  6-C ,  9-C ) :   1.0416
B(  9-C , 10-H ) :   0.9616 B(  9-C , 11-H ) :   0.9527 B(  9-C , 12-C ) :   1.0858
B( 12-C , 13-H ) :   0.9780 B( 12-C , 14-H ) :   0.9736 B( 12-C , 15-H ) :   0.9730
B( 16-S , 17-C ) :   1.1910 B( 16-S , 20-C ) :   1.1544 B( 17-C , 18-C ) :   1.5668
B( 17-C , 20-C ) :   0.1008 B( 17-C , 33-H ) :   0.9772 B( 18-C , 19-C ) :   1.2567
B( 18-C , 21-H ) :   0.9894 B( 19-C , 20-C ) :   1.6096 B( 19-C , 22-C ) :   1.0311
B( 22-C , 23-H ) :   0.9407 B( 22-C , 24-H ) :   0.9348 B( 22-C , 25-C ) :   1.0653
B( 25-C , 26-H ) :   0.9482 B( 25-C , 27-H ) :   0.9559 B( 25-C , 28-C ) :   1.0718
B( 28-C , 29-H ) :   0.9713 B( 28-C , 30-H ) :   0.9779 B( 28-C , 31-H ) :   0.9745

Dispersion correction           -0.014944970
FINAL SINGLE POINT ENERGY     -1339.870378019681

DIPOLE MOMENT
-------------
                                X             Y             Z
Electronic contribution:     17.53609      19.33668      -1.60078
Nuclear contribution   :    -17.79492     -19.62712       1.53734
                        -----------------------------------------
Total Dipole Moment    :     -0.25883      -0.29044      -0.06344
                        -----------------------------------------
Magnitude (a.u.)       :      0.39417
Magnitude (Debye)      :      1.00191

Rotational constants in cm-1:     0.020008     0.008376     0.007264
Rotational constants in MHz :   599.832459   251.101094   217.778900

                             ****ORCA TERMINATED NORMALLY****
TOTAL RUN TIME: 0 days 0 hours 0 minutes 23 seconds 15 msec
