                         Program Version 4.2.1 -  RELEASE  -
|  1> ! wB97X-D3 SP def2-SVP
|  2> %pal
|  3> nprocs 24
|  4> end
|  5>
|  6> * xyz 0 1
|  7> S 	 -104.461 	 59.2274 	 -99.8687
|  8> C 	 -105.961 	 60.0865 	 -100.088
|  9> C 	 -105.899 	 60.8803 	 -101.278
| 10> C 	 -104.628 	 60.6188 	 -101.968
| 11> C 	 -103.76 	 59.8776 	 -101.284
| 12> H 	 -104.293 	 60.9638 	 -102.985
| 13> C 	 -107.085 	 61.6071 	 -101.909
| 14> H 	 -108.028 	 61.3981 	 -101.378
| 15> H 	 -107.191 	 61.23 	 -102.915
| 16> C 	 -107.036 	 63.0941 	 -102.146
| 17> H 	 -106.146 	 63.3775 	 -102.662
| 18> H 	 -107.723 	 63.4417 	 -102.886
| 19> C 	 -107.145 	 63.9481 	 -100.78
| 20> H 	 -108.013 	 63.7135 	 -100.192
| 21> H 	 -106.222 	 63.7859 	 -100.205
| 22> H 	 -107.222 	 65.0141 	 -101.132
| 23> S 	 -101.251 	 59.4377 	 -100.217
| 24> C 	 -99.8961 	 59.4091 	 -101.247
| 25> C 	 -100.201 	 59.3449 	 -102.585
| 26> C 	 -101.628 	 59.4357 	 -102.788
| 27> C 	 -102.321 	 59.5745 	 -101.57
| 28> H 	 -99.4995 	 59.2492 	 -103.42
| 29> C 	 -102.254 	 59.31 	 -104.232
| 30> H 	 -102.678 	 60.265 	 -104.621
| 31> H 	 -103.169 	 58.7634 	 -104.08
| 32> C 	 -101.507 	 58.7777 	 -105.424
| 33> H 	 -101.11 	 57.7813 	 -105.183
| 34> H 	 -100.604 	 59.3692 	 -105.623
| 35> C 	 -102.384 	 58.5774 	 -106.631
| 36> H 	 -102.319 	 59.4929 	 -107.417
| 37> H 	 -103.409 	 58.3409 	 -106.35
| 38> H 	 -102.126 	 57.7195 	 -107.21
| 39> H 	 -106.821 	 59.8727 	 -99.4616
| 40> H 	 -98.9169 	 59.3108 	 -100.802
| 41> *
| 42>
| 43>                          ****END OF INPUT****

CARTESIAN COORDINATES (ANGSTROEM)
---------------------------------
  S    -104.461000   59.227400  -99.868700
  C    -105.961000   60.086500  -100.088000
  C    -105.899000   60.880300  -101.278000
  C    -104.628000   60.618800  -101.968000
  C    -103.760000   59.877600  -101.284000
  H    -104.293000   60.963800  -102.985000
  C    -107.085000   61.607100  -101.909000
  H    -108.028000   61.398100  -101.378000
  H    -107.191000   61.230000  -102.915000
  C    -107.036000   63.094100  -102.146000
  H    -106.146000   63.377500  -102.662000
  H    -107.723000   63.441700  -102.886000
  C    -107.145000   63.948100  -100.780000
  H    -108.013000   63.713500  -100.192000
  H    -106.222000   63.785900  -100.205000
  H    -107.222000   65.014100  -101.132000
  S    -101.251000   59.437700  -100.217000
  C    -99.896100   59.409100  -101.247000
  C    -100.201000   59.344900  -102.585000
  C    -101.628000   59.435700  -102.788000
  C    -102.321000   59.574500  -101.570000
  H    -99.499500   59.249200  -103.420000
  C    -102.254000   59.310000  -104.232000
  H    -102.678000   60.265000  -104.621000
  H    -103.169000   58.763400  -104.080000
  C    -101.507000   58.777700  -105.424000
  H    -101.110000   57.781300  -105.183000
  H    -100.604000   59.369200  -105.623000
  C    -102.384000   58.577400  -106.631000
  H    -102.319000   59.492900  -107.417000
  H    -103.409000   58.340900  -106.350000
  H    -102.126000   57.719500  -107.210000
  H    -106.821000   59.872700  -99.461600
  H    -98.916900   59.310800  -100.802000

 Total Charge           Charge          ....    0
 Multiplicity           Mult            ....    1
 Number of Electrons    NEL             ....  134
 Basis Dimension        Dim             ....  322

ORBITAL ENERGIES
----------------

  NO   OCC          E(Eh)            E(eV)
   0   2.0000     -88.968236     -2420.9488
   1   2.0000     -88.961807     -2420.7738
   2   2.0000     -10.330283      -281.1013
   3   2.0000     -10.324978      -280.9569
   4   2.0000     -10.320086      -280.8238
   5   2.0000     -10.314736      -280.6782
   6   2.0000     -10.314457      -280.6707
   7   2.0000     -10.312052      -280.6052
   8   2.0000     -10.297401      -280.2065
   9   2.0000     -10.297167      -280.2002
  10   2.0000     -10.295778      -280.1624
  11   2.0000     -10.291929      -280.0576
  12   2.0000     -10.290198      -280.0105
  13   2.0000     -10.289801      -279.9997
  14   2.0000     -10.282346      -279.7969
  15   2.0000     -10.280067      -279.7348
  16   2.0000      -8.084216      -219.9827
  17   2.0000      -8.077902      -219.8109
  18   2.0000      -6.042578      -164.4269
  19   2.0000      -6.038550      -164.3173
  20   2.0000      -6.036397      -164.2587
  21   2.0000      -6.035070      -164.2226
  22   2.0000      -6.032161      -164.1434
  23   2.0000      -6.028662      -164.0482
  24   2.0000      -1.011976       -27.5373
  25   2.0000      -0.988405       -26.8959
  26   2.0000      -0.915078       -24.9006
  27   2.0000      -0.907794       -24.7023
  28   2.0000      -0.864708       -23.5299
  29   2.0000      -0.855445       -23.2779
  30   2.0000      -0.839545       -22.8452
  31   2.0000      -0.814095       -22.1527
  32   2.0000      -0.783135       -21.3102
  33   2.0000      -0.773125       -21.0378
  34   2.0000      -0.709276       -19.3004
  35   2.0000      -0.701406       -19.0862
  36   2.0000      -0.688126       -18.7249
  37   2.0000      -0.656023       -17.8513
  38   2.0000      -0.643514       -17.5109
  39   2.0000      -0.618213       -16.8224
  40   2.0000      -0.605825       -16.4853
  41   2.0000      -0.567343       -15.4382
  42   2.0000      -0.561880       -15.2895
  43   2.0000      -0.546813       -14.8795
  44   2.0000      -0.535000       -14.5581
  45   2.0000      -0.525468       -14.2987
  46   2.0000      -0.519664       -14.1408
  47   2.0000      -0.512710       -13.9515
  48   2.0000      -0.498563       -13.5666
  49   2.0000      -0.495251       -13.4765
  50   2.0000      -0.486644       -13.2423
  51   2.0000      -0.483574       -13.1587
  52   2.0000      -0.471659       -12.8345
  53   2.0000      -0.464697       -12.6451
  54   2.0000      -0.463061       -12.6005
  55   2.0000      -0.460874       -12.5410
  56   2.0000      -0.449374       -12.2281
  57   2.0000      -0.437731       -11.9113
  58   2.0000      -0.430587       -11.7169
  59   2.0000      -0.424490       -11.5510
  60   2.0000      -0.418709       -11.3937
  61   2.0000      -0.410825       -11.1791
  62   2.0000      -0.409614       -11.1462
  63   2.0000      -0.355610        -9.6767
  64   2.0000      -0.333993        -9.0884
  65   2.0000      -0.325117        -8.8469
  66   2.0000      -0.288577        -7.8526
  67   0.0000       0.031700         0.8626
  68   0.0000       0.075841         2.0637
  69   0.0000       0.102650         2.7933
  70   0.0000       0.122946         3.3455
  71   0.0000       0.140626         3.8266

MULLIKEN ATOMIC CHARGES
-----------------------
   0 S :    0.091259
   1 C :   -0.126671
   2 C :   -0.070780
   3 C :   -0.024635
   4 C :   -0.110969
   5 H :    0.021879
   6 C :    0.068866
   7 H :    0.023111
   8 H :    0.026850
   9 C :   -0.069247
  10 H :    0.010436
  11 H :    0.016911
  12 C :   -0.077658
  13 H :    0.031821
  14 H :    0.053735
  15 H :    0.040145
  16 S :    0.119897
  17 C :   -0.083040
  18 C :   -0.030651
  19 C :   -0.039636
  20 C :   -0.137523
  21 H :    0.024527
  22 C :    0.013615
  23 H :    0.037906
  24 H :    0.025358
  25 C :   -0.057610
  26 H :    0.024673
  27 H :    0.036938
  28 C :   -0.069224
  29 H :    0.053716
  30 H :    0.030740
  31 H :    0.028018
  32 H :    0.060782
  33 H :    0.056462
Sum of atomic charges:    0.0000000

LOEWDIN ATOMIC CHARGES
----------------------
   0 S :    0.412177
   1 C :   -0.200185
   2 C :   -0.053290
   3 C :   -0.078441
   4 C :   -0.201634
   5 H :    0.039552
   6 C :   -0.035942
   7 H :    0.031407
   8 H :    0.034861
   9 C :   -0.042306
  10 H :    0.019154
  11 H :    0.020759
  12 C :   -0.066657
  13 H :    0.018210
  14 H :    0.030479
  15 H :    0.030943
  16 S :    0.438167
  17 C :   -0.196475
  18 C :   -0.073878
  19 C :   -0.052049
  20 C :   -0.206999
  21 H :    0.035080
  22 C :   -0.040787
  23 H :    0.032001
  24 H :    0.028611
  25 C :   -0.051311
  26 H :    0.024939
  27 H :    0.025783
  28 C :   -0.070226
  29 H :    0.041348
  30 H :    0.027094
  31 H :    0.024435
  32 H :    0.029240
  33 H :    0.025943

  Mayer bond orders larger than 0.100000
B(  0-S ,  1-C ) :   1.1446 B(  0-S ,  4-C ) :   1.1484 B(  1-C ,  2-C ) :   1.5895
B(  1-C , 32-H ) :   0.9739 B(  2-C ,  3-C ) :   1.2091 B(  2-C ,  6-C ) :   1.0311
B(  3-C ,  4-C ) :   1.6380 B(  3-C ,  5-H ) :   0.9801 B(  4-C , 20-C ) :   1.0021
B(  6-C ,  7-H ) :   0.9484 B(  6-C ,  8-H ) :   0.9351 B(  6-C ,  9-C ) :   1.0810
B(  9-C , 10-H ) :   0.9516 B(  9-C , 11-H ) :   0.9557 B(  9-C , 12-C ) :   1.0601
B( 12-C , 13-H ) :   0.9802 B( 12-C , 14-H ) :   0.9795 B( 12-C , 15-H ) :   0.9779
B( 16-S , 17-C ) :   1.1800 B( 16-S , 20-C ) :   1.1584 B( 17-C , 18-C ) :   1.5679
B( 17-C , 33-H ) :   0.9675 B( 18-C , 19-C ) :   1.2765 B( 18-C , 21-H ) :   0.9882
B( 19-C , 20-C ) :   1.5916 B( 19-C , 22-C ) :   1.0116 B( 22-C , 23-H ) :   0.9306
B( 22-C , 24-H ) :   0.9376 B( 22-C , 25-C ) :   1.0817 B( 25-C , 26-H ) :   0.9522
B( 25-C , 27-H ) :   0.9458 B( 25-C , 28-C ) :   1.0803 B( 28-C , 29-H ) :   0.9721
B( 28-C , 30-H ) :   0.9727 B( 28-C , 31-H ) :   0.9733

Dispersion correction           -0.013298647
FINAL SINGLE POINT ENERGY     -1339.866899484783

DIPOLE MOMENT
-------------
                                X             Y             Z
Electronic contribution:     11.39072     -10.62860      22.66938
Nuclear contribution   :    -11.50091      10.64222     -23.36477
                        -----------------------------------------
Total Dipole Moment    :     -0.11020       0.01362      -0.69539
                        -----------------------------------------
Magnitude (a.u.)       :      0.70420
Magnitude (Debye)      :      1.78993

Rotational constants in cm-1:     0.017028     0.008145     0.006274
Rotational constants in MHz :   510.482488   244.190242   188.093655

                             ****ORCA TERMINATED NORMALLY****
TOTAL RUN TIME: 0 days 0 hours 0 minutes 20 seconds 759 msec
