                         Program Version 4.2.1 -  RELEASE  -
|  1> ! wB97X-D3 SP def2-SVP
|  2> %pal
|  3> nprocs 24
|  4> end
|  5>
|  6> * xyz 0 1
|  7> S 	 -28.4873 	 -36.3358 	 -93.8566
|  8> C 	 -27.9983 	 -34.7717 	 -94.5493
|  9> C 	 -29.0878 	 -33.9912 	 -94.8368
| 10> C 	 -30.3154 	 -34.4865 	 -94.423
| 11> C 	 -30.1476 	 -35.7807 	 -93.9753
| 12> H 	 -31.3486 	 -33.9817 	 -94.54
| 13> C 	 -28.9474 	 -32.6568 	 -95.547
| 14> H 	 -29.9206 	 -32.6677 	 -95.9867
| 15> H 	 -28.0951 	 -32.8447 	 -96.2273
| 16> C 	 -28.6026 	 -31.3664 	 -94.7441
| 17> H 	 -28.3043 	 -30.5264 	 -95.4566
| 18> H 	 -29.5931 	 -31.1172 	 -94.2425
| 19> C 	 -27.4229 	 -31.4911 	 -93.8834
| 20> H 	 -26.4865 	 -31.9355 	 -94.3617
| 21> H 	 -26.9949 	 -30.5576 	 -93.498
| 22> H 	 -27.6771 	 -32.0682 	 -92.9197
| 23> S 	 -31.3136 	 -37.1233 	 -91.9389
| 24> C 	 -32.5516 	 -38.3667 	 -92.2815
| 25> C 	 -33.0784 	 -38.1044 	 -93.5039
| 26> C 	 -32.3167 	 -37.125 	 -94.2885
| 27> C 	 -31.2422 	 -36.6421 	 -93.6021
| 28> H 	 -33.9066 	 -38.7056 	 -93.9175
| 29> C 	 -32.4917 	 -37.0136 	 -95.8741
| 30> H 	 -32.9248 	 -36.0634 	 -96.1602
| 31> H 	 -33.2356 	 -37.7746 	 -96.1277
| 32> C 	 -31.2539 	 -37.145 	 -96.9078
| 33> H 	 -30.6113 	 -36.2726 	 -96.8489
| 34> H 	 -31.5254 	 -37.0161 	 -97.9587
| 35> C 	 -30.4803 	 -38.4558 	 -96.7817
| 36> H 	 -29.9441 	 -38.401 	 -95.7843
| 37> H 	 -29.6983 	 -38.3996 	 -97.558
| 38> H 	 -30.9201 	 -39.4244 	 -96.9232
| 39> H 	 -26.9805 	 -34.4886 	 -94.6788
| 40> H 	 -32.8849 	 -39.0994 	 -91.531
| 41> *
| 42>
| 43>                          ****END OF INPUT****

CARTESIAN COORDINATES (ANGSTROEM)
---------------------------------
  S    -28.487300  -36.335800  -93.856600
  C    -27.998300  -34.771700  -94.549300
  C    -29.087800  -33.991200  -94.836800
  C    -30.315400  -34.486500  -94.423000
  C    -30.147600  -35.780700  -93.975300
  H    -31.348600  -33.981700  -94.540000
  C    -28.947400  -32.656800  -95.547000
  H    -29.920600  -32.667700  -95.986700
  H    -28.095100  -32.844700  -96.227300
  C    -28.602600  -31.366400  -94.744100
  H    -28.304300  -30.526400  -95.456600
  H    -29.593100  -31.117200  -94.242500
  C    -27.422900  -31.491100  -93.883400
  H    -26.486500  -31.935500  -94.361700
  H    -26.994900  -30.557600  -93.498000
  H    -27.677100  -32.068200  -92.919700
  S    -31.313600  -37.123300  -91.938900
  C    -32.551600  -38.366700  -92.281500
  C    -33.078400  -38.104400  -93.503900
  C    -32.316700  -37.125000  -94.288500
  C    -31.242200  -36.642100  -93.602100
  H    -33.906600  -38.705600  -93.917500
  C    -32.491700  -37.013600  -95.874100
  H    -32.924800  -36.063400  -96.160200
  H    -33.235600  -37.774600  -96.127700
  C    -31.253900  -37.145000  -96.907800
  H    -30.611300  -36.272600  -96.848900
  H    -31.525400  -37.016100  -97.958700
  C    -30.480300  -38.455800  -96.781700
  H    -29.944100  -38.401000  -95.784300
  H    -29.698300  -38.399600  -97.558000
  H    -30.920100  -39.424400  -96.923200
  H    -26.980500  -34.488600  -94.678800
  H    -32.884900  -39.099400  -91.531000

 Total Charge           Charge          ....    0
 Multiplicity           Mult            ....    1
 Number of Electrons    NEL             ....  134
 Basis Dimension        Dim             ....  322

ORBITAL ENERGIES
----------------

  NO   OCC          E(Eh)            E(eV)
   0   2.0000     -88.972098     -2421.0539
   1   2.0000     -88.956065     -2420.6176
   2   2.0000     -10.328238      -281.0457
   3   2.0000     -10.319561      -280.8095
   4   2.0000     -10.318974      -280.7936
   5   2.0000     -10.311604      -280.5930
   6   2.0000     -10.307729      -280.4876
   7   2.0000     -10.299768      -280.2709
   8   2.0000     -10.298976      -280.2494
   9   2.0000     -10.298536      -280.2374
  10   2.0000     -10.298237      -280.2293
  11   2.0000     -10.295732      -280.1611
  12   2.0000     -10.290808      -280.0271
  13   2.0000     -10.287923      -279.9486
  14   2.0000     -10.286840      -279.9191
  15   2.0000     -10.272064      -279.5171
  16   2.0000      -8.085865      -220.0276
  17   2.0000      -8.071327      -219.6320
  18   2.0000      -6.044244      -164.4723
  19   2.0000      -6.040605      -164.3732
  20   2.0000      -6.036710      -164.2672
  21   2.0000      -6.029933      -164.0828
  22   2.0000      -6.025867      -163.9722
  23   2.0000      -6.021819      -163.8620
  24   2.0000      -1.009694       -27.4752
  25   2.0000      -0.984191       -26.7812
  26   2.0000      -0.914402       -24.8821
  27   2.0000      -0.887863       -24.1600
  28   2.0000      -0.870767       -23.6948
  29   2.0000      -0.856630       -23.3101
  30   2.0000      -0.838026       -22.8038
  31   2.0000      -0.814905       -22.1747
  32   2.0000      -0.780716       -21.2443
  33   2.0000      -0.769402       -20.9365
  34   2.0000      -0.708627       -19.2827
  35   2.0000      -0.694453       -18.8970
  36   2.0000      -0.689468       -18.7614
  37   2.0000      -0.659782       -17.9536
  38   2.0000      -0.637761       -17.3544
  39   2.0000      -0.614175       -16.7126
  40   2.0000      -0.582630       -15.8542
  41   2.0000      -0.562127       -15.2963
  42   2.0000      -0.556749       -15.1499
  43   2.0000      -0.547280       -14.8922
  44   2.0000      -0.540052       -14.6956
  45   2.0000      -0.536086       -14.5876
  46   2.0000      -0.517429       -14.0800
  47   2.0000      -0.505541       -13.7565
  48   2.0000      -0.497791       -13.5456
  49   2.0000      -0.494995       -13.4695
  50   2.0000      -0.489743       -13.3266
  51   2.0000      -0.478493       -13.0205
  52   2.0000      -0.474781       -12.9194
  53   2.0000      -0.463473       -12.6117
  54   2.0000      -0.459295       -12.4981
  55   2.0000      -0.453795       -12.3484
  56   2.0000      -0.438968       -11.9449
  57   2.0000      -0.436098       -11.8668
  58   2.0000      -0.424764       -11.5584
  59   2.0000      -0.417459       -11.3596
  60   2.0000      -0.415995       -11.3198
  61   2.0000      -0.403544       -10.9810
  62   2.0000      -0.396105       -10.7786
  63   2.0000      -0.342125        -9.3097
  64   2.0000      -0.332575        -9.0498
  65   2.0000      -0.324180        -8.8214
  66   2.0000      -0.299739        -8.1563
  67   0.0000       0.028753         0.7824
  68   0.0000       0.068104         1.8532
  69   0.0000       0.104983         2.8567
  70   0.0000       0.111551         3.0355
  71   0.0000       0.131992         3.5917

MULLIKEN ATOMIC CHARGES
-----------------------
   0 S :    0.130164
   1 C :   -0.118365
   2 C :   -0.094089
   3 C :    0.007175
   4 C :   -0.164171
   5 H :    0.057300
   6 C :    0.071927
   7 H :    0.017186
   8 H :    0.028657
   9 C :   -0.052568
  10 H :    0.043826
  11 H :    0.042175
  12 C :   -0.099422
  13 H :    0.034579
  14 H :    0.032353
  15 H :    0.053308
  16 S :    0.082563
  17 C :   -0.103886
  18 C :   -0.034052
  19 C :   -0.007291
  20 C :   -0.189228
  21 H :    0.032798
  22 C :    0.054309
  23 H :    0.026487
  24 H :    0.019478
  25 C :   -0.060727
  26 H :    0.026578
  27 H :    0.018027
  28 C :   -0.055902
  29 H :    0.036865
  30 H :    0.023261
  31 H :    0.035071
  32 H :    0.034257
  33 H :    0.071357
Sum of atomic charges:    0.0000000

LOEWDIN ATOMIC CHARGES
----------------------
   0 S :    0.408218
   1 C :   -0.184486
   2 C :   -0.069272
   3 C :   -0.068616
   4 C :   -0.189735
   5 H :    0.055004
   6 C :   -0.031007
   7 H :    0.027071
   8 H :    0.033481
   9 C :   -0.051356
  10 H :    0.035263
  11 H :    0.033228
  12 C :   -0.086282
  13 H :    0.030915
  14 H :    0.026372
  15 H :    0.036405
  16 S :    0.379491
  17 C :   -0.172628
  18 C :   -0.071633
  19 C :   -0.062789
  20 C :   -0.202805
  21 H :    0.035537
  22 C :   -0.028647
  23 H :    0.026071
  24 H :    0.026492
  25 C :   -0.042870
  26 H :    0.025497
  27 H :    0.024907
  28 C :   -0.073836
  29 H :    0.027915
  30 H :    0.027037
  31 H :    0.020916
  32 H :    0.019713
  33 H :    0.036426

  Mayer bond orders larger than 0.100000
B(  0-S ,  1-C ) :   1.1221 B(  0-S ,  4-C ) :   1.1720 B(  1-C ,  2-C ) :   1.6076
B(  1-C ,  4-C ) :   0.1015 B(  1-C , 32-H ) :   0.9749 B(  2-C ,  3-C ) :   1.2491
B(  2-C ,  6-C ) :   0.9898 B(  3-C ,  4-C ) :   1.5711 B(  3-C ,  5-H ) :   0.9781
B(  4-C , 20-C ) :   1.0246 B(  6-C ,  7-H ) :   0.9431 B(  6-C ,  8-H ) :   0.9406
B(  6-C ,  9-C ) :   1.0717 B(  9-C , 10-H ) :   0.9534 B(  9-C , 11-H ) :   0.9528
B(  9-C , 12-C ) :   1.0852 B( 12-C , 13-H ) :   0.9674 B( 12-C , 14-H ) :   0.9700
B( 12-C , 15-H ) :   0.9659 B( 16-S , 17-C ) :   1.1170 B( 16-S , 20-C ) :   1.1466
B( 17-C , 18-C ) :   1.6526 B( 17-C , 33-H ) :   0.9695 B( 18-C , 19-C ) :   1.1995
B( 18-C , 21-H ) :   0.9808 B( 19-C , 20-C ) :   1.6400 B( 19-C , 22-C ) :   1.0204
B( 22-C , 23-H ) :   0.9403 B( 22-C , 24-H ) :   0.9492 B( 22-C , 25-C ) :   1.0598
B( 25-C , 26-H ) :   0.9494 B( 25-C , 27-H ) :   0.9544 B( 25-C , 28-C ) :   1.0801
B( 28-C , 29-H ) :   0.9714 B( 28-C , 30-H ) :   0.9720 B( 28-C , 31-H ) :   0.9796

Dispersion correction           -0.016021573
FINAL SINGLE POINT ENERGY     -1339.849088479189

DIPOLE MOMENT
-------------
                                X             Y             Z
Electronic contribution:     -3.49903     -12.03115      16.70608
Nuclear contribution   :      3.44190      12.35377     -17.16556
                        -----------------------------------------
Total Dipole Moment    :     -0.05713       0.32261      -0.45948
                        -----------------------------------------
Magnitude (a.u.)       :      0.56433
Magnitude (Debye)      :      1.43440

Rotational constants in cm-1:     0.022289     0.008595     0.007575
Rotational constants in MHz :   668.209006   257.662027   227.079520

                             ****ORCA TERMINATED NORMALLY****
TOTAL RUN TIME: 0 days 0 hours 0 minutes 22 seconds 587 msec
