                         Program Version 4.2.1 -  RELEASE  -
|  1> ! wB97X-D3 SP def2-SVP
|  2> %pal
|  3> nprocs 24
|  4> end
|  5>
|  6> * xyz 0 1
|  7> S 	 -97.2967 	 6.39254 	 0.0967405
|  8> C 	 -95.8308 	 5.76149 	 0.811636
|  9> C 	 -95.3296 	 6.66391 	 1.74642
| 10> C 	 -96.1971 	 7.7409 	 1.94133
| 11> C 	 -97.1924 	 7.89045 	 1.02272
| 12> H 	 -96.0321 	 8.50164 	 2.63061
| 13> C 	 -94.056 	 6.5089 	 2.53961
| 14> H 	 -93.5062 	 7.45413 	 2.48357
| 15> H 	 -93.4321 	 5.6374 	 2.14962
| 16> C 	 -94.3382 	 6.12764 	 4.01668
| 17> H 	 -94.5737 	 7.05982 	 4.46175
| 18> H 	 -95.1556 	 5.39576 	 4.07701
| 19> C 	 -93.028 	 5.45901 	 4.68078
| 20> H 	 -92.6222 	 4.77281 	 3.94138
| 21> H 	 -92.27 	 6.14773 	 4.89075
| 22> H 	 -93.2691 	 4.91184 	 5.61593
| 23> S 	 -99.9575 	 8.02383 	 1.40096
| 24> C 	 -100.853 	 9.51611 	 1.45811
| 25> C 	 -99.9239 	 10.524 	 1.42533
| 26> C 	 -98.5223 	 10.1368 	 1.20925
| 27> C 	 -98.3171 	 8.73163 	 1.23951
| 28> H 	 -100.333 	 11.5652 	 1.49984
| 29> C 	 -97.4857 	 11.1517 	 0.996882
| 30> H 	 -97.8624 	 12.0804 	 0.514995
| 31> H 	 -96.6215 	 10.6979 	 0.450461
| 32> C 	 -96.8342 	 11.5165 	 2.38137
| 33> H 	 -97.0035 	 10.6653 	 3.01932
| 34> H 	 -97.3844 	 12.2292 	 2.85425
| 35> C 	 -95.4052 	 11.9901 	 2.2916
| 36> H 	 -95.3017 	 13.0261 	 1.96967
| 37> H 	 -94.9017 	 11.2938 	 1.60529
| 38> H 	 -94.8578 	 12.1445 	 3.20601
| 39> H 	 -95.2416 	 4.83782 	 0.688431
| 40> H 	 -102.008 	 9.7089 	 1.57402
| 41> *
| 42>
| 43>                          ****END OF INPUT****

CARTESIAN COORDINATES (ANGSTROEM)
---------------------------------
  S    -97.296700    6.392540    0.096740
  C    -95.830800    5.761490    0.811636
  C    -95.329600    6.663910    1.746420
  C    -96.197100    7.740900    1.941330
  C    -97.192400    7.890450    1.022720
  H    -96.032100    8.501640    2.630610
  C    -94.056000    6.508900    2.539610
  H    -93.506200    7.454130    2.483570
  H    -93.432100    5.637400    2.149620
  C    -94.338200    6.127640    4.016680
  H    -94.573700    7.059820    4.461750
  H    -95.155600    5.395760    4.077010
  C    -93.028000    5.459010    4.680780
  H    -92.622200    4.772810    3.941380
  H    -92.270000    6.147730    4.890750
  H    -93.269100    4.911840    5.615930
  S    -99.957500    8.023830    1.400960
  C    -100.853000    9.516110    1.458110
  C    -99.923900   10.524000    1.425330
  C    -98.522300   10.136800    1.209250
  C    -98.317100    8.731630    1.239510
  H    -100.333000   11.565200    1.499840
  C    -97.485700   11.151700    0.996882
  H    -97.862400   12.080400    0.514995
  H    -96.621500   10.697900    0.450461
  C    -96.834200   11.516500    2.381370
  H    -97.003500   10.665300    3.019320
  H    -97.384400   12.229200    2.854250
  C    -95.405200   11.990100    2.291600
  H    -95.301700   13.026100    1.969670
  H    -94.901700   11.293800    1.605290
  H    -94.857800   12.144500    3.206010
  H    -95.241600    4.837820    0.688431
  H    -102.008000    9.708900    1.574020

 Total Charge           Charge          ....    0
 Multiplicity           Mult            ....    1
 Number of Electrons    NEL             ....  134
 Basis Dimension        Dim             ....  322

ORBITAL ENERGIES
----------------

  NO   OCC          E(Eh)            E(eV)
   0   2.0000     -88.971447     -2421.0362
   1   2.0000     -88.959031     -2420.6983
   2   2.0000     -10.331634      -281.1381
   3   2.0000     -10.327874      -281.0357
   4   2.0000     -10.324945      -280.9560
   5   2.0000     -10.320855      -280.8447
   6   2.0000     -10.307855      -280.4910
   7   2.0000     -10.299427      -280.2616
   8   2.0000     -10.298196      -280.2282
   9   2.0000     -10.296478      -280.1814
  10   2.0000     -10.292675      -280.0779
  11   2.0000     -10.291683      -280.0509
  12   2.0000     -10.288785      -279.9721
  13   2.0000     -10.281898      -279.7847
  14   2.0000     -10.276408      -279.6353
  15   2.0000     -10.274741      -279.5899
  16   2.0000      -8.085573      -220.0196
  17   2.0000      -8.073314      -219.6860
  18   2.0000      -6.044196      -164.4709
  19   2.0000      -6.040095      -164.3594
  20   2.0000      -6.036249      -164.2547
  21   2.0000      -6.032092      -164.1416
  22   2.0000      -6.027697      -164.0220
  23   2.0000      -6.023923      -163.9193
  24   2.0000      -1.010697       -27.5025
  25   2.0000      -0.981976       -26.7209
  26   2.0000      -0.912436       -24.8286
  27   2.0000      -0.911509       -24.8034
  28   2.0000      -0.873994       -23.7826
  29   2.0000      -0.850611       -23.1463
  30   2.0000      -0.845291       -23.0015
  31   2.0000      -0.814595       -22.1662
  32   2.0000      -0.779103       -21.2005
  33   2.0000      -0.768319       -20.9070
  34   2.0000      -0.714776       -19.4500
  35   2.0000      -0.702704       -19.1216
  36   2.0000      -0.698322       -19.0023
  37   2.0000      -0.654006       -17.7964
  38   2.0000      -0.639898       -17.4125
  39   2.0000      -0.625063       -17.0088
  40   2.0000      -0.593633       -16.1536
  41   2.0000      -0.576449       -15.6860
  42   2.0000      -0.570004       -15.5106
  43   2.0000      -0.562812       -15.3149
  44   2.0000      -0.524226       -14.2649
  45   2.0000      -0.522274       -14.2118
  46   2.0000      -0.517716       -14.0878
  47   2.0000      -0.512283       -13.9399
  48   2.0000      -0.507429       -13.8078
  49   2.0000      -0.499823       -13.6009
  50   2.0000      -0.495792       -13.4912
  51   2.0000      -0.480860       -13.0849
  52   2.0000      -0.469222       -12.7682
  53   2.0000      -0.462702       -12.5908
  54   2.0000      -0.457578       -12.4513
  55   2.0000      -0.452278       -12.3071
  56   2.0000      -0.443274       -12.0621
  57   2.0000      -0.441401       -12.0111
  58   2.0000      -0.429963       -11.6999
  59   2.0000      -0.427198       -11.6247
  60   2.0000      -0.420747       -11.4491
  61   2.0000      -0.415094       -11.2953
  62   2.0000      -0.406258       -11.0548
  63   2.0000      -0.352159        -9.5827
  64   2.0000      -0.329414        -8.9638
  65   2.0000      -0.319710        -8.6998
  66   2.0000      -0.293771        -7.9939
  67   0.0000       0.022841         0.6215
  68   0.0000       0.066983         1.8227
  69   0.0000       0.115362         3.1392
  70   0.0000       0.122488         3.3331
  71   0.0000       0.125479         3.4144

MULLIKEN ATOMIC CHARGES
-----------------------
   0 S :    0.116389
   1 C :   -0.103297
   2 C :   -0.092369
   3 C :    0.034287
   4 C :   -0.126666
   5 H :   -0.014044
   6 C :    0.033446
   7 H :    0.043790
   8 H :    0.022150
   9 C :   -0.079802
  10 H :    0.030358
  11 H :    0.045451
  12 C :   -0.047334
  13 H :    0.024846
  14 H :    0.024097
  15 H :    0.046457
  16 S :    0.082771
  17 C :   -0.125982
  18 C :   -0.052396
  19 C :   -0.067842
  20 C :   -0.127735
  21 H :    0.032085
  22 C :    0.046867
  23 H :    0.040721
  24 H :    0.032813
  25 C :   -0.037510
  26 H :    0.025756
  27 H :   -0.004229
  28 C :   -0.037611
  29 H :    0.022980
  30 H :    0.032724
  31 H :    0.023968
  32 H :    0.051470
  33 H :    0.103391
Sum of atomic charges:   -0.0000000

LOEWDIN ATOMIC CHARGES
----------------------
   0 S :    0.414491
   1 C :   -0.197087
   2 C :   -0.070541
   3 C :   -0.040407
   4 C :   -0.200232
   5 H :    0.019586
   6 C :   -0.034310
   7 H :    0.033572
   8 H :    0.030791
   9 C :   -0.030339
  10 H :    0.017111
  11 H :    0.028080
  12 C :   -0.062688
  13 H :    0.022083
  14 H :    0.016379
  15 H :    0.031515
  16 S :    0.384698
  17 C :   -0.211389
  18 C :   -0.091113
  19 C :   -0.057448
  20 C :   -0.187067
  21 H :    0.035626
  22 C :   -0.032966
  23 H :    0.036467
  24 H :    0.034962
  25 C :   -0.034743
  26 H :    0.020331
  27 H :    0.009824
  28 C :   -0.070697
  29 H :    0.028483
  30 H :    0.025001
  31 H :    0.026455
  32 H :    0.040327
  33 H :    0.065245

  Mayer bond orders larger than 0.100000
B(  0-S ,  1-C ) :   1.1497 B(  0-S ,  4-C ) :   1.1317 B(  1-C ,  2-C ) :   1.5894
B(  1-C , 32-H ) :   0.9568 B(  2-C ,  3-C ) :   1.2715 B(  2-C ,  6-C ) :   1.0357
B(  3-C ,  4-C ) :   1.5466 B(  3-C ,  5-H ) :   0.9977 B(  4-C , 20-C ) :   1.0742
B(  6-C ,  7-H ) :   0.9410 B(  6-C ,  8-H ) :   0.9438 B(  6-C ,  9-C ) :   1.0463
B(  9-C , 10-H ) :   0.9589 B(  9-C , 11-H ) :   0.9634 B(  9-C , 12-C ) :   1.0717
B( 12-C , 13-H ) :   0.9779 B( 12-C , 14-H ) :   0.9776 B( 12-C , 15-H ) :   0.9791
B( 16-S , 17-C ) :   1.1477 B( 16-S , 20-C ) :   1.1194 B( 17-C , 18-C ) :   1.6256
B( 17-C , 33-H ) :   0.9502 B( 18-C , 19-C ) :   1.2301 B( 18-C , 21-H ) :   0.9807
B( 19-C , 20-C ) :   1.5638 B( 19-C , 22-C ) :   1.0882 B( 22-C , 23-H ) :   0.9342
B( 22-C , 24-H ) :   0.9321 B( 22-C , 25-C ) :   1.0400 B( 25-C , 26-H ) :   0.9579
B( 25-C , 27-H ) :   0.9426 B( 25-C , 28-C ) :   1.0847 B( 28-C , 29-H ) :   0.9685
B( 28-C , 30-H ) :   0.9768 B( 28-C , 31-H ) :   0.9696

Dispersion correction           -0.014219156
FINAL SINGLE POINT ENERGY     -1339.845000020832

DIPOLE MOMENT
-------------
                                X             Y             Z
Electronic contribution:    -23.41026      -9.14411     -15.29939
Nuclear contribution   :     23.88534       9.52650      15.78227
                        -----------------------------------------
Total Dipole Moment    :      0.47508       0.38239       0.48288
                        -----------------------------------------
Magnitude (a.u.)       :      0.77788
Magnitude (Debye)      :      1.97722

Rotational constants in cm-1:     0.017893     0.008767     0.006790
Rotational constants in MHz :   536.423542   262.842241   203.560589

                             ****ORCA TERMINATED NORMALLY****
TOTAL RUN TIME: 0 days 0 hours 0 minutes 20 seconds 540 msec
