                         Program Version 4.2.1 -  RELEASE  -
|  1> ! wB97X-D3 SP def2-SVP
|  2> %pal
|  3> nprocs 24
|  4> end
|  5>
|  6> * xyz 0 1
|  7> S 	 -56.6099 	 16.4072 	 -91.0819
|  8> C 	 -54.8813 	 16.6878 	 -90.9621
|  9> C 	 -54.0935 	 15.7774 	 -91.5889
| 10> C 	 -54.9048 	 14.812 	 -92.2234
| 11> C 	 -56.2632 	 14.944 	 -92.0036
| 12> H 	 -54.6516 	 14.1573 	 -92.9482
| 13> C 	 -52.5754 	 15.6579 	 -91.6368
| 14> H 	 -52.3515 	 14.6147 	 -91.7562
| 15> H 	 -52.2576 	 15.9117 	 -90.6659
| 16> C 	 -51.8515 	 16.511 	 -92.6861
| 17> H 	 -52.1801 	 17.5147 	 -92.7155
| 18> H 	 -50.7388 	 16.5375 	 -92.3927
| 19> C 	 -51.8465 	 15.8748 	 -94.1032
| 20> H 	 -51.3528 	 16.4313 	 -94.8453
| 21> H 	 -51.418 	 14.871 	 -94.0817
| 22> H 	 -52.837 	 15.6802 	 -94.5244
| 23> S 	 -58.3527 	 15.0981 	 -93.7411
| 24> C 	 -59.2894 	 13.7186 	 -94.1798
| 25> C 	 -58.9529 	 12.6305 	 -93.3721
| 26> C 	 -57.901 	 12.8649 	 -92.4493
| 27> C 	 -57.3983 	 14.1939 	 -92.5876
| 28> H 	 -59.3041 	 11.6548 	 -93.579
| 29> C 	 -57.2521 	 11.7054 	 -91.6768
| 30> H 	 -58.0203 	 11.1163 	 -91.1694
| 31> H 	 -56.5011 	 12.14 	 -91.0067
| 32> C 	 -56.6124 	 10.7789 	 -92.7352
| 33> H 	 -55.8044 	 11.2609 	 -93.3043
| 34> H 	 -57.3132 	 10.4907 	 -93.4523
| 35> C 	 -56.0578 	 9.50734 	 -92.0864
| 36> H 	 -55.2008 	 9.61074 	 -91.4414
| 37> H 	 -55.7245 	 8.89702 	 -92.8673
| 38> H 	 -56.8657 	 8.93325 	 -91.4727
| 39> H 	 -54.4716 	 17.461 	 -90.3188
| 40> H 	 -60.0034 	 13.783 	 -95.0454
| 41> *
| 42>
| 43>                          ****END OF INPUT****

CARTESIAN COORDINATES (ANGSTROEM)
---------------------------------
  S    -56.609900   16.407200  -91.081900
  C    -54.881300   16.687800  -90.962100
  C    -54.093500   15.777400  -91.588900
  C    -54.904800   14.812000  -92.223400
  C    -56.263200   14.944000  -92.003600
  H    -54.651600   14.157300  -92.948200
  C    -52.575400   15.657900  -91.636800
  H    -52.351500   14.614700  -91.756200
  H    -52.257600   15.911700  -90.665900
  C    -51.851500   16.511000  -92.686100
  H    -52.180100   17.514700  -92.715500
  H    -50.738800   16.537500  -92.392700
  C    -51.846500   15.874800  -94.103200
  H    -51.352800   16.431300  -94.845300
  H    -51.418000   14.871000  -94.081700
  H    -52.837000   15.680200  -94.524400
  S    -58.352700   15.098100  -93.741100
  C    -59.289400   13.718600  -94.179800
  C    -58.952900   12.630500  -93.372100
  C    -57.901000   12.864900  -92.449300
  C    -57.398300   14.193900  -92.587600
  H    -59.304100   11.654800  -93.579000
  C    -57.252100   11.705400  -91.676800
  H    -58.020300   11.116300  -91.169400
  H    -56.501100   12.140000  -91.006700
  C    -56.612400   10.778900  -92.735200
  H    -55.804400   11.260900  -93.304300
  H    -57.313200   10.490700  -93.452300
  C    -56.057800    9.507340  -92.086400
  H    -55.200800    9.610740  -91.441400
  H    -55.724500    8.897020  -92.867300
  H    -56.865700    8.933250  -91.472700
  H    -54.471600   17.461000  -90.318800
  H    -60.003400   13.783000  -95.045400

 Total Charge           Charge          ....    0
 Multiplicity           Mult            ....    1
 Number of Electrons    NEL             ....  134
 Basis Dimension        Dim             ....  322

ORBITAL ENERGIES
----------------

  NO   OCC          E(Eh)            E(eV)
   0   2.0000     -88.964869     -2420.8572
   1   2.0000     -88.963268     -2420.8136
   2   2.0000     -10.328165      -281.0437
   3   2.0000     -10.327833      -281.0346
   4   2.0000     -10.321062      -280.8504
   5   2.0000     -10.310540      -280.5640
   6   2.0000     -10.306434      -280.4523
   7   2.0000     -10.296043      -280.1696
   8   2.0000     -10.295074      -280.1432
   9   2.0000     -10.293288      -280.0946
  10   2.0000     -10.291003      -280.0324
  11   2.0000     -10.289860      -280.0013
  12   2.0000     -10.283719      -279.8342
  13   2.0000     -10.282961      -279.8136
  14   2.0000     -10.277655      -279.6692
  15   2.0000     -10.274440      -279.5817
  16   2.0000      -8.079519      -219.8549
  17   2.0000      -8.078532      -219.8280
  18   2.0000      -6.037922      -164.3002
  19   2.0000      -6.036885      -164.2720
  20   2.0000      -6.034171      -164.1981
  21   2.0000      -6.032735      -164.1591
  22   2.0000      -6.030262      -164.0918
  23   2.0000      -6.029655      -164.0753
  24   2.0000      -1.004400       -27.3311
  25   2.0000      -0.983964       -26.7750
  26   2.0000      -0.912284       -24.8245
  27   2.0000      -0.909621       -24.7520
  28   2.0000      -0.864374       -23.5208
  29   2.0000      -0.849973       -23.1290
  30   2.0000      -0.847027       -23.0488
  31   2.0000      -0.812578       -22.1114
  32   2.0000      -0.786000       -21.3881
  33   2.0000      -0.771067       -20.9818
  34   2.0000      -0.707701       -19.2575
  35   2.0000      -0.703264       -19.1368
  36   2.0000      -0.691717       -18.8226
  37   2.0000      -0.660579       -17.9753
  38   2.0000      -0.647003       -17.6059
  39   2.0000      -0.617751       -16.8098
  40   2.0000      -0.596760       -16.2387
  41   2.0000      -0.573055       -15.5936
  42   2.0000      -0.567422       -15.4403
  43   2.0000      -0.548184       -14.9168
  44   2.0000      -0.534755       -14.5514
  45   2.0000      -0.526272       -14.3206
  46   2.0000      -0.521207       -14.1828
  47   2.0000      -0.508840       -13.8462
  48   2.0000      -0.505891       -13.7660
  49   2.0000      -0.486562       -13.2400
  50   2.0000      -0.483999       -13.1703
  51   2.0000      -0.480201       -13.0669
  52   2.0000      -0.474491       -12.9116
  53   2.0000      -0.468361       -12.7447
  54   2.0000      -0.458371       -12.4729
  55   2.0000      -0.447079       -12.1656
  56   2.0000      -0.445564       -12.1244
  57   2.0000      -0.441560       -12.0155
  58   2.0000      -0.436713       -11.8836
  59   2.0000      -0.433299       -11.7907
  60   2.0000      -0.426440       -11.6040
  61   2.0000      -0.418300       -11.3825
  62   2.0000      -0.412291       -11.2190
  63   2.0000      -0.339085        -9.2270
  64   2.0000      -0.330685        -8.9984
  65   2.0000      -0.326788        -8.8923
  66   2.0000      -0.295674        -8.0457
  67   0.0000       0.040164         1.0929
  68   0.0000       0.057673         1.5694
  69   0.0000       0.115125         3.1327
  70   0.0000       0.123537         3.3616
  71   0.0000       0.130621         3.5544

MULLIKEN ATOMIC CHARGES
-----------------------
   0 S :    0.111279
   1 C :   -0.130529
   2 C :   -0.079510
   3 C :    0.074335
   4 C :   -0.170382
   5 H :   -0.033222
   6 C :    0.119745
   7 H :    0.015744
   8 H :    0.010898
   9 C :   -0.058700
  10 H :    0.027769
  11 H :    0.039195
  12 C :   -0.049751
  13 H :    0.027451
  14 H :    0.020442
  15 H :    0.027658
  16 S :    0.112161
  17 C :   -0.117584
  18 C :   -0.032720
  19 C :   -0.016590
  20 C :   -0.199383
  21 H :    0.006757
  22 C :    0.100767
  23 H :    0.026958
  24 H :    0.039337
  25 C :   -0.086768
  26 H :    0.030002
  27 H :    0.014247
  28 C :   -0.035494
  29 H :    0.029347
  30 H :    0.018741
  31 H :    0.035475
  32 H :    0.040547
  33 H :    0.081778
Sum of atomic charges:   -0.0000000

LOEWDIN ATOMIC CHARGES
----------------------
   0 S :    0.396690
   1 C :   -0.189608
   2 C :   -0.064289
   3 C :   -0.052273
   4 C :   -0.189580
   5 H :    0.012120
   6 C :   -0.020562
   7 H :    0.030029
   8 H :    0.026590
   9 C :   -0.032365
  10 H :    0.018875
  11 H :    0.034143
  12 C :   -0.067958
  13 H :    0.019619
  14 H :    0.024423
  15 H :    0.024431
  16 S :    0.422785
  17 C :   -0.200512
  18 C :   -0.075044
  19 C :   -0.049316
  20 C :   -0.214219
  21 H :    0.021778
  22 C :   -0.021339
  23 H :    0.032516
  24 H :    0.034530
  25 C :   -0.033839
  26 H :    0.027596
  27 H :    0.015061
  28 C :   -0.066936
  29 H :    0.021459
  30 H :    0.017793
  31 H :    0.032662
  32 H :    0.024624
  33 H :    0.040118

  Mayer bond orders larger than 0.100000
B(  0-S ,  1-C ) :   1.1387 B(  0-S ,  4-C ) :   1.1489 B(  1-C ,  2-C ) :   1.6454
B(  1-C , 32-H ) :   0.9616 B(  2-C ,  3-C ) :   1.2209 B(  2-C ,  6-C ) :   1.0041
B(  3-C ,  4-C ) :   1.6083 B(  3-C ,  5-H ) :   1.0058 B(  4-C , 20-C ) :   0.9992
B(  6-C ,  7-H ) :   0.9434 B(  6-C ,  8-H ) :   0.9323 B(  6-C ,  9-C ) :   1.0704
B(  9-C , 10-H ) :   0.9593 B(  9-C , 11-H ) :   0.9563 B(  9-C , 12-C ) :   1.0735
B( 12-C , 13-H ) :   0.9749 B( 12-C , 14-H ) :   0.9742 B( 12-C , 15-H ) :   0.9760
B( 16-S , 17-C ) :   1.1786 B( 16-S , 20-C ) :   1.1717 B( 17-C , 18-C ) :   1.5619
B( 17-C , 20-C ) :   0.1094 B( 17-C , 33-H ) :   0.9648 B( 18-C , 19-C ) :   1.2654
B( 18-C , 21-H ) :   0.9923 B( 19-C , 20-C ) :   1.5599 B( 19-C , 22-C ) :   1.0531
B( 22-C , 23-H ) :   0.9294 B( 22-C , 24-H ) :   0.9368 B( 22-C , 25-C ) :   1.0682
B( 25-C , 26-H ) :   0.9501 B( 25-C , 27-H ) :   0.9562 B( 25-C , 28-C ) :   1.0886
B( 28-C , 29-H ) :   0.9751 B( 28-C , 30-H ) :   0.9710 B( 28-C , 31-H ) :   0.9720

Dispersion correction           -0.013995707
FINAL SINGLE POINT ENERGY     -1339.873904124162

DIPOLE MOMENT
-------------
                                X             Y             Z
Electronic contribution:    -20.91430      16.44921       2.99382
Nuclear contribution   :     21.42553     -16.90031      -3.21053
                        -----------------------------------------
Total Dipole Moment    :      0.51123      -0.45110      -0.21671
                        -----------------------------------------
Magnitude (a.u.)       :      0.71540
Magnitude (Debye)      :      1.81841

Rotational constants in cm-1:     0.017138     0.008531     0.006944
Rotational constants in MHz :   513.797714   255.743614   208.169210

                             ****ORCA TERMINATED NORMALLY****
TOTAL RUN TIME: 0 days 0 hours 0 minutes 21 seconds 266 msec
