                         Program Version 4.2.1 -  RELEASE  -
|  1> ! wB97X-D3 SP def2-SVP
|  2> %pal
|  3> nprocs 24
|  4> end
|  5>
|  6> * xyz 0 1
|  7> S 	 -100.471 	 49.9678 	 -100.037
|  8> C 	 -100.638 	 51.7019 	 -100.225
|  9> C 	 -99.3808 	 52.32 	 -100.27
| 10> C 	 -98.3048 	 51.3152 	 -100.293
| 11> C 	 -98.7665 	 50.0211 	 -100.175
| 12> H 	 -97.2511 	 51.5712 	 -100.406
| 13> C 	 -99.0656 	 53.8251 	 -100.389
| 14> H 	 -98.0189 	 53.9796 	 -100.737
| 15> H 	 -98.9435 	 54.1995 	 -99.3361
| 16> C 	 -100.065 	 54.648 	 -101.303
| 17> H 	 -101.024 	 54.7541 	 -100.885
| 18> H 	 -99.6965 	 55.6829 	 -101.46
| 19> C 	 -100.119 	 53.9916 	 -102.67
| 20> H 	 -100.542 	 52.9839 	 -102.595
| 21> H 	 -100.819 	 54.5655 	 -103.33
| 22> H 	 -99.2264 	 53.9892 	 -103.168
| 23> S 	 -98.1649 	 47.8283 	 -98.6011
| 24> C 	 -96.9555 	 46.6802 	 -99.1284
| 25> C 	 -96.327 	 47.0359 	 -100.318
| 26> C 	 -96.9665 	 48.1946 	 -100.902
| 27> C 	 -97.9804 	 48.7993 	 -100.117
| 28> H 	 -95.5304 	 46.4897 	 -100.692
| 29> C 	 -96.4958 	 48.7634 	 -102.279
| 30> H 	 -95.4259 	 48.964 	 -102.393
| 31> H 	 -97.0701 	 49.7279 	 -102.465
| 32> C 	 -96.8566 	 47.8345 	 -103.432
| 33> H 	 -96.6757 	 48.3327 	 -104.365
| 34> H 	 -97.9267 	 47.5837 	 -103.362
| 35> C 	 -96.1668 	 46.5077 	 -103.573
| 36> H 	 -96.849 	 45.8011 	 -103.995
| 37> H 	 -95.7416 	 45.9989 	 -102.73
| 38> H 	 -95.3771 	 46.6725 	 -104.334
| 39> H 	 -101.563 	 52.2362 	 -100.03
| 40> H 	 -96.7378 	 45.8297 	 -98.553
| 41> *
| 42>
| 43>                          ****END OF INPUT****

CARTESIAN COORDINATES (ANGSTROEM)
---------------------------------
  S    -100.471000   49.967800  -100.037000
  C    -100.638000   51.701900  -100.225000
  C    -99.380800   52.320000  -100.270000
  C    -98.304800   51.315200  -100.293000
  C    -98.766500   50.021100  -100.175000
  H    -97.251100   51.571200  -100.406000
  C    -99.065600   53.825100  -100.389000
  H    -98.018900   53.979600  -100.737000
  H    -98.943500   54.199500  -99.336100
  C    -100.065000   54.648000  -101.303000
  H    -101.024000   54.754100  -100.885000
  H    -99.696500   55.682900  -101.460000
  C    -100.119000   53.991600  -102.670000
  H    -100.542000   52.983900  -102.595000
  H    -100.819000   54.565500  -103.330000
  H    -99.226400   53.989200  -103.168000
  S    -98.164900   47.828300  -98.601100
  C    -96.955500   46.680200  -99.128400
  C    -96.327000   47.035900  -100.318000
  C    -96.966500   48.194600  -100.902000
  C    -97.980400   48.799300  -100.117000
  H    -95.530400   46.489700  -100.692000
  C    -96.495800   48.763400  -102.279000
  H    -95.425900   48.964000  -102.393000
  H    -97.070100   49.727900  -102.465000
  C    -96.856600   47.834500  -103.432000
  H    -96.675700   48.332700  -104.365000
  H    -97.926700   47.583700  -103.362000
  C    -96.166800   46.507700  -103.573000
  H    -96.849000   45.801100  -103.995000
  H    -95.741600   45.998900  -102.730000
  H    -95.377100   46.672500  -104.334000
  H    -101.563000   52.236200  -100.030000
  H    -96.737800   45.829700  -98.553000

 Total Charge           Charge          ....    0
 Multiplicity           Mult            ....    1
 Number of Electrons    NEL             ....  134
 Basis Dimension        Dim             ....  322

ORBITAL ENERGIES
----------------

  NO   OCC          E(Eh)            E(eV)
   0   2.0000     -88.966539     -2420.9026
   1   2.0000     -88.964189     -2420.8387
   2   2.0000     -10.333842      -281.1981
   3   2.0000     -10.328980      -281.0658
   4   2.0000     -10.318234      -280.7734
   5   2.0000     -10.316620      -280.7295
   6   2.0000     -10.314510      -280.6721
   7   2.0000     -10.310611      -280.5660
   8   2.0000     -10.304316      -280.3947
   9   2.0000     -10.298179      -280.2277
  10   2.0000     -10.296328      -280.1773
  11   2.0000     -10.295088      -280.1436
  12   2.0000     -10.289985      -280.0047
  13   2.0000     -10.277135      -279.6550
  14   2.0000     -10.269032      -279.4346
  15   2.0000     -10.267804      -279.4012
  16   2.0000      -8.081904      -219.9198
  17   2.0000      -8.078301      -219.8218
  18   2.0000      -6.040425      -164.3683
  19   2.0000      -6.036749      -164.2683
  20   2.0000      -6.036253      -164.2548
  21   2.0000      -6.032911      -164.1639
  22   2.0000      -6.032672      -164.1574
  23   2.0000      -6.029142      -164.0613
  24   2.0000      -1.003385       -27.3035
  25   2.0000      -0.977004       -26.5856
  26   2.0000      -0.908415       -24.7192
  27   2.0000      -0.906622       -24.6704
  28   2.0000      -0.867316       -23.6009
  29   2.0000      -0.848225       -23.0814
  30   2.0000      -0.842364       -22.9219
  31   2.0000      -0.812119       -22.0989
  32   2.0000      -0.783823       -21.3289
  33   2.0000      -0.773289       -21.0423
  34   2.0000      -0.706899       -19.2357
  35   2.0000      -0.701822       -19.0975
  36   2.0000      -0.682935       -18.5836
  37   2.0000      -0.666053       -18.1242
  38   2.0000      -0.640803       -17.4371
  39   2.0000      -0.610229       -16.6052
  40   2.0000      -0.596356       -16.2277
  41   2.0000      -0.576519       -15.6879
  42   2.0000      -0.556088       -15.1319
  43   2.0000      -0.549694       -14.9579
  44   2.0000      -0.549097       -14.9417
  45   2.0000      -0.533173       -14.5084
  46   2.0000      -0.516163       -14.0455
  47   2.0000      -0.507051       -13.7976
  48   2.0000      -0.505298       -13.7499
  49   2.0000      -0.494066       -13.4442
  50   2.0000      -0.489412       -13.3176
  51   2.0000      -0.484349       -13.1798
  52   2.0000      -0.473785       -12.8923
  53   2.0000      -0.465858       -12.6767
  54   2.0000      -0.458528       -12.4772
  55   2.0000      -0.442879       -12.0513
  56   2.0000      -0.436254       -11.8711
  57   2.0000      -0.435077       -11.8390
  58   2.0000      -0.427583       -11.6351
  59   2.0000      -0.424650       -11.5553
  60   2.0000      -0.419301       -11.4097
  61   2.0000      -0.416088       -11.3223
  62   2.0000      -0.407233       -11.0814
  63   2.0000      -0.341025        -9.2798
  64   2.0000      -0.330918        -9.0047
  65   2.0000      -0.326290        -8.8788
  66   2.0000      -0.297359        -8.0915
  67   0.0000       0.030509         0.8302
  68   0.0000       0.064422         1.7530
  69   0.0000       0.110665         3.0114
  70   0.0000       0.118789         3.2324
  71   0.0000       0.122721         3.3394

MULLIKEN ATOMIC CHARGES
-----------------------
   0 S :    0.119459
   1 C :   -0.121686
   2 C :   -0.129044
   3 C :    0.041326
   4 C :   -0.155431
   5 H :    0.018762
   6 C :    0.039203
   7 H :    0.023930
   8 H :    0.049899
   9 C :   -0.056237
  10 H :    0.023286
  11 H :    0.033507
  12 C :   -0.039764
  13 H :    0.046615
  14 H :    0.026603
  15 H :    0.013733
  16 S :    0.090869
  17 C :   -0.074653
  18 C :   -0.005386
  19 C :   -0.029897
  20 C :   -0.154243
  21 H :    0.004691
  22 C :    0.055725
  23 H :    0.033068
  24 H :    0.039539
  25 C :   -0.081279
  26 H :    0.025053
  27 H :    0.032122
  28 C :   -0.039461
  29 H :    0.024796
  30 H :    0.016711
  31 H :    0.024567
  32 H :    0.058169
  33 H :    0.045449
Sum of atomic charges:   -0.0000000

LOEWDIN ATOMIC CHARGES
----------------------
   0 S :    0.427332
   1 C :   -0.208466
   2 C :   -0.055904
   3 C :   -0.060933
   4 C :   -0.214792
   5 H :    0.033042
   6 C :   -0.040137
   7 H :    0.032210
   8 H :    0.039528
   9 C :   -0.035768
  10 H :    0.015506
  11 H :    0.030371
  12 C :   -0.060512
  13 H :    0.028439
  14 H :    0.028837
  15 H :    0.011111
  16 S :    0.383191
  17 C :   -0.165762
  18 C :   -0.064024
  19 C :   -0.043924
  20 C :   -0.187712
  21 H :    0.020384
  22 C :   -0.034021
  23 H :    0.028592
  24 H :    0.039190
  25 C :   -0.046789
  26 H :    0.023510
  27 H :    0.026996
  28 C :   -0.068898
  29 H :    0.027098
  30 H :    0.017024
  31 H :    0.027712
  32 H :    0.029629
  33 H :    0.017939

  Mayer bond orders larger than 0.100000
B(  0-S ,  1-C ) :   1.1360 B(  0-S ,  4-C ) :   1.1691 B(  1-C ,  2-C ) :   1.6122
B(  1-C , 32-H ) :   0.9654 B(  2-C ,  3-C ) :   1.2409 B(  2-C ,  6-C ) :   1.0090
B(  3-C ,  4-C ) :   1.5684 B(  3-C ,  5-H ) :   0.9945 B(  4-C , 20-C ) :   1.0247
B(  6-C ,  7-H ) :   0.9494 B(  6-C ,  8-H ) :   0.9370 B(  6-C ,  9-C ) :   1.0597
B(  9-C , 10-H ) :   0.9573 B(  9-C , 11-H ) :   0.9577 B(  9-C , 12-C ) :   1.0843
B( 12-C , 13-H ) :   0.9698 B( 12-C , 14-H ) :   0.9713 B( 12-C , 15-H ) :   0.9770
B( 16-S , 17-C ) :   1.1680 B( 16-S , 20-C ) :   1.1271 B( 17-C , 18-C ) :   1.5939
B( 17-C , 20-C ) :   0.1047 B( 17-C , 33-H ) :   0.9723 B( 18-C , 19-C ) :   1.2271
B( 18-C , 21-H ) :   1.0018 B( 19-C , 20-C ) :   1.6093 B( 19-C , 22-C ) :   1.0336
B( 22-C , 23-H ) :   0.9457 B( 22-C , 24-H ) :   0.9347 B( 22-C , 25-C ) :   1.0741
B( 25-C , 26-H ) :   0.9602 B( 25-C , 27-H ) :   0.9581 B( 25-C , 28-C ) :   1.0717
B( 28-C , 29-H ) :   0.9743 B( 28-C , 30-H ) :   0.9731 B( 28-C , 31-H ) :   0.9787

Dispersion correction           -0.014268714
FINAL SINGLE POINT ENERGY     -1339.872403564325

DIPOLE MOMENT
-------------
                                X             Y             Z
Electronic contribution:     -6.69943     -11.30046      20.81738
Nuclear contribution   :      7.07679      11.63896     -21.12828
                        -----------------------------------------
Total Dipole Moment    :      0.37737       0.33850      -0.31090
                        -----------------------------------------
Magnitude (a.u.)       :      0.59468
Magnitude (Debye)      :      1.51156

Rotational constants in cm-1:     0.021669     0.007803     0.006413
Rotational constants in MHz :   649.632954   233.923847   192.249811

                             ****ORCA TERMINATED NORMALLY****
TOTAL RUN TIME: 0 days 0 hours 0 minutes 21 seconds 420 msec
