                         Program Version 4.2.1 -  RELEASE  -
|  1> ! wB97X-D3 SP def2-SVP
|  2> %pal
|  3> nprocs 24
|  4> end
|  5>
|  6> * xyz 0 1
|  7> S 	 -55.4201 	 -49.8086 	 -84.81
|  8> C 	 -56.3248 	 -49.9663 	 -86.3199
|  9> C 	 -56.3387 	 -48.7491 	 -87.0358
| 10> C 	 -55.4157 	 -47.8139 	 -86.4389
| 11> C 	 -54.897 	 -48.2307 	 -85.1612
| 12> H 	 -55.2188 	 -46.8225 	 -86.8024
| 13> C 	 -57.0644 	 -48.3667 	 -88.3517
| 14> H 	 -57.7575 	 -49.1849 	 -88.5233
| 15> H 	 -56.2216 	 -48.4757 	 -89.0171
| 16> C 	 -57.7622 	 -46.9551 	 -88.484
| 17> H 	 -57.0451 	 -46.1871 	 -88.7618
| 18> H 	 -58.395 	 -46.9474 	 -89.3665
| 19> C 	 -58.6279 	 -46.5764 	 -87.2373
| 20> H 	 -58.8955 	 -45.5214 	 -87.3176
| 21> H 	 -59.5398 	 -47.2774 	 -87.1366
| 22> H 	 -57.8771 	 -46.4869 	 -86.4846
| 23> S 	 -52.2154 	 -47.8079 	 -84.6418
| 24> C 	 -51.8148 	 -46.7592 	 -83.2844
| 25> C 	 -52.8976 	 -46.1058 	 -82.7409
| 26> C 	 -54.1341 	 -46.5768 	 -83.2941
| 27> C 	 -53.9393 	 -47.5505 	 -84.2438
| 28> H 	 -52.8776 	 -45.3349 	 -82.0057
| 29> C 	 -55.4855 	 -45.9622 	 -82.9994
| 30> H 	 -56.2198 	 -46.7518 	 -83.2357
| 31> H 	 -55.6969 	 -45.1025 	 -83.6685
| 32> C 	 -55.7632 	 -45.5578 	 -81.5751
| 33> H 	 -55.0782 	 -44.7459 	 -81.3646
| 34> H 	 -55.5076 	 -46.4443 	 -81.0024
| 35> C 	 -57.2608 	 -45.2289 	 -81.2904
| 36> H 	 -57.345 	 -44.7265 	 -80.2776
| 37> H 	 -57.8337 	 -46.2059 	 -81.179
| 38> H 	 -57.7947 	 -44.6108 	 -82.0284
| 39> H 	 -57.0537 	 -50.8348 	 -86.5376
| 40> H 	 -50.7735 	 -46.4445 	 -83.1843
| 41> *
| 42>
| 43>                          ****END OF INPUT****

CARTESIAN COORDINATES (ANGSTROEM)
---------------------------------
  S    -55.420100  -49.808600  -84.810000
  C    -56.324800  -49.966300  -86.319900
  C    -56.338700  -48.749100  -87.035800
  C    -55.415700  -47.813900  -86.438900
  C    -54.897000  -48.230700  -85.161200
  H    -55.218800  -46.822500  -86.802400
  C    -57.064400  -48.366700  -88.351700
  H    -57.757500  -49.184900  -88.523300
  H    -56.221600  -48.475700  -89.017100
  C    -57.762200  -46.955100  -88.484000
  H    -57.045100  -46.187100  -88.761800
  H    -58.395000  -46.947400  -89.366500
  C    -58.627900  -46.576400  -87.237300
  H    -58.895500  -45.521400  -87.317600
  H    -59.539800  -47.277400  -87.136600
  H    -57.877100  -46.486900  -86.484600
  S    -52.215400  -47.807900  -84.641800
  C    -51.814800  -46.759200  -83.284400
  C    -52.897600  -46.105800  -82.740900
  C    -54.134100  -46.576800  -83.294100
  C    -53.939300  -47.550500  -84.243800
  H    -52.877600  -45.334900  -82.005700
  C    -55.485500  -45.962200  -82.999400
  H    -56.219800  -46.751800  -83.235700
  H    -55.696900  -45.102500  -83.668500
  C    -55.763200  -45.557800  -81.575100
  H    -55.078200  -44.745900  -81.364600
  H    -55.507600  -46.444300  -81.002400
  C    -57.260800  -45.228900  -81.290400
  H    -57.345000  -44.726500  -80.277600
  H    -57.833700  -46.205900  -81.179000
  H    -57.794700  -44.610800  -82.028400
  H    -57.053700  -50.834800  -86.537600
  H    -50.773500  -46.444500  -83.184300

 Total Charge           Charge          ....    0
 Multiplicity           Mult            ....    1
 Number of Electrons    NEL             ....  134
 Basis Dimension        Dim             ....  322

ORBITAL ENERGIES
----------------

  NO   OCC          E(Eh)            E(eV)
   0   2.0000     -88.966513     -2420.9019
   1   2.0000     -88.965043     -2420.8619
   2   2.0000     -10.330678      -281.1120
   3   2.0000     -10.327159      -281.0163
   4   2.0000     -10.321171      -280.8533
   5   2.0000     -10.320275      -280.8290
   6   2.0000     -10.308116      -280.4981
   7   2.0000     -10.303426      -280.3705
   8   2.0000     -10.297772      -280.2166
   9   2.0000     -10.296116      -280.1716
  10   2.0000     -10.295313      -280.1497
  11   2.0000     -10.293896      -280.1111
  12   2.0000     -10.291468      -280.0451
  13   2.0000     -10.289809      -279.9999
  14   2.0000     -10.286142      -279.9002
  15   2.0000     -10.283998      -279.8418
  16   2.0000      -8.081391      -219.9058
  17   2.0000      -8.079356      -219.8505
  18   2.0000      -6.039815      -164.3517
  19   2.0000      -6.037809      -164.2971
  20   2.0000      -6.035611      -164.2373
  21   2.0000      -6.034165      -164.1980
  22   2.0000      -6.032497      -164.1526
  23   2.0000      -6.029953      -164.0834
  24   2.0000      -1.000877       -27.2352
  25   2.0000      -0.979018       -26.6404
  26   2.0000      -0.910810       -24.7844
  27   2.0000      -0.904081       -24.6013
  28   2.0000      -0.861568       -23.4445
  29   2.0000      -0.847647       -23.0656
  30   2.0000      -0.840794       -22.8792
  31   2.0000      -0.805221       -21.9112
  32   2.0000      -0.783102       -21.3093
  33   2.0000      -0.769897       -20.9500
  34   2.0000      -0.705573       -19.1996
  35   2.0000      -0.698802       -19.0154
  36   2.0000      -0.686754       -18.6875
  37   2.0000      -0.657395       -17.8886
  38   2.0000      -0.630951       -17.1691
  39   2.0000      -0.611964       -16.6524
  40   2.0000      -0.599160       -16.3040
  41   2.0000      -0.574649       -15.6370
  42   2.0000      -0.558778       -15.2051
  43   2.0000      -0.552078       -15.0228
  44   2.0000      -0.540226       -14.7003
  45   2.0000      -0.517565       -14.0837
  46   2.0000      -0.515516       -14.0279
  47   2.0000      -0.508762       -13.8441
  48   2.0000      -0.502645       -13.6777
  49   2.0000      -0.484542       -13.1851
  50   2.0000      -0.480123       -13.0648
  51   2.0000      -0.475233       -12.9317
  52   2.0000      -0.468677       -12.7534
  53   2.0000      -0.462458       -12.5841
  54   2.0000      -0.458902       -12.4874
  55   2.0000      -0.452146       -12.3035
  56   2.0000      -0.437589       -11.9074
  57   2.0000      -0.437056       -11.8929
  58   2.0000      -0.430101       -11.7036
  59   2.0000      -0.426361       -11.6019
  60   2.0000      -0.423606       -11.5269
  61   2.0000      -0.418382       -11.3848
  62   2.0000      -0.414465       -11.2782
  63   2.0000      -0.335555        -9.1309
  64   2.0000      -0.324875        -8.8403
  65   2.0000      -0.316729        -8.6186
  66   2.0000      -0.310263        -8.4427
  67   0.0000       0.045503         1.2382
  68   0.0000       0.048549         1.3211
  69   0.0000       0.104105         2.8328
  70   0.0000       0.117329         3.1927
  71   0.0000       0.130761         3.5582

MULLIKEN ATOMIC CHARGES
-----------------------
   0 S :    0.129935
   1 C :   -0.164136
   2 C :   -0.136480
   3 C :    0.054441
   4 C :   -0.202201
   5 H :    0.005908
   6 C :    0.086804
   7 H :    0.018706
   8 H :    0.048633
   9 C :   -0.094061
  10 H :    0.026241
  11 H :    0.028276
  12 C :   -0.037431
  13 H :    0.025285
  14 H :    0.066405
  15 H :    0.027303
  16 S :    0.106640
  17 C :   -0.084001
  18 C :   -0.015398
  19 C :   -0.021247
  20 C :   -0.179828
  21 H :    0.009274
  22 C :    0.054316
  23 H :    0.030774
  24 H :    0.043421
  25 C :   -0.091666
  26 H :    0.031423
  27 H :    0.035529
  28 C :   -0.078420
  29 H :    0.045112
  30 H :    0.046003
  31 H :    0.040924
  32 H :    0.078500
  33 H :    0.065014
Sum of atomic charges:   -0.0000000

LOEWDIN ATOMIC CHARGES
----------------------
   0 S :    0.435790
   1 C :   -0.227518
   2 C :   -0.061008
   3 C :   -0.068360
   4 C :   -0.220725
   5 H :    0.024130
   6 C :   -0.029362
   7 H :    0.027268
   8 H :    0.039130
   9 C :   -0.043698
  10 H :    0.022759
  11 H :    0.024063
  12 C :   -0.070070
  13 H :    0.026963
  14 H :    0.042876
  15 H :    0.023774
  16 S :    0.389624
  17 C :   -0.173690
  18 C :   -0.066116
  19 C :   -0.051088
  20 C :   -0.196496
  21 H :    0.026984
  22 C :   -0.036736
  23 H :    0.033505
  24 H :    0.034415
  25 C :   -0.045652
  26 H :    0.017737
  27 H :    0.029105
  28 C :   -0.073847
  29 H :    0.034085
  30 H :    0.034915
  31 H :    0.024605
  32 H :    0.044335
  33 H :    0.028302

  Mayer bond orders larger than 0.100000
B(  0-S ,  1-C ) :   1.1507 B(  0-S ,  4-C ) :   1.2003 B(  1-C ,  2-C ) :   1.5885
B(  1-C ,  4-C ) :   0.1079 B(  1-C , 32-H ) :   0.9531 B(  2-C ,  3-C ) :   1.2611
B(  2-C ,  6-C ) :   0.9980 B(  3-C ,  4-C ) :   1.5384 B(  3-C ,  5-H ) :   0.9920
B(  4-C , 20-C ) :   0.9870 B(  6-C ,  7-H ) :   0.9434 B(  6-C ,  8-H ) :   0.9434
B(  6-C ,  9-C ) :   1.0580 B(  9-C , 10-H ) :   0.9528 B(  9-C , 11-H ) :   0.9580
B(  9-C , 12-C ) :   1.0781 B( 12-C , 13-H ) :   0.9693 B( 12-C , 14-H ) :   0.9740
B( 12-C , 15-H ) :   0.9685 B( 16-S , 17-C ) :   1.1555 B( 16-S , 20-C ) :   1.1379
B( 17-C , 18-C ) :   1.6121 B( 17-C , 33-H ) :   0.9622 B( 18-C , 19-C ) :   1.2263
B( 18-C , 21-H ) :   0.9948 B( 19-C , 20-C ) :   1.6416 B( 19-C , 22-C ) :   1.0434
B( 22-C , 23-H ) :   0.9317 B( 22-C , 24-H ) :   0.9291 B( 22-C , 25-C ) :   1.0625
B( 25-C , 26-H ) :   0.9526 B( 25-C , 27-H ) :   0.9608 B( 25-C , 28-C ) :   1.0785
B( 28-C , 29-H ) :   0.9744 B( 28-C , 30-H ) :   0.9743 B( 28-C , 31-H ) :   0.9764

Dispersion correction           -0.014373035
FINAL SINGLE POINT ENERGY     -1339.866147928370

DIPOLE MOMENT
-------------
                                X             Y             Z
Electronic contribution:     22.13373     -16.06735       0.44777
Nuclear contribution   :    -22.54240      16.70544      -0.60920
                        -----------------------------------------
Total Dipole Moment    :     -0.40867       0.63808      -0.16143
                        -----------------------------------------
Magnitude (a.u.)       :      0.77474
Magnitude (Debye)      :      1.96923

Rotational constants in cm-1:     0.016185     0.009198     0.007153
Rotational constants in MHz :   485.221197   275.745544   214.435047

                             ****ORCA TERMINATED NORMALLY****
TOTAL RUN TIME: 0 days 0 hours 0 minutes 21 seconds 335 msec
