                         Program Version 4.2.1 -  RELEASE  -
|  1> ! wB97X-D3 SP def2-SVP
|  2> %pal
|  3> nprocs 24
|  4> end
|  5>
|  6> * xyz 0 1
|  7> S 	 -100.96 	 12.3589 	 -120.342
|  8> C 	 -99.831 	 13.3544 	 -119.437
|  9> C 	 -100.464 	 14.1182 	 -118.519
| 10> C 	 -101.901 	 14.1079 	 -118.664
| 11> C 	 -102.328 	 13.2501 	 -119.713
| 12> H 	 -102.658 	 14.6268 	 -118.069
| 13> C 	 -99.6998 	 14.939 	 -117.418
| 14> H 	 -98.8751 	 14.3339 	 -117.128
| 15> H 	 -100.224 	 15.2357 	 -116.459
| 16> C 	 -99.1014 	 16.2022 	 -117.936
| 17> H 	 -98.5722 	 15.8002 	 -118.824
| 18> H 	 -99.9173 	 16.9005 	 -118.132
| 19> C 	 -98.1133 	 16.7969 	 -116.985
| 20> H 	 -97.4459 	 16.1058 	 -116.437
| 21> H 	 -97.3661 	 17.3994 	 -117.553
| 22> H 	 -98.5857 	 17.5568 	 -116.278
| 23> S 	 -104.591 	 14.2138 	 -120.91
| 24> C 	 -106.124 	 13.3574 	 -120.791
| 25> C 	 -105.829 	 12.0469 	 -120.337
| 26> C 	 -104.502 	 11.8265 	 -119.894
| 27> C 	 -103.724 	 12.9994 	 -120.042
| 28> H 	 -106.665 	 11.3564 	 -120.295
| 29> C 	 -104.125 	 10.5712 	 -119.221
| 30> H 	 -103.092 	 10.5931 	 -119.106
| 31> H 	 -104.324 	 9.83605 	 -119.974
| 32> C 	 -104.784 	 10.4215 	 -117.877
| 33> H 	 -105.872 	 10.3053 	 -117.871
| 34> H 	 -104.698 	 11.3746 	 -117.424
| 35> C 	 -104.289 	 9.26345 	 -116.979
| 36> H 	 -103.225 	 9.24962 	 -116.855
| 37> H 	 -104.578 	 8.35207 	 -117.519
| 38> H 	 -104.773 	 9.1985 	 -116.02
| 39> H 	 -98.8095 	 13.0675 	 -119.455
| 40> H 	 -107.035 	 13.6297 	 -121.171
| 41> *
| 42>
| 43>                          ****END OF INPUT****

CARTESIAN COORDINATES (ANGSTROEM)
---------------------------------
  S    -100.960000   12.358900  -120.342000
  C    -99.831000   13.354400  -119.437000
  C    -100.464000   14.118200  -118.519000
  C    -101.901000   14.107900  -118.664000
  C    -102.328000   13.250100  -119.713000
  H    -102.658000   14.626800  -118.069000
  C    -99.699800   14.939000  -117.418000
  H    -98.875100   14.333900  -117.128000
  H    -100.224000   15.235700  -116.459000
  C    -99.101400   16.202200  -117.936000
  H    -98.572200   15.800200  -118.824000
  H    -99.917300   16.900500  -118.132000
  C    -98.113300   16.796900  -116.985000
  H    -97.445900   16.105800  -116.437000
  H    -97.366100   17.399400  -117.553000
  H    -98.585700   17.556800  -116.278000
  S    -104.591000   14.213800  -120.910000
  C    -106.124000   13.357400  -120.791000
  C    -105.829000   12.046900  -120.337000
  C    -104.502000   11.826500  -119.894000
  C    -103.724000   12.999400  -120.042000
  H    -106.665000   11.356400  -120.295000
  C    -104.125000   10.571200  -119.221000
  H    -103.092000   10.593100  -119.106000
  H    -104.324000    9.836050  -119.974000
  C    -104.784000   10.421500  -117.877000
  H    -105.872000   10.305300  -117.871000
  H    -104.698000   11.374600  -117.424000
  C    -104.289000    9.263450  -116.979000
  H    -103.225000    9.249620  -116.855000
  H    -104.578000    8.352070  -117.519000
  H    -104.773000    9.198500  -116.020000
  H    -98.809500   13.067500  -119.455000
  H    -107.035000   13.629700  -121.171000

 Total Charge           Charge          ....    0
 Multiplicity           Mult            ....    1
 Number of Electrons    NEL             ....  134
 Basis Dimension        Dim             ....  322

ORBITAL ENERGIES
----------------

  NO   OCC          E(Eh)            E(eV)
   0   2.0000     -88.967996     -2420.9423
   1   2.0000     -88.965809     -2420.8827
   2   2.0000     -10.332567      -281.1634
   3   2.0000     -10.325329      -280.9665
   4   2.0000     -10.313971      -280.6574
   5   2.0000     -10.313208      -280.6367
   6   2.0000     -10.307652      -280.4855
   7   2.0000     -10.301807      -280.3264
   8   2.0000     -10.299822      -280.2724
   9   2.0000     -10.293523      -280.1010
  10   2.0000     -10.292110      -280.0625
  11   2.0000     -10.284921      -279.8669
  12   2.0000     -10.281925      -279.7854
  13   2.0000     -10.279614      -279.7225
  14   2.0000     -10.278803      -279.7004
  15   2.0000     -10.273832      -279.5652
  16   2.0000      -8.082464      -219.9350
  17   2.0000      -8.080383      -219.8784
  18   2.0000      -6.040987      -164.3836
  19   2.0000      -6.038814      -164.3245
  20   2.0000      -6.037011      -164.2754
  21   2.0000      -6.034771      -164.2145
  22   2.0000      -6.033220      -164.1723
  23   2.0000      -6.031365      -164.1218
  24   2.0000      -1.005211       -27.3532
  25   2.0000      -0.984088       -26.7784
  26   2.0000      -0.919517       -25.0213
  27   2.0000      -0.916407       -24.9367
  28   2.0000      -0.870531       -23.6883
  29   2.0000      -0.850323       -23.1385
  30   2.0000      -0.844559       -22.9816
  31   2.0000      -0.812049       -22.0970
  32   2.0000      -0.783470       -21.3193
  33   2.0000      -0.772933       -21.0326
  34   2.0000      -0.709142       -19.2967
  35   2.0000      -0.702941       -19.1280
  36   2.0000      -0.688661       -18.7394
  37   2.0000      -0.662326       -18.0228
  38   2.0000      -0.647367       -17.6157
  39   2.0000      -0.614053       -16.7092
  40   2.0000      -0.596463       -16.2306
  41   2.0000      -0.583478       -15.8772
  42   2.0000      -0.566582       -15.4175
  43   2.0000      -0.564106       -15.3501
  44   2.0000      -0.533363       -14.5135
  45   2.0000      -0.519752       -14.1432
  46   2.0000      -0.515871       -14.0376
  47   2.0000      -0.510018       -13.8783
  48   2.0000      -0.509196       -13.8559
  49   2.0000      -0.505045       -13.7430
  50   2.0000      -0.490148       -13.3376
  51   2.0000      -0.478864       -13.0305
  52   2.0000      -0.472204       -12.8493
  53   2.0000      -0.469860       -12.7855
  54   2.0000      -0.459798       -12.5117
  55   2.0000      -0.451685       -12.2910
  56   2.0000      -0.439711       -11.9652
  57   2.0000      -0.434032       -11.8106
  58   2.0000      -0.431762       -11.7488
  59   2.0000      -0.423260       -11.5175
  60   2.0000      -0.422024       -11.4839
  61   2.0000      -0.413251       -11.2451
  62   2.0000      -0.407103       -11.0778
  63   2.0000      -0.334226        -9.0947
  64   2.0000      -0.333477        -9.0744
  65   2.0000      -0.327548        -8.9130
  66   2.0000      -0.299458        -8.1487
  67   0.0000       0.030903         0.8409
  68   0.0000       0.060288         1.6405
  69   0.0000       0.103714         2.8222
  70   0.0000       0.118477         3.2239
  71   0.0000       0.138406         3.7662

MULLIKEN ATOMIC CHARGES
-----------------------
   0 S :    0.115060
   1 C :   -0.124825
   2 C :   -0.045614
   3 C :    0.030993
   4 C :   -0.169608
   5 H :    0.024890
   6 C :    0.043377
   7 H :    0.006986
   8 H :    0.033513
   9 C :   -0.061704
  10 H :    0.026701
  11 H :    0.038403
  12 C :   -0.072617
  13 H :    0.031780
  14 H :    0.032936
  15 H :    0.044802
  16 S :    0.122102
  17 C :   -0.067149
  18 C :   -0.058551
  19 C :   -0.064841
  20 C :   -0.189580
  21 H :    0.018535
  22 C :    0.187834
  23 H :   -0.015539
  24 H :    0.022624
  25 C :   -0.083088
  26 H :    0.021567
  27 H :    0.019638
  28 C :   -0.025146
  29 H :    0.029191
  30 H :    0.022915
  31 H :    0.033086
  32 H :    0.046291
  33 H :    0.025039
Sum of atomic charges:    0.0000000

LOEWDIN ATOMIC CHARGES
----------------------
   0 S :    0.407945
   1 C :   -0.189247
   2 C :   -0.057681
   3 C :   -0.054571
   4 C :   -0.202133
   5 H :    0.035777
   6 C :   -0.031983
   7 H :    0.020152
   8 H :    0.033039
   9 C :   -0.048366
  10 H :    0.027346
  11 H :    0.029277
  12 C :   -0.079050
  13 H :    0.025932
  14 H :    0.031327
  15 H :    0.033675
  16 S :    0.426430
  17 C :   -0.178499
  18 C :   -0.064238
  19 C :   -0.055607
  20 C :   -0.215477
  21 H :    0.028575
  22 C :   -0.026319
  23 H :    0.017576
  24 H :    0.033257
  25 C :   -0.038212
  26 H :    0.024783
  27 H :    0.020970
  28 C :   -0.060500
  29 H :    0.019919
  30 H :    0.027155
  31 H :    0.025866
  32 H :    0.021517
  33 H :    0.011366

  Mayer bond orders larger than 0.100000
B(  0-S ,  1-C ) :   1.1394 B(  0-S ,  4-C ) :   1.1531 B(  1-C ,  2-C ) :   1.6169
B(  1-C , 32-H ) :   0.9696 B(  2-C ,  3-C ) :   1.2394 B(  2-C ,  6-C ) :   1.0055
B(  3-C ,  4-C ) :   1.5585 B(  3-C ,  5-H ) :   0.9940 B(  4-C , 20-C ) :   1.0372
B(  6-C ,  7-H ) :   0.9399 B(  6-C ,  8-H ) :   0.9511 B(  6-C ,  9-C ) :   1.0704
B(  9-C , 10-H ) :   0.9560 B(  9-C , 11-H ) :   0.9533 B(  9-C , 12-C ) :   1.0865
B( 12-C , 13-H ) :   0.9715 B( 12-C , 14-H ) :   0.9726 B( 12-C , 15-H ) :   0.9721
B( 16-S , 17-C ) :   1.1616 B( 16-S , 20-C ) :   1.1779 B( 17-C , 18-C ) :   1.5708
B( 17-C , 20-C ) :   0.1147 B( 17-C , 33-H ) :   0.9816 B( 18-C , 19-C ) :   1.2668
B( 18-C , 21-H ) :   0.9897 B( 19-C , 20-C ) :   1.5275 B( 19-C , 22-C ) :   1.0570
B( 22-C , 23-H ) :   0.9065 B( 22-C , 24-H ) :   0.9140 B( 22-C , 25-C ) :   1.0616
B( 25-C , 26-H ) :   0.9532 B( 25-C , 27-H ) :   0.9528 B( 25-C , 28-C ) :   1.0867
B( 28-C , 29-H ) :   0.9774 B( 28-C , 30-H ) :   0.9734 B( 28-C , 31-H ) :   0.9746

Dispersion correction           -0.013788151
FINAL SINGLE POINT ENERGY     -1339.863223811326

DIPOLE MOMENT
-------------
                                X             Y             Z
Electronic contribution:     -8.20875       1.32094     -20.02151
Nuclear contribution   :      8.26505      -1.46109      20.50718
                        -----------------------------------------
Total Dipole Moment    :      0.05630      -0.14016       0.48566
                        -----------------------------------------
Magnitude (a.u.)       :      0.50861
Magnitude (Debye)      :      1.29278

Rotational constants in cm-1:     0.020126     0.007311     0.006312
Rotational constants in MHz :   603.363856   219.183728   189.214325

                             ****ORCA TERMINATED NORMALLY****
TOTAL RUN TIME: 0 days 0 hours 0 minutes 21 seconds 7 msec
