                         Program Version 4.2.1 -  RELEASE  -
|  1> ! wB97X-D3 SP def2-SVP
|  2> %pal
|  3> nprocs 24
|  4> end
|  5>
|  6> * xyz 0 1
|  7> S 	 -56.8303 	 9.88693 	 22.7964
|  8> C 	 -56.3558 	 10.0657 	 21.1248
|  9> C 	 -56.7189 	 8.93539 	 20.3663
| 10> C 	 -57.3457 	 7.97831 	 21.2184
| 11> C 	 -57.5799 	 8.39255 	 22.5268
| 12> H 	 -57.6871 	 6.95209 	 20.9148
| 13> C 	 -56.4395 	 8.79739 	 18.8981
| 14> H 	 -56.5366 	 7.75285 	 18.5141
| 15> H 	 -55.3734 	 9.06413 	 18.6568
| 16> C 	 -57.3826 	 9.63139 	 17.9941
| 17> H 	 -58.4076 	 9.26252 	 18.009
| 18> H 	 -57.4506 	 10.6572 	 18.2337
| 19> C 	 -56.9099 	 9.76096 	 16.564
| 20> H 	 -57.0413 	 8.8601 	 16.0636
| 21> H 	 -57.4791 	 10.4934 	 16.049
| 22> H 	 -55.8344 	 9.98957 	 16.5199
| 23> S 	 -60.146 	 8.44641 	 23.669
| 24> C 	 -60.5651 	 7.06894 	 24.6195
| 25> C 	 -59.5923 	 6.15759 	 24.7908
| 26> C 	 -58.4001 	 6.47075 	 24.0778
| 27> C 	 -58.4891 	 7.735 	 23.4626
| 28> H 	 -59.7358 	 5.25317 	 25.3589
| 29> C 	 -57.2535 	 5.54746 	 23.9644
| 30> H 	 -57.1331 	 5.2055 	 24.9818
| 31> H 	 -56.2793 	 6.10947 	 23.6609
| 32> C 	 -57.4563 	 4.3762 	 22.9537
| 33> H 	 -56.473 	 3.90429 	 22.8912
| 34> H 	 -57.6935 	 4.7692 	 21.9855
| 35> C 	 -58.3797 	 3.22987 	 23.3636
| 36> H 	 -59.3311 	 3.61756 	 23.3835
| 37> H 	 -58.0604 	 2.82171 	 24.2584
| 38> H 	 -58.3535 	 2.39113 	 22.6863
| 39> H 	 -55.904 	 10.9082 	 20.6505
| 40> H 	 -61.4898 	 6.87456 	 25.1667
| 41> *
| 42>
| 43>                          ****END OF INPUT****

CARTESIAN COORDINATES (ANGSTROEM)
---------------------------------
  S    -56.830300    9.886930   22.796400
  C    -56.355800   10.065700   21.124800
  C    -56.718900    8.935390   20.366300
  C    -57.345700    7.978310   21.218400
  C    -57.579900    8.392550   22.526800
  H    -57.687100    6.952090   20.914800
  C    -56.439500    8.797390   18.898100
  H    -56.536600    7.752850   18.514100
  H    -55.373400    9.064130   18.656800
  C    -57.382600    9.631390   17.994100
  H    -58.407600    9.262520   18.009000
  H    -57.450600   10.657200   18.233700
  C    -56.909900    9.760960   16.564000
  H    -57.041300    8.860100   16.063600
  H    -57.479100   10.493400   16.049000
  H    -55.834400    9.989570   16.519900
  S    -60.146000    8.446410   23.669000
  C    -60.565100    7.068940   24.619500
  C    -59.592300    6.157590   24.790800
  C    -58.400100    6.470750   24.077800
  C    -58.489100    7.735000   23.462600
  H    -59.735800    5.253170   25.358900
  C    -57.253500    5.547460   23.964400
  H    -57.133100    5.205500   24.981800
  H    -56.279300    6.109470   23.660900
  C    -57.456300    4.376200   22.953700
  H    -56.473000    3.904290   22.891200
  H    -57.693500    4.769200   21.985500
  C    -58.379700    3.229870   23.363600
  H    -59.331100    3.617560   23.383500
  H    -58.060400    2.821710   24.258400
  H    -58.353500    2.391130   22.686300
  H    -55.904000   10.908200   20.650500
  H    -61.489800    6.874560   25.166700

 Total Charge           Charge          ....    0
 Multiplicity           Mult            ....    1
 Number of Electrons    NEL             ....  134
 Basis Dimension        Dim             ....  322

ORBITAL ENERGIES
----------------

  NO   OCC          E(Eh)            E(eV)
   0   2.0000     -88.968331     -2420.9514
   1   2.0000     -88.966071     -2420.8899
   2   2.0000     -10.327497      -281.0255
   3   2.0000     -10.321962      -280.8749
   4   2.0000     -10.312627      -280.6209
   5   2.0000     -10.311955      -280.6025
   6   2.0000     -10.302849      -280.3548
   7   2.0000     -10.300980      -280.3039
   8   2.0000     -10.300533      -280.2918
   9   2.0000     -10.295875      -280.1650
  10   2.0000     -10.295177      -280.1460
  11   2.0000     -10.286067      -279.8981
  12   2.0000     -10.285837      -279.8919
  13   2.0000     -10.279236      -279.7122
  14   2.0000     -10.267546      -279.3941
  15   2.0000     -10.265025      -279.3255
  16   2.0000      -8.083622      -219.9665
  17   2.0000      -8.080251      -219.8748
  18   2.0000      -6.041935      -164.4094
  19   2.0000      -6.038799      -164.3241
  20   2.0000      -6.037890      -164.2993
  21   2.0000      -6.034994      -164.2205
  22   2.0000      -6.034721      -164.2131
  23   2.0000      -6.030845      -164.1076
  24   2.0000      -1.006163       -27.3791
  25   2.0000      -0.984654       -26.7938
  26   2.0000      -0.913792       -24.8656
  27   2.0000      -0.910415       -24.7736
  28   2.0000      -0.869805       -23.6686
  29   2.0000      -0.854654       -23.2563
  30   2.0000      -0.849307       -23.1108
  31   2.0000      -0.813583       -22.1387
  32   2.0000      -0.786901       -21.4127
  33   2.0000      -0.771806       -21.0019
  34   2.0000      -0.711270       -19.3546
  35   2.0000      -0.700954       -19.0739
  36   2.0000      -0.690510       -18.7897
  37   2.0000      -0.656082       -17.8529
  38   2.0000      -0.641673       -17.4608
  39   2.0000      -0.612248       -16.6601
  40   2.0000      -0.594672       -16.1819
  41   2.0000      -0.576125       -15.6772
  42   2.0000      -0.562850       -15.3159
  43   2.0000      -0.554907       -15.0998
  44   2.0000      -0.541724       -14.7411
  45   2.0000      -0.528359       -14.3774
  46   2.0000      -0.520532       -14.1644
  47   2.0000      -0.513903       -13.9840
  48   2.0000      -0.502919       -13.6851
  49   2.0000      -0.501610       -13.6495
  50   2.0000      -0.492577       -13.4037
  51   2.0000      -0.478443       -13.0191
  52   2.0000      -0.471631       -12.8337
  53   2.0000      -0.462653       -12.5894
  54   2.0000      -0.458799       -12.4846
  55   2.0000      -0.450886       -12.2692
  56   2.0000      -0.439565       -11.9612
  57   2.0000      -0.438793       -11.9402
  58   2.0000      -0.436086       -11.8665
  59   2.0000      -0.431409       -11.7392
  60   2.0000      -0.422754       -11.5037
  61   2.0000      -0.415218       -11.2987
  62   2.0000      -0.413787       -11.2597
  63   2.0000      -0.338240        -9.2040
  64   2.0000      -0.328215        -8.9312
  65   2.0000      -0.324338        -8.8257
  66   2.0000      -0.299164        -8.1407
  67   0.0000       0.037306         1.0151
  68   0.0000       0.060119         1.6359
  69   0.0000       0.114461         3.1146
  70   0.0000       0.122008         3.3200
  71   0.0000       0.128409         3.4942

MULLIKEN ATOMIC CHARGES
-----------------------
   0 S :    0.137345
   1 C :   -0.113708
   2 C :   -0.064352
   3 C :    0.030694
   4 C :   -0.196246
   5 H :    0.018931
   6 C :    0.033921
   7 H :    0.028932
   8 H :    0.035592
   9 C :   -0.074047
  10 H :    0.030729
  11 H :    0.014667
  12 C :   -0.014610
  13 H :    0.008405
  14 H :    0.026756
  15 H :    0.024417
  16 S :    0.116985
  17 C :   -0.068728
  18 C :   -0.045419
  19 C :   -0.022283
  20 C :   -0.169268
  21 H :    0.013823
  22 C :    0.035889
  23 H :    0.021729
  24 H :    0.052323
  25 C :   -0.066086
  26 H :    0.026502
  27 H :    0.020612
  28 C :    0.011678
  29 H :    0.022050
  30 H :    0.007790
  31 H :    0.025777
  32 H :    0.037499
  33 H :    0.051699
Sum of atomic charges:   -0.0000000

LOEWDIN ATOMIC CHARGES
----------------------
   0 S :    0.445376
   1 C :   -0.198100
   2 C :   -0.064308
   3 C :   -0.064144
   4 C :   -0.232807
   5 H :    0.033880
   6 C :   -0.036549
   7 H :    0.035176
   8 H :    0.035674
   9 C :   -0.039075
  10 H :    0.026547
  11 H :    0.016779
  12 C :   -0.055482
  13 H :    0.012070
  14 H :    0.023617
  15 H :    0.025937
  16 S :    0.391116
  17 C :   -0.188214
  18 C :   -0.080202
  19 C :   -0.049194
  20 C :   -0.187689
  21 H :    0.030718
  22 C :   -0.037436
  23 H :    0.029526
  24 H :    0.046857
  25 C :   -0.029262
  26 H :    0.025827
  27 H :    0.017399
  28 C :   -0.051237
  29 H :    0.014005
  30 H :    0.015873
  31 H :    0.029145
  32 H :    0.023601
  33 H :    0.034576

  Mayer bond orders larger than 0.100000
B(  0-S ,  1-C ) :   1.1642 B(  0-S ,  4-C ) :   1.1774 B(  1-C ,  2-C ) :   1.5604
B(  1-C ,  4-C ) :   0.1014 B(  1-C , 32-H ) :   0.9715 B(  2-C ,  3-C ) :   1.2906
B(  2-C ,  6-C ) :   1.0263 B(  3-C ,  4-C ) :   1.5359 B(  3-C ,  5-H ) :   0.9847
B(  4-C , 20-C ) :   1.0224 B(  6-C ,  7-H ) :   0.9441 B(  6-C ,  8-H ) :   0.9438
B(  6-C ,  9-C ) :   1.0578 B(  9-C , 10-H ) :   0.9526 B(  9-C , 11-H ) :   0.9640
B(  9-C , 12-C ) :   1.0859 B( 12-C , 13-H ) :   0.9730 B( 12-C , 14-H ) :   0.9741
B( 12-C , 15-H ) :   0.9722 B( 16-S , 17-C ) :   1.1508 B( 16-S , 20-C ) :   1.1182
B( 17-C , 18-C ) :   1.6460 B( 17-C , 33-H ) :   0.9532 B( 18-C , 19-C ) :   1.2254
B( 18-C , 21-H ) :   0.9851 B( 19-C , 20-C ) :   1.6143 B( 19-C , 22-C ) :   1.0507
B( 22-C , 23-H ) :   0.9315 B( 22-C , 24-H ) :   0.9299 B( 22-C , 25-C ) :   1.0667
B( 25-C , 26-H ) :   0.9557 B( 25-C , 27-H ) :   0.9547 B( 25-C , 28-C ) :   1.0838
B( 28-C , 29-H ) :   0.9739 B( 28-C , 30-H ) :   0.9718 B( 28-C , 31-H ) :   0.9683

Dispersion correction           -0.014351323
FINAL SINGLE POINT ENERGY     -1339.872297418064

DIPOLE MOMENT
-------------
                                X             Y             Z
Electronic contribution:     -6.26104      14.86656      19.02654
Nuclear contribution   :      6.33799     -15.39333     -19.38949
                        -----------------------------------------
Total Dipole Moment    :      0.07696      -0.52677      -0.36295
                        -----------------------------------------
Magnitude (a.u.)       :      0.64431
Magnitude (Debye)      :      1.63771

Rotational constants in cm-1:     0.019991     0.007566     0.006585
Rotational constants in MHz :   599.313685   226.837031   197.426037

                             ****ORCA TERMINATED NORMALLY****
TOTAL RUN TIME: 0 days 0 hours 0 minutes 21 seconds 355 msec
