                         Program Version 4.2.1 -  RELEASE  -
|  1> ! wB97X-D3 SP def2-SVP
|  2> %pal
|  3> nprocs 24
|  4> end
|  5>
|  6> * xyz 0 1
|  7> S 	 -119.396 	 50.1226 	 -35.3783
|  8> C 	 -118.481 	 48.8704 	 -36.1844
|  9> C 	 -118.57 	 47.7071 	 -35.4163
| 10> C 	 -119.609 	 47.7785 	 -34.4519
| 11> C 	 -120.211 	 48.9942 	 -34.3276
| 12> H 	 -119.926 	 46.9206 	 -33.8242
| 13> C 	 -117.709 	 46.4594 	 -35.5748
| 14> H 	 -117.742 	 46.2294 	 -36.6308
| 15> H 	 -118.008 	 45.6937 	 -34.917
| 16> C 	 -116.247 	 46.6647 	 -34.9904
| 17> H 	 -116.344 	 47.0894 	 -33.9703
| 18> H 	 -115.853 	 45.6769 	 -34.8098
| 19> C 	 -115.282 	 47.54 	 -35.8555
| 20> H 	 -115.427 	 48.6183 	 -35.6838
| 21> H 	 -114.193 	 47.1587 	 -35.8339
| 22> H 	 -115.538 	 47.4106 	 -36.8903
| 23> S 	 -122.559 	 50.2775 	 -34.1242
| 24> C 	 -123.647 	 49.9339 	 -32.7882
| 25> C 	 -122.977 	 49.2722 	 -31.7692
| 26> C 	 -121.639 	 48.8925 	 -32.1614
| 27> C 	 -121.355 	 49.2779 	 -33.4528
| 28> H 	 -123.458 	 49.0807 	 -30.8252
| 29> C 	 -120.805 	 48.0188 	 -31.2387
| 30> H 	 -120.807 	 48.4989 	 -30.278
| 31> H 	 -119.734 	 47.9886 	 -31.5495
| 32> C 	 -121.278 	 46.5127 	 -31.0055
| 33> H 	 -120.432 	 46.1039 	 -30.3936
| 34> H 	 -121.358 	 46.034 	 -31.9909
| 35> C 	 -122.715 	 46.3986 	 -30.3552
| 36> H 	 -123.509 	 46.5422 	 -31.0453
| 37> H 	 -122.815 	 47.0841 	 -29.4629
| 38> H 	 -122.889 	 45.3139 	 -30.0565
| 39> H 	 -117.77 	 48.8855 	 -37.0021
| 40> H 	 -124.617 	 50.3198 	 -32.7549
| 41> *
| 42>
| 43>                          ****END OF INPUT****

CARTESIAN COORDINATES (ANGSTROEM)
---------------------------------
  S    -119.396000   50.122600  -35.378300
  C    -118.481000   48.870400  -36.184400
  C    -118.570000   47.707100  -35.416300
  C    -119.609000   47.778500  -34.451900
  C    -120.211000   48.994200  -34.327600
  H    -119.926000   46.920600  -33.824200
  C    -117.709000   46.459400  -35.574800
  H    -117.742000   46.229400  -36.630800
  H    -118.008000   45.693700  -34.917000
  C    -116.247000   46.664700  -34.990400
  H    -116.344000   47.089400  -33.970300
  H    -115.853000   45.676900  -34.809800
  C    -115.282000   47.540000  -35.855500
  H    -115.427000   48.618300  -35.683800
  H    -114.193000   47.158700  -35.833900
  H    -115.538000   47.410600  -36.890300
  S    -122.559000   50.277500  -34.124200
  C    -123.647000   49.933900  -32.788200
  C    -122.977000   49.272200  -31.769200
  C    -121.639000   48.892500  -32.161400
  C    -121.355000   49.277900  -33.452800
  H    -123.458000   49.080700  -30.825200
  C    -120.805000   48.018800  -31.238700
  H    -120.807000   48.498900  -30.278000
  H    -119.734000   47.988600  -31.549500
  C    -121.278000   46.512700  -31.005500
  H    -120.432000   46.103900  -30.393600
  H    -121.358000   46.034000  -31.990900
  C    -122.715000   46.398600  -30.355200
  H    -123.509000   46.542200  -31.045300
  H    -122.815000   47.084100  -29.462900
  H    -122.889000   45.313900  -30.056500
  H    -117.770000   48.885500  -37.002100
  H    -124.617000   50.319800  -32.754900

 Total Charge           Charge          ....    0
 Multiplicity           Mult            ....    1
 Number of Electrons    NEL             ....  134
 Basis Dimension        Dim             ....  322

ORBITAL ENERGIES
----------------

  NO   OCC          E(Eh)            E(eV)
   0   2.0000     -88.967538     -2420.9298
   1   2.0000     -88.963217     -2420.8122
   2   2.0000     -10.326694      -281.0036
   3   2.0000     -10.324388      -280.9409
   4   2.0000     -10.315085      -280.6877
   5   2.0000     -10.313466      -280.6437
   6   2.0000     -10.304191      -280.3913
   7   2.0000     -10.301815      -280.3266
   8   2.0000     -10.298451      -280.2351
   9   2.0000     -10.296933      -280.1938
  10   2.0000     -10.295128      -280.1447
  11   2.0000     -10.292266      -280.0668
  12   2.0000     -10.291559      -280.0475
  13   2.0000     -10.290019      -280.0056
  14   2.0000     -10.288939      -279.9763
  15   2.0000     -10.285108      -279.8720
  16   2.0000      -8.081921      -219.9203
  17   2.0000      -8.079063      -219.8425
  18   2.0000      -6.040535      -164.3713
  19   2.0000      -6.037472      -164.2880
  20   2.0000      -6.036534      -164.2625
  21   2.0000      -6.033449      -164.1785
  22   2.0000      -6.032518      -164.1532
  23   2.0000      -6.029816      -164.0796
  24   2.0000      -1.011349       -27.5202
  25   2.0000      -0.987597       -26.8739
  26   2.0000      -0.906016       -24.6540
  27   2.0000      -0.900352       -24.4998
  28   2.0000      -0.867608       -23.6088
  29   2.0000      -0.846615       -23.0376
  30   2.0000      -0.840134       -22.8612
  31   2.0000      -0.814468       -22.1628
  32   2.0000      -0.783079       -21.3087
  33   2.0000      -0.776132       -21.1196
  34   2.0000      -0.707267       -19.2457
  35   2.0000      -0.699565       -19.0361
  36   2.0000      -0.692447       -18.8424
  37   2.0000      -0.669071       -18.2063
  38   2.0000      -0.634290       -17.2599
  39   2.0000      -0.616877       -16.7861
  40   2.0000      -0.594852       -16.1867
  41   2.0000      -0.569837       -15.5061
  42   2.0000      -0.554589       -15.0911
  43   2.0000      -0.546095       -14.8600
  44   2.0000      -0.542264       -14.7557
  45   2.0000      -0.531733       -14.4692
  46   2.0000      -0.514327       -13.9956
  47   2.0000      -0.510750       -13.8982
  48   2.0000      -0.506930       -13.7943
  49   2.0000      -0.497380       -13.5344
  50   2.0000      -0.488154       -13.2833
  51   2.0000      -0.482086       -13.1182
  52   2.0000      -0.473606       -12.8875
  53   2.0000      -0.466813       -12.7026
  54   2.0000      -0.461281       -12.5521
  55   2.0000      -0.448179       -12.1956
  56   2.0000      -0.444078       -12.0840
  57   2.0000      -0.433008       -11.7827
  58   2.0000      -0.428982       -11.6732
  59   2.0000      -0.428134       -11.6501
  60   2.0000      -0.419984       -11.4283
  61   2.0000      -0.415351       -11.3023
  62   2.0000      -0.414579       -11.2813
  63   2.0000      -0.351488        -9.5645
  64   2.0000      -0.329227        -8.9587
  65   2.0000      -0.325194        -8.8490
  66   2.0000      -0.290331        -7.9003
  67   0.0000       0.028705         0.7811
  68   0.0000       0.074294         2.0216
  69   0.0000       0.108839         2.9617
  70   0.0000       0.123992         3.3740
  71   0.0000       0.128911         3.5078

MULLIKEN ATOMIC CHARGES
-----------------------
   0 S :    0.116903
   1 C :   -0.106496
   2 C :   -0.118605
   3 C :   -0.002609
   4 C :   -0.108932
   5 H :    0.012656
   6 C :    0.082629
   7 H :    0.041828
   8 H :    0.009921
   9 C :   -0.086890
  10 H :    0.034773
  11 H :    0.026766
  12 C :   -0.072678
  13 H :    0.053063
  14 H :    0.051647
  15 H :    0.013268
  16 S :    0.109134
  17 C :   -0.076813
  18 C :   -0.029609
  19 C :   -0.026181
  20 C :   -0.162374
  21 H :    0.018373
  22 C :    0.028631
  23 H :    0.023406
  24 H :    0.034863
  25 C :   -0.085254
  26 H :    0.051567
  27 H :    0.042688
  28 C :   -0.083804
  29 H :    0.042321
  30 H :    0.044004
  31 H :    0.041810
  32 H :    0.041574
  33 H :    0.038419
Sum of atomic charges:    0.0000000

LOEWDIN ATOMIC CHARGES
----------------------
   0 S :    0.407498
   1 C :   -0.207585
   2 C :   -0.061838
   3 C :   -0.075340
   4 C :   -0.195399
   5 H :    0.034037
   6 C :   -0.022813
   7 H :    0.031525
   8 H :    0.025566
   9 C :   -0.037163
  10 H :    0.028777
  11 H :    0.019432
  12 C :   -0.081348
  13 H :    0.030215
  14 H :    0.040320
  15 H :    0.015726
  16 S :    0.422863
  17 C :   -0.172212
  18 C :   -0.061286
  19 C :   -0.059383
  20 C :   -0.207231
  21 H :    0.030858
  22 C :   -0.039799
  23 H :    0.027390
  24 H :    0.032940
  25 C :   -0.037034
  26 H :    0.032408
  27 H :    0.023916
  28 C :   -0.075678
  29 H :    0.021577
  30 H :    0.027320
  31 H :    0.035179
  32 H :    0.030527
  33 H :    0.016031

  Mayer bond orders larger than 0.100000
B(  0-S ,  1-C ) :   1.1277 B(  0-S ,  4-C ) :   1.1488 B(  1-C ,  2-C ) :   1.5945
B(  1-C , 32-H ) :   0.9659 B(  2-C ,  3-C ) :   1.2651 B(  2-C ,  6-C ) :   1.0271
B(  3-C ,  4-C ) :   1.5674 B(  3-C ,  5-H ) :   0.9902 B(  4-C , 20-C ) :   1.0334
B(  6-C ,  7-H ) :   0.9459 B(  6-C ,  8-H ) :   0.9401 B(  6-C ,  9-C ) :   1.0652
B(  9-C , 10-H ) :   0.9560 B(  9-C , 11-H ) :   0.9654 B(  9-C , 12-C ) :   1.0613
B( 12-C , 13-H ) :   0.9739 B( 12-C , 14-H ) :   0.9736 B( 12-C , 15-H ) :   0.9767
B( 16-S , 17-C ) :   1.1553 B( 16-S , 20-C ) :   1.1530 B( 17-C , 18-C ) :   1.5979
B( 17-C , 33-H ) :   0.9788 B( 18-C , 19-C ) :   1.2279 B( 18-C , 21-H ) :   0.9898
B( 19-C , 20-C ) :   1.5949 B( 19-C , 22-C ) :   1.0505 B( 22-C , 23-H ) :   0.9323
B( 22-C , 24-H ) :   0.9361 B( 22-C , 25-C ) :   1.0597 B( 25-C , 26-H ) :   0.9587
B( 25-C , 27-H ) :   0.9527 B( 25-C , 28-C ) :   1.0736 B( 28-C , 29-H ) :   0.9697
B( 28-C , 30-H ) :   0.9753 B( 28-C , 31-H ) :   0.9699

Dispersion correction           -0.014847969
FINAL SINGLE POINT ENERGY     -1339.870244668254

DIPOLE MOMENT
-------------
                                X             Y             Z
Electronic contribution:    -12.91094      20.84542      -9.94403
Nuclear contribution   :     13.03134     -21.48778      10.34860
                        -----------------------------------------
Total Dipole Moment    :      0.12040      -0.64236       0.40458
                        -----------------------------------------
Magnitude (a.u.)       :      0.76864
Magnitude (Debye)      :      1.95373

Rotational constants in cm-1:     0.021276     0.008400     0.006369
Rotational constants in MHz :   637.831512   251.836325   190.946671

                             ****ORCA TERMINATED NORMALLY****
TOTAL RUN TIME: 0 days 0 hours 0 minutes 21 seconds 896 msec
