                         Program Version 4.2.1 -  RELEASE  -
|  1> ! wB97X-D3 SP def2-SVP
|  2> %pal
|  3> nprocs 24
|  4> end
|  5>
|  6> * xyz 0 1
|  7> S 	 -46.434 	 20.3357 	 35.1385
|  8> C 	 -44.7918 	 19.7048 	 34.7492
|  9> C 	 -44.5546 	 20.0026 	 33.4539
| 10> C 	 -45.6137 	 20.8429 	 32.8465
| 11> C 	 -46.8319 	 20.799 	 33.4887
| 12> H 	 -45.5678 	 21.5454 	 31.992
| 13> C 	 -43.1017 	 20.0568 	 32.8259
| 14> H 	 -42.6033 	 20.6615 	 33.5549
| 15> H 	 -43.0504 	 20.5618 	 31.8787
| 16> C 	 -42.3844 	 18.6484 	 32.6364
| 17> H 	 -41.2906 	 18.8319 	 32.5855
| 18> H 	 -42.6256 	 18.1041 	 33.5355
| 19> C 	 -42.8676 	 17.9417 	 31.3873
| 20> H 	 -42.6062 	 18.649 	 30.5937
| 21> H 	 -42.3841 	 17.0169 	 31.2726
| 22> H 	 -43.9582 	 17.8964 	 31.3755
| 23> S 	 -48.8677 	 22.5339 	 34.2092
| 24> C 	 -50.2312 	 22.6512 	 33.1063
| 25> C 	 -49.8669 	 22.3034 	 31.8464
| 26> C 	 -48.6292 	 21.5515 	 31.7959
| 27> C 	 -48.0504 	 21.4719 	 33.0582
| 28> H 	 -50.4803 	 22.3475 	 30.9674
| 29> C 	 -48.0171 	 20.9467 	 30.5531
| 30> H 	 -48.6403 	 20.1399 	 30.1415
| 31> H 	 -47.0131 	 20.5105 	 30.7602
| 32> C 	 -47.8847 	 21.897 	 29.3586
| 33> H 	 -47.2934 	 22.7561 	 29.697
| 34> H 	 -48.8789 	 22.3125 	 29.1425
| 35> C 	 -47.181 	 21.2512 	 28.1905
| 36> H 	 -46.3505 	 20.6591 	 28.5842
| 37> H 	 -46.771 	 21.9702 	 27.4101
| 38> H 	 -47.8805 	 20.6085 	 27.6693
| 39> H 	 -44.1989 	 19.2783 	 35.5475
| 40> H 	 -51.1898 	 23.1298 	 33.2784
| 41> *
| 42>
| 43>                          ****END OF INPUT****

CARTESIAN COORDINATES (ANGSTROEM)
---------------------------------
  S    -46.434000   20.335700   35.138500
  C    -44.791800   19.704800   34.749200
  C    -44.554600   20.002600   33.453900
  C    -45.613700   20.842900   32.846500
  C    -46.831900   20.799000   33.488700
  H    -45.567800   21.545400   31.992000
  C    -43.101700   20.056800   32.825900
  H    -42.603300   20.661500   33.554900
  H    -43.050400   20.561800   31.878700
  C    -42.384400   18.648400   32.636400
  H    -41.290600   18.831900   32.585500
  H    -42.625600   18.104100   33.535500
  C    -42.867600   17.941700   31.387300
  H    -42.606200   18.649000   30.593700
  H    -42.384100   17.016900   31.272600
  H    -43.958200   17.896400   31.375500
  S    -48.867700   22.533900   34.209200
  C    -50.231200   22.651200   33.106300
  C    -49.866900   22.303400   31.846400
  C    -48.629200   21.551500   31.795900
  C    -48.050400   21.471900   33.058200
  H    -50.480300   22.347500   30.967400
  C    -48.017100   20.946700   30.553100
  H    -48.640300   20.139900   30.141500
  H    -47.013100   20.510500   30.760200
  C    -47.884700   21.897000   29.358600
  H    -47.293400   22.756100   29.697000
  H    -48.878900   22.312500   29.142500
  C    -47.181000   21.251200   28.190500
  H    -46.350500   20.659100   28.584200
  H    -46.771000   21.970200   27.410100
  H    -47.880500   20.608500   27.669300
  H    -44.198900   19.278300   35.547500
  H    -51.189800   23.129800   33.278400

 Total Charge           Charge          ....    0
 Multiplicity           Mult            ....    1
 Number of Electrons    NEL             ....  134
 Basis Dimension        Dim             ....  322

ORBITAL ENERGIES
----------------

  NO   OCC          E(Eh)            E(eV)
   0   2.0000     -88.966227     -2420.8941
   1   2.0000     -88.958785     -2420.6916
   2   2.0000     -10.330664      -281.1117
   3   2.0000     -10.329721      -281.0860
   4   2.0000     -10.322617      -280.8927
   5   2.0000     -10.319443      -280.8063
   6   2.0000     -10.311597      -280.5928
   7   2.0000     -10.307473      -280.4806
   8   2.0000     -10.300723      -280.2969
   9   2.0000     -10.295147      -280.1452
  10   2.0000     -10.294622      -280.1309
  11   2.0000     -10.293225      -280.0929
  12   2.0000     -10.288475      -279.9636
  13   2.0000     -10.287423      -279.9350
  14   2.0000     -10.284405      -279.8529
  15   2.0000     -10.273173      -279.5473
  16   2.0000      -8.080831      -219.8906
  17   2.0000      -8.073172      -219.6822
  18   2.0000      -6.039476      -164.3425
  19   2.0000      -6.035656      -164.2386
  20   2.0000      -6.031958      -164.1379
  21   2.0000      -6.031146      -164.1158
  22   2.0000      -6.027880      -164.0269
  23   2.0000      -6.023448      -163.9064
  24   2.0000      -1.006477       -27.3876
  25   2.0000      -0.983366       -26.7588
  26   2.0000      -0.914706       -24.8904
  27   2.0000      -0.906038       -24.6546
  28   2.0000      -0.874977       -23.8093
  29   2.0000      -0.852444       -23.1962
  30   2.0000      -0.836363       -22.7586
  31   2.0000      -0.817536       -22.2463
  32   2.0000      -0.779791       -21.2192
  33   2.0000      -0.772398       -21.0180
  34   2.0000      -0.704583       -19.1727
  35   2.0000      -0.700180       -19.0529
  36   2.0000      -0.694002       -18.8848
  37   2.0000      -0.660333       -17.9686
  38   2.0000      -0.645832       -17.5740
  39   2.0000      -0.608723       -16.5642
  40   2.0000      -0.596774       -16.2390
  41   2.0000      -0.575276       -15.6541
  42   2.0000      -0.572166       -15.5694
  43   2.0000      -0.557938       -15.1823
  44   2.0000      -0.538345       -14.6491
  45   2.0000      -0.526137       -14.3169
  46   2.0000      -0.520671       -14.1682
  47   2.0000      -0.514814       -14.0088
  48   2.0000      -0.506378       -13.7792
  49   2.0000      -0.502695       -13.6790
  50   2.0000      -0.486787       -13.2461
  51   2.0000      -0.479235       -13.0407
  52   2.0000      -0.474139       -12.9020
  53   2.0000      -0.465449       -12.6655
  54   2.0000      -0.461636       -12.5617
  55   2.0000      -0.456897       -12.4328
  56   2.0000      -0.440441       -11.9850
  57   2.0000      -0.433854       -11.8058
  58   2.0000      -0.430700       -11.7199
  59   2.0000      -0.426075       -11.5941
  60   2.0000      -0.418041       -11.3755
  61   2.0000      -0.417663       -11.3652
  62   2.0000      -0.404860       -11.0168
  63   2.0000      -0.353695        -9.6245
  64   2.0000      -0.330420        -8.9912
  65   2.0000      -0.318601        -8.6696
  66   2.0000      -0.292147        -7.9497
  67   0.0000       0.015629         0.4253
  68   0.0000       0.074759         2.0343
  69   0.0000       0.091410         2.4874
  70   0.0000       0.117965         3.2100
  71   0.0000       0.125426         3.4130

MULLIKEN ATOMIC CHARGES
-----------------------
   0 S :    0.066621
   1 C :   -0.125812
   2 C :   -0.051166
   3 C :   -0.021761
   4 C :   -0.127248
   5 H :    0.045632
   6 C :    0.020613
   7 H :    0.039307
   8 H :    0.016368
   9 C :   -0.083556
  10 H :    0.036378
  11 H :    0.020678
  12 C :   -0.013980
  13 H :    0.017650
  14 H :    0.036260
  15 H :    0.036858
  16 S :    0.104407
  17 C :   -0.075656
  18 C :   -0.016121
  19 C :   -0.034049
  20 C :   -0.148067
  21 H :    0.016408
  22 C :    0.036846
  23 H :    0.029392
  24 H :    0.022632
  25 C :   -0.097168
  26 H :    0.024748
  27 H :    0.027190
  28 C :   -0.039683
  29 H :    0.030352
  30 H :    0.048062
  31 H :    0.030136
  32 H :    0.069424
  33 H :    0.058308
Sum of atomic charges:   -0.0000000

LOEWDIN ATOMIC CHARGES
----------------------
   0 S :    0.366286
   1 C :   -0.168215
   2 C :   -0.069098
   3 C :   -0.067175
   4 C :   -0.190797
   5 H :    0.036022
   6 C :   -0.023177
   7 H :    0.029656
   8 H :    0.020600
   9 C :   -0.038648
  10 H :    0.026174
  11 H :    0.015768
  12 C :   -0.058116
  13 H :    0.025623
  14 H :    0.020636
  15 H :    0.028771
  16 S :    0.387959
  17 C :   -0.173336
  18 C :   -0.066289
  19 C :   -0.048815
  20 C :   -0.188029
  21 H :    0.027874
  22 C :   -0.037688
  23 H :    0.031625
  24 H :    0.029143
  25 C :   -0.045413
  26 H :    0.021075
  27 H :    0.020437
  28 C :   -0.066446
  29 H :    0.026807
  30 H :    0.036125
  31 H :    0.023911
  32 H :    0.033455
  33 H :    0.033296

  Mayer bond orders larger than 0.100000
B(  0-S ,  1-C ) :   1.1187 B(  0-S ,  4-C ) :   1.1287 B(  1-C ,  2-C ) :   1.6265
B(  1-C , 32-H ) :   0.9771 B(  2-C ,  3-C ) :   1.1940 B(  2-C ,  6-C ) :   1.0032
B(  3-C ,  4-C ) :   1.5892 B(  3-C ,  5-H ) :   0.9755 B(  4-C , 20-C ) :   1.0749
B(  6-C ,  7-H ) :   0.9511 B(  6-C ,  8-H ) :   0.9563 B(  6-C ,  9-C ) :   1.0605
B(  9-C , 10-H ) :   0.9575 B(  9-C , 11-H ) :   0.9594 B(  9-C , 12-C ) :   1.0750
B( 12-C , 13-H ) :   0.9735 B( 12-C , 14-H ) :   0.9736 B( 12-C , 15-H ) :   0.9767
B( 16-S , 17-C ) :   1.1314 B( 16-S , 20-C ) :   1.1222 B( 17-C , 18-C ) :   1.6378
B( 17-C , 33-H ) :   0.9666 B( 18-C , 19-C ) :   1.2209 B( 18-C , 21-H ) :   0.9851
B( 19-C , 20-C ) :   1.6186 B( 19-C , 22-C ) :   1.0503 B( 22-C , 23-H ) :   0.9267
B( 22-C , 24-H ) :   0.9336 B( 22-C , 25-C ) :   1.0552 B( 25-C , 26-H ) :   0.9553
B( 25-C , 27-H ) :   0.9517 B( 25-C , 28-C ) :   1.0837 B( 28-C , 29-H ) :   0.9713
B( 28-C , 30-H ) :   0.9740 B( 28-C , 31-H ) :   0.9734

Dispersion correction           -0.013708372
FINAL SINGLE POINT ENERGY     -1339.851529291035

DIPOLE MOMENT
-------------
                                X             Y             Z
Electronic contribution:    -16.24504       8.43765      26.01428
Nuclear contribution   :     16.59869      -8.31850     -26.66243
                        -----------------------------------------
Total Dipole Moment    :      0.35365       0.11915      -0.64815
                        -----------------------------------------
Magnitude (a.u.)       :      0.74791
Magnitude (Debye)      :      1.90103

Rotational constants in cm-1:     0.017202     0.009262     0.006279
Rotational constants in MHz :   515.706574   277.680420   188.234517

                             ****ORCA TERMINATED NORMALLY****
TOTAL RUN TIME: 0 days 0 hours 0 minutes 21 seconds 497 msec
