                         Program Version 4.2.1 -  RELEASE  -
|  1> ! wB97X-D3 SP def2-SVP
|  2> %pal
|  3> nprocs 24
|  4> end
|  5>
|  6> * xyz 0 1
|  7> S 	 -108.941 	 14.9789 	 -122.033
|  8> C 	 -108.437 	 13.3753 	 -121.568
|  9> C 	 -109.149 	 12.4042 	 -122.272
| 10> C 	 -109.86 	 12.9231 	 -123.341
| 11> C 	 -109.767 	 14.3124 	 -123.426
| 12> H 	 -110.576 	 12.4863 	 -124.078
| 13> C 	 -109.073 	 10.8732 	 -121.985
| 14> H 	 -110.049 	 10.45 	 -122.173
| 15> H 	 -108.823 	 10.6046 	 -121.021
| 16> C 	 -108.073 	 10.0769 	 -122.906
| 17> H 	 -107.342 	 10.8627 	 -123.161
| 18> H 	 -107.659 	 9.11843 	 -122.495
| 19> C 	 -108.687 	 9.68182 	 -124.234
| 20> H 	 -109.396 	 8.80124 	 -124.201
| 21> H 	 -109.355 	 10.5647 	 -124.624
| 22> H 	 -107.982 	 9.4318 	 -125.055
| 23> S 	 -110.904 	 16.8323 	 -124.161
| 24> C 	 -110.993 	 17.1946 	 -125.814
| 25> C 	 -110.785 	 16.1212 	 -126.637
| 26> C 	 -110.474 	 14.9216 	 -125.898
| 27> C 	 -110.323 	 15.1343 	 -124.486
| 28> H 	 -110.811 	 16.2743 	 -127.715
| 29> C 	 -109.862 	 13.7407 	 -126.636
| 30> H 	 -110.195 	 13.86 	 -127.674
| 31> H 	 -110.158 	 12.7347 	 -126.148
| 32> C 	 -108.313 	 13.7142 	 -126.608
| 33> H 	 -108.042 	 13.7881 	 -125.546
| 34> H 	 -107.872 	 14.5432 	 -127.149
| 35> C 	 -107.808 	 12.4431 	 -127.179
| 36> H 	 -108.298 	 11.5819 	 -126.689
| 37> H 	 -106.752 	 12.3692 	 -127.06
| 38> H 	 -107.989 	 12.2437 	 -128.231
| 39> H 	 -107.842 	 13.1033 	 -120.671
| 40> H 	 -111.132 	 18.1701 	 -126.183
| 41> *
| 42>
| 43>                          ****END OF INPUT****

CARTESIAN COORDINATES (ANGSTROEM)
---------------------------------
  S    -108.941000   14.978900  -122.033000
  C    -108.437000   13.375300  -121.568000
  C    -109.149000   12.404200  -122.272000
  C    -109.860000   12.923100  -123.341000
  C    -109.767000   14.312400  -123.426000
  H    -110.576000   12.486300  -124.078000
  C    -109.073000   10.873200  -121.985000
  H    -110.049000   10.450000  -122.173000
  H    -108.823000   10.604600  -121.021000
  C    -108.073000   10.076900  -122.906000
  H    -107.342000   10.862700  -123.161000
  H    -107.659000    9.118430  -122.495000
  C    -108.687000    9.681820  -124.234000
  H    -109.396000    8.801240  -124.201000
  H    -109.355000   10.564700  -124.624000
  H    -107.982000    9.431800  -125.055000
  S    -110.904000   16.832300  -124.161000
  C    -110.993000   17.194600  -125.814000
  C    -110.785000   16.121200  -126.637000
  C    -110.474000   14.921600  -125.898000
  C    -110.323000   15.134300  -124.486000
  H    -110.811000   16.274300  -127.715000
  C    -109.862000   13.740700  -126.636000
  H    -110.195000   13.860000  -127.674000
  H    -110.158000   12.734700  -126.148000
  C    -108.313000   13.714200  -126.608000
  H    -108.042000   13.788100  -125.546000
  H    -107.872000   14.543200  -127.149000
  C    -107.808000   12.443100  -127.179000
  H    -108.298000   11.581900  -126.689000
  H    -106.752000   12.369200  -127.060000
  H    -107.989000   12.243700  -128.231000
  H    -107.842000   13.103300  -120.671000
  H    -111.132000   18.170100  -126.183000

 Total Charge           Charge          ....    0
 Multiplicity           Mult            ....    1
 Number of Electrons    NEL             ....  134
 Basis Dimension        Dim             ....  322

ORBITAL ENERGIES
----------------

  NO   OCC          E(Eh)            E(eV)
   0   2.0000     -88.974503     -2421.1193
   1   2.0000     -88.965678     -2420.8792
   2   2.0000     -10.336766      -281.2777
   3   2.0000     -10.334758      -281.2231
   4   2.0000     -10.320629      -280.8386
   5   2.0000     -10.311434      -280.5884
   6   2.0000     -10.310873      -280.5731
   7   2.0000     -10.307959      -280.4938
   8   2.0000     -10.298268      -280.2301
   9   2.0000     -10.297254      -280.2025
  10   2.0000     -10.295587      -280.1572
  11   2.0000     -10.292709      -280.0789
  12   2.0000     -10.292050      -280.0609
  13   2.0000     -10.288865      -279.9742
  14   2.0000     -10.279142      -279.7097
  15   2.0000     -10.268414      -279.4177
  16   2.0000      -8.088959      -220.1118
  17   2.0000      -8.080471      -219.8808
  18   2.0000      -6.047368      -164.5573
  19   2.0000      -6.043598      -164.4547
  20   2.0000      -6.039736      -164.3496
  21   2.0000      -6.038958      -164.3284
  22   2.0000      -6.034938      -164.2190
  23   2.0000      -6.031302      -164.1201
  24   2.0000      -1.008671       -27.4473
  25   2.0000      -0.985738       -26.8233
  26   2.0000      -0.911374       -24.7997
  27   2.0000      -0.909405       -24.7462
  28   2.0000      -0.869899       -23.6712
  29   2.0000      -0.855651       -23.2834
  30   2.0000      -0.848122       -23.0786
  31   2.0000      -0.813179       -22.1277
  32   2.0000      -0.782494       -21.2927
  33   2.0000      -0.767649       -20.8888
  34   2.0000      -0.708204       -19.2712
  35   2.0000      -0.691454       -18.8154
  36   2.0000      -0.688801       -18.7432
  37   2.0000      -0.661635       -18.0040
  38   2.0000      -0.641973       -17.4690
  39   2.0000      -0.621600       -16.9146
  40   2.0000      -0.595818       -16.2130
  41   2.0000      -0.574561       -15.6346
  42   2.0000      -0.568826       -15.4785
  43   2.0000      -0.548482       -14.9250
  44   2.0000      -0.540815       -14.7163
  45   2.0000      -0.519841       -14.1456
  46   2.0000      -0.514871       -14.0103
  47   2.0000      -0.507346       -13.8056
  48   2.0000      -0.505425       -13.7533
  49   2.0000      -0.503255       -13.6943
  50   2.0000      -0.495253       -13.4765
  51   2.0000      -0.479690       -13.0530
  52   2.0000      -0.472446       -12.8559
  53   2.0000      -0.465560       -12.6685
  54   2.0000      -0.458108       -12.4658
  55   2.0000      -0.451925       -12.2975
  56   2.0000      -0.442177       -12.0322
  57   2.0000      -0.432691       -11.7741
  58   2.0000      -0.430814       -11.7231
  59   2.0000      -0.424258       -11.5446
  60   2.0000      -0.416833       -11.3426
  61   2.0000      -0.413467       -11.2510
  62   2.0000      -0.409584       -11.1453
  63   2.0000      -0.356698        -9.7063
  64   2.0000      -0.340948        -9.2777
  65   2.0000      -0.330570        -8.9953
  66   2.0000      -0.279589        -7.6080
  67   0.0000       0.010561         0.2874
  68   0.0000       0.071734         1.9520
  69   0.0000       0.102676         2.7939
  70   0.0000       0.119454         3.2505
  71   0.0000       0.126776         3.4498

MULLIKEN ATOMIC CHARGES
-----------------------
   0 S :    0.131301
   1 C :   -0.124703
   2 C :   -0.079889
   3 C :   -0.025011
   4 C :   -0.144929
   5 H :    0.049013
   6 C :    0.109758
   7 H :    0.021160
   8 H :    0.000697
   9 C :   -0.067979
  10 H :    0.042033
  11 H :    0.048282
  12 C :   -0.128237
  13 H :    0.036109
  14 H :    0.027157
  15 H :    0.049702
  16 S :    0.096243
  17 C :   -0.066891
  18 C :   -0.049824
  19 C :    0.001414
  20 C :   -0.161446
  21 H :    0.027619
  22 C :   -0.009855
  23 H :    0.027035
  24 H :    0.028610
  25 C :   -0.044583
  26 H :    0.041549
  27 H :    0.024482
  28 C :   -0.020433
  29 H :    0.010904
  30 H :    0.026712
  31 H :    0.019854
  32 H :    0.062471
  33 H :    0.041677
Sum of atomic charges:    0.0000000

LOEWDIN ATOMIC CHARGES
----------------------
   0 S :    0.420119
   1 C :   -0.205967
   2 C :   -0.061474
   3 C :   -0.074383
   4 C :   -0.191998
   5 H :    0.043776
   6 C :   -0.017923
   7 H :    0.028944
   8 H :    0.017591
   9 C :   -0.046527
  10 H :    0.031018
  11 H :    0.031956
  12 C :   -0.085994
  13 H :    0.024408
  14 H :    0.026304
  15 H :    0.026960
  16 S :    0.392437
  17 C :   -0.187776
  18 C :   -0.077252
  19 C :   -0.053886
  20 C :   -0.181254
  21 H :    0.036231
  22 C :   -0.036801
  23 H :    0.029067
  24 H :    0.031664
  25 C :   -0.037077
  26 H :    0.030531
  27 H :    0.023097
  28 C :   -0.066475
  29 H :    0.024537
  30 H :    0.023485
  31 H :    0.022774
  32 H :    0.037973
  33 H :    0.021914

  Mayer bond orders larger than 0.100000
B(  0-S ,  1-C ) :   1.1474 B(  0-S ,  4-C ) :   1.1570 B(  1-C ,  2-C ) :   1.5797
B(  1-C ,  4-C ) :   0.1085 B(  1-C , 32-H ) :   0.9620 B(  2-C ,  3-C ) :   1.2599
B(  2-C ,  6-C ) :   1.0337 B(  3-C ,  4-C ) :   1.5251 B(  3-C ,  5-H ) :   0.9814
B(  4-C , 20-C ) :   1.1152 B(  6-C ,  7-H ) :   0.9483 B(  6-C ,  8-H ) :   0.9405
B(  6-C ,  9-C ) :   1.0393 B(  9-C , 10-H ) :   0.9555 B(  9-C , 11-H ) :   0.9583
B(  9-C , 12-C ) :   1.0754 B( 12-C , 13-H ) :   0.9698 B( 12-C , 14-H ) :   0.9658
B( 12-C , 15-H ) :   0.9707 B( 16-S , 17-C ) :   1.1685 B( 16-S , 20-C ) :   1.1199
B( 17-C , 18-C ) :   1.6130 B( 17-C , 33-H ) :   0.9680 B( 18-C , 19-C ) :   1.2399
B( 18-C , 21-H ) :   0.9901 B( 19-C , 20-C ) :   1.5409 B( 19-C , 22-C ) :   1.0622
B( 22-C , 23-H ) :   0.9358 B( 22-C , 24-H ) :   0.9347 B( 22-C , 25-C ) :   1.0613
B( 25-C , 26-H ) :   0.9500 B( 25-C , 27-H ) :   0.9503 B( 25-C , 28-C ) :   1.0959
B( 28-C , 29-H ) :   0.9655 B( 28-C , 30-H ) :   0.9692 B( 28-C , 31-H ) :   0.9694

Dispersion correction           -0.016091189
FINAL SINGLE POINT ENERGY     -1339.863856681289

DIPOLE MOMENT
-------------
                                X             Y             Z
Electronic contribution:     -9.83908      27.57155      13.57719
Nuclear contribution   :     10.05539     -27.98348     -13.85930
                        -----------------------------------------
Total Dipole Moment    :      0.21631      -0.41193      -0.28211
                        -----------------------------------------
Magnitude (a.u.)       :      0.54412
Magnitude (Debye)      :      1.38303

Rotational constants in cm-1:     0.019208     0.010300     0.007374
Rotational constants in MHz :   575.850817   308.796667   221.059026

                             ****ORCA TERMINATED NORMALLY****
TOTAL RUN TIME: 0 days 0 hours 0 minutes 23 seconds 593 msec
