                         Program Version 4.2.1 -  RELEASE  -
|  1> ! wB97X-D3 SP def2-SVP
|  2> %pal
|  3> nprocs 24
|  4> end
|  5>
|  6> * xyz 0 1
|  7> S 	 -114.214 	 57.2674 	 -36.7225
|  8> C 	 -114.321 	 55.8785 	 -37.7622
|  9> C 	 -115.154 	 56.1513 	 -38.8073
| 10> C 	 -115.615 	 57.4975 	 -38.8262
| 11> C 	 -115.259 	 58.3292 	 -37.7472
| 12> H 	 -116.182 	 57.9545 	 -39.5756
| 13> C 	 -115.457 	 55.2237 	 -39.9912
| 14> H 	 -116.512 	 55.3578 	 -40.2621
| 15> H 	 -115.518 	 54.2578 	 -39.5479
| 16> C 	 -114.607 	 55.3848 	 -41.2454
| 17> H 	 -114.836 	 54.6813 	 -42.0317
| 18> H 	 -114.563 	 56.3875 	 -41.6961
| 19> C 	 -113.167 	 54.9675 	 -40.9915
| 20> H 	 -112.594 	 55.1292 	 -41.8728
| 21> H 	 -112.714 	 55.468 	 -40.1478
| 22> H 	 -113.105 	 53.9548 	 -40.5515
| 23> S 	 -116.536 	 59.9393 	 -35.8766
| 24> C 	 -116.817 	 61.6393 	 -36.2961
| 25> C 	 -116.275 	 61.9795 	 -37.5382
| 26> C 	 -115.724 	 60.8519 	 -38.1038
| 27> C 	 -115.72 	 59.6578 	 -37.3757
| 28> H 	 -116.314 	 62.9698 	 -37.8316
| 29> C 	 -115.306 	 60.8916 	 -39.5522
| 30> H 	 -114.732 	 60.0009 	 -39.7098
| 31> H 	 -114.595 	 61.6867 	 -39.6632
| 32> C 	 -116.462 	 61.0859 	 -40.6014
| 33> H 	 -116.677 	 62.0756 	 -40.5546
| 34> H 	 -117.34 	 60.5283 	 -40.2366
| 35> C 	 -115.957 	 60.4883 	 -41.9172
| 36> H 	 -115.018 	 60.8937 	 -42.2733
| 37> H 	 -116.679 	 60.7884 	 -42.5829
| 38> H 	 -115.828 	 59.3522 	 -42.0844
| 39> H 	 -113.92 	 54.8466 	 -37.478
| 40> H 	 -117.274 	 62.3323 	 -35.6094
| 41> *
| 42>
| 43>                          ****END OF INPUT****

CARTESIAN COORDINATES (ANGSTROEM)
---------------------------------
  S    -114.214000   57.267400  -36.722500
  C    -114.321000   55.878500  -37.762200
  C    -115.154000   56.151300  -38.807300
  C    -115.615000   57.497500  -38.826200
  C    -115.259000   58.329200  -37.747200
  H    -116.182000   57.954500  -39.575600
  C    -115.457000   55.223700  -39.991200
  H    -116.512000   55.357800  -40.262100
  H    -115.518000   54.257800  -39.547900
  C    -114.607000   55.384800  -41.245400
  H    -114.836000   54.681300  -42.031700
  H    -114.563000   56.387500  -41.696100
  C    -113.167000   54.967500  -40.991500
  H    -112.594000   55.129200  -41.872800
  H    -112.714000   55.468000  -40.147800
  H    -113.105000   53.954800  -40.551500
  S    -116.536000   59.939300  -35.876600
  C    -116.817000   61.639300  -36.296100
  C    -116.275000   61.979500  -37.538200
  C    -115.724000   60.851900  -38.103800
  C    -115.720000   59.657800  -37.375700
  H    -116.314000   62.969800  -37.831600
  C    -115.306000   60.891600  -39.552200
  H    -114.732000   60.000900  -39.709800
  H    -114.595000   61.686700  -39.663200
  C    -116.462000   61.085900  -40.601400
  H    -116.677000   62.075600  -40.554600
  H    -117.340000   60.528300  -40.236600
  C    -115.957000   60.488300  -41.917200
  H    -115.018000   60.893700  -42.273300
  H    -116.679000   60.788400  -42.582900
  H    -115.828000   59.352200  -42.084400
  H    -113.920000   54.846600  -37.478000
  H    -117.274000   62.332300  -35.609400

 Total Charge           Charge          ....    0
 Multiplicity           Mult            ....    1
 Number of Electrons    NEL             ....  134
 Basis Dimension        Dim             ....  322

ORBITAL ENERGIES
----------------

  NO   OCC          E(Eh)            E(eV)
   0   2.0000     -88.968335     -2420.9515
   1   2.0000     -88.962520     -2420.7932
   2   2.0000     -10.337056      -281.2856
   3   2.0000     -10.326369      -280.9948
   4   2.0000     -10.322075      -280.8779
   5   2.0000     -10.321596      -280.8649
   6   2.0000     -10.300258      -280.2843
   7   2.0000     -10.297140      -280.1994
   8   2.0000     -10.292060      -280.0612
   9   2.0000     -10.291601      -280.0487
  10   2.0000     -10.289841      -280.0008
  11   2.0000     -10.286689      -279.9150
  12   2.0000     -10.285636      -279.8864
  13   2.0000     -10.279347      -279.7152
  14   2.0000     -10.277325      -279.6602
  15   2.0000     -10.267597      -279.3955
  16   2.0000      -8.082877      -219.9463
  17   2.0000      -8.076687      -219.7778
  18   2.0000      -6.041238      -164.3904
  19   2.0000      -6.037334      -164.2842
  20   2.0000      -6.035318      -164.2294
  21   2.0000      -6.033865      -164.1898
  22   2.0000      -6.031044      -164.1131
  23   2.0000      -6.027542      -164.0178
  24   2.0000      -1.006326       -27.3835
  25   2.0000      -0.985455       -26.8156
  26   2.0000      -0.912032       -24.8176
  27   2.0000      -0.908693       -24.7268
  28   2.0000      -0.874378       -23.7930
  29   2.0000      -0.854450       -23.2508
  30   2.0000      -0.844672       -22.9847
  31   2.0000      -0.817030       -22.2325
  32   2.0000      -0.781648       -21.2697
  33   2.0000      -0.769751       -20.9460
  34   2.0000      -0.714141       -19.4328
  35   2.0000      -0.705673       -19.2023
  36   2.0000      -0.695242       -18.9185
  37   2.0000      -0.667667       -18.1681
  38   2.0000      -0.642077       -17.4718
  39   2.0000      -0.621490       -16.9116
  40   2.0000      -0.593826       -16.1588
  41   2.0000      -0.574642       -15.6368
  42   2.0000      -0.565917       -15.3994
  43   2.0000      -0.558475       -15.1969
  44   2.0000      -0.541998       -14.7485
  45   2.0000      -0.531888       -14.4734
  46   2.0000      -0.524908       -14.2835
  47   2.0000      -0.511910       -13.9298
  48   2.0000      -0.508134       -13.8270
  49   2.0000      -0.500975       -13.6322
  50   2.0000      -0.492609       -13.4046
  51   2.0000      -0.481848       -13.1118
  52   2.0000      -0.472717       -12.8633
  53   2.0000      -0.468071       -12.7369
  54   2.0000      -0.454320       -12.3627
  55   2.0000      -0.449026       -12.2186
  56   2.0000      -0.439708       -11.9651
  57   2.0000      -0.438383       -11.9290
  58   2.0000      -0.429076       -11.6758
  59   2.0000      -0.424071       -11.5396
  60   2.0000      -0.417766       -11.3680
  61   2.0000      -0.408612       -11.1189
  62   2.0000      -0.403877       -10.9900
  63   2.0000      -0.349433        -9.5085
  64   2.0000      -0.331218        -9.0129
  65   2.0000      -0.328214        -8.9312
  66   2.0000      -0.292728        -7.9655
  67   0.0000       0.026061         0.7092
  68   0.0000       0.064799         1.7633
  69   0.0000       0.119358         3.2479
  70   0.0000       0.122188         3.3249
  71   0.0000       0.126145         3.4326

MULLIKEN ATOMIC CHARGES
-----------------------
   0 S :    0.091115
   1 C :   -0.143946
   2 C :   -0.097549
   3 C :    0.063517
   4 C :   -0.171238
   5 H :   -0.021213
   6 C :    0.083663
   7 H :    0.021907
   8 H :    0.009844
   9 C :   -0.034445
  10 H :    0.031085
  11 H :    0.036945
  12 C :   -0.062314
  13 H :    0.033924
  14 H :    0.023256
  15 H :    0.014425
  16 S :    0.117553
  17 C :   -0.106419
  18 C :   -0.002020
  19 C :   -0.039060
  20 C :   -0.135669
  21 H :   -0.002769
  22 C :    0.050798
  23 H :    0.013620
  24 H :    0.014955
  25 C :   -0.017394
  26 H :    0.008772
  27 H :    0.038222
  28 C :   -0.048641
  29 H :    0.026687
  30 H :    0.012900
  31 H :    0.051789
  32 H :    0.082018
  33 H :    0.055685
Sum of atomic charges:   -0.0000000

LOEWDIN ATOMIC CHARGES
----------------------
   0 S :    0.385419
   1 C :   -0.206506
   2 C :   -0.074111
   3 C :   -0.051724
   4 C :   -0.177614
   5 H :    0.018736
   6 C :   -0.030854
   7 H :    0.032785
   8 H :    0.026931
   9 C :   -0.039461
  10 H :    0.028249
  11 H :    0.028559
  12 C :   -0.069168
  13 H :    0.021430
  14 H :    0.019717
  15 H :    0.024343
  16 S :    0.418193
  17 C :   -0.164472
  18 C :   -0.062803
  19 C :   -0.052972
  20 C :   -0.221030
  21 H :    0.025812
  22 C :   -0.031266
  23 H :    0.021579
  24 H :    0.024616
  25 C :   -0.020159
  26 H :    0.011075
  27 H :    0.029538
  28 C :   -0.066163
  29 H :    0.024238
  30 H :    0.014468
  31 H :    0.039106
  32 H :    0.049104
  33 H :    0.024405

  Mayer bond orders larger than 0.100000
B(  0-S ,  1-C ) :   1.1509 B(  0-S ,  4-C ) :   1.1354 B(  1-C ,  2-C ) :   1.5952
B(  1-C ,  4-C ) :   0.1012 B(  1-C , 32-H ) :   0.9565 B(  2-C ,  3-C ) :   1.2551
B(  2-C ,  6-C ) :   1.0200 B(  3-C ,  4-C ) :   1.5513 B(  3-C ,  5-H ) :   1.0049
B(  4-C , 20-C ) :   1.0615 B(  6-C ,  7-H ) :   0.9368 B(  6-C ,  8-H ) :   0.9396
B(  6-C ,  9-C ) :   1.0688 B(  9-C , 10-H ) :   0.9545 B(  9-C , 11-H ) :   0.9557
B(  9-C , 12-C ) :   1.0739 B( 12-C , 13-H ) :   0.9742 B( 12-C , 14-H ) :   0.9730
B( 12-C , 15-H ) :   0.9716 B( 16-S , 17-C ) :   1.1872 B( 16-S , 20-C ) :   1.1377
B( 17-C , 18-C ) :   1.5531 B( 17-C , 20-C ) :   0.1083 B( 17-C , 33-H ) :   0.9667
B( 18-C , 19-C ) :   1.2630 B( 18-C , 21-H ) :   1.0156 B( 19-C , 20-C ) :   1.5534
B( 19-C , 22-C ) :   1.0592 B( 22-C , 23-H ) :   0.9381 B( 22-C , 24-H ) :   0.9257
B( 22-C , 25-C ) :   1.0422 B( 25-C , 26-H ) :   0.9522 B( 25-C , 27-H ) :   0.9601
B( 25-C , 28-C ) :   1.0775 B( 28-C , 29-H ) :   0.9730 B( 28-C , 30-H ) :   0.9713
B( 28-C , 31-H ) :   0.9743

Dispersion correction           -0.015012040
FINAL SINGLE POINT ENERGY     -1339.849636963749

DIPOLE MOMENT
-------------
                                X             Y             Z
Electronic contribution:     -2.74457       5.23373      29.41550
Nuclear contribution   :      2.52170      -5.05315     -30.07964
                        -----------------------------------------
Total Dipole Moment    :     -0.22287       0.18058      -0.66414
                        -----------------------------------------
Magnitude (a.u.)       :      0.72344
Magnitude (Debye)      :      1.83883

Rotational constants in cm-1:     0.019021     0.009378     0.006775
Rotational constants in MHz :   570.244531   281.159187   203.097953

                             ****ORCA TERMINATED NORMALLY****
TOTAL RUN TIME: 0 days 0 hours 0 minutes 22 seconds 409 msec
