                         Program Version 4.2.1 -  RELEASE  -
|  1> ! wB97X-D3 SP def2-SVP
|  2> %pal
|  3> nprocs 24
|  4> end
|  5>
|  6> * xyz 0 1
|  7> S 	 -98.6309 	 4.5359 	 -6.41439
|  8> C 	 -97.3281 	 5.63062 	 -6.04648
|  9> C 	 -97.8079 	 6.95957 	 -6.03978
| 10> C 	 -99.2353 	 7.04333 	 -6.32379
| 11> C 	 -99.8457 	 5.83029 	 -6.41513
| 12> H 	 -99.8725 	 7.95063 	 -6.34123
| 13> C 	 -97.0174 	 8.19286 	 -5.83259
| 14> H 	 -97.5047 	 8.89837 	 -6.49204
| 15> H 	 -96.0374 	 7.99069 	 -6.32455
| 16> C 	 -96.7399 	 8.67202 	 -4.35796
| 17> H 	 -95.9522 	 8.12404 	 -3.73635
| 18> H 	 -96.2579 	 9.61095 	 -4.42877
| 19> C 	 -98.0511 	 8.68546 	 -3.57201
| 20> H 	 -98.7942 	 9.30608 	 -4.10031
| 21> H 	 -98.5627 	 7.80385 	 -3.2409
| 22> H 	 -97.735 	 9.09258 	 -2.63642
| 23> S 	 -101.749 	 4.12801 	 -7.37215
| 24> C 	 -103.419 	 4.53619 	 -7.25092
| 25> C 	 -103.628 	 5.70499 	 -6.5055
| 26> C 	 -102.415 	 6.26233 	 -6.0277
| 27> C 	 -101.274 	 5.49898 	 -6.43549
| 28> H 	 -104.617 	 6.16336 	 -6.50481
| 29> C 	 -102.433 	 7.48739 	 -5.12873
| 30> H 	 -101.533 	 7.51398 	 -4.54635
| 31> H 	 -103.195 	 7.28609 	 -4.43284
| 32> C 	 -102.789 	 8.85809 	 -5.73996
| 33> H 	 -103.87 	 8.9576 	 -5.8983
| 34> H 	 -102.202 	 8.9575 	 -6.67898
| 35> C 	 -102.32 	 9.98727 	 -4.75307
| 36> H 	 -101.237 	 9.86103 	 -4.5472
| 37> H 	 -102.795 	 10.0155 	 -3.75161
| 38> H 	 -102.441 	 10.9571 	 -5.19889
| 39> H 	 -96.3543 	 5.38498 	 -5.72814
| 40> H 	 -104.308 	 4.05444 	 -7.74444
| 41> *
| 42>
| 43>                          ****END OF INPUT****

CARTESIAN COORDINATES (ANGSTROEM)
---------------------------------
  S    -98.630900    4.535900   -6.414390
  C    -97.328100    5.630620   -6.046480
  C    -97.807900    6.959570   -6.039780
  C    -99.235300    7.043330   -6.323790
  C    -99.845700    5.830290   -6.415130
  H    -99.872500    7.950630   -6.341230
  C    -97.017400    8.192860   -5.832590
  H    -97.504700    8.898370   -6.492040
  H    -96.037400    7.990690   -6.324550
  C    -96.739900    8.672020   -4.357960
  H    -95.952200    8.124040   -3.736350
  H    -96.257900    9.610950   -4.428770
  C    -98.051100    8.685460   -3.572010
  H    -98.794200    9.306080   -4.100310
  H    -98.562700    7.803850   -3.240900
  H    -97.735000    9.092580   -2.636420
  S    -101.749000    4.128010   -7.372150
  C    -103.419000    4.536190   -7.250920
  C    -103.628000    5.704990   -6.505500
  C    -102.415000    6.262330   -6.027700
  C    -101.274000    5.498980   -6.435490
  H    -104.617000    6.163360   -6.504810
  C    -102.433000    7.487390   -5.128730
  H    -101.533000    7.513980   -4.546350
  H    -103.195000    7.286090   -4.432840
  C    -102.789000    8.858090   -5.739960
  H    -103.870000    8.957600   -5.898300
  H    -102.202000    8.957500   -6.678980
  C    -102.320000    9.987270   -4.753070
  H    -101.237000    9.861030   -4.547200
  H    -102.795000   10.015500   -3.751610
  H    -102.441000   10.957100   -5.198890
  H    -96.354300    5.384980   -5.728140
  H    -104.308000    4.054440   -7.744440

 Total Charge           Charge          ....    0
 Multiplicity           Mult            ....    1
 Number of Electrons    NEL             ....  134
 Basis Dimension        Dim             ....  322

ORBITAL ENERGIES
----------------

  NO   OCC          E(Eh)            E(eV)
   0   2.0000     -88.970963     -2421.0230
   1   2.0000     -88.962797     -2420.8008
   2   2.0000     -10.330387      -281.1041
   3   2.0000     -10.330056      -281.0951
   4   2.0000     -10.321037      -280.8497
   5   2.0000     -10.312207      -280.6094
   6   2.0000     -10.307974      -280.4942
   7   2.0000     -10.302284      -280.3394
   8   2.0000     -10.297360      -280.2054
   9   2.0000     -10.295448      -280.1534
  10   2.0000     -10.294815      -280.1362
  11   2.0000     -10.294717      -280.1335
  12   2.0000     -10.291053      -280.0338
  13   2.0000     -10.285732      -279.8890
  14   2.0000     -10.285113      -279.8722
  15   2.0000     -10.274235      -279.5761
  16   2.0000      -8.086160      -220.0356
  17   2.0000      -8.077415      -219.7976
  18   2.0000      -6.044576      -164.4813
  19   2.0000      -6.040491      -164.3701
  20   2.0000      -6.037108      -164.2781
  21   2.0000      -6.036145      -164.2519
  22   2.0000      -6.031895      -164.1362
  23   2.0000      -6.028012      -164.0305
  24   2.0000      -1.006163       -27.3791
  25   2.0000      -0.981742       -26.7146
  26   2.0000      -0.911196       -24.7949
  27   2.0000      -0.908338       -24.7171
  28   2.0000      -0.867374       -23.6024
  29   2.0000      -0.853113       -23.2144
  30   2.0000      -0.844953       -22.9923
  31   2.0000      -0.815436       -22.1891
  32   2.0000      -0.781663       -21.2701
  33   2.0000      -0.768733       -20.9183
  34   2.0000      -0.710779       -19.3413
  35   2.0000      -0.706603       -19.2277
  36   2.0000      -0.693208       -18.8631
  37   2.0000      -0.660405       -17.9705
  38   2.0000      -0.636288       -17.3143
  39   2.0000      -0.614288       -16.7156
  40   2.0000      -0.591459       -16.0944
  41   2.0000      -0.570237       -15.5169
  42   2.0000      -0.563772       -15.3410
  43   2.0000      -0.554097       -15.0777
  44   2.0000      -0.541104       -14.7242
  45   2.0000      -0.523448       -14.2437
  46   2.0000      -0.514274       -13.9941
  47   2.0000      -0.509864       -13.8741
  48   2.0000      -0.506850       -13.7921
  49   2.0000      -0.501435       -13.6448
  50   2.0000      -0.492762       -13.4087
  51   2.0000      -0.481649       -13.1063
  52   2.0000      -0.474634       -12.9154
  53   2.0000      -0.464135       -12.6298
  54   2.0000      -0.456856       -12.4317
  55   2.0000      -0.448391       -12.2013
  56   2.0000      -0.444028       -12.0826
  57   2.0000      -0.440477       -11.9860
  58   2.0000      -0.439188       -11.9509
  59   2.0000      -0.426925       -11.6172
  60   2.0000      -0.425090       -11.5673
  61   2.0000      -0.416678       -11.3384
  62   2.0000      -0.400530       -10.8990
  63   2.0000      -0.355668        -9.6782
  64   2.0000      -0.334789        -9.1101
  65   2.0000      -0.324163        -8.8209
  66   2.0000      -0.279938        -7.6175
  67   0.0000       0.022490         0.6120
  68   0.0000       0.075060         2.0425
  69   0.0000       0.101386         2.7589
  70   0.0000       0.113895         3.0992
  71   0.0000       0.125326         3.4103

MULLIKEN ATOMIC CHARGES
-----------------------
   0 S :    0.090219
   1 C :   -0.076814
   2 C :   -0.125172
   3 C :   -0.004371
   4 C :   -0.113603
   5 H :    0.010351
   6 C :    0.037823
   7 H :    0.031023
   8 H :    0.028798
   9 C :   -0.043117
  10 H :    0.033593
  11 H :    0.024250
  12 C :   -0.053526
  13 H :    0.034575
  14 H :    0.046215
  15 H :    0.018385
  16 S :    0.122774
  17 C :   -0.109789
  18 C :   -0.049882
  19 C :   -0.055985
  20 C :   -0.120244
  21 H :    0.027427
  22 C :    0.066746
  23 H :    0.015841
  24 H :    0.015130
  25 C :   -0.072545
  26 H :    0.040159
  27 H :    0.043085
  28 C :   -0.068868
  29 H :    0.026140
  30 H :    0.039238
  31 H :    0.033878
  32 H :    0.032698
  33 H :    0.075567
Sum of atomic charges:   -0.0000000

LOEWDIN ATOMIC CHARGES
----------------------
   0 S :    0.387188
   1 C :   -0.195671
   2 C :   -0.058848
   3 C :   -0.075630
   4 C :   -0.178478
   5 H :    0.035320
   6 C :   -0.044318
   7 H :    0.033286
   8 H :    0.035853
   9 C :   -0.035239
  10 H :    0.032494
  11 H :    0.020958
  12 C :   -0.069371
  13 H :    0.023174
  14 H :    0.027776
  15 H :    0.024690
  16 S :    0.438125
  17 C :   -0.207538
  18 C :   -0.076159
  19 C :   -0.051743
  20 C :   -0.211350
  21 H :    0.035000
  22 C :   -0.035283
  23 H :    0.026369
  24 H :    0.028754
  25 C :   -0.034277
  26 H :    0.025972
  27 H :    0.026995
  28 C :   -0.069637
  29 H :    0.024412
  30 H :    0.028824
  31 H :    0.022493
  32 H :    0.022014
  33 H :    0.043845

  Mayer bond orders larger than 0.100000
B(  0-S ,  1-C ) :   1.1278 B(  0-S ,  4-C ) :   1.1350 B(  1-C ,  2-C ) :   1.6161
B(  1-C , 32-H ) :   0.9749 B(  2-C ,  3-C ) :   1.2076 B(  2-C ,  6-C ) :   1.0292
B(  3-C ,  4-C ) :   1.6121 B(  3-C ,  5-H ) :   0.9841 B(  4-C , 20-C ) :   1.0407
B(  6-C ,  7-H ) :   0.9437 B(  6-C ,  8-H ) :   0.9381 B(  6-C ,  9-C ) :   1.0569
B(  9-C , 10-H ) :   0.9568 B(  9-C , 11-H ) :   0.9543 B(  9-C , 12-C ) :   1.0756
B( 12-C , 13-H ) :   0.9748 B( 12-C , 14-H ) :   0.9706 B( 12-C , 15-H ) :   0.9679
B( 16-S , 17-C ) :   1.1767 B( 16-S , 20-C ) :   1.1554 B( 17-C , 18-C ) :   1.5837
B( 17-C , 20-C ) :   0.1011 B( 17-C , 33-H ) :   0.9582 B( 18-C , 19-C ) :   1.2827
B( 18-C , 21-H ) :   0.9875 B( 19-C , 20-C ) :   1.5413 B( 19-C , 22-C ) :   1.0393
B( 22-C , 23-H ) :   0.9449 B( 22-C , 24-H ) :   0.9265 B( 22-C , 25-C ) :   1.0530
B( 25-C , 26-H ) :   0.9528 B( 25-C , 27-H ) :   0.9583 B( 25-C , 28-C ) :   1.0787
B( 28-C , 29-H ) :   0.9767 B( 28-C , 30-H ) :   0.9734 B( 28-C , 31-H ) :   0.9740

Dispersion correction           -0.015421135
FINAL SINGLE POINT ENERGY     -1339.868893689601

DIPOLE MOMENT
-------------
                                X             Y             Z
Electronic contribution:     -1.61196     -28.89719     -14.35931
Nuclear contribution   :      1.45785      29.64986      14.65641
                        -----------------------------------------
Total Dipole Moment    :     -0.15411       0.75267       0.29710
                        -----------------------------------------
Magnitude (a.u.)       :      0.82373
Magnitude (Debye)      :      2.09375

Rotational constants in cm-1:     0.016988     0.010788     0.006939
Rotational constants in MHz :   509.278990   323.416134   208.020338

                             ****ORCA TERMINATED NORMALLY****
TOTAL RUN TIME: 0 days 0 hours 0 minutes 22 seconds 697 msec
