                         Program Version 4.2.1 -  RELEASE  -
|  1> ! wB97X-D3 SP def2-SVP
|  2> %pal
|  3> nprocs 24
|  4> end
|  5>
|  6> * xyz 0 1
|  7> S 	 -40.575 	 16.0842 	 -102.035
|  8> C 	 -39.868 	 14.6087 	 -101.311
|  9> C 	 -40.3716 	 14.3636 	 -100.09
| 10> C 	 -41.431 	 15.3065 	 -99.806
| 11> C 	 -41.8546 	 16.0835 	 -100.854
| 12> H 	 -42.1439 	 15.1978 	 -98.9724
| 13> C 	 -39.8077 	 13.3435 	 -99.1461
| 14> H 	 -38.8688 	 12.9496 	 -99.3996
| 15> H 	 -40.4954 	 12.5226 	 -99.3377
| 16> C 	 -39.9298 	 13.6122 	 -97.7034
| 17> H 	 -40.9447 	 13.6972 	 -97.5177
| 18> H 	 -39.5972 	 12.7848 	 -97.1967
| 19> C 	 -38.9954 	 14.8203 	 -97.368
| 20> H 	 -37.9794 	 14.8095 	 -97.8337
| 21> H 	 -39.3995 	 15.8338 	 -97.452
| 22> H 	 -38.8143 	 14.8595 	 -96.3009
| 23> S 	 -42.7372 	 18.5748 	 -101.576
| 24> C 	 -44.4231 	 18.9194 	 -101.29
| 25> C 	 -45.1298 	 17.8523 	 -100.871
| 26> C 	 -44.3366 	 16.6993 	 -100.727
| 27> C 	 -42.9766 	 16.9714 	 -100.984
| 28> H 	 -46.1544 	 18.0046 	 -100.577
| 29> C 	 -45.0247 	 15.3623 	 -100.427
| 30> H 	 -44.5289 	 14.5172 	 -100.933
| 31> H 	 -46.0577 	 15.4258 	 -100.787
| 32> C 	 -45.1232 	 15.02 	 -98.9796
| 33> H 	 -45.9116 	 15.7567 	 -98.6798
| 34> H 	 -44.2959 	 15.239 	 -98.303
| 35> C 	 -45.7376 	 13.6823 	 -98.5137
| 36> H 	 -45.2898 	 12.8799 	 -99.1456
| 37> H 	 -46.8285 	 13.6111 	 -98.5587
| 38> H 	 -45.517 	 13.4603 	 -97.4569
| 39> H 	 -38.9097 	 14.1665 	 -101.549
| 40> H 	 -44.7726 	 19.9643 	 -101.451
| 41> *
| 42>
| 43>                          ****END OF INPUT****

CARTESIAN COORDINATES (ANGSTROEM)
---------------------------------
  S    -40.575000   16.084200  -102.035000
  C    -39.868000   14.608700  -101.311000
  C    -40.371600   14.363600  -100.090000
  C    -41.431000   15.306500  -99.806000
  C    -41.854600   16.083500  -100.854000
  H    -42.143900   15.197800  -98.972400
  C    -39.807700   13.343500  -99.146100
  H    -38.868800   12.949600  -99.399600
  H    -40.495400   12.522600  -99.337700
  C    -39.929800   13.612200  -97.703400
  H    -40.944700   13.697200  -97.517700
  H    -39.597200   12.784800  -97.196700
  C    -38.995400   14.820300  -97.368000
  H    -37.979400   14.809500  -97.833700
  H    -39.399500   15.833800  -97.452000
  H    -38.814300   14.859500  -96.300900
  S    -42.737200   18.574800  -101.576000
  C    -44.423100   18.919400  -101.290000
  C    -45.129800   17.852300  -100.871000
  C    -44.336600   16.699300  -100.727000
  C    -42.976600   16.971400  -100.984000
  H    -46.154400   18.004600  -100.577000
  C    -45.024700   15.362300  -100.427000
  H    -44.528900   14.517200  -100.933000
  H    -46.057700   15.425800  -100.787000
  C    -45.123200   15.020000  -98.979600
  H    -45.911600   15.756700  -98.679800
  H    -44.295900   15.239000  -98.303000
  C    -45.737600   13.682300  -98.513700
  H    -45.289800   12.879900  -99.145600
  H    -46.828500   13.611100  -98.558700
  H    -45.517000   13.460300  -97.456900
  H    -38.909700   14.166500  -101.549000
  H    -44.772600   19.964300  -101.451000

 Total Charge           Charge          ....    0
 Multiplicity           Mult            ....    1
 Number of Electrons    NEL             ....  134
 Basis Dimension        Dim             ....  322

ORBITAL ENERGIES
----------------

  NO   OCC          E(Eh)            E(eV)
   0   2.0000     -88.968250     -2420.9492
   1   2.0000     -88.957016     -2420.6435
   2   2.0000     -10.327746      -281.0323
   3   2.0000     -10.326427      -280.9964
   4   2.0000     -10.318024      -280.7677
   5   2.0000     -10.307523      -280.4820
   6   2.0000     -10.304847      -280.4092
   7   2.0000     -10.296628      -280.1855
   8   2.0000     -10.295674      -280.1595
   9   2.0000     -10.292651      -280.0773
  10   2.0000     -10.291072      -280.0343
  11   2.0000     -10.286111      -279.8993
  12   2.0000     -10.284416      -279.8532
  13   2.0000     -10.282214      -279.7933
  14   2.0000     -10.277929      -279.6767
  15   2.0000     -10.276989      -279.6511
  16   2.0000      -8.083848      -219.9727
  17   2.0000      -8.071857      -219.6464
  18   2.0000      -6.042207      -164.4168
  19   2.0000      -6.038322      -164.3111
  20   2.0000      -6.034633      -164.2107
  21   2.0000      -6.030538      -164.0993
  22   2.0000      -6.026609      -163.9924
  23   2.0000      -6.022169      -163.8716
  24   2.0000      -1.012927       -27.5631
  25   2.0000      -0.988702       -26.9039
  26   2.0000      -0.926234       -25.2041
  27   2.0000      -0.914319       -24.8799
  28   2.0000      -0.876488       -23.8505
  29   2.0000      -0.853883       -23.2353
  30   2.0000      -0.835906       -22.7462
  31   2.0000      -0.816663       -22.2225
  32   2.0000      -0.788812       -21.4647
  33   2.0000      -0.778577       -21.1862
  34   2.0000      -0.718608       -19.5543
  35   2.0000      -0.699328       -19.0297
  36   2.0000      -0.688407       -18.7325
  37   2.0000      -0.663640       -18.0586
  38   2.0000      -0.640424       -17.4268
  39   2.0000      -0.618390       -16.8273
  40   2.0000      -0.605461       -16.4754
  41   2.0000      -0.575234       -15.6529
  42   2.0000      -0.566489       -15.4150
  43   2.0000      -0.559534       -15.2257
  44   2.0000      -0.541006       -14.7215
  45   2.0000      -0.524660       -14.2767
  46   2.0000      -0.515963       -14.0401
  47   2.0000      -0.511105       -13.9079
  48   2.0000      -0.507939       -13.8217
  49   2.0000      -0.496790       -13.5184
  50   2.0000      -0.491661       -13.3788
  51   2.0000      -0.478704       -13.0262
  52   2.0000      -0.475538       -12.9400
  53   2.0000      -0.468516       -12.7490
  54   2.0000      -0.465537       -12.6679
  55   2.0000      -0.451782       -12.2936
  56   2.0000      -0.444131       -12.0854
  57   2.0000      -0.440045       -11.9742
  58   2.0000      -0.431285       -11.7359
  59   2.0000      -0.425498       -11.5784
  60   2.0000      -0.419922       -11.4266
  61   2.0000      -0.414870       -11.2892
  62   2.0000      -0.399687       -10.8760
  63   2.0000      -0.351883        -9.5752
  64   2.0000      -0.335861        -9.1393
  65   2.0000      -0.321771        -8.7558
  66   2.0000      -0.290225        -7.8974
  67   0.0000       0.025205         0.6859
  68   0.0000       0.074430         2.0253
  69   0.0000       0.098572         2.6823
  70   0.0000       0.125696         3.4204
  71   0.0000       0.128363         3.4929

MULLIKEN ATOMIC CHARGES
-----------------------
   0 S :    0.073361
   1 C :   -0.108569
   2 C :   -0.101710
   3 C :    0.042133
   4 C :   -0.152786
   5 H :   -0.003050
   6 C :    0.073277
   7 H :    0.003203
   8 H :    0.027324
   9 C :    0.030638
  10 H :    0.009481
  11 H :    0.006456
  12 C :   -0.076955
  13 H :    0.040858
  14 H :    0.039452
  15 H :    0.017432
  16 S :    0.116051
  17 C :   -0.111021
  18 C :   -0.020987
  19 C :   -0.031725
  20 C :   -0.150522
  21 H :    0.021919
  22 C :    0.108571
  23 H :    0.032119
  24 H :    0.025342
  25 C :   -0.126269
  26 H :    0.015454
  27 H :    0.041712
  28 C :   -0.047818
  29 H :    0.031049
  30 H :    0.033564
  31 H :    0.034980
  32 H :    0.037457
  33 H :    0.069576
Sum of atomic charges:    0.0000000

LOEWDIN ATOMIC CHARGES
----------------------
   0 S :    0.370414
   1 C :   -0.186896
   2 C :   -0.057382
   3 C :   -0.072000
   4 C :   -0.183034
   5 H :    0.025644
   6 C :   -0.026729
   7 H :    0.019824
   8 H :    0.038393
   9 C :   -0.023735
  10 H :    0.018055
  11 H :    0.019553
  12 C :   -0.074643
  13 H :    0.032936
  14 H :    0.030594
  15 H :    0.022384
  16 S :    0.419263
  17 C :   -0.182528
  18 C :   -0.073331
  19 C :   -0.045792
  20 C :   -0.206045
  21 H :    0.035527
  22 C :   -0.028421
  23 H :    0.029718
  24 H :    0.035510
  25 C :   -0.058096
  26 H :    0.027872
  27 H :    0.021880
  28 C :   -0.070247
  29 H :    0.025620
  30 H :    0.023618
  31 H :    0.030636
  32 H :    0.026743
  33 H :    0.034696

  Mayer bond orders larger than 0.100000
B(  0-S ,  1-C ) :   1.1036 B(  0-S ,  4-C ) :   1.1262 B(  1-C ,  2-C ) :   1.6765
B(  1-C , 32-H ) :   0.9621 B(  2-C ,  3-C ) :   1.2082 B(  2-C ,  6-C ) :   1.0058
B(  3-C ,  4-C ) :   1.6151 B(  3-C ,  5-H ) :   0.9783 B(  4-C , 20-C ) :   1.0609
B(  6-C ,  7-H ) :   0.9452 B(  6-C ,  8-H ) :   0.9195 B(  6-C ,  9-C ) :   1.1120
B(  9-C , 10-H ) :   0.9427 B(  9-C , 11-H ) :   0.9439 B(  9-C , 12-C ) :   1.0662
B( 12-C , 13-H ) :   0.9774 B( 12-C , 14-H ) :   0.9736 B( 12-C , 15-H ) :   0.9746
B( 16-S , 17-C ) :   1.1563 B( 16-S , 20-C ) :   1.1545 B( 17-C , 18-C ) :   1.6123
B( 17-C , 33-H ) :   0.9624 B( 18-C , 19-C ) :   1.2474 B( 18-C , 21-H ) :   0.9916
B( 19-C , 20-C ) :   1.5753 B( 19-C , 22-C ) :   1.0424 B( 22-C , 23-H ) :   0.9292
B( 22-C , 24-H ) :   0.9394 B( 22-C , 25-C ) :   1.0502 B( 25-C , 26-H ) :   0.9525
B( 25-C , 27-H ) :   0.9592 B( 25-C , 28-C ) :   1.0766 B( 28-C , 29-H ) :   0.9743
B( 28-C , 30-H ) :   0.9782 B( 28-C , 31-H ) :   0.9744

Dispersion correction           -0.014495824
FINAL SINGLE POINT ENERGY     -1339.848760717397

DIPOLE MOMENT
-------------
                                X             Y             Z
Electronic contribution:      4.64217      18.95686     -21.81912
Nuclear contribution   :     -4.99128     -19.29724      22.47257
                        -----------------------------------------
Total Dipole Moment    :     -0.34912      -0.34038       0.65345
                        -----------------------------------------
Magnitude (a.u.)       :      0.81531
Magnitude (Debye)      :      2.07236

Rotational constants in cm-1:     0.016758     0.010019     0.007258
Rotational constants in MHz :   502.383913   300.372792   217.582388

                             ****ORCA TERMINATED NORMALLY****
TOTAL RUN TIME: 0 days 0 hours 0 minutes 22 seconds 156 msec
