                         Program Version 4.2.1 -  RELEASE  -
|  1> ! wB97X-D3 SP def2-SVP
|  2> %pal
|  3> nprocs 24
|  4> end
|  5>
|  6> * xyz 0 1
|  7> S 	 -40.9549 	 15.842 	 -99.5747
|  8> C 	 -40.8927 	 14.1609 	 -100.107
|  9> C 	 -41.6477 	 13.2743 	 -99.2703
| 10> C 	 -42.3821 	 14.0166 	 -98.2946
| 11> C 	 -42.1951 	 15.4488 	 -98.3187
| 12> H 	 -43.0425 	 13.63 	 -97.4988
| 13> C 	 -41.6917 	 11.7103 	 -99.2839
| 14> H 	 -41.5403 	 11.4567 	 -100.384
| 15> H 	 -42.6704 	 11.4351 	 -99.0816
| 16> C 	 -40.6356 	 11.1459 	 -98.3646
| 17> H 	 -40.9413 	 11.216 	 -97.2807
| 18> H 	 -40.5974 	 10.064 	 -98.665
| 19> C 	 -39.1779 	 11.8041 	 -98.4703
| 20> H 	 -39.0403 	 11.8536 	 -99.5228
| 21> H 	 -39.1592 	 12.8245 	 -98.0375
| 22> H 	 -38.3775 	 11.2273 	 -98.0233
| 23> S 	 -41.6777 	 17.869 	 -97.0697
| 24> C 	 -42.7591 	 18.3928 	 -95.7981
| 25> C 	 -43.9948 	 17.6938 	 -95.8203
| 26> C 	 -43.9057 	 16.6056 	 -96.7884
| 27> C 	 -42.7271 	 16.4909 	 -97.4452
| 28> H 	 -44.8915 	 18.0068 	 -95.3195
| 29> C 	 -45.0564 	 15.6476 	 -97.001
| 30> H 	 -44.9901 	 15.0394 	 -97.9036
| 31> H 	 -45.9158 	 16.3448 	 -97.2253
| 32> C 	 -45.3275 	 14.7785 	 -95.8198
| 33> H 	 -45.4776 	 15.1395 	 -94.8203
| 34> H 	 -44.3453 	 14.3588 	 -95.6787
| 35> C 	 -46.5092 	 13.756 	 -96.0401
| 36> H 	 -46.1796 	 12.9271 	 -96.596
| 37> H 	 -47.3655 	 14.1901 	 -96.5681
| 38> H 	 -46.8705 	 13.3727 	 -95.1129
| 39> H 	 -40.3993 	 13.8086 	 -100.956
| 40> H 	 -42.6604 	 19.2041 	 -95.0968
| 41> *
| 42>
| 43>                          ****END OF INPUT****

CARTESIAN COORDINATES (ANGSTROEM)
---------------------------------
  S    -40.954900   15.842000  -99.574700
  C    -40.892700   14.160900  -100.107000
  C    -41.647700   13.274300  -99.270300
  C    -42.382100   14.016600  -98.294600
  C    -42.195100   15.448800  -98.318700
  H    -43.042500   13.630000  -97.498800
  C    -41.691700   11.710300  -99.283900
  H    -41.540300   11.456700  -100.384000
  H    -42.670400   11.435100  -99.081600
  C    -40.635600   11.145900  -98.364600
  H    -40.941300   11.216000  -97.280700
  H    -40.597400   10.064000  -98.665000
  C    -39.177900   11.804100  -98.470300
  H    -39.040300   11.853600  -99.522800
  H    -39.159200   12.824500  -98.037500
  H    -38.377500   11.227300  -98.023300
  S    -41.677700   17.869000  -97.069700
  C    -42.759100   18.392800  -95.798100
  C    -43.994800   17.693800  -95.820300
  C    -43.905700   16.605600  -96.788400
  C    -42.727100   16.490900  -97.445200
  H    -44.891500   18.006800  -95.319500
  C    -45.056400   15.647600  -97.001000
  H    -44.990100   15.039400  -97.903600
  H    -45.915800   16.344800  -97.225300
  C    -45.327500   14.778500  -95.819800
  H    -45.477600   15.139500  -94.820300
  H    -44.345300   14.358800  -95.678700
  C    -46.509200   13.756000  -96.040100
  H    -46.179600   12.927100  -96.596000
  H    -47.365500   14.190100  -96.568100
  H    -46.870500   13.372700  -95.112900
  H    -40.399300   13.808600  -100.956000
  H    -42.660400   19.204100  -95.096800

 Total Charge           Charge          ....    0
 Multiplicity           Mult            ....    1
 Number of Electrons    NEL             ....  134
 Basis Dimension        Dim             ....  322

ORBITAL ENERGIES
----------------

  NO   OCC          E(Eh)            E(eV)
   0   2.0000     -88.972032     -2421.0521
   1   2.0000     -88.967673     -2420.9335
   2   2.0000     -10.341720      -281.4125
   3   2.0000     -10.327271      -281.0193
   4   2.0000     -10.325006      -280.9577
   5   2.0000     -10.317817      -280.7621
   6   2.0000     -10.309678      -280.5406
   7   2.0000     -10.303858      -280.3822
   8   2.0000     -10.302221      -280.3377
   9   2.0000     -10.301824      -280.3269
  10   2.0000     -10.299746      -280.2703
  11   2.0000     -10.298319      -280.2315
  12   2.0000     -10.291930      -280.0577
  13   2.0000     -10.283497      -279.8282
  14   2.0000     -10.277834      -279.6741
  15   2.0000     -10.275470      -279.6098
  16   2.0000      -8.085064      -220.0058
  17   2.0000      -8.082170      -219.9270
  18   2.0000      -6.043618      -164.4552
  19   2.0000      -6.040905      -164.3814
  20   2.0000      -6.039825      -164.3520
  21   2.0000      -6.036824      -164.2703
  22   2.0000      -6.035881      -164.2447
  23   2.0000      -6.032581      -164.1549
  24   2.0000      -1.000572       -27.2269
  25   2.0000      -0.972492       -26.4628
  26   2.0000      -0.913205       -24.8496
  27   2.0000      -0.907183       -24.6857
  28   2.0000      -0.862841       -23.4791
  29   2.0000      -0.849341       -23.1117
  30   2.0000      -0.837872       -22.7997
  31   2.0000      -0.806331       -21.9414
  32   2.0000      -0.785793       -21.3825
  33   2.0000      -0.777109       -21.1462
  34   2.0000      -0.710124       -19.3235
  35   2.0000      -0.699781       -19.0420
  36   2.0000      -0.695212       -18.9177
  37   2.0000      -0.667119       -18.1532
  38   2.0000      -0.638850       -17.3840
  39   2.0000      -0.613864       -16.7041
  40   2.0000      -0.595814       -16.2129
  41   2.0000      -0.565019       -15.3750
  42   2.0000      -0.563225       -15.3261
  43   2.0000      -0.555126       -15.1058
  44   2.0000      -0.537802       -14.6343
  45   2.0000      -0.529602       -14.4112
  46   2.0000      -0.516418       -14.0524
  47   2.0000      -0.509674       -13.8689
  48   2.0000      -0.504277       -13.7221
  49   2.0000      -0.494879       -13.4664
  50   2.0000      -0.482311       -13.1244
  51   2.0000      -0.478491       -13.0204
  52   2.0000      -0.468510       -12.7488
  53   2.0000      -0.463939       -12.6244
  54   2.0000      -0.460563       -12.5326
  55   2.0000      -0.457369       -12.4456
  56   2.0000      -0.450661       -12.2631
  57   2.0000      -0.449437       -12.2298
  58   2.0000      -0.434158       -11.8140
  59   2.0000      -0.416970       -11.3463
  60   2.0000      -0.411726       -11.2036
  61   2.0000      -0.411091       -11.1864
  62   2.0000      -0.405152       -11.0247
  63   2.0000      -0.355793        -9.6816
  64   2.0000      -0.334951        -9.1145
  65   2.0000      -0.327446        -8.9102
  66   2.0000      -0.278289        -7.5726
  67   0.0000       0.018021         0.4904
  68   0.0000       0.063246         1.7210
  69   0.0000       0.097349         2.6490
  70   0.0000       0.115705         3.1485
  71   0.0000       0.128201         3.4885

MULLIKEN ATOMIC CHARGES
-----------------------
   0 S :    0.100849
   1 C :   -0.093717
   2 C :   -0.134854
   3 C :    0.012186
   4 C :   -0.151596
   5 H :    0.017719
   6 C :    0.103023
   7 H :    0.033286
   8 H :    0.015163
   9 C :   -0.112606
  10 H :    0.045957
  11 H :    0.043599
  12 C :   -0.040672
  13 H :    0.012472
  14 H :    0.060813
  15 H :    0.040189
  16 S :    0.102527
  17 C :   -0.077678
  18 C :   -0.021852
  19 C :   -0.088215
  20 C :   -0.107203
  21 H :    0.023608
  22 C :    0.050417
  23 H :    0.032496
  24 H :    0.028569
  25 C :   -0.076386
  26 H :    0.020794
  27 H :    0.012752
  28 C :   -0.012529
  29 H :    0.019832
  30 H :    0.032773
  31 H :    0.022444
  32 H :    0.029157
  33 H :    0.056682
Sum of atomic charges:    0.0000000

LOEWDIN ATOMIC CHARGES
----------------------
   0 S :    0.382920
   1 C :   -0.189943
   2 C :   -0.057188
   3 C :   -0.070802
   4 C :   -0.172161
   5 H :    0.032443
   6 C :   -0.026193
   7 H :    0.037423
   8 H :    0.021975
   9 C :   -0.045194
  10 H :    0.028660
  11 H :    0.030504
  12 C :   -0.061695
  13 H :    0.015969
  14 H :    0.034673
  15 H :    0.025830
  16 S :    0.391214
  17 C :   -0.176426
  18 C :   -0.063239
  19 C :   -0.057370
  20 C :   -0.195996
  21 H :    0.031758
  22 C :   -0.035214
  23 H :    0.031385
  24 H :    0.033455
  25 C :   -0.046706
  26 H :    0.023101
  27 H :    0.021269
  28 C :   -0.056809
  29 H :    0.017536
  30 H :    0.028982
  31 H :    0.022312
  32 H :    0.013800
  33 H :    0.029727

  Mayer bond orders larger than 0.100000
B(  0-S ,  1-C ) :   1.1482 B(  0-S ,  4-C ) :   1.1401 B(  1-C ,  2-C ) :   1.5758
B(  1-C ,  4-C ) :   0.1176 B(  1-C , 32-H ) :   0.9724 B(  2-C ,  3-C ) :   1.2696
B(  2-C ,  6-C ) :   1.0111 B(  3-C ,  4-C ) :   1.5368 B(  3-C ,  5-H ) :   0.9795
B(  4-C , 20-C ) :   1.0785 B(  6-C ,  7-H ) :   0.9397 B(  6-C ,  8-H ) :   0.9421
B(  6-C ,  9-C ) :   1.0636 B(  9-C , 10-H ) :   0.9582 B(  9-C , 11-H ) :   0.9570
B(  9-C , 12-C ) :   1.0677 B( 12-C , 13-H ) :   0.9779 B( 12-C , 14-H ) :   0.9700
B( 12-C , 15-H ) :   0.9758 B( 16-S , 17-C ) :   1.1559 B( 16-S , 20-C ) :   1.0920
B( 17-C , 18-C ) :   1.6128 B( 17-C , 33-H ) :   0.9674 B( 18-C , 19-C ) :   1.2166
B( 18-C , 21-H ) :   0.9904 B( 19-C , 20-C ) :   1.6349 B( 19-C , 22-C ) :   1.0526
B( 22-C , 23-H ) :   0.9422 B( 22-C , 24-H ) :   0.9228 B( 22-C , 25-C ) :   1.0431
B( 25-C , 26-H ) :   0.9605 B( 25-C , 27-H ) :   0.9506 B( 25-C , 28-C ) :   1.0696
B( 28-C , 29-H ) :   0.9766 B( 28-C , 30-H ) :   0.9758 B( 28-C , 31-H ) :   0.9776

Dispersion correction           -0.014821006
FINAL SINGLE POINT ENERGY     -1339.853080728938

DIPOLE MOMENT
-------------
                                X             Y             Z
Electronic contribution:      9.84005      24.30754      -5.87660
Nuclear contribution   :    -10.25736     -24.81162       6.13141
                        -----------------------------------------
Total Dipole Moment    :     -0.41731      -0.50407       0.25480
                        -----------------------------------------
Magnitude (a.u.)       :      0.70225
Magnitude (Debye)      :      1.78499

Rotational constants in cm-1:     0.017437     0.009402     0.006863
Rotational constants in MHz :   522.751247   281.853907   205.739839

                             ****ORCA TERMINATED NORMALLY****
TOTAL RUN TIME: 0 days 0 hours 0 minutes 21 seconds 689 msec
