                         Program Version 4.2.1 -  RELEASE  -
|  1> ! wB97X-D3 SP def2-SVP
|  2> %pal
|  3> nprocs 24
|  4> end
|  5>
|  6> * xyz 0 1
|  7> S 	 -76.5174 	 -4.21407 	 -65.419
|  8> C 	 -75.5267 	 -3.17148 	 -64.4121
|  9> C 	 -74.827 	 -2.18977 	 -65.1611
| 10> C 	 -75.2527 	 -2.19074 	 -66.5066
| 11> C 	 -76.1403 	 -3.18052 	 -66.8097
| 12> H 	 -74.9779 	 -1.48261 	 -67.3058
| 13> C 	 -74.0216 	 -1.11627 	 -64.5625
| 14> H 	 -73.9677 	 -1.36764 	 -63.4904
| 15> H 	 -74.6191 	 -0.229501 	 -64.6307
| 16> C 	 -72.6128 	 -0.805721 	 -65.1084
| 17> H 	 -72.0532 	 -1.65079 	 -64.903
| 18> H 	 -72.6008 	 -0.578047 	 -66.2056
| 19> C 	 -71.9805 	 0.375539 	 -64.4383
| 20> H 	 -72.6195 	 1.23828 	 -64.5447
| 21> H 	 -71.8399 	 0.117034 	 -63.4593
| 22> H 	 -71.014 	 0.495312 	 -64.796
| 23> S 	 -76.155 	 -5.2879 	 -68.5532
| 24> C 	 -76.8502 	 -5.085 	 -70.1746
| 25> C 	 -77.3215 	 -3.80187 	 -70.3514
| 26> C 	 -77.1615 	 -2.94591 	 -69.1884
| 27> C 	 -76.6149 	 -3.63779 	 -68.1078
| 28> H 	 -77.7904 	 -3.5381 	 -71.343
| 29> C 	 -77.5304 	 -1.44777 	 -69.2429
| 30> H 	 -77.3363 	 -1.10751 	 -68.2438
| 31> H 	 -78.5415 	 -1.1523 	 -69.3914
| 32> C 	 -76.6661 	 -0.558143 	 -70.0969
| 33> H 	 -76.6047 	 -0.953399 	 -71.1209
| 34> H 	 -75.6181 	 -0.586602 	 -69.7241
| 35> C 	 -77.1598 	 0.92889 	 -70.0991
| 36> H 	 -78.1568 	 1.13546 	 -70.5465
| 37> H 	 -76.511 	 1.49625 	 -70.7643
| 38> H 	 -77.1273 	 1.34618 	 -69.1145
| 39> H 	 -75.5004 	 -3.22613 	 -63.3853
| 40> H 	 -76.8296 	 -5.91049 	 -70.8585
| 41> *
| 42>
| 43>                          ****END OF INPUT****

CARTESIAN COORDINATES (ANGSTROEM)
---------------------------------
  S    -76.517400   -4.214070  -65.419000
  C    -75.526700   -3.171480  -64.412100
  C    -74.827000   -2.189770  -65.161100
  C    -75.252700   -2.190740  -66.506600
  C    -76.140300   -3.180520  -66.809700
  H    -74.977900   -1.482610  -67.305800
  C    -74.021600   -1.116270  -64.562500
  H    -73.967700   -1.367640  -63.490400
  H    -74.619100   -0.229501  -64.630700
  C    -72.612800   -0.805721  -65.108400
  H    -72.053200   -1.650790  -64.903000
  H    -72.600800   -0.578047  -66.205600
  C    -71.980500    0.375539  -64.438300
  H    -72.619500    1.238280  -64.544700
  H    -71.839900    0.117034  -63.459300
  H    -71.014000    0.495312  -64.796000
  S    -76.155000   -5.287900  -68.553200
  C    -76.850200   -5.085000  -70.174600
  C    -77.321500   -3.801870  -70.351400
  C    -77.161500   -2.945910  -69.188400
  C    -76.614900   -3.637790  -68.107800
  H    -77.790400   -3.538100  -71.343000
  C    -77.530400   -1.447770  -69.242900
  H    -77.336300   -1.107510  -68.243800
  H    -78.541500   -1.152300  -69.391400
  C    -76.666100   -0.558143  -70.096900
  H    -76.604700   -0.953399  -71.120900
  H    -75.618100   -0.586602  -69.724100
  C    -77.159800    0.928890  -70.099100
  H    -78.156800    1.135460  -70.546500
  H    -76.511000    1.496250  -70.764300
  H    -77.127300    1.346180  -69.114500
  H    -75.500400   -3.226130  -63.385300
  H    -76.829600   -5.910490  -70.858500

 Total Charge           Charge          ....    0
 Multiplicity           Mult            ....    1
 Number of Electrons    NEL             ....  134
 Basis Dimension        Dim             ....  322

ORBITAL ENERGIES
----------------

  NO   OCC          E(Eh)            E(eV)
   0   2.0000     -88.967024     -2420.9158
   1   2.0000     -88.963222     -2420.8123
   2   2.0000     -10.329263      -281.0735
   3   2.0000     -10.327797      -281.0336
   4   2.0000     -10.317677      -280.7583
   5   2.0000     -10.312415      -280.6151
   6   2.0000     -10.309200      -280.5276
   7   2.0000     -10.301596      -280.3207
   8   2.0000     -10.300686      -280.2959
   9   2.0000     -10.294285      -280.1217
  10   2.0000     -10.290548      -280.0200
  11   2.0000     -10.288281      -279.9584
  12   2.0000     -10.285187      -279.8742
  13   2.0000     -10.282168      -279.7920
  14   2.0000     -10.281524      -279.7745
  15   2.0000     -10.263209      -279.2761
  16   2.0000      -8.081338      -219.9044
  17   2.0000      -8.077471      -219.7992
  18   2.0000      -6.039767      -164.3504
  19   2.0000      -6.036067      -164.2497
  20   2.0000      -6.035949      -164.2465
  21   2.0000      -6.032163      -164.1435
  22   2.0000      -6.032063      -164.1408
  23   2.0000      -6.028141      -164.0340
  24   2.0000      -1.003821       -27.3154
  25   2.0000      -0.978290       -26.6206
  26   2.0000      -0.919791       -25.0288
  27   2.0000      -0.908540       -24.7226
  28   2.0000      -0.872963       -23.7545
  29   2.0000      -0.855922       -23.2908
  30   2.0000      -0.842599       -22.9283
  31   2.0000      -0.818496       -22.2724
  32   2.0000      -0.784287       -21.3415
  33   2.0000      -0.771868       -21.0036
  34   2.0000      -0.709414       -19.3041
  35   2.0000      -0.699006       -19.0209
  36   2.0000      -0.696121       -18.9424
  37   2.0000      -0.657525       -17.8922
  38   2.0000      -0.646135       -17.5822
  39   2.0000      -0.621031       -16.8991
  40   2.0000      -0.600071       -16.3288
  41   2.0000      -0.583302       -15.8725
  42   2.0000      -0.565330       -15.3834
  43   2.0000      -0.559897       -15.2356
  44   2.0000      -0.530408       -14.4331
  45   2.0000      -0.524068       -14.2606
  46   2.0000      -0.521847       -14.2002
  47   2.0000      -0.513953       -13.9854
  48   2.0000      -0.505052       -13.7432
  49   2.0000      -0.501417       -13.6442
  50   2.0000      -0.493794       -13.4368
  51   2.0000      -0.473820       -12.8933
  52   2.0000      -0.468327       -12.7438
  53   2.0000      -0.465569       -12.6688
  54   2.0000      -0.461757       -12.5650
  55   2.0000      -0.449039       -12.2190
  56   2.0000      -0.445848       -12.1321
  57   2.0000      -0.437041       -11.8925
  58   2.0000      -0.433087       -11.7849
  59   2.0000      -0.429633       -11.6909
  60   2.0000      -0.424643       -11.5551
  61   2.0000      -0.421161       -11.4604
  62   2.0000      -0.412976       -11.2376
  63   2.0000      -0.348440        -9.4815
  64   2.0000      -0.329868        -8.9762
  65   2.0000      -0.329305        -8.9608
  66   2.0000      -0.290462        -7.9039
  67   0.0000       0.032012         0.8711
  68   0.0000       0.063183         1.7193
  69   0.0000       0.110271         3.0006
  70   0.0000       0.117488         3.1970
  71   0.0000       0.126492         3.4420

MULLIKEN ATOMIC CHARGES
-----------------------
   0 S :    0.108194
   1 C :   -0.085823
   2 C :   -0.063816
   3 C :    0.037278
   4 C :   -0.173453
   5 H :    0.017016
   6 C :    0.036309
   7 H :    0.012938
   8 H :    0.028411
   9 C :   -0.080284
  10 H :    0.014621
  11 H :    0.034626
  12 C :    0.037510
  13 H :    0.028062
  14 H :   -0.001255
  15 H :    0.016229
  16 S :    0.092180
  17 C :   -0.101357
  18 C :   -0.037720
  19 C :   -0.027820
  20 C :   -0.131886
  21 H :    0.043228
  22 C :    0.097849
  23 H :   -0.000950
  24 H :    0.021617
  25 C :   -0.099111
  26 H :    0.028037
  27 H :    0.029935
  28 C :   -0.054065
  29 H :    0.037020
  30 H :    0.031187
  31 H :    0.032484
  32 H :    0.016579
  33 H :    0.056232
Sum of atomic charges:   -0.0000000

LOEWDIN ATOMIC CHARGES
----------------------
   0 S :    0.397531
   1 C :   -0.181728
   2 C :   -0.058002
   3 C :   -0.060601
   4 C :   -0.184660
   5 H :    0.037068
   6 C :   -0.035926
   7 H :    0.032320
   8 H :    0.030152
   9 C :   -0.031624
  10 H :    0.015587
  11 H :    0.026804
  12 C :   -0.046698
  13 H :    0.025548
  14 H :    0.014031
  15 H :    0.021664
  16 S :    0.383815
  17 C :   -0.174388
  18 C :   -0.074731
  19 C :   -0.054833
  20 C :   -0.191642
  21 H :    0.042255
  22 C :   -0.034997
  23 H :    0.025866
  24 H :    0.026964
  25 C :   -0.039372
  26 H :    0.020653
  27 H :    0.024557
  28 C :   -0.066611
  29 H :    0.029168
  30 H :    0.027809
  31 H :    0.021687
  32 H :    0.007836
  33 H :    0.024498

  Mayer bond orders larger than 0.100000
B(  0-S ,  1-C ) :   1.1399 B(  0-S ,  4-C ) :   1.1450 B(  1-C ,  2-C ) :   1.5886
B(  1-C ,  4-C ) :   0.1033 B(  1-C , 32-H ) :   0.9774 B(  2-C ,  3-C ) :   1.2315
B(  2-C ,  6-C ) :   1.0423 B(  3-C ,  4-C ) :   1.5933 B(  3-C ,  5-H ) :   0.9863
B(  4-C , 20-C ) :   1.0141 B(  6-C ,  7-H ) :   0.9346 B(  6-C ,  8-H ) :   0.9361
B(  6-C ,  9-C ) :   1.0636 B(  9-C , 10-H ) :   0.9528 B(  9-C , 11-H ) :   0.9560
B(  9-C , 12-C ) :   1.0978 B( 12-C , 13-H ) :   0.9743 B( 12-C , 14-H ) :   0.9677
B( 12-C , 15-H ) :   0.9671 B( 16-S , 17-C ) :   1.1376 B( 16-S , 20-C ) :   1.1399
B( 17-C , 18-C ) :   1.6255 B( 17-C , 33-H ) :   0.9732 B( 18-C , 19-C ) :   1.2073
B( 18-C , 21-H ) :   0.9822 B( 19-C , 20-C ) :   1.6260 B( 19-C , 22-C ) :   1.0368
B( 22-C , 23-H ) :   0.9244 B( 22-C , 24-H ) :   0.9435 B( 22-C , 25-C ) :   1.0621
B( 25-C , 26-H ) :   0.9570 B( 25-C , 27-H ) :   0.9505 B( 25-C , 28-C ) :   1.0789
B( 28-C , 29-H ) :   0.9741 B( 28-C , 30-H ) :   0.9739 B( 28-C , 31-H ) :   0.9767

Dispersion correction           -0.013581917
FINAL SINGLE POINT ENERGY     -1339.873180072845

DIPOLE MOMENT
-------------
                                X             Y             Z
Electronic contribution:    -10.16155     -29.45363       1.70643
Nuclear contribution   :     10.40989      30.12912      -1.82140
                        -----------------------------------------
Total Dipole Moment    :      0.24834       0.67549      -0.11497
                        -----------------------------------------
Magnitude (a.u.)       :      0.72882
Magnitude (Debye)      :      1.85251

Rotational constants in cm-1:     0.016009     0.008898     0.006485
Rotational constants in MHz :   479.932426   266.768472   194.411382

                             ****ORCA TERMINATED NORMALLY****
TOTAL RUN TIME: 0 days 0 hours 0 minutes 20 seconds 209 msec
