                         Program Version 4.2.1 -  RELEASE  -
|  1> ! wB97X-D3 SP def2-SVP
|  2> %pal
|  3> nprocs 24
|  4> end
|  5>
|  6> * xyz 0 1
|  7> S 	 -106.891 	 65.067 	 -11.3969
|  8> C 	 -105.625 	 66.1771 	 -11.8366
|  9> C 	 -104.739 	 66.3658 	 -10.8276
| 10> C 	 -104.939 	 65.4163 	 -9.80643
| 11> C 	 -106.024 	 64.5812 	 -9.98774
| 12> H 	 -104.34 	 65.2943 	 -8.94313
| 13> C 	 -103.606 	 67.414 	 -10.8768
| 14> H 	 -104.112 	 68.35 	 -10.7142
| 15> H 	 -103.36 	 67.4627 	 -11.9484
| 16> C 	 -102.343 	 67.1071 	 -10.0113
| 17> H 	 -102.608 	 67.1296 	 -8.88817
| 18> H 	 -101.923 	 66.1036 	 -10.3396
| 19> C 	 -101.228 	 68.0917 	 -10.2843
| 20> H 	 -100.484 	 67.8444 	 -9.5596
| 21> H 	 -100.869 	 67.9309 	 -11.3115
| 22> H 	 -101.519 	 69.1235 	 -10.2652
| 23> S 	 -106.507 	 61.9421 	 -9.95091
| 24> C 	 -106.791 	 61.1027 	 -8.43544
| 25> C 	 -106.942 	 61.9806 	 -7.37485
| 26> C 	 -106.681 	 63.3253 	 -7.77224
| 27> C 	 -106.406 	 63.4434 	 -9.11306
| 28> H 	 -107.236 	 61.6137 	 -6.41025
| 29> C 	 -106.559 	 64.5028 	 -6.81156
| 30> H 	 -105.728 	 65.2355 	 -7.03824
| 31> H 	 -106.297 	 64.1882 	 -5.82308
| 32> C 	 -107.95 	 65.1495 	 -6.5226
| 33> H 	 -107.964 	 65.9108 	 -5.65879
| 34> H 	 -108.548 	 64.3019 	 -6.19248
| 35> C 	 -108.478 	 65.8843 	 -7.7329
| 36> H 	 -108.007 	 66.8186 	 -8.08972
| 37> H 	 -109.516 	 66.1527 	 -7.46041
| 38> H 	 -108.443 	 65.1388 	 -8.57791
| 39> H 	 -105.688 	 66.8605 	 -12.6588
| 40> H 	 -107.036 	 60.0599 	 -8.25233
| 41> *
| 42>
| 43>                          ****END OF INPUT****

CARTESIAN COORDINATES (ANGSTROEM)
---------------------------------
  S    -106.891000   65.067000  -11.396900
  C    -105.625000   66.177100  -11.836600
  C    -104.739000   66.365800  -10.827600
  C    -104.939000   65.416300   -9.806430
  C    -106.024000   64.581200   -9.987740
  H    -104.340000   65.294300   -8.943130
  C    -103.606000   67.414000  -10.876800
  H    -104.112000   68.350000  -10.714200
  H    -103.360000   67.462700  -11.948400
  C    -102.343000   67.107100  -10.011300
  H    -102.608000   67.129600   -8.888170
  H    -101.923000   66.103600  -10.339600
  C    -101.228000   68.091700  -10.284300
  H    -100.484000   67.844400   -9.559600
  H    -100.869000   67.930900  -11.311500
  H    -101.519000   69.123500  -10.265200
  S    -106.507000   61.942100   -9.950910
  C    -106.791000   61.102700   -8.435440
  C    -106.942000   61.980600   -7.374850
  C    -106.681000   63.325300   -7.772240
  C    -106.406000   63.443400   -9.113060
  H    -107.236000   61.613700   -6.410250
  C    -106.559000   64.502800   -6.811560
  H    -105.728000   65.235500   -7.038240
  H    -106.297000   64.188200   -5.823080
  C    -107.950000   65.149500   -6.522600
  H    -107.964000   65.910800   -5.658790
  H    -108.548000   64.301900   -6.192480
  C    -108.478000   65.884300   -7.732900
  H    -108.007000   66.818600   -8.089720
  H    -109.516000   66.152700   -7.460410
  H    -108.443000   65.138800   -8.577910
  H    -105.688000   66.860500  -12.658800
  H    -107.036000   60.059900   -8.252330

 Total Charge           Charge          ....    0
 Multiplicity           Mult            ....    1
 Number of Electrons    NEL             ....  134
 Basis Dimension        Dim             ....  322

ORBITAL ENERGIES
----------------

  NO   OCC          E(Eh)            E(eV)
   0   2.0000     -88.967026     -2420.9159
   1   2.0000     -88.966062     -2420.8896
   2   2.0000     -10.326299      -280.9929
   3   2.0000     -10.324953      -280.9563
   4   2.0000     -10.316568      -280.7281
   5   2.0000     -10.304965      -280.4124
   6   2.0000     -10.303964      -280.3851
   7   2.0000     -10.302737      -280.3517
   8   2.0000     -10.296783      -280.1897
   9   2.0000     -10.295822      -280.1636
  10   2.0000     -10.295041      -280.1423
  11   2.0000     -10.290561      -280.0204
  12   2.0000     -10.288747      -279.9710
  13   2.0000     -10.285274      -279.8765
  14   2.0000     -10.276245      -279.6309
  15   2.0000     -10.271215      -279.4940
  16   2.0000      -8.082062      -219.9241
  17   2.0000      -8.081109      -219.8982
  18   2.0000      -6.040585      -164.3727
  19   2.0000      -6.039506      -164.3433
  20   2.0000      -6.036501      -164.2615
  21   2.0000      -6.035643      -164.2382
  22   2.0000      -6.032796      -164.1607
  23   2.0000      -6.031899      -164.1363
  24   2.0000      -1.011995       -27.5378
  25   2.0000      -0.990162       -26.9437
  26   2.0000      -0.910236       -24.7688
  27   2.0000      -0.905058       -24.6279
  28   2.0000      -0.872663       -23.7464
  29   2.0000      -0.849922       -23.1276
  30   2.0000      -0.844814       -22.9885
  31   2.0000      -0.817174       -22.2364
  32   2.0000      -0.782469       -21.2921
  33   2.0000      -0.771048       -20.9813
  34   2.0000      -0.707784       -19.2598
  35   2.0000      -0.686604       -18.6834
  36   2.0000      -0.684515       -18.6266
  37   2.0000      -0.660194       -17.9648
  38   2.0000      -0.642126       -17.4731
  39   2.0000      -0.621082       -16.9005
  40   2.0000      -0.595589       -16.2068
  41   2.0000      -0.569843       -15.5062
  42   2.0000      -0.568539       -15.4707
  43   2.0000      -0.545667       -14.8484
  44   2.0000      -0.541358       -14.7311
  45   2.0000      -0.529642       -14.4123
  46   2.0000      -0.511881       -13.9290
  47   2.0000      -0.506532       -13.7834
  48   2.0000      -0.501109       -13.6359
  49   2.0000      -0.498301       -13.5595
  50   2.0000      -0.494645       -13.4600
  51   2.0000      -0.478170       -13.0117
  52   2.0000      -0.472302       -12.8520
  53   2.0000      -0.468251       -12.7418
  54   2.0000      -0.458827       -12.4853
  55   2.0000      -0.448612       -12.2074
  56   2.0000      -0.444408       -12.0929
  57   2.0000      -0.435098       -11.8396
  58   2.0000      -0.428923       -11.6716
  59   2.0000      -0.425520       -11.5790
  60   2.0000      -0.417879       -11.3711
  61   2.0000      -0.415993       -11.3197
  62   2.0000      -0.398315       -10.8387
  63   2.0000      -0.344089        -9.3631
  64   2.0000      -0.330810        -9.0018
  65   2.0000      -0.329734        -8.9725
  66   2.0000      -0.297110        -8.0848
  67   0.0000       0.035845         0.9754
  68   0.0000       0.068754         1.8709
  69   0.0000       0.115879         3.1532
  70   0.0000       0.122942         3.3454
  71   0.0000       0.127688         3.4746

MULLIKEN ATOMIC CHARGES
-----------------------
   0 S :    0.123053
   1 C :   -0.126965
   2 C :   -0.081189
   3 C :    0.028174
   4 C :   -0.141574
   5 H :   -0.007870
   6 C :    0.075245
   7 H :    0.034642
   8 H :    0.021959
   9 C :   -0.137610
  10 H :    0.053797
  11 H :    0.050860
  12 C :   -0.007077
  13 H :    0.035669
  14 H :    0.028003
  15 H :    0.025947
  16 S :    0.122998
  17 C :   -0.083939
  18 C :   -0.044041
  19 C :   -0.017455
  20 C :   -0.182445
  21 H :    0.014316
  22 C :    0.069836
  23 H :    0.035007
  24 H :    0.005157
  25 C :   -0.101605
  26 H :    0.035880
  27 H :    0.027363
  28 C :   -0.051735
  29 H :    0.041377
  30 H :    0.029226
  31 H :    0.035772
  32 H :    0.035559
  33 H :    0.053665
Sum of atomic charges:   -0.0000000

LOEWDIN ATOMIC CHARGES
----------------------
   0 S :    0.421290
   1 C :   -0.202553
   2 C :   -0.063142
   3 C :   -0.063043
   4 C :   -0.204005
   5 H :    0.021401
   6 C :   -0.033931
   7 H :    0.031485
   8 H :    0.033486
   9 C :   -0.047698
  10 H :    0.032035
  11 H :    0.037031
  12 C :   -0.061735
  13 H :    0.026521
  14 H :    0.027364
  15 H :    0.020726
  16 S :    0.424649
  17 C :   -0.188601
  18 C :   -0.064787
  19 C :   -0.060380
  20 C :   -0.203419
  21 H :    0.030178
  22 C :   -0.036304
  23 H :    0.033784
  24 H :    0.024347
  25 C :   -0.043094
  26 H :    0.027258
  27 H :    0.023580
  28 C :   -0.076984
  29 H :    0.028442
  30 H :    0.025530
  31 H :    0.026403
  32 H :    0.022428
  33 H :    0.031736

  Mayer bond orders larger than 0.100000
B(  0-S ,  1-C ) :   1.1388 B(  0-S ,  4-C ) :   1.1670 B(  1-C ,  2-C ) :   1.6205
B(  1-C , 32-H ) :   0.9678 B(  2-C ,  3-C ) :   1.2614 B(  2-C ,  6-C ) :   0.9900
B(  3-C ,  4-C ) :   1.5598 B(  3-C ,  5-H ) :   1.0027 B(  4-C , 20-C ) :   1.0017
B(  6-C ,  7-H ) :   0.9293 B(  6-C ,  8-H ) :   0.9456 B(  6-C ,  9-C ) :   1.0688
B(  9-C , 10-H ) :   0.9483 B(  9-C , 11-H ) :   0.9573 B(  9-C , 12-C ) :   1.0845
B( 12-C , 13-H ) :   0.9730 B( 12-C , 14-H ) :   0.9731 B( 12-C , 15-H ) :   0.9745
B( 16-S , 17-C ) :   1.1504 B( 16-S , 20-C ) :   1.1551 B( 17-C , 18-C ) :   1.6294
B( 17-C , 33-H ) :   0.9632 B( 18-C , 19-C ) :   1.2344 B( 18-C , 21-H ) :   0.9901
B( 19-C , 20-C ) :   1.6076 B( 19-C , 22-C ) :   1.0314 B( 22-C , 23-H ) :   0.9467
B( 22-C , 24-H ) :   0.9320 B( 22-C , 25-C ) :   1.0585 B( 25-C , 26-H ) :   0.9562
B( 25-C , 27-H ) :   0.9543 B( 25-C , 28-C ) :   1.0805 B( 28-C , 29-H ) :   0.9751
B( 28-C , 30-H ) :   0.9718 B( 28-C , 31-H ) :   0.9692

Dispersion correction           -0.015011773
FINAL SINGLE POINT ENERGY     -1339.876062264423

DIPOLE MOMENT
-------------
                                X             Y             Z
Electronic contribution:    -10.59017     -19.21466     -11.39658
Nuclear contribution   :     10.92680      19.60218      11.80182
                        -----------------------------------------
Total Dipole Moment    :      0.33663       0.38752       0.40524
                        -----------------------------------------
Magnitude (a.u.)       :      0.65399
Magnitude (Debye)      :      1.66232

Rotational constants in cm-1:     0.019656     0.008174     0.007603
Rotational constants in MHz :   589.282092   245.049931   227.920171

                             ****ORCA TERMINATED NORMALLY****
TOTAL RUN TIME: 0 days 0 hours 0 minutes 22 seconds 344 msec
