                         Program Version 4.2.1 -  RELEASE  -
|  1> ! wB97X-D3 SP def2-SVP
|  2> %pal
|  3> nprocs 24
|  4> end
|  5>
|  6> * xyz 0 1
|  7> S 	 -109.951 	 53.3747 	 -78.1692
|  8> C 	 -110.801 	 53.4235 	 -79.6812
|  9> C 	 -110.198 	 54.2608 	 -80.5842
| 10> C 	 -108.995 	 54.8228 	 -80.1196
| 11> C 	 -108.814 	 54.5892 	 -78.7602
| 12> H 	 -108.374 	 55.4554 	 -80.7183
| 13> C 	 -110.864 	 54.6204 	 -81.965
| 14> H 	 -111.102 	 55.6788 	 -81.9173
| 15> H 	 -111.79 	 54.0998 	 -81.9477
| 16> C 	 -109.969 	 54.295 	 -83.2064
| 17> H 	 -108.997 	 54.8003 	 -83.0384
| 18> H 	 -109.925 	 53.2515 	 -83.2015
| 19> C 	 -110.641 	 54.7828 	 -84.4965
| 20> H 	 -110.648 	 55.8731 	 -84.4904
| 21> H 	 -109.966 	 54.4677 	 -85.2737
| 22> H 	 -111.63 	 54.3635 	 -84.7629
| 23> S 	 -106.902 	 54.1174 	 -76.775
| 24> C 	 -105.853 	 55.3704 	 -76.3559
| 25> C 	 -106.253 	 56.5536 	 -76.8209
| 26> C 	 -107.312 	 56.4958 	 -77.8285
| 27> C 	 -107.837 	 55.2064 	 -77.8562
| 28> H 	 -105.561 	 57.3266 	 -76.576
| 29> C 	 -107.675 	 57.6624 	 -78.7042
| 30> H 	 -107.39 	 57.2942 	 -79.6929
| 31> H 	 -106.933 	 58.4344 	 -78.519
| 32> C 	 -109.039 	 58.1951 	 -78.7835
| 33> H 	 -109.643 	 57.3374 	 -79.1957
| 34> H 	 -109.119 	 58.9182 	 -79.6216
| 35> C 	 -109.487 	 58.7378 	 -77.3495
| 36> H 	 -110.48 	 59.3526 	 -77.3536
| 37> H 	 -108.601 	 59.3034 	 -76.9055
| 38> H 	 -109.587 	 57.9551 	 -76.6182
| 39> H 	 -111.679 	 52.8696 	 -79.8912
| 40> H 	 -105.034 	 55.3343 	 -75.6592
| 41> *
| 42>
| 43>                          ****END OF INPUT****

CARTESIAN COORDINATES (ANGSTROEM)
---------------------------------
  S    -109.951000   53.374700  -78.169200
  C    -110.801000   53.423500  -79.681200
  C    -110.198000   54.260800  -80.584200
  C    -108.995000   54.822800  -80.119600
  C    -108.814000   54.589200  -78.760200
  H    -108.374000   55.455400  -80.718300
  C    -110.864000   54.620400  -81.965000
  H    -111.102000   55.678800  -81.917300
  H    -111.790000   54.099800  -81.947700
  C    -109.969000   54.295000  -83.206400
  H    -108.997000   54.800300  -83.038400
  H    -109.925000   53.251500  -83.201500
  C    -110.641000   54.782800  -84.496500
  H    -110.648000   55.873100  -84.490400
  H    -109.966000   54.467700  -85.273700
  H    -111.630000   54.363500  -84.762900
  S    -106.902000   54.117400  -76.775000
  C    -105.853000   55.370400  -76.355900
  C    -106.253000   56.553600  -76.820900
  C    -107.312000   56.495800  -77.828500
  C    -107.837000   55.206400  -77.856200
  H    -105.561000   57.326600  -76.576000
  C    -107.675000   57.662400  -78.704200
  H    -107.390000   57.294200  -79.692900
  H    -106.933000   58.434400  -78.519000
  C    -109.039000   58.195100  -78.783500
  H    -109.643000   57.337400  -79.195700
  H    -109.119000   58.918200  -79.621600
  C    -109.487000   58.737800  -77.349500
  H    -110.480000   59.352600  -77.353600
  H    -108.601000   59.303400  -76.905500
  H    -109.587000   57.955100  -76.618200
  H    -111.679000   52.869600  -79.891200
  H    -105.034000   55.334300  -75.659200

 Total Charge           Charge          ....    0
 Multiplicity           Mult            ....    1
 Number of Electrons    NEL             ....  134
 Basis Dimension        Dim             ....  322

ORBITAL ENERGIES
----------------

  NO   OCC          E(Eh)            E(eV)
   0   2.0000     -88.965535     -2420.8753
   1   2.0000     -88.961961     -2420.7780
   2   2.0000     -10.332922      -281.1731
   3   2.0000     -10.328875      -281.0630
   4   2.0000     -10.310436      -280.5612
   5   2.0000     -10.307400      -280.4786
   6   2.0000     -10.306696      -280.4595
   7   2.0000     -10.296929      -280.1937
   8   2.0000     -10.292930      -280.0849
   9   2.0000     -10.291690      -280.0511
  10   2.0000     -10.291000      -280.0324
  11   2.0000     -10.290041      -280.0062
  12   2.0000     -10.289108      -279.9809
  13   2.0000     -10.288672      -279.9690
  14   2.0000     -10.286347      -279.9057
  15   2.0000     -10.280685      -279.7517
  16   2.0000      -8.080419      -219.8794
  17   2.0000      -8.077595      -219.8025
  18   2.0000      -6.038831      -164.3249
  19   2.0000      -6.036089      -164.2503
  20   2.0000      -6.035034      -164.2216
  21   2.0000      -6.032052      -164.1405
  22   2.0000      -6.031153      -164.1160
  23   2.0000      -6.028225      -164.0364
  24   2.0000      -1.007784       -27.4232
  25   2.0000      -0.988003       -26.8849
  26   2.0000      -0.916951       -24.9515
  27   2.0000      -0.907228       -24.6869
  28   2.0000      -0.870323       -23.6827
  29   2.0000      -0.850687       -23.1484
  30   2.0000      -0.841109       -22.8877
  31   2.0000      -0.816968       -22.2308
  32   2.0000      -0.782782       -21.3006
  33   2.0000      -0.772022       -21.0078
  34   2.0000      -0.716763       -19.5041
  35   2.0000      -0.699619       -19.0376
  36   2.0000      -0.688910       -18.7462
  37   2.0000      -0.658878       -17.9290
  38   2.0000      -0.638922       -17.3859
  39   2.0000      -0.624684       -16.9985
  40   2.0000      -0.587166       -15.9776
  41   2.0000      -0.575584       -15.6624
  42   2.0000      -0.563358       -15.3297
  43   2.0000      -0.554398       -15.0859
  44   2.0000      -0.546552       -14.8724
  45   2.0000      -0.521488       -14.1904
  46   2.0000      -0.512862       -13.9557
  47   2.0000      -0.503943       -13.7130
  48   2.0000      -0.503139       -13.6911
  49   2.0000      -0.499651       -13.5962
  50   2.0000      -0.485470       -13.2103
  51   2.0000      -0.480561       -13.0767
  52   2.0000      -0.475776       -12.9465
  53   2.0000      -0.468180       -12.7398
  54   2.0000      -0.460512       -12.5312
  55   2.0000      -0.452647       -12.3172
  56   2.0000      -0.444966       -12.1082
  57   2.0000      -0.437873       -11.9151
  58   2.0000      -0.431202       -11.7336
  59   2.0000      -0.430432       -11.7127
  60   2.0000      -0.422088       -11.4856
  61   2.0000      -0.413078       -11.2404
  62   2.0000      -0.407584       -11.0909
  63   2.0000      -0.351134        -9.5549
  64   2.0000      -0.332571        -9.0497
  65   2.0000      -0.328598        -8.9416
  66   2.0000      -0.287576        -7.8253
  67   0.0000       0.028020         0.7625
  68   0.0000       0.073864         2.0099
  69   0.0000       0.109218         2.9720
  70   0.0000       0.119931         3.2635
  71   0.0000       0.137811         3.7500

MULLIKEN ATOMIC CHARGES
-----------------------
   0 S :    0.109375
   1 C :   -0.106038
   2 C :   -0.109099
   3 C :    0.029851
   4 C :   -0.144590
   5 H :    0.000397
   6 C :    0.083021
   7 H :    0.028803
   8 H :    0.001406
   9 C :   -0.082352
  10 H :    0.041684
  11 H :    0.026843
  12 C :   -0.035672
  13 H :    0.030517
  14 H :    0.028984
  15 H :    0.041116
  16 S :    0.099569
  17 C :   -0.077032
  18 C :   -0.032199
  19 C :   -0.059409
  20 C :   -0.134574
  21 H :    0.007221
  22 C :    0.050974
  23 H :    0.025027
  24 H :    0.011803
  25 C :   -0.033386
  26 H :    0.040605
  27 H :    0.030441
  28 C :   -0.091072
  29 H :    0.059309
  30 H :    0.033347
  31 H :    0.044193
  32 H :    0.030817
  33 H :    0.050123
Sum of atomic charges:    0.0000000

LOEWDIN ATOMIC CHARGES
----------------------
   0 S :    0.403224
   1 C :   -0.201220
   2 C :   -0.063196
   3 C :   -0.065832
   4 C :   -0.178806
   5 H :    0.024643
   6 C :   -0.021462
   7 H :    0.026467
   8 H :    0.020500
   9 C :   -0.032225
  10 H :    0.029248
  11 H :    0.018799
  12 C :   -0.065346
  13 H :    0.024818
  14 H :    0.025477
  15 H :    0.029568
  16 S :    0.401386
  17 C :   -0.194644
  18 C :   -0.081309
  19 C :   -0.042389
  20 C :   -0.189171
  21 H :    0.027747
  22 C :   -0.041713
  23 H :    0.035364
  24 H :    0.028048
  25 C :   -0.047607
  26 H :    0.031976
  27 H :    0.028890
  28 C :   -0.077769
  29 H :    0.038063
  30 H :    0.031254
  31 H :    0.025159
  32 H :    0.020409
  33 H :    0.031650

  Mayer bond orders larger than 0.100000
B(  0-S ,  1-C ) :   1.1282 B(  0-S ,  4-C ) :   1.1641 B(  1-C ,  2-C ) :   1.6293
B(  1-C , 32-H ) :   0.9686 B(  2-C ,  3-C ) :   1.2508 B(  2-C ,  6-C ) :   1.0080
B(  3-C ,  4-C ) :   1.5519 B(  3-C ,  5-H ) :   0.9950 B(  4-C , 20-C ) :   1.0452
B(  6-C ,  7-H ) :   0.9438 B(  6-C ,  8-H ) :   0.9407 B(  6-C ,  9-C ) :   1.0571
B(  9-C , 10-H ) :   0.9562 B(  9-C , 11-H ) :   0.9578 B(  9-C , 12-C ) :   1.0891
B( 12-C , 13-H ) :   0.9745 B( 12-C , 14-H ) :   0.9734 B( 12-C , 15-H ) :   0.9742
B( 16-S , 17-C ) :   1.1551 B( 16-S , 20-C ) :   1.1207 B( 17-C , 18-C ) :   1.6737
B( 17-C , 33-H ) :   0.9590 B( 18-C , 19-C ) :   1.1937 B( 18-C , 21-H ) :   0.9858
B( 19-C , 20-C ) :   1.6178 B( 19-C , 22-C ) :   1.0321 B( 22-C , 23-H ) :   0.9210
B( 22-C , 24-H ) :   0.9259 B( 22-C , 25-C ) :   1.0931 B( 25-C , 26-H ) :   0.9436
B( 25-C , 27-H ) :   0.9498 B( 25-C , 28-C ) :   1.0449 B( 28-C , 29-H ) :   0.9762
B( 28-C , 30-H ) :   0.9756 B( 28-C , 31-H ) :   0.9745

Dispersion correction           -0.014696184
FINAL SINGLE POINT ENERGY     -1339.867747468782

DIPOLE MOMENT
-------------
                                X             Y             Z
Electronic contribution:      8.27884     -16.99563      21.20834
Nuclear contribution   :     -8.21166      17.44883     -21.76959
                        -----------------------------------------
Total Dipole Moment    :      0.06718       0.45320      -0.56125
                        -----------------------------------------
Magnitude (a.u.)       :      0.72450
Magnitude (Debye)      :      1.84154

Rotational constants in cm-1:     0.019590     0.008358     0.006997
Rotational constants in MHz :   587.289608   250.559618   209.773599

                             ****ORCA TERMINATED NORMALLY****
TOTAL RUN TIME: 0 days 0 hours 0 minutes 22 seconds 274 msec
