                         Program Version 4.2.1 -  RELEASE  -
|  1> ! wB97X-D3 SP def2-SVP
|  2> %pal
|  3> nprocs 24
|  4> end
|  5>
|  6> * xyz 0 1
|  7> S 	 -126.71 	 68.519 	 -50.5399
|  8> C 	 -125.611 	 68.0488 	 -51.8686
|  9> C 	 -124.758 	 69.1103 	 -52.1467
| 10> C 	 -124.869 	 70.167 	 -51.196
| 11> C 	 -125.611 	 69.8574 	 -50.0865
| 12> H 	 -124.35 	 71.125 	 -51.3337
| 13> C 	 -123.942 	 69.2346 	 -53.4725
| 14> H 	 -123.692 	 68.165 	 -53.7553
| 15> H 	 -123 	 69.6437 	 -53.1863
| 16> C 	 -124.578 	 69.9773 	 -54.5806
| 17> H 	 -124.946 	 70.9345 	 -54.4532
| 18> H 	 -123.839 	 70.1459 	 -55.3062
| 19> C 	 -125.67 	 69.1002 	 -55.4354
| 20> H 	 -126.176 	 69.5751 	 -56.2763
| 21> H 	 -125.26 	 68.1358 	 -55.8343
| 22> H 	 -126.557 	 68.8928 	 -54.8066
| 23> S 	 -127.549 	 70.9541 	 -48.5426
| 24> C 	 -127.038 	 72.1045 	 -47.3112
| 25> C 	 -125.723 	 72.4184 	 -47.4102
| 26> C 	 -125.065 	 71.7309 	 -48.4797
| 27> C 	 -125.908 	 70.786 	 -49.0499
| 28> H 	 -125.368 	 73.0418 	 -46.6678
| 29> C 	 -123.578 	 71.7974 	 -48.5649
| 30> H 	 -123.258 	 72.7424 	 -48.0774
| 31> H 	 -123.127 	 71.8192 	 -49.5642
| 32> C 	 -122.881 	 70.6823 	 -47.8033
| 33> H 	 -123.035 	 69.6875 	 -48.2647
| 34> H 	 -123.392 	 70.6194 	 -46.8778
| 35> C 	 -121.384 	 71.019 	 -47.4951
| 36> H 	 -121.287 	 72.0361 	 -47.1923
| 37> H 	 -120.763 	 70.9597 	 -48.3806
| 38> H 	 -120.898 	 70.4609 	 -46.6685
| 39> H 	 -125.783 	 67.299 	 -52.5949
| 40> H 	 -127.737 	 72.514 	 -46.5388
| 41> *
| 42>
| 43>                          ****END OF INPUT****

CARTESIAN COORDINATES (ANGSTROEM)
---------------------------------
  S    -126.710000   68.519000  -50.539900
  C    -125.611000   68.048800  -51.868600
  C    -124.758000   69.110300  -52.146700
  C    -124.869000   70.167000  -51.196000
  C    -125.611000   69.857400  -50.086500
  H    -124.350000   71.125000  -51.333700
  C    -123.942000   69.234600  -53.472500
  H    -123.692000   68.165000  -53.755300
  H    -123.000000   69.643700  -53.186300
  C    -124.578000   69.977300  -54.580600
  H    -124.946000   70.934500  -54.453200
  H    -123.839000   70.145900  -55.306200
  C    -125.670000   69.100200  -55.435400
  H    -126.176000   69.575100  -56.276300
  H    -125.260000   68.135800  -55.834300
  H    -126.557000   68.892800  -54.806600
  S    -127.549000   70.954100  -48.542600
  C    -127.038000   72.104500  -47.311200
  C    -125.723000   72.418400  -47.410200
  C    -125.065000   71.730900  -48.479700
  C    -125.908000   70.786000  -49.049900
  H    -125.368000   73.041800  -46.667800
  C    -123.578000   71.797400  -48.564900
  H    -123.258000   72.742400  -48.077400
  H    -123.127000   71.819200  -49.564200
  C    -122.881000   70.682300  -47.803300
  H    -123.035000   69.687500  -48.264700
  H    -123.392000   70.619400  -46.877800
  C    -121.384000   71.019000  -47.495100
  H    -121.287000   72.036100  -47.192300
  H    -120.763000   70.959700  -48.380600
  H    -120.898000   70.460900  -46.668500
  H    -125.783000   67.299000  -52.594900
  H    -127.737000   72.514000  -46.538800

 Total Charge           Charge          ....    0
 Multiplicity           Mult            ....    1
 Number of Electrons    NEL             ....  134
 Basis Dimension        Dim             ....  322

ORBITAL ENERGIES
----------------

  NO   OCC          E(Eh)            E(eV)
   0   2.0000     -88.965340     -2420.8700
   1   2.0000     -88.965128     -2420.8642
   2   2.0000     -10.328516      -281.0532
   3   2.0000     -10.323467      -280.9158
   4   2.0000     -10.316347      -280.7221
   5   2.0000     -10.314146      -280.6622
   6   2.0000     -10.301749      -280.3248
   7   2.0000     -10.301736      -280.3245
   8   2.0000     -10.298873      -280.2466
   9   2.0000     -10.294317      -280.1226
  10   2.0000     -10.290496      -280.0186
  11   2.0000     -10.287637      -279.9408
  12   2.0000     -10.287041      -279.9246
  13   2.0000     -10.286225      -279.9024
  14   2.0000     -10.281191      -279.7654
  15   2.0000     -10.276354      -279.6338
  16   2.0000      -8.080654      -219.8858
  17   2.0000      -8.078755      -219.8341
  18   2.0000      -6.039087      -164.3319
  19   2.0000      -6.037530      -164.2895
  20   2.0000      -6.035255      -164.2276
  21   2.0000      -6.033852      -164.1895
  22   2.0000      -6.031291      -164.1198
  23   2.0000      -6.028851      -164.0534
  24   2.0000      -1.011416       -27.5220
  25   2.0000      -0.982729       -26.7414
  26   2.0000      -0.912307       -24.8251
  27   2.0000      -0.910214       -24.7682
  28   2.0000      -0.873735       -23.7755
  29   2.0000      -0.850666       -23.1478
  30   2.0000      -0.837251       -22.7827
  31   2.0000      -0.813846       -22.1459
  32   2.0000      -0.782317       -21.2879
  33   2.0000      -0.772883       -21.0312
  34   2.0000      -0.716805       -19.5052
  35   2.0000      -0.707736       -19.2585
  36   2.0000      -0.694785       -18.9061
  37   2.0000      -0.666353       -18.1324
  38   2.0000      -0.632834       -17.2203
  39   2.0000      -0.623890       -16.9769
  40   2.0000      -0.600439       -16.3388
  41   2.0000      -0.569812       -15.5054
  42   2.0000      -0.559354       -15.2208
  43   2.0000      -0.552280       -15.0283
  44   2.0000      -0.537146       -14.6165
  45   2.0000      -0.519456       -14.1351
  46   2.0000      -0.517815       -14.0905
  47   2.0000      -0.514704       -14.0058
  48   2.0000      -0.502008       -13.6603
  49   2.0000      -0.492360       -13.3978
  50   2.0000      -0.491378       -13.3711
  51   2.0000      -0.477076       -12.9819
  52   2.0000      -0.469139       -12.7659
  53   2.0000      -0.461295       -12.5525
  54   2.0000      -0.457069       -12.4375
  55   2.0000      -0.451847       -12.2954
  56   2.0000      -0.449080       -12.2201
  57   2.0000      -0.442283       -12.0351
  58   2.0000      -0.436798       -11.8859
  59   2.0000      -0.425211       -11.5706
  60   2.0000      -0.423516       -11.5245
  61   2.0000      -0.415295       -11.3007
  62   2.0000      -0.405133       -11.0242
  63   2.0000      -0.358984        -9.7684
  64   2.0000      -0.335024        -9.1165
  65   2.0000      -0.324175        -8.8213
  66   2.0000      -0.282985        -7.7004
  67   0.0000       0.013223         0.3598
  68   0.0000       0.071831         1.9546
  69   0.0000       0.096902         2.6368
  70   0.0000       0.124046         3.3755
  71   0.0000       0.136854         3.7240

MULLIKEN ATOMIC CHARGES
-----------------------
   0 S :    0.074831
   1 C :   -0.076238
   2 C :   -0.119284
   3 C :   -0.004856
   4 C :   -0.106930
   5 H :    0.029156
   6 C :    0.070002
   7 H :    0.031232
   8 H :    0.019181
   9 C :    0.009177
  10 H :    0.016498
  11 H :    0.018500
  12 C :   -0.113905
  13 H :    0.032728
  14 H :    0.037929
  15 H :    0.036955
  16 S :    0.101883
  17 C :   -0.111674
  18 C :   -0.007589
  19 C :   -0.012790
  20 C :   -0.135519
  21 H :   -0.006491
  22 C :    0.026639
  23 H :    0.017782
  24 H :    0.022979
  25 C :   -0.046741
  26 H :    0.043959
  27 H :    0.012405
  28 C :   -0.042999
  29 H :    0.008846
  30 H :    0.026453
  31 H :    0.041513
  32 H :    0.036969
  33 H :    0.069401
Sum of atomic charges:    0.0000000

LOEWDIN ATOMIC CHARGES
----------------------
   0 S :    0.365048
   1 C :   -0.179059
   2 C :   -0.061151
   3 C :   -0.057264
   4 C :   -0.178527
   5 H :    0.033844
   6 C :   -0.027542
   7 H :    0.040677
   8 H :    0.025834
   9 C :   -0.029391
  10 H :    0.019025
  11 H :    0.024375
  12 C :   -0.077921
  13 H :    0.025347
  14 H :    0.026618
  15 H :    0.024950
  16 S :    0.402670
  17 C :   -0.183335
  18 C :   -0.060689
  19 C :   -0.059619
  20 C :   -0.195015
  21 H :    0.023254
  22 C :   -0.036810
  23 H :    0.032234
  24 H :    0.025212
  25 C :   -0.034996
  26 H :    0.030119
  27 H :    0.018058
  28 C :   -0.067394
  29 H :    0.018072
  30 H :    0.022755
  31 H :    0.031684
  32 H :    0.021030
  33 H :    0.037905

  Mayer bond orders larger than 0.100000
B(  0-S ,  1-C ) :   1.1166 B(  0-S ,  4-C ) :   1.1250 B(  1-C ,  2-C ) :   1.6213
B(  1-C , 32-H ) :   0.9683 B(  2-C ,  3-C ) :   1.2532 B(  2-C ,  6-C ) :   1.0141
B(  3-C ,  4-C ) :   1.5475 B(  3-C ,  5-H ) :   0.9864 B(  4-C , 20-C ) :   1.1182
B(  6-C ,  7-H ) :   0.9414 B(  6-C ,  8-H ) :   0.9380 B(  6-C ,  9-C ) :   1.0748
B(  9-C , 10-H ) :   0.9584 B(  9-C , 11-H ) :   0.9488 B(  9-C , 12-C ) :   1.0569
B( 12-C , 13-H ) :   0.9774 B( 12-C , 14-H ) :   0.9785 B( 12-C , 15-H ) :   0.9788
B( 16-S , 17-C ) :   1.1310 B( 16-S , 20-C ) :   1.1438 B( 17-C , 18-C ) :   1.6486
B( 17-C , 33-H ) :   0.9605 B( 18-C , 19-C ) :   1.2042 B( 18-C , 21-H ) :   1.0044
B( 19-C , 20-C ) :   1.5731 B( 19-C , 22-C ) :   1.0753 B( 22-C , 23-H ) :   0.9320
B( 22-C , 24-H ) :   0.9309 B( 22-C , 25-C ) :   1.0634 B( 25-C , 26-H ) :   0.9534
B( 25-C , 27-H ) :   0.9535 B( 25-C , 28-C ) :   1.0726 B( 28-C , 29-H ) :   0.9732
B( 28-C , 30-H ) :   0.9766 B( 28-C , 31-H ) :   0.9769

Dispersion correction           -0.014404832
FINAL SINGLE POINT ENERGY     -1339.849249518333

DIPOLE MOMENT
-------------
                                X             Y             Z
Electronic contribution:    -21.32714      -2.63370      11.50698
Nuclear contribution   :     21.82857       3.06727     -11.78214
                        -----------------------------------------
Total Dipole Moment    :      0.50142       0.43357      -0.27516
                        -----------------------------------------
Magnitude (a.u.)       :      0.71772
Magnitude (Debye)      :      1.82429

Rotational constants in cm-1:     0.019058     0.008580     0.006813
Rotational constants in MHz :   571.352449   257.226381   204.239817

                             ****ORCA TERMINATED NORMALLY****
TOTAL RUN TIME: 0 days 0 hours 0 minutes 20 seconds 648 msec
