                         Program Version 4.2.1 -  RELEASE  -
|  1> ! wB97X-D3 SP def2-SVP
|  2> %pal
|  3> nprocs 24
|  4> end
|  5>
|  6> * xyz 0 1
|  7> S 	 -114.264 	 47.7243 	 -74.9301
|  8> C 	 -114.639 	 48.1286 	 -76.5834
|  9> C 	 -113.706 	 48.945 	 -77.1511
| 10> C 	 -112.945 	 49.5599 	 -76.1268
| 11> C 	 -113.092 	 49.0099 	 -74.8749
| 12> H 	 -112.327 	 50.4092 	 -76.2291
| 13> C 	 -113.728 	 49.5061 	 -78.553
| 14> H 	 -113.639 	 48.6669 	 -79.2776
| 15> H 	 -112.748 	 49.973 	 -78.6372
| 16> C 	 -114.907 	 50.3824 	 -78.8193
| 17> H 	 -114.95 	 50.7272 	 -79.8371
| 18> H 	 -115.838 	 49.8416 	 -78.6097
| 19> C 	 -115.11 	 51.5922 	 -77.8805
| 20> H 	 -115.077 	 51.3151 	 -76.8413
| 21> H 	 -114.312 	 52.3482 	 -78.0033
| 22> H 	 -116.024 	 52.131 	 -78.0016
| 23> S 	 -113.665 	 49.7709 	 -72.4203
| 24> C 	 -112.502 	 50.5129 	 -71.3679
| 25> C 	 -111.398 	 50.8739 	 -72.0912
| 26> C 	 -111.297 	 50.2718 	 -73.3667
| 27> C 	 -112.527 	 49.6141 	 -73.6534
| 28> H 	 -110.581 	 51.4113 	 -71.6382
| 29> C 	 -110.154 	 50.5051 	 -74.3775
| 30> H 	 -109.987 	 51.5831 	 -74.6041
| 31> H 	 -110.365 	 50.045 	 -75.3498
| 32> C 	 -108.839 	 49.7631 	 -74.0546
| 33> H 	 -108.988 	 48.6486 	 -74.0357
| 34> H 	 -108.546 	 50.2305 	 -73.1244
| 35> C 	 -107.774 	 49.9413 	 -75.192
| 36> H 	 -106.927 	 49.4336 	 -74.8856
| 37> H 	 -107.388 	 50.922 	 -75.2927
| 38> H 	 -108.066 	 49.5611 	 -76.155
| 39> H 	 -115.549 	 47.8322 	 -77.0488
| 40> H 	 -112.687 	 50.8608 	 -70.3384
| 41> *
| 42>
| 43>                          ****END OF INPUT****

CARTESIAN COORDINATES (ANGSTROEM)
---------------------------------
  S    -114.264000   47.724300  -74.930100
  C    -114.639000   48.128600  -76.583400
  C    -113.706000   48.945000  -77.151100
  C    -112.945000   49.559900  -76.126800
  C    -113.092000   49.009900  -74.874900
  H    -112.327000   50.409200  -76.229100
  C    -113.728000   49.506100  -78.553000
  H    -113.639000   48.666900  -79.277600
  H    -112.748000   49.973000  -78.637200
  C    -114.907000   50.382400  -78.819300
  H    -114.950000   50.727200  -79.837100
  H    -115.838000   49.841600  -78.609700
  C    -115.110000   51.592200  -77.880500
  H    -115.077000   51.315100  -76.841300
  H    -114.312000   52.348200  -78.003300
  H    -116.024000   52.131000  -78.001600
  S    -113.665000   49.770900  -72.420300
  C    -112.502000   50.512900  -71.367900
  C    -111.398000   50.873900  -72.091200
  C    -111.297000   50.271800  -73.366700
  C    -112.527000   49.614100  -73.653400
  H    -110.581000   51.411300  -71.638200
  C    -110.154000   50.505100  -74.377500
  H    -109.987000   51.583100  -74.604100
  H    -110.365000   50.045000  -75.349800
  C    -108.839000   49.763100  -74.054600
  H    -108.988000   48.648600  -74.035700
  H    -108.546000   50.230500  -73.124400
  C    -107.774000   49.941300  -75.192000
  H    -106.927000   49.433600  -74.885600
  H    -107.388000   50.922000  -75.292700
  H    -108.066000   49.561100  -76.155000
  H    -115.549000   47.832200  -77.048800
  H    -112.687000   50.860800  -70.338400

 Total Charge           Charge          ....    0
 Multiplicity           Mult            ....    1
 Number of Electrons    NEL             ....  134
 Basis Dimension        Dim             ....  322

ORBITAL ENERGIES
----------------

  NO   OCC          E(Eh)            E(eV)
   0   2.0000     -88.965920     -2420.8858
   1   2.0000     -88.964937     -2420.8590
   2   2.0000     -10.325419      -280.9689
   3   2.0000     -10.324050      -280.9317
   4   2.0000     -10.312619      -280.6206
   5   2.0000     -10.309528      -280.5365
   6   2.0000     -10.304871      -280.4098
   7   2.0000     -10.296303      -280.1766
   8   2.0000     -10.294114      -280.1171
   9   2.0000     -10.293429      -280.0984
  10   2.0000     -10.290351      -280.0147
  11   2.0000     -10.290048      -280.0064
  12   2.0000     -10.287173      -279.9282
  13   2.0000     -10.285627      -279.8861
  14   2.0000     -10.271885      -279.5122
  15   2.0000     -10.268795      -279.4281
  16   2.0000      -8.081091      -219.8977
  17   2.0000      -8.080973      -219.8945
  18   2.0000      -6.039433      -164.3413
  19   2.0000      -6.039374      -164.3397
  20   2.0000      -6.035491      -164.2341
  21   2.0000      -6.035284      -164.2284
  22   2.0000      -6.032091      -164.1415
  23   2.0000      -6.031734      -164.1318
  24   2.0000      -1.014310       -27.6008
  25   2.0000      -0.991717       -26.9860
  26   2.0000      -0.917737       -24.9729
  27   2.0000      -0.904699       -24.6181
  28   2.0000      -0.869813       -23.6688
  29   2.0000      -0.852254       -23.1910
  30   2.0000      -0.845828       -23.0162
  31   2.0000      -0.813728       -22.1427
  32   2.0000      -0.787007       -21.4156
  33   2.0000      -0.775824       -21.1112
  34   2.0000      -0.708764       -19.2865
  35   2.0000      -0.700545       -19.0628
  36   2.0000      -0.689347       -18.7581
  37   2.0000      -0.660887       -17.9836
  38   2.0000      -0.641551       -17.4575
  39   2.0000      -0.616793       -16.7838
  40   2.0000      -0.597203       -16.2507
  41   2.0000      -0.576918       -15.6987
  42   2.0000      -0.569460       -15.4958
  43   2.0000      -0.551817       -15.0157
  44   2.0000      -0.539876       -14.6908
  45   2.0000      -0.519595       -14.1389
  46   2.0000      -0.516527       -14.0554
  47   2.0000      -0.511249       -13.9118
  48   2.0000      -0.508354       -13.8330
  49   2.0000      -0.497161       -13.5284
  50   2.0000      -0.489509       -13.3202
  51   2.0000      -0.478694       -13.0259
  52   2.0000      -0.474841       -12.9211
  53   2.0000      -0.466990       -12.7074
  54   2.0000      -0.463199       -12.6043
  55   2.0000      -0.451017       -12.2728
  56   2.0000      -0.446214       -12.1421
  57   2.0000      -0.440209       -11.9787
  58   2.0000      -0.434592       -11.8258
  59   2.0000      -0.423667       -11.5286
  60   2.0000      -0.423050       -11.5118
  61   2.0000      -0.410541       -11.1714
  62   2.0000      -0.408812       -11.1243
  63   2.0000      -0.348426        -9.4811
  64   2.0000      -0.332383        -9.0446
  65   2.0000      -0.329692        -8.9714
  66   2.0000      -0.286657        -7.8003
  67   0.0000       0.025036         0.6813
  68   0.0000       0.080324         2.1857
  69   0.0000       0.110541         3.0080
  70   0.0000       0.112770         3.0686
  71   0.0000       0.140017         3.8101

MULLIKEN ATOMIC CHARGES
-----------------------
   0 S :    0.116150
   1 C :   -0.144870
   2 C :   -0.074447
   3 C :    0.005970
   4 C :   -0.129796
   5 H :    0.002483
   6 C :    0.094339
   7 H :    0.036419
   8 H :    0.016997
   9 C :   -0.042151
  10 H :    0.030765
  11 H :    0.024604
  12 C :   -0.067764
  13 H :    0.039929
  14 H :    0.021232
  15 H :    0.028555
  16 S :    0.118221
  17 C :   -0.101621
  18 C :   -0.037466
  19 C :   -0.012956
  20 C :   -0.157873
  21 H :    0.016417
  22 C :    0.019203
  23 H :    0.044506
  24 H :    0.012184
  25 C :   -0.097632
  26 H :    0.051994
  27 H :    0.024319
  28 C :   -0.001171
  29 H :    0.012198
  30 H :    0.013088
  31 H :    0.030063
  32 H :    0.043937
  33 H :    0.064172
Sum of atomic charges:   -0.0000000

LOEWDIN ATOMIC CHARGES
----------------------
   0 S :    0.404050
   1 C :   -0.185201
   2 C :   -0.064037
   3 C :   -0.056979
   4 C :   -0.204892
   5 H :    0.022547
   6 C :   -0.033169
   7 H :    0.038524
   8 H :    0.029618
   9 C :   -0.038045
  10 H :    0.023534
  11 H :    0.027866
  12 C :   -0.066441
  13 H :    0.025175
  14 H :    0.021804
  15 H :    0.023611
  16 S :    0.448375
  17 C :   -0.204313
  18 C :   -0.068684
  19 C :   -0.062715
  20 C :   -0.207677
  21 H :    0.028538
  22 C :   -0.042649
  23 H :    0.034850
  24 H :    0.026710
  25 C :   -0.033455
  26 H :    0.036166
  27 H :    0.017975
  28 C :   -0.059766
  29 H :    0.019633
  30 H :    0.019188
  31 H :    0.023827
  32 H :    0.020971
  33 H :    0.035059

  Mayer bond orders larger than 0.100000
B(  0-S ,  1-C ) :   1.1501 B(  0-S ,  4-C ) :   1.1384 B(  1-C ,  2-C ) :   1.5879
B(  1-C , 32-H ) :   0.9742 B(  2-C ,  3-C ) :   1.2334 B(  2-C ,  6-C ) :   1.0234
B(  3-C ,  4-C ) :   1.5827 B(  3-C ,  5-H ) :   0.9922 B(  4-C , 20-C ) :   1.0317
B(  6-C ,  7-H ) :   0.9310 B(  6-C ,  8-H ) :   0.9398 B(  6-C ,  9-C ) :   1.0767
B(  9-C , 10-H ) :   0.9553 B(  9-C , 11-H ) :   0.9548 B(  9-C , 12-C ) :   1.0726
B( 12-C , 13-H ) :   0.9724 B( 12-C , 14-H ) :   0.9755 B( 12-C , 15-H ) :   0.9745
B( 16-S , 17-C ) :   1.1558 B( 16-S , 20-C ) :   1.1978 B( 17-C , 18-C ) :   1.5839
B( 17-C , 33-H ) :   0.9672 B( 18-C , 19-C ) :   1.2817 B( 18-C , 21-H ) :   0.9837
B( 19-C , 20-C ) :   1.5371 B( 19-C , 22-C ) :   1.0351 B( 22-C , 23-H ) :   0.9464
B( 22-C , 24-H ) :   0.9341 B( 22-C , 25-C ) :   1.0510 B( 25-C , 26-H ) :   0.9575
B( 25-C , 27-H ) :   0.9606 B( 25-C , 28-C ) :   1.0856 B( 28-C , 29-H ) :   0.9712
B( 28-C , 30-H ) :   0.9711 B( 28-C , 31-H ) :   0.9736

Dispersion correction           -0.014357949
FINAL SINGLE POINT ENERGY     -1339.864522623439

DIPOLE MOMENT
-------------
                                X             Y             Z
Electronic contribution:    -13.82328     -11.29093      17.65919
Nuclear contribution   :     14.04847      11.76503     -18.07133
                        -----------------------------------------
Total Dipole Moment    :      0.22519       0.47410      -0.41213
                        -----------------------------------------
Magnitude (a.u.)       :      0.66733
Magnitude (Debye)      :      1.69622

Rotational constants in cm-1:     0.016902     0.009210     0.007297
Rotational constants in MHz :   506.715511   276.099812   218.750188

                             ****ORCA TERMINATED NORMALLY****
TOTAL RUN TIME: 0 days 0 hours 0 minutes 21 seconds 928 msec
