                         Program Version 4.2.1 -  RELEASE  -
|  1> ! wB97X-D3 SP def2-SVP
|  2> %pal
|  3> nprocs 24
|  4> end
|  5>
|  6> * xyz 0 1
|  7> S 	 -52.1043 	 -49.3053 	 -77.7313
|  8> C 	 -53.6854 	 -48.8515 	 -77.0927
|  9> C 	 -54.1 	 -47.6456 	 -77.5676
| 10> C 	 -53.158 	 -46.9486 	 -78.4001
| 11> C 	 -52.0827 	 -47.7869 	 -78.6171
| 12> H 	 -53.1861 	 -45.9146 	 -78.8261
| 13> C 	 -55.4649 	 -47.0678 	 -77.3696
| 14> H 	 -56.1917 	 -47.8552 	 -77.3485
| 15> H 	 -55.7351 	 -46.3875 	 -78.2429
| 16> C 	 -55.6449 	 -46.2783 	 -76.0944
| 17> H 	 -55.5836 	 -46.9267 	 -75.2198
| 18> H 	 -54.7906 	 -45.5937 	 -76.055
| 19> C 	 -56.9927 	 -45.5349 	 -76.0403
| 20> H 	 -57.8841 	 -46.1301 	 -76.0481
| 21> H 	 -57.0775 	 -45.1575 	 -75.0833
| 22> H 	 -57.0777 	 -44.7913 	 -76.8422
| 23> S 	 -49.3611 	 -47.6223 	 -78.5235
| 24> C 	 -48.5278 	 -47.195 	 -79.9646
| 25> C 	 -49.3194 	 -46.4228 	 -80.7686
| 26> C 	 -50.6792 	 -46.6027 	 -80.5008
| 27> C 	 -50.8861 	 -47.3443 	 -79.3509
| 28> H 	 -48.8717 	 -45.839 	 -81.6029
| 29> C 	 -51.8389 	 -46.0912 	 -81.4209
| 30> H 	 -52.0309 	 -45.1089 	 -81.0466
| 31> H 	 -52.7462 	 -46.6642 	 -81.2778
| 32> C 	 -51.5164 	 -46.0058 	 -82.9879
| 33> H 	 -50.6184 	 -45.3931 	 -83.3534
| 34> H 	 -52.2853 	 -45.4583 	 -83.6144
| 35> C 	 -51.3039 	 -47.4683 	 -83.5792
| 36> H 	 -51.9144 	 -48.2187 	 -83.0298
| 37> H 	 -50.2869 	 -47.7884 	 -83.3904
| 38> H 	 -51.5049 	 -47.4925 	 -84.6212
| 39> H 	 -54.4317 	 -49.4157 	 -76.5176
| 40> H 	 -47.506 	 -47.1307 	 -79.9349
| 41> *
| 42>
| 43>                          ****END OF INPUT****

CARTESIAN COORDINATES (ANGSTROEM)
---------------------------------
  S    -52.104300  -49.305300  -77.731300
  C    -53.685400  -48.851500  -77.092700
  C    -54.100000  -47.645600  -77.567600
  C    -53.158000  -46.948600  -78.400100
  C    -52.082700  -47.786900  -78.617100
  H    -53.186100  -45.914600  -78.826100
  C    -55.464900  -47.067800  -77.369600
  H    -56.191700  -47.855200  -77.348500
  H    -55.735100  -46.387500  -78.242900
  C    -55.644900  -46.278300  -76.094400
  H    -55.583600  -46.926700  -75.219800
  H    -54.790600  -45.593700  -76.055000
  C    -56.992700  -45.534900  -76.040300
  H    -57.884100  -46.130100  -76.048100
  H    -57.077500  -45.157500  -75.083300
  H    -57.077700  -44.791300  -76.842200
  S    -49.361100  -47.622300  -78.523500
  C    -48.527800  -47.195000  -79.964600
  C    -49.319400  -46.422800  -80.768600
  C    -50.679200  -46.602700  -80.500800
  C    -50.886100  -47.344300  -79.350900
  H    -48.871700  -45.839000  -81.602900
  C    -51.838900  -46.091200  -81.420900
  H    -52.030900  -45.108900  -81.046600
  H    -52.746200  -46.664200  -81.277800
  C    -51.516400  -46.005800  -82.987900
  H    -50.618400  -45.393100  -83.353400
  H    -52.285300  -45.458300  -83.614400
  C    -51.303900  -47.468300  -83.579200
  H    -51.914400  -48.218700  -83.029800
  H    -50.286900  -47.788400  -83.390400
  H    -51.504900  -47.492500  -84.621200
  H    -54.431700  -49.415700  -76.517600
  H    -47.506000  -47.130700  -79.934900

 Total Charge           Charge          ....    0
 Multiplicity           Mult            ....    1
 Number of Electrons    NEL             ....  134
 Basis Dimension        Dim             ....  322

ORBITAL ENERGIES
----------------

  NO   OCC          E(Eh)            E(eV)
   0   2.0000     -88.972849     -2421.0743
   1   2.0000     -88.960142     -2420.7285
   2   2.0000     -10.330634      -281.1108
   3   2.0000     -10.323169      -280.9077
   4   2.0000     -10.312531      -280.6182
   5   2.0000     -10.303990      -280.3858
   6   2.0000     -10.303914      -280.3838
   7   2.0000     -10.303494      -280.3723
   8   2.0000     -10.301242      -280.3110
   9   2.0000     -10.298344      -280.2322
  10   2.0000     -10.296757      -280.1890
  11   2.0000     -10.292915      -280.0845
  12   2.0000     -10.287605      -279.9400
  13   2.0000     -10.284798      -279.8636
  14   2.0000     -10.274134      -279.5734
  15   2.0000     -10.271806      -279.5100
  16   2.0000      -8.086705      -220.0504
  17   2.0000      -8.075871      -219.7556
  18   2.0000      -6.045361      -164.5026
  19   2.0000      -6.041461      -164.3965
  20   2.0000      -6.037209      -164.2808
  21   2.0000      -6.034176      -164.1983
  22   2.0000      -6.030555      -164.0998
  23   2.0000      -6.026471      -163.9886
  24   2.0000      -1.010959       -27.5096
  25   2.0000      -0.988649       -26.9025
  26   2.0000      -0.915568       -24.9139
  27   2.0000      -0.894483       -24.3401
  28   2.0000      -0.869614       -23.6634
  29   2.0000      -0.852887       -23.2082
  30   2.0000      -0.841429       -22.8964
  31   2.0000      -0.814353       -22.1597
  32   2.0000      -0.783520       -21.3207
  33   2.0000      -0.774046       -21.0629
  34   2.0000      -0.703406       -19.1406
  35   2.0000      -0.701254       -19.0821
  36   2.0000      -0.697402       -18.9773
  37   2.0000      -0.657439       -17.8898
  38   2.0000      -0.635414       -17.2905
  39   2.0000      -0.617592       -16.8055
  40   2.0000      -0.597872       -16.2689
  41   2.0000      -0.574523       -15.6336
  42   2.0000      -0.559784       -15.2325
  43   2.0000      -0.551378       -15.0038
  44   2.0000      -0.528130       -14.3711
  45   2.0000      -0.521920       -14.2022
  46   2.0000      -0.513576       -13.9751
  47   2.0000      -0.512684       -13.9508
  48   2.0000      -0.502908       -13.6848
  49   2.0000      -0.493503       -13.4289
  50   2.0000      -0.486700       -13.2438
  51   2.0000      -0.477195       -12.9851
  52   2.0000      -0.475843       -12.9483
  53   2.0000      -0.466411       -12.6917
  54   2.0000      -0.461134       -12.5481
  55   2.0000      -0.451449       -12.2846
  56   2.0000      -0.449383       -12.2283
  57   2.0000      -0.435037       -11.8380
  58   2.0000      -0.430502       -11.7145
  59   2.0000      -0.425737       -11.5849
  60   2.0000      -0.425111       -11.5679
  61   2.0000      -0.415903       -11.3173
  62   2.0000      -0.408807       -11.1242
  63   2.0000      -0.349315        -9.5053
  64   2.0000      -0.333589        -9.0774
  65   2.0000      -0.326286        -8.8787
  66   2.0000      -0.290035        -7.8922
  67   0.0000       0.025166         0.6848
  68   0.0000       0.074779         2.0349
  69   0.0000       0.102024         2.7762
  70   0.0000       0.111858         3.0438
  71   0.0000       0.139560         3.7976

MULLIKEN ATOMIC CHARGES
-----------------------
   0 S :    0.126581
   1 C :   -0.106195
   2 C :   -0.072809
   3 C :   -0.007526
   4 C :   -0.133158
   5 H :    0.043252
   6 C :    0.043835
   7 H :    0.011372
   8 H :    0.028755
   9 C :   -0.080749
  10 H :    0.022755
  11 H :    0.026453
  12 C :    0.001634
  13 H :    0.015793
  14 H :    0.012378
  15 H :    0.034304
  16 S :    0.092144
  17 C :   -0.048553
  18 C :   -0.062548
  19 C :   -0.038351
  20 C :   -0.167651
  21 H :    0.035601
  22 C :    0.082569
  23 H :    0.034515
  24 H :    0.043004
  25 C :   -0.134149
  26 H :    0.037335
  27 H :    0.036976
  28 C :   -0.048706
  29 H :    0.036653
  30 H :    0.033489
  31 H :    0.032446
  32 H :    0.043444
  33 H :    0.025108
Sum of atomic charges:   -0.0000000

LOEWDIN ATOMIC CHARGES
----------------------
   0 S :    0.401769
   1 C :   -0.203465
   2 C :   -0.062268
   3 C :   -0.063747
   4 C :   -0.187041
   5 H :    0.045483
   6 C :   -0.037588
   7 H :    0.022976
   8 H :    0.034907
   9 C :   -0.036297
  10 H :    0.022349
  11 H :    0.024143
  12 C :   -0.060864
  13 H :    0.023908
  14 H :    0.019359
  15 H :    0.026691
  16 S :    0.406989
  17 C :   -0.180387
  18 C :   -0.069328
  19 C :   -0.062304
  20 C :   -0.190251
  21 H :    0.039269
  22 C :   -0.023536
  23 H :    0.027521
  24 H :    0.032343
  25 C :   -0.055361
  26 H :    0.028100
  27 H :    0.028271
  28 C :   -0.066509
  29 H :    0.029173
  30 H :    0.023911
  31 H :    0.019665
  32 H :    0.035650
  33 H :    0.006470

  Mayer bond orders larger than 0.100000
B(  0-S ,  1-C ) :   1.0993 B(  0-S ,  4-C ) :   1.1495 B(  1-C ,  2-C ) :   1.6678
B(  1-C , 32-H ) :   0.9563 B(  2-C ,  3-C ) :   1.1999 B(  2-C ,  6-C ) :   1.0235
B(  3-C ,  4-C ) :   1.5810 B(  3-C ,  5-H ) :   0.9853 B(  4-C , 20-C ) :   1.0377
B(  6-C ,  7-H ) :   0.9345 B(  6-C ,  8-H ) :   0.9476 B(  6-C ,  9-C ) :   1.0667
B(  9-C , 10-H ) :   0.9537 B(  9-C , 11-H ) :   0.9557 B(  9-C , 12-C ) :   1.0865
B( 12-C , 13-H ) :   0.9698 B( 12-C , 14-H ) :   0.9693 B( 12-C , 15-H ) :   0.9745
B( 16-S , 17-C ) :   1.1572 B( 16-S , 20-C ) :   1.1601 B( 17-C , 18-C ) :   1.6008
B( 17-C , 20-C ) :   0.1034 B( 17-C , 33-H ) :   0.9731 B( 18-C , 19-C ) :   1.2591
B( 18-C , 21-H ) :   0.9815 B( 19-C , 20-C ) :   1.5999 B( 19-C , 22-C ) :   1.0113
B( 22-C , 23-H ) :   0.9328 B( 22-C , 24-H ) :   0.9452 B( 22-C , 25-C ) :   1.0570
B( 25-C , 26-H ) :   0.9577 B( 25-C , 27-H ) :   0.9635 B( 25-C , 28-C ) :   1.0552
B( 28-C , 29-H ) :   0.9796 B( 28-C , 30-H ) :   0.9774 B( 28-C , 31-H ) :   0.9787

Dispersion correction           -0.014026179
FINAL SINGLE POINT ENERGY     -1339.856487127686

DIPOLE MOMENT
-------------
                                X             Y             Z
Electronic contribution:     19.92663     -12.87814       9.35942
Nuclear contribution   :    -20.37146      13.38431      -9.53205
                        -----------------------------------------
Total Dipole Moment    :     -0.44483       0.50618      -0.17263
                        -----------------------------------------
Magnitude (a.u.)       :      0.69562
Magnitude (Debye)      :      1.76813

Rotational constants in cm-1:     0.020001     0.007656     0.006376
Rotational constants in MHz :   599.605928   229.522309   191.156256

                             ****ORCA TERMINATED NORMALLY****
TOTAL RUN TIME: 0 days 0 hours 0 minutes 20 seconds 238 msec
