                         Program Version 4.2.1 -  RELEASE  -
|  1> ! wB97X-D3 SP def2-SVP
|  2> %pal
|  3> nprocs 24
|  4> end
|  5>
|  6> * xyz 0 1
|  7> S 	 -43.639 	 -51.7191 	 -73.9
|  8> C 	 -42.1135 	 -52.4274 	 -74.3261
|  9> C 	 -41.565 	 -51.7709 	 -75.4679
| 10> C 	 -42.4592 	 -50.846 	 -76.0197
| 11> C 	 -43.6092 	 -50.6269 	 -75.2544
| 12> H 	 -42.3438 	 -50.2713 	 -76.9323
| 13> C 	 -40.2216 	 -52.1775 	 -76.0752
| 14> H 	 -40.3325 	 -52.8191 	 -77.0499
| 15> H 	 -39.6046 	 -52.8844 	 -75.4044
| 16> C 	 -39.2906 	 -51.0144 	 -76.5364
| 17> H 	 -39.8135 	 -50.5917 	 -77.2905
| 18> H 	 -39.0716 	 -50.2356 	 -75.8181
| 19> C 	 -37.976 	 -51.439 	 -77.3036
| 20> H 	 -38.0948 	 -52.2662 	 -77.9644
| 21> H 	 -37.5774 	 -50.5516 	 -77.8426
| 22> H 	 -37.3052 	 -51.6915 	 -76.4411
| 23> S 	 -45.1934 	 -49.4243 	 -77.1296
| 24> C 	 -46.0334 	 -47.9702 	 -76.689
| 25> C 	 -45.9159 	 -47.7764 	 -75.3543
| 26> C 	 -45.0929 	 -48.6846 	 -74.6588
| 27> C 	 -44.5294 	 -49.5438 	 -75.4853
| 28> H 	 -46.4542 	 -46.8726 	 -75.0068
| 29> C 	 -44.7796 	 -48.535 	 -73.1938
| 30> H 	 -44.454 	 -47.4905 	 -73.0832
| 31> H 	 -44.0026 	 -49.2413 	 -72.8916
| 32> C 	 -45.9916 	 -48.8851 	 -72.2675
| 33> H 	 -45.7059 	 -48.752 	 -71.2175
| 34> H 	 -46.3319 	 -49.8979 	 -72.4632
| 35> C 	 -47.1715 	 -47.9599 	 -72.5777
| 36> H 	 -47.972 	 -48.2709 	 -71.9605
| 37> H 	 -47.7002 	 -48.1225 	 -73.5414
| 38> H 	 -47.0326 	 -46.9343 	 -72.3083
| 39> H 	 -41.5131 	 -53.0964 	 -73.7686
| 40> H 	 -46.4658 	 -47.2655 	 -77.3853
| 41> *
| 42>
| 43>                          ****END OF INPUT****

CARTESIAN COORDINATES (ANGSTROEM)
---------------------------------
  S    -43.639000  -51.719100  -73.900000
  C    -42.113500  -52.427400  -74.326100
  C    -41.565000  -51.770900  -75.467900
  C    -42.459200  -50.846000  -76.019700
  C    -43.609200  -50.626900  -75.254400
  H    -42.343800  -50.271300  -76.932300
  C    -40.221600  -52.177500  -76.075200
  H    -40.332500  -52.819100  -77.049900
  H    -39.604600  -52.884400  -75.404400
  C    -39.290600  -51.014400  -76.536400
  H    -39.813500  -50.591700  -77.290500
  H    -39.071600  -50.235600  -75.818100
  C    -37.976000  -51.439000  -77.303600
  H    -38.094800  -52.266200  -77.964400
  H    -37.577400  -50.551600  -77.842600
  H    -37.305200  -51.691500  -76.441100
  S    -45.193400  -49.424300  -77.129600
  C    -46.033400  -47.970200  -76.689000
  C    -45.915900  -47.776400  -75.354300
  C    -45.092900  -48.684600  -74.658800
  C    -44.529400  -49.543800  -75.485300
  H    -46.454200  -46.872600  -75.006800
  C    -44.779600  -48.535000  -73.193800
  H    -44.454000  -47.490500  -73.083200
  H    -44.002600  -49.241300  -72.891600
  C    -45.991600  -48.885100  -72.267500
  H    -45.705900  -48.752000  -71.217500
  H    -46.331900  -49.897900  -72.463200
  C    -47.171500  -47.959900  -72.577700
  H    -47.972000  -48.270900  -71.960500
  H    -47.700200  -48.122500  -73.541400
  H    -47.032600  -46.934300  -72.308300
  H    -41.513100  -53.096400  -73.768600
  H    -46.465800  -47.265500  -77.385300

 Total Charge           Charge          ....    0
 Multiplicity           Mult            ....    1
 Number of Electrons    NEL             ....  134
 Basis Dimension        Dim             ....  322

ORBITAL ENERGIES
----------------

  NO   OCC          E(Eh)            E(eV)
   0   2.0000     -88.974408     -2421.1167
   1   2.0000     -88.958168     -2420.6748
   2   2.0000     -10.327543      -281.0267
   3   2.0000     -10.319102      -280.7970
   4   2.0000     -10.316051      -280.7140
   5   2.0000     -10.310199      -280.5548
   6   2.0000     -10.309583      -280.5380
   7   2.0000     -10.306665      -280.4586
   8   2.0000     -10.293610      -280.1034
   9   2.0000     -10.292406      -280.0706
  10   2.0000     -10.289388      -279.9885
  11   2.0000     -10.288734      -279.9707
  12   2.0000     -10.287918      -279.9485
  13   2.0000     -10.283867      -279.8383
  14   2.0000     -10.278727      -279.6984
  15   2.0000     -10.268416      -279.4178
  16   2.0000      -8.088422      -220.0972
  17   2.0000      -8.073265      -219.6847
  18   2.0000      -6.046812      -164.5421
  19   2.0000      -6.042783      -164.4325
  20   2.0000      -6.039616      -164.3463
  21   2.0000      -6.031830      -164.1344
  22   2.0000      -6.027891      -164.0273
  23   2.0000      -6.023775      -163.9152
  24   2.0000      -1.013855       -27.5884
  25   2.0000      -0.988963       -26.9111
  26   2.0000      -0.908987       -24.7348
  27   2.0000      -0.903956       -24.5979
  28   2.0000      -0.873444       -23.7676
  29   2.0000      -0.852580       -23.1999
  30   2.0000      -0.846555       -23.0359
  31   2.0000      -0.812324       -22.1045
  32   2.0000      -0.784123       -21.3371
  33   2.0000      -0.770445       -20.9649
  34   2.0000      -0.711811       -19.3694
  35   2.0000      -0.696945       -18.9648
  36   2.0000      -0.691142       -18.8069
  37   2.0000      -0.668617       -18.1940
  38   2.0000      -0.635247       -17.2860
  39   2.0000      -0.616644       -16.7797
  40   2.0000      -0.594575       -16.1792
  41   2.0000      -0.570575       -15.5261
  42   2.0000      -0.563547       -15.3349
  43   2.0000      -0.561275       -15.2731
  44   2.0000      -0.534396       -14.5417
  45   2.0000      -0.526356       -14.3229
  46   2.0000      -0.518457       -14.1079
  47   2.0000      -0.507053       -13.7976
  48   2.0000      -0.500758       -13.6263
  49   2.0000      -0.497548       -13.5390
  50   2.0000      -0.491366       -13.3708
  51   2.0000      -0.484236       -13.1767
  52   2.0000      -0.477275       -12.9873
  53   2.0000      -0.470463       -12.8019
  54   2.0000      -0.459978       -12.5166
  55   2.0000      -0.448916       -12.2156
  56   2.0000      -0.440905       -11.9976
  57   2.0000      -0.436650       -11.8818
  58   2.0000      -0.428233       -11.6528
  59   2.0000      -0.420845       -11.4518
  60   2.0000      -0.419901       -11.4261
  61   2.0000      -0.409593       -11.1456
  62   2.0000      -0.406922       -11.0729
  63   2.0000      -0.349622        -9.5137
  64   2.0000      -0.332712        -9.0535
  65   2.0000      -0.329844        -8.9755
  66   2.0000      -0.291427        -7.9301
  67   0.0000       0.026601         0.7239
  68   0.0000       0.080521         2.1911
  69   0.0000       0.107033         2.9125
  70   0.0000       0.115862         3.1528
  71   0.0000       0.130539         3.5522

MULLIKEN ATOMIC CHARGES
-----------------------
   0 S :    0.129941
   1 C :   -0.095622
   2 C :   -0.049568
   3 C :    0.013567
   4 C :   -0.152281
   5 H :    0.019741
   6 C :   -0.007036
   7 H :    0.051113
   8 H :    0.028223
   9 C :   -0.069467
  10 H :    0.005922
  11 H :    0.036576
  12 C :   -0.075096
  13 H :    0.032411
  14 H :    0.047006
  15 H :    0.040407
  16 S :    0.086288
  17 C :   -0.088820
  18 C :   -0.061687
  19 C :   -0.031979
  20 C :   -0.149794
  21 H :    0.029373
  22 C :    0.072498
  23 H :    0.037332
  24 H :    0.023415
  25 C :   -0.052732
  26 H :    0.039244
  27 H :    0.027774
  28 C :   -0.061457
  29 H :    0.007341
  30 H :    0.048580
  31 H :    0.028001
  32 H :    0.035925
  33 H :    0.054861
Sum of atomic charges:   -0.0000000

LOEWDIN ATOMIC CHARGES
----------------------
   0 S :    0.440046
   1 C :   -0.200737
   2 C :   -0.063191
   3 C :   -0.059577
   4 C :   -0.199651
   5 H :    0.030057
   6 C :   -0.041529
   7 H :    0.043334
   8 H :    0.029410
   9 C :   -0.040782
  10 H :    0.005931
  11 H :    0.024636
  12 C :   -0.062757
  13 H :    0.018267
  14 H :    0.032687
  15 H :    0.029949
  16 S :    0.383472
  17 C :   -0.187115
  18 C :   -0.074312
  19 C :   -0.068768
  20 C :   -0.176665
  21 H :    0.037643
  22 C :   -0.029781
  23 H :    0.034219
  24 H :    0.018393
  25 C :   -0.029039
  26 H :    0.027824
  27 H :    0.025110
  28 C :   -0.077031
  29 H :    0.021124
  30 H :    0.035311
  31 H :    0.020259
  32 H :    0.022059
  33 H :    0.031204

  Mayer bond orders larger than 0.100000
B(  0-S ,  1-C ) :   1.1605 B(  0-S ,  4-C ) :   1.1598 B(  1-C ,  2-C ) :   1.5541
B(  1-C ,  4-C ) :   0.1054 B(  1-C , 32-H ) :   0.9716 B(  2-C ,  3-C ) :   1.2872
B(  2-C ,  6-C ) :   1.0264 B(  3-C ,  4-C ) :   1.5130 B(  3-C ,  5-H ) :   0.9910
B(  4-C , 20-C ) :   1.0435 B(  6-C ,  7-H ) :   0.9407 B(  6-C ,  8-H ) :   0.9514
B(  6-C ,  9-C ) :   1.0441 B(  9-C , 10-H ) :   0.9537 B(  9-C , 11-H ) :   0.9628
B(  9-C , 12-C ) :   1.0768 B( 12-C , 13-H ) :   0.9751 B( 12-C , 14-H ) :   0.9768
B( 12-C , 15-H ) :   0.9814 B( 16-S , 17-C ) :   1.1261 B( 16-S , 20-C ) :   1.1221
B( 17-C , 18-C ) :   1.6561 B( 17-C , 33-H ) :   0.9652 B( 18-C , 19-C ) :   1.1800
B( 18-C , 21-H ) :   0.9830 B( 19-C , 20-C ) :   1.6645 B( 19-C , 22-C ) :   1.0325
B( 22-C , 23-H ) :   0.9399 B( 22-C , 24-H ) :   0.9279 B( 22-C , 25-C ) :   1.0686
B( 25-C , 26-H ) :   0.9581 B( 25-C , 27-H ) :   0.9488 B( 25-C , 28-C ) :   1.1015
B( 28-C , 29-H ) :   0.9626 B( 28-C , 30-H ) :   0.9595 B( 28-C , 31-H ) :   0.9732

Dispersion correction           -0.014118460
FINAL SINGLE POINT ENERGY     -1339.861847584281

DIPOLE MOMENT
-------------
                                X             Y             Z
Electronic contribution:    -11.75088      -4.28844      -4.47204
Nuclear contribution   :     11.95444       4.60894       4.64370
                        -----------------------------------------
Total Dipole Moment    :      0.20357       0.32051       0.17166
                        -----------------------------------------
Magnitude (a.u.)       :      0.41669
Magnitude (Debye)      :      1.05915

Rotational constants in cm-1:     0.023918     0.007395     0.006322
Rotational constants in MHz :   717.044074   221.693797   189.542808

                             ****ORCA TERMINATED NORMALLY****
TOTAL RUN TIME: 0 days 0 hours 0 minutes 21 seconds 320 msec
