                         Program Version 4.2.1 -  RELEASE  -
|  1> ! wB97X-D3 SP def2-SVP
|  2> %pal
|  3> nprocs 24
|  4> end
|  5>
|  6> * xyz 0 1
|  7> S 	 -136.593 	 6.10096 	 -0.100177
|  8> C 	 -135.974 	 6.89252 	 -1.534
|  9> C 	 -134.591 	 6.8612 	 -1.61173
| 10> C 	 -134.047 	 6.11324 	 -0.461615
| 11> C 	 -135.013 	 5.64208 	 0.417747
| 12> H 	 -132.985 	 5.99971 	 -0.274052
| 13> C 	 -133.722 	 7.52171 	 -2.63322
| 14> H 	 -133.206 	 6.72717 	 -3.21924
| 15> H 	 -132.972 	 8.14765 	 -2.1813
| 16> C 	 -134.552 	 8.35929 	 -3.61893
| 17> H 	 -133.987 	 8.57852 	 -4.48155
| 18> H 	 -135.41 	 7.78308 	 -4.12731
| 19> C 	 -135.008 	 9.66111 	 -3.12331
| 20> H 	 -135.381 	 9.70182 	 -2.07855
| 21> H 	 -134.17 	 10.4093 	 -3.18609
| 22> H 	 -135.792 	 10.055 	 -3.81587
| 23> S 	 -134.433 	 6.00514 	 3.13502
| 24> C 	 -134.335 	 4.6506 	 4.2021
| 25> C 	 -134.754 	 3.4937 	 3.59102
| 26> C 	 -135.079 	 3.70665 	 2.18756
| 27> C 	 -134.851 	 5.00427 	 1.74269
| 28> H 	 -134.883 	 2.57583 	 4.15764
| 29> C 	 -135.667 	 2.5791 	 1.38059
| 30> H 	 -136.446 	 2.97215 	 0.655487
| 31> H 	 -136.283 	 2.00215 	 2.07494
| 32> C 	 -134.746 	 1.62739 	 0.534396
| 33> H 	 -135.328 	 0.934913 	 0.0343399
| 34> H 	 -134.037 	 1.15779 	 1.20399
| 35> C 	 -133.944 	 2.29264 	 -0.513487
| 36> H 	 -134.537 	 2.74729 	 -1.32988
| 37> H 	 -133.228 	 1.56367 	 -0.968458
| 38> H 	 -133.359 	 3.12192 	 -0.132838
| 39> H 	 -136.693 	 7.42995 	 -2.12137
| 40> H 	 -134.309 	 4.71417 	 5.19721
| 41> *
| 42>
| 43>                          ****END OF INPUT****

CARTESIAN COORDINATES (ANGSTROEM)
---------------------------------
  S    -136.593000    6.100960   -0.100177
  C    -135.974000    6.892520   -1.534000
  C    -134.591000    6.861200   -1.611730
  C    -134.047000    6.113240   -0.461615
  C    -135.013000    5.642080    0.417747
  H    -132.985000    5.999710   -0.274052
  C    -133.722000    7.521710   -2.633220
  H    -133.206000    6.727170   -3.219240
  H    -132.972000    8.147650   -2.181300
  C    -134.552000    8.359290   -3.618930
  H    -133.987000    8.578520   -4.481550
  H    -135.410000    7.783080   -4.127310
  C    -135.008000    9.661110   -3.123310
  H    -135.381000    9.701820   -2.078550
  H    -134.170000   10.409300   -3.186090
  H    -135.792000   10.055000   -3.815870
  S    -134.433000    6.005140    3.135020
  C    -134.335000    4.650600    4.202100
  C    -134.754000    3.493700    3.591020
  C    -135.079000    3.706650    2.187560
  C    -134.851000    5.004270    1.742690
  H    -134.883000    2.575830    4.157640
  C    -135.667000    2.579100    1.380590
  H    -136.446000    2.972150    0.655487
  H    -136.283000    2.002150    2.074940
  C    -134.746000    1.627390    0.534396
  H    -135.328000    0.934913    0.034340
  H    -134.037000    1.157790    1.203990
  C    -133.944000    2.292640   -0.513487
  H    -134.537000    2.747290   -1.329880
  H    -133.228000    1.563670   -0.968458
  H    -133.359000    3.121920   -0.132838
  H    -136.693000    7.429950   -2.121370
  H    -134.309000    4.714170    5.197210

 Total Charge           Charge          ....    0
 Multiplicity           Mult            ....    1
 Number of Electrons    NEL             ....  134
 Basis Dimension        Dim             ....  322

ORBITAL ENERGIES
----------------

  NO   OCC          E(Eh)            E(eV)
   0   2.0000     -88.963228     -2420.8125
   1   2.0000     -88.963018     -2420.8068
   2   2.0000     -10.330528      -281.1079
   3   2.0000     -10.328674      -281.0575
   4   2.0000     -10.314732      -280.6781
   5   2.0000     -10.307333      -280.4768
   6   2.0000     -10.307243      -280.4744
   7   2.0000     -10.305654      -280.4311
   8   2.0000     -10.299272      -280.2574
   9   2.0000     -10.296782      -280.1897
  10   2.0000     -10.294749      -280.1344
  11   2.0000     -10.291470      -280.0451
  12   2.0000     -10.284711      -279.8612
  13   2.0000     -10.281091      -279.7627
  14   2.0000     -10.274877      -279.5936
  15   2.0000     -10.267065      -279.3810
  16   2.0000      -8.078352      -219.8231
  17   2.0000      -8.078182      -219.8185
  18   2.0000      -6.036801      -164.2697
  19   2.0000      -6.036733      -164.2678
  20   2.0000      -6.032685      -164.1577
  21   2.0000      -6.032587      -164.1550
  22   2.0000      -6.029231      -164.0637
  23   2.0000      -6.028953      -164.0562
  24   2.0000      -1.004082       -27.3225
  25   2.0000      -0.983624       -26.7658
  26   2.0000      -0.920643       -25.0520
  27   2.0000      -0.905398       -24.6371
  28   2.0000      -0.868230       -23.6257
  29   2.0000      -0.850228       -23.1359
  30   2.0000      -0.848780       -23.0965
  31   2.0000      -0.814757       -22.1707
  32   2.0000      -0.784170       -21.3384
  33   2.0000      -0.770768       -20.9737
  34   2.0000      -0.702781       -19.1236
  35   2.0000      -0.699206       -19.0264
  36   2.0000      -0.691005       -18.8032
  37   2.0000      -0.659490       -17.9456
  38   2.0000      -0.647212       -17.6115
  39   2.0000      -0.610119       -16.6022
  40   2.0000      -0.593778       -16.1575
  41   2.0000      -0.580827       -15.8051
  42   2.0000      -0.558143       -15.1878
  43   2.0000      -0.553603       -15.0643
  44   2.0000      -0.543811       -14.7978
  45   2.0000      -0.535629       -14.5752
  46   2.0000      -0.520557       -14.1651
  47   2.0000      -0.512203       -13.9378
  48   2.0000      -0.501514       -13.6469
  49   2.0000      -0.495745       -13.4899
  50   2.0000      -0.489828       -13.3289
  51   2.0000      -0.482853       -13.1391
  52   2.0000      -0.472176       -12.8486
  53   2.0000      -0.462425       -12.5832
  54   2.0000      -0.456874       -12.4322
  55   2.0000      -0.447270       -12.1708
  56   2.0000      -0.440305       -11.9813
  57   2.0000      -0.433309       -11.7909
  58   2.0000      -0.428157       -11.6507
  59   2.0000      -0.424301       -11.5458
  60   2.0000      -0.415761       -11.3134
  61   2.0000      -0.412415       -11.2224
  62   2.0000      -0.408978       -11.1288
  63   2.0000      -0.331498        -9.0205
  64   2.0000      -0.329613        -8.9692
  65   2.0000      -0.323752        -8.8097
  66   2.0000      -0.310273        -8.4430
  67   0.0000       0.046186         1.2568
  68   0.0000       0.056099         1.5265
  69   0.0000       0.112843         3.0706
  70   0.0000       0.116155         3.1607
  71   0.0000       0.122754         3.3403

MULLIKEN ATOMIC CHARGES
-----------------------
   0 S :    0.114646
   1 C :   -0.134036
   2 C :   -0.106862
   3 C :    0.041864
   4 C :   -0.165039
   5 H :    0.016242
   6 C :    0.103610
   7 H :    0.046834
   8 H :    0.033877
   9 C :   -0.099290
  10 H :    0.011528
  11 H :    0.034266
  12 C :   -0.075428
  13 H :    0.047323
  14 H :    0.031405
  15 H :    0.037752
  16 S :    0.109327
  17 C :   -0.030059
  18 C :   -0.046742
  19 C :   -0.027356
  20 C :   -0.160140
  21 H :    0.025736
  22 C :    0.022788
  23 H :    0.025707
  24 H :    0.019941
  25 C :    0.010449
  26 H :    0.014034
  27 H :    0.019269
  28 C :   -0.074587
  29 H :    0.030879
  30 H :    0.034062
  31 H :    0.022891
  32 H :    0.050743
  33 H :    0.014364
Sum of atomic charges:    0.0000000

LOEWDIN ATOMIC CHARGES
----------------------
   0 S :    0.417913
   1 C :   -0.192821
   2 C :   -0.060681
   3 C :   -0.055242
   4 C :   -0.205408
   5 H :    0.031342
   6 C :   -0.028154
   7 H :    0.042974
   8 H :    0.033222
   9 C :   -0.057184
  10 H :    0.020947
  11 H :    0.031203
  12 C :   -0.075691
  13 H :    0.026426
  14 H :    0.028417
  15 H :    0.032892
  16 S :    0.411895
  17 C :   -0.171893
  18 C :   -0.067619
  19 C :   -0.055336
  20 C :   -0.204598
  21 H :    0.033771
  22 C :   -0.039761
  23 H :    0.032078
  24 H :    0.029854
  25 C :   -0.030883
  26 H :    0.017085
  27 H :    0.023066
  28 C :   -0.069951
  29 H :    0.025662
  30 H :    0.029965
  31 H :    0.019800
  32 H :    0.021812
  33 H :    0.004899

  Mayer bond orders larger than 0.100000
B(  0-S ,  1-C ) :   1.1407 B(  0-S ,  4-C ) :   1.1650 B(  1-C ,  2-C ) :   1.6171
B(  1-C , 32-H ) :   0.9659 B(  2-C ,  3-C ) :   1.2229 B(  2-C ,  6-C ) :   1.0189
B(  3-C ,  4-C ) :   1.6021 B(  3-C ,  5-H ) :   0.9963 B(  4-C , 20-C ) :   1.0010
B(  6-C ,  7-H ) :   0.9280 B(  6-C ,  8-H ) :   0.9377 B(  6-C ,  9-C ) :   1.0914
B(  9-C , 10-H ) :   0.9461 B(  9-C , 11-H ) :   0.9503 B(  9-C , 12-C ) :   1.0783
B( 12-C , 13-H ) :   0.9774 B( 12-C , 14-H ) :   0.9715 B( 12-C , 15-H ) :   0.9706
B( 16-S , 17-C ) :   1.1655 B( 16-S , 20-C ) :   1.1413 B( 17-C , 18-C ) :   1.6105
B( 17-C , 33-H ) :   0.9750 B( 18-C , 19-C ) :   1.2427 B( 18-C , 21-H ) :   0.9880
B( 19-C , 20-C ) :   1.5971 B( 19-C , 22-C ) :   1.0434 B( 22-C , 23-H ) :   0.9341
B( 22-C , 24-H ) :   0.9349 B( 22-C , 25-C ) :   1.0758 B( 25-C , 26-H ) :   0.9505
B( 25-C , 27-H ) :   0.9518 B( 25-C , 28-C ) :   1.0944 B( 28-C , 29-H ) :   0.9719
B( 28-C , 30-H ) :   0.9700 B( 28-C , 31-H ) :   0.9708

Dispersion correction           -0.015302851
FINAL SINGLE POINT ENERGY     -1339.882322812831

DIPOLE MOMENT
-------------
                                X             Y             Z
Electronic contribution:     -5.19992       2.33479      19.47763
Nuclear contribution   :      5.32777      -2.39076     -19.78072
                        -----------------------------------------
Total Dipole Moment    :      0.12785      -0.05596      -0.30309
                        -----------------------------------------
Magnitude (a.u.)       :      0.33368
Magnitude (Debye)      :      0.84814

Rotational constants in cm-1:     0.023581     0.007952     0.006870
Rotational constants in MHz :   706.938136   238.388718   205.944309

                             ****ORCA TERMINATED NORMALLY****
TOTAL RUN TIME: 0 days 0 hours 0 minutes 21 seconds 900 msec
