                         Program Version 4.2.1 -  RELEASE  -
|  1> ! wB97X-D3 SP def2-SVP
|  2> %pal
|  3> nprocs 24
|  4> end
|  5>
|  6> * xyz 0 1
|  7> S 	 -120.67 	 19.8556 	 -109.691
|  8> C 	 -121.771 	 20.883 	 -110.591
|  9> C 	 -122.315 	 20.222 	 -111.657
| 10> C 	 -122.075 	 18.8104 	 -111.634
| 11> C 	 -121.219 	 18.4782 	 -110.655
| 12> H 	 -122.474 	 18.0544 	 -112.253
| 13> C 	 -123.303 	 20.8122 	 -112.716
| 14> H 	 -123.712 	 21.7193 	 -112.168
| 15> H 	 -124.212 	 20.2021 	 -112.868
| 16> C 	 -122.729 	 21.3133 	 -114.054
| 17> H 	 -121.826 	 21.8895 	 -113.862
| 18> H 	 -122.311 	 20.503 	 -114.693
| 19> C 	 -123.69 	 22.0354 	 -114.96
| 20> H 	 -123.219 	 22.2947 	 -115.958
| 21> H 	 -124.573 	 21.3858 	 -115.171
| 22> H 	 -124.056 	 22.9913 	 -114.459
| 23> S 	 -120.606 	 16.7305 	 -108.64
| 24> C 	 -120.323 	 15.0769 	 -109.09
| 25> C 	 -120.135 	 14.8931 	 -110.451
| 26> C 	 -120.56 	 16.0508 	 -111.15
| 27> C 	 -120.812 	 17.1257 	 -110.348
| 28> H 	 -119.93 	 13.9928 	 -110.892
| 29> C 	 -120.487 	 15.9899 	 -112.65
| 30> H 	 -119.533 	 15.5127 	 -112.844
| 31> H 	 -120.335 	 16.8842 	 -113.192
| 32> C 	 -121.656 	 15.3464 	 -113.421
| 33> H 	 -122.584 	 15.9683 	 -113.413
| 34> H 	 -121.993 	 14.4738 	 -112.91
| 35> C 	 -121.344 	 14.8434 	 -114.795
| 36> H 	 -120.954 	 15.6142 	 -115.476
| 37> H 	 -122.25 	 14.3865 	 -115.189
| 38> H 	 -120.698 	 13.9141 	 -114.744
| 39> H 	 -121.936 	 21.9214 	 -110.383
| 40> H 	 -120.035 	 14.3137 	 -108.327
| 41> *
| 42>
| 43>                          ****END OF INPUT****

CARTESIAN COORDINATES (ANGSTROEM)
---------------------------------
  S    -120.670000   19.855600  -109.691000
  C    -121.771000   20.883000  -110.591000
  C    -122.315000   20.222000  -111.657000
  C    -122.075000   18.810400  -111.634000
  C    -121.219000   18.478200  -110.655000
  H    -122.474000   18.054400  -112.253000
  C    -123.303000   20.812200  -112.716000
  H    -123.712000   21.719300  -112.168000
  H    -124.212000   20.202100  -112.868000
  C    -122.729000   21.313300  -114.054000
  H    -121.826000   21.889500  -113.862000
  H    -122.311000   20.503000  -114.693000
  C    -123.690000   22.035400  -114.960000
  H    -123.219000   22.294700  -115.958000
  H    -124.573000   21.385800  -115.171000
  H    -124.056000   22.991300  -114.459000
  S    -120.606000   16.730500  -108.640000
  C    -120.323000   15.076900  -109.090000
  C    -120.135000   14.893100  -110.451000
  C    -120.560000   16.050800  -111.150000
  C    -120.812000   17.125700  -110.348000
  H    -119.930000   13.992800  -110.892000
  C    -120.487000   15.989900  -112.650000
  H    -119.533000   15.512700  -112.844000
  H    -120.335000   16.884200  -113.192000
  C    -121.656000   15.346400  -113.421000
  H    -122.584000   15.968300  -113.413000
  H    -121.993000   14.473800  -112.910000
  C    -121.344000   14.843400  -114.795000
  H    -120.954000   15.614200  -115.476000
  H    -122.250000   14.386500  -115.189000
  H    -120.698000   13.914100  -114.744000
  H    -121.936000   21.921400  -110.383000
  H    -120.035000   14.313700  -108.327000

 Total Charge           Charge          ....    0
 Multiplicity           Mult            ....    1
 Number of Electrons    NEL             ....  134
 Basis Dimension        Dim             ....  322

ORBITAL ENERGIES
----------------

  NO   OCC          E(Eh)            E(eV)
   0   2.0000     -88.966288     -2420.8958
   1   2.0000     -88.965794     -2420.8823
   2   2.0000     -10.323314      -280.9117
   3   2.0000     -10.322263      -280.8831
   4   2.0000     -10.320391      -280.8321
   5   2.0000     -10.312639      -280.6212
   6   2.0000     -10.303386      -280.3694
   7   2.0000     -10.300933      -280.3026
   8   2.0000     -10.299786      -280.2714
   9   2.0000     -10.289509      -279.9918
  10   2.0000     -10.288611      -279.9673
  11   2.0000     -10.286788      -279.9177
  12   2.0000     -10.286245      -279.9030
  13   2.0000     -10.286086      -279.8986
  14   2.0000     -10.284304      -279.8501
  15   2.0000     -10.283775      -279.8357
  16   2.0000      -8.080880      -219.8919
  17   2.0000      -8.080817      -219.8902
  18   2.0000      -6.039528      -164.3439
  19   2.0000      -6.039247      -164.3363
  20   2.0000      -6.035594      -164.2368
  21   2.0000      -6.035458      -164.2332
  22   2.0000      -6.031482      -164.1250
  23   2.0000      -6.031316      -164.1205
  24   2.0000      -1.011108       -27.5136
  25   2.0000      -0.986808       -26.8524
  26   2.0000      -0.914473       -24.8841
  27   2.0000      -0.905228       -24.6325
  28   2.0000      -0.872667       -23.7465
  29   2.0000      -0.861724       -23.4487
  30   2.0000      -0.848649       -23.0929
  31   2.0000      -0.815184       -22.1823
  32   2.0000      -0.784268       -21.3410
  33   2.0000      -0.769171       -20.9302
  34   2.0000      -0.704337       -19.1660
  35   2.0000      -0.693518       -18.8716
  36   2.0000      -0.693293       -18.8655
  37   2.0000      -0.673265       -18.3205
  38   2.0000      -0.645394       -17.5621
  39   2.0000      -0.621379       -16.9086
  40   2.0000      -0.604685       -16.4543
  41   2.0000      -0.568509       -15.4699
  42   2.0000      -0.562170       -15.2974
  43   2.0000      -0.551070       -14.9954
  44   2.0000      -0.529767       -14.4157
  45   2.0000      -0.523902       -14.2561
  46   2.0000      -0.520784       -14.1712
  47   2.0000      -0.515779       -14.0351
  48   2.0000      -0.507929       -13.8214
  49   2.0000      -0.498595       -13.5675
  50   2.0000      -0.490743       -13.3538
  51   2.0000      -0.481203       -13.0942
  52   2.0000      -0.470213       -12.7952
  53   2.0000      -0.465415       -12.6646
  54   2.0000      -0.459694       -12.5089
  55   2.0000      -0.455753       -12.4017
  56   2.0000      -0.447128       -12.1670
  57   2.0000      -0.434639       -11.8271
  58   2.0000      -0.432801       -11.7771
  59   2.0000      -0.425085       -11.5672
  60   2.0000      -0.423163       -11.5148
  61   2.0000      -0.411428       -11.1955
  62   2.0000      -0.404795       -11.0150
  63   2.0000      -0.356000        -9.6873
  64   2.0000      -0.335052        -9.1172
  65   2.0000      -0.332319        -9.0429
  66   2.0000      -0.287967        -7.8360
  67   0.0000       0.028509         0.7758
  68   0.0000       0.072877         1.9831
  69   0.0000       0.103997         2.8299
  70   0.0000       0.122014         3.3202
  71   0.0000       0.131200         3.5701

MULLIKEN ATOMIC CHARGES
-----------------------
   0 S :    0.102367
   1 C :   -0.116281
   2 C :   -0.047435
   3 C :    0.023654
   4 C :   -0.104355
   5 H :   -0.021512
   6 C :    0.022466
   7 H :    0.018980
   8 H :    0.033359
   9 C :   -0.055853
  10 H :    0.024839
  11 H :    0.022392
  12 C :   -0.081898
  13 H :    0.048924
  14 H :    0.036816
  15 H :    0.039035
  16 S :    0.106132
  17 C :   -0.101607
  18 C :    0.013172
  19 C :   -0.029949
  20 C :   -0.139381
  21 H :   -0.010560
  22 C :    0.053992
  23 H :    0.019244
  24 H :    0.008564
  25 C :   -0.068739
  26 H :    0.035938
  27 H :    0.006083
  28 C :   -0.058684
  29 H :    0.043693
  30 H :    0.028604
  31 H :    0.034983
  32 H :    0.041396
  33 H :    0.071622
Sum of atomic charges:    0.0000000

LOEWDIN ATOMIC CHARGES
----------------------
   0 S :    0.382641
   1 C :   -0.190426
   2 C :   -0.056601
   3 C :   -0.058561
   4 C :   -0.174355
   5 H :    0.026695
   6 C :   -0.036594
   7 H :    0.033507
   8 H :    0.030153
   9 C :   -0.055408
  10 H :    0.024189
  11 H :    0.025248
  12 C :   -0.074228
  13 H :    0.034886
  14 H :    0.027255
  15 H :    0.028021
  16 S :    0.401134
  17 C :   -0.184533
  18 C :   -0.055365
  19 C :   -0.054401
  20 C :   -0.189373
  21 H :    0.017957
  22 C :   -0.035212
  23 H :    0.034844
  24 H :    0.023523
  25 C :   -0.046323
  26 H :    0.025210
  27 H :    0.018190
  28 C :   -0.068755
  29 H :    0.024936
  30 H :    0.029081
  31 H :    0.032470
  32 H :    0.025617
  33 H :    0.034577

  Mayer bond orders larger than 0.100000
B(  0-S ,  1-C ) :   1.1114 B(  0-S ,  4-C ) :   1.1231 B(  1-C ,  2-C ) :   1.6536
B(  1-C , 32-H ) :   0.9684 B(  2-C ,  3-C ) :   1.1865 B(  2-C ,  6-C ) :   1.0134
B(  3-C ,  4-C ) :   1.6194 B(  3-C ,  5-H ) :   1.0072 B(  4-C , 20-C ) :   1.0563
B(  6-C ,  7-H ) :   0.9431 B(  6-C ,  8-H ) :   0.9492 B(  6-C ,  9-C ) :   1.0550
B(  9-C , 10-H ) :   0.9515 B(  9-C , 11-H ) :   0.9502 B(  9-C , 12-C ) :   1.0880
B( 12-C , 13-H ) :   0.9720 B( 12-C , 14-H ) :   0.9721 B( 12-C , 15-H ) :   0.9736
B( 16-S , 17-C ) :   1.1641 B( 16-S , 20-C ) :   1.1200 B( 17-C , 18-C ) :   1.6009
B( 17-C , 33-H ) :   0.9592 B( 18-C , 19-C ) :   1.2378 B( 18-C , 21-H ) :   0.9985
B( 19-C , 20-C ) :   1.6195 B( 19-C , 22-C ) :   1.0395 B( 22-C , 23-H ) :   0.9396
B( 22-C , 24-H ) :   0.9324 B( 22-C , 25-C ) :   1.0493 B( 25-C , 26-H ) :   0.9474
B( 25-C , 27-H ) :   0.9495 B( 25-C , 28-C ) :   1.0974 B( 28-C , 29-H ) :   0.9745
B( 28-C , 30-H ) :   0.9680 B( 28-C , 31-H ) :   0.9721

Dispersion correction           -0.013653064
FINAL SINGLE POINT ENERGY     -1339.875328262986

DIPOLE MOMENT
-------------
                                X             Y             Z
Electronic contribution:     10.84019      -0.84330      31.46191
Nuclear contribution   :    -11.00215       0.57637     -32.08725
                        -----------------------------------------
Total Dipole Moment    :     -0.16196      -0.26692      -0.62534
                        -----------------------------------------
Magnitude (a.u.)       :      0.69895
Magnitude (Debye)      :      1.77658

Rotational constants in cm-1:     0.016890     0.009064     0.006129
Rotational constants in MHz :   506.355312   271.726706   183.750892

                             ****ORCA TERMINATED NORMALLY****
TOTAL RUN TIME: 0 days 0 hours 0 minutes 20 seconds 117 msec
