                         Program Version 4.2.1 -  RELEASE  -
|  1> ! wB97X-D3 SP def2-SVP
|  2> %pal
|  3> nprocs 24
|  4> end
|  5>
|  6> * xyz 0 1
|  7> S 	 -101.746 	 45.8249 	 -84.5432
|  8> C 	 -100.807 	 45.619 	 -86.0211
|  9> C 	 -101.363 	 46.3539 	 -87.1034
| 10> C 	 -102.54 	 46.9864 	 -86.6896
| 11> C 	 -102.942 	 46.7884 	 -85.3933
| 12> H 	 -103.169 	 47.5676 	 -87.3471
| 13> C 	 -100.814 	 46.1253 	 -88.4837
| 14> H 	 -100.302 	 45.1402 	 -88.3702
| 15> H 	 -100.142 	 46.9431 	 -88.7702
| 16> C 	 -101.946 	 45.9555 	 -89.4296
| 17> H 	 -102.567 	 45.2099 	 -88.9916
| 18> H 	 -102.63 	 46.7998 	 -89.389
| 19> C 	 -101.553 	 45.7646 	 -90.8794
| 20> H 	 -100.954 	 44.8817 	 -90.9275
| 21> H 	 -102.337 	 45.6649 	 -91.6049
| 22> H 	 -100.928 	 46.6169 	 -91.2611
| 23> S 	 -103.963 	 47.9634 	 -83.1981
| 24> C 	 -105.617 	 48.2825 	 -82.9497
| 25> C 	 -106.323 	 48.0174 	 -84.1286
| 26> C 	 -105.434 	 47.5715 	 -85.2163
| 27> C 	 -104.141 	 47.2438 	 -84.7691
| 28> H 	 -107.423 	 48.1521 	 -84.1481
| 29> C 	 -106.023 	 47.4378 	 -86.5934
| 30> H 	 -105.174 	 47.4574 	 -87.3565
| 31> H 	 -106.334 	 48.4456 	 -86.803
| 32> C 	 -107.063 	 46.349 	 -86.7881
| 33> H 	 -107.777 	 46.7396 	 -87.5386
| 34> H 	 -107.526 	 46.0072 	 -85.8139
| 35> C 	 -106.4 	 45.1737 	 -87.4471
| 36> H 	 -105.563 	 45.3818 	 -88.0438
| 37> H 	 -107.158 	 44.5284 	 -87.9367
| 38> H 	 -106.012 	 44.594 	 -86.6511
| 39> H 	 -99.873 	 45.1014 	 -86.141
| 40> H 	 -106.154 	 48.6157 	 -82.0304
| 41> *
| 42>
| 43>                          ****END OF INPUT****

CARTESIAN COORDINATES (ANGSTROEM)
---------------------------------
  S    -101.746000   45.824900  -84.543200
  C    -100.807000   45.619000  -86.021100
  C    -101.363000   46.353900  -87.103400
  C    -102.540000   46.986400  -86.689600
  C    -102.942000   46.788400  -85.393300
  H    -103.169000   47.567600  -87.347100
  C    -100.814000   46.125300  -88.483700
  H    -100.302000   45.140200  -88.370200
  H    -100.142000   46.943100  -88.770200
  C    -101.946000   45.955500  -89.429600
  H    -102.567000   45.209900  -88.991600
  H    -102.630000   46.799800  -89.389000
  C    -101.553000   45.764600  -90.879400
  H    -100.954000   44.881700  -90.927500
  H    -102.337000   45.664900  -91.604900
  H    -100.928000   46.616900  -91.261100
  S    -103.963000   47.963400  -83.198100
  C    -105.617000   48.282500  -82.949700
  C    -106.323000   48.017400  -84.128600
  C    -105.434000   47.571500  -85.216300
  C    -104.141000   47.243800  -84.769100
  H    -107.423000   48.152100  -84.148100
  C    -106.023000   47.437800  -86.593400
  H    -105.174000   47.457400  -87.356500
  H    -106.334000   48.445600  -86.803000
  C    -107.063000   46.349000  -86.788100
  H    -107.777000   46.739600  -87.538600
  H    -107.526000   46.007200  -85.813900
  C    -106.400000   45.173700  -87.447100
  H    -105.563000   45.381800  -88.043800
  H    -107.158000   44.528400  -87.936700
  H    -106.012000   44.594000  -86.651100
  H    -99.873000   45.101400  -86.141000
  H    -106.154000   48.615700  -82.030400

 Total Charge           Charge          ....    0
 Multiplicity           Mult            ....    1
 Number of Electrons    NEL             ....  134
 Basis Dimension        Dim             ....  322

ORBITAL ENERGIES
----------------

  NO   OCC          E(Eh)            E(eV)
   0   2.0000     -88.970423     -2421.0083
   1   2.0000     -88.960655     -2420.7425
   2   2.0000     -10.328811      -281.0612
   3   2.0000     -10.326672      -281.0030
   4   2.0000     -10.318635      -280.7843
   5   2.0000     -10.316370      -280.7227
   6   2.0000     -10.309522      -280.5364
   7   2.0000     -10.300585      -280.2932
   8   2.0000     -10.299018      -280.2505
   9   2.0000     -10.294971      -280.1404
  10   2.0000     -10.291771      -280.0533
  11   2.0000     -10.291711      -280.0517
  12   2.0000     -10.290067      -280.0070
  13   2.0000     -10.280692      -279.7519
  14   2.0000     -10.278307      -279.6869
  15   2.0000     -10.264800      -279.3194
  16   2.0000      -8.084451      -219.9891
  17   2.0000      -8.076621      -219.7760
  18   2.0000      -6.042940      -164.4367
  19   2.0000      -6.038963      -164.3285
  20   2.0000      -6.035360      -164.2305
  21   2.0000      -6.035158      -164.2250
  22   2.0000      -6.030872      -164.1084
  23   2.0000      -6.027331      -164.0120
  24   2.0000      -1.010384       -27.4939
  25   2.0000      -0.985738       -26.8233
  26   2.0000      -0.925661       -25.1885
  27   2.0000      -0.916253       -24.9325
  28   2.0000      -0.873380       -23.7659
  29   2.0000      -0.854043       -23.2397
  30   2.0000      -0.845535       -23.0082
  31   2.0000      -0.818046       -22.2602
  32   2.0000      -0.782933       -21.3047
  33   2.0000      -0.771824       -21.0024
  34   2.0000      -0.718057       -19.5393
  35   2.0000      -0.698152       -18.9977
  36   2.0000      -0.690979       -18.8025
  37   2.0000      -0.655914       -17.8483
  38   2.0000      -0.639592       -17.4042
  39   2.0000      -0.626280       -17.0420
  40   2.0000      -0.599271       -16.3070
  41   2.0000      -0.579961       -15.7815
  42   2.0000      -0.568247       -15.4628
  43   2.0000      -0.558110       -15.1870
  44   2.0000      -0.538222       -14.6458
  45   2.0000      -0.531496       -14.4628
  46   2.0000      -0.518256       -14.1025
  47   2.0000      -0.510685       -13.8964
  48   2.0000      -0.507658       -13.8141
  49   2.0000      -0.499672       -13.5968
  50   2.0000      -0.496661       -13.5148
  51   2.0000      -0.481092       -13.0912
  52   2.0000      -0.471812       -12.8387
  53   2.0000      -0.469479       -12.7752
  54   2.0000      -0.459787       -12.5114
  55   2.0000      -0.455247       -12.3879
  56   2.0000      -0.441912       -12.0250
  57   2.0000      -0.438302       -11.9268
  58   2.0000      -0.432801       -11.7771
  59   2.0000      -0.422889       -11.5074
  60   2.0000      -0.418544       -11.3892
  61   2.0000      -0.414813       -11.2876
  62   2.0000      -0.400041       -10.8857
  63   2.0000      -0.353330        -9.6146
  64   2.0000      -0.335493        -9.1292
  65   2.0000      -0.321019        -8.7354
  66   2.0000      -0.285597        -7.7715
  67   0.0000       0.022581         0.6145
  68   0.0000       0.075544         2.0556
  69   0.0000       0.104609         2.8466
  70   0.0000       0.116208         3.1622
  71   0.0000       0.136713         3.7201

MULLIKEN ATOMIC CHARGES
-----------------------
   0 S :    0.126575
   1 C :   -0.121847
   2 C :   -0.110770
   3 C :    0.001459
   4 C :   -0.128804
   5 H :   -0.000072
   6 C :    0.106300
   7 H :    0.031213
   8 H :    0.041824
   9 C :   -0.118217
  10 H :    0.028565
  11 H :    0.019010
  12 C :   -0.007395
  13 H :    0.018853
  14 H :    0.029895
  15 H :    0.030957
  16 S :    0.094352
  17 C :   -0.094135
  18 C :   -0.063287
  19 C :   -0.088930
  20 C :   -0.108985
  21 H :    0.036291
  22 C :    0.048069
  23 H :    0.000453
  24 H :    0.023938
  25 C :   -0.057255
  26 H :    0.032809
  27 H :    0.055729
  28 C :   -0.016909
  29 H :    0.017379
  30 H :    0.034924
  31 H :    0.016834
  32 H :    0.046292
  33 H :    0.074886
Sum of atomic charges:   -0.0000000

LOEWDIN ATOMIC CHARGES
----------------------
   0 S :    0.409668
   1 C :   -0.195194
   2 C :   -0.060870
   3 C :   -0.065814
   4 C :   -0.195729
   5 H :    0.023578
   6 C :   -0.026287
   7 H :    0.039183
   8 H :    0.033244
   9 C :   -0.048873
  10 H :    0.024113
  11 H :    0.019125
  12 C :   -0.061577
  13 H :    0.020619
  14 H :    0.024041
  15 H :    0.032036
  16 S :    0.425275
  17 C :   -0.212069
  18 C :   -0.080902
  19 C :   -0.054509
  20 C :   -0.207296
  21 H :    0.036320
  22 C :   -0.043918
  23 H :    0.031575
  24 H :    0.032629
  25 C :   -0.041685
  26 H :    0.027925
  27 H :    0.037979
  28 C :   -0.061101
  29 H :    0.015654
  30 H :    0.028825
  31 H :    0.024677
  32 H :    0.025119
  33 H :    0.044241

  Mayer bond orders larger than 0.100000
B(  0-S ,  1-C ) :   1.1518 B(  0-S ,  4-C ) :   1.1461 B(  1-C ,  2-C ) :   1.5798
B(  1-C ,  4-C ) :   0.1121 B(  1-C , 32-H ) :   0.9656 B(  2-C ,  3-C ) :   1.2795
B(  2-C ,  6-C ) :   1.0060 B(  3-C ,  4-C ) :   1.5531 B(  3-C ,  5-H ) :   0.9894
B(  4-C , 20-C ) :   1.0641 B(  6-C ,  7-H ) :   0.9436 B(  6-C ,  8-H ) :   0.9224
B(  6-C ,  9-C ) :   1.0857 B(  9-C , 10-H ) :   0.9533 B(  9-C , 11-H ) :   0.9464
B(  9-C , 12-C ) :   1.0821 B( 12-C , 13-H ) :   0.9731 B( 12-C , 14-H ) :   0.9733
B( 12-C , 15-H ) :   0.9719 B( 16-S , 17-C ) :   1.1654 B( 16-S , 20-C ) :   1.1376
B( 17-C , 18-C ) :   1.5999 B( 17-C , 33-H ) :   0.9627 B( 18-C , 19-C ) :   1.2350
B( 18-C , 21-H ) :   0.9842 B( 19-C , 20-C ) :   1.5670 B( 19-C , 22-C ) :   1.0541
B( 22-C , 23-H ) :   0.9330 B( 22-C , 24-H ) :   0.9237 B( 22-C , 25-C ) :   1.0446
B( 25-C , 26-H ) :   0.9525 B( 25-C , 27-H ) :   0.9622 B( 25-C , 28-C ) :   1.0794
B( 28-C , 29-H ) :   0.9763 B( 28-C , 30-H ) :   0.9727 B( 28-C , 31-H ) :   0.9725

Dispersion correction           -0.014626534
FINAL SINGLE POINT ENERGY     -1339.857304256531

DIPOLE MOMENT
-------------
                                X             Y             Z
Electronic contribution:      7.16854       6.61897      29.36031
Nuclear contribution   :     -7.47153      -6.61974     -30.02030
                        -----------------------------------------
Total Dipole Moment    :     -0.30299      -0.00077      -0.65998
                        -----------------------------------------
Magnitude (a.u.)       :      0.72621
Magnitude (Debye)      :      1.84588

Rotational constants in cm-1:     0.018647     0.009514     0.006919
Rotational constants in MHz :   559.036686   285.231308   207.418182

                             ****ORCA TERMINATED NORMALLY****
TOTAL RUN TIME: 0 days 0 hours 0 minutes 22 seconds 564 msec
