                         Program Version 4.2.1 -  RELEASE  -
|  1> ! wB97X-D3 SP def2-SVP
|  2> %pal
|  3> nprocs 24
|  4> end
|  5>
|  6> * xyz 0 1
|  7> S 	 2.2428 	 -22.7363 	 -116.097
|  8> C 	 1.11859 	 -23.9832 	 -116.456
|  9> C 	 -0.101683 	 -23.7323 	 -115.857
| 10> C 	 -0.143085 	 -22.5351 	 -115.097
| 11> C 	 1.14295 	 -21.9799 	 -115.002
| 12> H 	 -0.990695 	 -22.1086 	 -114.521
| 13> C 	 -1.29764 	 -24.5838 	 -116.001
| 14> H 	 -1.47462 	 -24.5193 	 -117.033
| 15> H 	 -2.21193 	 -24.0266 	 -115.662
| 16> C 	 -1.41848 	 -25.9395 	 -115.345
| 17> H 	 -0.609157 	 -26.5999 	 -115.725
| 18> H 	 -1.35507 	 -25.957 	 -114.228
| 19> C 	 -2.71912 	 -26.6534 	 -115.79
| 20> H 	 -2.77073 	 -26.7624 	 -116.875
| 21> H 	 -2.82437 	 -27.6263 	 -115.303
| 22> H 	 -3.60954 	 -26.0653 	 -115.553
| 23> S 	 0.886169 	 -19.2694 	 -114.564
| 24> C 	 1.60987 	 -18.525 	 -113.101
| 25> C 	 2.33673 	 -19.5047 	 -112.409
| 26> C 	 2.35989 	 -20.815 	 -113.027
| 27> C 	 1.56998 	 -20.8462 	 -114.193
| 28> H 	 2.87687 	 -19.2063 	 -111.499
| 29> C 	 2.99941 	 -22.044 	 -112.389
| 30> H 	 4.03363 	 -21.7538 	 -112.098
| 31> H 	 3.16308 	 -22.703 	 -113.266
| 32> C 	 2.2486 	 -22.7087 	 -111.231
| 33> H 	 1.17194 	 -22.6132 	 -111.449
| 34> H 	 2.37149 	 -22.1145 	 -110.287
| 35> C 	 2.68586 	 -24.139 	 -111.064
| 36> H 	 2.45051 	 -24.6679 	 -111.93
| 37> H 	 2.1083 	 -24.6151 	 -110.225
| 38> H 	 3.7583 	 -24.2434 	 -110.851
| 39> H 	 1.26305 	 -24.7705 	 -117.136
| 40> H 	 1.48337 	 -17.4748 	 -112.837
| 41> *
| 42>
| 43>                          ****END OF INPUT****

CARTESIAN COORDINATES (ANGSTROEM)
---------------------------------
  S      2.242800  -22.736300  -116.097000
  C      1.118590  -23.983200  -116.456000
  C     -0.101683  -23.732300  -115.857000
  C     -0.143085  -22.535100  -115.097000
  C      1.142950  -21.979900  -115.002000
  H     -0.990695  -22.108600  -114.521000
  C     -1.297640  -24.583800  -116.001000
  H     -1.474620  -24.519300  -117.033000
  H     -2.211930  -24.026600  -115.662000
  C     -1.418480  -25.939500  -115.345000
  H     -0.609157  -26.599900  -115.725000
  H     -1.355070  -25.957000  -114.228000
  C     -2.719120  -26.653400  -115.790000
  H     -2.770730  -26.762400  -116.875000
  H     -2.824370  -27.626300  -115.303000
  H     -3.609540  -26.065300  -115.553000
  S      0.886169  -19.269400  -114.564000
  C      1.609870  -18.525000  -113.101000
  C      2.336730  -19.504700  -112.409000
  C      2.359890  -20.815000  -113.027000
  C      1.569980  -20.846200  -114.193000
  H      2.876870  -19.206300  -111.499000
  C      2.999410  -22.044000  -112.389000
  H      4.033630  -21.753800  -112.098000
  H      3.163080  -22.703000  -113.266000
  C      2.248600  -22.708700  -111.231000
  H      1.171940  -22.613200  -111.449000
  H      2.371490  -22.114500  -110.287000
  C      2.685860  -24.139000  -111.064000
  H      2.450510  -24.667900  -111.930000
  H      2.108300  -24.615100  -110.225000
  H      3.758300  -24.243400  -110.851000
  H      1.263050  -24.770500  -117.136000
  H      1.483370  -17.474800  -112.837000

 Total Charge           Charge          ....    0
 Multiplicity           Mult            ....    1
 Number of Electrons    NEL             ....  134
 Basis Dimension        Dim             ....  322

ORBITAL ENERGIES
----------------

  NO   OCC          E(Eh)            E(eV)
   0   2.0000     -88.969131     -2420.9731
   1   2.0000     -88.964102     -2420.8363
   2   2.0000     -10.328145      -281.0431
   3   2.0000     -10.327115      -281.0151
   4   2.0000     -10.323934      -280.9285
   5   2.0000     -10.307160      -280.4721
   6   2.0000     -10.306565      -280.4559
   7   2.0000     -10.299775      -280.2711
   8   2.0000     -10.297732      -280.2155
   9   2.0000     -10.297194      -280.2009
  10   2.0000     -10.294210      -280.1197
  11   2.0000     -10.291166      -280.0369
  12   2.0000     -10.286644      -279.9138
  13   2.0000     -10.284745      -279.8621
  14   2.0000     -10.280124      -279.7364
  15   2.0000     -10.273367      -279.5525
  16   2.0000      -8.084265      -219.9840
  17   2.0000      -8.077918      -219.8113
  18   2.0000      -6.042576      -164.4269
  19   2.0000      -6.038592      -164.3184
  20   2.0000      -6.036521      -164.2621
  21   2.0000      -6.035332      -164.2297
  22   2.0000      -6.032412      -164.1503
  23   2.0000      -6.028777      -164.0514
  24   2.0000      -1.007747       -27.4222
  25   2.0000      -0.978454       -26.6251
  26   2.0000      -0.915755       -24.9190
  27   2.0000      -0.905832       -24.6490
  28   2.0000      -0.867358       -23.6020
  29   2.0000      -0.853714       -23.2307
  30   2.0000      -0.846071       -23.0228
  31   2.0000      -0.812101       -22.0984
  32   2.0000      -0.780387       -21.2354
  33   2.0000      -0.766104       -20.8468
  34   2.0000      -0.705577       -19.1997
  35   2.0000      -0.702759       -19.1230
  36   2.0000      -0.693425       -18.8691
  37   2.0000      -0.658032       -17.9060
  38   2.0000      -0.644004       -17.5242
  39   2.0000      -0.612482       -16.6665
  40   2.0000      -0.588898       -16.0247
  41   2.0000      -0.571838       -15.5605
  42   2.0000      -0.561898       -15.2900
  43   2.0000      -0.556237       -15.1360
  44   2.0000      -0.533307       -14.5120
  45   2.0000      -0.524412       -14.2700
  46   2.0000      -0.516899       -14.0655
  47   2.0000      -0.514755       -14.0072
  48   2.0000      -0.504825       -13.7370
  49   2.0000      -0.504158       -13.7188
  50   2.0000      -0.492034       -13.3889
  51   2.0000      -0.473961       -12.8971
  52   2.0000      -0.468909       -12.7597
  53   2.0000      -0.462872       -12.5954
  54   2.0000      -0.456602       -12.4248
  55   2.0000      -0.449229       -12.2241
  56   2.0000      -0.443266       -12.0619
  57   2.0000      -0.437579       -11.9071
  58   2.0000      -0.434020       -11.8103
  59   2.0000      -0.424783       -11.5589
  60   2.0000      -0.419022       -11.4022
  61   2.0000      -0.411850       -11.2070
  62   2.0000      -0.407280       -11.0827
  63   2.0000      -0.337199        -9.1756
  64   2.0000      -0.332080        -9.0363
  65   2.0000      -0.325306        -8.8520
  66   2.0000      -0.298131        -8.1125
  67   0.0000       0.034850         0.9483
  68   0.0000       0.061411         1.6711
  69   0.0000       0.111146         3.0244
  70   0.0000       0.124564         3.3896
  71   0.0000       0.124970         3.4006

MULLIKEN ATOMIC CHARGES
-----------------------
   0 S :    0.135552
   1 C :   -0.096292
   2 C :   -0.089360
   3 C :    0.037931
   4 C :   -0.185464
   5 H :    0.033385
   6 C :    0.049734
   7 H :    0.018748
   8 H :    0.007863
   9 C :   -0.052485
  10 H :    0.027773
  11 H :    0.044388
  12 C :   -0.061068
  13 H :    0.028454
  14 H :    0.040101
  15 H :    0.024039
  16 S :    0.101585
  17 C :   -0.114837
  18 C :   -0.036201
  19 C :   -0.036161
  20 C :   -0.174549
  21 H :    0.028628
  22 C :    0.060765
  23 H :    0.026887
  24 H :    0.018249
  25 C :   -0.062221
  26 H :    0.033256
  27 H :    0.031597
  28 C :   -0.031299
  29 H :    0.026042
  30 H :    0.035784
  31 H :    0.034508
  32 H :    0.025631
  33 H :    0.069037
Sum of atomic charges:   -0.0000000

LOEWDIN ATOMIC CHARGES
----------------------
   0 S :    0.445077
   1 C :   -0.206981
   2 C :   -0.064032
   3 C :   -0.060392
   4 C :   -0.206410
   5 H :    0.041430
   6 C :   -0.046015
   7 H :    0.029951
   8 H :    0.034400
   9 C :   -0.039286
  10 H :    0.024432
  11 H :    0.031692
  12 C :   -0.066547
  13 H :    0.024436
  14 H :    0.027809
  15 H :    0.021473
  16 S :    0.387368
  17 C :   -0.178862
  18 C :   -0.072353
  19 C :   -0.055100
  20 C :   -0.206774
  21 H :    0.034428
  22 C :   -0.039127
  23 H :    0.032532
  24 H :    0.026811
  25 C :   -0.044151
  26 H :    0.027848
  27 H :    0.027073
  28 C :   -0.060888
  29 H :    0.018484
  30 H :    0.032082
  31 H :    0.027670
  32 H :    0.019022
  33 H :    0.032900

  Mayer bond orders larger than 0.100000
B(  0-S ,  1-C ) :   1.1454 B(  0-S ,  4-C ) :   1.1896 B(  1-C ,  2-C ) :   1.5815
B(  1-C , 32-H ) :   0.9798 B(  2-C ,  3-C ) :   1.2708 B(  2-C ,  6-C ) :   1.0156
B(  3-C ,  4-C ) :   1.5394 B(  3-C ,  5-H ) :   0.9898 B(  4-C , 20-C ) :   1.0105
B(  6-C ,  7-H ) :   0.9318 B(  6-C ,  8-H ) :   0.9362 B(  6-C ,  9-C ) :   1.0618
B(  9-C , 10-H ) :   0.9540 B(  9-C , 11-H ) :   0.9557 B(  9-C , 12-C ) :   1.0769
B( 12-C , 13-H ) :   0.9761 B( 12-C , 14-H ) :   0.9743 B( 12-C , 15-H ) :   0.9754
B( 16-S , 17-C ) :   1.1429 B( 16-S , 20-C ) :   1.1497 B( 17-C , 18-C ) :   1.6042
B( 17-C , 20-C ) :   0.1022 B( 17-C , 33-H ) :   0.9700 B( 18-C , 19-C ) :   1.2372
B( 18-C , 21-H ) :   0.9858 B( 19-C , 20-C ) :   1.5804 B( 19-C , 22-C ) :   1.0516
B( 22-C , 23-H ) :   0.9247 B( 22-C , 24-H ) :   0.9298 B( 22-C , 25-C ) :   1.0495
B( 25-C , 26-H ) :   0.9565 B( 25-C , 27-H ) :   0.9501 B( 25-C , 28-C ) :   1.0887
B( 28-C , 29-H ) :   0.9752 B( 28-C , 30-H ) :   0.9721 B( 28-C , 31-H ) :   0.9730

Dispersion correction           -0.014162561
FINAL SINGLE POINT ENERGY     -1339.887309039733

DIPOLE MOMENT
-------------
                                X             Y             Z
Electronic contribution:      8.90088      23.62960     -11.10885
Nuclear contribution   :     -9.14509     -23.99498      11.39344
                        -----------------------------------------
Total Dipole Moment    :     -0.24421      -0.36538       0.28459
                        -----------------------------------------
Magnitude (a.u.)       :      0.52358
Magnitude (Debye)      :      1.33083

Rotational constants in cm-1:     0.018744     0.008109     0.006875
Rotational constants in MHz :   561.934843   243.100276   206.100502

                             ****ORCA TERMINATED NORMALLY****
TOTAL RUN TIME: 0 days 0 hours 0 minutes 21 seconds 295 msec
