                         Program Version 4.2.1 -  RELEASE  -
|  1> ! wB97X-D3 SP def2-SVP
|  2> %pal
|  3> nprocs 24
|  4> end
|  5>
|  6> * xyz 0 1
|  7> S 	 -76.9624 	 -0.70473 	 -59.1945
|  8> C 	 -77.7021 	 0.638706 	 -60.0077
|  9> C 	 -77.0102 	 1.05936 	 -61.1016
| 10> C 	 -75.8555 	 0.25824 	 -61.2959
| 11> C 	 -75.6352 	 -0.732606 	 -60.3604
| 12> H 	 -75.1769 	 0.350274 	 -62.0962
| 13> C 	 -77.4096 	 2.27223 	 -61.907
| 14> H 	 -77.8522 	 3.011 	 -61.2608
| 15> H 	 -78.2617 	 1.92241 	 -62.4528
| 16> C 	 -76.3209 	 2.98315 	 -62.7246
| 17> H 	 -75.617 	 3.29717 	 -61.9768
| 18> H 	 -75.785 	 2.28476 	 -63.3779
| 19> C 	 -76.8451 	 4.10708 	 -63.4622
| 20> H 	 -77.3517 	 4.78655 	 -62.823
| 21> H 	 -76.032 	 4.80479 	 -63.7004
| 22> H 	 -77.5797 	 3.8839 	 -64.2846
| 23> S 	 -73.0402 	 -1.01252 	 -60.7523
| 24> C 	 -72.1765 	 -2.44221 	 -60.3407
| 25> C 	 -73.0664 	 -3.36152 	 -59.7833
| 26> C 	 -74.4263 	 -2.9275 	 -59.7818
| 27> C 	 -74.581 	 -1.6789 	 -60.3929
| 28> H 	 -72.646 	 -4.29561 	 -59.4216
| 29> C 	 -75.5745 	 -3.67351 	 -59.096
| 30> H 	 -75.9835 	 -3.03543 	 -58.3494
| 31> H 	 -75.1387 	 -4.5554 	 -58.6218
| 32> C 	 -76.6853 	 -4.22001 	 -59.9978
| 33> H 	 -76.2261 	 -5.0228 	 -60.4299
| 34> H 	 -76.816 	 -3.49043 	 -60.6916
| 35> C 	 -77.9288 	 -4.71207 	 -59.263
| 36> H 	 -78.3337 	 -3.91301 	 -58.5979
| 37> H 	 -77.6606 	 -5.54191 	 -58.6027
| 38> H 	 -78.7323 	 -5.06648 	 -59.943
| 39> H 	 -78.503 	 1.19458 	 -59.5634
| 40> H 	 -71.1259 	 -2.61544 	 -60.4466
| 41> *
| 42>
| 43>                          ****END OF INPUT****

CARTESIAN COORDINATES (ANGSTROEM)
---------------------------------
  S    -76.962400   -0.704730  -59.194500
  C    -77.702100    0.638706  -60.007700
  C    -77.010200    1.059360  -61.101600
  C    -75.855500    0.258240  -61.295900
  C    -75.635200   -0.732606  -60.360400
  H    -75.176900    0.350274  -62.096200
  C    -77.409600    2.272230  -61.907000
  H    -77.852200    3.011000  -61.260800
  H    -78.261700    1.922410  -62.452800
  C    -76.320900    2.983150  -62.724600
  H    -75.617000    3.297170  -61.976800
  H    -75.785000    2.284760  -63.377900
  C    -76.845100    4.107080  -63.462200
  H    -77.351700    4.786550  -62.823000
  H    -76.032000    4.804790  -63.700400
  H    -77.579700    3.883900  -64.284600
  S    -73.040200   -1.012520  -60.752300
  C    -72.176500   -2.442210  -60.340700
  C    -73.066400   -3.361520  -59.783300
  C    -74.426300   -2.927500  -59.781800
  C    -74.581000   -1.678900  -60.392900
  H    -72.646000   -4.295610  -59.421600
  C    -75.574500   -3.673510  -59.096000
  H    -75.983500   -3.035430  -58.349400
  H    -75.138700   -4.555400  -58.621800
  C    -76.685300   -4.220010  -59.997800
  H    -76.226100   -5.022800  -60.429900
  H    -76.816000   -3.490430  -60.691600
  C    -77.928800   -4.712070  -59.263000
  H    -78.333700   -3.913010  -58.597900
  H    -77.660600   -5.541910  -58.602700
  H    -78.732300   -5.066480  -59.943000
  H    -78.503000    1.194580  -59.563400
  H    -71.125900   -2.615440  -60.446600

 Total Charge           Charge          ....    0
 Multiplicity           Mult            ....    1
 Number of Electrons    NEL             ....  134
 Basis Dimension        Dim             ....  322

ORBITAL ENERGIES
----------------

  NO   OCC          E(Eh)            E(eV)
   0   2.0000     -88.966642     -2420.9054
   1   2.0000     -88.965334     -2420.8698
   2   2.0000     -10.327647      -281.0296
   3   2.0000     -10.321337      -280.8578
   4   2.0000     -10.314763      -280.6790
   5   2.0000     -10.306311      -280.4490
   6   2.0000     -10.304310      -280.3945
   7   2.0000     -10.297030      -280.1964
   8   2.0000     -10.295794      -280.1628
   9   2.0000     -10.287831      -279.9461
  10   2.0000     -10.287068      -279.9254
  11   2.0000     -10.284342      -279.8512
  12   2.0000     -10.282585      -279.8034
  13   2.0000     -10.278287      -279.6864
  14   2.0000     -10.275052      -279.5984
  15   2.0000     -10.263287      -279.2782
  16   2.0000      -8.080940      -219.8936
  17   2.0000      -8.080751      -219.8884
  18   2.0000      -6.039390      -164.3402
  19   2.0000      -6.039304      -164.3378
  20   2.0000      -6.035302      -164.2289
  21   2.0000      -6.035159      -164.2250
  22   2.0000      -6.031868      -164.1355
  23   2.0000      -6.031577      -164.1276
  24   2.0000      -1.014207       -27.5980
  25   2.0000      -0.988314       -26.8934
  26   2.0000      -0.922675       -25.1073
  27   2.0000      -0.911475       -24.8025
  28   2.0000      -0.881376       -23.9835
  29   2.0000      -0.856711       -23.3123
  30   2.0000      -0.846720       -23.0404
  31   2.0000      -0.816704       -22.2236
  32   2.0000      -0.782799       -21.3010
  33   2.0000      -0.771689       -20.9987
  34   2.0000      -0.717749       -19.5310
  35   2.0000      -0.702014       -19.1028
  36   2.0000      -0.689961       -18.7748
  37   2.0000      -0.673017       -18.3137
  38   2.0000      -0.637032       -17.3345
  39   2.0000      -0.622425       -16.9370
  40   2.0000      -0.592466       -16.1218
  41   2.0000      -0.578906       -15.7528
  42   2.0000      -0.575233       -15.6529
  43   2.0000      -0.570300       -15.5187
  44   2.0000      -0.534152       -14.5350
  45   2.0000      -0.518359       -14.1053
  46   2.0000      -0.516141       -14.0449
  47   2.0000      -0.514858       -14.0100
  48   2.0000      -0.507882       -13.8202
  49   2.0000      -0.505183       -13.7467
  50   2.0000      -0.491379       -13.3711
  51   2.0000      -0.487217       -13.2579
  52   2.0000      -0.477466       -12.9925
  53   2.0000      -0.471426       -12.8281
  54   2.0000      -0.458405       -12.4738
  55   2.0000      -0.451070       -12.2742
  56   2.0000      -0.442985       -12.0542
  57   2.0000      -0.435445       -11.8491
  58   2.0000      -0.429737       -11.6937
  59   2.0000      -0.426173       -11.5967
  60   2.0000      -0.421616       -11.4728
  61   2.0000      -0.413867       -11.2619
  62   2.0000      -0.409980       -11.1561
  63   2.0000      -0.359458        -9.7814
  64   2.0000      -0.331356        -9.0166
  65   2.0000      -0.329512        -8.9665
  66   2.0000      -0.282638        -7.6910
  67   0.0000       0.021772         0.5924
  68   0.0000       0.081429         2.2158
  69   0.0000       0.118112         3.2140
  70   0.0000       0.120906         3.2900
  71   0.0000       0.130272         3.5449

MULLIKEN ATOMIC CHARGES
-----------------------
   0 S :    0.092092
   1 C :   -0.125604
   2 C :   -0.046980
   3 C :   -0.008053
   4 C :   -0.105572
   5 H :   -0.009128
   6 C :    0.062740
   7 H :    0.012484
   8 H :    0.029629
   9 C :   -0.063474
  10 H :    0.027612
  11 H :    0.037666
  12 C :   -0.009153
  13 H :   -0.001443
  14 H :    0.026107
  15 H :    0.046414
  16 S :    0.105026
  17 C :   -0.086141
  18 C :   -0.047052
  19 C :   -0.075841
  20 C :   -0.122136
  21 H :    0.016991
  22 C :    0.041559
  23 H :    0.029713
  24 H :    0.007978
  25 C :    0.017951
  26 H :    0.000722
  27 H :    0.007632
  28 C :   -0.055018
  29 H :    0.031730
  30 H :    0.024702
  31 H :    0.045280
  32 H :    0.038671
  33 H :    0.052897
Sum of atomic charges:    0.0000000

LOEWDIN ATOMIC CHARGES
----------------------
   0 S :    0.411920
   1 C :   -0.197804
   2 C :   -0.059914
   3 C :   -0.065513
   4 C :   -0.186710
   5 H :    0.017117
   6 C :   -0.030254
   7 H :    0.028948
   8 H :    0.031852
   9 C :   -0.043275
  10 H :    0.029183
  11 H :    0.025196
  12 C :   -0.070739
  13 H :    0.019881
  14 H :    0.034216
  15 H :    0.035126
  16 S :    0.447467
  17 C :   -0.197814
  18 C :   -0.071180
  19 C :   -0.058144
  20 C :   -0.208451
  21 H :    0.031267
  22 C :   -0.028648
  23 H :    0.012982
  24 H :    0.028024
  25 C :   -0.027895
  26 H :    0.014967
  27 H :    0.007501
  28 C :   -0.064038
  29 H :    0.026396
  30 H :    0.024282
  31 H :    0.032021
  32 H :    0.023465
  33 H :    0.028568

  Mayer bond orders larger than 0.100000
B(  0-S ,  1-C ) :   1.1393 B(  0-S ,  4-C ) :   1.1306 B(  1-C ,  2-C ) :   1.6147
B(  1-C , 32-H ) :   0.9695 B(  2-C ,  3-C ) :   1.2544 B(  2-C ,  6-C ) :   0.9987
B(  3-C ,  4-C ) :   1.5310 B(  3-C ,  5-H ) :   1.0031 B(  4-C , 20-C ) :   1.0885
B(  6-C ,  7-H ) :   0.9414 B(  6-C ,  8-H ) :   0.9292 B(  6-C ,  9-C ) :   1.0704
B(  9-C , 10-H ) :   0.9486 B(  9-C , 11-H ) :   0.9445 B(  9-C , 12-C ) :   1.1169
B( 12-C , 13-H ) :   0.9582 B( 12-C , 14-H ) :   0.9610 B( 12-C , 15-H ) :   0.9705
B( 16-S , 17-C ) :   1.1742 B( 16-S , 20-C ) :   1.1628 B( 17-C , 18-C ) :   1.5681
B( 17-C , 20-C ) :   0.1016 B( 17-C , 33-H ) :   0.9716 B( 18-C , 19-C ) :   1.2821
B( 18-C , 21-H ) :   0.9944 B( 19-C , 20-C ) :   1.5179 B( 19-C , 22-C ) :   1.0436
B( 22-C , 23-H ) :   0.9360 B( 22-C , 24-H ) :   0.9306 B( 22-C , 25-C ) :   1.0523
B( 25-C , 26-H ) :   0.9480 B( 25-C , 27-H ) :   0.9608 B( 25-C , 28-C ) :   1.0847
B( 28-C , 29-H ) :   0.9754 B( 28-C , 30-H ) :   0.9726 B( 28-C , 31-H ) :   0.9736

Dispersion correction           -0.014040606
FINAL SINGLE POINT ENERGY     -1339.873560193591

DIPOLE MOMENT
-------------
                                X             Y             Z
Electronic contribution:     12.48857      -3.16282       6.84234
Nuclear contribution   :    -12.54559       3.33662      -6.92014
                        -----------------------------------------
Total Dipole Moment    :     -0.05702       0.17380      -0.07781
                        -----------------------------------------
Magnitude (a.u.)       :      0.19878
Magnitude (Debye)      :      0.50525

Rotational constants in cm-1:     0.020060     0.008598     0.006457
Rotational constants in MHz :   601.398148   257.762356   193.570680

                             ****ORCA TERMINATED NORMALLY****
TOTAL RUN TIME: 0 days 0 hours 0 minutes 20 seconds 347 msec
