                         Program Version 4.2.1 -  RELEASE  -
|  1> ! wB97X-D3 SP def2-SVP
|  2> %pal
|  3> nprocs 24
|  4> end
|  5>
|  6> * xyz 0 1
|  7> S 	 -35.5478 	 15.823 	 15.9269
|  8> C 	 -34.2444 	 16.083 	 17.1042
|  9> C 	 -33.0327 	 15.7128 	 16.5365
| 10> C 	 -33.1057 	 15.3179 	 15.153
| 11> C 	 -34.3972 	 15.324 	 14.7015
| 12> H 	 -32.1931 	 14.9892 	 14.6159
| 13> C 	 -31.7194 	 15.797 	 17.2202
| 14> H 	 -31.1259 	 16.4814 	 16.6405
| 15> H 	 -31.165 	 14.8696 	 17.2104
| 16> C 	 -31.7379 	 16.2983 	 18.658
| 17> H 	 -32.1418 	 17.3571 	 18.741
| 18> H 	 -32.3132 	 15.6087 	 19.2453
| 19> C 	 -30.2496 	 16.1892 	 19.2865
| 20> H 	 -29.6351 	 17.029 	 19.0217
| 21> H 	 -30.5453 	 16.3159 	 20.2893
| 22> H 	 -29.7843 	 15.1885 	 19.2037
| 23> S 	 -35.3836 	 13.1457 	 13.3601
| 24> C 	 -35.5459 	 13.169 	 11.6548
| 25> C 	 -35.3754 	 14.4423 	 11.1764
| 26> C 	 -34.9396 	 15.3736 	 12.1664
| 27> C 	 -34.9472 	 14.8255 	 13.4361
| 28> H 	 -35.5084 	 14.5366 	 10.1253
| 29> C 	 -34.7386 	 16.8449 	 11.674
| 30> H 	 -35.643 	 17.3092 	 11.8981
| 31> H 	 -34.5943 	 16.7245 	 10.5561
| 32> C 	 -33.4449 	 17.453 	 12.1791
| 33> H 	 -32.5957 	 16.8531 	 11.8838
| 34> H 	 -33.4048 	 17.4896 	 13.2947
| 35> C 	 -33.2195 	 18.8672 	 11.7395
| 36> H 	 -33.7479 	 19.561 	 12.4196
| 37> H 	 -33.5848 	 19.1778 	 10.7536
| 38> H 	 -32.1112 	 19.034 	 11.6999
| 39> H 	 -34.5169 	 16.5869 	 18.0895
| 40> H 	 -35.7806 	 12.3462 	 11.0957
| 41> *
| 42>
| 43>                          ****END OF INPUT****

CARTESIAN COORDINATES (ANGSTROEM)
---------------------------------
  S    -35.547800   15.823000   15.926900
  C    -34.244400   16.083000   17.104200
  C    -33.032700   15.712800   16.536500
  C    -33.105700   15.317900   15.153000
  C    -34.397200   15.324000   14.701500
  H    -32.193100   14.989200   14.615900
  C    -31.719400   15.797000   17.220200
  H    -31.125900   16.481400   16.640500
  H    -31.165000   14.869600   17.210400
  C    -31.737900   16.298300   18.658000
  H    -32.141800   17.357100   18.741000
  H    -32.313200   15.608700   19.245300
  C    -30.249600   16.189200   19.286500
  H    -29.635100   17.029000   19.021700
  H    -30.545300   16.315900   20.289300
  H    -29.784300   15.188500   19.203700
  S    -35.383600   13.145700   13.360100
  C    -35.545900   13.169000   11.654800
  C    -35.375400   14.442300   11.176400
  C    -34.939600   15.373600   12.166400
  C    -34.947200   14.825500   13.436100
  H    -35.508400   14.536600   10.125300
  C    -34.738600   16.844900   11.674000
  H    -35.643000   17.309200   11.898100
  H    -34.594300   16.724500   10.556100
  C    -33.444900   17.453000   12.179100
  H    -32.595700   16.853100   11.883800
  H    -33.404800   17.489600   13.294700
  C    -33.219500   18.867200   11.739500
  H    -33.747900   19.561000   12.419600
  H    -33.584800   19.177800   10.753600
  H    -32.111200   19.034000   11.699900
  H    -34.516900   16.586900   18.089500
  H    -35.780600   12.346200   11.095700

 Total Charge           Charge          ....    0
 Multiplicity           Mult            ....    1
 Number of Electrons    NEL             ....  134
 Basis Dimension        Dim             ....  322

ORBITAL ENERGIES
----------------

  NO   OCC          E(Eh)            E(eV)
   0   2.0000     -88.960217     -2420.7306
   1   2.0000     -88.959910     -2420.7222
   2   2.0000     -10.328902      -281.0637
   3   2.0000     -10.320739      -280.8416
   4   2.0000     -10.319594      -280.8104
   5   2.0000     -10.305397      -280.4241
   6   2.0000     -10.301821      -280.3268
   7   2.0000     -10.299876      -280.2739
   8   2.0000     -10.296623      -280.1854
   9   2.0000     -10.293711      -280.1061
  10   2.0000     -10.291613      -280.0490
  11   2.0000     -10.285076      -279.8711
  12   2.0000     -10.283098      -279.8173
  13   2.0000     -10.279371      -279.7159
  14   2.0000     -10.278911      -279.7034
  15   2.0000     -10.275345      -279.6063
  16   2.0000      -8.076094      -219.7617
  17   2.0000      -8.074647      -219.7223
  18   2.0000      -6.034484      -164.2067
  19   2.0000      -6.033193      -164.1715
  20   2.0000      -6.030339      -164.0939
  21   2.0000      -6.029126      -164.0609
  22   2.0000      -6.027017      -164.0035
  23   2.0000      -6.025397      -163.9594
  24   2.0000      -1.006747       -27.3950
  25   2.0000      -0.983607       -26.7653
  26   2.0000      -0.911539       -24.8042
  27   2.0000      -0.908236       -24.7144
  28   2.0000      -0.864646       -23.5282
  29   2.0000      -0.849571       -23.1180
  30   2.0000      -0.846057       -23.0224
  31   2.0000      -0.813247       -22.1296
  32   2.0000      -0.780939       -21.2504
  33   2.0000      -0.769000       -20.9256
  34   2.0000      -0.709618       -19.3097
  35   2.0000      -0.698211       -18.9993
  36   2.0000      -0.684631       -18.6298
  37   2.0000      -0.661227       -17.9929
  38   2.0000      -0.637467       -17.3464
  39   2.0000      -0.614787       -16.7292
  40   2.0000      -0.591990       -16.1089
  41   2.0000      -0.575486       -15.6598
  42   2.0000      -0.568387       -15.4666
  43   2.0000      -0.565730       -15.3943
  44   2.0000      -0.528855       -14.3909
  45   2.0000      -0.520820       -14.1722
  46   2.0000      -0.517569       -14.0838
  47   2.0000      -0.508012       -13.8237
  48   2.0000      -0.507150       -13.8002
  49   2.0000      -0.503320       -13.6960
  50   2.0000      -0.493150       -13.4193
  51   2.0000      -0.482206       -13.1215
  52   2.0000      -0.471120       -12.8198
  53   2.0000      -0.461727       -12.5642
  54   2.0000      -0.457892       -12.4599
  55   2.0000      -0.443903       -12.0792
  56   2.0000      -0.440877       -11.9969
  57   2.0000      -0.436333       -11.8732
  58   2.0000      -0.429947       -11.6994
  59   2.0000      -0.425270       -11.5722
  60   2.0000      -0.412238       -11.2176
  61   2.0000      -0.408209       -11.1079
  62   2.0000      -0.404585       -11.0093
  63   2.0000      -0.336261        -9.1501
  64   2.0000      -0.324806        -8.8384
  65   2.0000      -0.322089        -8.7645
  66   2.0000      -0.308626        -8.3982
  67   0.0000       0.052310         1.4234
  68   0.0000       0.055825         1.5191
  69   0.0000       0.118939         3.2365
  70   0.0000       0.125165         3.4059
  71   0.0000       0.129304         3.5185

MULLIKEN ATOMIC CHARGES
-----------------------
   0 S :    0.095083
   1 C :   -0.169884
   2 C :   -0.083306
   3 C :    0.045064
   4 C :   -0.163427
   5 H :    0.028911
   6 C :    0.077653
   7 H :    0.022693
   8 H :    0.024167
   9 C :   -0.141513
  10 H :    0.047343
  11 H :    0.030996
  12 C :   -0.034930
  13 H :    0.041554
  14 H :    0.019944
  15 H :    0.045624
  16 S :    0.117625
  17 C :   -0.066387
  18 C :   -0.035890
  19 C :   -0.032049
  20 C :   -0.166445
  21 H :    0.007616
  22 C :    0.102384
  23 H :    0.037180
  24 H :    0.029036
  25 C :   -0.106943
  26 H :    0.023143
  27 H :    0.055777
  28 C :   -0.042515
  29 H :    0.034166
  30 H :    0.017128
  31 H :    0.035568
  32 H :    0.082610
  33 H :    0.022024
Sum of atomic charges:    0.0000000

LOEWDIN ATOMIC CHARGES
----------------------
   0 S :    0.388415
   1 C :   -0.208876
   2 C :   -0.064300
   3 C :   -0.059195
   4 C :   -0.188931
   5 H :    0.042056
   6 C :   -0.041809
   7 H :    0.031430
   8 H :    0.031180
   9 C :   -0.035622
  10 H :    0.031293
  11 H :    0.018650
  12 C :   -0.061762
  13 H :    0.023093
  14 H :    0.021848
  15 H :    0.030616
  16 S :    0.430035
  17 C :   -0.177432
  18 C :   -0.076802
  19 C :   -0.049839
  20 C :   -0.222280
  21 H :    0.026853
  22 C :   -0.016079
  23 H :    0.025611
  24 H :    0.037744
  25 C :   -0.052622
  26 H :    0.022928
  27 H :    0.033128
  28 C :   -0.072059
  29 H :    0.027539
  30 H :    0.019008
  31 H :    0.032045
  32 H :    0.043090
  33 H :    0.011044

  Mayer bond orders larger than 0.100000
B(  0-S ,  1-C ) :   1.1148 B(  0-S ,  4-C ) :   1.1664 B(  1-C ,  2-C ) :   1.6202
B(  1-C , 32-H ) :   0.9574 B(  2-C ,  3-C ) :   1.2281 B(  2-C ,  6-C ) :   1.0230
B(  3-C ,  4-C ) :   1.5915 B(  3-C ,  5-H ) :   0.9994 B(  4-C , 20-C ) :   0.9756
B(  6-C ,  7-H ) :   0.9299 B(  6-C ,  8-H ) :   0.9323 B(  6-C ,  9-C ) :   1.0981
B(  9-C , 10-H ) :   0.9487 B(  9-C , 11-H ) :   0.9551 B(  9-C , 12-C ) :   1.0719
B( 12-C , 13-H ) :   0.9780 B( 12-C , 14-H ) :   0.9772 B( 12-C , 15-H ) :   0.9748
B( 16-S , 17-C ) :   1.1783 B( 16-S , 20-C ) :   1.1550 B( 17-C , 18-C ) :   1.5987
B( 17-C , 33-H ) :   0.9776 B( 18-C , 19-C ) :   1.2483 B( 18-C , 21-H ) :   0.9959
B( 19-C , 20-C ) :   1.6088 B( 19-C , 22-C ) :   1.0037 B( 22-C , 23-H ) :   0.9448
B( 22-C , 24-H ) :   0.9373 B( 22-C , 25-C ) :   1.0689 B( 25-C , 26-H ) :   0.9610
B( 25-C , 27-H ) :   0.9499 B( 25-C , 28-C ) :   1.0818 B( 28-C , 29-H ) :   0.9760
B( 28-C , 30-H ) :   0.9725 B( 28-C , 31-H ) :   0.9752

Dispersion correction           -0.014041370
FINAL SINGLE POINT ENERGY     -1339.867198504892

DIPOLE MOMENT
-------------
                                X             Y             Z
Electronic contribution:    -20.41277     -16.50617      -4.75411
Nuclear contribution   :     20.93000      16.71018       4.66130
                        -----------------------------------------
Total Dipole Moment    :      0.51724       0.20401      -0.09281
                        -----------------------------------------
Magnitude (a.u.)       :      0.56371
Magnitude (Debye)      :      1.43283

Rotational constants in cm-1:     0.019908     0.007792     0.006488
Rotational constants in MHz :   596.827328   233.600909   194.520176

                             ****ORCA TERMINATED NORMALLY****
TOTAL RUN TIME: 0 days 0 hours 0 minutes 21 seconds 296 msec
