                         Program Version 4.2.1 -  RELEASE  -
|  1> ! wB97X-D3 SP def2-SVP
|  2> %pal
|  3> nprocs 24
|  4> end
|  5>
|  6> * xyz 0 1
|  7> S 	 -104.666 	 48.3258 	 -83.3322
|  8> C 	 -103.222 	 49.2104 	 -83.6733
|  9> C 	 -102.574 	 48.7076 	 -84.8346
| 10> C 	 -103.276 	 47.6436 	 -85.4541
| 11> C 	 -104.314 	 47.1927 	 -84.6478
| 12> H 	 -102.931 	 47.2021 	 -86.3851
| 13> C 	 -101.384 	 49.2872 	 -85.4139
| 14> H 	 -100.981 	 49.932 	 -84.6831
| 15> H 	 -101.773 	 49.7112 	 -86.3064
| 16> C 	 -100.237 	 48.3918 	 -85.7642
| 17> H 	 -99.9415 	 47.6374 	 -85.0288
| 18> H 	 -100.282 	 47.7109 	 -86.6429
| 19> C 	 -98.9611 	 49.181 	 -85.9998
| 20> H 	 -98.5843 	 49.5815 	 -85.0472
| 21> H 	 -98.1555 	 48.5763 	 -86.4179
| 22> H 	 -99.0022 	 50.059 	 -86.6799
| 23> S 	 -107.04 	 46.3149 	 -84.7434
| 24> C 	 -107.4 	 44.9732 	 -85.686
| 25> C 	 -106.266 	 44.2652 	 -86.0873
| 26> C 	 -105.06 	 44.9844 	 -85.7656
| 27> C 	 -105.29 	 46.214 	 -85.1309
| 28> H 	 -106.39 	 43.3582 	 -86.5766
| 29> C 	 -103.702 	 44.2899 	 -85.9741
| 30> H 	 -102.915 	 44.8439 	 -86.4188
| 31> H 	 -103.783 	 43.5773 	 -86.8406
| 32> C 	 -103.214 	 43.4985 	 -84.747
| 33> H 	 -102.299 	 43.0201 	 -85.2053
| 34> H 	 -103.776 	 42.6216 	 -84.6769
| 35> C 	 -102.886 	 44.151 	 -83.4261
| 36> H 	 -103.709 	 44.7578 	 -83.1339
| 37> H 	 -102.025 	 44.7365 	 -83.4503
| 38> H 	 -102.833 	 43.4289 	 -82.6303
| 39> H 	 -102.818 	 50.0772 	 -83.0304
| 40> H 	 -108.391 	 44.6504 	 -85.8424
| 41> *
| 42>
| 43>                          ****END OF INPUT****

CARTESIAN COORDINATES (ANGSTROEM)
---------------------------------
  S    -104.666000   48.325800  -83.332200
  C    -103.222000   49.210400  -83.673300
  C    -102.574000   48.707600  -84.834600
  C    -103.276000   47.643600  -85.454100
  C    -104.314000   47.192700  -84.647800
  H    -102.931000   47.202100  -86.385100
  C    -101.384000   49.287200  -85.413900
  H    -100.981000   49.932000  -84.683100
  H    -101.773000   49.711200  -86.306400
  C    -100.237000   48.391800  -85.764200
  H    -99.941500   47.637400  -85.028800
  H    -100.282000   47.710900  -86.642900
  C    -98.961100   49.181000  -85.999800
  H    -98.584300   49.581500  -85.047200
  H    -98.155500   48.576300  -86.417900
  H    -99.002200   50.059000  -86.679900
  S    -107.040000   46.314900  -84.743400
  C    -107.400000   44.973200  -85.686000
  C    -106.266000   44.265200  -86.087300
  C    -105.060000   44.984400  -85.765600
  C    -105.290000   46.214000  -85.130900
  H    -106.390000   43.358200  -86.576600
  C    -103.702000   44.289900  -85.974100
  H    -102.915000   44.843900  -86.418800
  H    -103.783000   43.577300  -86.840600
  C    -103.214000   43.498500  -84.747000
  H    -102.299000   43.020100  -85.205300
  H    -103.776000   42.621600  -84.676900
  C    -102.886000   44.151000  -83.426100
  H    -103.709000   44.757800  -83.133900
  H    -102.025000   44.736500  -83.450300
  H    -102.833000   43.428900  -82.630300
  H    -102.818000   50.077200  -83.030400
  H    -108.391000   44.650400  -85.842400

 Total Charge           Charge          ....    0
 Multiplicity           Mult            ....    1
 Number of Electrons    NEL             ....  134
 Basis Dimension        Dim             ....  322

ORBITAL ENERGIES
----------------

  NO   OCC          E(Eh)            E(eV)
   0   2.0000     -88.970148     -2421.0008
   1   2.0000     -88.964516     -2420.8475
   2   2.0000     -10.332988      -281.1749
   3   2.0000     -10.329203      -281.0719
   4   2.0000     -10.319600      -280.8106
   5   2.0000     -10.310158      -280.5536
   6   2.0000     -10.305489      -280.4266
   7   2.0000     -10.296864      -280.1919
   8   2.0000     -10.293147      -280.0908
   9   2.0000     -10.292639      -280.0770
  10   2.0000     -10.289311      -279.9864
  11   2.0000     -10.287294      -279.9315
  12   2.0000     -10.281738      -279.7803
  13   2.0000     -10.279446      -279.7180
  14   2.0000     -10.279337      -279.7150
  15   2.0000     -10.261364      -279.2259
  16   2.0000      -8.084492      -219.9902
  17   2.0000      -8.079934      -219.8662
  18   2.0000      -6.043021      -164.4390
  19   2.0000      -6.039126      -164.3330
  20   2.0000      -6.038362      -164.3122
  21   2.0000      -6.035206      -164.2263
  22   2.0000      -6.034372      -164.2036
  23   2.0000      -6.030733      -164.1046
  24   2.0000      -1.004485       -27.3334
  25   2.0000      -0.984839       -26.7988
  26   2.0000      -0.925176       -25.1753
  27   2.0000      -0.906272       -24.6609
  28   2.0000      -0.867362       -23.6021
  29   2.0000      -0.857499       -23.3337
  30   2.0000      -0.846596       -23.0370
  31   2.0000      -0.813415       -22.1341
  32   2.0000      -0.790928       -21.5222
  33   2.0000      -0.769300       -20.9337
  34   2.0000      -0.710802       -19.3419
  35   2.0000      -0.698187       -18.9986
  36   2.0000      -0.691632       -18.8203
  37   2.0000      -0.659910       -17.9571
  38   2.0000      -0.633527       -17.2392
  39   2.0000      -0.629095       -17.1185
  40   2.0000      -0.601622       -16.3710
  41   2.0000      -0.578936       -15.7537
  42   2.0000      -0.567750       -15.4493
  43   2.0000      -0.545947       -14.8560
  44   2.0000      -0.540111       -14.6972
  45   2.0000      -0.525280       -14.2936
  46   2.0000      -0.515233       -14.0202
  47   2.0000      -0.512765       -13.9530
  48   2.0000      -0.503319       -13.6960
  49   2.0000      -0.496752       -13.5173
  50   2.0000      -0.492465       -13.4007
  51   2.0000      -0.477722       -12.9995
  52   2.0000      -0.473984       -12.8978
  53   2.0000      -0.467346       -12.7171
  54   2.0000      -0.461235       -12.5508
  55   2.0000      -0.454017       -12.3544
  56   2.0000      -0.444884       -12.1059
  57   2.0000      -0.438780       -11.9398
  58   2.0000      -0.434263       -11.8169
  59   2.0000      -0.425482       -11.5780
  60   2.0000      -0.412481       -11.2242
  61   2.0000      -0.411737       -11.2039
  62   2.0000      -0.399762       -10.8781
  63   2.0000      -0.358445        -9.7538
  64   2.0000      -0.329182        -8.9575
  65   2.0000      -0.326805        -8.8928
  66   2.0000      -0.277983        -7.5643
  67   0.0000       0.022513         0.6126
  68   0.0000       0.075654         2.0586
  69   0.0000       0.104264         2.8372
  70   0.0000       0.118208         3.2166
  71   0.0000       0.130152         3.5416

MULLIKEN ATOMIC CHARGES
-----------------------
   0 S :    0.106559
   1 C :   -0.151045
   2 C :   -0.120716
   3 C :    0.004777
   4 C :   -0.110757
   5 H :    0.025094
   6 C :    0.160389
   7 H :    0.001107
   8 H :    0.038265
   9 C :   -0.091134
  10 H :    0.026031
  11 H :    0.021562
  12 C :   -0.080411
  13 H :    0.027965
  14 H :    0.028878
  15 H :    0.029288
  16 S :    0.107502
  17 C :   -0.078146
  18 C :   -0.009850
  19 C :   -0.044259
  20 C :   -0.137665
  21 H :   -0.005434
  22 C :    0.054662
  23 H :    0.005629
  24 H :    0.013505
  25 C :   -0.070021
  26 H :    0.012693
  27 H :    0.003684
  28 C :    0.041745
  29 H :    0.025171
  30 H :    0.021463
  31 H :    0.020550
  32 H :    0.079637
  33 H :    0.043280
Sum of atomic charges:   -0.0000000

LOEWDIN ATOMIC CHARGES
----------------------
   0 S :    0.407058
   1 C :   -0.230298
   2 C :   -0.061143
   3 C :   -0.054963
   4 C :   -0.179884
   5 H :    0.034015
   6 C :   -0.030498
   7 H :    0.030509
   8 H :    0.042170
   9 C :   -0.050565
  10 H :    0.028197
  11 H :    0.023915
  12 C :   -0.070441
  13 H :    0.021766
  14 H :    0.025671
  15 H :    0.024689
  16 S :    0.412816
  17 C :   -0.195025
  18 C :   -0.065339
  19 C :   -0.055588
  20 C :   -0.189993
  21 H :    0.020566
  22 C :   -0.036536
  23 H :    0.018612
  24 H :    0.037730
  25 C :   -0.038935
  26 H :    0.028701
  27 H :    0.014687
  28 C :   -0.052928
  29 H :    0.025753
  30 H :    0.019562
  31 H :    0.028980
  32 H :    0.046260
  33 H :    0.020481

  Mayer bond orders larger than 0.100000
B(  0-S ,  1-C ) :   1.1362 B(  0-S ,  4-C ) :   1.1490 B(  1-C ,  2-C ) :   1.5739
B(  1-C , 32-H ) :   0.9546 B(  2-C ,  3-C ) :   1.2699 B(  2-C ,  6-C ) :   1.0489
B(  3-C ,  4-C ) :   1.5273 B(  3-C ,  5-H ) :   0.9907 B(  4-C , 20-C ) :   1.0877
B(  6-C ,  7-H ) :   0.9346 B(  6-C ,  8-H ) :   0.9134 B(  6-C ,  9-C ) :   1.0631
B(  9-C , 10-H ) :   0.9542 B(  9-C , 11-H ) :   0.9487 B(  9-C , 12-C ) :   1.0922
B( 12-C , 13-H ) :   0.9746 B( 12-C , 14-H ) :   0.9736 B( 12-C , 15-H ) :   0.9739
B( 16-S , 17-C ) :   1.1880 B( 16-S , 20-C ) :   1.1218 B( 17-C , 18-C ) :   1.5708
B( 17-C , 33-H ) :   0.9724 B( 18-C , 19-C ) :   1.2541 B( 18-C , 21-H ) :   1.0070
B( 19-C , 20-C ) :   1.5713 B( 19-C , 22-C ) :   1.0344 B( 22-C , 23-H ) :   0.9389
B( 22-C , 24-H ) :   0.9290 B( 22-C , 25-C ) :   1.0772 B( 25-C , 26-H ) :   0.9457
B( 25-C , 27-H ) :   0.9551 B( 25-C , 28-C ) :   1.0799 B( 28-C , 29-H ) :   0.9676
B( 28-C , 30-H ) :   0.9734 B( 28-C , 31-H ) :   0.9661

Dispersion correction           -0.015004121
FINAL SINGLE POINT ENERGY     -1339.853069362652

DIPOLE MOMENT
-------------
                                X             Y             Z
Electronic contribution:    -28.26855       5.48236       6.12017
Nuclear contribution   :     28.80271      -5.70311      -6.44887
                        -----------------------------------------
Total Dipole Moment    :      0.53417      -0.22075      -0.32870
                        -----------------------------------------
Magnitude (a.u.)       :      0.66491
Magnitude (Debye)      :      1.69008

Rotational constants in cm-1:     0.020546     0.008778     0.007203
Rotational constants in MHz :   615.951442   263.171896   215.933824

                             ****ORCA TERMINATED NORMALLY****
TOTAL RUN TIME: 0 days 0 hours 0 minutes 22 seconds 336 msec
