                         Program Version 4.2.1 -  RELEASE  -
|  1> ! wB97X-D3 SP def2-SVP
|  2> %pal
|  3> nprocs 24
|  4> end
|  5>
|  6> * xyz 0 1
|  7> S 	 -70.1846 	 2.86668 	 14.4568
|  8> C 	 -68.9407 	 3.77492 	 13.654
|  9> C 	 -69.1663 	 5.13908 	 13.8028
| 10> C 	 -70.21 	 5.43925 	 14.7135
| 11> C 	 -70.7588 	 4.30467 	 15.267
| 12> H 	 -70.5713 	 6.4037 	 14.9978
| 13> C 	 -68.3326 	 6.13073 	 13.1016
| 14> H 	 -68.8894 	 6.94695 	 12.739
| 15> H 	 -67.8509 	 5.63806 	 12.2429
| 16> C 	 -67.3085 	 6.71807 	 14.019
| 17> H 	 -66.5255 	 7.10787 	 13.4479
| 18> H 	 -67.853 	 7.53818 	 14.5441
| 19> C 	 -66.722 	 5.70871 	 15.0335
| 20> H 	 -67.3818 	 5.29255 	 15.8007
| 21> H 	 -66.1775 	 5.0052 	 14.4212
| 22> H 	 -65.8837 	 6.25743 	 15.5287
| 23> S 	 -73.4553 	 4.01244 	 15.8472
| 24> C 	 -73.9346 	 4.10642 	 17.5459
| 25> C 	 -72.85 	 4.41897 	 18.384
| 26> C 	 -71.7003 	 4.64832 	 17.6333
| 27> C 	 -71.7908 	 4.28905 	 16.2941
| 28> H 	 -72.9657 	 4.37665 	 19.4419
| 29> C 	 -70.3723 	 4.83858 	 18.3556
| 30> H 	 -70.4912 	 5.46064 	 19.1649
| 31> H 	 -69.6795 	 5.35777 	 17.7506
| 32> C 	 -69.7898 	 3.53076 	 18.8275
| 33> H 	 -69.8832 	 2.95675 	 17.8855
| 34> H 	 -70.4689 	 3.03381 	 19.5102
| 35> C 	 -68.4248 	 3.68738 	 19.3678
| 36> H 	 -67.7643 	 2.80854 	 19.2933
| 37> H 	 -68.4941 	 4.06603 	 20.4036
| 38> H 	 -67.8443 	 4.46437 	 18.8556
| 39> H 	 -68.0439 	 3.37802 	 13.2281
| 40> H 	 -74.9096 	 3.83396 	 17.9819
| 41> *
| 42>
| 43>                          ****END OF INPUT****

CARTESIAN COORDINATES (ANGSTROEM)
---------------------------------
  S    -70.184600    2.866680   14.456800
  C    -68.940700    3.774920   13.654000
  C    -69.166300    5.139080   13.802800
  C    -70.210000    5.439250   14.713500
  C    -70.758800    4.304670   15.267000
  H    -70.571300    6.403700   14.997800
  C    -68.332600    6.130730   13.101600
  H    -68.889400    6.946950   12.739000
  H    -67.850900    5.638060   12.242900
  C    -67.308500    6.718070   14.019000
  H    -66.525500    7.107870   13.447900
  H    -67.853000    7.538180   14.544100
  C    -66.722000    5.708710   15.033500
  H    -67.381800    5.292550   15.800700
  H    -66.177500    5.005200   14.421200
  H    -65.883700    6.257430   15.528700
  S    -73.455300    4.012440   15.847200
  C    -73.934600    4.106420   17.545900
  C    -72.850000    4.418970   18.384000
  C    -71.700300    4.648320   17.633300
  C    -71.790800    4.289050   16.294100
  H    -72.965700    4.376650   19.441900
  C    -70.372300    4.838580   18.355600
  H    -70.491200    5.460640   19.164900
  H    -69.679500    5.357770   17.750600
  C    -69.789800    3.530760   18.827500
  H    -69.883200    2.956750   17.885500
  H    -70.468900    3.033810   19.510200
  C    -68.424800    3.687380   19.367800
  H    -67.764300    2.808540   19.293300
  H    -68.494100    4.066030   20.403600
  H    -67.844300    4.464370   18.855600
  H    -68.043900    3.378020   13.228100
  H    -74.909600    3.833960   17.981900

 Total Charge           Charge          ....    0
 Multiplicity           Mult            ....    1
 Number of Electrons    NEL             ....  134
 Basis Dimension        Dim             ....  322

ORBITAL ENERGIES
----------------

  NO   OCC          E(Eh)            E(eV)
   0   2.0000     -88.967970     -2420.9415
   1   2.0000     -88.967216     -2420.9210
   2   2.0000     -10.327466      -281.0246
   3   2.0000     -10.323234      -280.9095
   4   2.0000     -10.320112      -280.8245
   5   2.0000     -10.310112      -280.5524
   6   2.0000     -10.297499      -280.2092
   7   2.0000     -10.296122      -280.1717
   8   2.0000     -10.292471      -280.0724
   9   2.0000     -10.291234      -280.0387
  10   2.0000     -10.280864      -279.7565
  11   2.0000     -10.279550      -279.7208
  12   2.0000     -10.277872      -279.6751
  13   2.0000     -10.275453      -279.6093
  14   2.0000     -10.275230      -279.6032
  15   2.0000     -10.272743      -279.5355
  16   2.0000      -8.082262      -219.9295
  17   2.0000      -8.082021      -219.9230
  18   2.0000      -6.040729      -164.3766
  19   2.0000      -6.040426      -164.3684
  20   2.0000      -6.036812      -164.2700
  21   2.0000      -6.036518      -164.2620
  22   2.0000      -6.033120      -164.1695
  23   2.0000      -6.032889      -164.1632
  24   2.0000      -1.009268       -27.4636
  25   2.0000      -0.987247       -26.8644
  26   2.0000      -0.923440       -25.1281
  27   2.0000      -0.916855       -24.9489
  28   2.0000      -0.868035       -23.6204
  29   2.0000      -0.852016       -23.1845
  30   2.0000      -0.846219       -23.0268
  31   2.0000      -0.814095       -22.1526
  32   2.0000      -0.786837       -21.4109
  33   2.0000      -0.772060       -21.0088
  34   2.0000      -0.707519       -19.2526
  35   2.0000      -0.696305       -18.9474
  36   2.0000      -0.691746       -18.8234
  37   2.0000      -0.663281       -18.0488
  38   2.0000      -0.643057       -17.4985
  39   2.0000      -0.621403       -16.9092
  40   2.0000      -0.596954       -16.2440
  41   2.0000      -0.574316       -15.6279
  42   2.0000      -0.568697       -15.4750
  43   2.0000      -0.567083       -15.4311
  44   2.0000      -0.544340       -14.8122
  45   2.0000      -0.524018       -14.2592
  46   2.0000      -0.517265       -14.0755
  47   2.0000      -0.512954       -13.9582
  48   2.0000      -0.503942       -13.7129
  49   2.0000      -0.498670       -13.5695
  50   2.0000      -0.496356       -13.5065
  51   2.0000      -0.480293       -13.0694
  52   2.0000      -0.475087       -12.9278
  53   2.0000      -0.466767       -12.7014
  54   2.0000      -0.459081       -12.4922
  55   2.0000      -0.446623       -12.1532
  56   2.0000      -0.442046       -12.0287
  57   2.0000      -0.433434       -11.7944
  58   2.0000      -0.428818       -11.6687
  59   2.0000      -0.427784       -11.6406
  60   2.0000      -0.421793       -11.4776
  61   2.0000      -0.413115       -11.2414
  62   2.0000      -0.407033       -11.0759
  63   2.0000      -0.339972        -9.2511
  64   2.0000      -0.331311        -9.0154
  65   2.0000      -0.324370        -8.8265
  66   2.0000      -0.297201        -8.0872
  67   0.0000       0.035318         0.9611
  68   0.0000       0.053246         1.4489
  69   0.0000       0.114891         3.1264
  70   0.0000       0.119982         3.2649
  71   0.0000       0.126457         3.4411

MULLIKEN ATOMIC CHARGES
-----------------------
   0 S :    0.126052
   1 C :   -0.119100
   2 C :   -0.119914
   3 C :    0.069867
   4 C :   -0.183747
   5 H :    0.004625
   6 C :    0.123800
   7 H :    0.014994
   8 H :    0.016087
   9 C :   -0.086525
  10 H :    0.017931
  11 H :    0.028539
  12 C :   -0.048033
  13 H :    0.067479
  14 H :    0.015437
  15 H :    0.027766
  16 S :    0.122093
  17 C :   -0.106514
  18 C :   -0.038173
  19 C :   -0.021029
  20 C :   -0.176914
  21 H :    0.017064
  22 C :    0.111045
  23 H :   -0.013794
  24 H :   -0.004407
  25 C :   -0.054821
  26 H :    0.019566
  27 H :    0.018616
  28 C :   -0.023375
  29 H :    0.041948
  30 H :    0.029926
  31 H :    0.017513
  32 H :    0.044498
  33 H :    0.061498
Sum of atomic charges:   -0.0000000

LOEWDIN ATOMIC CHARGES
----------------------
   0 S :    0.416234
   1 C :   -0.199579
   2 C :   -0.057002
   3 C :   -0.051952
   4 C :   -0.197246
   5 H :    0.030512
   6 C :   -0.034137
   7 H :    0.027669
   8 H :    0.029298
   9 C :   -0.035453
  10 H :    0.017721
  11 H :    0.023960
  12 C :   -0.067043
  13 H :    0.029575
  14 H :    0.021090
  15 H :    0.029406
  16 S :    0.408819
  17 C :   -0.185716
  18 C :   -0.065177
  19 C :   -0.052711
  20 C :   -0.208983
  21 H :    0.030720
  22 C :   -0.021462
  23 H :    0.012927
  24 H :    0.019828
  25 C :   -0.043242
  26 H :    0.025832
  27 H :    0.021794
  28 C :   -0.069125
  29 H :    0.031377
  30 H :    0.029946
  31 H :    0.024728
  32 H :    0.024638
  33 H :    0.032753

  Mayer bond orders larger than 0.100000
B(  0-S ,  1-C ) :   1.1429 B(  0-S ,  4-C ) :   1.1598 B(  1-C ,  2-C ) :   1.5813
B(  1-C ,  4-C ) :   0.1015 B(  1-C , 32-H ) :   0.9711 B(  2-C ,  3-C ) :   1.2305
B(  2-C ,  6-C ) :   1.0514 B(  3-C ,  4-C ) :   1.5651 B(  3-C ,  5-H ) :   1.0064
B(  4-C , 20-C ) :   1.0144 B(  6-C ,  7-H ) :   0.9352 B(  6-C ,  8-H ) :   0.9331
B(  6-C ,  9-C ) :   1.0646 B(  9-C , 10-H ) :   0.9544 B(  9-C , 11-H ) :   0.9561
B(  9-C , 12-C ) :   1.0961 B( 12-C , 13-H ) :   0.9638 B( 12-C , 14-H ) :   0.9725
B( 12-C , 15-H ) :   0.9712 B( 16-S , 17-C ) :   1.1624 B( 16-S , 20-C ) :   1.1514
B( 17-C , 18-C ) :   1.5929 B( 17-C , 20-C ) :   0.1138 B( 17-C , 33-H ) :   0.9627
B( 18-C , 19-C ) :   1.2509 B( 18-C , 21-H ) :   0.9963 B( 19-C , 20-C ) :   1.5823
B( 19-C , 22-C ) :   1.0694 B( 22-C , 23-H ) :   0.9186 B( 22-C , 24-H ) :   0.9229
B( 22-C , 25-C ) :   1.0636 B( 25-C , 26-H ) :   0.9513 B( 25-C , 27-H ) :   0.9523
B( 25-C , 28-C ) :   1.0819 B( 28-C , 29-H ) :   0.9712 B( 28-C , 30-H ) :   0.9681
B( 28-C , 31-H ) :   0.9720

Dispersion correction           -0.016036001
FINAL SINGLE POINT ENERGY     -1339.867894670498

DIPOLE MOMENT
-------------
                                X             Y             Z
Electronic contribution:    -23.67472      -9.02295      -9.91429
Nuclear contribution   :     24.13948       9.38612      10.13019
                        -----------------------------------------
Total Dipole Moment    :      0.46476       0.36317       0.21590
                        -----------------------------------------
Magnitude (a.u.)       :      0.62810
Magnitude (Debye)      :      1.59649

Rotational constants in cm-1:     0.019054     0.009985     0.007904
Rotational constants in MHz :   571.236071   299.328856   236.952443

                             ****ORCA TERMINATED NORMALLY****
TOTAL RUN TIME: 0 days 0 hours 0 minutes 23 seconds 434 msec
