                         Program Version 4.2.1 -  RELEASE  -
|  1> ! wB97X-D3 SP def2-SVP
|  2> %pal
|  3> nprocs 24
|  4> end
|  5>
|  6> * xyz 0 1
|  7> S 	 -83.9294 	 -42.0969 	 -88.3735
|  8> C 	 -83.009 	 -40.7021 	 -88.0534
|  9> C 	 -81.7232 	 -40.8624 	 -88.5895
| 10> C 	 -81.5192 	 -42.2433 	 -89.0278
| 11> C 	 -82.6359 	 -43.031 	 -89.0528
| 12> H 	 -80.5096 	 -42.6197 	 -89.3391
| 13> C 	 -80.4904 	 -40.0152 	 -88.5301
| 14> H 	 -79.734 	 -40.3427 	 -89.194
| 15> H 	 -80.1022 	 -40.1371 	 -87.5576
| 16> C 	 -80.8543 	 -38.5344 	 -88.6726
| 17> H 	 -81.3513 	 -38.4292 	 -89.6351
| 18> H 	 -81.6069 	 -38.274 	 -87.8592
| 19> C 	 -79.5735 	 -37.676 	 -88.5529
| 20> H 	 -79.8208 	 -36.6596 	 -88.1438
| 21> H 	 -78.7474 	 -38.0172 	 -87.9203
| 22> H 	 -79.1776 	 -37.5173 	 -89.5591
| 23> S 	 -83.4247 	 -45.4671 	 -88.1123
| 24> C 	 -83.4283 	 -46.8728 	 -89.1776
| 25> C 	 -82.8583 	 -46.5945 	 -90.3526
| 26> C 	 -82.4935 	 -45.2136 	 -90.473
| 27> C 	 -82.835 	 -44.4116 	 -89.3722
| 28> H 	 -82.9543 	 -47.2805 	 -91.1469
| 29> C 	 -81.9296 	 -44.6824 	 -91.7482
| 30> H 	 -81.1517 	 -45.3935 	 -92.0032
| 31> H 	 -81.4816 	 -43.6524 	 -91.6091
| 32> C 	 -82.8583 	 -44.4664 	 -92.9029
| 33> H 	 -82.1612 	 -43.9292 	 -93.5623
| 34> H 	 -83.661 	 -43.7317 	 -92.6473
| 35> C 	 -83.4172 	 -45.733 	 -93.6558
| 36> H 	 -82.534 	 -46.3278 	 -94.0207
| 37> H 	 -84.0504 	 -45.5218 	 -94.5039
| 38> H 	 -83.9722 	 -46.3907 	 -93.0345
| 39> H 	 -83.2855 	 -39.7408 	 -87.5973
| 40> H 	 -83.7564 	 -47.903 	 -88.9522
| 41> *
| 42>
| 43>                          ****END OF INPUT****

CARTESIAN COORDINATES (ANGSTROEM)
---------------------------------
  S    -83.929400  -42.096900  -88.373500
  C    -83.009000  -40.702100  -88.053400
  C    -81.723200  -40.862400  -88.589500
  C    -81.519200  -42.243300  -89.027800
  C    -82.635900  -43.031000  -89.052800
  H    -80.509600  -42.619700  -89.339100
  C    -80.490400  -40.015200  -88.530100
  H    -79.734000  -40.342700  -89.194000
  H    -80.102200  -40.137100  -87.557600
  C    -80.854300  -38.534400  -88.672600
  H    -81.351300  -38.429200  -89.635100
  H    -81.606900  -38.274000  -87.859200
  C    -79.573500  -37.676000  -88.552900
  H    -79.820800  -36.659600  -88.143800
  H    -78.747400  -38.017200  -87.920300
  H    -79.177600  -37.517300  -89.559100
  S    -83.424700  -45.467100  -88.112300
  C    -83.428300  -46.872800  -89.177600
  C    -82.858300  -46.594500  -90.352600
  C    -82.493500  -45.213600  -90.473000
  C    -82.835000  -44.411600  -89.372200
  H    -82.954300  -47.280500  -91.146900
  C    -81.929600  -44.682400  -91.748200
  H    -81.151700  -45.393500  -92.003200
  H    -81.481600  -43.652400  -91.609100
  C    -82.858300  -44.466400  -92.902900
  H    -82.161200  -43.929200  -93.562300
  H    -83.661000  -43.731700  -92.647300
  C    -83.417200  -45.733000  -93.655800
  H    -82.534000  -46.327800  -94.020700
  H    -84.050400  -45.521800  -94.503900
  H    -83.972200  -46.390700  -93.034500
  H    -83.285500  -39.740800  -87.597300
  H    -83.756400  -47.903000  -88.952200

 Total Charge           Charge          ....    0
 Multiplicity           Mult            ....    1
 Number of Electrons    NEL             ....  134
 Basis Dimension        Dim             ....  322

ORBITAL ENERGIES
----------------

  NO   OCC          E(Eh)            E(eV)
   0   2.0000     -88.963909     -2420.8310
   1   2.0000     -88.962010     -2420.7793
   2   2.0000     -10.325950      -280.9834
   3   2.0000     -10.325516      -280.9716
   4   2.0000     -10.316401      -280.7235
   5   2.0000     -10.316127      -280.7161
   6   2.0000     -10.301341      -280.3137
   7   2.0000     -10.300752      -280.2977
   8   2.0000     -10.295634      -280.1584
   9   2.0000     -10.293526      -280.1011
  10   2.0000     -10.288662      -279.9687
  11   2.0000     -10.287735      -279.9435
  12   2.0000     -10.285949      -279.8949
  13   2.0000     -10.283656      -279.8325
  14   2.0000     -10.283222      -279.8207
  15   2.0000     -10.280088      -279.7354
  16   2.0000      -8.079610      -219.8574
  17   2.0000      -8.076766      -219.7800
  18   2.0000      -6.038208      -164.3080
  19   2.0000      -6.035417      -164.2321
  20   2.0000      -6.033754      -164.1868
  21   2.0000      -6.031204      -164.1174
  22   2.0000      -6.030405      -164.0957
  23   2.0000      -6.027412      -164.0142
  24   2.0000      -1.011480       -27.5238
  25   2.0000      -0.988417       -26.8962
  26   2.0000      -0.917602       -24.9692
  27   2.0000      -0.909797       -24.7568
  28   2.0000      -0.876479       -23.8502
  29   2.0000      -0.846866       -23.0444
  30   2.0000      -0.840212       -22.8633
  31   2.0000      -0.819080       -22.2883
  32   2.0000      -0.783294       -21.3145
  33   2.0000      -0.773063       -21.0361
  34   2.0000      -0.715425       -19.4677
  35   2.0000      -0.703365       -19.1395
  36   2.0000      -0.685511       -18.6537
  37   2.0000      -0.662659       -18.0319
  38   2.0000      -0.638621       -17.3778
  39   2.0000      -0.615080       -16.7372
  40   2.0000      -0.591474       -16.0948
  41   2.0000      -0.577169       -15.7056
  42   2.0000      -0.569909       -15.5080
  43   2.0000      -0.550960       -14.9924
  44   2.0000      -0.534515       -14.5449
  45   2.0000      -0.526395       -14.3239
  46   2.0000      -0.516419       -14.0525
  47   2.0000      -0.514183       -13.9916
  48   2.0000      -0.509950       -13.8764
  49   2.0000      -0.504479       -13.7276
  50   2.0000      -0.486450       -13.2370
  51   2.0000      -0.481804       -13.1105
  52   2.0000      -0.476318       -12.9613
  53   2.0000      -0.471844       -12.8395
  54   2.0000      -0.462395       -12.5824
  55   2.0000      -0.452308       -12.3079
  56   2.0000      -0.439957       -11.9718
  57   2.0000      -0.434439       -11.8217
  58   2.0000      -0.428285       -11.6542
  59   2.0000      -0.423058       -11.5120
  60   2.0000      -0.419129       -11.4051
  61   2.0000      -0.409676       -11.1479
  62   2.0000      -0.406613       -11.0645
  63   2.0000      -0.352177        -9.5832
  64   2.0000      -0.327426        -8.9097
  65   2.0000      -0.322338        -8.7713
  66   2.0000      -0.295555        -8.0425
  67   0.0000       0.032001         0.8708
  68   0.0000       0.074249         2.0204
  69   0.0000       0.116447         3.1687
  70   0.0000       0.122956         3.3458
  71   0.0000       0.128676         3.5014

MULLIKEN ATOMIC CHARGES
-----------------------
   0 S :    0.119785
   1 C :   -0.115676
   2 C :   -0.129096
   3 C :    0.010304
   4 C :   -0.156672
   5 H :    0.026810
   6 C :    0.094991
   7 H :    0.016493
   8 H :    0.029711
   9 C :   -0.121146
  10 H :    0.040186
  11 H :    0.038860
  12 C :   -0.048752
  13 H :    0.034050
  14 H :    0.036410
  15 H :    0.035605
  16 S :    0.101909
  17 C :   -0.087262
  18 C :   -0.021186
  19 C :   -0.029827
  20 C :   -0.139178
  21 H :    0.008980
  22 C :    0.039309
  23 H :    0.022442
  24 H :    0.030601
  25 C :   -0.068869
  26 H :    0.029174
  27 H :    0.040929
  28 C :   -0.050717
  29 H :    0.027360
  30 H :    0.037284
  31 H :    0.027538
  32 H :    0.058180
  33 H :    0.061470
Sum of atomic charges:   -0.0000000

LOEWDIN ATOMIC CHARGES
----------------------
   0 S :    0.436777
   1 C :   -0.223232
   2 C :   -0.063862
   3 C :   -0.066411
   4 C :   -0.209751
   5 H :    0.035276
   6 C :   -0.029415
   7 H :    0.024542
   8 H :    0.031578
   9 C :   -0.040399
  10 H :    0.026126
  11 H :    0.027169
  12 C :   -0.074472
  13 H :    0.030455
  14 H :    0.025966
  15 H :    0.027993
  16 S :    0.399876
  17 C :   -0.174962
  18 C :   -0.075422
  19 C :   -0.051014
  20 C :   -0.206849
  21 H :    0.026704
  22 C :   -0.041886
  23 H :    0.030126
  24 H :    0.039578
  25 C :   -0.040469
  26 H :    0.027961
  27 H :    0.030403
  28 C :   -0.069730
  29 H :    0.029575
  30 H :    0.026979
  31 H :    0.015747
  32 H :    0.036172
  33 H :    0.038867

  Mayer bond orders larger than 0.100000
B(  0-S ,  1-C ) :   1.1509 B(  0-S ,  4-C ) :   1.1526 B(  1-C ,  2-C ) :   1.5798
B(  1-C , 32-H ) :   0.9656 B(  2-C ,  3-C ) :   1.2494 B(  2-C ,  6-C ) :   1.0286
B(  3-C ,  4-C ) :   1.5761 B(  3-C ,  5-H ) :   0.9863 B(  4-C , 20-C ) :   1.0344
B(  6-C ,  7-H ) :   0.9451 B(  6-C ,  8-H ) :   0.9282 B(  6-C ,  9-C ) :   1.0584
B(  9-C , 10-H ) :   0.9674 B(  9-C , 11-H ) :   0.9545 B(  9-C , 12-C ) :   1.0668
B( 12-C , 13-H ) :   0.9755 B( 12-C , 14-H ) :   0.9770 B( 12-C , 15-H ) :   0.9760
B( 16-S , 17-C ) :   1.1451 B( 16-S , 20-C ) :   1.1322 B( 17-C , 18-C ) :   1.6426
B( 17-C , 33-H ) :   0.9582 B( 18-C , 19-C ) :   1.2253 B( 18-C , 21-H ) :   0.9896
B( 19-C , 20-C ) :   1.5974 B( 19-C , 22-C ) :   1.0565 B( 22-C , 23-H ) :   0.9262
B( 22-C , 24-H ) :   0.9319 B( 22-C , 25-C ) :   1.0805 B( 25-C , 26-H ) :   0.9570
B( 25-C , 27-H ) :   0.9532 B( 25-C , 28-C ) :   1.0685 B( 28-C , 29-H ) :   0.9744
B( 28-C , 30-H ) :   0.9736 B( 28-C , 31-H ) :   0.9749

Dispersion correction           -0.013745396
FINAL SINGLE POINT ENERGY     -1339.871268847061

DIPOLE MOMENT
-------------
                                X             Y             Z
Electronic contribution:    -13.31327     -13.06075      15.97570
Nuclear contribution   :     13.80808      13.19902     -16.36955
                        -----------------------------------------
Total Dipole Moment    :      0.49481       0.13827      -0.39385
                        -----------------------------------------
Magnitude (a.u.)       :      0.64736
Magnitude (Debye)      :      1.64546

Rotational constants in cm-1:     0.022825     0.007110     0.006042
Rotational constants in MHz :   684.278947   213.137633   181.125951

                             ****ORCA TERMINATED NORMALLY****
TOTAL RUN TIME: 0 days 0 hours 0 minutes 21 seconds 131 msec
