                         Program Version 4.2.1 -  RELEASE  -
|  1> ! wB97X-D3 SP def2-SVP
|  2> %pal
|  3> nprocs 24
|  4> end
|  5>
|  6> * xyz 0 1
|  7> S 	 9.40241 	 -17.9483 	 -113.452
|  8> C 	 8.16841 	 -17.3897 	 -114.572
|  9> C 	 6.91599 	 -17.6417 	 -114.025
| 10> C 	 6.93099 	 -18.038 	 -112.637
| 11> C 	 8.2173 	 -18.285 	 -112.235
| 12> H 	 6.09657 	 -18.3814 	 -111.98
| 13> C 	 5.61885 	 -17.5037 	 -114.805
| 14> H 	 5.69589 	 -16.5705 	 -115.333
| 15> H 	 4.7977 	 -17.3913 	 -114.178
| 16> C 	 5.47963 	 -18.6416 	 -115.83
| 17> H 	 6.3358 	 -18.7036 	 -116.531
| 18> H 	 5.5664 	 -19.6541 	 -115.305
| 19> C 	 4.10914 	 -18.7753 	 -116.571
| 20> H 	 3.99352 	 -19.709 	 -117.064
| 21> H 	 3.26102 	 -18.5019 	 -115.918
| 22> H 	 3.95127 	 -18.0612 	 -117.317
| 23> S 	 9.0291 	 -20.5432 	 -110.875
| 24> C 	 9.43232 	 -20.401 	 -109.162
| 25> C 	 9.32756 	 -19.1109 	 -108.784
| 26> C 	 8.86836 	 -18.2142 	 -109.74
| 27> C 	 8.65535 	 -18.7877 	 -110.966
| 28> H 	 9.68133 	 -18.9143 	 -107.763
| 29> C 	 8.66685 	 -16.7712 	 -109.396
| 30> H 	 8.7692 	 -16.1861 	 -110.334
| 31> H 	 9.6527 	 -16.5383 	 -108.868
| 32> C 	 7.42861 	 -16.4992 	 -108.411
| 33> H 	 7.48654 	 -15.5115 	 -108.067
| 34> H 	 7.44721 	 -17.1466 	 -107.507
| 35> C 	 6.11696 	 -16.7835 	 -109.168
| 36> H 	 6.0838 	 -17.6982 	 -109.691
| 37> H 	 6.04943 	 -16.1483 	 -110.019
| 38> H 	 5.14601 	 -16.5964 	 -108.684
| 39> H 	 8.33864 	 -17.3496 	 -115.723
| 40> H 	 9.96694 	 -21.2593 	 -108.601
| 41> *
| 42>
| 43>                          ****END OF INPUT****

CARTESIAN COORDINATES (ANGSTROEM)
---------------------------------
  S      9.402410  -17.948300  -113.452000
  C      8.168410  -17.389700  -114.572000
  C      6.915990  -17.641700  -114.025000
  C      6.930990  -18.038000  -112.637000
  C      8.217300  -18.285000  -112.235000
  H      6.096570  -18.381400  -111.980000
  C      5.618850  -17.503700  -114.805000
  H      5.695890  -16.570500  -115.333000
  H      4.797700  -17.391300  -114.178000
  C      5.479630  -18.641600  -115.830000
  H      6.335800  -18.703600  -116.531000
  H      5.566400  -19.654100  -115.305000
  C      4.109140  -18.775300  -116.571000
  H      3.993520  -19.709000  -117.064000
  H      3.261020  -18.501900  -115.918000
  H      3.951270  -18.061200  -117.317000
  S      9.029100  -20.543200  -110.875000
  C      9.432320  -20.401000  -109.162000
  C      9.327560  -19.110900  -108.784000
  C      8.868360  -18.214200  -109.740000
  C      8.655350  -18.787700  -110.966000
  H      9.681330  -18.914300  -107.763000
  C      8.666850  -16.771200  -109.396000
  H      8.769200  -16.186100  -110.334000
  H      9.652700  -16.538300  -108.868000
  C      7.428610  -16.499200  -108.411000
  H      7.486540  -15.511500  -108.067000
  H      7.447210  -17.146600  -107.507000
  C      6.116960  -16.783500  -109.168000
  H      6.083800  -17.698200  -109.691000
  H      6.049430  -16.148300  -110.019000
  H      5.146010  -16.596400  -108.684000
  H      8.338640  -17.349600  -115.723000
  H      9.966940  -21.259300  -108.601000

 Total Charge           Charge          ....    0
 Multiplicity           Mult            ....    1
 Number of Electrons    NEL             ....  134
 Basis Dimension        Dim             ....  322

ORBITAL ENERGIES
----------------

  NO   OCC          E(Eh)            E(eV)
   0   2.0000     -88.965744     -2420.8810
   1   2.0000     -88.958523     -2420.6845
   2   2.0000     -10.325921      -280.9826
   3   2.0000     -10.322941      -280.9015
   4   2.0000     -10.321135      -280.8524
   5   2.0000     -10.319684      -280.8129
   6   2.0000     -10.306090      -280.4430
   7   2.0000     -10.300243      -280.2839
   8   2.0000     -10.299153      -280.2542
   9   2.0000     -10.298400      -280.2337
  10   2.0000     -10.295918      -280.1662
  11   2.0000     -10.294848      -280.1371
  12   2.0000     -10.287385      -279.9340
  13   2.0000     -10.287044      -279.9247
  14   2.0000     -10.273775      -279.5636
  15   2.0000     -10.268562      -279.4218
  16   2.0000      -8.080743      -219.8882
  17   2.0000      -8.072934      -219.6757
  18   2.0000      -6.039255      -164.3365
  19   2.0000      -6.035153      -164.2249
  20   2.0000      -6.031517      -164.1259
  21   2.0000      -6.031486      -164.1251
  22   2.0000      -6.027534      -164.0175
  23   2.0000      -6.023618      -163.9110
  24   2.0000      -1.009419       -27.4677
  25   2.0000      -0.985954       -26.8292
  26   2.0000      -0.910313       -24.7709
  27   2.0000      -0.901688       -24.5362
  28   2.0000      -0.869516       -23.6607
  29   2.0000      -0.847583       -23.0639
  30   2.0000      -0.847298       -23.0561
  31   2.0000      -0.816267       -22.2117
  32   2.0000      -0.783690       -21.3253
  33   2.0000      -0.770130       -20.9563
  34   2.0000      -0.713116       -19.4049
  35   2.0000      -0.705251       -19.1909
  36   2.0000      -0.696282       -18.9468
  37   2.0000      -0.654833       -17.8189
  38   2.0000      -0.641431       -17.4542
  39   2.0000      -0.613620       -16.6975
  40   2.0000      -0.590222       -16.0608
  41   2.0000      -0.569495       -15.4967
  42   2.0000      -0.551765       -15.0143
  43   2.0000      -0.548607       -14.9284
  44   2.0000      -0.532419       -14.4879
  45   2.0000      -0.528068       -14.3695
  46   2.0000      -0.517070       -14.0702
  47   2.0000      -0.512276       -13.9398
  48   2.0000      -0.506478       -13.7820
  49   2.0000      -0.497351       -13.5336
  50   2.0000      -0.489046       -13.3076
  51   2.0000      -0.476836       -12.9754
  52   2.0000      -0.471836       -12.8393
  53   2.0000      -0.461977       -12.5710
  54   2.0000      -0.453740       -12.3469
  55   2.0000      -0.447645       -12.1810
  56   2.0000      -0.446305       -12.1446
  57   2.0000      -0.440839       -11.9959
  58   2.0000      -0.432185       -11.7604
  59   2.0000      -0.423844       -11.5334
  60   2.0000      -0.422406       -11.4943
  61   2.0000      -0.415113       -11.2958
  62   2.0000      -0.406576       -11.0635
  63   2.0000      -0.337808        -9.1922
  64   2.0000      -0.327900        -8.9226
  65   2.0000      -0.322602        -8.7784
  66   2.0000      -0.312235        -8.4963
  67   0.0000       0.038357         1.0437
  68   0.0000       0.055731         1.5165
  69   0.0000       0.113583         3.0907
  70   0.0000       0.121724         3.3123
  71   0.0000       0.126099         3.4313

MULLIKEN ATOMIC CHARGES
-----------------------
   0 S :    0.118782
   1 C :   -0.145931
   2 C :   -0.134098
   3 C :    0.045682
   4 C :   -0.187794
   5 H :    0.043181
   6 C :    0.142600
   7 H :    0.025338
   8 H :   -0.000998
   9 C :   -0.128299
  10 H :    0.029773
  11 H :    0.036577
  12 C :   -0.009330
  13 H :    0.034242
  14 H :    0.024211
  15 H :    0.006386
  16 S :    0.084142
  17 C :   -0.129718
  18 C :   -0.045731
  19 C :    0.020102
  20 C :   -0.201637
  21 H :    0.023269
  22 C :    0.014652
  23 H :    0.042322
  24 H :    0.036296
  25 C :   -0.016907
  26 H :    0.026442
  27 H :    0.039760
  28 C :   -0.032014
  29 H :    0.015274
  30 H :    0.005314
  31 H :    0.036010
  32 H :    0.089589
  33 H :    0.092513
Sum of atomic charges:    0.0000000

LOEWDIN ATOMIC CHARGES
----------------------
   0 S :    0.416062
   1 C :   -0.225131
   2 C :   -0.052658
   3 C :   -0.066592
   4 C :   -0.201246
   5 H :    0.044704
   6 C :   -0.026003
   7 H :    0.032329
   8 H :    0.019332
   9 C :   -0.044281
  10 H :    0.023201
  11 H :    0.031627
  12 C :   -0.066937
  13 H :    0.025143
  14 H :    0.029871
  15 H :    0.014209
  16 S :    0.369327
  17 C :   -0.187182
  18 C :   -0.082519
  19 C :   -0.062068
  20 C :   -0.193187
  21 H :    0.036619
  22 C :   -0.032931
  23 H :    0.036051
  24 H :    0.040176
  25 C :   -0.023178
  26 H :    0.018235
  27 H :    0.029723
  28 C :   -0.072368
  29 H :    0.017361
  30 H :    0.021748
  31 H :    0.029089
  32 H :    0.050531
  33 H :    0.050940

  Mayer bond orders larger than 0.100000
B(  0-S ,  1-C ) :   1.1260 B(  0-S ,  4-C ) :   1.1731 B(  1-C ,  2-C ) :   1.6249
B(  1-C , 32-H ) :   0.9504 B(  2-C ,  3-C ) :   1.2266 B(  2-C ,  6-C ) :   1.0252
B(  3-C ,  4-C ) :   1.5980 B(  3-C ,  5-H ) :   0.9795 B(  4-C , 20-C ) :   1.0155
B(  6-C ,  7-H ) :   0.9350 B(  6-C ,  8-H ) :   0.9390 B(  6-C ,  9-C ) :   1.0511
B(  9-C , 10-H ) :   0.9578 B(  9-C , 11-H ) :   0.9611 B(  9-C , 12-C ) :   1.0737
B( 12-C , 13-H ) :   0.9769 B( 12-C , 14-H ) :   0.9724 B( 12-C , 15-H ) :   0.9720
B( 16-S , 17-C ) :   1.1438 B( 16-S , 20-C ) :   1.1324 B( 17-C , 18-C ) :   1.6348
B( 17-C , 20-C ) :   0.1023 B( 17-C , 33-H ) :   0.9518 B( 18-C , 19-C ) :   1.2209
B( 18-C , 21-H ) :   0.9862 B( 19-C , 20-C ) :   1.6091 B( 19-C , 22-C ) :   1.0363
B( 22-C , 23-H ) :   0.9393 B( 22-C , 24-H ) :   0.9357 B( 22-C , 25-C ) :   1.0510
B( 25-C , 26-H ) :   0.9595 B( 25-C , 27-H ) :   0.9603 B( 25-C , 28-C ) :   1.0618
B( 28-C , 29-H ) :   0.9737 B( 28-C , 30-H ) :   0.9682 B( 28-C , 31-H ) :   0.9721

Dispersion correction           -0.015120221
FINAL SINGLE POINT ENERGY     -1339.861158613792

DIPOLE MOMENT
-------------
                                X             Y             Z
Electronic contribution:     20.81755      -9.13961       3.25586
Nuclear contribution   :    -21.15308       9.32230      -3.16607
                        -----------------------------------------
Total Dipole Moment    :     -0.33553       0.18269       0.08980
                        -----------------------------------------
Magnitude (a.u.)       :      0.39245
Magnitude (Debye)      :      0.99753

Rotational constants in cm-1:     0.021272     0.007823     0.006979
Rotational constants in MHz :   637.705307   234.519658   209.225536

                             ****ORCA TERMINATED NORMALLY****
TOTAL RUN TIME: 0 days 0 hours 0 minutes 21 seconds 788 msec
