                         Program Version 4.2.1 -  RELEASE  -
|  1> ! wB97X-D3 SP def2-SVP
|  2> %pal
|  3> nprocs 24
|  4> end
|  5>
|  6> * xyz 0 1
|  7> S 	 -106.525 	 69.7829 	 -6.61818
|  8> C 	 -106.638 	 70.8203 	 -7.97687
|  9> C 	 -107.638 	 70.3715 	 -8.82483
| 10> C 	 -108.295 	 69.1656 	 -8.35468
| 11> C 	 -107.82 	 68.723 	 -7.15324
| 12> H 	 -108.94 	 68.5889 	 -8.90886
| 13> C 	 -108.056 	 70.9096 	 -10.1934
| 14> H 	 -107.138 	 71.4297 	 -10.4312
| 15> H 	 -108.838 	 71.5917 	 -9.97633
| 16> C 	 -108.159 	 69.8014 	 -11.2718
| 17> H 	 -107.283 	 69.1625 	 -11.1387
| 18> H 	 -109.076 	 69.0638 	 -11.2859
| 19> C 	 -108.03 	 70.4682 	 -12.6832
| 20> H 	 -108.212 	 69.754 	 -13.5701
| 21> H 	 -108.824 	 71.3018 	 -12.789
| 22> H 	 -107.047 	 70.9646 	 -12.8473
| 23> S 	 -107.108 	 66.3599 	 -5.95989
| 24> C 	 -108.379 	 65.1363 	 -5.75382
| 25> C 	 -109.617 	 65.5684 	 -6.00663
| 26> C 	 -109.529 	 66.9252 	 -6.48063
| 27> C 	 -108.231 	 67.4304 	 -6.61919
| 28> H 	 -110.404 	 64.8565 	 -5.81893
| 29> C 	 -110.823 	 67.6907 	 -6.84788
| 30> H 	 -110.938 	 67.5689 	 -7.9131
| 31> H 	 -110.631 	 68.8137 	 -6.90646
| 32> C 	 -112.119 	 67.408 	 -6.08997
| 33> H 	 -112.35 	 66.308 	 -6.21777
| 34> H 	 -112.898 	 68.0651 	 -6.50329
| 35> C 	 -111.965 	 67.8359 	 -4.59403
| 36> H 	 -111.337 	 67.2329 	 -3.96371
| 37> H 	 -112.977 	 67.6156 	 -4.20767
| 38> H 	 -111.603 	 68.7785 	 -4.48217
| 39> H 	 -106.096 	 71.7578 	 -8.21823
| 40> H 	 -108.215 	 64.1398 	 -5.31451
| 41> *
| 42>
| 43>                          ****END OF INPUT****

CARTESIAN COORDINATES (ANGSTROEM)
---------------------------------
  S    -106.525000   69.782900   -6.618180
  C    -106.638000   70.820300   -7.976870
  C    -107.638000   70.371500   -8.824830
  C    -108.295000   69.165600   -8.354680
  C    -107.820000   68.723000   -7.153240
  H    -108.940000   68.588900   -8.908860
  C    -108.056000   70.909600  -10.193400
  H    -107.138000   71.429700  -10.431200
  H    -108.838000   71.591700   -9.976330
  C    -108.159000   69.801400  -11.271800
  H    -107.283000   69.162500  -11.138700
  H    -109.076000   69.063800  -11.285900
  C    -108.030000   70.468200  -12.683200
  H    -108.212000   69.754000  -13.570100
  H    -108.824000   71.301800  -12.789000
  H    -107.047000   70.964600  -12.847300
  S    -107.108000   66.359900   -5.959890
  C    -108.379000   65.136300   -5.753820
  C    -109.617000   65.568400   -6.006630
  C    -109.529000   66.925200   -6.480630
  C    -108.231000   67.430400   -6.619190
  H    -110.404000   64.856500   -5.818930
  C    -110.823000   67.690700   -6.847880
  H    -110.938000   67.568900   -7.913100
  H    -110.631000   68.813700   -6.906460
  C    -112.119000   67.408000   -6.089970
  H    -112.350000   66.308000   -6.217770
  H    -112.898000   68.065100   -6.503290
  C    -111.965000   67.835900   -4.594030
  H    -111.337000   67.232900   -3.963710
  H    -112.977000   67.615600   -4.207670
  H    -111.603000   68.778500   -4.482170
  H    -106.096000   71.757800   -8.218230
  H    -108.215000   64.139800   -5.314510

 Total Charge           Charge          ....    0
 Multiplicity           Mult            ....    1
 Number of Electrons    NEL             ....  134
 Basis Dimension        Dim             ....  322

ORBITAL ENERGIES
----------------

  NO   OCC          E(Eh)            E(eV)
   0   2.0000     -88.967826     -2420.9376
   1   2.0000     -88.963701     -2420.8254
   2   2.0000     -10.327258      -281.0190
   3   2.0000     -10.323144      -280.9070
   4   2.0000     -10.315761      -280.7061
   5   2.0000     -10.313621      -280.6479
   6   2.0000     -10.306436      -280.4524
   7   2.0000     -10.304998      -280.4133
   8   2.0000     -10.298843      -280.2458
   9   2.0000     -10.295918      -280.1662
  10   2.0000     -10.294532      -280.1285
  11   2.0000     -10.292780      -280.0808
  12   2.0000     -10.291995      -280.0594
  13   2.0000     -10.288351      -279.9603
  14   2.0000     -10.282841      -279.8103
  15   2.0000     -10.267662      -279.3973
  16   2.0000      -8.082654      -219.9402
  17   2.0000      -8.079454      -219.8531
  18   2.0000      -6.041314      -164.3925
  19   2.0000      -6.037924      -164.3003
  20   2.0000      -6.037069      -164.2770
  21   2.0000      -6.033959      -164.1924
  22   2.0000      -6.033317      -164.1749
  23   2.0000      -6.030055      -164.0861
  24   2.0000      -1.012043       -27.5391
  25   2.0000      -0.989292       -26.9200
  26   2.0000      -0.910442       -24.7744
  27   2.0000      -0.902464       -24.5573
  28   2.0000      -0.878540       -23.9063
  29   2.0000      -0.849187       -23.1075
  30   2.0000      -0.840102       -22.8603
  31   2.0000      -0.819543       -22.3009
  32   2.0000      -0.777648       -21.1609
  33   2.0000      -0.767340       -20.8804
  34   2.0000      -0.711559       -19.3625
  35   2.0000      -0.694912       -18.9095
  36   2.0000      -0.691020       -18.8036
  37   2.0000      -0.655645       -17.8410
  38   2.0000      -0.638345       -17.3703
  39   2.0000      -0.623216       -16.9586
  40   2.0000      -0.593575       -16.1520
  41   2.0000      -0.573453       -15.6045
  42   2.0000      -0.567267       -15.4361
  43   2.0000      -0.548531       -14.9263
  44   2.0000      -0.538536       -14.6543
  45   2.0000      -0.522222       -14.2104
  46   2.0000      -0.518807       -14.1174
  47   2.0000      -0.508128       -13.8269
  48   2.0000      -0.505313       -13.7503
  49   2.0000      -0.497068       -13.5259
  50   2.0000      -0.496338       -13.5060
  51   2.0000      -0.478585       -13.0230
  52   2.0000      -0.469077       -12.7642
  53   2.0000      -0.462864       -12.5952
  54   2.0000      -0.458193       -12.4681
  55   2.0000      -0.449318       -12.2266
  56   2.0000      -0.442672       -12.0457
  57   2.0000      -0.429792       -11.6952
  58   2.0000      -0.425317       -11.5735
  59   2.0000      -0.423667       -11.5286
  60   2.0000      -0.417177       -11.3520
  61   2.0000      -0.414017       -11.2660
  62   2.0000      -0.411041       -11.1850
  63   2.0000      -0.360822        -9.8185
  64   2.0000      -0.331143        -9.0109
  65   2.0000      -0.323738        -8.8094
  66   2.0000      -0.288661        -7.8549
  67   0.0000       0.032822         0.8931
  68   0.0000       0.083078         2.2607
  69   0.0000       0.114636         3.1194
  70   0.0000       0.128605         3.4995
  71   0.0000       0.137142         3.7318

MULLIKEN ATOMIC CHARGES
-----------------------
   0 S :    0.115382
   1 C :   -0.124309
   2 C :   -0.149353
   3 C :    0.024170
   4 C :   -0.103457
   5 H :   -0.019685
   6 C :    0.118169
   7 H :    0.010823
   8 H :    0.048376
   9 C :   -0.114377
  10 H :    0.045628
  11 H :    0.060303
  12 C :   -0.108842
  13 H :    0.049580
  14 H :    0.041350
  15 H :    0.044224
  16 S :    0.109011
  17 C :   -0.105730
  18 C :   -0.027521
  19 C :   -0.041872
  20 C :   -0.141718
  21 H :    0.023204
  22 C :    0.006181
  23 H :    0.025521
  24 H :    0.030415
  25 C :   -0.066188
  26 H :    0.040926
  27 H :    0.038755
  28 C :   -0.016015
  29 H :    0.024159
  30 H :    0.031463
  31 H :    0.018487
  32 H :    0.059077
  33 H :    0.053864
Sum of atomic charges:    0.0000000

LOEWDIN ATOMIC CHARGES
----------------------
   0 S :    0.413314
   1 C :   -0.225927
   2 C :   -0.064105
   3 C :   -0.053013
   4 C :   -0.187617
   5 H :    0.015170
   6 C :   -0.029231
   7 H :    0.032744
   8 H :    0.031030
   9 C :   -0.049436
  10 H :    0.030237
  11 H :    0.035727
  12 C :   -0.083197
  13 H :    0.032526
  14 H :    0.030434
  15 H :    0.025653
  16 S :    0.414017
  17 C :   -0.174227
  18 C :   -0.073099
  19 C :   -0.051888
  20 C :   -0.219285
  21 H :    0.039316
  22 C :   -0.053561
  23 H :    0.024232
  24 H :    0.034819
  25 C :   -0.038561
  26 H :    0.027890
  27 H :    0.032243
  28 C :   -0.056598
  29 H :    0.023087
  30 H :    0.030784
  31 H :    0.013129
  32 H :    0.042204
  33 H :    0.031189

  Mayer bond orders larger than 0.100000
B(  0-S ,  1-C ) :   1.1293 B(  0-S ,  4-C ) :   1.1382 B(  1-C ,  2-C ) :   1.6303
B(  1-C , 32-H ) :   0.9608 B(  2-C ,  3-C ) :   1.2316 B(  2-C ,  6-C ) :   0.9971
B(  3-C ,  4-C ) :   1.5567 B(  3-C ,  5-H ) :   1.0086 B(  4-C , 20-C ) :   1.0624
B(  6-C ,  7-H ) :   0.9421 B(  6-C ,  8-H ) :   0.9365 B(  6-C ,  9-C ) :   1.0529
B(  9-C , 10-H ) :   0.9584 B(  9-C , 11-H ) :   0.9510 B(  9-C , 12-C ) :   1.0710
B( 12-C , 13-H ) :   0.9754 B( 12-C , 14-H ) :   0.9749 B( 12-C , 15-H ) :   0.9754
B( 16-S , 17-C ) :   1.1460 B( 16-S , 20-C ) :   1.1316 B( 17-C , 18-C ) :   1.6603
B( 17-C , 33-H ) :   0.9576 B( 18-C , 19-C ) :   1.1996 B( 18-C , 21-H ) :   0.9949
B( 19-C , 20-C ) :   1.5998 B( 19-C , 22-C ) :   1.0277 B( 22-C , 23-H ) :   0.9309
B( 22-C , 24-H ) :   0.9279 B( 22-C , 25-C ) :   1.0814 B( 25-C , 26-H ) :   0.9478
B( 25-C , 27-H ) :   0.9510 B( 25-C , 28-C ) :   1.0730 B( 28-C , 29-H ) :   0.9746
B( 28-C , 30-H ) :   0.9765 B( 28-C , 31-H ) :   0.9760

Dispersion correction           -0.014177094
FINAL SINGLE POINT ENERGY     -1339.850192237669

DIPOLE MOMENT
-------------
                                X             Y             Z
Electronic contribution:     19.02505      -5.93768      15.24075
Nuclear contribution   :    -19.50811       5.94983     -15.66636
                        -----------------------------------------
Total Dipole Moment    :     -0.48307       0.01215      -0.42560
                        -----------------------------------------
Magnitude (a.u.)       :      0.64392
Magnitude (Debye)      :      1.63673

Rotational constants in cm-1:     0.018432     0.008124     0.007005
Rotational constants in MHz :   552.563341   243.562865   210.005186

                             ****ORCA TERMINATED NORMALLY****
TOTAL RUN TIME: 0 days 0 hours 0 minutes 21 seconds 630 msec
