                         Program Version 4.2.1 -  RELEASE  -
|  1> ! wB97X-D3 SP def2-SVP
|  2> %pal
|  3> nprocs 24
|  4> end
|  5>
|  6> * xyz 0 1
|  7> S 	 -88.7896 	 -8.69604 	 -116.249
|  8> C 	 -88.1809 	 -10.2213 	 -116.758
|  9> C 	 -89.0786 	 -10.9277 	 -117.477
| 10> C 	 -90.3415 	 -10.2863 	 -117.599
| 11> C 	 -90.4015 	 -9.14614 	 -116.841
| 12> H 	 -91.1736 	 -10.676 	 -118.163
| 13> C 	 -88.6972 	 -12.2477 	 -118.13
| 14> H 	 -88.0889 	 -11.9923 	 -118.964
| 15> H 	 -89.612 	 -12.7909 	 -118.377
| 16> C 	 -87.8325 	 -13.1631 	 -117.302
| 17> H 	 -86.8892 	 -12.704 	 -116.981
| 18> H 	 -88.5013 	 -13.4065 	 -116.397
| 19> C 	 -87.4386 	 -14.4611 	 -117.912
| 20> H 	 -86.8516 	 -14.9982 	 -117.145
| 21> H 	 -88.4043 	 -14.9998 	 -118.177
| 22> H 	 -86.7823 	 -14.5563 	 -118.749
| 23> S 	 -91.0769 	 -6.581 	 -115.952
| 24> C 	 -92.7848 	 -6.17698 	 -116.062
| 25> C 	 -93.5582 	 -7.17532 	 -116.581
| 26> C 	 -92.8014 	 -8.28569 	 -117.07
| 27> C 	 -91.4545 	 -8.14949 	 -116.76
| 28> H 	 -94.6306 	 -7.02968 	 -116.565
| 29> C 	 -93.5797 	 -9.39992 	 -117.62
| 30> H 	 -94.5511 	 -9.39039 	 -117.135
| 31> H 	 -93.043 	 -10.2545 	 -117.399
| 32> C 	 -93.7564 	 -9.4208 	 -119.192
| 33> H 	 -92.8239 	 -9.19159 	 -119.707
| 34> H 	 -94.4274 	 -8.75591 	 -119.639
| 35> C 	 -94.3156 	 -10.6355 	 -119.798
| 36> H 	 -94.4113 	 -10.4358 	 -120.864
| 37> H 	 -95.2257 	 -10.9518 	 -119.312
| 38> H 	 -93.6368 	 -11.4109 	 -119.649
| 39> H 	 -87.2328 	 -10.4187 	 -116.334
| 40> H 	 -93.3282 	 -5.39668 	 -115.452
| 41> *
| 42>
| 43>                          ****END OF INPUT****

CARTESIAN COORDINATES (ANGSTROEM)
---------------------------------
  S    -88.789600   -8.696040  -116.249000
  C    -88.180900  -10.221300  -116.758000
  C    -89.078600  -10.927700  -117.477000
  C    -90.341500  -10.286300  -117.599000
  C    -90.401500   -9.146140  -116.841000
  H    -91.173600  -10.676000  -118.163000
  C    -88.697200  -12.247700  -118.130000
  H    -88.088900  -11.992300  -118.964000
  H    -89.612000  -12.790900  -118.377000
  C    -87.832500  -13.163100  -117.302000
  H    -86.889200  -12.704000  -116.981000
  H    -88.501300  -13.406500  -116.397000
  C    -87.438600  -14.461100  -117.912000
  H    -86.851600  -14.998200  -117.145000
  H    -88.404300  -14.999800  -118.177000
  H    -86.782300  -14.556300  -118.749000
  S    -91.076900   -6.581000  -115.952000
  C    -92.784800   -6.176980  -116.062000
  C    -93.558200   -7.175320  -116.581000
  C    -92.801400   -8.285690  -117.070000
  C    -91.454500   -8.149490  -116.760000
  H    -94.630600   -7.029680  -116.565000
  C    -93.579700   -9.399920  -117.620000
  H    -94.551100   -9.390390  -117.135000
  H    -93.043000  -10.254500  -117.399000
  C    -93.756400   -9.420800  -119.192000
  H    -92.823900   -9.191590  -119.707000
  H    -94.427400   -8.755910  -119.639000
  C    -94.315600  -10.635500  -119.798000
  H    -94.411300  -10.435800  -120.864000
  H    -95.225700  -10.951800  -119.312000
  H    -93.636800  -11.410900  -119.649000
  H    -87.232800  -10.418700  -116.334000
  H    -93.328200   -5.396680  -115.452000

 Total Charge           Charge          ....    0
 Multiplicity           Mult            ....    1
 Number of Electrons    NEL             ....  134
 Basis Dimension        Dim             ....  322

ORBITAL ENERGIES
----------------

  NO   OCC          E(Eh)            E(eV)
   0   2.0000     -88.967786     -2420.9365
   1   2.0000     -88.959833     -2420.7201
   2   2.0000     -10.330471      -281.1064
   3   2.0000     -10.330072      -281.0956
   4   2.0000     -10.315951      -280.7113
   5   2.0000     -10.304082      -280.3883
   6   2.0000     -10.300667      -280.2954
   7   2.0000     -10.297932      -280.2210
   8   2.0000     -10.294416      -280.1253
   9   2.0000     -10.290336      -280.0143
  10   2.0000     -10.289269      -279.9852
  11   2.0000     -10.288988      -279.9776
  12   2.0000     -10.287005      -279.9236
  13   2.0000     -10.280211      -279.7388
  14   2.0000     -10.278473      -279.6915
  15   2.0000     -10.268635      -279.4238
  16   2.0000      -8.081462      -219.9078
  17   2.0000      -8.075579      -219.7477
  18   2.0000      -6.040205      -164.3623
  19   2.0000      -6.036369      -164.2579
  20   2.0000      -6.034096      -164.1961
  21   2.0000      -6.031812      -164.1340
  22   2.0000      -6.030099      -164.0873
  23   2.0000      -6.026158      -163.9801
  24   2.0000      -1.009368       -27.4663
  25   2.0000      -0.984980       -26.8027
  26   2.0000      -0.920046       -25.0357
  27   2.0000      -0.917720       -24.9724
  28   2.0000      -0.872166       -23.7328
  29   2.0000      -0.868978       -23.6461
  30   2.0000      -0.853086       -23.2136
  31   2.0000      -0.818966       -22.2852
  32   2.0000      -0.788301       -21.4507
  33   2.0000      -0.770849       -20.9759
  34   2.0000      -0.706727       -19.2310
  35   2.0000      -0.699180       -19.0256
  36   2.0000      -0.689524       -18.7629
  37   2.0000      -0.669510       -18.2183
  38   2.0000      -0.641357       -17.4522
  39   2.0000      -0.622582       -16.9413
  40   2.0000      -0.594421       -16.1750
  41   2.0000      -0.585372       -15.9288
  42   2.0000      -0.575171       -15.6512
  43   2.0000      -0.559142       -15.2150
  44   2.0000      -0.539123       -14.6703
  45   2.0000      -0.528488       -14.3809
  46   2.0000      -0.526560       -14.3284
  47   2.0000      -0.516889       -14.0653
  48   2.0000      -0.509441       -13.8626
  49   2.0000      -0.500743       -13.6259
  50   2.0000      -0.494505       -13.4562
  51   2.0000      -0.481515       -13.1027
  52   2.0000      -0.477775       -13.0009
  53   2.0000      -0.466319       -12.6892
  54   2.0000      -0.458999       -12.4900
  55   2.0000      -0.452672       -12.3178
  56   2.0000      -0.441630       -12.0174
  57   2.0000      -0.434361       -11.8196
  58   2.0000      -0.430146       -11.7049
  59   2.0000      -0.428018       -11.6470
  60   2.0000      -0.416090       -11.3224
  61   2.0000      -0.413233       -11.2447
  62   2.0000      -0.410623       -11.1736
  63   2.0000      -0.364528        -9.9193
  64   2.0000      -0.337008        -9.1705
  65   2.0000      -0.326944        -8.8966
  66   2.0000      -0.278450        -7.5770
  67   0.0000       0.016761         0.4561
  68   0.0000       0.076065         2.0698
  69   0.0000       0.095981         2.6118
  70   0.0000       0.118730         3.2308
  71   0.0000       0.135260         3.6806

MULLIKEN ATOMIC CHARGES
-----------------------
   0 S :    0.067537
   1 C :   -0.133843
   2 C :   -0.054821
   3 C :   -0.016282
   4 C :   -0.093833
   5 H :    0.002170
   6 C :    0.129842
   7 H :    0.030661
   8 H :    0.015486
   9 C :   -0.137760
  10 H :    0.031399
  11 H :    0.041935
  12 C :   -0.044837
  13 H :    0.034400
  14 H :    0.031424
  15 H :    0.026823
  16 S :    0.089454
  17 C :   -0.090818
  18 C :   -0.055370
  19 C :   -0.062273
  20 C :   -0.100041
  21 H :    0.020966
  22 C :    0.123403
  23 H :    0.026454
  24 H :   -0.010735
  25 C :   -0.075869
  26 H :    0.023788
  27 H :    0.006546
  28 C :   -0.000263
  29 H :    0.038302
  30 H :    0.022674
  31 H :   -0.003012
  32 H :    0.044540
  33 H :    0.071951
Sum of atomic charges:    0.0000000

LOEWDIN ATOMIC CHARGES
----------------------
   0 S :    0.391450
   1 C :   -0.192183
   2 C :   -0.062261
   3 C :   -0.068986
   4 C :   -0.165701
   5 H :    0.030034
   6 C :   -0.028211
   7 H :    0.031420
   8 H :    0.027461
   9 C :   -0.050892
  10 H :    0.021815
  11 H :    0.035979
  12 C :   -0.071893
  13 H :    0.033380
  14 H :    0.030219
  15 H :    0.018826
  16 S :    0.369582
  17 C :   -0.194151
  18 C :   -0.068820
  19 C :   -0.052391
  20 C :   -0.175463
  21 H :    0.033002
  22 C :   -0.019982
  23 H :    0.036143
  24 H :    0.016666
  25 C :   -0.040304
  26 H :    0.025648
  27 H :    0.018058
  28 C :   -0.053673
  29 H :    0.033501
  30 H :    0.023174
  31 H :    0.008141
  32 H :    0.017101
  33 H :    0.043314

  Mayer bond orders larger than 0.100000
B(  0-S ,  1-C ) :   1.1366 B(  0-S ,  4-C ) :   1.1428 B(  1-C ,  2-C ) :   1.5974
B(  1-C , 32-H ) :   0.9802 B(  2-C ,  3-C ) :   1.2468 B(  2-C ,  6-C ) :   1.0160
B(  3-C ,  4-C ) :   1.5574 B(  3-C ,  5-H ) :   0.9945 B(  4-C , 20-C ) :   1.0958
B(  6-C ,  7-H ) :   0.9247 B(  6-C ,  8-H ) :   0.9406 B(  6-C ,  9-C ) :   1.0827
B(  9-C , 10-H ) :   0.9453 B(  9-C , 11-H ) :   0.9556 B(  9-C , 12-C ) :   1.0953
B( 12-C , 13-H ) :   0.9697 B( 12-C , 14-H ) :   0.9700 B( 12-C , 15-H ) :   0.9733
B( 16-S , 17-C ) :   1.1265 B( 16-S , 20-C ) :   1.1051 B( 17-C , 18-C ) :   1.6764
B( 17-C , 33-H ) :   0.9500 B( 18-C , 19-C ) :   1.2137 B( 18-C , 21-H ) :   0.9853
B( 19-C , 20-C ) :   1.6049 B( 19-C , 22-C ) :   1.0646 B( 22-C , 23-H ) :   0.9262
B( 22-C , 24-H ) :   0.9186 B( 22-C , 25-C ) :   1.0516 B( 25-C , 26-H ) :   0.9528
B( 25-C , 27-H ) :   0.9575 B( 25-C , 28-C ) :   1.0933 B( 28-C , 29-H ) :   0.9721
B( 28-C , 30-H ) :   0.9676 B( 28-C , 31-H ) :   0.9715

Dispersion correction           -0.013480034
FINAL SINGLE POINT ENERGY     -1339.850363403020

DIPOLE MOMENT
-------------
                                X             Y             Z
Electronic contribution:      5.54728      26.83486      14.49439
Nuclear contribution   :     -5.88474     -27.40885     -14.74155
                        -----------------------------------------
Total Dipole Moment    :     -0.33745      -0.57399      -0.24716
                        -----------------------------------------
Magnitude (a.u.)       :      0.71023
Magnitude (Debye)      :      1.80526

Rotational constants in cm-1:     0.018892     0.008361     0.005962
Rotational constants in MHz :   566.363245   250.654724   178.741301

                             ****ORCA TERMINATED NORMALLY****
TOTAL RUN TIME: 0 days 0 hours 0 minutes 20 seconds 233 msec
