                         Program Version 4.2.1 -  RELEASE  -
|  1> ! wB97X-D3 SP def2-SVP
|  2> %pal
|  3> nprocs 24
|  4> end
|  5>
|  6> * xyz 0 1
|  7> S 	 -100.859 	 27.3358 	 -117.119
|  8> C 	 -102.382 	 27.2858 	 -116.129
|  9> C 	 -103.498 	 27.6845 	 -116.887
| 10> C 	 -103.096 	 27.8398 	 -118.329
| 11> C 	 -101.759 	 27.571 	 -118.611
| 12> H 	 -103.668 	 28.1508 	 -119.143
| 13> C 	 -104.942 	 27.6351 	 -116.397
| 14> H 	 -104.969 	 28.2253 	 -115.456
| 15> H 	 -105.206 	 26.5445 	 -116.231
| 16> C 	 -105.961 	 28.1443 	 -117.448
| 17> H 	 -105.563 	 29.0126 	 -117.951
| 18> H 	 -105.81 	 27.4796 	 -118.277
| 19> C 	 -107.37 	 28.2197 	 -116.847
| 20> H 	 -107.532 	 29.0095 	 -116.124
| 21> H 	 -108.132 	 28.2658 	 -117.617
| 22> H 	 -107.552 	 27.2562 	 -116.429
| 23> S 	 -99.7327 	 28.9802 	 -119.898
| 24> C 	 -99.5329 	 28.7513 	 -121.679
| 25> C 	 -100.614 	 28.0805 	 -122.185
| 26> C 	 -101.454 	 27.4603 	 -121.204
| 27> C 	 -101.087 	 27.7976 	 -119.898
| 28> H 	 -100.692 	 27.8886 	 -123.231
| 29> C 	 -102.651 	 26.6396 	 -121.529
| 30> H 	 -103.314 	 27.4142 	 -121.97
| 31> H 	 -103.236 	 26.3359 	 -120.637
| 32> C 	 -102.332 	 25.413 	 -122.465
| 33> H 	 -101.715 	 24.785 	 -121.914
| 34> H 	 -101.777 	 25.6296 	 -123.394
| 35> C 	 -103.635 	 24.6941 	 -122.833
| 36> H 	 -104.282 	 25.2989 	 -123.404
| 37> H 	 -104.237 	 24.3086 	 -121.987
| 38> H 	 -103.405 	 23.9703 	 -123.514
| 39> H 	 -102.413 	 26.9363 	 -115.165
| 40> H 	 -98.8467 	 29.2971 	 -122.251
| 41> *
| 42>
| 43>                          ****END OF INPUT****

CARTESIAN COORDINATES (ANGSTROEM)
---------------------------------
  S    -100.859000   27.335800  -117.119000
  C    -102.382000   27.285800  -116.129000
  C    -103.498000   27.684500  -116.887000
  C    -103.096000   27.839800  -118.329000
  C    -101.759000   27.571000  -118.611000
  H    -103.668000   28.150800  -119.143000
  C    -104.942000   27.635100  -116.397000
  H    -104.969000   28.225300  -115.456000
  H    -105.206000   26.544500  -116.231000
  C    -105.961000   28.144300  -117.448000
  H    -105.563000   29.012600  -117.951000
  H    -105.810000   27.479600  -118.277000
  C    -107.370000   28.219700  -116.847000
  H    -107.532000   29.009500  -116.124000
  H    -108.132000   28.265800  -117.617000
  H    -107.552000   27.256200  -116.429000
  S    -99.732700   28.980200  -119.898000
  C    -99.532900   28.751300  -121.679000
  C    -100.614000   28.080500  -122.185000
  C    -101.454000   27.460300  -121.204000
  C    -101.087000   27.797600  -119.898000
  H    -100.692000   27.888600  -123.231000
  C    -102.651000   26.639600  -121.529000
  H    -103.314000   27.414200  -121.970000
  H    -103.236000   26.335900  -120.637000
  C    -102.332000   25.413000  -122.465000
  H    -101.715000   24.785000  -121.914000
  H    -101.777000   25.629600  -123.394000
  C    -103.635000   24.694100  -122.833000
  H    -104.282000   25.298900  -123.404000
  H    -104.237000   24.308600  -121.987000
  H    -103.405000   23.970300  -123.514000
  H    -102.413000   26.936300  -115.165000
  H    -98.846700   29.297100  -122.251000

 Total Charge           Charge          ....    0
 Multiplicity           Mult            ....    1
 Number of Electrons    NEL             ....  134
 Basis Dimension        Dim             ....  322

ORBITAL ENERGIES
----------------

  NO   OCC          E(Eh)            E(eV)
   0   2.0000     -88.964441     -2420.8455
   1   2.0000     -88.961785     -2420.7732
   2   2.0000     -10.333155      -281.1795
   3   2.0000     -10.329930      -281.0917
   4   2.0000     -10.318231      -280.7733
   5   2.0000     -10.317401      -280.7507
   6   2.0000     -10.315285      -280.6932
   7   2.0000     -10.303545      -280.3737
   8   2.0000     -10.302554      -280.3468
   9   2.0000     -10.299043      -280.2512
  10   2.0000     -10.296307      -280.1768
  11   2.0000     -10.294096      -280.1166
  12   2.0000     -10.287870      -279.9472
  13   2.0000     -10.287267      -279.9308
  14   2.0000     -10.280754      -279.7535
  15   2.0000     -10.268374      -279.4167
  16   2.0000      -8.078046      -219.8148
  17   2.0000      -8.075181      -219.7369
  18   2.0000      -6.036807      -164.2699
  19   2.0000      -6.033850      -164.1894
  20   2.0000      -6.032747      -164.1594
  21   2.0000      -6.030039      -164.0857
  22   2.0000      -6.028557      -164.0454
  23   2.0000      -6.025675      -163.9669
  24   2.0000      -0.995291       -27.0833
  25   2.0000      -0.970744       -26.4153
  26   2.0000      -0.912320       -24.8255
  27   2.0000      -0.906680       -24.6720
  28   2.0000      -0.869057       -23.6483
  29   2.0000      -0.852715       -23.2036
  30   2.0000      -0.838727       -22.8229
  31   2.0000      -0.815902       -22.2018
  32   2.0000      -0.780429       -21.2366
  33   2.0000      -0.772125       -21.0106
  34   2.0000      -0.718324       -19.5466
  35   2.0000      -0.709784       -19.3142
  36   2.0000      -0.696234       -18.9455
  37   2.0000      -0.658256       -17.9121
  38   2.0000      -0.647054       -17.6072
  39   2.0000      -0.613191       -16.6858
  40   2.0000      -0.598032       -16.2733
  41   2.0000      -0.571471       -15.5505
  42   2.0000      -0.563578       -15.3357
  43   2.0000      -0.559877       -15.2350
  44   2.0000      -0.533907       -14.5284
  45   2.0000      -0.523821       -14.2539
  46   2.0000      -0.519192       -14.1279
  47   2.0000      -0.511868       -13.9286
  48   2.0000      -0.503265       -13.6945
  49   2.0000      -0.498823       -13.5737
  50   2.0000      -0.495708       -13.4889
  51   2.0000      -0.478004       -13.0071
  52   2.0000      -0.475418       -12.9368
  53   2.0000      -0.467124       -12.7111
  54   2.0000      -0.455716       -12.4007
  55   2.0000      -0.452175       -12.3043
  56   2.0000      -0.448585       -12.2066
  57   2.0000      -0.437296       -11.8994
  58   2.0000      -0.429431       -11.6854
  59   2.0000      -0.427003       -11.6193
  60   2.0000      -0.424529       -11.5520
  61   2.0000      -0.417049       -11.3485
  62   2.0000      -0.410187       -11.1618
  63   2.0000      -0.347550        -9.4573
  64   2.0000      -0.326823        -8.8933
  65   2.0000      -0.324334        -8.8256
  66   2.0000      -0.290785        -7.9127
  67   0.0000       0.025178         0.6851
  68   0.0000       0.064047         1.7428
  69   0.0000       0.099528         2.7083
  70   0.0000       0.115243         3.1359
  71   0.0000       0.122457         3.3322

MULLIKEN ATOMIC CHARGES
-----------------------
   0 S :    0.091704
   1 C :   -0.089037
   2 C :   -0.074518
   3 C :    0.018461
   4 C :   -0.143928
   5 H :   -0.005874
   6 C :    0.007575
   7 H :    0.047489
   8 H :    0.058902
   9 C :   -0.094536
  10 H :    0.023739
  11 H :    0.016090
  12 C :    0.022270
  13 H :    0.045522
  14 H :    0.024119
  15 H :    0.014984
  16 S :    0.074623
  17 C :   -0.067801
  18 C :   -0.015149
  19 C :   -0.047240
  20 C :   -0.131571
  21 H :    0.014492
  22 C :    0.021928
  23 H :    0.040267
  24 H :    0.032188
  25 C :   -0.064813
  26 H :    0.024083
  27 H :    0.034304
  28 C :    0.009232
  29 H :    0.006271
  30 H :    0.037027
  31 H :    0.005657
  32 H :    0.020542
  33 H :    0.042998
Sum of atomic charges:   -0.0000000

LOEWDIN ATOMIC CHARGES
----------------------
   0 S :    0.372831
   1 C :   -0.161276
   2 C :   -0.051778
   3 C :   -0.062867
   4 C :   -0.189096
   5 H :    0.016871
   6 C :   -0.037012
   7 H :    0.035143
   8 H :    0.043120
   9 C :   -0.048029
  10 H :    0.020036
  11 H :    0.021734
  12 C :   -0.055803
  13 H :    0.029385
  14 H :    0.027515
  15 H :    0.024361
  16 S :    0.354872
  17 C :   -0.151931
  18 C :   -0.063317
  19 C :   -0.058260
  20 C :   -0.182438
  21 H :    0.027371
  22 C :   -0.038499
  23 H :    0.037395
  24 H :    0.034034
  25 C :   -0.026430
  26 H :    0.018908
  27 H :    0.027727
  28 C :   -0.058251
  29 H :    0.019023
  30 H :    0.030530
  31 H :    0.014755
  32 H :    0.010421
  33 H :    0.018955

  Mayer bond orders larger than 0.100000
B(  0-S ,  1-C ) :   1.1195 B(  0-S ,  4-C ) :   1.1329 B(  1-C ,  2-C ) :   1.6358
B(  1-C , 32-H ) :   0.9852 B(  2-C ,  3-C ) :   1.1869 B(  2-C ,  6-C ) :   1.0172
B(  3-C ,  4-C ) :   1.5934 B(  3-C ,  5-H ) :   0.9913 B(  4-C , 20-C ) :   1.0397
B(  6-C ,  7-H ) :   0.9427 B(  6-C ,  8-H ) :   0.9400 B(  6-C ,  9-C ) :   1.0812
B(  9-C , 10-H ) :   0.9570 B(  9-C , 11-H ) :   0.9422 B(  9-C , 12-C ) :   1.0667
B( 12-C , 13-H ) :   0.9776 B( 12-C , 14-H ) :   0.9701 B( 12-C , 15-H ) :   0.9684
B( 16-S , 17-C ) :   1.1285 B( 16-S , 20-C ) :   1.1191 B( 17-C , 18-C ) :   1.6391
B( 17-C , 33-H ) :   0.9736 B( 18-C , 19-C ) :   1.2216 B( 18-C , 21-H ) :   0.9863
B( 19-C , 20-C ) :   1.6126 B( 19-C , 22-C ) :   1.0496 B( 22-C , 23-H ) :   0.9326
B( 22-C , 24-H ) :   0.9345 B( 22-C , 25-C ) :   1.0431 B( 25-C , 26-H ) :   0.9561
B( 25-C , 27-H ) :   0.9588 B( 25-C , 28-C ) :   1.0918 B( 28-C , 29-H ) :   0.9708
B( 28-C , 30-H ) :   0.9729 B( 28-C , 31-H ) :   0.9685

Dispersion correction           -0.013493280
FINAL SINGLE POINT ENERGY     -1339.853772675387

DIPOLE MOMENT
-------------
                                X             Y             Z
Electronic contribution:     28.31823       9.24392       7.60765
Nuclear contribution   :    -29.14242      -9.43431      -7.99742
                        -----------------------------------------
Total Dipole Moment    :     -0.82419      -0.19039      -0.38977
                        -----------------------------------------
Magnitude (a.u.)       :      0.93138
Magnitude (Debye)      :      2.36737

Rotational constants in cm-1:     0.015715     0.008727     0.006480
Rotational constants in MHz :   471.115378   261.633106   194.268892

                             ****ORCA TERMINATED NORMALLY****
TOTAL RUN TIME: 0 days 0 hours 0 minutes 22 seconds 557 msec
