                         Program Version 4.2.1 -  RELEASE  -
|  1> ! wB97X-D3 SP def2-SVP
|  2> %pal
|  3> nprocs 24
|  4> end
|  5>
|  6> * xyz 0 1
|  7> S 	 47.634 	 -18.6034 	 -110.013
|  8> C 	 46.7763 	 -18.7164 	 -111.566
|  9> C 	 46.0427 	 -19.8584 	 -111.614
| 10> C 	 46.346 	 -20.7382 	 -110.51
| 11> C 	 47.299 	 -20.2633 	 -109.583
| 12> H 	 45.9089 	 -21.6835 	 -110.148
| 13> C 	 44.8885 	 -20.1256 	 -112.677
| 14> H 	 45.2779 	 -20.9746 	 -113.224
| 15> H 	 44.6667 	 -19.3251 	 -113.394
| 16> C 	 43.5102 	 -20.4916 	 -112.039
| 17> H 	 43.6526 	 -21.4185 	 -111.562
| 18> H 	 43.3966 	 -19.7177 	 -111.289
| 19> C 	 42.3881 	 -20.5172 	 -113.087
| 20> H 	 41.3988 	 -20.7874 	 -112.719
| 21> H 	 42.1521 	 -19.5274 	 -113.536
| 22> H 	 42.5043 	 -21.2239 	 -113.934
| 23> S 	 48.4034 	 -22.5695 	 -108.641
| 24> C 	 48.9311 	 -22.5682 	 -106.958
| 25> C 	 48.6545 	 -21.4076 	 -106.329
| 26> C 	 48.0726 	 -20.4372 	 -107.179
| 27> C 	 47.8327 	 -20.9037 	 -108.432
| 28> H 	 48.9047 	 -21.2483 	 -105.268
| 29> C 	 47.5656 	 -19.1235 	 -106.728
| 30> H 	 46.9465 	 -19.4152 	 -105.834
| 31> H 	 46.8524 	 -18.7079 	 -107.377
| 32> C 	 48.6539 	 -18.0625 	 -106.438
| 33> H 	 49.3075 	 -17.9912 	 -107.266
| 34> H 	 49.1684 	 -18.4821 	 -105.537
| 35> C 	 48.179 	 -16.6949 	 -106.05
| 36> H 	 48.9473 	 -16.0388 	 -105.728
| 37> H 	 47.5423 	 -16.8633 	 -105.203
| 38> H 	 47.4883 	 -16.2472 	 -106.796
| 39> H 	 46.598 	 -17.9436 	 -112.282
| 40> H 	 49.1472 	 -23.4368 	 -106.342
| 41> *
| 42>
| 43>                          ****END OF INPUT****

CARTESIAN COORDINATES (ANGSTROEM)
---------------------------------
  S     47.634000  -18.603400  -110.013000
  C     46.776300  -18.716400  -111.566000
  C     46.042700  -19.858400  -111.614000
  C     46.346000  -20.738200  -110.510000
  C     47.299000  -20.263300  -109.583000
  H     45.908900  -21.683500  -110.148000
  C     44.888500  -20.125600  -112.677000
  H     45.277900  -20.974600  -113.224000
  H     44.666700  -19.325100  -113.394000
  C     43.510200  -20.491600  -112.039000
  H     43.652600  -21.418500  -111.562000
  H     43.396600  -19.717700  -111.289000
  C     42.388100  -20.517200  -113.087000
  H     41.398800  -20.787400  -112.719000
  H     42.152100  -19.527400  -113.536000
  H     42.504300  -21.223900  -113.934000
  S     48.403400  -22.569500  -108.641000
  C     48.931100  -22.568200  -106.958000
  C     48.654500  -21.407600  -106.329000
  C     48.072600  -20.437200  -107.179000
  C     47.832700  -20.903700  -108.432000
  H     48.904700  -21.248300  -105.268000
  C     47.565600  -19.123500  -106.728000
  H     46.946500  -19.415200  -105.834000
  H     46.852400  -18.707900  -107.377000
  C     48.653900  -18.062500  -106.438000
  H     49.307500  -17.991200  -107.266000
  H     49.168400  -18.482100  -105.537000
  C     48.179000  -16.694900  -106.050000
  H     48.947300  -16.038800  -105.728000
  H     47.542300  -16.863300  -105.203000
  H     47.488300  -16.247200  -106.796000
  H     46.598000  -17.943600  -112.282000
  H     49.147200  -23.436800  -106.342000

 Total Charge           Charge          ....    0
 Multiplicity           Mult            ....    1
 Number of Electrons    NEL             ....  134
 Basis Dimension        Dim             ....  322

ORBITAL ENERGIES
----------------

  NO   OCC          E(Eh)            E(eV)
   0   2.0000     -88.967254     -2420.9221
   1   2.0000     -88.965514     -2420.8747
   2   2.0000     -10.330997      -281.1207
   3   2.0000     -10.323795      -280.9247
   4   2.0000     -10.315666      -280.7035
   5   2.0000     -10.312971      -280.6302
   6   2.0000     -10.308718      -280.5145
   7   2.0000     -10.300575      -280.2929
   8   2.0000     -10.297996      -280.2227
   9   2.0000     -10.297600      -280.2119
  10   2.0000     -10.293708      -280.1060
  11   2.0000     -10.287563      -279.9388
  12   2.0000     -10.286571      -279.9118
  13   2.0000     -10.285558      -279.8843
  14   2.0000     -10.282183      -279.7924
  15   2.0000     -10.270728      -279.4807
  16   2.0000      -8.081459      -219.9077
  17   2.0000      -8.079447      -219.8529
  18   2.0000      -6.040107      -164.3597
  19   2.0000      -6.038122      -164.3057
  20   2.0000      -6.036182      -164.2529
  21   2.0000      -6.034107      -164.1964
  22   2.0000      -6.031955      -164.1378
  23   2.0000      -6.030028      -164.0854
  24   2.0000      -1.011257       -27.5177
  25   2.0000      -0.984676       -26.7944
  26   2.0000      -0.913866       -24.8676
  27   2.0000      -0.906788       -24.6750
  28   2.0000      -0.877770       -23.8853
  29   2.0000      -0.858016       -23.3478
  30   2.0000      -0.839598       -22.8466
  31   2.0000      -0.815774       -22.1984
  32   2.0000      -0.784159       -21.3381
  33   2.0000      -0.774841       -21.0845
  34   2.0000      -0.714426       -19.4405
  35   2.0000      -0.699877       -19.0446
  36   2.0000      -0.695505       -18.9257
  37   2.0000      -0.670188       -18.2368
  38   2.0000      -0.635697       -17.2982
  39   2.0000      -0.611567       -16.6416
  40   2.0000      -0.599024       -16.3003
  41   2.0000      -0.571400       -15.5486
  42   2.0000      -0.568198       -15.4615
  43   2.0000      -0.565712       -15.3938
  44   2.0000      -0.531336       -14.4584
  45   2.0000      -0.524519       -14.2729
  46   2.0000      -0.518802       -14.1173
  47   2.0000      -0.509324       -13.8594
  48   2.0000      -0.505114       -13.7449
  49   2.0000      -0.501584       -13.6488
  50   2.0000      -0.493087       -13.4176
  51   2.0000      -0.477637       -12.9972
  52   2.0000      -0.473294       -12.8790
  53   2.0000      -0.466079       -12.6826
  54   2.0000      -0.462298       -12.5798
  55   2.0000      -0.453546       -12.3416
  56   2.0000      -0.447622       -12.1804
  57   2.0000      -0.436069       -11.8660
  58   2.0000      -0.427616       -11.6360
  59   2.0000      -0.425767       -11.5857
  60   2.0000      -0.422936       -11.5087
  61   2.0000      -0.413968       -11.2646
  62   2.0000      -0.407784       -11.0964
  63   2.0000      -0.355114        -9.6631
  64   2.0000      -0.334831        -9.1112
  65   2.0000      -0.327458        -8.9106
  66   2.0000      -0.291268        -7.9258
  67   0.0000       0.021986         0.5983
  68   0.0000       0.077753         2.1158
  69   0.0000       0.097047         2.6408
  70   0.0000       0.117931         3.2091
  71   0.0000       0.135217         3.6794

MULLIKEN ATOMIC CHARGES
-----------------------
   0 S :    0.092832
   1 C :   -0.102182
   2 C :   -0.065818
   3 C :   -0.003187
   4 C :   -0.164691
   5 H :    0.021904
   6 C :    0.041194
   7 H :    0.037404
   8 H :    0.024349
   9 C :   -0.045734
  10 H :    0.028609
  11 H :    0.038035
  12 C :   -0.067969
  13 H :    0.027103
  14 H :    0.031834
  15 H :    0.035191
  16 S :    0.106282
  17 C :   -0.074444
  18 C :   -0.047418
  19 C :   -0.022481
  20 C :   -0.142333
  21 H :    0.029170
  22 C :    0.031119
  23 H :    0.033710
  24 H :    0.006484
  25 C :   -0.074430
  26 H :    0.026737
  27 H :    0.026330
  28 C :   -0.001577
  29 H :    0.036106
  30 H :    0.007059
  31 H :    0.031750
  32 H :    0.039741
  33 H :    0.059319
Sum of atomic charges:   -0.0000000

LOEWDIN ATOMIC CHARGES
----------------------
   0 S :    0.400324
   1 C :   -0.187292
   2 C :   -0.061158
   3 C :   -0.076007
   4 C :   -0.190193
   5 H :    0.031606
   6 C :   -0.024191
   7 H :    0.028751
   8 H :    0.027122
   9 C :   -0.033885
  10 H :    0.018232
  11 H :    0.027973
  12 C :   -0.075969
  13 H :    0.026735
  14 H :    0.028979
  15 H :    0.029617
  16 S :    0.392054
  17 C :   -0.180342
  18 C :   -0.068934
  19 C :   -0.058167
  20 C :   -0.188143
  21 H :    0.038169
  22 C :   -0.036622
  23 H :    0.040022
  24 H :    0.010837
  25 C :   -0.037004
  26 H :    0.015317
  27 H :    0.027888
  28 C :   -0.063003
  29 H :    0.024738
  30 H :    0.022084
  31 H :    0.028450
  32 H :    0.027691
  33 H :    0.034319

  Mayer bond orders larger than 0.100000
B(  0-S ,  1-C ) :   1.1245 B(  0-S ,  4-C ) :   1.1349 B(  1-C ,  2-C ) :   1.6434
B(  1-C , 32-H ) :   0.9686 B(  2-C ,  3-C ) :   1.2133 B(  2-C ,  6-C ) :   1.0014
B(  3-C ,  4-C ) :   1.5644 B(  3-C ,  5-H ) :   0.9875 B(  4-C , 20-C ) :   1.0804
B(  6-C ,  7-H ) :   0.9405 B(  6-C ,  8-H ) :   0.9573 B(  6-C ,  9-C ) :   1.0522
B(  9-C , 10-H ) :   0.9538 B(  9-C , 11-H ) :   0.9621 B(  9-C , 12-C ) :   1.0825
B( 12-C , 13-H ) :   0.9738 B( 12-C , 14-H ) :   0.9733 B( 12-C , 15-H ) :   0.9755
B( 16-S , 17-C ) :   1.1323 B( 16-S , 20-C ) :   1.1158 B( 17-C , 18-C ) :   1.6514
B( 17-C , 33-H ) :   0.9559 B( 18-C , 19-C ) :   1.2236 B( 18-C , 21-H ) :   0.9818
B( 19-C , 20-C ) :   1.6050 B( 19-C , 22-C ) :   1.0514 B( 22-C , 23-H ) :   0.9285
B( 22-C , 24-H ) :   0.9337 B( 22-C , 25-C ) :   1.0461 B( 25-C , 26-H ) :   0.9568
B( 25-C , 27-H ) :   0.9559 B( 25-C , 28-C ) :   1.0964 B( 28-C , 29-H ) :   0.9721
B( 28-C , 30-H ) :   0.9676 B( 28-C , 31-H ) :   0.9705

Dispersion correction           -0.014004611
FINAL SINGLE POINT ENERGY     -1339.868355825781

DIPOLE MOMENT
-------------
                                X             Y             Z
Electronic contribution:     15.64306     -10.22285       0.96508
Nuclear contribution   :    -16.18868      10.29266      -0.73130
                        -----------------------------------------
Total Dipole Moment    :     -0.54563       0.06981       0.23377
                        -----------------------------------------
Magnitude (a.u.)       :      0.59769
Magnitude (Debye)      :      1.51920

Rotational constants in cm-1:     0.019758     0.007871     0.006343
Rotational constants in MHz :   592.338877   235.981228   190.152442

                             ****ORCA TERMINATED NORMALLY****
TOTAL RUN TIME: 0 days 0 hours 0 minutes 20 seconds 76 msec
