                         Program Version 4.2.1 -  RELEASE  -
|  1> ! wB97X-D3 SP def2-SVP
|  2> %pal
|  3> nprocs 24
|  4> end
|  5>
|  6> * xyz 0 1
|  7> S 	 -145.433 	 9.03548 	 -0.720514
|  8> C 	 -144.685 	 10.4954 	 -0.0794087
|  9> C 	 -143.469 	 10.2021 	 0.617244
| 10> C 	 -143.038 	 8.8851 	 0.296768
| 11> C 	 -143.956 	 8.14237 	 -0.456865
| 12> H 	 -142.09 	 8.53923 	 0.701137
| 13> C 	 -142.742 	 11.0837 	 1.6816
| 14> H 	 -142.354 	 10.4614 	 2.5128
| 15> H 	 -143.465 	 11.8641 	 2.01934
| 16> C 	 -141.673 	 11.9141 	 0.91913
| 17> H 	 -140.897 	 11.326 	 0.522032
| 18> H 	 -142.187 	 12.2984 	 0.100565
| 19> C 	 -141.071 	 12.9996 	 1.72809
| 20> H 	 -140.364 	 13.5932 	 1.22391
| 21> H 	 -141.807 	 13.6084 	 2.2249
| 22> H 	 -140.504 	 12.5303 	 2.51806
| 23> S 	 -144.647 	 5.47366 	 -0.139442
| 24> C 	 -143.945 	 4.27002 	 -1.23723
| 25> C 	 -142.907 	 4.80309 	 -1.97575
| 26> C 	 -142.734 	 6.23171 	 -1.78358
| 27> C 	 -143.675 	 6.74588 	 -0.915596
| 28> H 	 -142.395 	 4.10715 	 -2.60647
| 29> C 	 -141.728 	 7.03095 	 -2.64782
| 30> H 	 -140.706 	 6.7505 	 -2.28436
| 31> H 	 -141.798 	 8.05255 	 -2.32144
| 32> C 	 -141.877 	 6.86927 	 -4.21254
| 33> H 	 -141.381 	 5.97557 	 -4.51149
| 34> H 	 -141.436 	 7.70928 	 -4.72167
| 35> C 	 -143.374 	 6.71479 	 -4.69474
| 36> H 	 -143.73 	 5.70802 	 -4.45586
| 37> H 	 -143.524 	 6.97008 	 -5.72247
| 38> H 	 -144.047 	 7.4153 	 -4.16614
| 39> H 	 -145.183 	 11.4339 	 -0.0966245
| 40> H 	 -144.189 	 3.22374 	 -1.33287
| 41> *
| 42>
| 43>                          ****END OF INPUT****

CARTESIAN COORDINATES (ANGSTROEM)
---------------------------------
  S    -145.433000    9.035480   -0.720514
  C    -144.685000   10.495400   -0.079409
  C    -143.469000   10.202100    0.617244
  C    -143.038000    8.885100    0.296768
  C    -143.956000    8.142370   -0.456865
  H    -142.090000    8.539230    0.701137
  C    -142.742000   11.083700    1.681600
  H    -142.354000   10.461400    2.512800
  H    -143.465000   11.864100    2.019340
  C    -141.673000   11.914100    0.919130
  H    -140.897000   11.326000    0.522032
  H    -142.187000   12.298400    0.100565
  C    -141.071000   12.999600    1.728090
  H    -140.364000   13.593200    1.223910
  H    -141.807000   13.608400    2.224900
  H    -140.504000   12.530300    2.518060
  S    -144.647000    5.473660   -0.139442
  C    -143.945000    4.270020   -1.237230
  C    -142.907000    4.803090   -1.975750
  C    -142.734000    6.231710   -1.783580
  C    -143.675000    6.745880   -0.915596
  H    -142.395000    4.107150   -2.606470
  C    -141.728000    7.030950   -2.647820
  H    -140.706000    6.750500   -2.284360
  H    -141.798000    8.052550   -2.321440
  C    -141.877000    6.869270   -4.212540
  H    -141.381000    5.975570   -4.511490
  H    -141.436000    7.709280   -4.721670
  C    -143.374000    6.714790   -4.694740
  H    -143.730000    5.708020   -4.455860
  H    -143.524000    6.970080   -5.722470
  H    -144.047000    7.415300   -4.166140
  H    -145.183000   11.433900   -0.096625
  H    -144.189000    3.223740   -1.332870

 Total Charge           Charge          ....    0
 Multiplicity           Mult            ....    1
 Number of Electrons    NEL             ....  134
 Basis Dimension        Dim             ....  322

ORBITAL ENERGIES
----------------

  NO   OCC          E(Eh)            E(eV)
   0   2.0000     -88.973209     -2421.0841
   1   2.0000     -88.962282     -2420.7868
   2   2.0000     -10.332756      -281.1686
   3   2.0000     -10.329549      -281.0813
   4   2.0000     -10.319230      -280.8005
   5   2.0000     -10.315842      -280.7083
   6   2.0000     -10.308340      -280.5042
   7   2.0000     -10.306982      -280.4672
   8   2.0000     -10.304558      -280.4013
   9   2.0000     -10.295985      -280.1680
  10   2.0000     -10.294972      -280.1404
  11   2.0000     -10.292374      -280.0697
  12   2.0000     -10.287196      -279.9288
  13   2.0000     -10.274294      -279.5778
  14   2.0000     -10.271745      -279.5084
  15   2.0000     -10.267830      -279.4018
  16   2.0000      -8.087261      -220.0656
  17   2.0000      -8.076332      -219.7682
  18   2.0000      -6.045718      -164.5124
  19   2.0000      -6.041953      -164.4099
  20   2.0000      -6.038033      -164.3032
  21   2.0000      -6.035042      -164.2218
  22   2.0000      -6.031020      -164.1124
  23   2.0000      -6.026860      -163.9992
  24   2.0000      -0.998184       -27.1620
  25   2.0000      -0.976834       -26.5810
  26   2.0000      -0.916158       -24.9299
  27   2.0000      -0.894047       -24.3282
  28   2.0000      -0.863307       -23.4918
  29   2.0000      -0.852431       -23.1958
  30   2.0000      -0.836307       -22.7571
  31   2.0000      -0.810609       -22.0578
  32   2.0000      -0.781207       -21.2577
  33   2.0000      -0.770003       -20.9528
  34   2.0000      -0.704255       -19.1638
  35   2.0000      -0.702575       -19.1180
  36   2.0000      -0.692092       -18.8328
  37   2.0000      -0.654488       -17.8095
  38   2.0000      -0.640433       -17.4271
  39   2.0000      -0.621585       -16.9142
  40   2.0000      -0.585715       -15.9381
  41   2.0000      -0.576843       -15.6967
  42   2.0000      -0.562866       -15.3164
  43   2.0000      -0.544732       -14.8229
  44   2.0000      -0.538976       -14.6663
  45   2.0000      -0.528383       -14.3780
  46   2.0000      -0.515993       -14.0409
  47   2.0000      -0.506492       -13.7824
  48   2.0000      -0.500883       -13.6297
  49   2.0000      -0.493965       -13.4415
  50   2.0000      -0.484502       -13.1840
  51   2.0000      -0.473819       -12.8933
  52   2.0000      -0.468524       -12.7492
  53   2.0000      -0.463829       -12.6214
  54   2.0000      -0.459317       -12.4987
  55   2.0000      -0.444312       -12.0904
  56   2.0000      -0.439602       -11.9622
  57   2.0000      -0.435691       -11.8557
  58   2.0000      -0.433703       -11.8017
  59   2.0000      -0.429415       -11.6850
  60   2.0000      -0.426006       -11.5922
  61   2.0000      -0.418618       -11.3912
  62   2.0000      -0.414388       -11.2761
  63   2.0000      -0.335961        -9.1420
  64   2.0000      -0.329117        -8.9557
  65   2.0000      -0.327081        -8.9003
  66   2.0000      -0.296062        -8.0563
  67   0.0000       0.033568         0.9134
  68   0.0000       0.059621         1.6224
  69   0.0000       0.104197         2.8353
  70   0.0000       0.114770         3.1230
  71   0.0000       0.133950         3.6450

MULLIKEN ATOMIC CHARGES
-----------------------
   0 S :    0.134471
   1 C :   -0.127448
   2 C :   -0.109475
   3 C :    0.049587
   4 C :   -0.156432
   5 H :    0.012743
   6 C :    0.042432
   7 H :    0.049950
   8 H :    0.029766
   9 C :   -0.048626
  10 H :    0.013351
  11 H :    0.009262
  12 C :    0.012867
  13 H :    0.023630
  14 H :    0.017821
  15 H :    0.011059
  16 S :    0.093159
  17 C :   -0.090509
  18 C :   -0.043337
  19 C :   -0.039894
  20 C :   -0.177134
  21 H :    0.014068
  22 C :    0.091621
  23 H :    0.036246
  24 H :    0.017145
  25 C :   -0.066903
  26 H :    0.026818
  27 H :    0.035533
  28 C :   -0.047850
  29 H :    0.033440
  30 H :    0.030607
  31 H :    0.029784
  32 H :    0.041006
  33 H :    0.051243
Sum of atomic charges:   -0.0000000

LOEWDIN ATOMIC CHARGES
----------------------
   0 S :    0.418978
   1 C :   -0.195790
   2 C :   -0.054968
   3 C :   -0.058990
   4 C :   -0.208615
   5 H :    0.031915
   6 C :   -0.022249
   7 H :    0.034884
   8 H :    0.035463
   9 C :   -0.035511
  10 H :    0.017683
  11 H :    0.016003
  12 C :   -0.058602
  13 H :    0.021081
  14 H :    0.021080
  15 H :    0.024406
  16 S :    0.373719
  17 C :   -0.176340
  18 C :   -0.070119
  19 C :   -0.054363
  20 C :   -0.185815
  21 H :    0.028579
  22 C :   -0.030192
  23 H :    0.036785
  24 H :    0.025161
  25 C :   -0.032622
  26 H :    0.018267
  27 H :    0.025306
  28 C :   -0.066834
  29 H :    0.025574
  30 H :    0.021190
  31 H :    0.028118
  32 H :    0.017791
  33 H :    0.029027

  Mayer bond orders larger than 0.100000
B(  0-S ,  1-C ) :   1.1592 B(  0-S ,  4-C ) :   1.1646 B(  1-C ,  2-C ) :   1.5636
B(  1-C ,  4-C ) :   0.1090 B(  1-C , 32-H ) :   0.9743 B(  2-C ,  3-C ) :   1.2845
B(  2-C ,  6-C ) :   1.0192 B(  3-C ,  4-C ) :   1.5344 B(  3-C ,  5-H ) :   0.9921
B(  4-C , 20-C ) :   1.0066 B(  6-C ,  7-H ) :   0.9490 B(  6-C ,  8-H ) :   0.9423
B(  6-C ,  9-C ) :   1.0530 B(  9-C , 10-H ) :   0.9542 B(  9-C , 11-H ) :   0.9539
B(  9-C , 12-C ) :   1.0988 B( 12-C , 13-H ) :   0.9707 B( 12-C , 14-H ) :   0.9709
B( 12-C , 15-H ) :   0.9664 B( 16-S , 17-C ) :   1.1268 B( 16-S , 20-C ) :   1.1316
B( 17-C , 18-C ) :   1.6653 B( 17-C , 33-H ) :   0.9662 B( 18-C , 19-C ) :   1.1819
B( 18-C , 21-H ) :   0.9908 B( 19-C , 20-C ) :   1.6521 B( 19-C , 22-C ) :   1.0413
B( 22-C , 23-H ) :   0.9389 B( 22-C , 24-H ) :   0.9326 B( 22-C , 25-C ) :   1.0512
B( 25-C , 26-H ) :   0.9571 B( 25-C , 27-H ) :   0.9630 B( 25-C , 28-C ) :   1.0818
B( 28-C , 29-H ) :   0.9696 B( 28-C , 30-H ) :   0.9763 B( 28-C , 31-H ) :   0.9757

Dispersion correction           -0.014611012
FINAL SINGLE POINT ENERGY     -1339.868253845159

DIPOLE MOMENT
-------------
                                X             Y             Z
Electronic contribution:    -17.84550     -14.70392       5.53670
Nuclear contribution   :     18.39551      15.00432      -5.57581
                        -----------------------------------------
Total Dipole Moment    :      0.55000       0.30040      -0.03911
                        -----------------------------------------
Magnitude (a.u.)       :      0.62791
Magnitude (Debye)      :      1.59603

Rotational constants in cm-1:     0.020829     0.007497     0.006701
Rotational constants in MHz :   624.434981   224.765433   200.881108

                             ****ORCA TERMINATED NORMALLY****
TOTAL RUN TIME: 0 days 0 hours 0 minutes 21 seconds 409 msec
