                         Program Version 4.2.1 -  RELEASE  -
|  1> ! wB97X-D3 SP def2-SVP
|  2> %pal
|  3> nprocs 24
|  4> end
|  5>
|  6> * xyz 0 1
|  7> S 	 -53.166 	 21.5936 	 28.4028
|  8> C 	 -51.5971 	 21.1331 	 27.7013
|  9> C 	 -50.7432 	 22.2034 	 27.5594
| 10> C 	 -51.4159 	 23.3702 	 28.0501
| 11> C 	 -52.7394 	 23.2266 	 28.3386
| 12> H 	 -51.047 	 24.3401 	 28.313
| 13> C 	 -49.3096 	 22.2335 	 27.1936
| 14> H 	 -48.9677 	 23.3084 	 27.232
| 15> H 	 -49.249 	 21.8771 	 26.172
| 16> C 	 -48.4317 	 21.4208 	 28.1273
| 17> H 	 -48.5257 	 21.7854 	 29.1991
| 18> H 	 -48.7439 	 20.4225 	 28.1166
| 19> C 	 -46.9818 	 21.5642 	 27.7105
| 20> H 	 -46.4914 	 22.5114 	 27.8721
| 21> H 	 -46.4549 	 20.8171 	 28.2679
| 22> H 	 -46.928 	 21.1689 	 26.6277
| 23> S 	 -54.8857 	 23.839 	 29.8248
| 24> C 	 -55.746 	 25.3616 	 29.7759
| 25> C 	 -55.1397 	 26.1081 	 28.8045
| 26> C 	 -53.9629 	 25.5473 	 28.1965
| 27> C 	 -53.6929 	 24.2709 	 28.6475
| 28> H 	 -55.5291 	 27.1165 	 28.5842
| 29> C 	 -53.1786 	 26.3264 	 27.1985
| 30> H 	 -53.7134 	 26.3984 	 26.3059
| 31> H 	 -52.3672 	 25.7103 	 26.8108
| 32> C 	 -52.6045 	 27.7186 	 27.5776
| 33> H 	 -53.3858 	 28.4424 	 27.7463
| 34> H 	 -52.1676 	 28.1345 	 26.6833
| 35> C 	 -51.5195 	 27.6298 	 28.6802
| 36> H 	 -50.7141 	 27.2188 	 28.235
| 37> H 	 -52.0021 	 27.1837 	 29.5779
| 38> H 	 -51.1527 	 28.5859 	 28.9783
| 39> H 	 -51.3216 	 20.1042 	 27.4687
| 40> H 	 -56.6455 	 25.5333 	 30.3824
| 41> *
| 42>
| 43>                          ****END OF INPUT****

CARTESIAN COORDINATES (ANGSTROEM)
---------------------------------
  S    -53.166000   21.593600   28.402800
  C    -51.597100   21.133100   27.701300
  C    -50.743200   22.203400   27.559400
  C    -51.415900   23.370200   28.050100
  C    -52.739400   23.226600   28.338600
  H    -51.047000   24.340100   28.313000
  C    -49.309600   22.233500   27.193600
  H    -48.967700   23.308400   27.232000
  H    -49.249000   21.877100   26.172000
  C    -48.431700   21.420800   28.127300
  H    -48.525700   21.785400   29.199100
  H    -48.743900   20.422500   28.116600
  C    -46.981800   21.564200   27.710500
  H    -46.491400   22.511400   27.872100
  H    -46.454900   20.817100   28.267900
  H    -46.928000   21.168900   26.627700
  S    -54.885700   23.839000   29.824800
  C    -55.746000   25.361600   29.775900
  C    -55.139700   26.108100   28.804500
  C    -53.962900   25.547300   28.196500
  C    -53.692900   24.270900   28.647500
  H    -55.529100   27.116500   28.584200
  C    -53.178600   26.326400   27.198500
  H    -53.713400   26.398400   26.305900
  H    -52.367200   25.710300   26.810800
  C    -52.604500   27.718600   27.577600
  H    -53.385800   28.442400   27.746300
  H    -52.167600   28.134500   26.683300
  C    -51.519500   27.629800   28.680200
  H    -50.714100   27.218800   28.235000
  H    -52.002100   27.183700   29.577900
  H    -51.152700   28.585900   28.978300
  H    -51.321600   20.104200   27.468700
  H    -56.645500   25.533300   30.382400

 Total Charge           Charge          ....    0
 Multiplicity           Mult            ....    1
 Number of Electrons    NEL             ....  134
 Basis Dimension        Dim             ....  322

ORBITAL ENERGIES
----------------

  NO   OCC          E(Eh)            E(eV)
   0   2.0000     -88.964378     -2420.8438
   1   2.0000     -88.956602     -2420.6322
   2   2.0000     -10.325410      -280.9687
   3   2.0000     -10.319994      -280.8213
   4   2.0000     -10.319691      -280.8131
   5   2.0000     -10.313990      -280.6579
   6   2.0000     -10.302137      -280.3354
   7   2.0000     -10.299253      -280.2569
   8   2.0000     -10.295111      -280.1442
   9   2.0000     -10.292280      -280.0672
  10   2.0000     -10.285990      -279.8960
  11   2.0000     -10.284938      -279.8674
  12   2.0000     -10.284429      -279.8535
  13   2.0000     -10.281920      -279.7853
  14   2.0000     -10.280790      -279.7545
  15   2.0000     -10.269334      -279.4428
  16   2.0000      -8.079891      -219.8650
  17   2.0000      -8.072545      -219.6651
  18   2.0000      -6.038378      -164.3126
  19   2.0000      -6.034420      -164.2049
  20   2.0000      -6.031024      -164.1125
  21   2.0000      -6.030476      -164.0976
  22   2.0000      -6.026797      -163.9975
  23   2.0000      -6.023322      -163.9029
  24   2.0000      -1.015062       -27.6213
  25   2.0000      -0.988815       -26.9070
  26   2.0000      -0.922595       -25.1051
  27   2.0000      -0.908678       -24.7264
  28   2.0000      -0.874607       -23.7993
  29   2.0000      -0.853595       -23.2275
  30   2.0000      -0.844264       -22.9736
  31   2.0000      -0.816540       -22.2192
  32   2.0000      -0.784225       -21.3398
  33   2.0000      -0.778047       -21.1717
  34   2.0000      -0.709697       -19.3118
  35   2.0000      -0.705322       -19.1928
  36   2.0000      -0.695006       -18.9121
  37   2.0000      -0.661518       -18.0008
  38   2.0000      -0.641142       -17.4464
  39   2.0000      -0.617326       -16.7983
  40   2.0000      -0.602187       -16.3863
  41   2.0000      -0.577602       -15.7174
  42   2.0000      -0.563466       -15.3327
  43   2.0000      -0.556345       -15.1389
  44   2.0000      -0.547834       -14.9073
  45   2.0000      -0.525984       -14.3127
  46   2.0000      -0.522539       -14.2190
  47   2.0000      -0.515342       -14.0232
  48   2.0000      -0.503194       -13.6926
  49   2.0000      -0.502217       -13.6660
  50   2.0000      -0.491610       -13.3774
  51   2.0000      -0.480591       -13.0775
  52   2.0000      -0.475144       -12.9293
  53   2.0000      -0.468299       -12.7431
  54   2.0000      -0.454056       -12.3555
  55   2.0000      -0.452267       -12.3068
  56   2.0000      -0.438995       -11.9457
  57   2.0000      -0.437462       -11.9040
  58   2.0000      -0.431656       -11.7460
  59   2.0000      -0.428368       -11.6565
  60   2.0000      -0.419596       -11.4178
  61   2.0000      -0.417271       -11.3545
  62   2.0000      -0.406465       -11.0605
  63   2.0000      -0.355531        -9.6745
  64   2.0000      -0.329301        -8.9607
  65   2.0000      -0.324118        -8.8197
  66   2.0000      -0.288503        -7.8506
  67   0.0000       0.027706         0.7539
  68   0.0000       0.080715         2.1964
  69   0.0000       0.104450         2.8422
  70   0.0000       0.122544         3.3346
  71   0.0000       0.137434         3.7398

MULLIKEN ATOMIC CHARGES
-----------------------
   0 S :    0.114673
   1 C :   -0.139543
   2 C :   -0.047028
   3 C :   -0.008757
   4 C :   -0.124456
   5 H :    0.001377
   6 C :    0.069725
   7 H :    0.028728
   8 H :    0.032249
   9 C :   -0.084461
  10 H :    0.040516
  11 H :    0.015356
  12 C :   -0.035505
  13 H :    0.045247
  14 H :    0.023182
  15 H :    0.031053
  16 S :    0.062392
  17 C :   -0.095164
  18 C :   -0.039035
  19 C :   -0.052945
  20 C :   -0.124907
  21 H :    0.026087
  22 C :    0.084294
  23 H :    0.013301
  24 H :    0.000781
  25 C :   -0.072876
  26 H :    0.018142
  27 H :    0.012880
  28 C :    0.003125
  29 H :    0.010093
  30 H :    0.056313
  31 H :    0.014783
  32 H :    0.045152
  33 H :    0.075228
Sum of atomic charges:   -0.0000000

LOEWDIN ATOMIC CHARGES
----------------------
   0 S :    0.417599
   1 C :   -0.190793
   2 C :   -0.058796
   3 C :   -0.069701
   4 C :   -0.211347
   5 H :    0.026442
   6 C :   -0.034771
   7 H :    0.037299
   8 H :    0.033479
   9 C :   -0.037323
  10 H :    0.033557
  11 H :    0.014876
  12 C :   -0.066768
  13 H :    0.025070
  14 H :    0.023112
  15 H :    0.033861
  16 S :    0.398599
  17 C :   -0.185043
  18 C :   -0.074164
  19 C :   -0.064382
  20 C :   -0.192407
  21 H :    0.033278
  22 C :   -0.036493
  23 H :    0.028205
  24 H :    0.030771
  25 C :   -0.033493
  26 H :    0.016087
  27 H :    0.022456
  28 C :   -0.055110
  29 H :    0.010781
  30 H :    0.037539
  31 H :    0.023194
  32 H :    0.025689
  33 H :    0.038696

  Mayer bond orders larger than 0.100000
B(  0-S ,  1-C ) :   1.1288 B(  0-S ,  4-C ) :   1.1564 B(  1-C ,  2-C ) :   1.6071
B(  1-C , 32-H ) :   0.9712 B(  2-C ,  3-C ) :   1.2229 B(  2-C ,  6-C ) :   1.0235
B(  3-C ,  4-C ) :   1.5881 B(  3-C ,  5-H ) :   0.9962 B(  4-C , 20-C ) :   1.0388
B(  6-C ,  7-H ) :   0.9446 B(  6-C ,  8-H ) :   0.9219 B(  6-C ,  9-C ) :   1.0772
B(  9-C , 10-H ) :   0.9521 B(  9-C , 11-H ) :   0.9526 B(  9-C , 12-C ) :   1.0920
B( 12-C , 13-H ) :   0.9757 B( 12-C , 14-H ) :   0.9711 B( 12-C , 15-H ) :   0.9688
B( 16-S , 17-C ) :   1.1486 B( 16-S , 20-C ) :   1.1436 B( 17-C , 18-C ) :   1.5897
B( 17-C , 33-H ) :   0.9726 B( 18-C , 19-C ) :   1.2371 B( 18-C , 21-H ) :   0.9895
B( 19-C , 20-C ) :   1.5818 B( 19-C , 22-C ) :   1.0564 B( 22-C , 23-H ) :   0.9168
B( 22-C , 24-H ) :   0.9259 B( 22-C , 25-C ) :   1.0764 B( 25-C , 26-H ) :   0.9569
B( 25-C , 27-H ) :   0.9508 B( 25-C , 28-C ) :   1.0720 B( 28-C , 29-H ) :   0.9711
B( 28-C , 30-H ) :   0.9768 B( 28-C , 31-H ) :   0.9700

Dispersion correction           -0.014168425
FINAL SINGLE POINT ENERGY     -1339.866670637937

DIPOLE MOMENT
-------------
                                X             Y             Z
Electronic contribution:    -25.50564     -11.04640       7.13490
Nuclear contribution   :     26.01563      11.43619      -7.36641
                        -----------------------------------------
Total Dipole Moment    :      0.50999       0.38979      -0.23151
                        -----------------------------------------
Magnitude (a.u.)       :      0.68236
Magnitude (Debye)      :      1.73443

Rotational constants in cm-1:     0.020326     0.008310     0.006327
Rotational constants in MHz :   609.360435   249.127610   189.680641

                             ****ORCA TERMINATED NORMALLY****
TOTAL RUN TIME: 0 days 0 hours 0 minutes 21 seconds 638 msec
