                         Program Version 4.2.1 -  RELEASE  -
|  1> ! wB97X-D3 SP def2-SVP
|  2> %pal
|  3> nprocs 24
|  4> end
|  5>
|  6> * xyz 0 1
|  7> S 	 18.7135 	 -6.63689 	 -117.472
|  8> C 	 18.2846 	 -7.58822 	 -116.071
|  9> C 	 17.0897 	 -7.23853 	 -115.464
| 10> C 	 16.3926 	 -6.33029 	 -116.32
| 11> C 	 17.085 	 -5.91806 	 -117.485
| 12> H 	 15.3644 	 -5.95815 	 -116.066
| 13> C 	 16.51 	 -7.82561 	 -114.188
| 14> H 	 17.1865 	 -8.56167 	 -113.797
| 15> H 	 15.6197 	 -8.35285 	 -114.493
| 16> C 	 16.2659 	 -6.83645 	 -113.022
| 17> H 	 15.506 	 -6.06596 	 -113.234
| 18> H 	 15.8246 	 -7.42047 	 -112.138
| 19> C 	 17.5597 	 -6.12622 	 -112.552
| 20> H 	 18.3691 	 -6.77757 	 -112.177
| 21> H 	 17.8734 	 -5.45622 	 -113.351
| 22> H 	 17.3885 	 -5.35049 	 -111.793
| 23> S 	 18.0987 	 -3.57416 	 -118.335
| 24> C 	 16.9605 	 -2.39687 	 -119.003
| 25> C 	 15.7789 	 -2.93059 	 -119.353
| 26> C 	 15.6599 	 -4.24682 	 -118.836
| 27> C 	 16.8183 	 -4.74495 	 -118.269
| 28> H 	 15.1058 	 -2.24855 	 -119.827
| 29> C 	 14.3385 	 -4.9869 	 -119.025
| 30> H 	 13.6102 	 -4.34117 	 -119.37
| 31> H 	 13.9501 	 -5.40706 	 -118.004
| 32> C 	 14.5316 	 -6.10562 	 -119.984
| 33> H 	 14.9123 	 -6.93337 	 -119.464
| 34> H 	 15.152 	 -5.92936 	 -120.842
| 35> C 	 13.1452 	 -6.55887 	 -120.559
| 36> H 	 13.1737 	 -7.45538 	 -121.27
| 37> H 	 12.5948 	 -5.70857 	 -120.942
| 38> H 	 12.5479 	 -6.86041 	 -119.656
| 39> H 	 18.9937 	 -8.25104 	 -115.621
| 40> H 	 17.2288 	 -1.40929 	 -119.314
| 41> *
| 42>
| 43>                          ****END OF INPUT****

CARTESIAN COORDINATES (ANGSTROEM)
---------------------------------
  S     18.713500   -6.636890  -117.472000
  C     18.284600   -7.588220  -116.071000
  C     17.089700   -7.238530  -115.464000
  C     16.392600   -6.330290  -116.320000
  C     17.085000   -5.918060  -117.485000
  H     15.364400   -5.958150  -116.066000
  C     16.510000   -7.825610  -114.188000
  H     17.186500   -8.561670  -113.797000
  H     15.619700   -8.352850  -114.493000
  C     16.265900   -6.836450  -113.022000
  H     15.506000   -6.065960  -113.234000
  H     15.824600   -7.420470  -112.138000
  C     17.559700   -6.126220  -112.552000
  H     18.369100   -6.777570  -112.177000
  H     17.873400   -5.456220  -113.351000
  H     17.388500   -5.350490  -111.793000
  S     18.098700   -3.574160  -118.335000
  C     16.960500   -2.396870  -119.003000
  C     15.778900   -2.930590  -119.353000
  C     15.659900   -4.246820  -118.836000
  C     16.818300   -4.744950  -118.269000
  H     15.105800   -2.248550  -119.827000
  C     14.338500   -4.986900  -119.025000
  H     13.610200   -4.341170  -119.370000
  H     13.950100   -5.407060  -118.004000
  C     14.531600   -6.105620  -119.984000
  H     14.912300   -6.933370  -119.464000
  H     15.152000   -5.929360  -120.842000
  C     13.145200   -6.558870  -120.559000
  H     13.173700   -7.455380  -121.270000
  H     12.594800   -5.708570  -120.942000
  H     12.547900   -6.860410  -119.656000
  H     18.993700   -8.251040  -115.621000
  H     17.228800   -1.409290  -119.314000

 Total Charge           Charge          ....    0
 Multiplicity           Mult            ....    1
 Number of Electrons    NEL             ....  134
 Basis Dimension        Dim             ....  322

ORBITAL ENERGIES
----------------

  NO   OCC          E(Eh)            E(eV)
   0   2.0000     -88.968815     -2420.9645
   1   2.0000     -88.963010     -2420.8066
   2   2.0000     -10.333373      -281.1854
   3   2.0000     -10.322315      -280.8845
   4   2.0000     -10.313640      -280.6484
   5   2.0000     -10.309577      -280.5378
   6   2.0000     -10.303547      -280.3738
   7   2.0000     -10.302554      -280.3467
   8   2.0000     -10.300579      -280.2930
   9   2.0000     -10.299039      -280.2511
  10   2.0000     -10.295459      -280.1537
  11   2.0000     -10.289885      -280.0020
  12   2.0000     -10.287790      -279.9450
  13   2.0000     -10.281455      -279.7726
  14   2.0000     -10.278825      -279.7010
  15   2.0000     -10.272494      -279.5288
  16   2.0000      -8.083127      -219.9531
  17   2.0000      -8.078001      -219.8136
  18   2.0000      -6.041573      -164.3996
  19   2.0000      -6.037854      -164.2984
  20   2.0000      -6.036580      -164.2637
  21   2.0000      -6.033832      -164.1889
  22   2.0000      -6.032599      -164.1554
  23   2.0000      -6.028542      -164.0450
  24   2.0000      -1.008997       -27.4562
  25   2.0000      -0.983239       -26.7553
  26   2.0000      -0.913685       -24.8626
  27   2.0000      -0.909919       -24.7602
  28   2.0000      -0.873775       -23.7766
  29   2.0000      -0.846871       -23.0445
  30   2.0000      -0.842495       -22.9255
  31   2.0000      -0.812734       -22.1156
  32   2.0000      -0.783793       -21.3281
  33   2.0000      -0.766682       -20.8625
  34   2.0000      -0.711212       -19.3531
  35   2.0000      -0.698490       -19.0069
  36   2.0000      -0.690971       -18.8023
  37   2.0000      -0.662622       -18.0309
  38   2.0000      -0.635640       -17.2966
  39   2.0000      -0.622398       -16.9363
  40   2.0000      -0.595734       -16.2108
  41   2.0000      -0.571213       -15.5435
  42   2.0000      -0.563287       -15.3278
  43   2.0000      -0.555937       -15.1278
  44   2.0000      -0.538248       -14.6465
  45   2.0000      -0.524919       -14.2838
  46   2.0000      -0.513262       -13.9666
  47   2.0000      -0.508224       -13.8295
  48   2.0000      -0.500020       -13.6062
  49   2.0000      -0.497112       -13.5271
  50   2.0000      -0.489856       -13.3297
  51   2.0000      -0.475249       -12.9322
  52   2.0000      -0.469617       -12.7789
  53   2.0000      -0.463872       -12.6226
  54   2.0000      -0.453985       -12.3535
  55   2.0000      -0.449288       -12.2258
  56   2.0000      -0.441131       -12.0038
  57   2.0000      -0.438027       -11.9193
  58   2.0000      -0.436761       -11.8849
  59   2.0000      -0.428509       -11.6603
  60   2.0000      -0.420869       -11.4524
  61   2.0000      -0.414818       -11.2878
  62   2.0000      -0.408075       -11.1043
  63   2.0000      -0.355388        -9.6706
  64   2.0000      -0.334362        -9.0985
  65   2.0000      -0.327525        -8.9124
  66   2.0000      -0.283399        -7.7117
  67   0.0000       0.026098         0.7102
  68   0.0000       0.064859         1.7649
  69   0.0000       0.105827         2.8797
  70   0.0000       0.119991         3.2651
  71   0.0000       0.138427         3.7668

MULLIKEN ATOMIC CHARGES
-----------------------
   0 S :    0.095214
   1 C :   -0.109011
   2 C :   -0.103084
   3 C :    0.004913
   4 C :   -0.137574
   5 H :    0.029389
   6 C :    0.106014
   7 H :    0.011466
   8 H :    0.039548
   9 C :   -0.107148
  10 H :    0.035468
  11 H :    0.041782
  12 C :   -0.068776
  13 H :    0.043203
  14 H :    0.041189
  15 H :    0.028270
  16 S :    0.095609
  17 C :   -0.084848
  18 C :   -0.022966
  19 C :   -0.060759
  20 C :   -0.121591
  21 H :    0.015532
  22 C :    0.089467
  23 H :   -0.010709
  24 H :    0.039503
  25 C :   -0.037086
  26 H :    0.026887
  27 H :    0.034151
  28 C :   -0.096079
  29 H :    0.053569
  30 H :    0.028512
  31 H :    0.021614
  32 H :    0.039255
  33 H :    0.039075
Sum of atomic charges:    0.0000000

LOEWDIN ATOMIC CHARGES
----------------------
   0 S :    0.393872
   1 C :   -0.188967
   2 C :   -0.065053
   3 C :   -0.059002
   4 C :   -0.189564
   5 H :    0.034739
   6 C :   -0.027521
   7 H :    0.028798
   8 H :    0.034354
   9 C :   -0.045057
  10 H :    0.024140
  11 H :    0.031532
  12 C :   -0.076113
  13 H :    0.027532
  14 H :    0.030221
  15 H :    0.028712
  16 S :    0.396232
  17 C :   -0.169069
  18 C :   -0.069235
  19 C :   -0.053051
  20 C :   -0.203901
  21 H :    0.034752
  22 C :   -0.025047
  23 H :    0.013729
  24 H :    0.041026
  25 C :   -0.034828
  26 H :    0.021277
  27 H :    0.023107
  28 C :   -0.075184
  29 H :    0.033322
  30 H :    0.017476
  31 H :    0.024755
  32 H :    0.020331
  33 H :    0.021686

  Mayer bond orders larger than 0.100000
B(  0-S ,  1-C ) :   1.1471 B(  0-S ,  4-C ) :   1.1352 B(  1-C ,  2-C ) :   1.6048
B(  1-C , 32-H ) :   0.9634 B(  2-C ,  3-C ) :   1.2643 B(  2-C ,  6-C ) :   1.0176
B(  3-C ,  4-C ) :   1.5495 B(  3-C ,  5-H ) :   0.9775 B(  4-C , 20-C ) :   1.0702
B(  6-C ,  7-H ) :   0.9392 B(  6-C ,  8-H ) :   0.9413 B(  6-C ,  9-C ) :   1.0632
B(  9-C , 10-H ) :   0.9583 B(  9-C , 11-H ) :   0.9579 B(  9-C , 12-C ) :   1.0715
B( 12-C , 13-H ) :   0.9772 B( 12-C , 14-H ) :   0.9709 B( 12-C , 15-H ) :   0.9721
B( 16-S , 17-C ) :   1.1448 B( 16-S , 20-C ) :   1.1219 B( 17-C , 18-C ) :   1.6561
B( 17-C , 33-H ) :   0.9621 B( 18-C , 19-C ) :   1.2128 B( 18-C , 21-H ) :   0.9947
B( 19-C , 20-C ) :   1.6133 B( 19-C , 22-C ) :   1.0471 B( 22-C , 23-H ) :   0.9370
B( 22-C , 24-H ) :   0.9235 B( 22-C , 25-C ) :   1.0638 B( 25-C , 26-H ) :   0.9493
B( 25-C , 27-H ) :   0.9621 B( 25-C , 28-C ) :   1.0774 B( 28-C , 29-H ) :   0.9749
B( 28-C , 30-H ) :   0.9784 B( 28-C , 31-H ) :   0.9717

Dispersion correction           -0.014318428
FINAL SINGLE POINT ENERGY     -1339.868778614305

DIPOLE MOMENT
-------------
                                X             Y             Z
Electronic contribution:     18.59794       7.74089      -9.36008
Nuclear contribution   :    -19.07533      -7.69342       9.70546
                        -----------------------------------------
Total Dipole Moment    :     -0.47739       0.04748       0.34538
                        -----------------------------------------
Magnitude (a.u.)       :      0.59114
Magnitude (Debye)      :      1.50256

Rotational constants in cm-1:     0.018126     0.008637     0.007389
Rotational constants in MHz :   543.392905   258.924525   221.502049

                             ****ORCA TERMINATED NORMALLY****
TOTAL RUN TIME: 0 days 0 hours 0 minutes 21 seconds 638 msec
