                         Program Version 4.2.1 -  RELEASE  -
|  1> ! wB97X-D3 SP def2-SVP
|  2> %pal
|  3> nprocs 24
|  4> end
|  5>
|  6> * xyz 0 1
|  7> S 	 -40.5279 	 14.2731 	 31.3505
|  8> C 	 -40.137 	 15.7632 	 32.1614
|  9> C 	 -41.089 	 16.7323 	 32.0182
| 10> C 	 -42.1811 	 16.2818 	 31.1941
| 11> C 	 -42.1652 	 14.9238 	 31.0158
| 12> H 	 -43.0214 	 16.8441 	 30.873
| 13> C 	 -40.9602 	 18.1504 	 32.5951
| 14> H 	 -41.9381 	 18.5542 	 32.4488
| 15> H 	 -40.2204 	 18.7714 	 31.9817
| 16> C 	 -40.6241 	 18.2482 	 34.1019
| 17> H 	 -39.504 	 18.1901 	 34.2773
| 18> H 	 -40.8907 	 19.2196 	 34.4399
| 19> C 	 -41.394 	 17.1878 	 34.9466
| 20> H 	 -42.438 	 17.2334 	 34.7871
| 21> H 	 -40.9739 	 16.249 	 34.9536
| 22> H 	 -41.3325 	 17.4076 	 36.0031
| 23> S 	 -42.4786 	 13.613 	 28.6498
| 24> C 	 -44.0877 	 13.236 	 28.0273
| 25> C 	 -45.0813 	 13.646 	 28.8845
| 26> C 	 -44.5638 	 14.2749 	 30.0305
| 27> C 	 -43.1326 	 14.2263 	 30.1497
| 28> H 	 -46.1199 	 13.5303 	 28.5655
| 29> C 	 -45.449 	 14.8535 	 31.1293
| 30> H 	 -45.1316 	 15.8629 	 31.4283
| 31> H 	 -45.2521 	 14.1451 	 31.919
| 32> C 	 -46.9971 	 14.9166 	 30.9235
| 33> H 	 -47.4459 	 15.1068 	 31.881
| 34> H 	 -47.3115 	 13.9248 	 30.6092
| 35> C 	 -47.3043 	 16.1643 	 30.0537
| 36> H 	 -46.8069 	 17.0256 	 30.5223
| 37> H 	 -48.339 	 16.2942 	 29.8543
| 38> H 	 -46.8847 	 15.9847 	 29.0774
| 39> H 	 -39.1247 	 15.9801 	 32.577
| 40> H 	 -44.2797 	 12.7759 	 27.0694
| 41> *
| 42>
| 43>                          ****END OF INPUT****

CARTESIAN COORDINATES (ANGSTROEM)
---------------------------------
  S    -40.527900   14.273100   31.350500
  C    -40.137000   15.763200   32.161400
  C    -41.089000   16.732300   32.018200
  C    -42.181100   16.281800   31.194100
  C    -42.165200   14.923800   31.015800
  H    -43.021400   16.844100   30.873000
  C    -40.960200   18.150400   32.595100
  H    -41.938100   18.554200   32.448800
  H    -40.220400   18.771400   31.981700
  C    -40.624100   18.248200   34.101900
  H    -39.504000   18.190100   34.277300
  H    -40.890700   19.219600   34.439900
  C    -41.394000   17.187800   34.946600
  H    -42.438000   17.233400   34.787100
  H    -40.973900   16.249000   34.953600
  H    -41.332500   17.407600   36.003100
  S    -42.478600   13.613000   28.649800
  C    -44.087700   13.236000   28.027300
  C    -45.081300   13.646000   28.884500
  C    -44.563800   14.274900   30.030500
  C    -43.132600   14.226300   30.149700
  H    -46.119900   13.530300   28.565500
  C    -45.449000   14.853500   31.129300
  H    -45.131600   15.862900   31.428300
  H    -45.252100   14.145100   31.919000
  C    -46.997100   14.916600   30.923500
  H    -47.445900   15.106800   31.881000
  H    -47.311500   13.924800   30.609200
  C    -47.304300   16.164300   30.053700
  H    -46.806900   17.025600   30.522300
  H    -48.339000   16.294200   29.854300
  H    -46.884700   15.984700   29.077400
  H    -39.124700   15.980100   32.577000
  H    -44.279700   12.775900   27.069400

 Total Charge           Charge          ....    0
 Multiplicity           Mult            ....    1
 Number of Electrons    NEL             ....  134
 Basis Dimension        Dim             ....  322

ORBITAL ENERGIES
----------------

  NO   OCC          E(Eh)            E(eV)
   0   2.0000     -88.966099     -2420.8906
   1   2.0000     -88.963797     -2420.8280
   2   2.0000     -10.330569      -281.1091
   3   2.0000     -10.326955      -281.0107
   4   2.0000     -10.315831      -280.7080
   5   2.0000     -10.312751      -280.6242
   6   2.0000     -10.307634      -280.4850
   7   2.0000     -10.299443      -280.2621
   8   2.0000     -10.296982      -280.1951
   9   2.0000     -10.293305      -280.0951
  10   2.0000     -10.293200      -280.0922
  11   2.0000     -10.292587      -280.0755
  12   2.0000     -10.289002      -279.9780
  13   2.0000     -10.288185      -279.9558
  14   2.0000     -10.277009      -279.6516
  15   2.0000     -10.265546      -279.3397
  16   2.0000      -8.080371      -219.8781
  17   2.0000      -8.078212      -219.8193
  18   2.0000      -6.038917      -164.3273
  19   2.0000      -6.036658      -164.2658
  20   2.0000      -6.035193      -164.2260
  21   2.0000      -6.032667      -164.1572
  22   2.0000      -6.030872      -164.1084
  23   2.0000      -6.029150      -164.0615
  24   2.0000      -1.003412       -27.3042
  25   2.0000      -0.981413       -26.7056
  26   2.0000      -0.908170       -24.7126
  27   2.0000      -0.905164       -24.6308
  28   2.0000      -0.867715       -23.6117
  29   2.0000      -0.849420       -23.1139
  30   2.0000      -0.842358       -22.9217
  31   2.0000      -0.814027       -22.1508
  32   2.0000      -0.783982       -21.3332
  33   2.0000      -0.769700       -20.9446
  34   2.0000      -0.707362       -19.2483
  35   2.0000      -0.705199       -19.1895
  36   2.0000      -0.694087       -18.8871
  37   2.0000      -0.653952       -17.7949
  38   2.0000      -0.637256       -17.3406
  39   2.0000      -0.609907       -16.5964
  40   2.0000      -0.595409       -16.2019
  41   2.0000      -0.572567       -15.5804
  42   2.0000      -0.557975       -15.1833
  43   2.0000      -0.552874       -15.0445
  44   2.0000      -0.539967       -14.6932
  45   2.0000      -0.535369       -14.5681
  46   2.0000      -0.517182       -14.0732
  47   2.0000      -0.508391       -13.8340
  48   2.0000      -0.500281       -13.6134
  49   2.0000      -0.494586       -13.4584
  50   2.0000      -0.488256       -13.2861
  51   2.0000      -0.476380       -12.9630
  52   2.0000      -0.471374       -12.8267
  53   2.0000      -0.465267       -12.6606
  54   2.0000      -0.458171       -12.4675
  55   2.0000      -0.452488       -12.3128
  56   2.0000      -0.445322       -12.1178
  57   2.0000      -0.439486       -11.9590
  58   2.0000      -0.431425       -11.7397
  59   2.0000      -0.425812       -11.5869
  60   2.0000      -0.419535       -11.4161
  61   2.0000      -0.415024       -11.2934
  62   2.0000      -0.414339       -11.2747
  63   2.0000      -0.349861        -9.5202
  64   2.0000      -0.330168        -8.9843
  65   2.0000      -0.322240        -8.7686
  66   2.0000      -0.287755        -7.8302
  67   0.0000       0.025204         0.6858
  68   0.0000       0.066558         1.8111
  69   0.0000       0.104376         2.8402
  70   0.0000       0.126406         3.4397
  71   0.0000       0.130538         3.5521

MULLIKEN ATOMIC CHARGES
-----------------------
   0 S :    0.098103
   1 C :   -0.124580
   2 C :   -0.107999
   3 C :    0.037669
   4 C :   -0.147442
   5 H :    0.011555
   6 C :    0.075902
   7 H :    0.007594
   8 H :    0.056694
   9 C :   -0.083515
  10 H :    0.033567
  11 H :    0.022393
  12 C :    0.002736
  13 H :    0.022485
  14 H :    0.022227
  15 H :    0.011707
  16 S :    0.100069
  17 C :   -0.094717
  18 C :   -0.038083
  19 C :   -0.057664
  20 C :   -0.134103
  21 H :    0.028756
  22 C :    0.022420
  23 H :    0.018639
  24 H :    0.046190
  25 C :   -0.059298
  26 H :    0.026297
  27 H :    0.028592
  28 C :   -0.027069
  29 H :    0.034503
  30 H :    0.031032
  31 H :    0.021014
  32 H :    0.062579
  33 H :    0.051747
Sum of atomic charges:   -0.0000000

LOEWDIN ATOMIC CHARGES
----------------------
   0 S :    0.385111
   1 C :   -0.198825
   2 C :   -0.067365
   3 C :   -0.045812
   4 C :   -0.183812
   5 H :    0.026677
   6 C :   -0.034080
   7 H :    0.022455
   8 H :    0.042218
   9 C :   -0.037445
  10 H :    0.027287
  11 H :    0.020021
  12 C :   -0.058749
  13 H :    0.022743
  14 H :    0.017386
  15 H :    0.027029
  16 S :    0.407943
  17 C :   -0.178339
  18 C :   -0.082124
  19 C :   -0.054649
  20 C :   -0.207594
  21 H :    0.037365
  22 C :   -0.034042
  23 H :    0.024659
  24 H :    0.038143
  25 C :   -0.036557
  26 H :    0.023831
  27 H :    0.020473
  28 C :   -0.059649
  29 H :    0.029773
  30 H :    0.020113
  31 H :    0.022047
  32 H :    0.036374
  33 H :    0.027391

  Mayer bond orders larger than 0.100000
B(  0-S ,  1-C ) :   1.1320 B(  0-S ,  4-C ) :   1.1328 B(  1-C ,  2-C ) :   1.6351
B(  1-C , 32-H ) :   0.9597 B(  2-C ,  3-C ) :   1.2334 B(  2-C ,  6-C ) :   1.0107
B(  3-C ,  4-C ) :   1.5900 B(  3-C ,  5-H ) :   0.9883 B(  4-C , 20-C ) :   1.0375
B(  6-C ,  7-H ) :   0.9381 B(  6-C ,  8-H ) :   0.9405 B(  6-C ,  9-C ) :   1.0727
B(  9-C , 10-H ) :   0.9540 B(  9-C , 11-H ) :   0.9600 B(  9-C , 12-C ) :   1.0851
B( 12-C , 13-H ) :   0.9753 B( 12-C , 14-H ) :   0.9701 B( 12-C , 15-H ) :   0.9682
B( 16-S , 17-C ) :   1.1756 B( 16-S , 20-C ) :   1.1532 B( 17-C , 18-C ) :   1.5798
B( 17-C , 20-C ) :   0.1078 B( 17-C , 33-H ) :   0.9642 B( 18-C , 19-C ) :   1.2790
B( 18-C , 21-H ) :   0.9850 B( 19-C , 20-C ) :   1.5596 B( 19-C , 22-C ) :   1.0103
B( 22-C , 23-H ) :   0.9369 B( 22-C , 24-H ) :   0.9361 B( 22-C , 25-C ) :   1.0961
B( 25-C , 26-H ) :   0.9533 B( 25-C , 27-H ) :   0.9488 B( 25-C , 28-C ) :   1.0672
B( 28-C , 29-H ) :   0.9720 B( 28-C , 30-H ) :   0.9754 B( 28-C , 31-H ) :   0.9787

Dispersion correction           -0.014470148
FINAL SINGLE POINT ENERGY     -1339.862519268278

DIPOLE MOMENT
-------------
                                X             Y             Z
Electronic contribution:     14.87750     -17.19477     -14.86576
Nuclear contribution   :    -15.30920      17.77662      15.04758
                        -----------------------------------------
Total Dipole Moment    :     -0.43170       0.58185       0.18182
                        -----------------------------------------
Magnitude (a.u.)       :      0.74697
Magnitude (Debye)      :      1.89866

Rotational constants in cm-1:     0.019358     0.008636     0.006498
Rotational constants in MHz :   580.352466   258.900968   194.790174

                             ****ORCA TERMINATED NORMALLY****
TOTAL RUN TIME: 0 days 0 hours 0 minutes 21 seconds 818 msec
