                         Program Version 4.2.1 -  RELEASE  -
|  1> ! wB97X-D3 SP def2-SVP
|  2> %pal
|  3> nprocs 24
|  4> end
|  5>
|  6> * xyz 0 1
|  7> S 	 -117.589 	 48.1249 	 -113.638
|  8> C 	 -118.531 	 46.7108 	 -113.194
|  9> C 	 -117.741 	 45.7074 	 -112.789
| 10> C 	 -116.344 	 46.1379 	 -112.72
| 11> C 	 -116.08 	 47.4559 	 -113.124
| 12> H 	 -115.436 	 45.5645 	 -112.416
| 13> C 	 -118.213 	 44.3135 	 -112.498
| 14> H 	 -117.425 	 43.599 	 -112.548
| 15> H 	 -118.869 	 44.0423 	 -113.258
| 16> C 	 -119.026 	 44.0806 	 -111.222
| 17> H 	 -118.471 	 44.3026 	 -110.308
| 18> H 	 -119.958 	 44.6069 	 -111.312
| 19> C 	 -119.536 	 42.6874 	 -111.153
| 20> H 	 -120.061 	 42.5267 	 -110.196
| 21> H 	 -120.118 	 42.3608 	 -112.034
| 22> H 	 -118.568 	 41.9943 	 -111.23
| 23> S 	 -114.336 	 49.1413 	 -111.876
| 24> C 	 -112.767 	 49.3905 	 -112.677
| 25> C 	 -112.499 	 48.5247 	 -113.726
| 26> C 	 -113.656 	 47.7178 	 -113.996
| 27> C 	 -114.745 	 48.0737 	 -113.19
| 28> H 	 -111.5 	 48.5693 	 -114.29
| 29> C 	 -113.707 	 46.6118 	 -115.124
| 30> H 	 -114.633 	 46.1195 	 -115.185
| 31> H 	 -113.07 	 45.7974 	 -114.832
| 32> C 	 -113.253 	 47.0415 	 -116.571
| 33> H 	 -113.381 	 46.0972 	 -117.173
| 34> H 	 -112.128 	 47.1785 	 -116.5
| 35> C 	 -113.921 	 48.2671 	 -117.21
| 36> H 	 -115.001 	 48.1479 	 -117.371
| 37> H 	 -113.429 	 48.5476 	 -118.109
| 38> H 	 -113.633 	 49.0219 	 -116.556
| 39> H 	 -119.621 	 46.6747 	 -113.543
| 40> H 	 -112.013 	 50.0188 	 -112.294
| 41> *
| 42>
| 43>                          ****END OF INPUT****

CARTESIAN COORDINATES (ANGSTROEM)
---------------------------------
  S    -117.589000   48.124900  -113.638000
  C    -118.531000   46.710800  -113.194000
  C    -117.741000   45.707400  -112.789000
  C    -116.344000   46.137900  -112.720000
  C    -116.080000   47.455900  -113.124000
  H    -115.436000   45.564500  -112.416000
  C    -118.213000   44.313500  -112.498000
  H    -117.425000   43.599000  -112.548000
  H    -118.869000   44.042300  -113.258000
  C    -119.026000   44.080600  -111.222000
  H    -118.471000   44.302600  -110.308000
  H    -119.958000   44.606900  -111.312000
  C    -119.536000   42.687400  -111.153000
  H    -120.061000   42.526700  -110.196000
  H    -120.118000   42.360800  -112.034000
  H    -118.568000   41.994300  -111.230000
  S    -114.336000   49.141300  -111.876000
  C    -112.767000   49.390500  -112.677000
  C    -112.499000   48.524700  -113.726000
  C    -113.656000   47.717800  -113.996000
  C    -114.745000   48.073700  -113.190000
  H    -111.500000   48.569300  -114.290000
  C    -113.707000   46.611800  -115.124000
  H    -114.633000   46.119500  -115.185000
  H    -113.070000   45.797400  -114.832000
  C    -113.253000   47.041500  -116.571000
  H    -113.381000   46.097200  -117.173000
  H    -112.128000   47.178500  -116.500000
  C    -113.921000   48.267100  -117.210000
  H    -115.001000   48.147900  -117.371000
  H    -113.429000   48.547600  -118.109000
  H    -113.633000   49.021900  -116.556000
  H    -119.621000   46.674700  -113.543000
  H    -112.013000   50.018800  -112.294000

 Total Charge           Charge          ....    0
 Multiplicity           Mult            ....    1
 Number of Electrons    NEL             ....  134
 Basis Dimension        Dim             ....  322

ORBITAL ENERGIES
----------------

  NO   OCC          E(Eh)            E(eV)
   0   2.0000     -88.969690     -2420.9883
   1   2.0000     -88.960279     -2420.7323
   2   2.0000     -10.328064      -281.0409
   3   2.0000     -10.326981      -281.0114
   4   2.0000     -10.318027      -280.7678
   5   2.0000     -10.316270      -280.7200
   6   2.0000     -10.312432      -280.6155
   7   2.0000     -10.305346      -280.4227
   8   2.0000     -10.301714      -280.3239
   9   2.0000     -10.298043      -280.2240
  10   2.0000     -10.294816      -280.1362
  11   2.0000     -10.290563      -280.0204
  12   2.0000     -10.287559      -279.9387
  13   2.0000     -10.283585      -279.8306
  14   2.0000     -10.280941      -279.7586
  15   2.0000     -10.267826      -279.4017
  16   2.0000      -8.084119      -219.9801
  17   2.0000      -8.075497      -219.7455
  18   2.0000      -6.042519      -164.4253
  19   2.0000      -6.038930      -164.3276
  20   2.0000      -6.034746      -164.2138
  21   2.0000      -6.034033      -164.1944
  22   2.0000      -6.029800      -164.0792
  23   2.0000      -6.026325      -163.9846
  24   2.0000      -1.003976       -27.3196
  25   2.0000      -0.983261       -26.7559
  26   2.0000      -0.921057       -25.0632
  27   2.0000      -0.897794       -24.4302
  28   2.0000      -0.872345       -23.7377
  29   2.0000      -0.846592       -23.0369
  30   2.0000      -0.844798       -22.9881
  31   2.0000      -0.810719       -22.0608
  32   2.0000      -0.786230       -21.3944
  33   2.0000      -0.774505       -21.0753
  34   2.0000      -0.698679       -19.0120
  35   2.0000      -0.693046       -18.8587
  36   2.0000      -0.687868       -18.7179
  37   2.0000      -0.652639       -17.7592
  38   2.0000      -0.642651       -17.4874
  39   2.0000      -0.612612       -16.6700
  40   2.0000      -0.595562       -16.2061
  41   2.0000      -0.578616       -15.7449
  42   2.0000      -0.564490       -15.3605
  43   2.0000      -0.547460       -14.8972
  44   2.0000      -0.538244       -14.6464
  45   2.0000      -0.528626       -14.3846
  46   2.0000      -0.516574       -14.0567
  47   2.0000      -0.511223       -13.9111
  48   2.0000      -0.503734       -13.7073
  49   2.0000      -0.491420       -13.3722
  50   2.0000      -0.485140       -13.2013
  51   2.0000      -0.477829       -13.0024
  52   2.0000      -0.469751       -12.7826
  53   2.0000      -0.464738       -12.6462
  54   2.0000      -0.457919       -12.4606
  55   2.0000      -0.451152       -12.2765
  56   2.0000      -0.443319       -12.0633
  57   2.0000      -0.437097       -11.8940
  58   2.0000      -0.435900       -11.8614
  59   2.0000      -0.418419       -11.3858
  60   2.0000      -0.417440       -11.3591
  61   2.0000      -0.411852       -11.2071
  62   2.0000      -0.409774       -11.1505
  63   2.0000      -0.339972        -9.2511
  64   2.0000      -0.329055        -8.9541
  65   2.0000      -0.322361        -8.7719
  66   2.0000      -0.307209        -8.3596
  67   0.0000       0.039833         1.0839
  68   0.0000       0.059951         1.6313
  69   0.0000       0.105456         2.8696
  70   0.0000       0.118412         3.2221
  71   0.0000       0.129526         3.5246

MULLIKEN ATOMIC CHARGES
-----------------------
   0 S :    0.100307
   1 C :   -0.166459
   2 C :   -0.048835
   3 C :    0.018987
   4 C :   -0.175761
   5 H :    0.024746
   6 C :    0.103586
   7 H :    0.003633
   8 H :   -0.001201
   9 C :   -0.042499
  10 H :    0.040009
  11 H :    0.020860
  12 C :   -0.097302
  13 H :    0.051394
  14 H :    0.035633
  15 H :    0.024284
  16 S :    0.122499
  17 C :   -0.073819
  18 C :   -0.069301
  19 C :   -0.024713
  20 C :   -0.186376
  21 H :    0.058268
  22 C :    0.103709
  23 H :    0.013228
  24 H :    0.025265
  25 C :   -0.151335
  26 H :    0.034150
  27 H :    0.029603
  28 C :    0.021461
  29 H :    0.047892
  30 H :    0.019962
  31 H :    0.018284
  32 H :    0.082015
  33 H :    0.037826
Sum of atomic charges:    0.0000000

LOEWDIN ATOMIC CHARGES
----------------------
   0 S :    0.406361
   1 C :   -0.201193
   2 C :   -0.068778
   3 C :   -0.068209
   4 C :   -0.215535
   5 H :    0.035478
   6 C :   -0.025643
   7 H :    0.024241
   8 H :    0.024889
   9 C :   -0.039646
  10 H :    0.027775
  11 H :    0.023220
  12 C :   -0.072648
  13 H :    0.030686
  14 H :    0.023729
  15 H :    0.027930
  16 S :    0.406939
  17 C :   -0.166251
  18 C :   -0.079664
  19 C :   -0.047487
  20 C :   -0.207485
  21 H :    0.050779
  22 C :   -0.027716
  23 H :    0.021332
  24 H :    0.032529
  25 C :   -0.045672
  26 H :    0.025665
  27 H :    0.023320
  28 C :   -0.059419
  29 H :    0.032456
  30 H :    0.024464
  31 H :    0.021323
  32 H :    0.045520
  33 H :    0.016711

  Mayer bond orders larger than 0.100000
B(  0-S ,  1-C ) :   1.1407 B(  0-S ,  4-C ) :   1.1590 B(  1-C ,  2-C ) :   1.6181
B(  1-C , 32-H ) :   0.9584 B(  2-C ,  3-C ) :   1.2235 B(  2-C ,  6-C ) :   1.0240
B(  3-C ,  4-C ) :   1.5821 B(  3-C ,  5-H ) :   0.9908 B(  4-C , 20-C ) :   1.0090
B(  6-C ,  7-H ) :   0.9383 B(  6-C ,  8-H ) :   0.9298 B(  6-C ,  9-C ) :   1.0788
B(  9-C , 10-H ) :   0.9547 B(  9-C , 11-H ) :   0.9476 B(  9-C , 12-C ) :   1.0853
B( 12-C , 13-H ) :   0.9716 B( 12-C , 14-H ) :   0.9723 B( 12-C , 15-H ) :   0.9701
B( 16-S , 17-C ) :   1.1476 B( 16-S , 20-C ) :   1.1515 B( 17-C , 18-C ) :   1.6374
B( 17-C , 33-H ) :   0.9699 B( 18-C , 19-C ) :   1.2191 B( 18-C , 21-H ) :   0.9750
B( 19-C , 20-C ) :   1.6188 B( 19-C , 22-C ) :   1.0239 B( 22-C , 23-H ) :   0.9354
B( 22-C , 24-H ) :   0.9358 B( 22-C , 25-C ) :   1.0690 B( 25-C , 26-H ) :   0.9555
B( 25-C , 27-H ) :   0.9567 B( 25-C , 28-C ) :   1.0705 B( 28-C , 29-H ) :   0.9760
B( 28-C , 30-H ) :   0.9689 B( 28-C , 31-H ) :   0.9680

Dispersion correction           -0.014056243
FINAL SINGLE POINT ENERGY     -1339.858620100691

DIPOLE MOMENT
-------------
                                X             Y             Z
Electronic contribution:      2.96161      20.43866       8.22895
Nuclear contribution   :     -2.78097     -21.00157      -8.44566
                        -----------------------------------------
Total Dipole Moment    :      0.18064      -0.56291      -0.21671
                        -----------------------------------------
Magnitude (a.u.)       :      0.62965
Magnitude (Debye)      :      1.60045

Rotational constants in cm-1:     0.021378     0.007103     0.006443
Rotational constants in MHz :   640.902876   212.946288   193.164146

                             ****ORCA TERMINATED NORMALLY****
TOTAL RUN TIME: 0 days 0 hours 0 minutes 21 seconds 46 msec
