                         Program Version 4.2.1 -  RELEASE  -
|  1> ! wB97X-D3 SP def2-SVP
|  2> %pal
|  3> nprocs 24
|  4> end
|  5>
|  6> * xyz 0 1
|  7> S 	 -141.27 	 7.92748 	 2.78836
|  8> C 	 -140.185 	 7.35821 	 1.54539
|  9> C 	 -138.922 	 7.36263 	 2.00184
| 10> C 	 -138.792 	 7.74937 	 3.3519
| 11> C 	 -140.005 	 8.09771 	 3.99497
| 12> H 	 -137.809 	 7.71076 	 3.90741
| 13> C 	 -137.829 	 6.91575 	 1.10082
| 14> H 	 -138.065 	 7.07366 	 -0.000779546
| 15> H 	 -137.62 	 5.90382 	 1.32664
| 16> C 	 -136.532 	 7.77008 	 1.34767
| 17> H 	 -136.727 	 8.84316 	 1.40334
| 18> H 	 -136.315 	 7.50409 	 2.35018
| 19> C 	 -135.386 	 7.38558 	 0.382355
| 20> H 	 -135.127 	 6.33358 	 0.594052
| 21> H 	 -135.612 	 7.38347 	 -0.705705
| 22> H 	 -134.483 	 7.92346 	 0.600756
| 23> S 	 -141.407 	 9.97917 	 5.68215
| 24> C 	 -140.96 	 10.0938 	 7.38695
| 25> C 	 -140.264 	 8.9755 	 7.77745
| 26> C 	 -139.734 	 8.23841 	 6.65548
| 27> C 	 -140.208 	 8.62515 	 5.38553
| 28> H 	 -140.024 	 8.94616 	 8.85914
| 29> C 	 -138.624 	 7.1769 	 6.93467
| 30> H 	 -138.267 	 7.22904 	 7.97116
| 31> H 	 -137.789 	 7.40494 	 6.29313
| 32> C 	 -139.033 	 5.6494 	 6.79739
| 33> H 	 -139.487 	 5.56635 	 5.7594
| 34> H 	 -139.77 	 5.25931 	 7.48027
| 35> C 	 -137.776 	 4.70547 	 6.76697
| 36> H 	 -137.037 	 5.24808 	 6.15985
| 37> H 	 -137.922 	 3.70686 	 6.32559
| 38> H 	 -137.269 	 4.64464 	 7.69126
| 39> H 	 -140.508 	 7.20346 	 0.534679
| 40> H 	 -141.364 	 10.8392 	 8.0641
| 41> *
| 42>
| 43>                          ****END OF INPUT****

CARTESIAN COORDINATES (ANGSTROEM)
---------------------------------
  S    -141.270000    7.927480    2.788360
  C    -140.185000    7.358210    1.545390
  C    -138.922000    7.362630    2.001840
  C    -138.792000    7.749370    3.351900
  C    -140.005000    8.097710    3.994970
  H    -137.809000    7.710760    3.907410
  C    -137.829000    6.915750    1.100820
  H    -138.065000    7.073660   -0.000780
  H    -137.620000    5.903820    1.326640
  C    -136.532000    7.770080    1.347670
  H    -136.727000    8.843160    1.403340
  H    -136.315000    7.504090    2.350180
  C    -135.386000    7.385580    0.382355
  H    -135.127000    6.333580    0.594052
  H    -135.612000    7.383470   -0.705705
  H    -134.483000    7.923460    0.600756
  S    -141.407000    9.979170    5.682150
  C    -140.960000   10.093800    7.386950
  C    -140.264000    8.975500    7.777450
  C    -139.734000    8.238410    6.655480
  C    -140.208000    8.625150    5.385530
  H    -140.024000    8.946160    8.859140
  C    -138.624000    7.176900    6.934670
  H    -138.267000    7.229040    7.971160
  H    -137.789000    7.404940    6.293130
  C    -139.033000    5.649400    6.797390
  H    -139.487000    5.566350    5.759400
  H    -139.770000    5.259310    7.480270
  C    -137.776000    4.705470    6.766970
  H    -137.037000    5.248080    6.159850
  H    -137.922000    3.706860    6.325590
  H    -137.269000    4.644640    7.691260
  H    -140.508000    7.203460    0.534679
  H    -141.364000   10.839200    8.064100

 Total Charge           Charge          ....    0
 Multiplicity           Mult            ....    1
 Number of Electrons    NEL             ....  134
 Basis Dimension        Dim             ....  322

ORBITAL ENERGIES
----------------

  NO   OCC          E(Eh)            E(eV)
   0   2.0000     -88.965718     -2420.8803
   1   2.0000     -88.965306     -2420.8691
   2   2.0000     -10.344880      -281.4985
   3   2.0000     -10.343998      -281.4745
   4   2.0000     -10.323167      -280.9076
   5   2.0000     -10.318303      -280.7753
   6   2.0000     -10.308590      -280.5110
   7   2.0000     -10.302889      -280.3559
   8   2.0000     -10.300993      -280.3043
   9   2.0000     -10.300010      -280.2775
  10   2.0000     -10.294295      -280.1220
  11   2.0000     -10.292930      -280.0849
  12   2.0000     -10.292220      -280.0655
  13   2.0000     -10.286071      -279.8982
  14   2.0000     -10.282400      -279.7983
  15   2.0000     -10.277724      -279.6711
  16   2.0000      -8.080444      -219.8801
  17   2.0000      -8.078783      -219.8349
  18   2.0000      -6.039016      -164.3300
  19   2.0000      -6.037456      -164.2875
  20   2.0000      -6.034777      -164.2146
  21   2.0000      -6.033561      -164.1815
  22   2.0000      -6.031304      -164.1201
  23   2.0000      -6.029321      -164.0662
  24   2.0000      -1.003547       -27.3079
  25   2.0000      -0.982045       -26.7228
  26   2.0000      -0.912670       -24.8350
  27   2.0000      -0.895877       -24.3780
  28   2.0000      -0.868175       -23.6243
  29   2.0000      -0.845714       -23.0131
  30   2.0000      -0.840775       -22.8786
  31   2.0000      -0.817482       -22.2448
  32   2.0000      -0.779529       -21.2121
  33   2.0000      -0.770678       -20.9712
  34   2.0000      -0.716308       -19.4917
  35   2.0000      -0.698401       -19.0044
  36   2.0000      -0.690229       -18.7821
  37   2.0000      -0.656489       -17.8640
  38   2.0000      -0.639543       -17.4029
  39   2.0000      -0.622012       -16.9258
  40   2.0000      -0.591462       -16.0945
  41   2.0000      -0.573785       -15.6135
  42   2.0000      -0.566429       -15.4133
  43   2.0000      -0.558313       -15.1925
  44   2.0000      -0.525071       -14.2879
  45   2.0000      -0.520384       -14.1604
  46   2.0000      -0.511701       -13.9241
  47   2.0000      -0.507531       -13.8106
  48   2.0000      -0.506710       -13.7883
  49   2.0000      -0.502347       -13.6696
  50   2.0000      -0.493805       -13.4371
  51   2.0000      -0.486640       -13.2422
  52   2.0000      -0.477958       -13.0059
  53   2.0000      -0.466075       -12.6825
  54   2.0000      -0.459250       -12.4968
  55   2.0000      -0.451262       -12.2795
  56   2.0000      -0.440423       -11.9845
  57   2.0000      -0.435714       -11.8564
  58   2.0000      -0.433723       -11.8022
  59   2.0000      -0.422737       -11.5033
  60   2.0000      -0.415399       -11.3036
  61   2.0000      -0.410317       -11.1653
  62   2.0000      -0.403967       -10.9925
  63   2.0000      -0.354289        -9.6407
  64   2.0000      -0.332701        -9.0533
  65   2.0000      -0.329484        -8.9657
  66   2.0000      -0.291632        -7.9357
  67   0.0000       0.020437         0.5561
  68   0.0000       0.064342         1.7508
  69   0.0000       0.112636         3.0650
  70   0.0000       0.118076         3.2130
  71   0.0000       0.130872         3.5612

MULLIKEN ATOMIC CHARGES
-----------------------
   0 S :    0.101797
   1 C :   -0.131588
   2 C :   -0.058198
   3 C :   -0.009296
   4 C :   -0.131900
   5 H :    0.032707
   6 C :    0.055719
   7 H :    0.037031
   8 H :    0.036215
   9 C :   -0.112559
  10 H :    0.041143
  11 H :    0.015624
  12 C :   -0.026210
  13 H :    0.018065
  14 H :    0.040915
  15 H :    0.033696
  16 S :    0.081724
  17 C :   -0.103807
  18 C :   -0.032596
  19 C :   -0.032707
  20 C :   -0.129993
  21 H :    0.041011
  22 C :    0.046695
  23 H :    0.023536
  24 H :    0.027953
  25 C :   -0.096029
  26 H :    0.044356
  27 H :    0.038508
  28 C :   -0.044144
  29 H :    0.009377
  30 H :    0.049231
  31 H :    0.020505
  32 H :    0.045953
  33 H :    0.067264
Sum of atomic charges:   -0.0000000

LOEWDIN ATOMIC CHARGES
----------------------
   0 S :    0.407295
   1 C :   -0.190218
   2 C :   -0.075199
   3 C :   -0.076433
   4 C :   -0.187787
   5 H :    0.036973
   6 C :   -0.022949
   7 H :    0.035399
   8 H :    0.027793
   9 C :   -0.039816
  10 H :    0.025245
  11 H :    0.014335
  12 C :   -0.068986
  13 H :    0.027253
  14 H :    0.029000
  15 H :    0.024557
  16 S :    0.362085
  17 C :   -0.168840
  18 C :   -0.079712
  19 C :   -0.047745
  20 C :   -0.174578
  21 H :    0.041892
  22 C :   -0.028451
  23 H :    0.029811
  24 H :    0.025907
  25 C :   -0.040252
  26 H :    0.031077
  27 H :    0.020847
  28 C :   -0.069342
  29 H :    0.022978
  30 H :    0.031359
  31 H :    0.015650
  32 H :    0.028402
  33 H :    0.032450

  Mayer bond orders larger than 0.100000
B(  0-S ,  1-C ) :   1.1349 B(  0-S ,  4-C ) :   1.1696 B(  1-C ,  2-C ) :   1.5990
B(  1-C , 32-H ) :   0.9764 B(  2-C ,  3-C ) :   1.2698 B(  2-C ,  6-C ) :   1.0210
B(  3-C ,  4-C ) :   1.5295 B(  3-C ,  5-H ) :   0.9807 B(  4-C , 20-C ) :   1.0616
B(  6-C ,  7-H ) :   0.9528 B(  6-C ,  8-H ) :   0.9343 B(  6-C ,  9-C ) :   1.0499
B(  9-C , 10-H ) :   0.9679 B(  9-C , 11-H ) :   0.9483 B(  9-C , 12-C ) :   1.0820
B( 12-C , 13-H ) :   0.9699 B( 12-C , 14-H ) :   0.9768 B( 12-C , 15-H ) :   0.9736
B( 16-S , 17-C ) :   1.1536 B( 16-S , 20-C ) :   1.1087 B( 17-C , 18-C ) :   1.6336
B( 17-C , 33-H ) :   0.9639 B( 18-C , 19-C ) :   1.2273 B( 18-C , 21-H ) :   0.9813
B( 19-C , 20-C ) :   1.6015 B( 19-C , 22-C ) :   1.0292 B( 22-C , 23-H ) :   0.9434
B( 22-C , 24-H ) :   0.9443 B( 22-C , 25-C ) :   1.0470 B( 25-C , 26-H ) :   0.9609
B( 25-C , 27-H ) :   0.9624 B( 25-C , 28-C ) :   1.0657 B( 28-C , 29-H ) :   0.9734
B( 28-C , 30-H ) :   0.9763 B( 28-C , 31-H ) :   0.9772

Dispersion correction           -0.013755729
FINAL SINGLE POINT ENERGY     -1339.863492240591

DIPOLE MOMENT
-------------
                                X             Y             Z
Electronic contribution:    -26.27464      15.91661       3.30930
Nuclear contribution   :     26.90917     -16.18242      -3.13423
                        -----------------------------------------
Total Dipole Moment    :      0.63453      -0.26581       0.17508
                        -----------------------------------------
Magnitude (a.u.)       :      0.70988
Magnitude (Debye)      :      1.80438

Rotational constants in cm-1:     0.016959     0.008487     0.006703
Rotational constants in MHz :   508.420323   254.442458   200.962889

                             ****ORCA TERMINATED NORMALLY****
TOTAL RUN TIME: 0 days 0 hours 0 minutes 21 seconds 300 msec
