                         Program Version 4.2.1 -  RELEASE  -
|  1> ! wB97X-D3 SP def2-SVP
|  2> %pal
|  3> nprocs 24
|  4> end
|  5>
|  6> * xyz 0 1
|  7> S 	 -47.1071 	 11.5243 	 26.1591
|  8> C 	 -46.5062 	 12.2814 	 24.7089
|  9> C 	 -47.4453 	 13.1484 	 24.1462
| 10> C 	 -48.6458 	 13.211 	 24.9388
| 11> C 	 -48.5447 	 12.4888 	 26.1521
| 12> H 	 -49.5894 	 13.7745 	 24.7248
| 13> C 	 -47.3391 	 13.793 	 22.8364
| 14> H 	 -48.2815 	 14.166 	 22.5249
| 15> H 	 -47.1844 	 13.0045 	 22.1309
| 16> C 	 -46.2791 	 14.8849 	 22.6741
| 17> H 	 -45.2614 	 14.5851 	 22.989
| 18> H 	 -46.1791 	 15.1594 	 21.6522
| 19> C 	 -46.7589 	 16.2098 	 23.33
| 20> H 	 -47.1044 	 16.1679 	 24.3248
| 21> H 	 -45.8659 	 16.8389 	 23.339
| 22> H 	 -47.5033 	 16.7629 	 22.6707
| 23> S 	 -50.3312 	 10.7467 	 27.1033
| 24> C 	 -51.5553 	 11.2898 	 28.2322
| 25> C 	 -51.3796 	 12.657 	 28.5344
| 26> C 	 -50.3061 	 13.3023 	 27.863
| 27> C 	 -49.593 	 12.3519 	 27.1046
| 28> H 	 -52.0213 	 13.1293 	 29.2177
| 29> C 	 -49.9784 	 14.7711 	 27.968
| 30> H 	 -50.9183 	 15.3549 	 27.8829
| 31> H 	 -49.4615 	 15.0462 	 27.0983
| 32> C 	 -48.982 	 15.2799 	 29.0509
| 33> H 	 -48.7772 	 16.2945 	 28.7865
| 34> H 	 -47.9752 	 14.7444 	 28.9534
| 35> C 	 -49.5324 	 15.3065 	 30.441
| 36> H 	 -50.4626 	 15.8855 	 30.3882
| 37> H 	 -48.8586 	 15.7488 	 31.1694
| 38> H 	 -49.6736 	 14.2575 	 30.7302
| 39> H 	 -45.6556 	 11.9962 	 24.1295
| 40> H 	 -52.3051 	 10.6297 	 28.7185
| 41> *
| 42>
| 43>                          ****END OF INPUT****

CARTESIAN COORDINATES (ANGSTROEM)
---------------------------------
  S    -47.107100   11.524300   26.159100
  C    -46.506200   12.281400   24.708900
  C    -47.445300   13.148400   24.146200
  C    -48.645800   13.211000   24.938800
  C    -48.544700   12.488800   26.152100
  H    -49.589400   13.774500   24.724800
  C    -47.339100   13.793000   22.836400
  H    -48.281500   14.166000   22.524900
  H    -47.184400   13.004500   22.130900
  C    -46.279100   14.884900   22.674100
  H    -45.261400   14.585100   22.989000
  H    -46.179100   15.159400   21.652200
  C    -46.758900   16.209800   23.330000
  H    -47.104400   16.167900   24.324800
  H    -45.865900   16.838900   23.339000
  H    -47.503300   16.762900   22.670700
  S    -50.331200   10.746700   27.103300
  C    -51.555300   11.289800   28.232200
  C    -51.379600   12.657000   28.534400
  C    -50.306100   13.302300   27.863000
  C    -49.593000   12.351900   27.104600
  H    -52.021300   13.129300   29.217700
  C    -49.978400   14.771100   27.968000
  H    -50.918300   15.354900   27.882900
  H    -49.461500   15.046200   27.098300
  C    -48.982000   15.279900   29.050900
  H    -48.777200   16.294500   28.786500
  H    -47.975200   14.744400   28.953400
  C    -49.532400   15.306500   30.441000
  H    -50.462600   15.885500   30.388200
  H    -48.858600   15.748800   31.169400
  H    -49.673600   14.257500   30.730200
  H    -45.655600   11.996200   24.129500
  H    -52.305100   10.629700   28.718500

 Total Charge           Charge          ....    0
 Multiplicity           Mult            ....    1
 Number of Electrons    NEL             ....  134
 Basis Dimension        Dim             ....  322

ORBITAL ENERGIES
----------------

  NO   OCC          E(Eh)            E(eV)
   0   2.0000     -88.969254     -2420.9765
   1   2.0000     -88.966861     -2420.9114
   2   2.0000     -10.324686      -280.9490
   3   2.0000     -10.324378      -280.9406
   4   2.0000     -10.321162      -280.8531
   5   2.0000     -10.310118      -280.5526
   6   2.0000     -10.305988      -280.4402
   7   2.0000     -10.298975      -280.2494
   8   2.0000     -10.298201      -280.2283
   9   2.0000     -10.291974      -280.0588
  10   2.0000     -10.289194      -279.9832
  11   2.0000     -10.287715      -279.9430
  12   2.0000     -10.285540      -279.8838
  13   2.0000     -10.281429      -279.7719
  14   2.0000     -10.277537      -279.6660
  15   2.0000     -10.272268      -279.5226
  16   2.0000      -8.083932      -219.9750
  17   2.0000      -8.081233      -219.9015
  18   2.0000      -6.042352      -164.4207
  19   2.0000      -6.039626      -164.3466
  20   2.0000      -6.038373      -164.3125
  21   2.0000      -6.035777      -164.2418
  22   2.0000      -6.034873      -164.2173
  23   2.0000      -6.032141      -164.1429
  24   2.0000      -1.005423       -27.3589
  25   2.0000      -0.979393       -26.6506
  26   2.0000      -0.916627       -24.9427
  27   2.0000      -0.908827       -24.7304
  28   2.0000      -0.867780       -23.6135
  29   2.0000      -0.853591       -23.2274
  30   2.0000      -0.846471       -23.0336
  31   2.0000      -0.807938       -21.9851
  32   2.0000      -0.786384       -21.3986
  33   2.0000      -0.771850       -21.0031
  34   2.0000      -0.708318       -19.2743
  35   2.0000      -0.704371       -19.1669
  36   2.0000      -0.685196       -18.6451
  37   2.0000      -0.662888       -18.0381
  38   2.0000      -0.637840       -17.3565
  39   2.0000      -0.607171       -16.5220
  40   2.0000      -0.592177       -16.1140
  41   2.0000      -0.575067       -15.6484
  42   2.0000      -0.554658       -15.0930
  43   2.0000      -0.553174       -15.0526
  44   2.0000      -0.547112       -14.8877
  45   2.0000      -0.537225       -14.6186
  46   2.0000      -0.519129       -14.1262
  47   2.0000      -0.508035       -13.8243
  48   2.0000      -0.504744       -13.7348
  49   2.0000      -0.492761       -13.4087
  50   2.0000      -0.485218       -13.2034
  51   2.0000      -0.480730       -13.0813
  52   2.0000      -0.471423       -12.8281
  53   2.0000      -0.469004       -12.7622
  54   2.0000      -0.459315       -12.4986
  55   2.0000      -0.442234       -12.0338
  56   2.0000      -0.439343       -11.9551
  57   2.0000      -0.433214       -11.7883
  58   2.0000      -0.430844       -11.7239
  59   2.0000      -0.425843       -11.5878
  60   2.0000      -0.423389       -11.5210
  61   2.0000      -0.419665       -11.4197
  62   2.0000      -0.415952       -11.3186
  63   2.0000      -0.337925        -9.1954
  64   2.0000      -0.329848        -8.9756
  65   2.0000      -0.325563        -8.8590
  66   2.0000      -0.291255        -7.9255
  67   0.0000       0.028838         0.7847
  68   0.0000       0.060979         1.6593
  69   0.0000       0.112611         3.0643
  70   0.0000       0.118027         3.2117
  71   0.0000       0.128063         3.4848

MULLIKEN ATOMIC CHARGES
-----------------------
   0 S :    0.125887
   1 C :   -0.099570
   2 C :   -0.103351
   3 C :    0.027375
   4 C :   -0.189563
   5 H :    0.036016
   6 C :    0.103616
   7 H :   -0.003890
   8 H :    0.022057
   9 C :   -0.052096
  10 H :    0.031915
  11 H :    0.018774
  12 C :   -0.071425
  13 H :    0.035178
  14 H :    0.027365
  15 H :    0.038055
  16 S :    0.114997
  17 C :   -0.109285
  18 C :   -0.027282
  19 C :   -0.015003
  20 C :   -0.174623
  21 H :   -0.003307
  22 C :    0.083105
  23 H :    0.029861
  24 H :   -0.001281
  25 C :   -0.078560
  26 H :    0.017111
  27 H :    0.044283
  28 C :   -0.034270
  29 H :    0.026719
  30 H :    0.035075
  31 H :    0.036728
  32 H :    0.036391
  33 H :    0.072997
Sum of atomic charges:   -0.0000000

LOEWDIN ATOMIC CHARGES
----------------------
   0 S :    0.427065
   1 C :   -0.204959
   2 C :   -0.060614
   3 C :   -0.063114
   4 C :   -0.218418
   5 H :    0.039249
   6 C :   -0.034971
   7 H :    0.026015
   8 H :    0.031830
   9 C :   -0.032695
  10 H :    0.024596
  11 H :    0.022246
  12 C :   -0.066039
  13 H :    0.016050
  14 H :    0.027009
  15 H :    0.031456
  16 S :    0.409185
  17 C :   -0.196400
  18 C :   -0.065350
  19 C :   -0.051537
  20 C :   -0.196448
  21 H :    0.020719
  22 C :   -0.033848
  23 H :    0.036030
  24 H :    0.026233
  25 C :   -0.037907
  26 H :    0.018527
  27 H :    0.034670
  28 C :   -0.068800
  29 H :    0.026121
  30 H :    0.025399
  31 H :    0.027360
  32 H :    0.024249
  33 H :    0.037090

  Mayer bond orders larger than 0.100000
B(  0-S ,  1-C ) :   1.1442 B(  0-S ,  4-C ) :   1.1683 B(  1-C ,  2-C ) :   1.5843
B(  1-C ,  4-C ) :   0.1012 B(  1-C , 32-H ) :   0.9682 B(  2-C ,  3-C ) :   1.2646
B(  2-C ,  6-C ) :   1.0315 B(  3-C ,  4-C ) :   1.5311 B(  3-C ,  5-H ) :   0.9821
B(  4-C , 20-C ) :   1.0453 B(  6-C ,  7-H ) :   0.9352 B(  6-C ,  8-H ) :   0.9267
B(  6-C ,  9-C ) :   1.0785 B(  9-C , 10-H ) :   0.9626 B(  9-C , 11-H ) :   0.9515
B(  9-C , 12-C ) :   1.0672 B( 12-C , 13-H ) :   0.9821 B( 12-C , 14-H ) :   0.9737
B( 12-C , 15-H ) :   0.9765 B( 16-S , 17-C ) :   1.1562 B( 16-S , 20-C ) :   1.1628
B( 17-C , 18-C ) :   1.5835 B( 17-C , 20-C ) :   0.1119 B( 17-C , 33-H ) :   0.9645
B( 18-C , 19-C ) :   1.2503 B( 18-C , 21-H ) :   0.9980 B( 19-C , 20-C ) :   1.5637
B( 19-C , 22-C ) :   1.0505 B( 22-C , 23-H ) :   0.9322 B( 22-C , 24-H ) :   0.9143
B( 22-C , 25-C ) :   1.0783 B( 25-C , 26-H ) :   0.9515 B( 25-C , 27-H ) :   0.9518
B( 25-C , 28-C ) :   1.0859 B( 28-C , 29-H ) :   0.9710 B( 28-C , 30-H ) :   0.9717
B( 28-C , 31-H ) :   0.9757

Dispersion correction           -0.014433738
FINAL SINGLE POINT ENERGY     -1339.875782074405

DIPOLE MOMENT
-------------
                                X             Y             Z
Electronic contribution:     -4.09030     -26.08836       2.67741
Nuclear contribution   :      3.99320      26.61518      -2.98325
                        -----------------------------------------
Total Dipole Moment    :     -0.09711       0.52682      -0.30584
                        -----------------------------------------
Magnitude (a.u.)       :      0.61685
Magnitude (Debye)      :      1.56791

Rotational constants in cm-1:     0.018800     0.008737     0.006929
Rotational constants in MHz :   563.597378   261.929249   207.736473

                             ****ORCA TERMINATED NORMALLY****
TOTAL RUN TIME: 0 days 0 hours 0 minutes 20 seconds 454 msec
