                         Program Version 4.2.1 -  RELEASE  -
|  1> ! wB97X-D3 SP def2-SVP
|  2> %pal
|  3> nprocs 24
|  4> end
|  5>
|  6> * xyz 0 1
|  7> S 	 -138.567 	 4.81377 	 3.87522
|  8> C 	 -138.804 	 4.97269 	 2.14455
|  9> C 	 -137.764 	 5.66129 	 1.58259
| 10> C 	 -136.817 	 6.13526 	 2.57097
| 11> C 	 -137.222 	 5.79339 	 3.82753
| 12> H 	 -135.878 	 6.59389 	 2.29125
| 13> C 	 -137.622 	 5.9993 	 0.0973365
| 14> H 	 -137.846 	 5.09928 	 -0.448208
| 15> H 	 -136.559 	 6.1319 	 -0.0810622
| 16> C 	 -138.462 	 7.22749 	 -0.438982
| 17> H 	 -137.912 	 7.68071 	 -1.25592
| 18> H 	 -139.512 	 6.96467 	 -0.672046
| 19> C 	 -138.465 	 8.36438 	 0.58232
| 20> H 	 -138.708 	 8.09031 	 1.62239
| 21> H 	 -137.446 	 8.78611 	 0.779045
| 22> H 	 -139.203 	 9.17173 	 0.415226
| 23> S 	 -137.332 	 7.16598 	 6.13995
| 24> C 	 -135.906 	 7.25447 	 7.16237
| 25> C 	 -134.873 	 6.43255 	 6.76617
| 26> C 	 -135.211 	 5.79637 	 5.47259
| 27> C 	 -136.509 	 6.0926 	 5.00987
| 28> H 	 -133.931 	 6.38372 	 7.31772
| 29> C 	 -134.293 	 4.90316 	 4.74033
| 30> H 	 -134.204 	 5.20887 	 3.68508
| 31> H 	 -134.823 	 3.96682 	 4.60737
| 32> C 	 -132.894 	 4.7202 	 5.34681
| 33> H 	 -132.455 	 3.81933 	 4.93759
| 34> H 	 -132.926 	 4.695 	 6.43312
| 35> C 	 -131.98 	 5.90293 	 4.96316
| 36> H 	 -131.066 	 5.89022 	 5.55776
| 37> H 	 -132.448 	 6.88873 	 5.07936
| 38> H 	 -131.813 	 5.78639 	 3.87375
| 39> H 	 -139.611 	 4.47244 	 1.59649
| 40> H 	 -135.787 	 7.81743 	 8.07692
| 41> *
| 42>
| 43>                          ****END OF INPUT****

CARTESIAN COORDINATES (ANGSTROEM)
---------------------------------
  S    -138.567000    4.813770    3.875220
  C    -138.804000    4.972690    2.144550
  C    -137.764000    5.661290    1.582590
  C    -136.817000    6.135260    2.570970
  C    -137.222000    5.793390    3.827530
  H    -135.878000    6.593890    2.291250
  C    -137.622000    5.999300    0.097337
  H    -137.846000    5.099280   -0.448208
  H    -136.559000    6.131900   -0.081062
  C    -138.462000    7.227490   -0.438982
  H    -137.912000    7.680710   -1.255920
  H    -139.512000    6.964670   -0.672046
  C    -138.465000    8.364380    0.582320
  H    -138.708000    8.090310    1.622390
  H    -137.446000    8.786110    0.779045
  H    -139.203000    9.171730    0.415226
  S    -137.332000    7.165980    6.139950
  C    -135.906000    7.254470    7.162370
  C    -134.873000    6.432550    6.766170
  C    -135.211000    5.796370    5.472590
  C    -136.509000    6.092600    5.009870
  H    -133.931000    6.383720    7.317720
  C    -134.293000    4.903160    4.740330
  H    -134.204000    5.208870    3.685080
  H    -134.823000    3.966820    4.607370
  C    -132.894000    4.720200    5.346810
  H    -132.455000    3.819330    4.937590
  H    -132.926000    4.695000    6.433120
  C    -131.980000    5.902930    4.963160
  H    -131.066000    5.890220    5.557760
  H    -132.448000    6.888730    5.079360
  H    -131.813000    5.786390    3.873750
  H    -139.611000    4.472440    1.596490
  H    -135.787000    7.817430    8.076920

 Total Charge           Charge          ....    0
 Multiplicity           Mult            ....    1
 Number of Electrons    NEL             ....  134
 Basis Dimension        Dim             ....  322

ORBITAL ENERGIES
----------------

  NO   OCC          E(Eh)            E(eV)
   0   2.0000     -88.965736     -2420.8807
   1   2.0000     -88.963088     -2420.8087
   2   2.0000     -10.319584      -280.8102
   3   2.0000     -10.318622      -280.7840
   4   2.0000     -10.316571      -280.7282
   5   2.0000     -10.311876      -280.6004
   6   2.0000     -10.307755      -280.4883
   7   2.0000     -10.299859      -280.2734
   8   2.0000     -10.298848      -280.2459
   9   2.0000     -10.293527      -280.1011
  10   2.0000     -10.293358      -280.0965
  11   2.0000     -10.291444      -280.0444
  12   2.0000     -10.286727      -279.9161
  13   2.0000     -10.286339      -279.9055
  14   2.0000     -10.279267      -279.7131
  15   2.0000     -10.274453      -279.5821
  16   2.0000      -8.082293      -219.9304
  17   2.0000      -8.077582      -219.8022
  18   2.0000      -6.040633      -164.3740
  19   2.0000      -6.036521      -164.2621
  20   2.0000      -6.036215      -164.2538
  21   2.0000      -6.033123      -164.1696
  22   2.0000      -6.032046      -164.1403
  23   2.0000      -6.028310      -164.0386
  24   2.0000      -1.016211       -27.6525
  25   2.0000      -0.980943       -26.6928
  26   2.0000      -0.912546       -24.8316
  27   2.0000      -0.908578       -24.7237
  28   2.0000      -0.871814       -23.7233
  29   2.0000      -0.848693       -23.0941
  30   2.0000      -0.841888       -22.9089
  31   2.0000      -0.815730       -22.1972
  32   2.0000      -0.783612       -21.3232
  33   2.0000      -0.767792       -20.8927
  34   2.0000      -0.707568       -19.2539
  35   2.0000      -0.701152       -19.0793
  36   2.0000      -0.695837       -18.9347
  37   2.0000      -0.653270       -17.7764
  38   2.0000      -0.641223       -17.4486
  39   2.0000      -0.616902       -16.7868
  40   2.0000      -0.600868       -16.3505
  41   2.0000      -0.571446       -15.5498
  42   2.0000      -0.556187       -15.1346
  43   2.0000      -0.551027       -14.9942
  44   2.0000      -0.542135       -14.7522
  45   2.0000      -0.534289       -14.5387
  46   2.0000      -0.518039       -14.0966
  47   2.0000      -0.508046       -13.8246
  48   2.0000      -0.504769       -13.7355
  49   2.0000      -0.499842       -13.6014
  50   2.0000      -0.488895       -13.3035
  51   2.0000      -0.472985       -12.8706
  52   2.0000      -0.468095       -12.7375
  53   2.0000      -0.466783       -12.7018
  54   2.0000      -0.456885       -12.4325
  55   2.0000      -0.446696       -12.1552
  56   2.0000      -0.442653       -12.0452
  57   2.0000      -0.432539       -11.7700
  58   2.0000      -0.430624       -11.7179
  59   2.0000      -0.426945       -11.6178
  60   2.0000      -0.425533       -11.5793
  61   2.0000      -0.416449       -11.3321
  62   2.0000      -0.411539       -11.1986
  63   2.0000      -0.340343        -9.2612
  64   2.0000      -0.332384        -9.0446
  65   2.0000      -0.322754        -8.7826
  66   2.0000      -0.296550        -8.0695
  67   0.0000       0.039725         1.0810
  68   0.0000       0.064902         1.7661
  69   0.0000       0.110983         3.0200
  70   0.0000       0.122051         3.3212
  71   0.0000       0.131604         3.5811

MULLIKEN ATOMIC CHARGES
-----------------------
   0 S :    0.131128
   1 C :   -0.135992
   2 C :   -0.123134
   3 C :    0.032504
   4 C :   -0.158679
   5 H :    0.013654
   6 C :    0.086526
   7 H :    0.023327
   8 H :    0.014392
   9 C :   -0.028811
  10 H :    0.038165
  11 H :    0.043331
  12 C :   -0.104517
  13 H :    0.038968
  14 H :    0.026179
  15 H :    0.037753
  16 S :    0.108205
  17 C :   -0.070765
  18 C :   -0.058477
  19 C :   -0.040739
  20 C :   -0.161908
  21 H :    0.031494
  22 C :    0.063353
  23 H :    0.017271
  24 H :    0.033926
  25 C :   -0.051014
  26 H :    0.030494
  27 H :    0.027102
  28 C :   -0.074511
  29 H :    0.040290
  30 H :    0.038640
  31 H :    0.030763
  32 H :    0.051846
  33 H :    0.049234
Sum of atomic charges:    0.0000000

LOEWDIN ATOMIC CHARGES
----------------------
   0 S :    0.446145
   1 C :   -0.203657
   2 C :   -0.061469
   3 C :   -0.060495
   4 C :   -0.229787
   5 H :    0.030729
   6 C :   -0.031317
   7 H :    0.028828
   8 H :    0.028700
   9 C :   -0.034650
  10 H :    0.030360
  11 H :    0.029239
  12 C :   -0.083669
  13 H :    0.025901
  14 H :    0.026182
  15 H :    0.027510
  16 S :    0.398338
  17 C :   -0.180669
  18 C :   -0.078523
  19 C :   -0.043724
  20 C :   -0.207137
  21 H :    0.036054
  22 C :   -0.042188
  23 H :    0.033495
  24 H :    0.036903
  25 C :   -0.036069
  26 H :    0.026721
  27 H :    0.019317
  28 C :   -0.068509
  29 H :    0.025226
  30 H :    0.024731
  31 H :    0.027070
  32 H :    0.031294
  33 H :    0.029122

  Mayer bond orders larger than 0.100000
B(  0-S ,  1-C ) :   1.1283 B(  0-S ,  4-C ) :   1.1928 B(  1-C ,  2-C ) :   1.6145
B(  1-C , 32-H ) :   0.9731 B(  2-C ,  3-C ) :   1.2367 B(  2-C ,  6-C ) :   1.0236
B(  3-C ,  4-C ) :   1.5522 B(  3-C ,  5-H ) :   1.0009 B(  4-C , 20-C ) :   1.0225
B(  6-C ,  7-H ) :   0.9406 B(  6-C ,  8-H ) :   0.9382 B(  6-C ,  9-C ) :   1.0580
B(  9-C , 10-H ) :   0.9584 B(  9-C , 11-H ) :   0.9582 B(  9-C , 12-C ) :   1.0770
B( 12-C , 13-H ) :   0.9654 B( 12-C , 14-H ) :   0.9758 B( 12-C , 15-H ) :   0.9751
B( 16-S , 17-C ) :   1.1546 B( 16-S , 20-C ) :   1.1246 B( 17-C , 18-C ) :   1.6413
B( 17-C , 33-H ) :   0.9586 B( 18-C , 19-C ) :   1.2083 B( 18-C , 21-H ) :   0.9805
B( 19-C , 20-C ) :   1.6118 B( 19-C , 22-C ) :   1.0547 B( 22-C , 23-H ) :   0.9242
B( 22-C , 24-H ) :   0.9178 B( 22-C , 25-C ) :   1.0788 B( 25-C , 26-H ) :   0.9541
B( 25-C , 27-H ) :   0.9546 B( 25-C , 28-C ) :   1.0704 B( 28-C , 29-H ) :   0.9756
B( 28-C , 30-H ) :   0.9785 B( 28-C , 31-H ) :   0.9742

Dispersion correction           -0.014930639
FINAL SINGLE POINT ENERGY     -1339.880809072156

DIPOLE MOMENT
-------------
                                X             Y             Z
Electronic contribution:    -15.42291      -3.87699      14.88385
Nuclear contribution   :     15.90269       3.77205     -15.24598
                        -----------------------------------------
Total Dipole Moment    :      0.47978      -0.10495      -0.36213
                        -----------------------------------------
Magnitude (a.u.)       :      0.61020
Magnitude (Debye)      :      1.55100

Rotational constants in cm-1:     0.020483     0.008224     0.007232
Rotational constants in MHz :   614.075608   246.537658   216.824130

                             ****ORCA TERMINATED NORMALLY****
TOTAL RUN TIME: 0 days 0 hours 0 minutes 21 seconds 915 msec
