                         Program Version 4.2.1 -  RELEASE  -
|  1> ! wB97X-D3 SP def2-SVP
|  2> %pal
|  3> nprocs 24
|  4> end
|  5>
|  6> * xyz 0 1
|  7> S 	 -109.73 	 25.6124 	 -114.473
|  8> C 	 -108.605 	 26.2235 	 -113.301
|  9> C 	 -107.3 	 26.2262 	 -113.804
| 10> C 	 -107.248 	 25.7323 	 -115.155
| 11> C 	 -108.42 	 25.1578 	 -115.568
| 12> H 	 -106.314 	 25.647 	 -115.723
| 13> C 	 -106.112 	 26.8475 	 -113.053
| 14> H 	 -105.288 	 27.1508 	 -113.691
| 15> H 	 -105.655 	 26.1004 	 -112.36
| 16> C 	 -106.369 	 28.0774 	 -112.173
| 17> H 	 -107.161 	 27.8367 	 -111.5
| 18> H 	 -105.509 	 28.2851 	 -111.453
| 19> C 	 -106.855 	 29.3437 	 -112.884
| 20> H 	 -106.046 	 29.6028 	 -113.651
| 21> H 	 -107.785 	 29.2074 	 -113.451
| 22> H 	 -106.993 	 30.1921 	 -112.202
| 23> S 	 -109.951 	 23.064 	 -116.477
| 24> C 	 -109.44 	 22.1878 	 -117.907
| 25> C 	 -108.399 	 22.7772 	 -118.516
| 26> C 	 -107.953 	 24.0068 	 -117.889
| 27> C 	 -108.67 	 24.294 	 -116.714
| 28> H 	 -107.929 	 22.2881 	 -119.369
| 29> C 	 -106.832 	 24.8069 	 -118.538
| 30> H 	 -106.056 	 24.2124 	 -118.976
| 31> H 	 -106.408 	 25.366 	 -117.756
| 32> C 	 -107.471 	 25.698 	 -119.613
| 33> H 	 -108.225 	 25.1976 	 -120.246
| 34> H 	 -106.814 	 26.1186 	 -120.373
| 35> C 	 -108.157 	 26.8973 	 -118.896
| 36> H 	 -107.553 	 27.4619 	 -118.186
| 37> H 	 -109.114 	 26.7263 	 -118.437
| 38> H 	 -108.507 	 27.5691 	 -119.659
| 39> H 	 -108.901 	 26.5999 	 -112.335
| 40> H 	 -109.93 	 21.2757 	 -118.241
| 41> *
| 42>
| 43>                          ****END OF INPUT****

CARTESIAN COORDINATES (ANGSTROEM)
---------------------------------
  S    -109.730000   25.612400  -114.473000
  C    -108.605000   26.223500  -113.301000
  C    -107.300000   26.226200  -113.804000
  C    -107.248000   25.732300  -115.155000
  C    -108.420000   25.157800  -115.568000
  H    -106.314000   25.647000  -115.723000
  C    -106.112000   26.847500  -113.053000
  H    -105.288000   27.150800  -113.691000
  H    -105.655000   26.100400  -112.360000
  C    -106.369000   28.077400  -112.173000
  H    -107.161000   27.836700  -111.500000
  H    -105.509000   28.285100  -111.453000
  C    -106.855000   29.343700  -112.884000
  H    -106.046000   29.602800  -113.651000
  H    -107.785000   29.207400  -113.451000
  H    -106.993000   30.192100  -112.202000
  S    -109.951000   23.064000  -116.477000
  C    -109.440000   22.187800  -117.907000
  C    -108.399000   22.777200  -118.516000
  C    -107.953000   24.006800  -117.889000
  C    -108.670000   24.294000  -116.714000
  H    -107.929000   22.288100  -119.369000
  C    -106.832000   24.806900  -118.538000
  H    -106.056000   24.212400  -118.976000
  H    -106.408000   25.366000  -117.756000
  C    -107.471000   25.698000  -119.613000
  H    -108.225000   25.197600  -120.246000
  H    -106.814000   26.118600  -120.373000
  C    -108.157000   26.897300  -118.896000
  H    -107.553000   27.461900  -118.186000
  H    -109.114000   26.726300  -118.437000
  H    -108.507000   27.569100  -119.659000
  H    -108.901000   26.599900  -112.335000
  H    -109.930000   21.275700  -118.241000

 Total Charge           Charge          ....    0
 Multiplicity           Mult            ....    1
 Number of Electrons    NEL             ....  134
 Basis Dimension        Dim             ....  322

ORBITAL ENERGIES
----------------

  NO   OCC          E(Eh)            E(eV)
   0   2.0000     -88.967030     -2420.9160
   1   2.0000     -88.962170     -2420.7837
   2   2.0000     -10.333713      -281.1946
   3   2.0000     -10.333272      -281.1826
   4   2.0000     -10.315162      -280.6898
   5   2.0000     -10.315019      -280.6859
   6   2.0000     -10.309430      -280.5339
   7   2.0000     -10.307852      -280.4909
   8   2.0000     -10.297099      -280.1983
   9   2.0000     -10.297068      -280.1975
  10   2.0000     -10.292208      -280.0652
  11   2.0000     -10.289973      -280.0044
  12   2.0000     -10.289746      -279.9982
  13   2.0000     -10.288781      -279.9720
  14   2.0000     -10.281463      -279.7728
  15   2.0000     -10.267074      -279.3813
  16   2.0000      -8.081769      -219.9161
  17   2.0000      -8.076584      -219.7750
  18   2.0000      -6.040337      -164.3659
  19   2.0000      -6.036356      -164.2576
  20   2.0000      -6.035286      -164.2285
  21   2.0000      -6.032387      -164.1496
  22   2.0000      -6.031151      -164.1160
  23   2.0000      -6.027130      -164.0065
  24   2.0000      -1.005421       -27.3589
  25   2.0000      -0.982233       -26.7279
  26   2.0000      -0.910942       -24.7880
  27   2.0000      -0.908770       -24.7289
  28   2.0000      -0.868855       -23.6428
  29   2.0000      -0.849453       -23.1148
  30   2.0000      -0.838586       -22.8191
  31   2.0000      -0.813857       -22.1462
  32   2.0000      -0.783250       -21.3133
  33   2.0000      -0.773524       -21.0487
  34   2.0000      -0.707737       -19.2585
  35   2.0000      -0.701637       -19.0925
  36   2.0000      -0.693551       -18.8725
  37   2.0000      -0.661014       -17.9871
  38   2.0000      -0.637199       -17.3391
  39   2.0000      -0.617771       -16.8104
  40   2.0000      -0.597947       -16.2710
  41   2.0000      -0.574501       -15.6330
  42   2.0000      -0.556687       -15.1482
  43   2.0000      -0.550049       -14.9676
  44   2.0000      -0.543652       -14.7935
  45   2.0000      -0.527679       -14.3589
  46   2.0000      -0.519917       -14.1477
  47   2.0000      -0.506412       -13.7802
  48   2.0000      -0.503170       -13.6919
  49   2.0000      -0.499812       -13.6006
  50   2.0000      -0.491483       -13.3739
  51   2.0000      -0.474575       -12.9138
  52   2.0000      -0.467598       -12.7240
  53   2.0000      -0.463230       -12.6051
  54   2.0000      -0.459656       -12.5079
  55   2.0000      -0.447202       -12.1690
  56   2.0000      -0.441174       -12.0050
  57   2.0000      -0.436838       -11.8870
  58   2.0000      -0.432190       -11.7605
  59   2.0000      -0.427091       -11.6217
  60   2.0000      -0.421248       -11.4627
  61   2.0000      -0.409864       -11.1530
  62   2.0000      -0.407446       -11.0872
  63   2.0000      -0.361300        -9.8315
  64   2.0000      -0.332871        -9.0579
  65   2.0000      -0.326447        -8.8831
  66   2.0000      -0.283542        -7.7156
  67   0.0000       0.019617         0.5338
  68   0.0000       0.080397         2.1877
  69   0.0000       0.099895         2.7183
  70   0.0000       0.115212         3.1351
  71   0.0000       0.136591         3.7168

MULLIKEN ATOMIC CHARGES
-----------------------
   0 S :    0.106640
   1 C :   -0.117174
   2 C :   -0.089740
   3 C :   -0.001437
   4 C :   -0.118638
   5 H :    0.027057
   6 C :    0.065002
   7 H :    0.020315
   8 H :    0.047441
   9 C :   -0.102413
  10 H :    0.010377
  11 H :    0.038091
  12 C :   -0.069639
  13 H :    0.029114
  14 H :    0.045296
  15 H :    0.041214
  16 S :    0.078269
  17 C :   -0.080139
  18 C :   -0.026564
  19 C :   -0.100223
  20 C :   -0.109177
  21 H :    0.021539
  22 C :    0.152074
  23 H :    0.020254
  24 H :   -0.011066
  25 C :   -0.070976
  26 H :    0.033781
  27 H :    0.029350
  28 C :   -0.059866
  29 H :    0.034503
  30 H :    0.035883
  31 H :    0.012788
  32 H :    0.048555
  33 H :    0.059511
Sum of atomic charges:    0.0000000

LOEWDIN ATOMIC CHARGES
----------------------
   0 S :    0.401874
   1 C :   -0.199488
   2 C :   -0.059229
   3 C :   -0.068634
   4 C :   -0.179604
   5 H :    0.032863
   6 C :   -0.036054
   7 H :    0.026845
   8 H :    0.042145
   9 C :   -0.052112
  10 H :    0.012586
  11 H :    0.033913
  12 C :   -0.072495
  13 H :    0.027635
  14 H :    0.027493
  15 H :    0.027404
  16 S :    0.377080
  17 C :   -0.177051
  18 C :   -0.073981
  19 C :   -0.044153
  20 C :   -0.184374
  21 H :    0.034619
  22 C :   -0.021197
  23 H :    0.028015
  24 H :    0.018642
  25 C :   -0.035186
  26 H :    0.029590
  27 H :    0.022365
  28 C :   -0.070065
  29 H :    0.023927
  30 H :    0.025872
  31 H :    0.023242
  32 H :    0.025076
  33 H :    0.032434

  Mayer bond orders larger than 0.100000
B(  0-S ,  1-C ) :   1.1329 B(  0-S ,  4-C ) :   1.1443 B(  1-C ,  2-C ) :   1.6085
B(  1-C , 32-H ) :   0.9689 B(  2-C ,  3-C ) :   1.2541 B(  2-C ,  6-C ) :   1.0107
B(  3-C ,  4-C ) :   1.5793 B(  3-C ,  5-H ) :   0.9795 B(  4-C , 20-C ) :   1.0660
B(  6-C ,  7-H ) :   0.9508 B(  6-C ,  8-H ) :   0.9306 B(  6-C ,  9-C ) :   1.0830
B(  9-C , 10-H ) :   0.9482 B(  9-C , 11-H ) :   0.9526 B(  9-C , 12-C ) :   1.0750
B( 12-C , 13-H ) :   0.9759 B( 12-C , 14-H ) :   0.9729 B( 12-C , 15-H ) :   0.9743
B( 16-S , 17-C ) :   1.1344 B( 16-S , 20-C ) :   1.1175 B( 17-C , 18-C ) :   1.6446
B( 17-C , 33-H ) :   0.9650 B( 18-C , 19-C ) :   1.2167 B( 18-C , 21-H ) :   0.9905
B( 19-C , 20-C ) :   1.6100 B( 19-C , 22-C ) :   1.0380 B( 22-C , 23-H ) :   0.9320
B( 22-C , 24-H ) :   0.9370 B( 22-C , 25-C ) :   1.0609 B( 25-C , 26-H ) :   0.9569
B( 25-C , 27-H ) :   0.9599 B( 25-C , 28-C ) :   1.0717 B( 28-C , 29-H ) :   0.9786
B( 28-C , 30-H ) :   0.9733 B( 28-C , 31-H ) :   0.9688

Dispersion correction           -0.014998159
FINAL SINGLE POINT ENERGY     -1339.880737158831

DIPOLE MOMENT
-------------
                                X             Y             Z
Electronic contribution:    -16.13006     -19.47431       1.72868
Nuclear contribution   :     16.69482      19.57007      -1.94349
                        -----------------------------------------
Total Dipole Moment    :      0.56476       0.09576      -0.21481
                        -----------------------------------------
Magnitude (a.u.)       :      0.61177
Magnitude (Debye)      :      1.55500

Rotational constants in cm-1:     0.022710     0.008264     0.006869
Rotational constants in MHz :   680.833228   247.757991   205.930872

                             ****ORCA TERMINATED NORMALLY****
TOTAL RUN TIME: 0 days 0 hours 0 minutes 22 seconds 39 msec
