                         Program Version 4.2.1 -  RELEASE  -
|  1> ! wB97X-D3 SP def2-SVP
|  2> %pal
|  3> nprocs 24
|  4> end
|  5>
|  6> * xyz 0 1
|  7> S 	 -55.8996 	 5.19803 	 -29.8632
|  8> C 	 -57.5461 	 5.10137 	 -29.3798
|  9> C 	 -58.1195 	 6.34396 	 -29.4577
| 10> C 	 -57.2595 	 7.36115 	 -29.9546
| 11> C 	 -55.9857 	 6.90324 	 -30.1726
| 12> H 	 -57.6799 	 8.28734 	 -30.0952
| 13> C 	 -59.5709 	 6.57201 	 -28.8942
| 14> H 	 -60.0641 	 5.71004 	 -28.5581
| 15> H 	 -60.137 	 6.83941 	 -29.8277
| 16> C 	 -59.8034 	 7.82319 	 -28.0577
| 17> H 	 -59.3127 	 7.60316 	 -27.1282
| 18> H 	 -59.2551 	 8.69718 	 -28.3765
| 19> C 	 -61.2765 	 8.14298 	 -27.7236
| 20> H 	 -61.7674 	 7.25846 	 -27.2117
| 21> H 	 -61.35 	 9.01662 	 -27.0092
| 22> H 	 -61.6575 	 8.4378 	 -28.7171
| 23> S 	 -53.3419 	 7.07179 	 -30.4247
| 24> C 	 -52.5181 	 8.5249 	 -30.8703
| 25> C 	 -53.3974 	 9.49286 	 -31.2381
| 26> C 	 -54.8014 	 9.07725 	 -31.1655
| 27> C 	 -54.8896 	 7.82593 	 -30.574
| 28> H 	 -53.0129 	 10.497 	 -31.3809
| 29> C 	 -55.8434 	 10.0054 	 -31.6411
| 30> H 	 -55.5484 	 11.025 	 -31.5919
| 31> H 	 -56.5549 	 9.98856 	 -30.8194
| 32> C 	 -56.5409 	 9.64343 	 -32.9211
| 33> H 	 -57.5325 	 10.0444 	 -32.9475
| 34> H 	 -56.5469 	 8.48022 	 -32.9261
| 35> C 	 -55.6277 	 10.0217 	 -34.1092
| 36> H 	 -54.7194 	 9.53888 	 -33.9085
| 37> H 	 -55.5186 	 11.0931 	 -34.0899
| 38> H 	 -56.0954 	 9.58844 	 -35.0356
| 39> H 	 -58.0438 	 4.16533 	 -29.2215
| 40> H 	 -51.4425 	 8.73502 	 -30.8015
| 41> *
| 42>
| 43>                          ****END OF INPUT****

CARTESIAN COORDINATES (ANGSTROEM)
---------------------------------
  S    -55.899600    5.198030  -29.863200
  C    -57.546100    5.101370  -29.379800
  C    -58.119500    6.343960  -29.457700
  C    -57.259500    7.361150  -29.954600
  C    -55.985700    6.903240  -30.172600
  H    -57.679900    8.287340  -30.095200
  C    -59.570900    6.572010  -28.894200
  H    -60.064100    5.710040  -28.558100
  H    -60.137000    6.839410  -29.827700
  C    -59.803400    7.823190  -28.057700
  H    -59.312700    7.603160  -27.128200
  H    -59.255100    8.697180  -28.376500
  C    -61.276500    8.142980  -27.723600
  H    -61.767400    7.258460  -27.211700
  H    -61.350000    9.016620  -27.009200
  H    -61.657500    8.437800  -28.717100
  S    -53.341900    7.071790  -30.424700
  C    -52.518100    8.524900  -30.870300
  C    -53.397400    9.492860  -31.238100
  C    -54.801400    9.077250  -31.165500
  C    -54.889600    7.825930  -30.574000
  H    -53.012900   10.497000  -31.380900
  C    -55.843400   10.005400  -31.641100
  H    -55.548400   11.025000  -31.591900
  H    -56.554900    9.988560  -30.819400
  C    -56.540900    9.643430  -32.921100
  H    -57.532500   10.044400  -32.947500
  H    -56.546900    8.480220  -32.926100
  C    -55.627700   10.021700  -34.109200
  H    -54.719400    9.538880  -33.908500
  H    -55.518600   11.093100  -34.089900
  H    -56.095400    9.588440  -35.035600
  H    -58.043800    4.165330  -29.221500
  H    -51.442500    8.735020  -30.801500

 Total Charge           Charge          ....    0
 Multiplicity           Mult            ....    1
 Number of Electrons    NEL             ....  134
 Basis Dimension        Dim             ....  322

ORBITAL ENERGIES
----------------

  NO   OCC          E(Eh)            E(eV)
   0   2.0000     -88.968321     -2420.9511
   1   2.0000     -88.962439     -2420.7910
   2   2.0000     -10.333976      -281.2018
   3   2.0000     -10.331347      -281.1302
   4   2.0000     -10.312885      -280.6279
   5   2.0000     -10.308736      -280.5150
   6   2.0000     -10.306306      -280.4488
   7   2.0000     -10.301498      -280.3180
   8   2.0000     -10.294166      -280.1185
   9   2.0000     -10.292438      -280.0715
  10   2.0000     -10.291832      -280.0550
  11   2.0000     -10.287201      -279.9290
  12   2.0000     -10.287006      -279.9237
  13   2.0000     -10.283275      -279.8221
  14   2.0000     -10.283032      -279.8155
  15   2.0000     -10.272998      -279.5425
  16   2.0000      -8.083646      -219.9672
  17   2.0000      -8.078380      -219.8239
  18   2.0000      -6.042279      -164.4188
  19   2.0000      -6.037998      -164.3023
  20   2.0000      -6.037009      -164.2754
  21   2.0000      -6.034310      -164.2019
  22   2.0000      -6.032744      -164.1593
  23   2.0000      -6.028935      -164.0557
  24   2.0000      -1.014310       -27.6008
  25   2.0000      -0.991602       -26.9829
  26   2.0000      -0.920339       -25.0437
  27   2.0000      -0.909926       -24.7604
  28   2.0000      -0.872868       -23.7520
  29   2.0000      -0.854565       -23.2539
  30   2.0000      -0.844805       -22.9883
  31   2.0000      -0.819539       -22.3008
  32   2.0000      -0.782692       -21.2981
  33   2.0000      -0.773385       -21.0449
  34   2.0000      -0.711135       -19.3510
  35   2.0000      -0.697484       -18.9795
  36   2.0000      -0.686088       -18.6694
  37   2.0000      -0.666581       -18.1386
  38   2.0000      -0.643558       -17.5121
  39   2.0000      -0.630208       -17.1488
  40   2.0000      -0.600388       -16.3374
  41   2.0000      -0.567688       -15.4476
  42   2.0000      -0.566043       -15.4028
  43   2.0000      -0.559405       -15.2222
  44   2.0000      -0.546732       -14.8773
  45   2.0000      -0.523778       -14.2527
  46   2.0000      -0.517757       -14.0889
  47   2.0000      -0.513405       -13.9705
  48   2.0000      -0.509690       -13.8694
  49   2.0000      -0.504353       -13.7241
  50   2.0000      -0.490394       -13.3443
  51   2.0000      -0.485139       -13.2013
  52   2.0000      -0.475415       -12.9367
  53   2.0000      -0.468455       -12.7473
  54   2.0000      -0.460072       -12.5192
  55   2.0000      -0.454072       -12.3559
  56   2.0000      -0.442296       -12.0355
  57   2.0000      -0.440526       -11.9873
  58   2.0000      -0.431496       -11.7416
  59   2.0000      -0.422126       -11.4866
  60   2.0000      -0.417639       -11.3645
  61   2.0000      -0.409345       -11.1388
  62   2.0000      -0.403707       -10.9854
  63   2.0000      -0.363795        -9.8994
  64   2.0000      -0.333856        -9.0847
  65   2.0000      -0.323670        -8.8075
  66   2.0000      -0.285930        -7.7805
  67   0.0000       0.024625         0.6701
  68   0.0000       0.088267         2.4019
  69   0.0000       0.103206         2.8084
  70   0.0000       0.119156         3.2424
  71   0.0000       0.137482         3.7411

MULLIKEN ATOMIC CHARGES
-----------------------
   0 S :    0.114417
   1 C :   -0.137268
   2 C :   -0.069907
   3 C :    0.015279
   4 C :   -0.053312
   5 H :   -0.040808
   6 C :    0.087615
   7 H :    0.005266
   8 H :    0.020786
   9 C :   -0.082019
  10 H :    0.017666
  11 H :    0.023527
  12 C :   -0.081596
  13 H :    0.052077
  14 H :    0.048218
  15 H :    0.039117
  16 S :    0.086986
  17 C :   -0.082405
  18 C :   -0.043816
  19 C :   -0.092509
  20 C :   -0.122809
  21 H :    0.022091
  22 C :    0.077083
  23 H :    0.003412
  24 H :    0.013090
  25 C :   -0.084119
  26 H :    0.028972
  27 H :    0.047804
  28 C :   -0.018972
  29 H :    0.026813
  30 H :    0.024034
  31 H :    0.045539
  32 H :    0.049241
  33 H :    0.060507
Sum of atomic charges:    0.0000000

LOEWDIN ATOMIC CHARGES
----------------------
   0 S :    0.420814
   1 C :   -0.209321
   2 C :   -0.053755
   3 C :   -0.061756
   4 C :   -0.193552
   5 H :    0.014414
   6 C :   -0.027843
   7 H :    0.020352
   8 H :    0.032593
   9 C :   -0.051278
  10 H :    0.018342
  11 H :    0.021408
  12 C :   -0.068783
  13 H :    0.034169
  14 H :    0.034003
  15 H :    0.026196
  16 S :    0.412385
  17 C :   -0.196178
  18 C :   -0.074379
  19 C :   -0.058438
  20 C :   -0.184321
  21 H :    0.032085
  22 C :   -0.041646
  23 H :    0.024541
  24 H :    0.030450
  25 C :   -0.038024
  26 H :    0.017847
  27 H :    0.038183
  28 C :   -0.056324
  29 H :    0.020008
  30 H :    0.019709
  31 H :    0.033111
  32 H :    0.028429
  33 H :    0.036560

  Mayer bond orders larger than 0.100000
B(  0-S ,  1-C ) :   1.1319 B(  0-S ,  4-C ) :   1.1588 B(  1-C ,  2-C ) :   1.5982
B(  1-C , 32-H ) :   0.9746 B(  2-C ,  3-C ) :   1.2851 B(  2-C ,  6-C ) :   1.0080
B(  3-C ,  4-C ) :   1.5175 B(  3-C ,  5-H ) :   1.0134 B(  4-C , 20-C ) :   1.0598
B(  6-C ,  7-H ) :   0.9531 B(  6-C ,  8-H ) :   0.9339 B(  6-C ,  9-C ) :   1.0515
B(  9-C , 10-H ) :   0.9517 B(  9-C , 11-H ) :   0.9539 B(  9-C , 12-C ) :   1.0759
B( 12-C , 13-H ) :   0.9741 B( 12-C , 14-H ) :   0.9737 B( 12-C , 15-H ) :   0.9782
B( 16-S , 17-C ) :   1.1444 B( 16-S , 20-C ) :   1.1362 B( 17-C , 18-C ) :   1.6532
B( 17-C , 33-H ) :   0.9622 B( 18-C , 19-C ) :   1.2033 B( 18-C , 21-H ) :   0.9865
B( 19-C , 20-C ) :   1.6055 B( 19-C , 22-C ) :   1.0515 B( 22-C , 23-H ) :   0.9251
B( 22-C , 24-H ) :   0.9206 B( 22-C , 25-C ) :   1.0604 B( 25-C , 26-H ) :   0.9559
B( 25-C , 27-H ) :   0.9588 B( 25-C , 28-C ) :   1.0641 B( 28-C , 29-H ) :   0.9768
B( 28-C , 30-H ) :   0.9770 B( 28-C , 31-H ) :   0.9737

Dispersion correction           -0.014176971
FINAL SINGLE POINT ENERGY     -1339.856751518896

DIPOLE MOMENT
-------------
                                X             Y             Z
Electronic contribution:     22.72955     -16.54560       2.84924
Nuclear contribution   :    -23.19332      17.04740      -2.79608
                        -----------------------------------------
Total Dipole Moment    :     -0.46377       0.50180       0.05316
                        -----------------------------------------
Magnitude (a.u.)       :      0.68535
Magnitude (Debye)      :      1.74203

Rotational constants in cm-1:     0.018629     0.008580     0.006693
Rotational constants in MHz :   558.497334   257.214830   200.650163

                             ****ORCA TERMINATED NORMALLY****
TOTAL RUN TIME: 0 days 0 hours 0 minutes 21 seconds 811 msec
