                         Program Version 4.2.1 -  RELEASE  -
|  1> ! wB97X-D3 SP def2-SVP
|  2> %pal
|  3> nprocs 24
|  4> end
|  5>
|  6> * xyz 0 1
|  7> S 	 39.8186 	 -15.8579 	 -123.644
|  8> C 	 40.4302 	 -14.4859 	 -122.698
|  9> C 	 41.0612 	 -13.5978 	 -123.565
| 10> C 	 40.9397 	 -13.9548 	 -124.913
| 11> C 	 40.3387 	 -15.191 	 -125.142
| 12> H 	 41.3597 	 -13.3661 	 -125.697
| 13> C 	 41.5247 	 -12.2234 	 -123.131
| 14> H 	 41.3006 	 -12.1199 	 -122.052
| 15> H 	 40.867 	 -11.431 	 -123.467
| 16> C 	 43.0026 	 -11.8714 	 -123.389
| 17> H 	 43.2134 	 -11.7807 	 -124.441
| 18> H 	 43.0814 	 -10.9005 	 -122.871
| 19> C 	 43.9278 	 -13.0148 	 -122.802
| 20> H 	 43.6341 	 -13.9345 	 -123.395
| 21> H 	 45.0202 	 -12.8144 	 -123.04
| 22> H 	 43.8476 	 -13.1475 	 -121.706
| 23> S 	 38.638 	 -16.9058 	 -126.548
| 24> C 	 39.1199 	 -17.2258 	 -128.248
| 25> C 	 40.4204 	 -16.9421 	 -128.514
| 26> C 	 41.0568 	 -16.2138 	 -127.427
| 27> C 	 40.1216 	 -15.9108 	 -126.424
| 28> H 	 40.8883 	 -17.2295 	 -129.415
| 29> C 	 42.5511 	 -15.8097 	 -127.48
| 30> H 	 42.4944 	 -14.7159 	 -127.393
| 31> H 	 42.8938 	 -16.0078 	 -128.513
| 32> C 	 43.4028 	 -16.3315 	 -126.289
| 33> H 	 43.6838 	 -17.3684 	 -126.594
| 34> H 	 42.8608 	 -16.4627 	 -125.425
| 35> C 	 44.6697 	 -15.5854 	 -126.065
| 36> H 	 44.4779 	 -14.4941 	 -125.966
| 37> H 	 45.3157 	 -15.8541 	 -126.887
| 38> H 	 45.2183 	 -15.9266 	 -125.184
| 39> H 	 40.1585 	 -14.3234 	 -121.696
| 40> H 	 38.4964 	 -17.838 	 -128.957
| 41> *
| 42>
| 43>                          ****END OF INPUT****

CARTESIAN COORDINATES (ANGSTROEM)
---------------------------------
  S     39.818600  -15.857900  -123.644000
  C     40.430200  -14.485900  -122.698000
  C     41.061200  -13.597800  -123.565000
  C     40.939700  -13.954800  -124.913000
  C     40.338700  -15.191000  -125.142000
  H     41.359700  -13.366100  -125.697000
  C     41.524700  -12.223400  -123.131000
  H     41.300600  -12.119900  -122.052000
  H     40.867000  -11.431000  -123.467000
  C     43.002600  -11.871400  -123.389000
  H     43.213400  -11.780700  -124.441000
  H     43.081400  -10.900500  -122.871000
  C     43.927800  -13.014800  -122.802000
  H     43.634100  -13.934500  -123.395000
  H     45.020200  -12.814400  -123.040000
  H     43.847600  -13.147500  -121.706000
  S     38.638000  -16.905800  -126.548000
  C     39.119900  -17.225800  -128.248000
  C     40.420400  -16.942100  -128.514000
  C     41.056800  -16.213800  -127.427000
  C     40.121600  -15.910800  -126.424000
  H     40.888300  -17.229500  -129.415000
  C     42.551100  -15.809700  -127.480000
  H     42.494400  -14.715900  -127.393000
  H     42.893800  -16.007800  -128.513000
  C     43.402800  -16.331500  -126.289000
  H     43.683800  -17.368400  -126.594000
  H     42.860800  -16.462700  -125.425000
  C     44.669700  -15.585400  -126.065000
  H     44.477900  -14.494100  -125.966000
  H     45.315700  -15.854100  -126.887000
  H     45.218300  -15.926600  -125.184000
  H     40.158500  -14.323400  -121.696000
  H     38.496400  -17.838000  -128.957000

 Total Charge           Charge          ....    0
 Multiplicity           Mult            ....    1
 Number of Electrons    NEL             ....  134
 Basis Dimension        Dim             ....  322

ORBITAL ENERGIES
----------------

  NO   OCC          E(Eh)            E(eV)
   0   2.0000     -88.967911     -2420.9399
   1   2.0000     -88.965128     -2420.8642
   2   2.0000     -10.333064      -281.1770
   3   2.0000     -10.331807      -281.1428
   4   2.0000     -10.324028      -280.9311
   5   2.0000     -10.312667      -280.6219
   6   2.0000     -10.312548      -280.6187
   7   2.0000     -10.301064      -280.3062
   8   2.0000     -10.299102      -280.2528
   9   2.0000     -10.294735      -280.1340
  10   2.0000     -10.291596      -280.0486
  11   2.0000     -10.290388      -280.0157
  12   2.0000     -10.289032      -279.9788
  13   2.0000     -10.288365      -279.9607
  14   2.0000     -10.279706      -279.7250
  15   2.0000     -10.276179      -279.6291
  16   2.0000      -8.081480      -219.9082
  17   2.0000      -8.079975      -219.8673
  18   2.0000      -6.040095      -164.3593
  19   2.0000      -6.038454      -164.3147
  20   2.0000      -6.036645      -164.2654
  21   2.0000      -6.034303      -164.2017
  22   2.0000      -6.031691      -164.1307
  23   2.0000      -6.030935      -164.1101
  24   2.0000      -1.004058       -27.3218
  25   2.0000      -0.980206       -26.6728
  26   2.0000      -0.909628       -24.7522
  27   2.0000      -0.908499       -24.7215
  28   2.0000      -0.864088       -23.5130
  29   2.0000      -0.852378       -23.1944
  30   2.0000      -0.840293       -22.8655
  31   2.0000      -0.814926       -22.1753
  32   2.0000      -0.779987       -21.2245
  33   2.0000      -0.769696       -20.9445
  34   2.0000      -0.708555       -19.2808
  35   2.0000      -0.697366       -18.9763
  36   2.0000      -0.688946       -18.7472
  37   2.0000      -0.659287       -17.9401
  38   2.0000      -0.641060       -17.4441
  39   2.0000      -0.626077       -17.0364
  40   2.0000      -0.591794       -16.1035
  41   2.0000      -0.571461       -15.5503
  42   2.0000      -0.565933       -15.3998
  43   2.0000      -0.547050       -14.8860
  44   2.0000      -0.538109       -14.6427
  45   2.0000      -0.525483       -14.2991
  46   2.0000      -0.516845       -14.0641
  47   2.0000      -0.510382       -13.8882
  48   2.0000      -0.503996       -13.7144
  49   2.0000      -0.493445       -13.4273
  50   2.0000      -0.490897       -13.3580
  51   2.0000      -0.481009       -13.0889
  52   2.0000      -0.468547       -12.7498
  53   2.0000      -0.461727       -12.5642
  54   2.0000      -0.457048       -12.4369
  55   2.0000      -0.453330       -12.3357
  56   2.0000      -0.439084       -11.9481
  57   2.0000      -0.435958       -11.8630
  58   2.0000      -0.432289       -11.7632
  59   2.0000      -0.427405       -11.6303
  60   2.0000      -0.419095       -11.4042
  61   2.0000      -0.414720       -11.2851
  62   2.0000      -0.411201       -11.1893
  63   2.0000      -0.348060        -9.4712
  64   2.0000      -0.333867        -9.0850
  65   2.0000      -0.329348        -8.9620
  66   2.0000      -0.288095        -7.8395
  67   0.0000       0.019373         0.5272
  68   0.0000       0.067565         1.8385
  69   0.0000       0.093345         2.5400
  70   0.0000       0.121165         3.2971
  71   0.0000       0.124233         3.3806

MULLIKEN ATOMIC CHARGES
-----------------------
   0 S :    0.093634
   1 C :   -0.113344
   2 C :   -0.087075
   3 C :    0.026840
   4 C :   -0.139866
   5 H :   -0.001446
   6 C :    0.040847
   7 H :    0.007561
   8 H :    0.036417
   9 C :   -0.063529
  10 H :    0.033213
  11 H :    0.036774
  12 C :   -0.106890
  13 H :    0.060925
  14 H :    0.043297
  15 H :    0.045256
  16 S :    0.088631
  17 C :   -0.090864
  18 C :   -0.008415
  19 C :   -0.056608
  20 C :   -0.142388
  21 H :    0.004705
  22 C :    0.066931
  23 H :    0.025043
  24 H :    0.026182
  25 C :   -0.041217
  26 H :    0.024922
  27 H :    0.027251
  28 C :   -0.045187
  29 H :    0.036655
  30 H :    0.027722
  31 H :    0.035652
  32 H :    0.038626
  33 H :    0.069743
Sum of atomic charges:    0.0000000

LOEWDIN ATOMIC CHARGES
----------------------
   0 S :    0.405572
   1 C :   -0.185771
   2 C :   -0.065066
   3 C :   -0.072935
   4 C :   -0.194510
   5 H :    0.024516
   6 C :   -0.038615
   7 H :    0.029461
   8 H :    0.032259
   9 C :   -0.038296
  10 H :    0.019004
  11 H :    0.028241
  12 C :   -0.075842
  13 H :    0.034837
  14 H :    0.028895
  15 H :    0.027122
  16 S :    0.362230
  17 C :   -0.167878
  18 C :   -0.066628
  19 C :   -0.040530
  20 C :   -0.187690
  21 H :    0.026425
  22 C :   -0.029101
  23 H :    0.030718
  24 H :    0.031765
  25 C :   -0.035801
  26 H :    0.030160
  27 H :    0.014764
  28 C :   -0.065259
  29 H :    0.025322
  30 H :    0.025941
  31 H :    0.029860
  32 H :    0.018894
  33 H :    0.037936

  Mayer bond orders larger than 0.100000
B(  0-S ,  1-C ) :   1.1381 B(  0-S ,  4-C ) :   1.1702 B(  1-C ,  2-C ) :   1.5671
B(  1-C ,  4-C ) :   0.1036 B(  1-C , 32-H ) :   0.9770 B(  2-C ,  3-C ) :   1.2734
B(  2-C ,  6-C ) :   1.0257 B(  3-C ,  4-C ) :   1.5397 B(  3-C ,  5-H ) :   1.0040
B(  4-C , 20-C ) :   1.0468 B(  6-C ,  7-H ) :   0.9416 B(  6-C ,  8-H ) :   0.9439
B(  6-C ,  9-C ) :   1.0593 B(  9-C , 10-H ) :   0.9605 B(  9-C , 11-H ) :   0.9571
B(  9-C , 12-C ) :   1.0657 B( 12-C , 13-H ) :   0.9657 B( 12-C , 14-H ) :   0.9768
B( 12-C , 15-H ) :   0.9768 B( 16-S , 17-C ) :   1.1244 B( 16-S , 20-C ) :   1.1146
B( 17-C , 18-C ) :   1.6570 B( 17-C , 33-H ) :   0.9581 B( 18-C , 19-C ) :   1.2098
B( 18-C , 21-H ) :   0.9949 B( 19-C , 20-C ) :   1.6067 B( 19-C , 22-C ) :   1.0218
B( 22-C , 23-H ) :   0.9396 B( 22-C , 24-H ) :   0.9391 B( 22-C , 25-C ) :   1.0379
B( 25-C , 26-H ) :   0.9498 B( 25-C , 27-H ) :   0.9624 B( 25-C , 28-C ) :   1.0920
B( 28-C , 29-H ) :   0.9726 B( 28-C , 30-H ) :   0.9729 B( 28-C , 31-H ) :   0.9698

Dispersion correction           -0.016087896
FINAL SINGLE POINT ENERGY     -1339.870654680118

DIPOLE MOMENT
-------------
                                X             Y             Z
Electronic contribution:    -27.11994     -13.42602      -3.20219
Nuclear contribution   :     27.64145      13.66170       2.98334
                        -----------------------------------------
Total Dipole Moment    :      0.52151       0.23568      -0.21885
                        -----------------------------------------
Magnitude (a.u.)       :      0.61271
Magnitude (Debye)      :      1.55738

Rotational constants in cm-1:     0.020419     0.009821     0.007451
Rotational constants in MHz :   612.150027   294.413714   223.383201

                             ****ORCA TERMINATED NORMALLY****
TOTAL RUN TIME: 0 days 0 hours 0 minutes 23 seconds 124 msec
