                         Program Version 4.2.1 -  RELEASE  -
|  1> ! wB97X-D3 SP def2-SVP
|  2> %pal
|  3> nprocs 24
|  4> end
|  5>
|  6> * xyz 0 1
|  7> S 	 -120.446 	 27.5987 	 -15.3645
|  8> C 	 -119.298 	 27.8703 	 -16.6913
|  9> C 	 -118.007 	 27.7286 	 -16.2345
| 10> C 	 -117.936 	 27.459 	 -14.8382
| 11> C 	 -119.15 	 27.2534 	 -14.2656
| 12> H 	 -117.026 	 27.3393 	 -14.2892
| 13> C 	 -116.789 	 27.7214 	 -17.1556
| 14> H 	 -116.708 	 26.7229 	 -17.5757
| 15> H 	 -115.834 	 27.6942 	 -16.5922
| 16> C 	 -116.683 	 28.7552 	 -18.2632
| 17> H 	 -117.379 	 28.633 	 -19.1171
| 18> H 	 -116.842 	 29.7705 	 -17.8445
| 19> C 	 -115.295 	 28.7369 	 -18.878
| 20> H 	 -114.502 	 28.8816 	 -18.1706
| 21> H 	 -114.98 	 27.8249 	 -19.4495
| 22> H 	 -115.301 	 29.5715 	 -19.5614
| 23> S 	 -118.746 	 25.4377 	 -12.1321
| 24> C 	 -119.153 	 25.7849 	 -10.4988
| 25> C 	 -119.884 	 27.003 	 -10.5121
| 26> C 	 -120.033 	 27.5956 	 -11.8179
| 27> C 	 -119.364 	 26.8882 	 -12.834
| 28> H 	 -120.25 	 27.3491 	 -9.55884
| 29> C 	 -120.675 	 28.9247 	 -11.9491
| 30> H 	 -120.224 	 29.4607 	 -12.7573
| 31> H 	 -120.5 	 29.4776 	 -11.0586
| 32> C 	 -122.167 	 28.9515 	 -12.331
| 33> H 	 -122.237 	 28.7548 	 -13.3984
| 34> H 	 -122.549 	 29.9469 	 -12.1743
| 35> C 	 -123.094 	 28.0232 	 -11.5345
| 36> H 	 -122.843 	 28.0128 	 -10.5024
| 37> H 	 -123.34 	 27.056 	 -11.9292
| 38> H 	 -124.059 	 28.5258 	 -11.6931
| 39> H 	 -119.543 	 27.9542 	 -17.7205
| 40> H 	 -118.8 	 25.2252 	 -9.68993
| 41> *
| 42>
| 43>                          ****END OF INPUT****

CARTESIAN COORDINATES (ANGSTROEM)
---------------------------------
  S    -120.446000   27.598700  -15.364500
  C    -119.298000   27.870300  -16.691300
  C    -118.007000   27.728600  -16.234500
  C    -117.936000   27.459000  -14.838200
  C    -119.150000   27.253400  -14.265600
  H    -117.026000   27.339300  -14.289200
  C    -116.789000   27.721400  -17.155600
  H    -116.708000   26.722900  -17.575700
  H    -115.834000   27.694200  -16.592200
  C    -116.683000   28.755200  -18.263200
  H    -117.379000   28.633000  -19.117100
  H    -116.842000   29.770500  -17.844500
  C    -115.295000   28.736900  -18.878000
  H    -114.502000   28.881600  -18.170600
  H    -114.980000   27.824900  -19.449500
  H    -115.301000   29.571500  -19.561400
  S    -118.746000   25.437700  -12.132100
  C    -119.153000   25.784900  -10.498800
  C    -119.884000   27.003000  -10.512100
  C    -120.033000   27.595600  -11.817900
  C    -119.364000   26.888200  -12.834000
  H    -120.250000   27.349100   -9.558840
  C    -120.675000   28.924700  -11.949100
  H    -120.224000   29.460700  -12.757300
  H    -120.500000   29.477600  -11.058600
  C    -122.167000   28.951500  -12.331000
  H    -122.237000   28.754800  -13.398400
  H    -122.549000   29.946900  -12.174300
  C    -123.094000   28.023200  -11.534500
  H    -122.843000   28.012800  -10.502400
  H    -123.340000   27.056000  -11.929200
  H    -124.059000   28.525800  -11.693100
  H    -119.543000   27.954200  -17.720500
  H    -118.800000   25.225200   -9.689930

 Total Charge           Charge          ....    0
 Multiplicity           Mult            ....    1
 Number of Electrons    NEL             ....  134
 Basis Dimension        Dim             ....  322

ORBITAL ENERGIES
----------------

  NO   OCC          E(Eh)            E(eV)
   0   2.0000     -88.969281     -2420.9772
   1   2.0000     -88.963168     -2420.8109
   2   2.0000     -10.331671      -281.1391
   3   2.0000     -10.327885      -281.0360
   4   2.0000     -10.315898      -280.7099
   5   2.0000     -10.313418      -280.6424
   6   2.0000     -10.302043      -280.3328
   7   2.0000     -10.301215      -280.3103
   8   2.0000     -10.296473      -280.1813
   9   2.0000     -10.293678      -280.1052
  10   2.0000     -10.292223      -280.0656
  11   2.0000     -10.291116      -280.0355
  12   2.0000     -10.278218      -279.6845
  13   2.0000     -10.277695      -279.6703
  14   2.0000     -10.275829      -279.6195
  15   2.0000     -10.265608      -279.3414
  16   2.0000      -8.083426      -219.9612
  17   2.0000      -8.078576      -219.8292
  18   2.0000      -6.042024      -164.4118
  19   2.0000      -6.038002      -164.3024
  20   2.0000      -6.036998      -164.2751
  21   2.0000      -6.034134      -164.1971
  22   2.0000      -6.032594      -164.1552
  23   2.0000      -6.029788      -164.0789
  24   2.0000      -1.007609       -27.4184
  25   2.0000      -0.986892       -26.8547
  26   2.0000      -0.914732       -24.8911
  27   2.0000      -0.907933       -24.7061
  28   2.0000      -0.868153       -23.6236
  29   2.0000      -0.851678       -23.1753
  30   2.0000      -0.845040       -22.9947
  31   2.0000      -0.815547       -22.1922
  32   2.0000      -0.783924       -21.3317
  33   2.0000      -0.774972       -21.0880
  34   2.0000      -0.708117       -19.2688
  35   2.0000      -0.700457       -19.0604
  36   2.0000      -0.688719       -18.7410
  37   2.0000      -0.664516       -18.0824
  38   2.0000      -0.642554       -17.4848
  39   2.0000      -0.617334       -16.7985
  40   2.0000      -0.589187       -16.0326
  41   2.0000      -0.574687       -15.6380
  42   2.0000      -0.566139       -15.4054
  43   2.0000      -0.563759       -15.3407
  44   2.0000      -0.540333       -14.7032
  45   2.0000      -0.529477       -14.4078
  46   2.0000      -0.522100       -14.2071
  47   2.0000      -0.514461       -13.9992
  48   2.0000      -0.509525       -13.8649
  49   2.0000      -0.494639       -13.4598
  50   2.0000      -0.488329       -13.2881
  51   2.0000      -0.477929       -13.0051
  52   2.0000      -0.474203       -12.9037
  53   2.0000      -0.471071       -12.8185
  54   2.0000      -0.456862       -12.4318
  55   2.0000      -0.452848       -12.3226
  56   2.0000      -0.437737       -11.9114
  57   2.0000      -0.434274       -11.8172
  58   2.0000      -0.427789       -11.6407
  59   2.0000      -0.423346       -11.5198
  60   2.0000      -0.420377       -11.4390
  61   2.0000      -0.415847       -11.3158
  62   2.0000      -0.402157       -10.9433
  63   2.0000      -0.341553        -9.2941
  64   2.0000      -0.332718        -9.0537
  65   2.0000      -0.323759        -8.8099
  66   2.0000      -0.299979        -8.1629
  67   0.0000       0.033406         0.9090
  68   0.0000       0.067863         1.8466
  69   0.0000       0.108903         2.9634
  70   0.0000       0.124263         3.3814
  71   0.0000       0.133926         3.6443

MULLIKEN ATOMIC CHARGES
-----------------------
   0 S :    0.111451
   1 C :   -0.113546
   2 C :   -0.057660
   3 C :    0.037082
   4 C :   -0.147883
   5 H :    0.006732
   6 C :    0.058491
   7 H :    0.033088
   8 H :    0.011000
   9 C :   -0.082946
  10 H :    0.036890
  11 H :    0.039456
  12 C :   -0.059358
  13 H :    0.024481
  14 H :    0.036760
  15 H :    0.028740
  16 S :    0.110516
  17 C :   -0.094764
  18 C :   -0.044722
  19 C :   -0.027327
  20 C :   -0.152675
  21 H :    0.018626
  22 C :    0.091338
  23 H :    0.019372
  24 H :    0.012999
  25 C :   -0.077933
  26 H :    0.022752
  27 H :    0.023492
  28 C :   -0.026223
  29 H :    0.023281
  30 H :    0.032163
  31 H :    0.019417
  32 H :    0.038029
  33 H :    0.048881
Sum of atomic charges:   -0.0000000

LOEWDIN ATOMIC CHARGES
----------------------
   0 S :    0.412881
   1 C :   -0.185745
   2 C :   -0.058480
   3 C :   -0.058245
   4 C :   -0.191420
   5 H :    0.030782
   6 C :   -0.041269
   7 H :    0.036249
   8 H :    0.032226
   9 C :   -0.044119
  10 H :    0.026964
  11 H :    0.030856
  12 C :   -0.066205
  13 H :    0.018963
  14 H :    0.029035
  15 H :    0.026015
  16 S :    0.436728
  17 C :   -0.193161
  18 C :   -0.069900
  19 C :   -0.056868
  20 C :   -0.213534
  21 H :    0.026956
  22 C :   -0.035674
  23 H :    0.029850
  24 H :    0.025599
  25 C :   -0.035587
  26 H :    0.013774
  27 H :    0.022589
  28 C :   -0.068222
  29 H :    0.018391
  30 H :    0.024751
  31 H :    0.031422
  32 H :    0.023209
  33 H :    0.021189

  Mayer bond orders larger than 0.100000
B(  0-S ,  1-C ) :   1.1247 B(  0-S ,  4-C ) :   1.1533 B(  1-C ,  2-C ) :   1.6216
B(  1-C , 32-H ) :   0.9753 B(  2-C ,  3-C ) :   1.2367 B(  2-C ,  6-C ) :   1.0128
B(  3-C ,  4-C ) :   1.5886 B(  3-C ,  5-H ) :   0.9996 B(  4-C , 20-C ) :   1.0003
B(  6-C ,  7-H ) :   0.9281 B(  6-C ,  8-H ) :   0.9449 B(  6-C ,  9-C ) :   1.0662
B(  9-C , 10-H ) :   0.9482 B(  9-C , 11-H ) :   0.9588 B(  9-C , 12-C ) :   1.0885
B( 12-C , 13-H ) :   0.9741 B( 12-C , 14-H ) :   0.9744 B( 12-C , 15-H ) :   0.9741
B( 16-S , 17-C ) :   1.1910 B( 16-S , 20-C ) :   1.1689 B( 17-C , 18-C ) :   1.5346
B( 17-C , 20-C ) :   0.1078 B( 17-C , 33-H ) :   0.9811 B( 18-C , 19-C ) :   1.2767
B( 18-C , 21-H ) :   0.9959 B( 19-C , 20-C ) :   1.5287 B( 19-C , 22-C ) :   1.0606
B( 22-C , 23-H ) :   0.9264 B( 22-C , 24-H ) :   0.9335 B( 22-C , 25-C ) :   1.0814
B( 25-C , 26-H ) :   0.9484 B( 25-C , 27-H ) :   0.9605 B( 25-C , 28-C ) :   1.0766
B( 28-C , 29-H ) :   0.9768 B( 28-C , 30-H ) :   0.9734 B( 28-C , 31-H ) :   0.9744

Dispersion correction           -0.014347930
FINAL SINGLE POINT ENERGY     -1339.880860643244

DIPOLE MOMENT
-------------
                                X             Y             Z
Electronic contribution:     -2.71750     -12.51618       9.14345
Nuclear contribution   :      3.03798      12.79487      -9.28999
                        -----------------------------------------
Total Dipole Moment    :      0.32048       0.27869      -0.14654
                        -----------------------------------------
Magnitude (a.u.)       :      0.44928
Magnitude (Debye)      :      1.14198

Rotational constants in cm-1:     0.025135     0.007079     0.006013
Rotational constants in MHz :   753.535239   212.227778   180.250680

                             ****ORCA TERMINATED NORMALLY****
TOTAL RUN TIME: 0 days 0 hours 0 minutes 21 seconds 643 msec
