                         Program Version 4.2.1 -  RELEASE  -
|  1> ! wB97X-D3 SP def2-SVP
|  2> %pal
|  3> nprocs 24
|  4> end
|  5>
|  6> * xyz 0 1
|  7> S 	 -93.7357 	 46.7175 	 -90.5891
|  8> C 	 -92.9743 	 45.1692 	 -90.4677
|  9> C 	 -93.885 	 44.1426 	 -90.1633
| 10> C 	 -95.1878 	 44.668 	 -90.0095
| 11> C 	 -95.2426 	 46.0582 	 -90.0853
| 12> H 	 -95.98 	 44.0541 	 -89.756
| 13> C 	 -93.6743 	 42.6444 	 -89.9455
| 14> H 	 -94.3893 	 42.4346 	 -89.1537
| 15> H 	 -92.6039 	 42.5738 	 -89.6174
| 16> C 	 -93.9038 	 41.7771 	 -91.1557
| 17> H 	 -93.1073 	 41.8717 	 -91.8366
| 18> H 	 -93.8382 	 40.7787 	 -90.7432
| 19> C 	 -95.3296 	 41.8437 	 -91.8283
| 20> H 	 -95.3906 	 41.202 	 -92.6833
| 21> H 	 -96.1593 	 41.6899 	 -91.1786
| 22> H 	 -95.3803 	 42.8618 	 -92.2413
| 23> S 	 -95.9945 	 48.1793 	 -88.6072
| 24> C 	 -97.6245 	 48.805 	 -88.7767
| 25> C 	 -98.3818 	 48.1034 	 -89.627
| 26> C 	 -97.6524 	 47.0138 	 -90.2187
| 27> C 	 -96.373 	 46.8669 	 -89.7206
| 28> H 	 -99.3998 	 48.4586 	 -89.8142
| 29> C 	 -98.3115 	 46.1772 	 -91.3285
| 30> H 	 -97.5405 	 45.9892 	 -91.9944
| 31> H 	 -99.0662 	 46.8034 	 -91.8448
| 32> C 	 -98.9503 	 44.8205 	 -90.9527
| 33> H 	 -99.7444 	 44.956 	 -90.1196
| 34> H 	 -98.2346 	 44.161 	 -90.4348
| 35> C 	 -99.5445 	 44.1472 	 -92.2917
| 36> H 	 -100.484 	 44.6367 	 -92.5427
| 37> H 	 -99.6527 	 43.069 	 -92.3256
| 38> H 	 -98.9297 	 44.4634 	 -93.1574
| 39> H 	 -91.9341 	 45.007 	 -90.4669
| 40> H 	 -97.9482 	 49.7523 	 -88.3476
| 41> *
| 42>
| 43>                          ****END OF INPUT****

CARTESIAN COORDINATES (ANGSTROEM)
---------------------------------
  S    -93.735700   46.717500  -90.589100
  C    -92.974300   45.169200  -90.467700
  C    -93.885000   44.142600  -90.163300
  C    -95.187800   44.668000  -90.009500
  C    -95.242600   46.058200  -90.085300
  H    -95.980000   44.054100  -89.756000
  C    -93.674300   42.644400  -89.945500
  H    -94.389300   42.434600  -89.153700
  H    -92.603900   42.573800  -89.617400
  C    -93.903800   41.777100  -91.155700
  H    -93.107300   41.871700  -91.836600
  H    -93.838200   40.778700  -90.743200
  C    -95.329600   41.843700  -91.828300
  H    -95.390600   41.202000  -92.683300
  H    -96.159300   41.689900  -91.178600
  H    -95.380300   42.861800  -92.241300
  S    -95.994500   48.179300  -88.607200
  C    -97.624500   48.805000  -88.776700
  C    -98.381800   48.103400  -89.627000
  C    -97.652400   47.013800  -90.218700
  C    -96.373000   46.866900  -89.720600
  H    -99.399800   48.458600  -89.814200
  C    -98.311500   46.177200  -91.328500
  H    -97.540500   45.989200  -91.994400
  H    -99.066200   46.803400  -91.844800
  C    -98.950300   44.820500  -90.952700
  H    -99.744400   44.956000  -90.119600
  H    -98.234600   44.161000  -90.434800
  C    -99.544500   44.147200  -92.291700
  H    -100.484000   44.636700  -92.542700
  H    -99.652700   43.069000  -92.325600
  H    -98.929700   44.463400  -93.157400
  H    -91.934100   45.007000  -90.466900
  H    -97.948200   49.752300  -88.347600

 Total Charge           Charge          ....    0
 Multiplicity           Mult            ....    1
 Number of Electrons    NEL             ....  134
 Basis Dimension        Dim             ....  322

ORBITAL ENERGIES
----------------

  NO   OCC          E(Eh)            E(eV)
   0   2.0000     -88.969562     -2420.9849
   1   2.0000     -88.960589     -2420.7407
   2   2.0000     -10.324690      -280.9491
   3   2.0000     -10.323419      -280.9145
   4   2.0000     -10.311383      -280.5870
   5   2.0000     -10.309425      -280.5337
   6   2.0000     -10.304264      -280.3933
   7   2.0000     -10.301073      -280.3065
   8   2.0000     -10.296481      -280.1815
   9   2.0000     -10.295585      -280.1571
  10   2.0000     -10.289688      -279.9966
  11   2.0000     -10.289171      -279.9826
  12   2.0000     -10.284978      -279.8685
  13   2.0000     -10.284499      -279.8554
  14   2.0000     -10.284396      -279.8526
  15   2.0000     -10.277440      -279.6634
  16   2.0000      -8.084782      -219.9981
  17   2.0000      -8.075617      -219.7487
  18   2.0000      -6.043174      -164.4431
  19   2.0000      -6.039187      -164.3346
  20   2.0000      -6.035678      -164.2391
  21   2.0000      -6.034135      -164.1972
  22   2.0000      -6.030173      -164.0894
  23   2.0000      -6.026240      -163.9823
  24   2.0000      -1.010054       -27.4850
  25   2.0000      -0.985508       -26.8170
  26   2.0000      -0.914850       -24.8943
  27   2.0000      -0.899651       -24.4807
  28   2.0000      -0.871519       -23.7152
  29   2.0000      -0.850159       -23.1340
  30   2.0000      -0.840619       -22.8744
  31   2.0000      -0.813968       -22.1492
  32   2.0000      -0.785763       -21.3817
  33   2.0000      -0.770584       -20.9687
  34   2.0000      -0.708957       -19.2917
  35   2.0000      -0.707028       -19.2392
  36   2.0000      -0.695591       -18.9280
  37   2.0000      -0.661197       -17.9921
  38   2.0000      -0.642637       -17.4870
  39   2.0000      -0.617153       -16.7936
  40   2.0000      -0.592425       -16.1207
  41   2.0000      -0.575656       -15.6644
  42   2.0000      -0.558960       -15.2101
  43   2.0000      -0.549026       -14.9398
  44   2.0000      -0.541382       -14.7318
  45   2.0000      -0.520979       -14.1765
  46   2.0000      -0.516303       -14.0493
  47   2.0000      -0.509457       -13.8630
  48   2.0000      -0.503625       -13.7043
  49   2.0000      -0.497118       -13.5273
  50   2.0000      -0.485383       -13.2079
  51   2.0000      -0.477983       -13.0066
  52   2.0000      -0.476582       -12.9685
  53   2.0000      -0.462947       -12.5974
  54   2.0000      -0.459896       -12.5144
  55   2.0000      -0.452099       -12.3022
  56   2.0000      -0.445169       -12.1137
  57   2.0000      -0.444713       -12.1012
  58   2.0000      -0.441011       -12.0005
  59   2.0000      -0.432186       -11.7604
  60   2.0000      -0.417110       -11.3501
  61   2.0000      -0.415115       -11.2959
  62   2.0000      -0.404514       -11.0074
  63   2.0000      -0.344788        -9.3821
  64   2.0000      -0.331798        -9.0287
  65   2.0000      -0.328351        -8.9349
  66   2.0000      -0.292513        -7.9597
  67   0.0000       0.030331         0.8253
  68   0.0000       0.072515         1.9732
  69   0.0000       0.116825         3.1790
  70   0.0000       0.122655         3.3376
  71   0.0000       0.126068         3.4305

MULLIKEN ATOMIC CHARGES
-----------------------
   0 S :    0.140171
   1 C :   -0.116984
   2 C :   -0.115450
   3 C :    0.056442
   4 C :   -0.149781
   5 H :   -0.031553
   6 C :    0.065049
   7 H :    0.028623
   8 H :    0.031937
   9 C :   -0.033826
  10 H :    0.020498
  11 H :    0.025021
  12 C :   -0.056509
  13 H :    0.032908
  14 H :    0.030557
  15 H :    0.042652
  16 S :    0.089749
  17 C :   -0.086796
  18 C :   -0.031197
  19 C :   -0.036062
  20 C :   -0.159108
  21 H :    0.023734
  22 C :    0.084522
  23 H :    0.014175
  24 H :    0.024152
  25 C :   -0.091859
  26 H :    0.039129
  27 H :    0.026227
  28 C :   -0.049830
  29 H :    0.029863
  30 H :    0.044226
  31 H :    0.027958
  32 H :    0.027410
  33 H :    0.053952
Sum of atomic charges:   -0.0000000

LOEWDIN ATOMIC CHARGES
----------------------
   0 S :    0.435780
   1 C :   -0.208155
   2 C :   -0.060860
   3 C :   -0.052688
   4 C :   -0.210135
   5 H :    0.013370
   6 C :   -0.029315
   7 H :    0.031500
   8 H :    0.038724
   9 C :   -0.032133
  10 H :    0.019336
  11 H :    0.024345
  12 C :   -0.062305
  13 H :    0.025369
  14 H :    0.019481
  15 H :    0.029919
  16 S :    0.390348
  17 C :   -0.177769
  18 C :   -0.077042
  19 C :   -0.050265
  20 C :   -0.194759
  21 H :    0.037784
  22 C :   -0.028014
  23 H :    0.021195
  24 H :    0.033099
  25 C :   -0.042022
  26 H :    0.029917
  27 H :    0.018642
  28 C :   -0.070132
  29 H :    0.026189
  30 H :    0.025454
  31 H :    0.028735
  32 H :    0.016564
  33 H :    0.029845

  Mayer bond orders larger than 0.100000
B(  0-S ,  1-C ) :   1.1481 B(  0-S ,  4-C ) :   1.1705 B(  1-C ,  2-C ) :   1.5849
B(  1-C , 32-H ) :   0.9715 B(  2-C ,  3-C ) :   1.2830 B(  2-C ,  6-C ) :   1.0050
B(  3-C ,  4-C ) :   1.5222 B(  3-C ,  5-H ) :   1.0023 B(  4-C , 20-C ) :   1.0565
B(  6-C ,  7-H ) :   0.9405 B(  6-C ,  8-H ) :   0.9364 B(  6-C ,  9-C ) :   1.0849
B(  9-C , 10-H ) :   0.9551 B(  9-C , 11-H ) :   0.9528 B(  9-C , 12-C ) :   1.0769
B( 12-C , 13-H ) :   0.9733 B( 12-C , 14-H ) :   0.9755 B( 12-C , 15-H ) :   0.9718
B( 16-S , 17-C ) :   1.1415 B( 16-S , 20-C ) :   1.1212 B( 17-C , 18-C ) :   1.6550
B( 17-C , 33-H ) :   0.9606 B( 18-C , 19-C ) :   1.2081 B( 18-C , 21-H ) :   0.9906
B( 19-C , 20-C ) :   1.6239 B( 19-C , 22-C ) :   1.0366 B( 22-C , 23-H ) :   0.9210
B( 22-C , 24-H ) :   0.9423 B( 22-C , 25-C ) :   1.0629 B( 25-C , 26-H ) :   0.9584
B( 25-C , 27-H ) :   0.9580 B( 25-C , 28-C ) :   1.0496 B( 28-C , 29-H ) :   0.9764
B( 28-C , 30-H ) :   0.9788 B( 28-C , 31-H ) :   0.9757

Dispersion correction           -0.015021197
FINAL SINGLE POINT ENERGY     -1339.874370281346

DIPOLE MOMENT
-------------
                                X             Y             Z
Electronic contribution:     12.49324      25.33027      12.09832
Nuclear contribution   :    -12.76243     -25.76081     -12.34313
                        -----------------------------------------
Total Dipole Moment    :     -0.26920      -0.43054      -0.24481
                        -----------------------------------------
Magnitude (a.u.)       :      0.56371
Magnitude (Debye)      :      1.43283

Rotational constants in cm-1:     0.016865     0.010563     0.007054
Rotational constants in MHz :   505.596651   316.658766   211.476152

                             ****ORCA TERMINATED NORMALLY****
TOTAL RUN TIME: 0 days 0 hours 0 minutes 22 seconds 442 msec
