                         Program Version 4.2.1 -  RELEASE  -
|  1> ! wB97X-D3 SP def2-SVP
|  2> %pal
|  3> nprocs 24
|  4> end
|  5>
|  6> * xyz 0 1
|  7> S 	 -48.0182 	 -43.8895 	 -77.1514
|  8> C 	 -48.4177 	 -42.2215 	 -77.2767
|  9> C 	 -47.4018 	 -41.3891 	 -76.776
| 10> C 	 -46.2942 	 -42.1871 	 -76.276
| 11> C 	 -46.4913 	 -43.5787 	 -76.4941
| 12> H 	 -45.296 	 -41.8455 	 -75.9664
| 13> C 	 -47.5339 	 -39.8171 	 -76.7397
| 14> H 	 -47.1105 	 -39.3598 	 -75.8724
| 15> H 	 -48.5773 	 -39.6595 	 -76.5756
| 16> C 	 -47.0278 	 -39.1791 	 -77.9642
| 17> H 	 -46.0714 	 -39.5674 	 -78.2682
| 18> H 	 -47.6223 	 -39.3746 	 -78.8827
| 19> C 	 -47.0092 	 -37.6719 	 -77.9312
| 20> H 	 -46.2281 	 -37.2559 	 -77.262
| 21> H 	 -46.8047 	 -37.316 	 -78.8891
| 22> H 	 -47.9529 	 -37.3353 	 -77.4404
| 23> S 	 -46.0541 	 -45.549 	 -74.6139
| 24> C 	 -44.763 	 -46.6495 	 -74.8634
| 25> C 	 -44.0244 	 -46.3361 	 -76.0004
| 26> C 	 -44.4726 	 -45.1736 	 -76.6227
| 27> C 	 -45.623 	 -44.6703 	 -76.0445
| 28> H 	 -43.2742 	 -47.0284 	 -76.2237
| 29> C 	 -43.9384 	 -44.7247 	 -77.9317
| 30> H 	 -42.832 	 -44.7976 	 -77.8354
| 31> H 	 -44.1359 	 -43.5791 	 -78.009
| 32> C 	 -44.3886 	 -45.6349 	 -79.1058
| 33> H 	 -45.464 	 -45.7248 	 -79.0572
| 34> H 	 -44.1368 	 -46.7088 	 -78.9347
| 35> C 	 -44.093 	 -45.1616 	 -80.4132
| 36> H 	 -44.8637 	 -44.4718 	 -80.8879
| 37> H 	 -44.1846 	 -45.9085 	 -81.1778
| 38> H 	 -43.029 	 -44.897 	 -80.5238
| 39> H 	 -49.311 	 -41.8653 	 -77.7689
| 40> H 	 -44.6134 	 -47.5942 	 -74.361
| 41> *
| 42>
| 43>                          ****END OF INPUT****

CARTESIAN COORDINATES (ANGSTROEM)
---------------------------------
  S    -48.018200  -43.889500  -77.151400
  C    -48.417700  -42.221500  -77.276700
  C    -47.401800  -41.389100  -76.776000
  C    -46.294200  -42.187100  -76.276000
  C    -46.491300  -43.578700  -76.494100
  H    -45.296000  -41.845500  -75.966400
  C    -47.533900  -39.817100  -76.739700
  H    -47.110500  -39.359800  -75.872400
  H    -48.577300  -39.659500  -76.575600
  C    -47.027800  -39.179100  -77.964200
  H    -46.071400  -39.567400  -78.268200
  H    -47.622300  -39.374600  -78.882700
  C    -47.009200  -37.671900  -77.931200
  H    -46.228100  -37.255900  -77.262000
  H    -46.804700  -37.316000  -78.889100
  H    -47.952900  -37.335300  -77.440400
  S    -46.054100  -45.549000  -74.613900
  C    -44.763000  -46.649500  -74.863400
  C    -44.024400  -46.336100  -76.000400
  C    -44.472600  -45.173600  -76.622700
  C    -45.623000  -44.670300  -76.044500
  H    -43.274200  -47.028400  -76.223700
  C    -43.938400  -44.724700  -77.931700
  H    -42.832000  -44.797600  -77.835400
  H    -44.135900  -43.579100  -78.009000
  C    -44.388600  -45.634900  -79.105800
  H    -45.464000  -45.724800  -79.057200
  H    -44.136800  -46.708800  -78.934700
  C    -44.093000  -45.161600  -80.413200
  H    -44.863700  -44.471800  -80.887900
  H    -44.184600  -45.908500  -81.177800
  H    -43.029000  -44.897000  -80.523800
  H    -49.311000  -41.865300  -77.768900
  H    -44.613400  -47.594200  -74.361000

 Total Charge           Charge          ....    0
 Multiplicity           Mult            ....    1
 Number of Electrons    NEL             ....  134
 Basis Dimension        Dim             ....  322

ORBITAL ENERGIES
----------------

  NO   OCC          E(Eh)            E(eV)
   0   2.0000     -88.968649     -2420.9600
   1   2.0000     -88.964727     -2420.8533
   2   2.0000     -10.325635      -280.9748
   3   2.0000     -10.318795      -280.7887
   4   2.0000     -10.313221      -280.6370
   5   2.0000     -10.310660      -280.5673
   6   2.0000     -10.309839      -280.5450
   7   2.0000     -10.300545      -280.2921
   8   2.0000     -10.294437      -280.1259
   9   2.0000     -10.294125      -280.1174
  10   2.0000     -10.289909      -280.0027
  11   2.0000     -10.283924      -279.8398
  12   2.0000     -10.279674      -279.7242
  13   2.0000     -10.278823      -279.7010
  14   2.0000     -10.275089      -279.5994
  15   2.0000     -10.271577      -279.5038
  16   2.0000      -8.084540      -219.9915
  17   2.0000      -8.080249      -219.8747
  18   2.0000      -6.042772      -164.4322
  19   2.0000      -6.038661      -164.3203
  20   2.0000      -6.038501      -164.3160
  21   2.0000      -6.035763      -164.2415
  22   2.0000      -6.034562      -164.2088
  23   2.0000      -6.031328      -164.1208
  24   2.0000      -1.011234       -27.5171
  25   2.0000      -0.988501       -26.8985
  26   2.0000      -0.919175       -25.0120
  27   2.0000      -0.914966       -24.8975
  28   2.0000      -0.868571       -23.6350
  29   2.0000      -0.862267       -23.4635
  30   2.0000      -0.847024       -23.0487
  31   2.0000      -0.812492       -22.1090
  32   2.0000      -0.785849       -21.3840
  33   2.0000      -0.769409       -20.9367
  34   2.0000      -0.701884       -19.0992
  35   2.0000      -0.697034       -18.9673
  36   2.0000      -0.691760       -18.8237
  37   2.0000      -0.660810       -17.9816
  38   2.0000      -0.647223       -17.6118
  39   2.0000      -0.613954       -16.7065
  40   2.0000      -0.594105       -16.1664
  41   2.0000      -0.576349       -15.6832
  42   2.0000      -0.562233       -15.2991
  43   2.0000      -0.556984       -15.1563
  44   2.0000      -0.540810       -14.7162
  45   2.0000      -0.527268       -14.3477
  46   2.0000      -0.525355       -14.2956
  47   2.0000      -0.515036       -14.0148
  48   2.0000      -0.506429       -13.7806
  49   2.0000      -0.497186       -13.5291
  50   2.0000      -0.492324       -13.3968
  51   2.0000      -0.481737       -13.1087
  52   2.0000      -0.468790       -12.7564
  53   2.0000      -0.465598       -12.6696
  54   2.0000      -0.456123       -12.4117
  55   2.0000      -0.452305       -12.3078
  56   2.0000      -0.444237       -12.0883
  57   2.0000      -0.439191       -11.9510
  58   2.0000      -0.430684       -11.7195
  59   2.0000      -0.422261       -11.4903
  60   2.0000      -0.418136       -11.3781
  61   2.0000      -0.405466       -11.0333
  62   2.0000      -0.399523       -10.8716
  63   2.0000      -0.336988        -9.1699
  64   2.0000      -0.328717        -8.9448
  65   2.0000      -0.324878        -8.8404
  66   2.0000      -0.303106        -8.2479
  67   0.0000       0.043832         1.1927
  68   0.0000       0.060224         1.6388
  69   0.0000       0.119786         3.2596
  70   0.0000       0.129462         3.5229
  71   0.0000       0.131859         3.5881

MULLIKEN ATOMIC CHARGES
-----------------------
   0 S :    0.140219
   1 C :   -0.124503
   2 C :   -0.108690
   3 C :    0.050427
   4 C :   -0.208110
   5 H :    0.023910
   6 C :    0.113246
   7 H :    0.015747
   8 H :    0.011762
   9 C :   -0.074876
  10 H :    0.017753
  11 H :    0.020376
  12 C :   -0.023898
  13 H :    0.024623
  14 H :    0.025855
  15 H :    0.027680
  16 S :    0.134131
  17 C :   -0.102871
  18 C :   -0.042934
  19 C :    0.000154
  20 C :   -0.183311
  21 H :   -0.003562
  22 C :    0.051461
  23 H :    0.023198
  24 H :    0.045813
  25 C :   -0.049781
  26 H :    0.011406
  27 H :    0.026137
  28 C :   -0.020652
  29 H :    0.043525
  30 H :    0.006919
  31 H :    0.026308
  32 H :    0.048935
  33 H :    0.053603
Sum of atomic charges:    0.0000000

LOEWDIN ATOMIC CHARGES
----------------------
   0 S :    0.457046
   1 C :   -0.213650
   2 C :   -0.053225
   3 C :   -0.064489
   4 C :   -0.225284
   5 H :    0.034296
   6 C :   -0.025273
   7 H :    0.028369
   8 H :    0.028290
   9 C :   -0.049432
  10 H :    0.021165
  11 H :    0.027822
  12 C :   -0.059849
  13 H :    0.023307
  14 H :    0.018619
  15 H :    0.028792
  16 S :    0.434133
  17 C :   -0.197382
  18 C :   -0.067464
  19 C :   -0.060834
  20 C :   -0.217152
  21 H :    0.024053
  22 C :   -0.037744
  23 H :    0.030457
  24 H :    0.042960
  25 C :   -0.052318
  26 H :    0.025496
  27 H :    0.031084
  28 C :   -0.079290
  29 H :    0.039766
  30 H :    0.025410
  31 H :    0.027257
  32 H :    0.026272
  33 H :    0.028794

  Mayer bond orders larger than 0.100000
B(  0-S ,  1-C ) :   1.1684 B(  0-S ,  4-C ) :   1.1996 B(  1-C ,  2-C ) :   1.5781
B(  1-C ,  4-C ) :   0.1024 B(  1-C , 32-H ) :   0.9689 B(  2-C ,  3-C ) :   1.2734
B(  2-C ,  6-C ) :   1.0065 B(  3-C ,  4-C ) :   1.5406 B(  3-C ,  5-H ) :   0.9889
B(  4-C , 20-C ) :   0.9981 B(  6-C ,  7-H ) :   0.9469 B(  6-C ,  8-H ) :   0.9313
B(  6-C ,  9-C ) :   1.0709 B(  9-C , 10-H ) :   0.9530 B(  9-C , 11-H ) :   0.9512
B(  9-C , 12-C ) :   1.0886 B( 12-C , 13-H ) :   0.9725 B( 12-C , 14-H ) :   0.9741
B( 12-C , 15-H ) :   0.9710 B( 16-S , 17-C ) :   1.1768 B( 16-S , 20-C ) :   1.1664
B( 17-C , 18-C ) :   1.5963 B( 17-C , 20-C ) :   0.1036 B( 17-C , 33-H ) :   0.9640
B( 18-C , 19-C ) :   1.2437 B( 18-C , 21-H ) :   1.0058 B( 19-C , 20-C ) :   1.5783
B( 19-C , 22-C ) :   1.0646 B( 22-C , 23-H ) :   0.9198 B( 22-C , 24-H ) :   0.9297
B( 22-C , 25-C ) :   1.0520 B( 25-C , 26-H ) :   0.9454 B( 25-C , 27-H ) :   0.9456
B( 25-C , 28-C ) :   1.1185 B( 28-C , 29-H ) :   0.9676 B( 28-C , 30-H ) :   0.9567
B( 28-C , 31-H ) :   0.9644

Dispersion correction           -0.014063620
FINAL SINGLE POINT ENERGY     -1339.863190896283

DIPOLE MOMENT
-------------
                                X             Y             Z
Electronic contribution:     -7.97417     -17.75383      18.12769
Nuclear contribution   :      8.14095      17.89383     -18.52259
                        -----------------------------------------
Total Dipole Moment    :      0.16678       0.14000      -0.39489
                        -----------------------------------------
Magnitude (a.u.)       :      0.45095
Magnitude (Debye)      :      1.14622

Rotational constants in cm-1:     0.019747     0.007824     0.006605
Rotational constants in MHz :   591.986777   234.555531   198.005607

                             ****ORCA TERMINATED NORMALLY****
TOTAL RUN TIME: 0 days 0 hours 0 minutes 21 seconds 264 msec
