                         Program Version 4.2.1 -  RELEASE  -
|  1> ! wB97X-D3 SP def2-SVP
|  2> %pal
|  3> nprocs 24
|  4> end
|  5>
|  6> * xyz 0 1
|  7> S 	 -76.2841 	 -5.13597 	 -58.6756
|  8> C 	 -76.7955 	 -3.71504 	 -59.397
|  9> C 	 -78.1091 	 -3.81479 	 -59.8707
| 10> C 	 -78.4763 	 -5.19058 	 -59.9142
| 11> C 	 -77.6587 	 -6.0325 	 -59.1807
| 12> H 	 -79.3863 	 -5.62079 	 -60.2376
| 13> C 	 -78.9608 	 -2.69086 	 -60.4605
| 14> H 	 -78.2868 	 -1.99613 	 -60.8689
| 15> H 	 -79.549 	 -2.21375 	 -59.624
| 16> C 	 -79.8507 	 -3.11006 	 -61.6344
| 17> H 	 -79.2961 	 -3.50561 	 -62.4677
| 18> H 	 -80.6415 	 -3.81266 	 -61.424
| 19> C 	 -80.5949 	 -1.81417 	 -62.1073
| 20> H 	 -79.6415 	 -1.19204 	 -62.4872
| 21> H 	 -81.3074 	 -1.90448 	 -62.9686
| 22> H 	 -81.0875 	 -1.26564 	 -61.336
| 23> S 	 -76.8227 	 -8.63164 	 -59.6984
| 24> C 	 -77.5392 	 -9.91812 	 -58.8195
| 25> C 	 -78.5834 	 -9.50438 	 -58.0535
| 26> C 	 -78.7374 	 -8.06771 	 -58.0853
| 27> C 	 -77.7996 	 -7.43535 	 -58.931
| 28> H 	 -79.2504 	 -10.2296 	 -57.6135
| 29> C 	 -79.7328 	 -7.3861 	 -57.1782
| 30> H 	 -80.7533 	 -7.48233 	 -57.6368
| 31> H 	 -79.509 	 -6.31899 	 -57.0322
| 32> C 	 -79.8668 	 -7.88086 	 -55.7711
| 33> H 	 -80.2035 	 -8.8645 	 -55.6887
| 34> H 	 -80.6028 	 -7.35462 	 -55.1571
| 35> C 	 -78.5186 	 -7.68453 	 -55.08
| 36> H 	 -77.952 	 -6.69442 	 -55.2053
| 37> H 	 -77.765 	 -8.38319 	 -55.3719
| 38> H 	 -78.5673 	 -7.92255 	 -53.9955
| 39> H 	 -76.4075 	 -2.6941 	 -59.1744
| 40> H 	 -77.3284 	 -10.9349 	 -59.0901
| 41> *
| 42>
| 43>                          ****END OF INPUT****

CARTESIAN COORDINATES (ANGSTROEM)
---------------------------------
  S    -76.284100   -5.135970  -58.675600
  C    -76.795500   -3.715040  -59.397000
  C    -78.109100   -3.814790  -59.870700
  C    -78.476300   -5.190580  -59.914200
  C    -77.658700   -6.032500  -59.180700
  H    -79.386300   -5.620790  -60.237600
  C    -78.960800   -2.690860  -60.460500
  H    -78.286800   -1.996130  -60.868900
  H    -79.549000   -2.213750  -59.624000
  C    -79.850700   -3.110060  -61.634400
  H    -79.296100   -3.505610  -62.467700
  H    -80.641500   -3.812660  -61.424000
  C    -80.594900   -1.814170  -62.107300
  H    -79.641500   -1.192040  -62.487200
  H    -81.307400   -1.904480  -62.968600
  H    -81.087500   -1.265640  -61.336000
  S    -76.822700   -8.631640  -59.698400
  C    -77.539200   -9.918120  -58.819500
  C    -78.583400   -9.504380  -58.053500
  C    -78.737400   -8.067710  -58.085300
  C    -77.799600   -7.435350  -58.931000
  H    -79.250400  -10.229600  -57.613500
  C    -79.732800   -7.386100  -57.178200
  H    -80.753300   -7.482330  -57.636800
  H    -79.509000   -6.318990  -57.032200
  C    -79.866800   -7.880860  -55.771100
  H    -80.203500   -8.864500  -55.688700
  H    -80.602800   -7.354620  -55.157100
  C    -78.518600   -7.684530  -55.080000
  H    -77.952000   -6.694420  -55.205300
  H    -77.765000   -8.383190  -55.371900
  H    -78.567300   -7.922550  -53.995500
  H    -76.407500   -2.694100  -59.174400
  H    -77.328400  -10.934900  -59.090100

 Total Charge           Charge          ....    0
 Multiplicity           Mult            ....    1
 Number of Electrons    NEL             ....  134
 Basis Dimension        Dim             ....  322

ORBITAL ENERGIES
----------------

  NO   OCC          E(Eh)            E(eV)
   0   2.0000     -88.964040     -2420.8346
   1   2.0000     -88.963758     -2420.8269
   2   2.0000     -10.323408      -280.9142
   3   2.0000     -10.320357      -280.8312
   4   2.0000     -10.312683      -280.6224
   5   2.0000     -10.310029      -280.5502
   6   2.0000     -10.306635      -280.4578
   7   2.0000     -10.300432      -280.2890
   8   2.0000     -10.296414      -280.1797
   9   2.0000     -10.292730      -280.0794
  10   2.0000     -10.290573      -280.0207
  11   2.0000     -10.289484      -279.9911
  12   2.0000     -10.288350      -279.9602
  13   2.0000     -10.287136      -279.9272
  14   2.0000     -10.279227      -279.7120
  15   2.0000     -10.272762      -279.5361
  16   2.0000      -8.080610      -219.8846
  17   2.0000      -8.079724      -219.8605
  18   2.0000      -6.038866      -164.3259
  19   2.0000      -6.038163      -164.3068
  20   2.0000      -6.034650      -164.2112
  21   2.0000      -6.033943      -164.1919
  22   2.0000      -6.031729      -164.1317
  23   2.0000      -6.030609      -164.1012
  24   2.0000      -1.014860       -27.6157
  25   2.0000      -0.992932       -27.0191
  26   2.0000      -0.915139       -24.9022
  27   2.0000      -0.913789       -24.8655
  28   2.0000      -0.875399       -23.8208
  29   2.0000      -0.848295       -23.0833
  30   2.0000      -0.843520       -22.9534
  31   2.0000      -0.815270       -22.1846
  32   2.0000      -0.778814       -21.1926
  33   2.0000      -0.766678       -20.8624
  34   2.0000      -0.712641       -19.3919
  35   2.0000      -0.701546       -19.0900
  36   2.0000      -0.689644       -18.7662
  37   2.0000      -0.654196       -17.8016
  38   2.0000      -0.645768       -17.5722
  39   2.0000      -0.620005       -16.8712
  40   2.0000      -0.603585       -16.4244
  41   2.0000      -0.573771       -15.6131
  42   2.0000      -0.571640       -15.5551
  43   2.0000      -0.555237       -15.1088
  44   2.0000      -0.540646       -14.7117
  45   2.0000      -0.521607       -14.1936
  46   2.0000      -0.517368       -14.0783
  47   2.0000      -0.504741       -13.7347
  48   2.0000      -0.502126       -13.6635
  49   2.0000      -0.495912       -13.4944
  50   2.0000      -0.492271       -13.3954
  51   2.0000      -0.480399       -13.0723
  52   2.0000      -0.465043       -12.6545
  53   2.0000      -0.460764       -12.5380
  54   2.0000      -0.457784       -12.4569
  55   2.0000      -0.447613       -12.1802
  56   2.0000      -0.444900       -12.1064
  57   2.0000      -0.442757       -12.0480
  58   2.0000      -0.429736       -11.6937
  59   2.0000      -0.423691       -11.5292
  60   2.0000      -0.423257       -11.5174
  61   2.0000      -0.411000       -11.1839
  62   2.0000      -0.408884       -11.1263
  63   2.0000      -0.340282        -9.2595
  64   2.0000      -0.327851        -8.9213
  65   2.0000      -0.325846        -8.8667
  66   2.0000      -0.302397        -8.2286
  67   0.0000       0.042027         1.1436
  68   0.0000       0.062760         1.7078
  69   0.0000       0.120239         3.2719
  70   0.0000       0.125394         3.4121
  71   0.0000       0.140389         3.8202

MULLIKEN ATOMIC CHARGES
-----------------------
   0 S :    0.136853
   1 C :   -0.114664
   2 C :   -0.126456
   3 C :    0.059937
   4 C :   -0.199222
   5 H :   -0.008580
   6 C :    0.078617
   7 H :    0.010206
   8 H :    0.054806
   9 C :   -0.077526
  10 H :    0.039652
  11 H :    0.033839
  12 C :   -0.097401
  13 H :    0.033662
  14 H :    0.047193
  15 H :    0.034544
  16 S :    0.122808
  17 C :   -0.086203
  18 C :   -0.029558
  19 C :   -0.028338
  20 C :   -0.167400
  21 H :    0.022978
  22 C :    0.053380
  23 H :    0.039470
  24 H :    0.037252
  25 C :   -0.020334
  26 H :    0.006259
  27 H :    0.026911
  28 C :   -0.095097
  29 H :    0.041704
  30 H :    0.025679
  31 H :    0.026791
  32 H :    0.063716
  33 H :    0.054524
Sum of atomic charges:   -0.0000000

LOEWDIN ATOMIC CHARGES
----------------------
   0 S :    0.458533
   1 C :   -0.236045
   2 C :   -0.065923
   3 C :   -0.056073
   4 C :   -0.215130
   5 H :    0.023374
   6 C :   -0.027651
   7 H :    0.024707
   8 H :    0.042981
   9 C :   -0.038800
  10 H :    0.027254
  11 H :    0.018896
  12 C :   -0.072598
  13 H :    0.035191
  14 H :    0.027801
  15 H :    0.016826
  16 S :    0.433407
  17 C :   -0.188132
  18 C :   -0.073057
  19 C :   -0.045980
  20 C :   -0.222905
  21 H :    0.032900
  22 C :   -0.038474
  23 H :    0.036622
  24 H :    0.034895
  25 C :   -0.040540
  26 H :    0.013225
  27 H :    0.029777
  28 C :   -0.079572
  29 H :    0.034985
  30 H :    0.020649
  31 H :    0.025438
  32 H :    0.037406
  33 H :    0.026012

  Mayer bond orders larger than 0.100000
B(  0-S ,  1-C ) :   1.1825 B(  0-S ,  4-C ) :   1.1765 B(  1-C ,  2-C ) :   1.5767
B(  1-C ,  4-C ) :   0.1015 B(  1-C , 32-H ) :   0.9564 B(  2-C ,  3-C ) :   1.2725
B(  2-C ,  6-C ) :   1.0099 B(  3-C ,  4-C ) :   1.5585 B(  3-C ,  5-H ) :   0.9962
B(  4-C , 20-C ) :   1.0335 B(  6-C ,  7-H ) :   0.9439 B(  6-C ,  8-H ) :   0.9298
B(  6-C ,  9-C ) :   1.0805 B(  9-C , 10-H ) :   0.9603 B(  9-C , 11-H ) :   0.9483
B(  9-C , 12-C ) :   1.0662 B( 12-C , 13-H ) :   0.9770 B( 12-C , 14-H ) :   0.9749
B( 12-C , 15-H ) :   0.9772 B( 16-S , 17-C ) :   1.1743 B( 16-S , 20-C ) :   1.1566
B( 17-C , 18-C ) :   1.5982 B( 17-C , 33-H ) :   0.9659 B( 18-C , 19-C ) :   1.2475
B( 18-C , 21-H ) :   0.9913 B( 19-C , 20-C ) :   1.5731 B( 19-C , 22-C ) :   1.0466
B( 22-C , 23-H ) :   0.9259 B( 22-C , 24-H ) :   0.9396 B( 22-C , 25-C ) :   1.0882
B( 25-C , 26-H ) :   0.9414 B( 25-C , 27-H ) :   0.9532 B( 25-C , 28-C ) :   1.0723
B( 28-C , 29-H ) :   0.9744 B( 28-C , 30-H ) :   0.9704 B( 28-C , 31-H ) :   0.9730

Dispersion correction           -0.014403198
FINAL SINGLE POINT ENERGY     -1339.868439511019

DIPOLE MOMENT
-------------
                                X             Y             Z
Electronic contribution:     18.70331     -12.35453      -3.51794
Nuclear contribution   :    -19.35791      12.42205       3.61429
                        -----------------------------------------
Total Dipole Moment    :     -0.65460       0.06752       0.09635
                        -----------------------------------------
Magnitude (a.u.)       :      0.66509
Magnitude (Debye)      :      1.69052

Rotational constants in cm-1:     0.020583     0.007548     0.007068
Rotational constants in MHz :   617.049061   226.284472   211.881437

                             ****ORCA TERMINATED NORMALLY****
TOTAL RUN TIME: 0 days 0 hours 0 minutes 22 seconds 76 msec
