                         Program Version 4.2.1 -  RELEASE  -
|  1> ! wB97X-D3 SP def2-SVP
|  2> %pal
|  3> nprocs 24
|  4> end
|  5>
|  6> * xyz 0 1
|  7> S 	 -122.495 	 52.7943 	 -33.9199
|  8> C 	 -121.498 	 52.2924 	 -35.1802
|  9> C 	 -121.351 	 50.8957 	 -35.331
| 10> C 	 -122.064 	 50.2778 	 -34.2238
| 11> C 	 -122.76 	 51.1807 	 -33.3944
| 12> H 	 -122.044 	 49.2144 	 -33.8564
| 13> C 	 -120.463 	 50.0913 	 -36.32
| 14> H 	 -119.452 	 49.9485 	 -35.8598
| 15> H 	 -120.319 	 50.8666 	 -37.1907
| 16> C 	 -120.92 	 48.763 	 -36.9188
| 17> H 	 -120.046 	 48.2041 	 -37.35
| 18> H 	 -121.359 	 48.1118 	 -36.1655
| 19> C 	 -122.039 	 48.9406 	 -38.038
| 20> H 	 -122.77 	 49.6733 	 -37.7715
| 21> H 	 -121.541 	 49.4082 	 -38.9222
| 22> H 	 -122.548 	 48.0755 	 -38.2834
| 23> S 	 -123.1 	 51.4339 	 -30.7219
| 24> C 	 -124.433 	 50.6762 	 -29.8939
| 25> C 	 -125.054 	 49.7792 	 -30.7305
| 26> C 	 -124.701 	 49.91 	 -32.0921
| 27> C 	 -123.659 	 50.8512 	 -32.2802
| 28> H 	 -125.733 	 49.0976 	 -30.4218
| 29> C 	 -125.529 	 49.1618 	 -33.1534
| 30> H 	 -125.811 	 48.1601 	 -32.8437
| 31> H 	 -124.886 	 49.1705 	 -34.0905
| 32> C 	 -126.78 	 49.856 	 -33.6781
| 33> H 	 -127.174 	 49.1997 	 -34.4921
| 34> H 	 -126.495 	 50.8133 	 -34.0603
| 35> C 	 -128.046 	 49.9969 	 -32.7829
| 36> H 	 -128.738 	 50.5846 	 -33.2813
| 37> H 	 -127.749 	 50.4834 	 -31.8745
| 38> H 	 -128.398 	 48.9427 	 -32.6182
| 39> H 	 -120.804 	 53.0696 	 -35.6931
| 40> H 	 -124.562 	 50.742 	 -28.8335
| 41> *
| 42>
| 43>                          ****END OF INPUT****

CARTESIAN COORDINATES (ANGSTROEM)
---------------------------------
  S    -122.495000   52.794300  -33.919900
  C    -121.498000   52.292400  -35.180200
  C    -121.351000   50.895700  -35.331000
  C    -122.064000   50.277800  -34.223800
  C    -122.760000   51.180700  -33.394400
  H    -122.044000   49.214400  -33.856400
  C    -120.463000   50.091300  -36.320000
  H    -119.452000   49.948500  -35.859800
  H    -120.319000   50.866600  -37.190700
  C    -120.920000   48.763000  -36.918800
  H    -120.046000   48.204100  -37.350000
  H    -121.359000   48.111800  -36.165500
  C    -122.039000   48.940600  -38.038000
  H    -122.770000   49.673300  -37.771500
  H    -121.541000   49.408200  -38.922200
  H    -122.548000   48.075500  -38.283400
  S    -123.100000   51.433900  -30.721900
  C    -124.433000   50.676200  -29.893900
  C    -125.054000   49.779200  -30.730500
  C    -124.701000   49.910000  -32.092100
  C    -123.659000   50.851200  -32.280200
  H    -125.733000   49.097600  -30.421800
  C    -125.529000   49.161800  -33.153400
  H    -125.811000   48.160100  -32.843700
  H    -124.886000   49.170500  -34.090500
  C    -126.780000   49.856000  -33.678100
  H    -127.174000   49.199700  -34.492100
  H    -126.495000   50.813300  -34.060300
  C    -128.046000   49.996900  -32.782900
  H    -128.738000   50.584600  -33.281300
  H    -127.749000   50.483400  -31.874500
  H    -128.398000   48.942700  -32.618200
  H    -120.804000   53.069600  -35.693100
  H    -124.562000   50.742000  -28.833500

 Total Charge           Charge          ....    0
 Multiplicity           Mult            ....    1
 Number of Electrons    NEL             ....  134
 Basis Dimension        Dim             ....  322

ORBITAL ENERGIES
----------------

  NO   OCC          E(Eh)            E(eV)
   0   2.0000     -88.968958     -2420.9684
   1   2.0000     -88.963982     -2420.8330
   2   2.0000     -10.329948      -281.0922
   3   2.0000     -10.326748      -281.0051
   4   2.0000     -10.320841      -280.8444
   5   2.0000     -10.316002      -280.7127
   6   2.0000     -10.313669      -280.6492
   7   2.0000     -10.310199      -280.5548
   8   2.0000     -10.306283      -280.4482
   9   2.0000     -10.301595      -280.3206
  10   2.0000     -10.297218      -280.2016
  11   2.0000     -10.295862      -280.1646
  12   2.0000     -10.285013      -279.8694
  13   2.0000     -10.281755      -279.7808
  14   2.0000     -10.273879      -279.5665
  15   2.0000     -10.270760      -279.4816
  16   2.0000      -8.085285      -220.0118
  17   2.0000      -8.078999      -219.8407
  18   2.0000      -6.043465      -164.4510
  19   2.0000      -6.039459      -164.3420
  20   2.0000      -6.037426      -164.2867
  21   2.0000      -6.036403      -164.2589
  22   2.0000      -6.033403      -164.1772
  23   2.0000      -6.029881      -164.0814
  24   2.0000      -1.008471       -27.4419
  25   2.0000      -0.987064       -26.8594
  26   2.0000      -0.905870       -24.6500
  27   2.0000      -0.903513       -24.5858
  28   2.0000      -0.868064       -23.6212
  29   2.0000      -0.848609       -23.0918
  30   2.0000      -0.844795       -22.9880
  31   2.0000      -0.809225       -22.0201
  32   2.0000      -0.784796       -21.3554
  33   2.0000      -0.774153       -21.0658
  34   2.0000      -0.707778       -19.2596
  35   2.0000      -0.691779       -18.8243
  36   2.0000      -0.678257       -18.4563
  37   2.0000      -0.667712       -18.1694
  38   2.0000      -0.638687       -17.3796
  39   2.0000      -0.613397       -16.6914
  40   2.0000      -0.595683       -16.2093
  41   2.0000      -0.563971       -15.3464
  42   2.0000      -0.558887       -15.2081
  43   2.0000      -0.551606       -15.0100
  44   2.0000      -0.541780       -14.7426
  45   2.0000      -0.533542       -14.5184
  46   2.0000      -0.519262       -14.1298
  47   2.0000      -0.507357       -13.8059
  48   2.0000      -0.501978       -13.6595
  49   2.0000      -0.488783       -13.3005
  50   2.0000      -0.485818       -13.2198
  51   2.0000      -0.482246       -13.1226
  52   2.0000      -0.473924       -12.8961
  53   2.0000      -0.464341       -12.6354
  54   2.0000      -0.457061       -12.4373
  55   2.0000      -0.447173       -12.1682
  56   2.0000      -0.442093       -12.0300
  57   2.0000      -0.440360       -11.9828
  58   2.0000      -0.435323       -11.8458
  59   2.0000      -0.429291       -11.6816
  60   2.0000      -0.421568       -11.4714
  61   2.0000      -0.413719       -11.2579
  62   2.0000      -0.400084       -10.8868
  63   2.0000      -0.339171        -9.2293
  64   2.0000      -0.329916        -8.9775
  65   2.0000      -0.328387        -8.9359
  66   2.0000      -0.296251        -8.0614
  67   0.0000       0.029200         0.7946
  68   0.0000       0.067239         1.8297
  69   0.0000       0.106579         2.9002
  70   0.0000       0.119013         3.2385
  71   0.0000       0.131259         3.5718

MULLIKEN ATOMIC CHARGES
-----------------------
   0 S :    0.145101
   1 C :   -0.157876
   2 C :   -0.085073
   3 C :    0.013929
   4 C :   -0.197531
   5 H :    0.041578
   6 C :    0.004661
   7 H :    0.059152
   8 H :    0.037591
   9 C :   -0.076036
  10 H :    0.045065
  11 H :    0.033727
  12 C :   -0.042877
  13 H :    0.030770
  14 H :    0.029327
  15 H :    0.025083
  16 S :    0.101011
  17 C :   -0.075828
  18 C :    0.007246
  19 C :   -0.033462
  20 C :   -0.163914
  21 H :   -0.024807
  22 C :    0.065844
  23 H :    0.019686
  24 H :    0.038347
  25 C :   -0.097661
  26 H :    0.031595
  27 H :    0.023752
  28 C :   -0.022617
  29 H :    0.026991
  30 H :    0.030140
  31 H :    0.028721
  32 H :    0.084186
  33 H :    0.054178
Sum of atomic charges:    0.0000000

LOEWDIN ATOMIC CHARGES
----------------------
   0 S :    0.456753
   1 C :   -0.236330
   2 C :   -0.070278
   3 C :   -0.068051
   4 C :   -0.229360
   5 H :    0.041115
   6 C :   -0.042919
   7 H :    0.040628
   8 H :    0.039785
   9 C :   -0.043530
  10 H :    0.033993
  11 H :    0.021939
  12 C :   -0.060462
  13 H :    0.024223
  14 H :    0.029235
  15 H :    0.014156
  16 S :    0.413307
  17 C :   -0.179086
  18 C :   -0.059211
  19 C :   -0.053505
  20 C :   -0.204539
  21 H :    0.012238
  22 C :   -0.034161
  23 H :    0.026581
  24 H :    0.042986
  25 C :   -0.038960
  26 H :    0.028202
  27 H :    0.018129
  28 C :   -0.059253
  29 H :    0.017698
  30 H :    0.019646
  31 H :    0.028177
  32 H :    0.045678
  33 H :    0.025173

  Mayer bond orders larger than 0.100000
B(  0-S ,  1-C ) :   1.1878 B(  0-S ,  4-C ) :   1.1755 B(  1-C ,  2-C ) :   1.5767
B(  1-C , 32-H ) :   0.9501 B(  2-C ,  3-C ) :   1.2626 B(  2-C ,  6-C ) :   1.0057
B(  3-C ,  4-C ) :   1.5612 B(  3-C ,  5-H ) :   0.9816 B(  4-C , 20-C ) :   1.0080
B(  6-C ,  7-H ) :   0.9406 B(  6-C ,  8-H ) :   0.9483 B(  6-C ,  9-C ) :   1.0666
B(  9-C , 10-H ) :   0.9568 B(  9-C , 11-H ) :   0.9571 B(  9-C , 12-C ) :   1.0645
B( 12-C , 13-H ) :   0.9803 B( 12-C , 14-H ) :   0.9755 B( 12-C , 15-H ) :   0.9788
B( 16-S , 17-C ) :   1.1662 B( 16-S , 20-C ) :   1.1678 B( 17-C , 18-C ) :   1.5638
B( 17-C , 20-C ) :   0.1087 B( 17-C , 33-H ) :   0.9738 B( 18-C , 19-C ) :   1.2711
B( 18-C , 21-H ) :   1.0060 B( 19-C , 20-C ) :   1.5632 B( 19-C , 22-C ) :   1.0425
B( 22-C , 23-H ) :   0.9355 B( 22-C , 24-H ) :   0.9285 B( 22-C , 25-C ) :   1.0801
B( 25-C , 26-H ) :   0.9581 B( 25-C , 27-H ) :   0.9544 B( 25-C , 28-C ) :   1.0782
B( 28-C , 29-H ) :   0.9735 B( 28-C , 30-H ) :   0.9746 B( 28-C , 31-H ) :   0.9768

Dispersion correction           -0.014128445
FINAL SINGLE POINT ENERGY     -1339.859736301975

DIPOLE MOMENT
-------------
                                X             Y             Z
Electronic contribution:      9.29020      16.31839      18.83295
Nuclear contribution   :     -9.29458     -16.81626     -19.03760
                        -----------------------------------------
Total Dipole Moment    :     -0.00438      -0.49787      -0.20465
                        -----------------------------------------
Magnitude (a.u.)       :      0.53831
Magnitude (Debye)      :      1.36828

Rotational constants in cm-1:     0.018295     0.008482     0.006819
Rotational constants in MHz :   548.470312   254.278085   204.427417

                             ****ORCA TERMINATED NORMALLY****
TOTAL RUN TIME: 0 days 0 hours 0 minutes 21 seconds 361 msec
