                         Program Version 4.2.1 -  RELEASE  -
|  1> ! wB97X-D3 SP def2-SVP
|  2> %pal
|  3> nprocs 24
|  4> end
|  5>
|  6> * xyz 0 1
|  7> S 	 -45.9926 	 11.7935 	 -18.5185
|  8> C 	 -46.9973 	 12.1706 	 -17.1284
|  9> C 	 -46.1663 	 12.6033 	 -16.0859
| 10> C 	 -44.8035 	 12.7175 	 -16.4125
| 11> C 	 -44.5392 	 12.2868 	 -17.6686
| 12> H 	 -44.0018 	 12.9255 	 -15.7447
| 13> C 	 -46.7515 	 12.962 	 -14.7022
| 14> H 	 -47.8334 	 13.0107 	 -14.7986
| 15> H 	 -46.5638 	 13.9556 	 -14.3721
| 16> C 	 -46.305 	 11.9927 	 -13.5838
| 17> H 	 -46.4331 	 10.9927 	 -13.9396
| 18> H 	 -45.2517 	 12.1217 	 -13.3692
| 19> C 	 -46.9905 	 12.1253 	 -12.1729
| 20> H 	 -47.1447 	 11.1409 	 -11.7016
| 21> H 	 -46.3828 	 12.6746 	 -11.5332
| 22> H 	 -47.9506 	 12.5885 	 -12.2641
| 23> S 	 -43.3614 	 12.5587 	 -20.0744
| 24> C 	 -41.66 	 12.7421 	 -20.2594
| 25> C 	 -41.0473 	 12.7781 	 -19.0484
| 26> C 	 -41.938 	 12.6339 	 -17.9276
| 27> C 	 -43.2568 	 12.4491 	 -18.3424
| 28> H 	 -39.9516 	 12.8177 	 -19.0253
| 29> C 	 -41.4043 	 12.5364 	 -16.5161
| 30> H 	 -41.7726 	 13.2793 	 -15.8184
| 31> H 	 -40.3579 	 12.7537 	 -16.5852
| 32> C 	 -41.526 	 11.1825 	 -15.79
| 33> H 	 -42.5467 	 10.8415 	 -15.7267
| 34> H 	 -41.0003 	 11.2954 	 -14.8086
| 35> C 	 -40.7829 	 10.1546 	 -16.6076
| 36> H 	 -39.6979 	 10.4383 	 -16.759
| 37> H 	 -41.1012 	 9.96708 	 -17.6551
| 38> H 	 -40.8403 	 9.12642 	 -16.1457
| 39> H 	 -48.1009 	 12.0686 	 -17.1602
| 40> H 	 -41.2119 	 13.051 	 -21.1897
| 41> *
| 42>
| 43>                          ****END OF INPUT****

CARTESIAN COORDINATES (ANGSTROEM)
---------------------------------
  S    -45.992600   11.793500  -18.518500
  C    -46.997300   12.170600  -17.128400
  C    -46.166300   12.603300  -16.085900
  C    -44.803500   12.717500  -16.412500
  C    -44.539200   12.286800  -17.668600
  H    -44.001800   12.925500  -15.744700
  C    -46.751500   12.962000  -14.702200
  H    -47.833400   13.010700  -14.798600
  H    -46.563800   13.955600  -14.372100
  C    -46.305000   11.992700  -13.583800
  H    -46.433100   10.992700  -13.939600
  H    -45.251700   12.121700  -13.369200
  C    -46.990500   12.125300  -12.172900
  H    -47.144700   11.140900  -11.701600
  H    -46.382800   12.674600  -11.533200
  H    -47.950600   12.588500  -12.264100
  S    -43.361400   12.558700  -20.074400
  C    -41.660000   12.742100  -20.259400
  C    -41.047300   12.778100  -19.048400
  C    -41.938000   12.633900  -17.927600
  C    -43.256800   12.449100  -18.342400
  H    -39.951600   12.817700  -19.025300
  C    -41.404300   12.536400  -16.516100
  H    -41.772600   13.279300  -15.818400
  H    -40.357900   12.753700  -16.585200
  C    -41.526000   11.182500  -15.790000
  H    -42.546700   10.841500  -15.726700
  H    -41.000300   11.295400  -14.808600
  C    -40.782900   10.154600  -16.607600
  H    -39.697900   10.438300  -16.759000
  H    -41.101200    9.967080  -17.655100
  H    -40.840300    9.126420  -16.145700
  H    -48.100900   12.068600  -17.160200
  H    -41.211900   13.051000  -21.189700

 Total Charge           Charge          ....    0
 Multiplicity           Mult            ....    1
 Number of Electrons    NEL             ....  134
 Basis Dimension        Dim             ....  322

ORBITAL ENERGIES
----------------

  NO   OCC          E(Eh)            E(eV)
   0   2.0000     -88.968022     -2420.9429
   1   2.0000     -88.962529     -2420.7935
   2   2.0000     -10.330024      -281.0942
   3   2.0000     -10.329141      -281.0702
   4   2.0000     -10.321317      -280.8573
   5   2.0000     -10.311474      -280.5895
   6   2.0000     -10.306264      -280.4477
   7   2.0000     -10.305538      -280.4280
   8   2.0000     -10.294694      -280.1329
   9   2.0000     -10.290064      -280.0069
  10   2.0000     -10.290053      -280.0066
  11   2.0000     -10.288481      -279.9638
  12   2.0000     -10.288343      -279.9600
  13   2.0000     -10.283523      -279.8289
  14   2.0000     -10.278546      -279.6935
  15   2.0000     -10.273584      -279.5584
  16   2.0000      -8.082624      -219.9394
  17   2.0000      -8.078432      -219.8253
  18   2.0000      -6.041180      -164.3889
  19   2.0000      -6.037153      -164.2793
  20   2.0000      -6.036864      -164.2714
  21   2.0000      -6.033334      -164.1754
  22   2.0000      -6.032716      -164.1586
  23   2.0000      -6.029258      -164.0645
  24   2.0000      -1.013572       -27.5807
  25   2.0000      -0.988674       -26.9032
  26   2.0000      -0.914686       -24.8899
  27   2.0000      -0.905233       -24.6327
  28   2.0000      -0.871973       -23.7276
  29   2.0000      -0.854004       -23.2386
  30   2.0000      -0.843291       -22.9471
  31   2.0000      -0.818758       -22.2795
  32   2.0000      -0.782094       -21.2819
  33   2.0000      -0.772702       -21.0263
  34   2.0000      -0.710380       -19.3304
  35   2.0000      -0.700345       -19.0574
  36   2.0000      -0.687218       -18.7002
  37   2.0000      -0.668811       -18.1993
  38   2.0000      -0.641726       -17.4622
  39   2.0000      -0.625154       -17.0113
  40   2.0000      -0.598441       -16.2844
  41   2.0000      -0.569920       -15.5083
  42   2.0000      -0.560274       -15.2458
  43   2.0000      -0.555048       -15.1036
  44   2.0000      -0.545579       -14.8460
  45   2.0000      -0.523684       -14.2502
  46   2.0000      -0.517909       -14.0930
  47   2.0000      -0.510394       -13.8885
  48   2.0000      -0.503990       -13.7143
  49   2.0000      -0.497946       -13.5498
  50   2.0000      -0.495011       -13.4699
  51   2.0000      -0.486551       -13.2397
  52   2.0000      -0.473025       -12.8717
  53   2.0000      -0.467334       -12.7168
  54   2.0000      -0.460860       -12.5406
  55   2.0000      -0.449560       -12.2331
  56   2.0000      -0.436487       -11.8774
  57   2.0000      -0.431546       -11.7430
  58   2.0000      -0.430383       -11.7113
  59   2.0000      -0.426194       -11.5973
  60   2.0000      -0.418939       -11.3999
  61   2.0000      -0.417551       -11.3621
  62   2.0000      -0.411988       -11.2108
  63   2.0000      -0.364372        -9.9151
  64   2.0000      -0.337849        -9.1933
  65   2.0000      -0.328941        -8.9510
  66   2.0000      -0.284420        -7.7395
  67   0.0000       0.019820         0.5393
  68   0.0000       0.084508         2.2996
  69   0.0000       0.103320         2.8115
  70   0.0000       0.120690         3.2842
  71   0.0000       0.135033         3.6744

MULLIKEN ATOMIC CHARGES
-----------------------
   0 S :    0.100608
   1 C :   -0.144939
   2 C :   -0.077567
   3 C :    0.014013
   4 C :   -0.094795
   5 H :   -0.003237
   6 C :    0.097734
   7 H :    0.005176
   8 H :    0.016890
   9 C :   -0.094940
  10 H :    0.027663
  11 H :    0.027083
  12 C :   -0.024721
  13 H :    0.036225
  14 H :    0.019897
  15 H :    0.023265
  16 S :    0.088024
  17 C :   -0.083417
  18 C :   -0.043322
  19 C :   -0.055126
  20 C :   -0.122454
  21 H :    0.025661
  22 C :    0.049783
  23 H :    0.034430
  24 H :    0.001552
  25 C :   -0.035750
  26 H :    0.042424
  27 H :    0.042918
  28 C :   -0.113546
  29 H :    0.023160
  30 H :    0.049213
  31 H :    0.038681
  32 H :    0.070688
  33 H :    0.058727
Sum of atomic charges:    0.0000000

LOEWDIN ATOMIC CHARGES
----------------------
   0 S :    0.397090
   1 C :   -0.200791
   2 C :   -0.055374
   3 C :   -0.063398
   4 C :   -0.183034
   5 H :    0.029782
   6 C :   -0.029506
   7 H :    0.025719
   8 H :    0.023528
   9 C :   -0.038170
  10 H :    0.019986
  11 H :    0.021602
  12 C :   -0.058586
  13 H :    0.032615
  14 H :    0.015218
  15 H :    0.020794
  16 S :    0.417730
  17 C :   -0.195474
  18 C :   -0.072886
  19 C :   -0.061938
  20 C :   -0.186251
  21 H :    0.035193
  22 C :   -0.036158
  23 H :    0.026278
  24 H :    0.026877
  25 C :   -0.038792
  26 H :    0.024391
  27 H :    0.034720
  28 C :   -0.081639
  29 H :    0.023871
  30 H :    0.029537
  31 H :    0.028349
  32 H :    0.038405
  33 H :    0.030313

  Mayer bond orders larger than 0.100000
B(  0-S ,  1-C ) :   1.1294 B(  0-S ,  4-C ) :   1.1501 B(  1-C ,  2-C ) :   1.5889
B(  1-C , 32-H ) :   0.9681 B(  2-C ,  3-C ) :   1.2538 B(  2-C ,  6-C ) :   1.0299
B(  3-C ,  4-C ) :   1.5616 B(  3-C ,  5-H ) :   0.9967 B(  4-C , 20-C ) :   1.0725
B(  6-C ,  7-H ) :   0.9389 B(  6-C ,  8-H ) :   0.9405 B(  6-C ,  9-C ) :   1.0548
B(  9-C , 10-H ) :   0.9650 B(  9-C , 11-H ) :   0.9625 B(  9-C , 12-C ) :   1.0703
B( 12-C , 13-H ) :   0.9783 B( 12-C , 14-H ) :   0.9800 B( 12-C , 15-H ) :   0.9787
B( 16-S , 17-C ) :   1.1577 B( 16-S , 20-C ) :   1.1530 B( 17-C , 18-C ) :   1.6110
B( 17-C , 33-H ) :   0.9662 B( 18-C , 19-C ) :   1.2549 B( 18-C , 21-H ) :   0.9858
B( 19-C , 20-C ) :   1.5632 B( 19-C , 22-C ) :   1.0476 B( 22-C , 23-H ) :   0.9289
B( 22-C , 24-H ) :   0.9265 B( 22-C , 25-C ) :   1.0751 B( 25-C , 26-H ) :   0.9515
B( 25-C , 27-H ) :   0.9513 B( 25-C , 28-C ) :   1.0746 B( 28-C , 29-H ) :   0.9744
B( 28-C , 30-H ) :   0.9728 B( 28-C , 31-H ) :   0.9731

Dispersion correction           -0.014608239
FINAL SINGLE POINT ENERGY     -1339.885336389331

DIPOLE MOMENT
-------------
                                X             Y             Z
Electronic contribution:     -4.63228       4.41729     -28.67391
Nuclear contribution   :      4.83530      -4.28857      29.23649
                        -----------------------------------------
Total Dipole Moment    :      0.20302       0.12873       0.56258
                        -----------------------------------------
Magnitude (a.u.)       :      0.61179
Magnitude (Debye)      :      1.55504

Rotational constants in cm-1:     0.020296     0.008831     0.006689
Rotational constants in MHz :   608.468155   264.754315   200.522965

                             ****ORCA TERMINATED NORMALLY****
TOTAL RUN TIME: 0 days 0 hours 0 minutes 20 seconds 996 msec
