                         Program Version 4.2.1 -  RELEASE  -
|  1> ! wB97X-D3 SP def2-SVP
|  2> %pal
|  3> nprocs 24
|  4> end
|  5>
|  6> * xyz 0 1
|  7> S 	 -63.0602 	 9.95767 	 -74.594
|  8> C 	 -63.1682 	 8.96061 	 -73.1364
|  9> C 	 -62.9052 	 7.62198 	 -73.5329
| 10> C 	 -62.8214 	 7.41041 	 -74.9837
| 11> C 	 -62.8516 	 8.64113 	 -75.6395
| 12> H 	 -62.6787 	 6.53135 	 -75.5061
| 13> C 	 -62.9971 	 6.48925 	 -72.5255
| 14> H 	 -62.3469 	 6.52271 	 -71.6854
| 15> H 	 -62.7841 	 5.62071 	 -73.1531
| 16> C 	 -64.3937 	 6.1621 	 -71.9852
| 17> H 	 -64.3041 	 5.28181 	 -71.266
| 18> H 	 -64.5404 	 7.03682 	 -71.3467
| 19> C 	 -65.4335 	 5.87394 	 -73.06
| 20> H 	 -66.3193 	 5.45728 	 -72.546
| 21> H 	 -65.6826 	 6.74591 	 -73.6652
| 22> H 	 -65.0978 	 5.10385 	 -73.7614
| 23> S 	 -61.1143 	 8.70233 	 -77.7896
| 24> C 	 -61.6745 	 8.47201 	 -79.3857
| 25> C 	 -63.0528 	 8.49544 	 -79.3738
| 26> C 	 -63.6392 	 8.67596 	 -78.1347
| 27> C 	 -62.7054 	 8.81736 	 -77.1108
| 28> H 	 -63.498 	 8.41683 	 -80.3332
| 29> C 	 -65.1558 	 8.67132 	 -78.0016
| 30> H 	 -65.311 	 9.07908 	 -77.0121
| 31> H 	 -65.6733 	 7.67924 	 -77.9897
| 32> C 	 -65.9884 	 9.51959 	 -79.0199
| 33> H 	 -65.7443 	 9.38216 	 -80.0508
| 34> H 	 -66.0031 	 10.6424 	 -78.8059
| 35> C 	 -67.4597 	 9.16237 	 -78.8529
| 36> H 	 -68.0095 	 9.61595 	 -79.6721
| 37> H 	 -67.9026 	 9.63836 	 -77.9591
| 38> H 	 -67.7283 	 8.13866 	 -78.9626
| 39> H 	 -63.5689 	 9.31811 	 -72.2238
| 40> H 	 -61.0068 	 8.23132 	 -80.2055
| 41> *
| 42>
| 43>                          ****END OF INPUT****

CARTESIAN COORDINATES (ANGSTROEM)
---------------------------------
  S    -63.060200    9.957670  -74.594000
  C    -63.168200    8.960610  -73.136400
  C    -62.905200    7.621980  -73.532900
  C    -62.821400    7.410410  -74.983700
  C    -62.851600    8.641130  -75.639500
  H    -62.678700    6.531350  -75.506100
  C    -62.997100    6.489250  -72.525500
  H    -62.346900    6.522710  -71.685400
  H    -62.784100    5.620710  -73.153100
  C    -64.393700    6.162100  -71.985200
  H    -64.304100    5.281810  -71.266000
  H    -64.540400    7.036820  -71.346700
  C    -65.433500    5.873940  -73.060000
  H    -66.319300    5.457280  -72.546000
  H    -65.682600    6.745910  -73.665200
  H    -65.097800    5.103850  -73.761400
  S    -61.114300    8.702330  -77.789600
  C    -61.674500    8.472010  -79.385700
  C    -63.052800    8.495440  -79.373800
  C    -63.639200    8.675960  -78.134700
  C    -62.705400    8.817360  -77.110800
  H    -63.498000    8.416830  -80.333200
  C    -65.155800    8.671320  -78.001600
  H    -65.311000    9.079080  -77.012100
  H    -65.673300    7.679240  -77.989700
  C    -65.988400    9.519590  -79.019900
  H    -65.744300    9.382160  -80.050800
  H    -66.003100   10.642400  -78.805900
  C    -67.459700    9.162370  -78.852900
  H    -68.009500    9.615950  -79.672100
  H    -67.902600    9.638360  -77.959100
  H    -67.728300    8.138660  -78.962600
  H    -63.568900    9.318110  -72.223800
  H    -61.006800    8.231320  -80.205500

 Total Charge           Charge          ....    0
 Multiplicity           Mult            ....    1
 Number of Electrons    NEL             ....  134
 Basis Dimension        Dim             ....  322

ORBITAL ENERGIES
----------------

  NO   OCC          E(Eh)            E(eV)
   0   2.0000     -88.966473     -2420.9008
   1   2.0000     -88.963121     -2420.8096
   2   2.0000     -10.330560      -281.1088
   3   2.0000     -10.325146      -280.9615
   4   2.0000     -10.317150      -280.7439
   5   2.0000     -10.314207      -280.6638
   6   2.0000     -10.310858      -280.5727
   7   2.0000     -10.300976      -280.3038
   8   2.0000     -10.296727      -280.1882
   9   2.0000     -10.292848      -280.0826
  10   2.0000     -10.290240      -280.0117
  11   2.0000     -10.289610      -279.9945
  12   2.0000     -10.284207      -279.8475
  13   2.0000     -10.283487      -279.8279
  14   2.0000     -10.278212      -279.6844
  15   2.0000     -10.272735      -279.5353
  16   2.0000      -8.081640      -219.9126
  17   2.0000      -8.079017      -219.8412
  18   2.0000      -6.039987      -164.3564
  19   2.0000      -6.037248      -164.2819
  20   2.0000      -6.035805      -164.2426
  21   2.0000      -6.033135      -164.1700
  22   2.0000      -6.032820      -164.1614
  23   2.0000      -6.030218      -164.0906
  24   2.0000      -1.011395       -27.5215
  25   2.0000      -0.987681       -26.8762
  26   2.0000      -0.913221       -24.8500
  27   2.0000      -0.906662       -24.6715
  28   2.0000      -0.866019       -23.5656
  29   2.0000      -0.854816       -23.2607
  30   2.0000      -0.844026       -22.9671
  31   2.0000      -0.814608       -22.1666
  32   2.0000      -0.782786       -21.3007
  33   2.0000      -0.772159       -21.0115
  34   2.0000      -0.701071       -19.0771
  35   2.0000      -0.699270       -19.0281
  36   2.0000      -0.695372       -18.9220
  37   2.0000      -0.655783       -17.8448
  38   2.0000      -0.649869       -17.6838
  39   2.0000      -0.613341       -16.6899
  40   2.0000      -0.600095       -16.3294
  41   2.0000      -0.574905       -15.6440
  42   2.0000      -0.566436       -15.4135
  43   2.0000      -0.556074       -15.1316
  44   2.0000      -0.544941       -14.8286
  45   2.0000      -0.530646       -14.4396
  46   2.0000      -0.521081       -14.1793
  47   2.0000      -0.512260       -13.9393
  48   2.0000      -0.506021       -13.7695
  49   2.0000      -0.497469       -13.5368
  50   2.0000      -0.487824       -13.2744
  51   2.0000      -0.476473       -12.9655
  52   2.0000      -0.467189       -12.7129
  53   2.0000      -0.465657       -12.6712
  54   2.0000      -0.462228       -12.5779
  55   2.0000      -0.443660       -12.0726
  56   2.0000      -0.441506       -12.0140
  57   2.0000      -0.435685       -11.8556
  58   2.0000      -0.430720       -11.7205
  59   2.0000      -0.424833       -11.5603
  60   2.0000      -0.421673       -11.4743
  61   2.0000      -0.416279       -11.3275
  62   2.0000      -0.398594       -10.8463
  63   2.0000      -0.337620        -9.1871
  64   2.0000      -0.327615        -8.9149
  65   2.0000      -0.317779        -8.6472
  66   2.0000      -0.315502        -8.5852
  67   0.0000       0.042249         1.1497
  68   0.0000       0.053629         1.4593
  69   0.0000       0.113191         3.0801
  70   0.0000       0.126576         3.4443
  71   0.0000       0.130428         3.5491

MULLIKEN ATOMIC CHARGES
-----------------------
   0 S :    0.118611
   1 C :   -0.121201
   2 C :   -0.102580
   3 C :    0.083588
   4 C :   -0.181571
   5 H :   -0.009162
   6 C :    0.073075
   7 H :    0.032026
   8 H :    0.005715
   9 C :   -0.102253
  10 H :    0.037406
  11 H :    0.019303
  12 C :   -0.044233
  13 H :    0.039058
  14 H :    0.050718
  15 H :    0.025377
  16 S :    0.114882
  17 C :   -0.108341
  18 C :   -0.034534
  19 C :    0.017068
  20 C :   -0.170568
  21 H :    0.005168
  22 C :    0.076002
  23 H :    0.017233
  24 H :    0.041439
  25 C :   -0.093313
  26 H :    0.029911
  27 H :    0.045732
  28 C :   -0.063704
  29 H :    0.018447
  30 H :    0.039171
  31 H :    0.025498
  32 H :    0.052004
  33 H :    0.064027
Sum of atomic charges:   -0.0000000

LOEWDIN ATOMIC CHARGES
----------------------
   0 S :    0.432218
   1 C :   -0.197167
   2 C :   -0.051025
   3 C :   -0.052296
   4 C :   -0.213291
   5 H :    0.021834
   6 C :   -0.037686
   7 H :    0.027127
   8 H :    0.024365
   9 C :   -0.043939
  10 H :    0.030205
  11 H :    0.017694
  12 C :   -0.068458
  13 H :    0.031457
  14 H :    0.029909
  15 H :    0.025391
  16 S :    0.440789
  17 C :   -0.194962
  18 C :   -0.076223
  19 C :   -0.057494
  20 C :   -0.218109
  21 H :    0.026013
  22 C :   -0.033120
  23 H :    0.029216
  24 H :    0.037864
  25 C :   -0.039733
  26 H :    0.016168
  27 H :    0.037290
  28 C :   -0.069876
  29 H :    0.025868
  30 H :    0.028822
  31 H :    0.016625
  32 H :    0.022330
  33 H :    0.032197

  Mayer bond orders larger than 0.100000
B(  0-S ,  1-C ) :   1.1453 B(  0-S ,  4-C ) :   1.1943 B(  1-C ,  2-C ) :   1.5579
B(  1-C , 32-H ) :   0.9830 B(  2-C ,  3-C ) :   1.2411 B(  2-C ,  6-C ) :   1.0280
B(  3-C ,  4-C ) :   1.5543 B(  3-C ,  5-H ) :   1.0072 B(  4-C , 20-C ) :   0.9716
B(  6-C ,  7-H ) :   0.9457 B(  6-C ,  8-H ) :   0.9389 B(  6-C ,  9-C ) :   1.0691
B(  9-C , 10-H ) :   0.9560 B(  9-C , 11-H ) :   0.9569 B(  9-C , 12-C ) :   1.0724
B( 12-C , 13-H ) :   0.9736 B( 12-C , 14-H ) :   0.9717 B( 12-C , 15-H ) :   0.9734
B( 16-S , 17-C ) :   1.1971 B( 16-S , 20-C ) :   1.1743 B( 17-C , 18-C ) :   1.5517
B( 17-C , 20-C ) :   0.1029 B( 17-C , 33-H ) :   0.9692 B( 18-C , 19-C ) :   1.2866
B( 18-C , 21-H ) :   1.0034 B( 19-C , 20-C ) :   1.5564 B( 19-C , 22-C ) :   1.0303
B( 22-C , 23-H ) :   0.9292 B( 22-C , 24-H ) :   0.9437 B( 22-C , 25-C ) :   1.0553
B( 25-C , 26-H ) :   0.9603 B( 25-C , 27-H ) :   0.9545 B( 25-C , 28-C ) :   1.0878
B( 28-C , 29-H ) :   0.9702 B( 28-C , 30-H ) :   0.9777 B( 28-C , 31-H ) :   0.9730

Dispersion correction           -0.014220978
FINAL SINGLE POINT ENERGY     -1339.867029287254

DIPOLE MOMENT
-------------
                                X             Y             Z
Electronic contribution:     23.40961      10.98553      -3.17024
Nuclear contribution   :    -23.86930     -11.43137       3.05194
                        -----------------------------------------
Total Dipole Moment    :     -0.45969      -0.44585      -0.11830
                        -----------------------------------------
Magnitude (a.u.)       :      0.65122
Magnitude (Debye)      :      1.65526

Rotational constants in cm-1:     0.017547     0.008600     0.006938
Rotational constants in MHz :   526.056972   257.816275   207.998272

                             ****ORCA TERMINATED NORMALLY****
TOTAL RUN TIME: 0 days 0 hours 0 minutes 21 seconds 487 msec
