                         Program Version 4.2.1 -  RELEASE  -
|  1> ! wB97X-D3 SP def2-SVP
|  2> %pal
|  3> nprocs 24
|  4> end
|  5>
|  6> * xyz 0 1
|  7> S 	 24.2138 	 -23.5318 	 -124.435
|  8> C 	 24.8958 	 -23.6263 	 -126.004
|  9> C 	 25.6917 	 -24.7255 	 -126.189
| 10> C 	 25.5732 	 -25.5833 	 -125.057
| 11> C 	 24.9564 	 -25.0333 	 -123.998
| 12> H 	 26.0328 	 -26.5696 	 -124.94
| 13> C 	 26.4128 	 -25.1329 	 -127.468
| 14> H 	 27.2466 	 -24.3414 	 -127.436
| 15> H 	 25.8487 	 -24.7849 	 -128.325
| 16> C 	 27.1134 	 -26.4817 	 -127.406
| 17> H 	 27.8809 	 -26.391 	 -126.613
| 18> H 	 26.4652 	 -27.3024 	 -127.405
| 19> C 	 27.9684 	 -26.6703 	 -128.688
| 20> H 	 28.9114 	 -26.108 	 -128.851
| 21> H 	 28.2231 	 -27.7685 	 -128.785
| 22> H 	 27.2715 	 -26.4424 	 -129.542
| 23> S 	 25.4009 	 -24.8104 	 -121.316
| 24> C 	 24.9322 	 -26.0673 	 -120.229
| 25> C 	 23.924 	 -26.8307 	 -120.858
| 26> C 	 23.8813 	 -26.5972 	 -122.249
| 27> C 	 24.6926 	 -25.5775 	 -122.7
| 28> H 	 23.3358 	 -27.4386 	 -120.271
| 29> C 	 22.9306 	 -27.3629 	 -123.089
| 30> H 	 23.4117 	 -28.3406 	 -123.35
| 31> H 	 22.8476 	 -26.8627 	 -124.06
| 32> C 	 21.6134 	 -27.5633 	 -122.485
| 33> H 	 21.6918 	 -28.1598 	 -121.557
| 34> H 	 21.058 	 -28.2632 	 -123.15
| 35> C 	 20.795 	 -26.2329 	 -122.297
| 36> H 	 19.7225 	 -26.4494 	 -121.924
| 37> H 	 20.5817 	 -25.7195 	 -123.23
| 38> H 	 21.3017 	 -25.5774 	 -121.607
| 39> H 	 24.7754 	 -22.8286 	 -126.696
| 40> H 	 25.1524 	 -26.1167 	 -119.187
| 41> *
| 42>
| 43>                          ****END OF INPUT****

CARTESIAN COORDINATES (ANGSTROEM)
---------------------------------
  S     24.213800  -23.531800  -124.435000
  C     24.895800  -23.626300  -126.004000
  C     25.691700  -24.725500  -126.189000
  C     25.573200  -25.583300  -125.057000
  C     24.956400  -25.033300  -123.998000
  H     26.032800  -26.569600  -124.940000
  C     26.412800  -25.132900  -127.468000
  H     27.246600  -24.341400  -127.436000
  H     25.848700  -24.784900  -128.325000
  C     27.113400  -26.481700  -127.406000
  H     27.880900  -26.391000  -126.613000
  H     26.465200  -27.302400  -127.405000
  C     27.968400  -26.670300  -128.688000
  H     28.911400  -26.108000  -128.851000
  H     28.223100  -27.768500  -128.785000
  H     27.271500  -26.442400  -129.542000
  S     25.400900  -24.810400  -121.316000
  C     24.932200  -26.067300  -120.229000
  C     23.924000  -26.830700  -120.858000
  C     23.881300  -26.597200  -122.249000
  C     24.692600  -25.577500  -122.700000
  H     23.335800  -27.438600  -120.271000
  C     22.930600  -27.362900  -123.089000
  H     23.411700  -28.340600  -123.350000
  H     22.847600  -26.862700  -124.060000
  C     21.613400  -27.563300  -122.485000
  H     21.691800  -28.159800  -121.557000
  H     21.058000  -28.263200  -123.150000
  C     20.795000  -26.232900  -122.297000
  H     19.722500  -26.449400  -121.924000
  H     20.581700  -25.719500  -123.230000
  H     21.301700  -25.577400  -121.607000
  H     24.775400  -22.828600  -126.696000
  H     25.152400  -26.116700  -119.187000

 Total Charge           Charge          ....    0
 Multiplicity           Mult            ....    1
 Number of Electrons    NEL             ....  134
 Basis Dimension        Dim             ....  322

ORBITAL ENERGIES
----------------

  NO   OCC          E(Eh)            E(eV)
   0   2.0000     -88.960677     -2420.7431
   1   2.0000     -88.959939     -2420.7230
   2   2.0000     -10.317418      -280.7512
   3   2.0000     -10.316540      -280.7273
   4   2.0000     -10.315344      -280.6948
   5   2.0000     -10.303984      -280.3857
   6   2.0000     -10.298749      -280.2432
   7   2.0000     -10.297818      -280.2179
   8   2.0000     -10.294293      -280.1219
   9   2.0000     -10.292897      -280.0840
  10   2.0000     -10.288413      -279.9620
  11   2.0000     -10.287289      -279.9314
  12   2.0000     -10.286767      -279.9172
  13   2.0000     -10.286412      -279.9075
  14   2.0000     -10.281305      -279.7685
  15   2.0000     -10.280869      -279.7567
  16   2.0000      -8.076759      -219.7798
  17   2.0000      -8.075550      -219.7469
  18   2.0000      -6.035103      -164.2235
  19   2.0000      -6.033923      -164.1914
  20   2.0000      -6.031127      -164.1153
  21   2.0000      -6.029956      -164.0835
  22   2.0000      -6.027574      -164.0186
  23   2.0000      -6.026365      -163.9857
  24   2.0000      -1.014660       -27.6103
  25   2.0000      -0.991143       -26.9704
  26   2.0000      -0.916951       -24.9515
  27   2.0000      -0.915020       -24.8990
  28   2.0000      -0.874082       -23.7850
  29   2.0000      -0.848747       -23.0956
  30   2.0000      -0.839157       -22.8346
  31   2.0000      -0.817071       -22.2336
  32   2.0000      -0.780339       -21.2341
  33   2.0000      -0.769897       -20.9500
  34   2.0000      -0.713719       -19.4213
  35   2.0000      -0.699441       -19.0328
  36   2.0000      -0.689740       -18.7688
  37   2.0000      -0.656363       -17.8605
  38   2.0000      -0.647716       -17.6253
  39   2.0000      -0.620893       -16.8954
  40   2.0000      -0.599261       -16.3067
  41   2.0000      -0.582774       -15.8581
  42   2.0000      -0.567958       -15.4549
  43   2.0000      -0.553195       -15.0532
  44   2.0000      -0.537458       -14.6250
  45   2.0000      -0.524981       -14.2855
  46   2.0000      -0.522771       -14.2253
  47   2.0000      -0.506747       -13.7893
  48   2.0000      -0.503319       -13.6960
  49   2.0000      -0.499014       -13.5789
  50   2.0000      -0.486415       -13.2360
  51   2.0000      -0.477184       -12.9848
  52   2.0000      -0.469484       -12.7753
  53   2.0000      -0.465021       -12.6539
  54   2.0000      -0.460508       -12.5311
  55   2.0000      -0.447606       -12.1800
  56   2.0000      -0.442051       -12.0288
  57   2.0000      -0.434521       -11.8239
  58   2.0000      -0.428908       -11.6712
  59   2.0000      -0.426625       -11.6091
  60   2.0000      -0.422959       -11.5093
  61   2.0000      -0.414554       -11.2806
  62   2.0000      -0.407804       -11.0969
  63   2.0000      -0.338136        -9.2011
  64   2.0000      -0.325612        -8.8603
  65   2.0000      -0.322109        -8.7650
  66   2.0000      -0.297157        -8.0861
  67   0.0000       0.043613         1.1868
  68   0.0000       0.058706         1.5975
  69   0.0000       0.117948         3.2095
  70   0.0000       0.129006         3.5104
  71   0.0000       0.136143         3.7046

MULLIKEN ATOMIC CHARGES
-----------------------
   0 S :    0.119213
   1 C :   -0.132019
   2 C :   -0.068430
   3 C :    0.000918
   4 C :   -0.151109
   5 H :    0.017244
   6 C :    0.031840
   7 H :    0.040698
   8 H :    0.030772
   9 C :   -0.042003
  10 H :    0.051046
  11 H :    0.036947
  12 C :   -0.092007
  13 H :    0.049828
  14 H :    0.037303
  15 H :    0.030037
  16 S :    0.111275
  17 C :   -0.085972
  18 C :   -0.030903
  19 C :   -0.023046
  20 C :   -0.176837
  21 H :   -0.010648
  22 C :    0.099577
  23 H :    0.035777
  24 H :    0.019652
  25 C :   -0.094423
  26 H :    0.030249
  27 H :    0.025922
  28 C :   -0.062612
  29 H :    0.039073
  30 H :    0.033418
  31 H :    0.047429
  32 H :    0.030438
  33 H :    0.051354
Sum of atomic charges:    0.0000000

LOEWDIN ATOMIC CHARGES
----------------------
   0 S :    0.425041
   1 C :   -0.204765
   2 C :   -0.065382
   3 C :   -0.065154
   4 C :   -0.205167
   5 H :    0.035471
   6 C :   -0.040892
   7 H :    0.048512
   8 H :    0.029654
   9 C :   -0.036796
  10 H :    0.038776
  11 H :    0.020738
  12 C :   -0.073824
  13 H :    0.027058
  14 H :    0.029665
  15 H :    0.026178
  16 S :    0.425655
  17 C :   -0.183358
  18 C :   -0.064448
  19 C :   -0.058388
  20 C :   -0.216894
  21 H :    0.015834
  22 C :   -0.040418
  23 H :    0.038513
  24 H :    0.030139
  25 C :   -0.046833
  26 H :    0.023277
  27 H :    0.028568
  28 C :   -0.067124
  29 H :    0.034575
  30 H :    0.025451
  31 H :    0.023982
  32 H :    0.017697
  33 H :    0.024658

  Mayer bond orders larger than 0.100000
B(  0-S ,  1-C ) :   1.1523 B(  0-S ,  4-C ) :   1.1573 B(  1-C ,  2-C ) :   1.6148
B(  1-C , 32-H ) :   0.9756 B(  2-C ,  3-C ) :   1.2396 B(  2-C ,  6-C ) :   0.9897
B(  3-C ,  4-C ) :   1.6019 B(  3-C ,  5-H ) :   0.9934 B(  4-C , 20-C ) :   1.0117
B(  6-C ,  7-H ) :   0.9325 B(  6-C ,  8-H ) :   0.9475 B(  6-C ,  9-C ) :   1.0837
B(  9-C , 10-H ) :   0.9456 B(  9-C , 11-H ) :   0.9507 B(  9-C , 12-C ) :   1.0761
B( 12-C , 13-H ) :   0.9783 B( 12-C , 14-H ) :   0.9755 B( 12-C , 15-H ) :   0.9737
B( 16-S , 17-C ) :   1.1900 B( 16-S , 20-C ) :   1.1480 B( 17-C , 18-C ) :   1.5548
B( 17-C , 20-C ) :   0.1139 B( 17-C , 33-H ) :   0.9721 B( 18-C , 19-C ) :   1.2530
B( 18-C , 21-H ) :   1.0075 B( 19-C , 20-C ) :   1.5672 B( 19-C , 22-C ) :   1.0454
B( 22-C , 23-H ) :   0.9192 B( 22-C , 24-H ) :   0.9270 B( 22-C , 25-C ) :   1.0959
B( 25-C , 26-H ) :   0.9462 B( 25-C , 27-H ) :   0.9488 B( 25-C , 28-C ) :   1.0643
B( 28-C , 29-H ) :   0.9755 B( 28-C , 30-H ) :   0.9744 B( 28-C , 31-H ) :   0.9764

Dispersion correction           -0.014351386
FINAL SINGLE POINT ENERGY     -1339.864008954623

DIPOLE MOMENT
-------------
                                X             Y             Z
Electronic contribution:      2.57554      14.46554      15.33324
Nuclear contribution   :     -2.60351     -14.90008     -15.71232
                        -----------------------------------------
Total Dipole Moment    :     -0.02797      -0.43454      -0.37909
                        -----------------------------------------
Magnitude (a.u.)       :      0.57733
Magnitude (Debye)      :      1.46746

Rotational constants in cm-1:     0.021144     0.007481     0.007205
Rotational constants in MHz :   633.896157   224.274091   216.008653

                             ****ORCA TERMINATED NORMALLY****
TOTAL RUN TIME: 0 days 0 hours 0 minutes 21 seconds 749 msec
