                         Program Version 4.2.1 -  RELEASE  -
|  1> ! wB97X-D3 SP def2-SVP
|  2> %pal
|  3> nprocs 24
|  4> end
|  5>
|  6> * xyz 0 1
|  7> S 	 -102.899 	 -4.21632 	 -106.256
|  8> C 	 -104.33 	 -5.19412 	 -106.502
|  9> C 	 -104.059 	 -6.50531 	 -106.283
| 10> C 	 -102.697 	 -6.79083 	 -105.927
| 11> C 	 -101.941 	 -5.63807 	 -105.877
| 12> H 	 -102.209 	 -7.72879 	 -105.685
| 13> C 	 -105.151 	 -7.52881 	 -106.029
| 14> H 	 -104.819 	 -8.44568 	 -106.499
| 15> H 	 -106.058 	 -7.21642 	 -106.526
| 16> C 	 -105.376 	 -7.69155 	 -104.553
| 17> H 	 -104.488 	 -7.78539 	 -104.02
| 18> H 	 -105.86 	 -6.78394 	 -104.179
| 19> C 	 -106.218 	 -8.9084 	 -104.168
| 20> H 	 -107.299 	 -8.98376 	 -104.484
| 21> H 	 -105.587 	 -9.76352 	 -104.563
| 22> H 	 -106.344 	 -8.96699 	 -103.118
| 23> S 	 -99.4691 	 -6.12634 	 -106.923
| 24> C 	 -98.1063 	 -5.50653 	 -106.142
| 25> C 	 -98.4548 	 -4.97025 	 -104.899
| 26> C 	 -99.8239 	 -4.99569 	 -104.624
| 27> C 	 -100.562 	 -5.44944 	 -105.7
| 28> H 	 -97.7751 	 -4.55234 	 -104.247
| 29> C 	 -100.321 	 -4.30184 	 -103.374
| 30> H 	 -101.103 	 -3.59097 	 -103.657
| 31> H 	 -99.5529 	 -3.61259 	 -103.042
| 32> C 	 -100.675 	 -5.21727 	 -102.191
| 33> H 	 -100.445 	 -4.77469 	 -101.288
| 34> H 	 -100.024 	 -6.05449 	 -102.207
| 35> C 	 -102.137 	 -5.62592 	 -101.973
| 36> H 	 -102.854 	 -4.73615 	 -102.138
| 37> H 	 -102.212 	 -6.07735 	 -100.952
| 38> H 	 -102.438 	 -6.35638 	 -102.735
| 39> H 	 -105.316 	 -4.73387 	 -106.484
| 40> H 	 -97.0968 	 -5.61267 	 -106.576
| 41> *
| 42>
| 43>                          ****END OF INPUT****

CARTESIAN COORDINATES (ANGSTROEM)
---------------------------------
  S    -102.899000   -4.216320  -106.256000
  C    -104.330000   -5.194120  -106.502000
  C    -104.059000   -6.505310  -106.283000
  C    -102.697000   -6.790830  -105.927000
  C    -101.941000   -5.638070  -105.877000
  H    -102.209000   -7.728790  -105.685000
  C    -105.151000   -7.528810  -106.029000
  H    -104.819000   -8.445680  -106.499000
  H    -106.058000   -7.216420  -106.526000
  C    -105.376000   -7.691550  -104.553000
  H    -104.488000   -7.785390  -104.020000
  H    -105.860000   -6.783940  -104.179000
  C    -106.218000   -8.908400  -104.168000
  H    -107.299000   -8.983760  -104.484000
  H    -105.587000   -9.763520  -104.563000
  H    -106.344000   -8.966990  -103.118000
  S    -99.469100   -6.126340  -106.923000
  C    -98.106300   -5.506530  -106.142000
  C    -98.454800   -4.970250  -104.899000
  C    -99.823900   -4.995690  -104.624000
  C    -100.562000   -5.449440  -105.700000
  H    -97.775100   -4.552340  -104.247000
  C    -100.321000   -4.301840  -103.374000
  H    -101.103000   -3.590970  -103.657000
  H    -99.552900   -3.612590  -103.042000
  C    -100.675000   -5.217270  -102.191000
  H    -100.445000   -4.774690  -101.288000
  H    -100.024000   -6.054490  -102.207000
  C    -102.137000   -5.625920  -101.973000
  H    -102.854000   -4.736150  -102.138000
  H    -102.212000   -6.077350  -100.952000
  H    -102.438000   -6.356380  -102.735000
  H    -105.316000   -4.733870  -106.484000
  H    -97.096800   -5.612670  -106.576000

 Total Charge           Charge          ....    0
 Multiplicity           Mult            ....    1
 Number of Electrons    NEL             ....  134
 Basis Dimension        Dim             ....  322

ORBITAL ENERGIES
----------------

  NO   OCC          E(Eh)            E(eV)
   0   2.0000     -88.964721     -2420.8531
   1   2.0000     -88.960115     -2420.7278
   2   2.0000     -10.323717      -280.9226
   3   2.0000     -10.318740      -280.7872
   4   2.0000     -10.318031      -280.7679
   5   2.0000     -10.309455      -280.5345
   6   2.0000     -10.298540      -280.2375
   7   2.0000     -10.298333      -280.2319
   8   2.0000     -10.295541      -280.1559
   9   2.0000     -10.289348      -279.9874
  10   2.0000     -10.285603      -279.8855
  11   2.0000     -10.284653      -279.8596
  12   2.0000     -10.282717      -279.8069
  13   2.0000     -10.281173      -279.7649
  14   2.0000     -10.278520      -279.6927
  15   2.0000     -10.274054      -279.5712
  16   2.0000      -8.080401      -219.8789
  17   2.0000      -8.075120      -219.7352
  18   2.0000      -6.038658      -164.3202
  19   2.0000      -6.034685      -164.2121
  20   2.0000      -6.033636      -164.1836
  21   2.0000      -6.031457      -164.1243
  22   2.0000      -6.029574      -164.0731
  23   2.0000      -6.025877      -163.9725
  24   2.0000      -1.012264       -27.5451
  25   2.0000      -0.988178       -26.8897
  26   2.0000      -0.917728       -24.9726
  27   2.0000      -0.909187       -24.7402
  28   2.0000      -0.874629       -23.7999
  29   2.0000      -0.855728       -23.2855
  30   2.0000      -0.845687       -23.0123
  31   2.0000      -0.811821       -22.0908
  32   2.0000      -0.784526       -21.3480
  33   2.0000      -0.770032       -20.9536
  34   2.0000      -0.708294       -19.2737
  35   2.0000      -0.698619       -19.0104
  36   2.0000      -0.692857       -18.8536
  37   2.0000      -0.669165       -18.2089
  38   2.0000      -0.646771       -17.5995
  39   2.0000      -0.617754       -16.8099
  40   2.0000      -0.602306       -16.3896
  41   2.0000      -0.573280       -15.5998
  42   2.0000      -0.561065       -15.2674
  43   2.0000      -0.555313       -15.1108
  44   2.0000      -0.534003       -14.5310
  45   2.0000      -0.523352       -14.2411
  46   2.0000      -0.518970       -14.1219
  47   2.0000      -0.516031       -14.0419
  48   2.0000      -0.510228       -13.8840
  49   2.0000      -0.499525       -13.5928
  50   2.0000      -0.493028       -13.4160
  51   2.0000      -0.482266       -13.1231
  52   2.0000      -0.469986       -12.7890
  53   2.0000      -0.466098       -12.6832
  54   2.0000      -0.456194       -12.4137
  55   2.0000      -0.448165       -12.1952
  56   2.0000      -0.443065       -12.0564
  57   2.0000      -0.434838       -11.8325
  58   2.0000      -0.430969       -11.7273
  59   2.0000      -0.424677       -11.5561
  60   2.0000      -0.423131       -11.5140
  61   2.0000      -0.411137       -11.1876
  62   2.0000      -0.408218       -11.1082
  63   2.0000      -0.337466        -9.1829
  64   2.0000      -0.329406        -8.9636
  65   2.0000      -0.328947        -8.9511
  66   2.0000      -0.302074        -8.2198
  67   0.0000       0.037250         1.0136
  68   0.0000       0.058978         1.6049
  69   0.0000       0.110785         3.0146
  70   0.0000       0.119889         3.2623
  71   0.0000       0.128748         3.5034

MULLIKEN ATOMIC CHARGES
-----------------------
   0 S :    0.094901
   1 C :   -0.117235
   2 C :   -0.085378
   3 C :    0.031804
   4 C :   -0.186190
   5 H :    0.015714
   6 C :    0.088005
   7 H :    0.014681
   8 H :    0.016832
   9 C :   -0.046479
  10 H :    0.018926
  11 H :    0.017344
  12 C :   -0.059472
  13 H :    0.037870
  14 H :    0.036174
  15 H :    0.024824
  16 S :    0.126193
  17 C :   -0.094174
  18 C :   -0.012113
  19 C :    0.003191
  20 C :   -0.183582
  21 H :   -0.016824
  22 C :    0.065247
  23 H :    0.022890
  24 H :    0.013133
  25 C :   -0.008018
  26 H :    0.001885
  27 H :    0.011375
  28 C :   -0.082934
  29 H :    0.043030
  30 H :    0.043356
  31 H :    0.035767
  32 H :    0.057632
  33 H :    0.071628
Sum of atomic charges:    0.0000000

LOEWDIN ATOMIC CHARGES
----------------------
   0 S :    0.398459
   1 C :   -0.198576
   2 C :   -0.061082
   3 C :   -0.062433
   4 C :   -0.188507
   5 H :    0.034333
   6 C :   -0.024729
   7 H :    0.025299
   8 H :    0.027538
   9 C :   -0.036517
  10 H :    0.017461
  11 H :    0.024533
  12 C :   -0.070157
  13 H :    0.029481
  14 H :    0.031658
  15 H :    0.019611
  16 S :    0.433070
  17 C :   -0.200779
  18 C :   -0.069106
  19 C :   -0.049300
  20 C :   -0.210178
  21 H :    0.015877
  22 C :   -0.028398
  23 H :    0.030178
  24 H :    0.032500
  25 C :   -0.038702
  26 H :    0.014977
  27 H :    0.021892
  28 C :   -0.069841
  29 H :    0.034201
  30 H :    0.030845
  31 H :    0.020422
  32 H :    0.030143
  33 H :    0.035825

  Mayer bond orders larger than 0.100000
B(  0-S ,  1-C ) :   1.1246 B(  0-S ,  4-C ) :   1.1579 B(  1-C ,  2-C ) :   1.6426
B(  1-C , 32-H ) :   0.9656 B(  2-C ,  3-C ) :   1.1952 B(  2-C ,  6-C ) :   1.0378
B(  3-C ,  4-C ) :   1.5990 B(  3-C ,  5-H ) :   1.0007 B(  4-C , 20-C ) :   1.0399
B(  6-C ,  7-H ) :   0.9326 B(  6-C ,  8-H ) :   0.9405 B(  6-C ,  9-C ) :   1.0699
B(  9-C , 10-H ) :   0.9534 B(  9-C , 11-H ) :   0.9487 B(  9-C , 12-C ) :   1.0824
B( 12-C , 13-H ) :   0.9748 B( 12-C , 14-H ) :   0.9751 B( 12-C , 15-H ) :   0.9730
B( 16-S , 17-C ) :   1.1949 B( 16-S , 20-C ) :   1.1462 B( 17-C , 18-C ) :   1.5360
B( 17-C , 20-C ) :   0.1100 B( 17-C , 33-H ) :   0.9674 B( 18-C , 19-C ) :   1.2910
B( 18-C , 21-H ) :   1.0030 B( 19-C , 20-C ) :   1.5511 B( 19-C , 22-C ) :   1.0401
B( 22-C , 23-H ) :   0.9390 B( 22-C , 24-H ) :   0.9354 B( 22-C , 25-C ) :   1.0576
B( 25-C , 26-H ) :   0.9543 B( 25-C , 27-H ) :   0.9502 B( 25-C , 28-C ) :   1.0795
B( 28-C , 29-H ) :   0.9734 B( 28-C , 30-H ) :   0.9726 B( 28-C , 31-H ) :   0.9777

Dispersion correction           -0.015518466
FINAL SINGLE POINT ENERGY     -1339.874446339532

DIPOLE MOMENT
-------------
                                X             Y             Z
Electronic contribution:     15.52612       9.97212     -20.26797
Nuclear contribution   :    -15.54340     -10.12579      20.84204
                        -----------------------------------------
Total Dipole Moment    :     -0.01727      -0.15367       0.57407
                        -----------------------------------------
Magnitude (a.u.)       :      0.59453
Magnitude (Debye)      :      1.51118

Rotational constants in cm-1:     0.020036     0.008938     0.007672
Rotational constants in MHz :   600.662705   267.939983   230.001788

                             ****ORCA TERMINATED NORMALLY****
TOTAL RUN TIME: 0 days 0 hours 0 minutes 22 seconds 536 msec
