                         Program Version 4.2.1 -  RELEASE  -
|  1> ! wB97X-D3 SP def2-SVP
|  2> %pal
|  3> nprocs 24
|  4> end
|  5>
|  6> * xyz 0 1
|  7> S 	 -33.0741 	 -35.6462 	 -91.1721
|  8> C 	 -32.6065 	 -35.4519 	 -89.5048
|  9> C 	 -31.39 	 -36.059 	 -89.287
| 10> C 	 -30.7978 	 -36.5969 	 -90.4628
| 11> C 	 -31.603 	 -36.4947 	 -91.6189
| 12> H 	 -29.9347 	 -37.2225 	 -90.5551
| 13> C 	 -30.6621 	 -36.2972 	 -87.939
| 14> H 	 -29.8215 	 -36.9716 	 -87.9638
| 15> H 	 -31.424 	 -36.8223 	 -87.3
| 16> C 	 -30.2617 	 -34.9417 	 -87.3219
| 17> H 	 -30.8793 	 -34.077 	 -87.6226
| 18> H 	 -30.4646 	 -35.0933 	 -86.3174
| 19> C 	 -28.8053 	 -34.6236 	 -87.451
| 20> H 	 -28.3127 	 -35.5168 	 -87.0111
| 21> H 	 -28.4734 	 -34.4498 	 -88.4807
| 22> H 	 -28.4681 	 -33.7205 	 -86.9772
| 23> S 	 -29.5737 	 -37.0687 	 -93.276
| 24> C 	 -29.797 	 -38.0373 	 -94.687
| 25> C 	 -31.1365 	 -38.3675 	 -94.9073
| 26> C 	 -31.9717 	 -37.8186 	 -93.8621
| 27> C 	 -31.2741 	 -37.0896 	 -92.9128
| 28> H 	 -31.4892 	 -38.8606 	 -95.7434
| 29> C 	 -33.5025 	 -38.1668 	 -93.8053
| 30> H 	 -33.8588 	 -38.3995 	 -92.8083
| 31> H 	 -33.6578 	 -39.0943 	 -94.3341
| 32> C 	 -34.4892 	 -37.1523 	 -94.4536
| 33> H 	 -34.3287 	 -37.1276 	 -95.5217
| 34> H 	 -34.074 	 -36.1362 	 -94.13
| 35> C 	 -36.0057 	 -37.2844 	 -93.9296
| 36> H 	 -36.7291 	 -36.6749 	 -94.4908
| 37> H 	 -36.1012 	 -37.0165 	 -92.8544
| 38> H 	 -36.3514 	 -38.2895 	 -94.0188
| 39> H 	 -33.1815 	 -34.9208 	 -88.7248
| 40> H 	 -29.034 	 -38.406 	 -95.4439
| 41> *
| 42>
| 43>                          ****END OF INPUT****

CARTESIAN COORDINATES (ANGSTROEM)
---------------------------------
  S    -33.074100  -35.646200  -91.172100
  C    -32.606500  -35.451900  -89.504800
  C    -31.390000  -36.059000  -89.287000
  C    -30.797800  -36.596900  -90.462800
  C    -31.603000  -36.494700  -91.618900
  H    -29.934700  -37.222500  -90.555100
  C    -30.662100  -36.297200  -87.939000
  H    -29.821500  -36.971600  -87.963800
  H    -31.424000  -36.822300  -87.300000
  C    -30.261700  -34.941700  -87.321900
  H    -30.879300  -34.077000  -87.622600
  H    -30.464600  -35.093300  -86.317400
  C    -28.805300  -34.623600  -87.451000
  H    -28.312700  -35.516800  -87.011100
  H    -28.473400  -34.449800  -88.480700
  H    -28.468100  -33.720500  -86.977200
  S    -29.573700  -37.068700  -93.276000
  C    -29.797000  -38.037300  -94.687000
  C    -31.136500  -38.367500  -94.907300
  C    -31.971700  -37.818600  -93.862100
  C    -31.274100  -37.089600  -92.912800
  H    -31.489200  -38.860600  -95.743400
  C    -33.502500  -38.166800  -93.805300
  H    -33.858800  -38.399500  -92.808300
  H    -33.657800  -39.094300  -94.334100
  C    -34.489200  -37.152300  -94.453600
  H    -34.328700  -37.127600  -95.521700
  H    -34.074000  -36.136200  -94.130000
  C    -36.005700  -37.284400  -93.929600
  H    -36.729100  -36.674900  -94.490800
  H    -36.101200  -37.016500  -92.854400
  H    -36.351400  -38.289500  -94.018800
  H    -33.181500  -34.920800  -88.724800
  H    -29.034000  -38.406000  -95.443900

 Total Charge           Charge          ....    0
 Multiplicity           Mult            ....    1
 Number of Electrons    NEL             ....  134
 Basis Dimension        Dim             ....  322

ORBITAL ENERGIES
----------------

  NO   OCC          E(Eh)            E(eV)
   0   2.0000     -88.970612     -2421.0134
   1   2.0000     -88.970246     -2421.0035
   2   2.0000     -10.334056      -281.2039
   3   2.0000     -10.329603      -281.0828
   4   2.0000     -10.323221      -280.9091
   5   2.0000     -10.316316      -280.7212
   6   2.0000     -10.308329      -280.5039
   7   2.0000     -10.302246      -280.3384
   8   2.0000     -10.296715      -280.1879
   9   2.0000     -10.293445      -280.0989
  10   2.0000     -10.293159      -280.0911
  11   2.0000     -10.291262      -280.0395
  12   2.0000     -10.290993      -280.0322
  13   2.0000     -10.283344      -279.8240
  14   2.0000     -10.277442      -279.6634
  15   2.0000     -10.274559      -279.5850
  16   2.0000      -8.085504      -220.0177
  17   2.0000      -8.084033      -219.9777
  18   2.0000      -6.044052      -164.4670
  19   2.0000      -6.042600      -164.4275
  20   2.0000      -6.039903      -164.3541
  21   2.0000      -6.038519      -164.3164
  22   2.0000      -6.036285      -164.2557
  23   2.0000      -6.034953      -164.2194
  24   2.0000      -1.007793       -27.4235
  25   2.0000      -0.985023       -26.8038
  26   2.0000      -0.912875       -24.8406
  27   2.0000      -0.894810       -24.3490
  28   2.0000      -0.872010       -23.7286
  29   2.0000      -0.849731       -23.1224
  30   2.0000      -0.840398       -22.8684
  31   2.0000      -0.809895       -22.0384
  32   2.0000      -0.781431       -21.2638
  33   2.0000      -0.771367       -20.9900
  34   2.0000      -0.706412       -19.2225
  35   2.0000      -0.699525       -19.0350
  36   2.0000      -0.688995       -18.7485
  37   2.0000      -0.670453       -18.2440
  38   2.0000      -0.639254       -17.3950
  39   2.0000      -0.609237       -16.5782
  40   2.0000      -0.594890       -16.1878
  41   2.0000      -0.578871       -15.7519
  42   2.0000      -0.553952       -15.0738
  43   2.0000      -0.549703       -14.9582
  44   2.0000      -0.538761       -14.6604
  45   2.0000      -0.518915       -14.1204
  46   2.0000      -0.514335       -13.9958
  47   2.0000      -0.512274       -13.9397
  48   2.0000      -0.501842       -13.6558
  49   2.0000      -0.492379       -13.3983
  50   2.0000      -0.483016       -13.1435
  51   2.0000      -0.480809       -13.0835
  52   2.0000      -0.477807       -13.0018
  53   2.0000      -0.468771       -12.7559
  54   2.0000      -0.463353       -12.6085
  55   2.0000      -0.446648       -12.1539
  56   2.0000      -0.443455       -12.0670
  57   2.0000      -0.437351       -11.9009
  58   2.0000      -0.433248       -11.7893
  59   2.0000      -0.424959       -11.5637
  60   2.0000      -0.421069       -11.4579
  61   2.0000      -0.407061       -11.0767
  62   2.0000      -0.401730       -10.9316
  63   2.0000      -0.355823        -9.6824
  64   2.0000      -0.334252        -9.0955
  65   2.0000      -0.329824        -8.9750
  66   2.0000      -0.286390        -7.7931
  67   0.0000       0.023620         0.6427
  68   0.0000       0.078573         2.1381
  69   0.0000       0.105058         2.8588
  70   0.0000       0.121823         3.3150
  71   0.0000       0.134721         3.6659

MULLIKEN ATOMIC CHARGES
-----------------------
   0 S :    0.116140
   1 C :   -0.136746
   2 C :   -0.068931
   3 C :    0.000105
   4 C :   -0.133351
   5 H :    0.013075
   6 C :    0.047223
   7 H :    0.020641
   8 H :    0.043388
   9 C :   -0.042028
  10 H :    0.032304
  11 H :    0.006047
  12 C :   -0.047814
  13 H :    0.029160
  14 H :    0.031211
  15 H :    0.029052
  16 S :    0.115849
  17 C :   -0.106052
  18 C :   -0.007300
  19 C :   -0.056352
  20 C :   -0.140919
  21 H :   -0.006514
  22 C :    0.057505
  23 H :    0.025858
  24 H :    0.011772
  25 C :   -0.085899
  26 H :    0.026792
  27 H :    0.029989
  28 C :   -0.052448
  29 H :    0.039695
  30 H :    0.043701
  31 H :    0.025115
  32 H :    0.060216
  33 H :    0.079512
Sum of atomic charges:    0.0000000

LOEWDIN ATOMIC CHARGES
----------------------
   0 S :    0.419801
   1 C :   -0.213346
   2 C :   -0.060408
   3 C :   -0.075884
   4 C :   -0.193884
   5 H :    0.020775
   6 C :   -0.022283
   7 H :    0.026428
   8 H :    0.038221
   9 C :   -0.041909
  10 H :    0.026050
  11 H :    0.014493
  12 C :   -0.064278
  13 H :    0.027878
  14 H :    0.025861
  15 H :    0.023330
  16 S :    0.438038
  17 C :   -0.206094
  18 C :   -0.061883
  19 C :   -0.054326
  20 C :   -0.197543
  21 H :    0.019469
  22 C :   -0.034360
  23 H :    0.026250
  24 H :    0.024922
  25 C :   -0.044088
  26 H :    0.019133
  27 H :    0.023059
  28 C :   -0.067037
  29 H :    0.029142
  30 H :    0.031700
  31 H :    0.018045
  32 H :    0.037583
  33 H :    0.047145

  Mayer bond orders larger than 0.100000
B(  0-S ,  1-C ) :   1.1374 B(  0-S ,  4-C ) :   1.1591 B(  1-C ,  2-C ) :   1.5973
B(  1-C , 32-H ) :   0.9636 B(  2-C ,  3-C ) :   1.2800 B(  2-C ,  6-C ) :   1.0098
B(  3-C ,  4-C ) :   1.5320 B(  3-C ,  5-H ) :   0.9856 B(  4-C , 20-C ) :   1.0524
B(  6-C ,  7-H ) :   0.9510 B(  6-C ,  8-H ) :   0.9492 B(  6-C ,  9-C ) :   1.0431
B(  9-C , 10-H ) :   0.9608 B(  9-C , 11-H ) :   0.9516 B(  9-C , 12-C ) :   1.0902
B( 12-C , 13-H ) :   0.9756 B( 12-C , 14-H ) :   0.9742 B( 12-C , 15-H ) :   0.9726
B( 16-S , 17-C ) :   1.1623 B( 16-S , 20-C ) :   1.1433 B( 17-C , 18-C ) :   1.5959
B( 17-C , 33-H ) :   0.9568 B( 18-C , 19-C ) :   1.2607 B( 18-C , 21-H ) :   0.9981
B( 19-C , 20-C ) :   1.5838 B( 19-C , 22-C ) :   1.0340 B( 22-C , 23-H ) :   0.9459
B( 22-C , 24-H ) :   0.9349 B( 22-C , 25-C ) :   1.0466 B( 25-C , 26-H ) :   0.9604
B( 25-C , 27-H ) :   0.9621 B( 25-C , 28-C ) :   1.0571 B( 28-C , 29-H ) :   0.9775
B( 28-C , 30-H ) :   0.9755 B( 28-C , 31-H ) :   0.9793

Dispersion correction           -0.014130177
FINAL SINGLE POINT ENERGY     -1339.870802235477

DIPOLE MOMENT
-------------
                                X             Y             Z
Electronic contribution:      6.40562      -0.82148      -9.69139
Nuclear contribution   :     -6.44503       0.54049       9.91824
                        -----------------------------------------
Total Dipole Moment    :     -0.03941      -0.28099       0.22685
                        -----------------------------------------
Magnitude (a.u.)       :      0.36327
Magnitude (Debye)      :      0.92337

Rotational constants in cm-1:     0.020561     0.008270     0.006174
Rotational constants in MHz :   616.416797   247.920139   185.106560

                             ****ORCA TERMINATED NORMALLY****
TOTAL RUN TIME: 0 days 0 hours 0 minutes 20 seconds 950 msec
