                         Program Version 4.2.1 -  RELEASE  -
|  1> ! wB97X-D3 SP def2-SVP
|  2> %pal
|  3> nprocs 24
|  4> end
|  5>
|  6> * xyz 0 1
|  7> S 	 -106.154 	 24.2097 	 -117.949
|  8> C 	 -105.832 	 24.2259 	 -116.204
|  9> C 	 -106.245 	 23.0411 	 -115.675
| 10> C 	 -106.757 	 22.1234 	 -116.606
| 11> C 	 -106.753 	 22.5538 	 -117.875
| 12> H 	 -107.039 	 21.055 	 -116.507
| 13> C 	 -106.098 	 22.6931 	 -114.174
| 14> H 	 -106.908 	 22.112 	 -113.863
| 15> H 	 -106.057 	 23.5487 	 -113.538
| 16> C 	 -104.733 	 21.9714 	 -113.836
| 17> H 	 -104.055 	 22.7187 	 -114.029
| 18> H 	 -104.695 	 21.8961 	 -112.717
| 19> C 	 -104.327 	 20.6646 	 -114.586
| 20> H 	 -103.426 	 20.9568 	 -115.184
| 21> H 	 -103.793 	 20.0056 	 -113.832
| 22> H 	 -105.013 	 20.0605 	 -115.108
| 23> S 	 -107.964 	 22.6877 	 -120.293
| 24> C 	 -108.156 	 21.3485 	 -121.276
| 25> C 	 -107.521 	 20.2896 	 -120.814
| 26> C 	 -106.956 	 20.4522 	 -119.558
| 27> C 	 -107.174 	 21.7578 	 -119.058
| 28> H 	 -107.521 	 19.259 	 -121.373
| 29> C 	 -106.306 	 19.2747 	 -118.798
| 30> H 	 -105.543 	 19.6878 	 -118.168
| 31> H 	 -105.851 	 18.6098 	 -119.537
| 32> C 	 -107.259 	 18.3428 	 -118.005
| 33> H 	 -107.786 	 17.642 	 -118.643
| 34> H 	 -108.019 	 18.9524 	 -117.604
| 35> C 	 -106.739 	 17.5008 	 -116.815
| 36> H 	 -105.921 	 18.0221 	 -116.286
| 37> H 	 -106.459 	 16.5195 	 -117.092
| 38> H 	 -107.601 	 17.3851 	 -116.107
| 39> H 	 -105.475 	 25.0923 	 -115.614
| 40> H 	 -108.559 	 21.4407 	 -122.274
| 41> *
| 42>
| 43>                          ****END OF INPUT****

CARTESIAN COORDINATES (ANGSTROEM)
---------------------------------
  S    -106.154000   24.209700  -117.949000
  C    -105.832000   24.225900  -116.204000
  C    -106.245000   23.041100  -115.675000
  C    -106.757000   22.123400  -116.606000
  C    -106.753000   22.553800  -117.875000
  H    -107.039000   21.055000  -116.507000
  C    -106.098000   22.693100  -114.174000
  H    -106.908000   22.112000  -113.863000
  H    -106.057000   23.548700  -113.538000
  C    -104.733000   21.971400  -113.836000
  H    -104.055000   22.718700  -114.029000
  H    -104.695000   21.896100  -112.717000
  C    -104.327000   20.664600  -114.586000
  H    -103.426000   20.956800  -115.184000
  H    -103.793000   20.005600  -113.832000
  H    -105.013000   20.060500  -115.108000
  S    -107.964000   22.687700  -120.293000
  C    -108.156000   21.348500  -121.276000
  C    -107.521000   20.289600  -120.814000
  C    -106.956000   20.452200  -119.558000
  C    -107.174000   21.757800  -119.058000
  H    -107.521000   19.259000  -121.373000
  C    -106.306000   19.274700  -118.798000
  H    -105.543000   19.687800  -118.168000
  H    -105.851000   18.609800  -119.537000
  C    -107.259000   18.342800  -118.005000
  H    -107.786000   17.642000  -118.643000
  H    -108.019000   18.952400  -117.604000
  C    -106.739000   17.500800  -116.815000
  H    -105.921000   18.022100  -116.286000
  H    -106.459000   16.519500  -117.092000
  H    -107.601000   17.385100  -116.107000
  H    -105.475000   25.092300  -115.614000
  H    -108.559000   21.440700  -122.274000

 Total Charge           Charge          ....    0
 Multiplicity           Mult            ....    1
 Number of Electrons    NEL             ....  134
 Basis Dimension        Dim             ....  322

ORBITAL ENERGIES
----------------

  NO   OCC          E(Eh)            E(eV)
   0   2.0000     -88.964588     -2420.8495
   1   2.0000     -88.963203     -2420.8118
   2   2.0000     -10.330616      -281.1104
   3   2.0000     -10.328979      -281.0658
   4   2.0000     -10.316709      -280.7319
   5   2.0000     -10.305828      -280.4358
   6   2.0000     -10.305219      -280.4193
   7   2.0000     -10.299590      -280.2661
   8   2.0000     -10.294334      -280.1231
   9   2.0000     -10.291019      -280.0329
  10   2.0000     -10.288453      -279.9630
  11   2.0000     -10.287296      -279.9316
  12   2.0000     -10.287077      -279.9256
  13   2.0000     -10.283746      -279.8349
  14   2.0000     -10.283404      -279.8257
  15   2.0000     -10.283123      -279.8180
  16   2.0000      -8.080131      -219.8715
  17   2.0000      -8.078844      -219.8365
  18   2.0000      -6.038328      -164.3113
  19   2.0000      -6.037522      -164.2893
  20   2.0000      -6.034269      -164.2008
  21   2.0000      -6.033488      -164.1796
  22   2.0000      -6.031145      -164.1158
  23   2.0000      -6.029363      -164.0673
  24   2.0000      -1.018655       -27.7190
  25   2.0000      -0.994837       -27.0709
  26   2.0000      -0.907499       -24.6943
  27   2.0000      -0.904315       -24.6077
  28   2.0000      -0.870435       -23.6857
  29   2.0000      -0.856401       -23.3038
  30   2.0000      -0.841723       -22.9044
  31   2.0000      -0.820438       -22.3253
  32   2.0000      -0.787585       -21.4313
  33   2.0000      -0.777924       -21.1684
  34   2.0000      -0.705626       -19.2011
  35   2.0000      -0.702434       -19.1142
  36   2.0000      -0.695797       -18.9336
  37   2.0000      -0.659494       -17.9458
  38   2.0000      -0.640978       -17.4419
  39   2.0000      -0.616601       -16.7786
  40   2.0000      -0.601020       -16.3546
  41   2.0000      -0.569192       -15.4885
  42   2.0000      -0.567691       -15.4477
  43   2.0000      -0.540889       -14.7183
  44   2.0000      -0.532913       -14.5013
  45   2.0000      -0.524539       -14.2734
  46   2.0000      -0.520250       -14.1567
  47   2.0000      -0.516518       -14.0552
  48   2.0000      -0.508657       -13.8413
  49   2.0000      -0.505333       -13.7508
  50   2.0000      -0.491340       -13.3700
  51   2.0000      -0.482108       -13.1188
  52   2.0000      -0.479790       -13.0558
  53   2.0000      -0.470989       -12.8163
  54   2.0000      -0.458805       -12.4847
  55   2.0000      -0.451059       -12.2739
  56   2.0000      -0.439952       -11.9717
  57   2.0000      -0.438076       -11.9207
  58   2.0000      -0.428295       -11.6545
  59   2.0000      -0.426972       -11.6185
  60   2.0000      -0.422852       -11.5064
  61   2.0000      -0.412764       -11.2319
  62   2.0000      -0.404916       -11.0183
  63   2.0000      -0.356536        -9.7018
  64   2.0000      -0.336348        -9.1525
  65   2.0000      -0.331480        -9.0200
  66   2.0000      -0.293674        -7.9913
  67   0.0000       0.030166         0.8208
  68   0.0000       0.078068         2.1243
  69   0.0000       0.111078         3.0226
  70   0.0000       0.120907         3.2900
  71   0.0000       0.133129         3.6226

MULLIKEN ATOMIC CHARGES
-----------------------
   0 S :    0.097414
   1 C :   -0.140511
   2 C :   -0.065554
   3 C :   -0.003382
   4 C :   -0.103815
   5 H :    0.014241
   6 C :    0.107169
   7 H :    0.014262
   8 H :    0.007769
   9 C :   -0.070853
  10 H :    0.001030
  11 H :    0.034421
  12 C :   -0.053660
  13 H :    0.041113
  14 H :    0.030868
  15 H :    0.033375
  16 S :    0.105959
  17 C :   -0.071940
  18 C :   -0.066346
  19 C :   -0.044751
  20 C :   -0.187964
  21 H :    0.047538
  22 C :    0.093605
  23 H :    0.022038
  24 H :    0.022061
  25 C :   -0.070571
  26 H :    0.020707
  27 H :    0.017732
  28 C :   -0.054879
  29 H :    0.035874
  30 H :    0.030481
  31 H :    0.038626
  32 H :    0.062983
  33 H :    0.054960
Sum of atomic charges:   -0.0000000

LOEWDIN ATOMIC CHARGES
----------------------
   0 S :    0.380080
   1 C :   -0.192652
   2 C :   -0.063557
   3 C :   -0.077277
   4 C :   -0.184281
   5 H :    0.038986
   6 C :   -0.017084
   7 H :    0.018100
   8 H :    0.026100
   9 C :   -0.035477
  10 H :    0.010757
  11 H :    0.027179
  12 C :   -0.077132
  13 H :    0.039096
  14 H :    0.037001
  15 H :    0.013021
  16 S :    0.446977
  17 C :   -0.207129
  18 C :   -0.090581
  19 C :   -0.056921
  20 C :   -0.197480
  21 H :    0.049639
  22 C :   -0.027382
  23 H :    0.026173
  24 H :    0.032099
  25 C :   -0.043727
  26 H :    0.024345
  27 H :    0.014854
  28 C :   -0.062653
  29 H :    0.024878
  30 H :    0.017636
  31 H :    0.035741
  32 H :    0.039766
  33 H :    0.030902

  Mayer bond orders larger than 0.100000
B(  0-S ,  1-C ) :   1.1144 B(  0-S ,  4-C ) :   1.1352 B(  1-C ,  2-C ) :   1.6338
B(  1-C , 32-H ) :   0.9657 B(  2-C ,  3-C ) :   1.2081 B(  2-C ,  6-C ) :   1.0274
B(  3-C ,  4-C ) :   1.6177 B(  3-C ,  5-H ) :   0.9945 B(  4-C , 20-C ) :   1.0314
B(  6-C ,  7-H ) :   0.9434 B(  6-C ,  8-H ) :   0.9407 B(  6-C ,  9-C ) :   1.0683
B(  9-C , 10-H ) :   0.9604 B(  9-C , 11-H ) :   0.9625 B(  9-C , 12-C ) :   1.0531
B( 12-C , 13-H ) :   0.9775 B( 12-C , 14-H ) :   0.9736 B( 12-C , 15-H ) :   0.9822
B( 16-S , 17-C ) :   1.1808 B( 16-S , 20-C ) :   1.1715 B( 17-C , 18-C ) :   1.5889
B( 17-C , 33-H ) :   0.9635 B( 18-C , 19-C ) :   1.2989 B( 18-C , 21-H ) :   0.9722
B( 19-C , 20-C ) :   1.5402 B( 19-C , 22-C ) :   1.0512 B( 22-C , 23-H ) :   0.9337
B( 22-C , 24-H ) :   0.9329 B( 22-C , 25-C ) :   1.0559 B( 25-C , 26-H ) :   0.9528
B( 25-C , 27-H ) :   0.9630 B( 25-C , 28-C ) :   1.0753 B( 28-C , 29-H ) :   0.9757
B( 28-C , 30-H ) :   0.9777 B( 28-C , 31-H ) :   0.9766

Dispersion correction           -0.015075381
FINAL SINGLE POINT ENERGY     -1339.858713367884

DIPOLE MOMENT
-------------
                                X             Y             Z
Electronic contribution:     -8.52243      23.29164     -20.62919
Nuclear contribution   :      8.66084     -23.84840      20.94412
                        -----------------------------------------
Total Dipole Moment    :      0.13842      -0.55677       0.31493
                        -----------------------------------------
Magnitude (a.u.)       :      0.65447
Magnitude (Debye)      :      1.66354

Rotational constants in cm-1:     0.016835     0.010781     0.006957
Rotational constants in MHz :   504.697463   323.219221   208.577562

                             ****ORCA TERMINATED NORMALLY****
TOTAL RUN TIME: 0 days 0 hours 0 minutes 22 seconds 542 msec
