                         Program Version 4.2.1 -  RELEASE  -
|  1> ! wB97X-D3 SP def2-SVP
|  2> %pal
|  3> nprocs 24
|  4> end
|  5>
|  6> * xyz 0 1
|  7> S 	 40.5743 	 -9.35329 	 -125.971
|  8> C 	 40.791 	 -9.22692 	 -124.177
|  9> C 	 40.9462 	 -10.5427 	 -123.675
| 10> C 	 41.1545 	 -11.5945 	 -124.7
| 11> C 	 40.9803 	 -11.0869 	 -125.967
| 12> H 	 41.2757 	 -12.6514 	 -124.53
| 13> C 	 41.0028 	 -10.8502 	 -122.231
| 14> H 	 41.4313 	 -11.8416 	 -122.241
| 15> H 	 39.9237 	 -11.0557 	 -122.066
| 16> C 	 41.5404 	 -9.8647 	 -121.168
| 17> H 	 41.1314 	 -8.86791 	 -121.216
| 18> H 	 41.1745 	 -10.341 	 -120.275
| 19> C 	 43.1469 	 -9.85849 	 -121.26
| 20> H 	 43.6209 	 -10.7937 	 -121.261
| 21> H 	 43.4559 	 -9.27834 	 -122.131
| 22> H 	 43.6186 	 -9.36956 	 -120.398
| 23> S 	 39.4976 	 -12.0549 	 -127.988
| 24> C 	 40.2427 	 -12.7478 	 -129.384
| 25> C 	 41.5792 	 -13.1126 	 -129.216
| 26> C 	 42.0522 	 -12.4867 	 -127.973
| 27> C 	 41.0643 	 -11.7916 	 -127.255
| 28> H 	 42.075 	 -13.6329 	 -130.007
| 29> C 	 43.4523 	 -12.6765 	 -127.466
| 30> H 	 43.7494 	 -11.9435 	 -126.655
| 31> H 	 44.0877 	 -12.1963 	 -128.213
| 32> C 	 43.6996 	 -14.1039 	 -126.993
| 33> H 	 43.2905 	 -14.7649 	 -127.8
| 34> H 	 43.3422 	 -14.3318 	 -125.985
| 35> C 	 45.2089 	 -14.3848 	 -126.865
| 36> H 	 45.32 	 -15.4335 	 -126.439
| 37> H 	 45.5947 	 -13.7304 	 -126.067
| 38> H 	 45.7659 	 -14.2325 	 -127.801
| 39> H 	 40.6868 	 -8.46971 	 -123.43
| 40> H 	 39.7013 	 -12.9417 	 -130.227
| 41> *
| 42>
| 43>                          ****END OF INPUT****

CARTESIAN COORDINATES (ANGSTROEM)
---------------------------------
  S     40.574300   -9.353290  -125.971000
  C     40.791000   -9.226920  -124.177000
  C     40.946200  -10.542700  -123.675000
  C     41.154500  -11.594500  -124.700000
  C     40.980300  -11.086900  -125.967000
  H     41.275700  -12.651400  -124.530000
  C     41.002800  -10.850200  -122.231000
  H     41.431300  -11.841600  -122.241000
  H     39.923700  -11.055700  -122.066000
  C     41.540400   -9.864700  -121.168000
  H     41.131400   -8.867910  -121.216000
  H     41.174500  -10.341000  -120.275000
  C     43.146900   -9.858490  -121.260000
  H     43.620900  -10.793700  -121.261000
  H     43.455900   -9.278340  -122.131000
  H     43.618600   -9.369560  -120.398000
  S     39.497600  -12.054900  -127.988000
  C     40.242700  -12.747800  -129.384000
  C     41.579200  -13.112600  -129.216000
  C     42.052200  -12.486700  -127.973000
  C     41.064300  -11.791600  -127.255000
  H     42.075000  -13.632900  -130.007000
  C     43.452300  -12.676500  -127.466000
  H     43.749400  -11.943500  -126.655000
  H     44.087700  -12.196300  -128.213000
  C     43.699600  -14.103900  -126.993000
  H     43.290500  -14.764900  -127.800000
  H     43.342200  -14.331800  -125.985000
  C     45.208900  -14.384800  -126.865000
  H     45.320000  -15.433500  -126.439000
  H     45.594700  -13.730400  -126.067000
  H     45.765900  -14.232500  -127.801000
  H     40.686800   -8.469710  -123.430000
  H     39.701300  -12.941700  -130.227000

 Total Charge           Charge          ....    0
 Multiplicity           Mult            ....    1
 Number of Electrons    NEL             ....  134
 Basis Dimension        Dim             ....  322

ORBITAL ENERGIES
----------------

  NO   OCC          E(Eh)            E(eV)
   0   2.0000     -88.964871     -2420.8572
   1   2.0000     -88.960595     -2420.7409
   2   2.0000     -10.333333      -281.1843
   3   2.0000     -10.324279      -280.9379
   4   2.0000     -10.314212      -280.6640
   5   2.0000     -10.311040      -280.5777
   6   2.0000     -10.310199      -280.5548
   7   2.0000     -10.304344      -280.3955
   8   2.0000     -10.299363      -280.2599
   9   2.0000     -10.299287      -280.2579
  10   2.0000     -10.299043      -280.2512
  11   2.0000     -10.291430      -280.0441
  12   2.0000     -10.290173      -280.0098
  13   2.0000     -10.289591      -279.9940
  14   2.0000     -10.283062      -279.8163
  15   2.0000     -10.279746      -279.7261
  16   2.0000      -8.077738      -219.8064
  17   2.0000      -8.076207      -219.7648
  18   2.0000      -6.036640      -164.2653
  19   2.0000      -6.034558      -164.2087
  20   2.0000      -6.032538      -164.1537
  21   2.0000      -6.030715      -164.1041
  22   2.0000      -6.028126      -164.0336
  23   2.0000      -6.026958      -164.0019
  24   2.0000      -0.999229       -27.1904
  25   2.0000      -0.972640       -26.4669
  26   2.0000      -0.910681       -24.7809
  27   2.0000      -0.908962       -24.7341
  28   2.0000      -0.862044       -23.4574
  29   2.0000      -0.847730       -23.0679
  30   2.0000      -0.840775       -22.8787
  31   2.0000      -0.814509       -22.1639
  32   2.0000      -0.779360       -21.2075
  33   2.0000      -0.766500       -20.8575
  34   2.0000      -0.721675       -19.6378
  35   2.0000      -0.700293       -19.0559
  36   2.0000      -0.693258       -18.8645
  37   2.0000      -0.662610       -18.0305
  38   2.0000      -0.630468       -17.1559
  39   2.0000      -0.607922       -16.5424
  40   2.0000      -0.594398       -16.1744
  41   2.0000      -0.576217       -15.6797
  42   2.0000      -0.564923       -15.3723
  43   2.0000      -0.549304       -14.9473
  44   2.0000      -0.539311       -14.6754
  45   2.0000      -0.526652       -14.3309
  46   2.0000      -0.517370       -14.0783
  47   2.0000      -0.513117       -13.9626
  48   2.0000      -0.508555       -13.8385
  49   2.0000      -0.496197       -13.5022
  50   2.0000      -0.485194       -13.2028
  51   2.0000      -0.472570       -12.8593
  52   2.0000      -0.461438       -12.5564
  53   2.0000      -0.461111       -12.5475
  54   2.0000      -0.457641       -12.4530
  55   2.0000      -0.452063       -12.3013
  56   2.0000      -0.448882       -12.2147
  57   2.0000      -0.439228       -11.9520
  58   2.0000      -0.432635       -11.7726
  59   2.0000      -0.428170       -11.6511
  60   2.0000      -0.420749       -11.4492
  61   2.0000      -0.411202       -11.1894
  62   2.0000      -0.399423       -10.8688
  63   2.0000      -0.335355        -9.1255
  64   2.0000      -0.324086        -8.8188
  65   2.0000      -0.318136        -8.6569
  66   2.0000      -0.299216        -8.1421
  67   0.0000       0.036491         0.9930
  68   0.0000       0.060607         1.6492
  69   0.0000       0.106735         2.9044
  70   0.0000       0.110983         3.0200
  71   0.0000       0.127969         3.4822

MULLIKEN ATOMIC CHARGES
-----------------------
   0 S :    0.109095
   1 C :   -0.089500
   2 C :   -0.158697
   3 C :    0.056748
   4 C :   -0.145207
   5 H :    0.018900
   6 C :    0.031785
   7 H :    0.011497
   8 H :    0.047502
   9 C :   -0.023234
  10 H :    0.035462
  11 H :    0.030558
  12 C :   -0.052164
  13 H :    0.022154
  14 H :    0.045017
  15 H :    0.030076
  16 S :    0.105862
  17 C :   -0.057853
  18 C :   -0.028482
  19 C :   -0.029071
  20 C :   -0.167019
  21 H :    0.022539
  22 C :    0.027750
  23 H :    0.026304
  24 H :    0.028850
  25 C :   -0.067619
  26 H :    0.040662
  27 H :    0.038660
  28 C :   -0.073339
  29 H :    0.040643
  30 H :    0.029533
  31 H :    0.042926
  32 H :    0.027243
  33 H :    0.022420
Sum of atomic charges:    0.0000000

LOEWDIN ATOMIC CHARGES
----------------------
   0 S :    0.374188
   1 C :   -0.202980
   2 C :   -0.053150
   3 C :   -0.063200
   4 C :   -0.183638
   5 H :    0.032775
   6 C :   -0.047164
   7 H :    0.029084
   8 H :    0.044064
   9 C :   -0.026886
  10 H :    0.023898
  11 H :    0.027943
  12 C :   -0.062717
  13 H :    0.018033
  14 H :    0.030035
  15 H :    0.026184
  16 S :    0.413352
  17 C :   -0.165194
  18 C :   -0.069090
  19 C :   -0.045561
  20 C :   -0.210627
  21 H :    0.032563
  22 C :   -0.051943
  23 H :    0.037357
  24 H :    0.033884
  25 C :   -0.038838
  26 H :    0.028328
  27 H :    0.029528
  28 C :   -0.070713
  29 H :    0.031184
  30 H :    0.023912
  31 H :    0.024048
  32 H :    0.025490
  33 H :    0.005850

  Mayer bond orders larger than 0.100000
B(  0-S ,  1-C ) :   1.0933 B(  0-S ,  4-C ) :   1.1391 B(  1-C ,  2-C ) :   1.6507
B(  1-C , 32-H ) :   0.9686 B(  2-C ,  3-C ) :   1.1848 B(  2-C ,  6-C ) :   1.0196
B(  3-C ,  4-C ) :   1.6217 B(  3-C ,  5-H ) :   0.9892 B(  4-C , 20-C ) :   0.9963
B(  6-C ,  7-H ) :   0.9406 B(  6-C ,  8-H ) :   0.9197 B(  6-C ,  9-C ) :   1.0681
B(  9-C , 10-H ) :   0.9566 B(  9-C , 11-H ) :   0.9520 B(  9-C , 12-C ) :   1.0607
B( 12-C , 13-H ) :   0.9795 B( 12-C , 14-H ) :   0.9793 B( 12-C , 15-H ) :   0.9785
B( 16-S , 17-C ) :   1.1741 B( 16-S , 20-C ) :   1.1438 B( 17-C , 18-C ) :   1.6088
B( 17-C , 33-H ) :   0.9781 B( 18-C , 19-C ) :   1.1991 B( 18-C , 21-H ) :   0.9984
B( 19-C , 20-C ) :   1.6231 B( 19-C , 22-C ) :   1.0506 B( 22-C , 23-H ) :   0.9288
B( 22-C , 24-H ) :   0.9402 B( 22-C , 25-C ) :   1.0470 B( 25-C , 26-H ) :   0.9616
B( 25-C , 27-H ) :   0.9531 B( 25-C , 28-C ) :   1.0789 B( 28-C , 29-H ) :   0.9746
B( 28-C , 30-H ) :   0.9729 B( 28-C , 31-H ) :   0.9780

Dispersion correction           -0.014063839
FINAL SINGLE POINT ENERGY     -1339.843675037783

DIPOLE MOMENT
-------------
                                X             Y             Z
Electronic contribution:    -20.68285       8.06972     -17.77067
Nuclear contribution   :     21.02563      -8.51551      18.20443
                        -----------------------------------------
Total Dipole Moment    :      0.34278      -0.44579       0.43376
                        -----------------------------------------
Magnitude (a.u.)       :      0.71019
Magnitude (Debye)      :      1.80515

Rotational constants in cm-1:     0.018522     0.008402     0.006331
Rotational constants in MHz :   555.271276   251.871556   189.796056

                             ****ORCA TERMINATED NORMALLY****
TOTAL RUN TIME: 0 days 0 hours 0 minutes 21 seconds 249 msec
