                         Program Version 4.2.1 -  RELEASE  -
|  1> ! wB97X-D3 SP def2-SVP
|  2> %pal
|  3> nprocs 24
|  4> end
|  5>
|  6> * xyz 0 1
|  7> S 	 -52.4066 	 -48.994 	 -71.7248
|  8> C 	 -52.6035 	 -47.312 	 -71.9313
|  9> C 	 -51.4394 	 -46.7196 	 -72.3175
| 10> C 	 -50.327 	 -47.6229 	 -72.3615
| 11> C 	 -50.6812 	 -48.9194 	 -72.0081
| 12> H 	 -49.3533 	 -47.4078 	 -72.6891
| 13> C 	 -51.2535 	 -45.28 	 -72.8006
| 14> H 	 -50.1862 	 -45.1751 	 -72.7528
| 15> H 	 -51.6505 	 -44.5953 	 -72.1432
| 16> C 	 -51.7389 	 -45.0448 	 -74.2681
| 17> H 	 -52.8136 	 -44.7688 	 -74.1797
| 18> H 	 -51.2584 	 -44.3115 	 -74.7888
| 19> C 	 -51.6374 	 -46.3042 	 -75.2302
| 20> H 	 -51.8136 	 -47.2769 	 -74.8822
| 21> H 	 -52.3474 	 -46.1661 	 -76.0327
| 22> H 	 -50.6946 	 -46.3372 	 -75.7249
| 23> S 	 -50.241 	 -51.4407 	 -73.1746
| 24> C 	 -48.6804 	 -52.1666 	 -72.8597
| 25> C 	 -47.8882 	 -51.3804 	 -72.0318
| 26> C 	 -48.5756 	 -50.1954 	 -71.6151
| 27> C 	 -49.8733 	 -50.0851 	 -72.0939
| 28> H 	 -46.8651 	 -51.6832 	 -71.8004
| 29> C 	 -47.8558 	 -49.2585 	 -70.6404
| 30> H 	 -48.6674 	 -48.8111 	 -70.031
| 31> H 	 -47.5439 	 -48.3753 	 -71.2764
| 32> C 	 -46.5643 	 -49.7231 	 -69.8255
| 33> H 	 -45.9986 	 -50.3134 	 -70.5265
| 34> H 	 -46.897 	 -50.467 	 -69.1214
| 35> C 	 -45.7367 	 -48.5446 	 -69.2577
| 36> H 	 -46.4796 	 -47.9461 	 -68.7452
| 37> H 	 -45.1858 	 -47.9311 	 -70.0313
| 38> H 	 -44.9907 	 -48.8452 	 -68.5539
| 39> H 	 -53.4988 	 -46.7107 	 -71.8423
| 40> H 	 -48.4098 	 -53.1469 	 -73.3443
| 41> *
| 42>
| 43>                          ****END OF INPUT****

CARTESIAN COORDINATES (ANGSTROEM)
---------------------------------
  S    -52.406600  -48.994000  -71.724800
  C    -52.603500  -47.312000  -71.931300
  C    -51.439400  -46.719600  -72.317500
  C    -50.327000  -47.622900  -72.361500
  C    -50.681200  -48.919400  -72.008100
  H    -49.353300  -47.407800  -72.689100
  C    -51.253500  -45.280000  -72.800600
  H    -50.186200  -45.175100  -72.752800
  H    -51.650500  -44.595300  -72.143200
  C    -51.738900  -45.044800  -74.268100
  H    -52.813600  -44.768800  -74.179700
  H    -51.258400  -44.311500  -74.788800
  C    -51.637400  -46.304200  -75.230200
  H    -51.813600  -47.276900  -74.882200
  H    -52.347400  -46.166100  -76.032700
  H    -50.694600  -46.337200  -75.724900
  S    -50.241000  -51.440700  -73.174600
  C    -48.680400  -52.166600  -72.859700
  C    -47.888200  -51.380400  -72.031800
  C    -48.575600  -50.195400  -71.615100
  C    -49.873300  -50.085100  -72.093900
  H    -46.865100  -51.683200  -71.800400
  C    -47.855800  -49.258500  -70.640400
  H    -48.667400  -48.811100  -70.031000
  H    -47.543900  -48.375300  -71.276400
  C    -46.564300  -49.723100  -69.825500
  H    -45.998600  -50.313400  -70.526500
  H    -46.897000  -50.467000  -69.121400
  C    -45.736700  -48.544600  -69.257700
  H    -46.479600  -47.946100  -68.745200
  H    -45.185800  -47.931100  -70.031300
  H    -44.990700  -48.845200  -68.553900
  H    -53.498800  -46.710700  -71.842300
  H    -48.409800  -53.146900  -73.344300

 Total Charge           Charge          ....    0
 Multiplicity           Mult            ....    1
 Number of Electrons    NEL             ....  134
 Basis Dimension        Dim             ....  322

ORBITAL ENERGIES
----------------

  NO   OCC          E(Eh)            E(eV)
   0   2.0000     -88.965999     -2420.8879
   1   2.0000     -88.964867     -2420.8571
   2   2.0000     -10.325473      -280.9704
   3   2.0000     -10.323510      -280.9170
   4   2.0000     -10.322649      -280.8936
   5   2.0000     -10.307400      -280.4786
   6   2.0000     -10.304779      -280.4073
   7   2.0000     -10.298549      -280.2378
   8   2.0000     -10.295446      -280.1533
   9   2.0000     -10.295183      -280.1462
  10   2.0000     -10.293300      -280.0949
  11   2.0000     -10.290606      -280.0216
  12   2.0000     -10.286520      -279.9104
  13   2.0000     -10.285677      -279.8875
  14   2.0000     -10.284699      -279.8609
  15   2.0000     -10.265248      -279.3316
  16   2.0000      -8.080429      -219.8796
  17   2.0000      -8.080320      -219.8767
  18   2.0000      -6.038982      -164.3290
  19   2.0000      -6.038760      -164.3230
  20   2.0000      -6.034966      -164.2198
  21   2.0000      -6.034677      -164.2119
  22   2.0000      -6.031176      -164.1167
  23   2.0000      -6.031166      -164.1164
  24   2.0000      -1.008991       -27.4561
  25   2.0000      -0.984234       -26.7824
  26   2.0000      -0.905955       -24.6523
  27   2.0000      -0.899710       -24.4824
  28   2.0000      -0.872303       -23.7366
  29   2.0000      -0.850235       -23.1361
  30   2.0000      -0.842945       -22.9377
  31   2.0000      -0.811716       -22.0879
  32   2.0000      -0.785459       -21.3734
  33   2.0000      -0.771203       -20.9855
  34   2.0000      -0.713194       -19.4070
  35   2.0000      -0.707413       -19.2497
  36   2.0000      -0.699115       -19.0239
  37   2.0000      -0.655219       -17.8294
  38   2.0000      -0.640581       -17.4311
  39   2.0000      -0.615137       -16.7387
  40   2.0000      -0.593537       -16.1510
  41   2.0000      -0.568692       -15.4749
  42   2.0000      -0.557335       -15.1658
  43   2.0000      -0.555409       -15.1135
  44   2.0000      -0.543337       -14.7849
  45   2.0000      -0.527396       -14.3512
  46   2.0000      -0.513803       -13.9813
  47   2.0000      -0.509143       -13.8545
  48   2.0000      -0.504480       -13.7276
  49   2.0000      -0.498561       -13.5665
  50   2.0000      -0.484752       -13.1908
  51   2.0000      -0.472988       -12.8707
  52   2.0000      -0.469491       -12.7755
  53   2.0000      -0.466649       -12.6982
  54   2.0000      -0.458126       -12.4663
  55   2.0000      -0.454895       -12.3783
  56   2.0000      -0.446844       -12.1592
  57   2.0000      -0.435572       -11.8525
  58   2.0000      -0.429517       -11.6877
  59   2.0000      -0.425371       -11.5749
  60   2.0000      -0.422134       -11.4868
  61   2.0000      -0.417621       -11.3640
  62   2.0000      -0.413230       -11.2446
  63   2.0000      -0.350042        -9.5251
  64   2.0000      -0.329618        -8.9694
  65   2.0000      -0.328534        -8.9399
  66   2.0000      -0.289065        -7.8659
  67   0.0000       0.028661         0.7799
  68   0.0000       0.071161         1.9364
  69   0.0000       0.117402         3.1947
  70   0.0000       0.127183         3.4608
  71   0.0000       0.134257         3.6533

MULLIKEN ATOMIC CHARGES
-----------------------
   0 S :    0.115754
   1 C :   -0.097644
   2 C :   -0.151328
   3 C :    0.046403
   4 C :   -0.190759
   5 H :   -0.004961
   6 C :    0.149476
   7 H :    0.005270
   8 H :    0.011758
   9 C :   -0.057293
  10 H :    0.031352
  11 H :    0.015575
  12 C :   -0.040408
  13 H :    0.036094
  14 H :    0.019379
  15 H :    0.019285
  16 S :    0.107081
  17 C :   -0.117709
  18 C :   -0.048705
  19 C :   -0.042005
  20 C :   -0.116955
  21 H :    0.027016
  22 C :    0.003632
  23 H :    0.043212
  24 H :    0.033690
  25 C :   -0.047551
  26 H :    0.021742
  27 H :    0.035813
  28 C :   -0.045065
  29 H :    0.037712
  30 H :    0.046457
  31 H :    0.034308
  32 H :    0.040677
  33 H :    0.078696
Sum of atomic charges:   -0.0000000

LOEWDIN ATOMIC CHARGES
----------------------
   0 S :    0.424320
   1 C :   -0.211381
   2 C :   -0.064876
   3 C :   -0.048860
   4 C :   -0.195891
   5 H :    0.022129
   6 C :   -0.020799
   7 H :    0.026232
   8 H :    0.018728
   9 C :   -0.023985
  10 H :    0.026222
  11 H :    0.012513
  12 C :   -0.061339
  13 H :    0.019293
  14 H :    0.026293
  15 H :    0.020109
  16 S :    0.396848
  17 C :   -0.186590
  18 C :   -0.080336
  19 C :   -0.050912
  20 C :   -0.210161
  21 H :    0.033795
  22 C :   -0.042555
  23 H :    0.034136
  24 H :    0.034867
  25 C :   -0.036867
  26 H :    0.016621
  27 H :    0.025724
  28 C :   -0.062932
  29 H :    0.027990
  30 H :    0.035014
  31 H :    0.024929
  32 H :    0.032288
  33 H :    0.039433

  Mayer bond orders larger than 0.100000
B(  0-S ,  1-C ) :   1.1420 B(  0-S ,  4-C ) :   1.1515 B(  1-C ,  2-C ) :   1.6102
B(  1-C , 32-H ) :   0.9691 B(  2-C ,  3-C ) :   1.2557 B(  2-C ,  6-C ) :   1.0206
B(  3-C ,  4-C ) :   1.5509 B(  3-C ,  5-H ) :   0.9999 B(  4-C , 20-C ) :   1.0696
B(  6-C ,  7-H ) :   0.9347 B(  6-C ,  8-H ) :   0.9416 B(  6-C ,  9-C ) :   1.0544
B(  9-C , 10-H ) :   0.9630 B(  9-C , 11-H ) :   0.9614 B(  9-C , 12-C ) :   1.0781
B( 12-C , 13-H ) :   0.9726 B( 12-C , 14-H ) :   0.9750 B( 12-C , 15-H ) :   0.9793
B( 16-S , 17-C ) :   1.1674 B( 16-S , 20-C ) :   1.1217 B( 17-C , 18-C ) :   1.5914
B( 17-C , 33-H ) :   0.9579 B( 18-C , 19-C ) :   1.2471 B( 18-C , 21-H ) :   0.9888
B( 19-C , 20-C ) :   1.5918 B( 19-C , 22-C ) :   1.0301 B( 22-C , 23-H ) :   0.9333
B( 22-C , 24-H ) :   0.9282 B( 22-C , 25-C ) :   1.0517 B( 25-C , 26-H ) :   0.9478
B( 25-C , 27-H ) :   0.9577 B( 25-C , 28-C ) :   1.0763 B( 28-C , 29-H ) :   0.9785
B( 28-C , 30-H ) :   0.9738 B( 28-C , 31-H ) :   0.9735

Dispersion correction           -0.014573612
FINAL SINGLE POINT ENERGY     -1339.868045059181

DIPOLE MOMENT
-------------
                                X             Y             Z
Electronic contribution:    -14.44023     -17.79160      -0.88220
Nuclear contribution   :     14.98568      18.22363       0.81935
                        -----------------------------------------
Total Dipole Moment    :      0.54545       0.43203      -0.06286
                        -----------------------------------------
Magnitude (a.u.)       :      0.69865
Magnitude (Debye)      :      1.77584

Rotational constants in cm-1:     0.017913     0.008572     0.006962
Rotational constants in MHz :   537.011607   256.990899   208.727074

                             ****ORCA TERMINATED NORMALLY****
TOTAL RUN TIME: 0 days 0 hours 0 minutes 21 seconds 553 msec
