                         Program Version 4.2.1 -  RELEASE  -
|  1> ! wB97X-D3 SP def2-SVP
|  2> %pal
|  3> nprocs 24
|  4> end
|  5>
|  6> * xyz 0 1
|  7> S 	 -55.8921 	 4.23297 	 -32.2112
|  8> C 	 -56.0662 	 2.46811 	 -32.0842
|  9> C 	 -55.1429 	 1.87651 	 -32.9337
| 10> C 	 -54.2942 	 2.76505 	 -33.6006
| 11> C 	 -54.6167 	 4.10539 	 -33.3785
| 12> H 	 -53.3766 	 2.46197 	 -34.2002
| 13> C 	 -54.962 	 0.338323 	 -33.0867
| 14> H 	 -54.1528 	 0.125011 	 -33.7706
| 15> H 	 -55.9075 	 0.0994113 	 -33.683
| 16> C 	 -54.7835 	 -0.522656 	 -31.7754
| 17> H 	 -53.9963 	 0.01762 	 -31.2238
| 18> H 	 -55.6408 	 -0.514543 	 -31.1486
| 19> C 	 -54.5161 	 -2.03244 	 -31.9868
| 20> H 	 -54.2017 	 -2.53053 	 -31.088
| 21> H 	 -55.3406 	 -2.55394 	 -32.5693
| 22> H 	 -53.6281 	 -2.14653 	 -32.688
| 23> S 	 -54.8238 	 5.97414 	 -35.4062
| 24> C 	 -53.5696 	 7.15043 	 -35.5856
| 25> C 	 -52.5852 	 6.97162 	 -34.573
| 26> C 	 -52.9632 	 5.87734 	 -33.6233
| 27> C 	 -54.1208 	 5.28864 	 -33.9641
| 28> H 	 -51.7041 	 7.6212 	 -34.4739
| 29> C 	 -52.1701 	 5.48137 	 -32.3656
| 30> H 	 -51.966 	 4.37877 	 -32.4163
| 31> H 	 -52.7837 	 5.47451 	 -31.4658
| 32> C 	 -50.7782 	 6.12965 	 -32.1608
| 33> H 	 -50.8801 	 7.20613 	 -32.4803
| 34> H 	 -50.0973 	 5.69225 	 -32.8421
| 35> C 	 -50.3806 	 5.95283 	 -30.6314
| 36> H 	 -49.4693 	 6.49415 	 -30.4404
| 37> H 	 -50.1412 	 4.92594 	 -30.3209
| 38> H 	 -51.0422 	 6.41021 	 -29.8751
| 39> H 	 -56.667 	 1.90972 	 -31.3715
| 40> H 	 -53.5067 	 7.93157 	 -36.3682
| 41> *
| 42>
| 43>                          ****END OF INPUT****

CARTESIAN COORDINATES (ANGSTROEM)
---------------------------------
  S    -55.892100    4.232970  -32.211200
  C    -56.066200    2.468110  -32.084200
  C    -55.142900    1.876510  -32.933700
  C    -54.294200    2.765050  -33.600600
  C    -54.616700    4.105390  -33.378500
  H    -53.376600    2.461970  -34.200200
  C    -54.962000    0.338323  -33.086700
  H    -54.152800    0.125011  -33.770600
  H    -55.907500    0.099411  -33.683000
  C    -54.783500   -0.522656  -31.775400
  H    -53.996300    0.017620  -31.223800
  H    -55.640800   -0.514543  -31.148600
  C    -54.516100   -2.032440  -31.986800
  H    -54.201700   -2.530530  -31.088000
  H    -55.340600   -2.553940  -32.569300
  H    -53.628100   -2.146530  -32.688000
  S    -54.823800    5.974140  -35.406200
  C    -53.569600    7.150430  -35.585600
  C    -52.585200    6.971620  -34.573000
  C    -52.963200    5.877340  -33.623300
  C    -54.120800    5.288640  -33.964100
  H    -51.704100    7.621200  -34.473900
  C    -52.170100    5.481370  -32.365600
  H    -51.966000    4.378770  -32.416300
  H    -52.783700    5.474510  -31.465800
  C    -50.778200    6.129650  -32.160800
  H    -50.880100    7.206130  -32.480300
  H    -50.097300    5.692250  -32.842100
  C    -50.380600    5.952830  -30.631400
  H    -49.469300    6.494150  -30.440400
  H    -50.141200    4.925940  -30.320900
  H    -51.042200    6.410210  -29.875100
  H    -56.667000    1.909720  -31.371500
  H    -53.506700    7.931570  -36.368200

 Total Charge           Charge          ....    0
 Multiplicity           Mult            ....    1
 Number of Electrons    NEL             ....  134
 Basis Dimension        Dim             ....  322

ORBITAL ENERGIES
----------------

  NO   OCC          E(Eh)            E(eV)
   0   2.0000     -88.966151     -2420.8921
   1   2.0000     -88.964313     -2420.8420
   2   2.0000     -10.325945      -280.9832
   3   2.0000     -10.324660      -280.9483
   4   2.0000     -10.315308      -280.6938
   5   2.0000     -10.313185      -280.6360
   6   2.0000     -10.305016      -280.4138
   7   2.0000     -10.304783      -280.4074
   8   2.0000     -10.301437      -280.3163
   9   2.0000     -10.300631      -280.2944
  10   2.0000     -10.298137      -280.2265
  11   2.0000     -10.294700      -280.1330
  12   2.0000     -10.292550      -280.0745
  13   2.0000     -10.291876      -280.0562
  14   2.0000     -10.289930      -280.0032
  15   2.0000     -10.283883      -279.8387
  16   2.0000      -8.080469      -219.8807
  17   2.0000      -8.079512      -219.8547
  18   2.0000      -6.038879      -164.3263
  19   2.0000      -6.038076      -164.3044
  20   2.0000      -6.034834      -164.2162
  21   2.0000      -6.033839      -164.1891
  22   2.0000      -6.031553      -164.1269
  23   2.0000      -6.030280      -164.0923
  24   2.0000      -1.009101       -27.4590
  25   2.0000      -0.981065       -26.6961
  26   2.0000      -0.904026       -24.5998
  27   2.0000      -0.900080       -24.4924
  28   2.0000      -0.870634       -23.6911
  29   2.0000      -0.847492       -23.0614
  30   2.0000      -0.838814       -22.8253
  31   2.0000      -0.808314       -21.9953
  32   2.0000      -0.779649       -21.2153
  33   2.0000      -0.769588       -20.9416
  34   2.0000      -0.709483       -19.3060
  35   2.0000      -0.705784       -19.2054
  36   2.0000      -0.698368       -19.0036
  37   2.0000      -0.651817       -17.7368
  38   2.0000      -0.637029       -17.3344
  39   2.0000      -0.610507       -16.6127
  40   2.0000      -0.595708       -16.2100
  41   2.0000      -0.566346       -15.4111
  42   2.0000      -0.557379       -15.1670
  43   2.0000      -0.556626       -15.1466
  44   2.0000      -0.527935       -14.3658
  45   2.0000      -0.522893       -14.2286
  46   2.0000      -0.515917       -14.0388
  47   2.0000      -0.512077       -13.9343
  48   2.0000      -0.502304       -13.6684
  49   2.0000      -0.494156       -13.4467
  50   2.0000      -0.481759       -13.1093
  51   2.0000      -0.479921       -13.0593
  52   2.0000      -0.474110       -12.9012
  53   2.0000      -0.460925       -12.5424
  54   2.0000      -0.454457       -12.3664
  55   2.0000      -0.450829       -12.2677
  56   2.0000      -0.443245       -12.0613
  57   2.0000      -0.440630       -11.9901
  58   2.0000      -0.435593       -11.8531
  59   2.0000      -0.419662       -11.4196
  60   2.0000      -0.417621       -11.3640
  61   2.0000      -0.417165       -11.3516
  62   2.0000      -0.412712       -11.2305
  63   2.0000      -0.334157        -9.0929
  64   2.0000      -0.324617        -8.8333
  65   2.0000      -0.321365        -8.7448
  66   2.0000      -0.309875        -8.4321
  67   0.0000       0.042325         1.1517
  68   0.0000       0.053562         1.4575
  69   0.0000       0.119047         3.2394
  70   0.0000       0.125732         3.4214
  71   0.0000       0.128602         3.4994

MULLIKEN ATOMIC CHARGES
-----------------------
   0 S :    0.115244
   1 C :   -0.126343
   2 C :   -0.100403
   3 C :    0.039489
   4 C :   -0.227657
   5 H :    0.040949
   6 C :    0.040758
   7 H :    0.014353
   8 H :    0.050979
   9 C :   -0.064027
  10 H :    0.039436
  11 H :    0.024144
  12 C :   -0.075797
  13 H :    0.043462
  14 H :    0.049043
  15 H :    0.024748
  16 S :    0.129263
  17 C :   -0.104381
  18 C :   -0.060219
  19 C :   -0.028904
  20 C :   -0.141871
  21 H :    0.030638
  22 C :    0.054890
  23 H :    0.026308
  24 H :    0.030326
  25 C :   -0.064665
  26 H :    0.040120
  27 H :    0.031908
  28 C :   -0.057650
  29 H :    0.020617
  30 H :    0.038001
  31 H :    0.042475
  32 H :    0.050683
  33 H :    0.074081
Sum of atomic charges:    0.0000000

LOEWDIN ATOMIC CHARGES
----------------------
   0 S :    0.415978
   1 C :   -0.199294
   2 C :   -0.068222
   3 C :   -0.069814
   4 C :   -0.197124
   5 H :    0.045782
   6 C :   -0.034132
   7 H :    0.023355
   8 H :    0.042324
   9 C :   -0.043011
  10 H :    0.029531
  11 H :    0.017000
  12 C :   -0.073505
  13 H :    0.026047
  14 H :    0.035353
  15 H :    0.026396
  16 S :    0.419844
  17 C :   -0.196441
  18 C :   -0.080095
  19 C :   -0.045817
  20 C :   -0.227362
  21 H :    0.030365
  22 C :   -0.042362
  23 H :    0.038340
  24 H :    0.031483
  25 C :   -0.034587
  26 H :    0.026793
  27 H :    0.020567
  28 C :   -0.069914
  29 H :    0.023068
  30 H :    0.028088
  31 H :    0.031420
  32 H :    0.030550
  33 H :    0.039398

  Mayer bond orders larger than 0.100000
B(  0-S ,  1-C ) :   1.1393 B(  0-S ,  4-C ) :   1.1794 B(  1-C ,  2-C ) :   1.5824
B(  1-C ,  4-C ) :   0.1168 B(  1-C , 32-H ) :   0.9739 B(  2-C ,  3-C ) :   1.2851
B(  2-C ,  6-C ) :   1.0055 B(  3-C ,  4-C ) :   1.5499 B(  3-C ,  5-H ) :   0.9825
B(  4-C , 20-C ) :   1.0198 B(  6-C ,  7-H ) :   0.9496 B(  6-C ,  8-H ) :   0.9380
B(  6-C ,  9-C ) :   1.0472 B(  9-C , 10-H ) :   0.9602 B(  9-C , 11-H ) :   0.9551
B(  9-C , 12-C ) :   1.0790 B( 12-C , 13-H ) :   0.9743 B( 12-C , 14-H ) :   0.9741
B( 12-C , 15-H ) :   0.9752 B( 16-S , 17-C ) :   1.1681 B( 16-S , 20-C ) :   1.1235
B( 17-C , 18-C ) :   1.6058 B( 17-C , 33-H ) :   0.9631 B( 18-C , 19-C ) :   1.2213
B( 18-C , 21-H ) :   0.9813 B( 19-C , 20-C ) :   1.6391 B( 19-C , 22-C ) :   1.0415
B( 22-C , 23-H ) :   0.9175 B( 22-C , 24-H ) :   0.9386 B( 22-C , 25-C ) :   1.0518
B( 25-C , 26-H ) :   0.9569 B( 25-C , 27-H ) :   0.9587 B( 25-C , 28-C ) :   1.0708
B( 28-C , 29-H ) :   0.9735 B( 28-C , 30-H ) :   0.9765 B( 28-C , 31-H ) :   0.9777

Dispersion correction           -0.013768432
FINAL SINGLE POINT ENERGY     -1339.868632352851

DIPOLE MOMENT
-------------
                                X             Y             Z
Electronic contribution:    -16.52324      17.65678     -13.19210
Nuclear contribution   :     17.08421     -18.00527      13.40401
                        -----------------------------------------
Total Dipole Moment    :      0.56097      -0.34849       0.21191
                        -----------------------------------------
Magnitude (a.u.)       :      0.69357
Magnitude (Debye)      :      1.76292

Rotational constants in cm-1:     0.018308     0.007550     0.006186
Rotational constants in MHz :   548.870629   226.357691   185.455656

                             ****ORCA TERMINATED NORMALLY****
TOTAL RUN TIME: 0 days 0 hours 0 minutes 20 seconds 813 msec
