                         Program Version 4.2.1 -  RELEASE  -
|  1> ! wB97X-D3 SP def2-SVP
|  2> %pal
|  3> nprocs 24
|  4> end
|  5>
|  6> * xyz 0 1
|  7> S 	 -64.5171 	 14.7588 	 -121.051
|  8> C 	 -63.5221 	 13.6737 	 -120.123
|  9> C 	 -64.1211 	 12.4384 	 -120.013
| 10> C 	 -65.2805 	 12.3231 	 -120.809
| 11> C 	 -65.6239 	 13.4828 	 -121.427
| 12> H 	 -66.0562 	 11.5636 	 -120.815
| 13> C 	 -63.6517 	 11.3407 	 -119.078
| 14> H 	 -64.5963 	 11.0551 	 -118.599
| 15> H 	 -62.9904 	 11.6979 	 -118.255
| 16> C 	 -62.9388 	 10.1856 	 -119.744
| 17> H 	 -63.6304 	 9.57043 	 -120.34
| 18> H 	 -62.1486 	 10.4649 	 -120.401
| 19> C 	 -62.3745 	 9.30551 	 -118.638
| 20> H 	 -61.6597 	 9.72307 	 -117.933
| 21> H 	 -63.1274 	 8.82714 	 -118.056
| 22> H 	 -61.8139 	 8.47642 	 -119.111
| 23> S 	 -66.5964 	 13.7454 	 -124.04
| 24> C 	 -68.3122 	 14.0012 	 -124.206
| 25> C 	 -68.8951 	 14.2964 	 -123.004
| 26> C 	 -68.0046 	 14.2757 	 -121.846
| 27> C 	 -66.7688 	 13.7902 	 -122.264
| 28> H 	 -69.9263 	 14.5713 	 -122.966
| 29> C 	 -68.3695 	 14.709 	 -120.46
| 30> H 	 -67.7907 	 15.6177 	 -120.227
| 31> H 	 -67.9219 	 13.9406 	 -119.787
| 32> C 	 -69.8292 	 14.7516 	 -120.009
| 33> H 	 -70.2151 	 13.7164 	 -119.84
| 34> H 	 -70.4624 	 15.2801 	 -120.809
| 35> C 	 -70.2362 	 15.5476 	 -118.683
| 36> H 	 -69.7767 	 15.0917 	 -117.797
| 37> H 	 -71.2763 	 15.3627 	 -118.551
| 38> H 	 -70.0205 	 16.5708 	 -118.747
| 39> H 	 -62.7063 	 13.9229 	 -119.431
| 40> H 	 -68.8088 	 14.4389 	 -125.1
| 41> *
| 42>
| 43>                          ****END OF INPUT****

CARTESIAN COORDINATES (ANGSTROEM)
---------------------------------
  S    -64.517100   14.758800  -121.051000
  C    -63.522100   13.673700  -120.123000
  C    -64.121100   12.438400  -120.013000
  C    -65.280500   12.323100  -120.809000
  C    -65.623900   13.482800  -121.427000
  H    -66.056200   11.563600  -120.815000
  C    -63.651700   11.340700  -119.078000
  H    -64.596300   11.055100  -118.599000
  H    -62.990400   11.697900  -118.255000
  C    -62.938800   10.185600  -119.744000
  H    -63.630400    9.570430  -120.340000
  H    -62.148600   10.464900  -120.401000
  C    -62.374500    9.305510  -118.638000
  H    -61.659700    9.723070  -117.933000
  H    -63.127400    8.827140  -118.056000
  H    -61.813900    8.476420  -119.111000
  S    -66.596400   13.745400  -124.040000
  C    -68.312200   14.001200  -124.206000
  C    -68.895100   14.296400  -123.004000
  C    -68.004600   14.275700  -121.846000
  C    -66.768800   13.790200  -122.264000
  H    -69.926300   14.571300  -122.966000
  C    -68.369500   14.709000  -120.460000
  H    -67.790700   15.617700  -120.227000
  H    -67.921900   13.940600  -119.787000
  C    -69.829200   14.751600  -120.009000
  H    -70.215100   13.716400  -119.840000
  H    -70.462400   15.280100  -120.809000
  C    -70.236200   15.547600  -118.683000
  H    -69.776700   15.091700  -117.797000
  H    -71.276300   15.362700  -118.551000
  H    -70.020500   16.570800  -118.747000
  H    -62.706300   13.922900  -119.431000
  H    -68.808800   14.438900  -125.100000

 Total Charge           Charge          ....    0
 Multiplicity           Mult            ....    1
 Number of Electrons    NEL             ....  134
 Basis Dimension        Dim             ....  322

ORBITAL ENERGIES
----------------

  NO   OCC          E(Eh)            E(eV)
   0   2.0000     -88.964362     -2420.8434
   1   2.0000     -88.962968     -2420.8054
   2   2.0000     -10.325149      -280.9616
   3   2.0000     -10.320874      -280.8452
   4   2.0000     -10.314248      -280.6650
   5   2.0000     -10.309730      -280.5420
   6   2.0000     -10.309292      -280.5301
   7   2.0000     -10.302198      -280.3370
   8   2.0000     -10.297071      -280.1975
   9   2.0000     -10.296329      -280.1774
  10   2.0000     -10.292402      -280.0705
  11   2.0000     -10.291877      -280.0562
  12   2.0000     -10.289229      -279.9841
  13   2.0000     -10.283434      -279.8265
  14   2.0000     -10.279633      -279.7230
  15   2.0000     -10.273694      -279.5614
  16   2.0000      -8.078702      -219.8327
  17   2.0000      -8.078250      -219.8203
  18   2.0000      -6.037264      -164.2823
  19   2.0000      -6.036636      -164.2652
  20   2.0000      -6.033465      -164.1789
  21   2.0000      -6.032684      -164.1577
  22   2.0000      -6.029219      -164.0634
  23   2.0000      -6.029102      -164.0602
  24   2.0000      -1.008888       -27.4532
  25   2.0000      -0.983481       -26.7619
  26   2.0000      -0.915867       -24.9220
  27   2.0000      -0.904886       -24.6232
  28   2.0000      -0.870653       -23.6917
  29   2.0000      -0.850245       -23.1363
  30   2.0000      -0.846918       -23.0458
  31   2.0000      -0.816112       -22.2075
  32   2.0000      -0.786872       -21.4119
  33   2.0000      -0.770454       -20.9651
  34   2.0000      -0.707022       -19.2390
  35   2.0000      -0.700699       -19.0670
  36   2.0000      -0.693640       -18.8749
  37   2.0000      -0.648158       -17.6373
  38   2.0000      -0.644685       -17.5428
  39   2.0000      -0.616874       -16.7860
  40   2.0000      -0.595162       -16.1952
  41   2.0000      -0.569460       -15.4958
  42   2.0000      -0.566707       -15.4209
  43   2.0000      -0.558968       -15.2103
  44   2.0000      -0.528036       -14.3686
  45   2.0000      -0.525725       -14.3057
  46   2.0000      -0.514536       -14.0012
  47   2.0000      -0.512488       -13.9455
  48   2.0000      -0.504719       -13.7341
  49   2.0000      -0.500961       -13.6318
  50   2.0000      -0.492842       -13.4109
  51   2.0000      -0.471267       -12.8238
  52   2.0000      -0.468899       -12.7594
  53   2.0000      -0.466643       -12.6980
  54   2.0000      -0.456177       -12.4132
  55   2.0000      -0.452668       -12.3177
  56   2.0000      -0.446690       -12.1550
  57   2.0000      -0.440240       -11.9795
  58   2.0000      -0.435446       -11.8491
  59   2.0000      -0.429213       -11.6795
  60   2.0000      -0.424037       -11.5386
  61   2.0000      -0.410625       -11.1737
  62   2.0000      -0.409603       -11.1459
  63   2.0000      -0.334750        -9.1090
  64   2.0000      -0.327398        -8.9090
  65   2.0000      -0.315468        -8.5843
  66   2.0000      -0.314375        -8.5546
  67   0.0000       0.044031         1.1981
  68   0.0000       0.052309         1.4234
  69   0.0000       0.112328         3.0566
  70   0.0000       0.115852         3.1525
  71   0.0000       0.136932         3.7261

MULLIKEN ATOMIC CHARGES
-----------------------
   0 S :    0.113301
   1 C :   -0.112468
   2 C :   -0.092899
   3 C :    0.059984
   4 C :   -0.209335
   5 H :    0.012920
   6 C :    0.042693
   7 H :    0.029607
   8 H :    0.020652
   9 C :   -0.035260
  10 H :    0.029683
  11 H :    0.029008
  12 C :   -0.055962
  13 H :    0.030975
  14 H :    0.019903
  15 H :    0.026355
  16 S :    0.115234
  17 C :   -0.077562
  18 C :   -0.063359
  19 C :   -0.017823
  20 C :   -0.189980
  21 H :    0.011410
  22 C :    0.105360
  23 H :    0.042503
  24 H :    0.035391
  25 C :   -0.158399
  26 H :    0.045858
  27 H :    0.042336
  28 C :   -0.019877
  29 H :    0.029118
  30 H :    0.029629
  31 H :    0.034824
  32 H :    0.050549
  33 H :    0.075630
Sum of atomic charges:    0.0000000

LOEWDIN ATOMIC CHARGES
----------------------
   0 S :    0.415385
   1 C :   -0.209552
   2 C :   -0.065104
   3 C :   -0.064753
   4 C :   -0.199992
   5 H :    0.035494
   6 C :   -0.033377
   7 H :    0.034505
   8 H :    0.031078
   9 C :   -0.035190
  10 H :    0.028616
  11 H :    0.023629
  12 C :   -0.067912
  13 H :    0.022629
  14 H :    0.019696
  15 H :    0.028107
  16 S :    0.395477
  17 C :   -0.205051
  18 C :   -0.069200
  19 C :   -0.044060
  20 C :   -0.199996
  21 H :    0.023880
  22 C :   -0.047980
  23 H :    0.039506
  24 H :    0.043273
  25 C :   -0.046984
  26 H :    0.030100
  27 H :    0.026332
  28 C :   -0.054144
  29 H :    0.025270
  30 H :    0.025948
  31 H :    0.017467
  32 H :    0.033463
  33 H :    0.043440

  Mayer bond orders larger than 0.100000
B(  0-S ,  1-C ) :   1.1338 B(  0-S ,  4-C ) :   1.1661 B(  1-C ,  2-C ) :   1.6284
B(  1-C , 32-H ) :   0.9616 B(  2-C ,  3-C ) :   1.2280 B(  2-C ,  6-C ) :   1.0136
B(  3-C ,  4-C ) :   1.6150 B(  3-C ,  5-H ) :   0.9909 B(  4-C , 20-C ) :   1.0064
B(  6-C ,  7-H ) :   0.9350 B(  6-C ,  8-H ) :   0.9493 B(  6-C ,  9-C ) :   1.0692
B(  9-C , 10-H ) :   0.9486 B(  9-C , 11-H ) :   0.9569 B(  9-C , 12-C ) :   1.0889
B( 12-C , 13-H ) :   0.9753 B( 12-C , 14-H ) :   0.9732 B( 12-C , 15-H ) :   0.9722
B( 16-S , 17-C ) :   1.1373 B( 16-S , 20-C ) :   1.1438 B( 17-C , 18-C ) :   1.6451
B( 17-C , 33-H ) :   0.9489 B( 18-C , 19-C ) :   1.2289 B( 18-C , 21-H ) :   0.9839
B( 19-C , 20-C ) :   1.6007 B( 19-C , 22-C ) :   1.0439 B( 22-C , 23-H ) :   0.9251
B( 22-C , 24-H ) :   0.9188 B( 22-C , 25-C ) :   1.0551 B( 25-C , 26-H ) :   0.9601
B( 25-C , 27-H ) :   0.9545 B( 25-C , 28-C ) :   1.0813 B( 28-C , 29-H ) :   0.9754
B( 28-C , 30-H ) :   0.9745 B( 28-C , 31-H ) :   0.9790

Dispersion correction           -0.013554763
FINAL SINGLE POINT ENERGY     -1339.870627011997

DIPOLE MOMENT
-------------
                                X             Y             Z
Electronic contribution:      4.45689      10.68785     -21.58281
Nuclear contribution   :     -4.79515     -10.75652      22.24957
                        -----------------------------------------
Total Dipole Moment    :     -0.33826      -0.06867       0.66676
                        -----------------------------------------
Magnitude (a.u.)       :      0.75080
Magnitude (Debye)      :      1.90839

Rotational constants in cm-1:     0.018405     0.007354     0.006240
Rotational constants in MHz :   551.774960   220.460537   187.060161

                             ****ORCA TERMINATED NORMALLY****
TOTAL RUN TIME: 0 days 0 hours 0 minutes 20 seconds 666 msec
