                         Program Version 4.2.1 -  RELEASE  -
|  1> ! wB97X-D3 SP def2-SVP
|  2> %pal
|  3> nprocs 24
|  4> end
|  5>
|  6> * xyz 0 1
|  7> S 	 41.2577 	 -19.1839 	 -108.427
|  8> C 	 42.3298 	 -20.3794 	 -108.993
|  9> C 	 42.4421 	 -21.4364 	 -108.172
| 10> C 	 41.8897 	 -21.14 	 -106.878
| 11> C 	 41.1618 	 -19.9777 	 -106.869
| 12> H 	 41.9803 	 -21.7594 	 -106.067
| 13> C 	 43.3444 	 -22.6215 	 -108.477
| 14> H 	 44.3535 	 -22.2978 	 -108.765
| 15> H 	 42.9032 	 -22.922 	 -109.415
| 16> C 	 43.3772 	 -23.8317 	 -107.564
| 17> H 	 44.1687 	 -24.5616 	 -107.882
| 18> H 	 43.7303 	 -23.5321 	 -106.584
| 19> C 	 41.9739 	 -24.5255 	 -107.337
| 20> H 	 41.3526 	 -23.7614 	 -106.809
| 21> H 	 41.3564 	 -24.7388 	 -108.183
| 22> H 	 42.0639 	 -25.5388 	 -106.871
| 23> S 	 39.1098 	 -18.401 	 -106.117
| 24> C 	 38.8068 	 -17.9453 	 -104.451
| 25> C 	 39.7394 	 -18.583 	 -103.661
| 26> C 	 40.7148 	 -19.3941 	 -104.322
| 27> C 	 40.5412 	 -19.346 	 -105.712
| 28> H 	 39.5455 	 -18.4205 	 -102.611
| 29> C 	 41.9311 	 -19.9882 	 -103.673
| 30> H 	 42.2746 	 -19.2385 	 -102.884
| 31> H 	 42.7648 	 -20.0422 	 -104.408
| 32> C 	 41.6852 	 -21.3593 	 -103.044
| 33> H 	 41.3719 	 -22.0337 	 -103.893
| 34> H 	 40.846 	 -21.2857 	 -102.304
| 35> C 	 42.9778 	 -21.996 	 -102.502
| 36> H 	 42.8203 	 -23.0089 	 -102.067
| 37> H 	 43.2658 	 -21.2704 	 -101.741
| 38> H 	 43.8513 	 -22.1171 	 -103.243
| 39> H 	 42.8821 	 -20.3516 	 -109.949
| 40> H 	 37.9762 	 -17.3218 	 -104.175
| 41> *
| 42>
| 43>                          ****END OF INPUT****

CARTESIAN COORDINATES (ANGSTROEM)
---------------------------------
  S     41.257700  -19.183900  -108.427000
  C     42.329800  -20.379400  -108.993000
  C     42.442100  -21.436400  -108.172000
  C     41.889700  -21.140000  -106.878000
  C     41.161800  -19.977700  -106.869000
  H     41.980300  -21.759400  -106.067000
  C     43.344400  -22.621500  -108.477000
  H     44.353500  -22.297800  -108.765000
  H     42.903200  -22.922000  -109.415000
  C     43.377200  -23.831700  -107.564000
  H     44.168700  -24.561600  -107.882000
  H     43.730300  -23.532100  -106.584000
  C     41.973900  -24.525500  -107.337000
  H     41.352600  -23.761400  -106.809000
  H     41.356400  -24.738800  -108.183000
  H     42.063900  -25.538800  -106.871000
  S     39.109800  -18.401000  -106.117000
  C     38.806800  -17.945300  -104.451000
  C     39.739400  -18.583000  -103.661000
  C     40.714800  -19.394100  -104.322000
  C     40.541200  -19.346000  -105.712000
  H     39.545500  -18.420500  -102.611000
  C     41.931100  -19.988200  -103.673000
  H     42.274600  -19.238500  -102.884000
  H     42.764800  -20.042200  -104.408000
  C     41.685200  -21.359300  -103.044000
  H     41.371900  -22.033700  -103.893000
  H     40.846000  -21.285700  -102.304000
  C     42.977800  -21.996000  -102.502000
  H     42.820300  -23.008900  -102.067000
  H     43.265800  -21.270400  -101.741000
  H     43.851300  -22.117100  -103.243000
  H     42.882100  -20.351600  -109.949000
  H     37.976200  -17.321800  -104.175000

 Total Charge           Charge          ....    0
 Multiplicity           Mult            ....    1
 Number of Electrons    NEL             ....  134
 Basis Dimension        Dim             ....  322

ORBITAL ENERGIES
----------------

  NO   OCC          E(Eh)            E(eV)
   0   2.0000     -88.967389     -2420.9257
   1   2.0000     -88.959141     -2420.7013
   2   2.0000     -10.330206      -281.0992
   3   2.0000     -10.329510      -281.0803
   4   2.0000     -10.316522      -280.7268
   5   2.0000     -10.307755      -280.4883
   6   2.0000     -10.306460      -280.4530
   7   2.0000     -10.298004      -280.2229
   8   2.0000     -10.297192      -280.2008
   9   2.0000     -10.296760      -280.1891
  10   2.0000     -10.295625      -280.1582
  11   2.0000     -10.295057      -280.1427
  12   2.0000     -10.292519      -280.0737
  13   2.0000     -10.289718      -279.9975
  14   2.0000     -10.288833      -279.9734
  15   2.0000     -10.284860      -279.8653
  16   2.0000      -8.083031      -219.9505
  17   2.0000      -8.074187      -219.7098
  18   2.0000      -6.041626      -164.4010
  19   2.0000      -6.037471      -164.2879
  20   2.0000      -6.033561      -164.1816
  21   2.0000      -6.032631      -164.1562
  22   2.0000      -6.028588      -164.0462
  23   2.0000      -6.025075      -163.9506
  24   2.0000      -1.013370       -27.5752
  25   2.0000      -0.987562       -26.8729
  26   2.0000      -0.912905       -24.8414
  27   2.0000      -0.909615       -24.7519
  28   2.0000      -0.873486       -23.7688
  29   2.0000      -0.851431       -23.1686
  30   2.0000      -0.843107       -22.9421
  31   2.0000      -0.820824       -22.3358
  32   2.0000      -0.782641       -21.2967
  33   2.0000      -0.770605       -20.9692
  34   2.0000      -0.714543       -19.4437
  35   2.0000      -0.695623       -18.9289
  36   2.0000      -0.690418       -18.7872
  37   2.0000      -0.664149       -18.0724
  38   2.0000      -0.641061       -17.4442
  39   2.0000      -0.629949       -17.1418
  40   2.0000      -0.596738       -16.2381
  41   2.0000      -0.567855       -15.4521
  42   2.0000      -0.562492       -15.3062
  43   2.0000      -0.552623       -15.0376
  44   2.0000      -0.536883       -14.6093
  45   2.0000      -0.524782       -14.2801
  46   2.0000      -0.518759       -14.1162
  47   2.0000      -0.513799       -13.9812
  48   2.0000      -0.508361       -13.8332
  49   2.0000      -0.501131       -13.6365
  50   2.0000      -0.496889       -13.5210
  51   2.0000      -0.484772       -13.1913
  52   2.0000      -0.471030       -12.8174
  53   2.0000      -0.466468       -12.6932
  54   2.0000      -0.455781       -12.4024
  55   2.0000      -0.448188       -12.1958
  56   2.0000      -0.442589       -12.0435
  57   2.0000      -0.437563       -11.9067
  58   2.0000      -0.434963       -11.8359
  59   2.0000      -0.430324       -11.7097
  60   2.0000      -0.419020       -11.4021
  61   2.0000      -0.411835       -11.2066
  62   2.0000      -0.404967       -11.0197
  63   2.0000      -0.359670        -9.7871
  64   2.0000      -0.333098        -9.0641
  65   2.0000      -0.327377        -8.9084
  66   2.0000      -0.285049        -7.7566
  67   0.0000       0.024600         0.6694
  68   0.0000       0.076263         2.0752
  69   0.0000       0.109490         2.9794
  70   0.0000       0.118723         3.2306
  71   0.0000       0.122983         3.3465

MULLIKEN ATOMIC CHARGES
-----------------------
   0 S :    0.128307
   1 C :   -0.142201
   2 C :   -0.072160
   3 C :    0.015934
   4 C :   -0.075289
   5 H :   -0.046958
   6 C :    0.064406
   7 H :    0.041623
   8 H :    0.023116
   9 C :   -0.067928
  10 H :    0.037121
  11 H :    0.024633
  12 C :   -0.078390
  13 H :    0.036019
  14 H :    0.025203
  15 H :    0.048572
  16 S :    0.067462
  17 C :   -0.092958
  18 C :   -0.040125
  19 C :    0.001229
  20 C :   -0.140168
  21 H :    0.016475
  22 C :   -0.005973
  23 H :    0.038879
  24 H :    0.038100
  25 C :   -0.096808
  26 H :    0.036321
  27 H :    0.043982
  28 C :   -0.062780
  29 H :    0.048393
  30 H :    0.029840
  31 H :    0.045646
  32 H :    0.051179
  33 H :    0.059297
Sum of atomic charges:   -0.0000000

LOEWDIN ATOMIC CHARGES
----------------------
   0 S :    0.423295
   1 C :   -0.208582
   2 C :   -0.065916
   3 C :   -0.053471
   4 C :   -0.190544
   5 H :    0.010405
   6 C :   -0.038873
   7 H :    0.036246
   8 H :    0.033469
   9 C :   -0.044657
  10 H :    0.032940
  11 H :    0.019802
  12 C :   -0.075562
  13 H :    0.030913
  14 H :    0.020639
  15 H :    0.034526
  16 S :    0.386817
  17 C :   -0.181613
  18 C :   -0.072605
  19 C :   -0.064936
  20 C :   -0.177049
  21 H :    0.031506
  22 C :   -0.040156
  23 H :    0.036643
  24 H :    0.033553
  25 C :   -0.048385
  26 H :    0.023806
  27 H :    0.030929
  28 C :   -0.076144
  29 H :    0.030242
  30 H :    0.023691
  31 H :    0.033599
  32 H :    0.035979
  33 H :    0.029494

  Mayer bond orders larger than 0.100000
B(  0-S ,  1-C ) :   1.1404 B(  0-S ,  4-C ) :   1.1390 B(  1-C ,  2-C ) :   1.6431
B(  1-C , 32-H ) :   0.9637 B(  2-C ,  3-C ) :   1.2256 B(  2-C ,  6-C ) :   0.9886
B(  3-C ,  4-C ) :   1.5693 B(  3-C ,  5-H ) :   1.0080 B(  4-C , 20-C ) :   1.0518
B(  6-C ,  7-H ) :   0.9449 B(  6-C ,  8-H ) :   0.9328 B(  6-C ,  9-C ) :   1.0862
B(  9-C , 10-H ) :   0.9532 B(  9-C , 11-H ) :   0.9500 B(  9-C , 12-C ) :   1.0611
B( 12-C , 13-H ) :   0.9730 B( 12-C , 14-H ) :   0.9774 B( 12-C , 15-H ) :   0.9757
B( 16-S , 17-C ) :   1.1434 B( 16-S , 20-C ) :   1.1488 B( 17-C , 18-C ) :   1.6099
B( 17-C , 20-C ) :   0.1035 B( 17-C , 33-H ) :   0.9739 B( 18-C , 19-C ) :   1.2218
B( 18-C , 21-H ) :   0.9942 B( 19-C , 20-C ) :   1.5780 B( 19-C , 22-C ) :   1.0348
B( 22-C , 23-H ) :   0.9372 B( 22-C , 24-H ) :   0.9433 B( 22-C , 25-C ) :   1.0540
B( 25-C , 26-H ) :   0.9510 B( 25-C , 27-H ) :   0.9544 B( 25-C , 28-C ) :   1.0703
B( 28-C , 29-H ) :   0.9741 B( 28-C , 30-H ) :   0.9737 B( 28-C , 31-H ) :   0.9727

Dispersion correction           -0.014733096
FINAL SINGLE POINT ENERGY     -1339.875162479091

DIPOLE MOMENT
-------------
                                X             Y             Z
Electronic contribution:    -14.68130      24.49864     -12.22601
Nuclear contribution   :     15.08908     -24.93489      12.49607
                        -----------------------------------------
Total Dipole Moment    :      0.40778      -0.43626       0.27006
                        -----------------------------------------
Magnitude (a.u.)       :      0.65539
Magnitude (Debye)      :      1.66587

Rotational constants in cm-1:     0.016513     0.010626     0.007130
Rotational constants in MHz :   495.033523   318.551906   213.745541

                             ****ORCA TERMINATED NORMALLY****
TOTAL RUN TIME: 0 days 0 hours 0 minutes 22 seconds 307 msec
