                         Program Version 4.2.1 -  RELEASE  -
|  1> ! wB97X-D3 SP def2-SVP
|  2> %pal
|  3> nprocs 24
|  4> end
|  5>
|  6> * xyz 0 1
|  7> S 	 -119.754 	 62.4603 	 -36.0674
|  8> C 	 -118.235 	 62.6555 	 -35.2206
|  9> C 	 -118.154 	 63.8942 	 -34.6023
| 10> C 	 -119.353 	 64.663 	 -34.7427
| 11> C 	 -120.37 	 63.9867 	 -35.4549
| 12> H 	 -119.617 	 65.6591 	 -34.3647
| 13> C 	 -116.961 	 64.3873 	 -33.7785
| 14> H 	 -116.572 	 65.1629 	 -34.4036
| 15> H 	 -116.26 	 63.5999 	 -33.8889
| 16> C 	 -117.101 	 64.7058 	 -32.255
| 17> H 	 -116.13 	 64.8524 	 -31.7948
| 18> H 	 -117.625 	 65.692 	 -32.1571
| 19> C 	 -117.782 	 63.6361 	 -31.3645
| 20> H 	 -118.737 	 63.3433 	 -31.7913
| 21> H 	 -117.144 	 62.756 	 -31.2549
| 22> H 	 -118.08 	 64.0917 	 -30.474
| 23> S 	 -122.198 	 65.8332 	 -36.5073
| 24> C 	 -123.887 	 65.4222 	 -36.424
| 25> C 	 -124.13 	 64.3226 	 -35.6957
| 26> C 	 -122.956 	 63.6236 	 -35.2612
| 27> C 	 -121.821 	 64.2901 	 -35.6365
| 28> H 	 -125.161 	 64.149 	 -35.2717
| 29> C 	 -123.059 	 62.387 	 -34.3863
| 30> H 	 -122.175 	 61.8271 	 -34.6463
| 31> H 	 -123.88 	 61.6993 	 -34.6559
| 32> C 	 -122.948 	 62.6801 	 -32.9228
| 33> H 	 -123.768 	 63.3105 	 -32.5895
| 34> H 	 -122.121 	 63.375 	 -32.6693
| 35> C 	 -122.747 	 61.4741 	 -32.0221
| 36> H 	 -122.795 	 61.8888 	 -31.0473
| 37> H 	 -121.757 	 61.005 	 -32.0637
| 38> H 	 -123.571 	 60.7296 	 -32.1561
| 39> H 	 -117.406 	 61.9935 	 -35.2195
| 40> H 	 -124.636 	 66.1526 	 -36.6218
| 41> *
| 42>
| 43>                          ****END OF INPUT****

CARTESIAN COORDINATES (ANGSTROEM)
---------------------------------
  S    -119.754000   62.460300  -36.067400
  C    -118.235000   62.655500  -35.220600
  C    -118.154000   63.894200  -34.602300
  C    -119.353000   64.663000  -34.742700
  C    -120.370000   63.986700  -35.454900
  H    -119.617000   65.659100  -34.364700
  C    -116.961000   64.387300  -33.778500
  H    -116.572000   65.162900  -34.403600
  H    -116.260000   63.599900  -33.888900
  C    -117.101000   64.705800  -32.255000
  H    -116.130000   64.852400  -31.794800
  H    -117.625000   65.692000  -32.157100
  C    -117.782000   63.636100  -31.364500
  H    -118.737000   63.343300  -31.791300
  H    -117.144000   62.756000  -31.254900
  H    -118.080000   64.091700  -30.474000
  S    -122.198000   65.833200  -36.507300
  C    -123.887000   65.422200  -36.424000
  C    -124.130000   64.322600  -35.695700
  C    -122.956000   63.623600  -35.261200
  C    -121.821000   64.290100  -35.636500
  H    -125.161000   64.149000  -35.271700
  C    -123.059000   62.387000  -34.386300
  H    -122.175000   61.827100  -34.646300
  H    -123.880000   61.699300  -34.655900
  C    -122.948000   62.680100  -32.922800
  H    -123.768000   63.310500  -32.589500
  H    -122.121000   63.375000  -32.669300
  C    -122.747000   61.474100  -32.022100
  H    -122.795000   61.888800  -31.047300
  H    -121.757000   61.005000  -32.063700
  H    -123.571000   60.729600  -32.156100
  H    -117.406000   61.993500  -35.219500
  H    -124.636000   66.152600  -36.621800

 Total Charge           Charge          ....    0
 Multiplicity           Mult            ....    1
 Number of Electrons    NEL             ....  134
 Basis Dimension        Dim             ....  322

ORBITAL ENERGIES
----------------

  NO   OCC          E(Eh)            E(eV)
   0   2.0000     -88.967797     -2420.9368
   1   2.0000     -88.963219     -2420.8123
   2   2.0000     -10.335097      -281.2323
   3   2.0000     -10.332630      -281.1652
   4   2.0000     -10.312661      -280.6218
   5   2.0000     -10.310454      -280.5617
   6   2.0000     -10.304698      -280.4051
   7   2.0000     -10.303985      -280.3857
   8   2.0000     -10.299953      -280.2760
   9   2.0000     -10.294338      -280.1232
  10   2.0000     -10.292637      -280.0769
  11   2.0000     -10.290049      -280.0065
  12   2.0000     -10.286844      -279.9193
  13   2.0000     -10.281331      -279.7692
  14   2.0000     -10.275386      -279.6075
  15   2.0000     -10.273801      -279.5643
  16   2.0000      -8.081841      -219.9181
  17   2.0000      -8.077615      -219.8031
  18   2.0000      -6.040324      -164.3656
  19   2.0000      -6.036301      -164.2561
  20   2.0000      -6.036173      -164.2526
  21   2.0000      -6.032800      -164.1608
  22   2.0000      -6.032394      -164.1498
  23   2.0000      -6.028128      -164.0337
  24   2.0000      -1.002295       -27.2738
  25   2.0000      -0.982956       -26.7476
  26   2.0000      -0.912627       -24.8338
  27   2.0000      -0.905498       -24.6399
  28   2.0000      -0.865688       -23.5566
  29   2.0000      -0.851237       -23.1633
  30   2.0000      -0.845336       -23.0028
  31   2.0000      -0.814847       -22.1731
  32   2.0000      -0.787679       -21.4338
  33   2.0000      -0.775677       -21.1072
  34   2.0000      -0.707992       -19.2654
  35   2.0000      -0.698734       -19.0135
  36   2.0000      -0.690158       -18.7802
  37   2.0000      -0.661714       -18.0061
  38   2.0000      -0.636398       -17.3173
  39   2.0000      -0.613858       -16.7039
  40   2.0000      -0.598581       -16.2882
  41   2.0000      -0.563095       -15.3226
  42   2.0000      -0.558086       -15.1863
  43   2.0000      -0.555696       -15.1213
  44   2.0000      -0.544282       -14.8107
  45   2.0000      -0.529109       -14.3978
  46   2.0000      -0.516029       -14.0419
  47   2.0000      -0.510853       -13.9010
  48   2.0000      -0.507179       -13.8010
  49   2.0000      -0.492177       -13.3928
  50   2.0000      -0.488170       -13.2838
  51   2.0000      -0.480748       -13.0818
  52   2.0000      -0.475470       -12.9382
  53   2.0000      -0.461761       -12.5651
  54   2.0000      -0.459810       -12.5121
  55   2.0000      -0.445031       -12.1099
  56   2.0000      -0.442969       -12.0538
  57   2.0000      -0.439287       -11.9536
  58   2.0000      -0.437898       -11.9158
  59   2.0000      -0.421076       -11.4580
  60   2.0000      -0.417582       -11.3630
  61   2.0000      -0.417213       -11.3530
  62   2.0000      -0.406895       -11.0722
  63   2.0000      -0.341002        -9.2791
  64   2.0000      -0.332100        -9.0369
  65   2.0000      -0.330473        -8.9926
  66   2.0000      -0.298916        -8.1339
  67   0.0000       0.030844         0.8393
  68   0.0000       0.069656         1.8954
  69   0.0000       0.105656         2.8750
  70   0.0000       0.120249         3.2721
  71   0.0000       0.129232         3.5166

MULLIKEN ATOMIC CHARGES
-----------------------
   0 S :    0.118470
   1 C :   -0.102936
   2 C :   -0.135760
   3 C :    0.044178
   4 C :   -0.172666
   5 H :    0.017859
   6 C :    0.120898
   7 H :    0.036199
   8 H :   -0.009580
   9 C :   -0.090509
  10 H :    0.033070
  11 H :    0.033082
  12 C :   -0.022119
  13 H :    0.029968
  14 H :    0.038870
  15 H :    0.020694
  16 S :    0.089508
  17 C :   -0.069253
  18 C :   -0.053752
  19 C :   -0.040885
  20 C :   -0.179763
  21 H :    0.041714
  22 C :    0.118698
  23 H :    0.001121
  24 H :    0.030498
  25 C :   -0.091098
  26 H :    0.012645
  27 H :    0.026686
  28 C :   -0.025235
  29 H :    0.020485
  30 H :    0.042336
  31 H :    0.034998
  32 H :    0.031388
  33 H :    0.050192
Sum of atomic charges:    0.0000000

LOEWDIN ATOMIC CHARGES
----------------------
   0 S :    0.416354
   1 C :   -0.199571
   2 C :   -0.062596
   3 C :   -0.066787
   4 C :   -0.191517
   5 H :    0.034162
   6 C :   -0.030508
   7 H :    0.035031
   8 H :    0.021236
   9 C :   -0.039641
  10 H :    0.026073
  11 H :    0.025752
  12 C :   -0.058618
  13 H :    0.025760
  14 H :    0.027409
  15 H :    0.021053
  16 S :    0.376518
  17 C :   -0.179813
  18 C :   -0.079224
  19 C :   -0.049649
  20 C :   -0.181907
  21 H :    0.042918
  22 C :   -0.035880
  23 H :    0.022392
  24 H :    0.034165
  25 C :   -0.047256
  26 H :    0.019775
  27 H :    0.031306
  28 C :   -0.063018
  29 H :    0.024245
  30 H :    0.028753
  31 H :    0.027161
  32 H :    0.021833
  33 H :    0.024090

  Mayer bond orders larger than 0.100000
B(  0-S ,  1-C ) :   1.1384 B(  0-S ,  4-C ) :   1.1673 B(  1-C ,  2-C ) :   1.6135
B(  1-C , 32-H ) :   0.9661 B(  2-C ,  3-C ) :   1.2308 B(  2-C ,  6-C ) :   1.0140
B(  3-C ,  4-C ) :   1.5743 B(  3-C ,  5-H ) :   0.9910 B(  4-C , 20-C ) :   1.0006
B(  6-C ,  7-H ) :   0.9356 B(  6-C ,  8-H ) :   0.9330 B(  6-C ,  9-C ) :   1.0578
B(  9-C , 10-H ) :   0.9578 B(  9-C , 11-H ) :   0.9580 B(  9-C , 12-C ) :   1.0790
B( 12-C , 13-H ) :   0.9728 B( 12-C , 14-H ) :   0.9769 B( 12-C , 15-H ) :   0.9712
B( 16-S , 17-C ) :   1.1405 B( 16-S , 20-C ) :   1.1201 B( 17-C , 18-C ) :   1.6646
B( 17-C , 33-H ) :   0.9610 B( 18-C , 19-C ) :   1.2133 B( 18-C , 21-H ) :   0.9737
B( 19-C , 20-C ) :   1.6460 B( 19-C , 22-C ) :   1.0412 B( 22-C , 23-H ) :   0.9124
B( 22-C , 24-H ) :   0.9335 B( 22-C , 25-C ) :   1.0680 B( 25-C , 26-H ) :   0.9512
B( 25-C , 27-H ) :   0.9489 B( 25-C , 28-C ) :   1.0884 B( 28-C , 29-H ) :   0.9702
B( 28-C , 30-H ) :   0.9737 B( 28-C , 31-H ) :   0.9734

Dispersion correction           -0.015003344
FINAL SINGLE POINT ENERGY     -1339.878489401240

DIPOLE MOMENT
-------------
                                X             Y             Z
Electronic contribution:     -5.40577       6.87416     -25.32179
Nuclear contribution   :      5.46217      -6.84000      26.02503
                        -----------------------------------------
Total Dipole Moment    :      0.05640       0.03417       0.70324
                        -----------------------------------------
Magnitude (a.u.)       :      0.70632
Magnitude (Debye)      :      1.79533

Rotational constants in cm-1:     0.017768     0.009212     0.007670
Rotational constants in MHz :   532.677247   276.170930   229.938697

                             ****ORCA TERMINATED NORMALLY****
TOTAL RUN TIME: 0 days 0 hours 0 minutes 22 seconds 50 msec
