                         Program Version 4.2.1 -  RELEASE  -
|  1> ! wB97X-D3 SP def2-SVP
|  2> %pal
|  3> nprocs 24
|  4> end
|  5>
|  6> * xyz 0 1
|  7> S 	 -67.744 	 9.18623 	 -100.953
|  8> C 	 -66.8161 	 10.5824 	 -101.528
|  9> C 	 -66.1658 	 10.3187 	 -102.719
| 10> C 	 -66.6806 	 9.14922 	 -103.378
| 11> C 	 -67.6134 	 8.48899 	 -102.604
| 12> H 	 -66.2525 	 8.80453 	 -104.279
| 13> C 	 -65.0329 	 11.042 	 -103.331
| 14> H 	 -64.4717 	 10.3384 	 -103.931
| 15> H 	 -64.5482 	 11.381 	 -102.384
| 16> C 	 -65.3198 	 12.3088 	 -104.289
| 17> H 	 -66.0948 	 12.1731 	 -105.05
| 18> H 	 -65.7396 	 13.0616 	 -103.601
| 19> C 	 -63.9665 	 12.8741 	 -104.865
| 20> H 	 -63.648 	 12.3124 	 -105.78
| 21> H 	 -64.1249 	 13.9605 	 -105.136
| 22> H 	 -63.1736 	 12.8539 	 -104.17
| 23> S 	 -67.585 	 5.70104 	 -102.467
| 24> C 	 -68.536 	 4.84748 	 -103.618
| 25> C 	 -69.4904 	 5.62943 	 -104.27
| 26> C 	 -69.3037 	 7.02282 	 -103.869
| 27> C 	 -68.2698 	 7.2403 	 -102.98
| 28> H 	 -70.242 	 5.25946 	 -104.935
| 29> C 	 -70.0794 	 8.18752 	 -104.449
| 30> H 	 -70.5499 	 7.76769 	 -105.357
| 31> H 	 -69.3307 	 8.8836 	 -104.826
| 32> C 	 -71.0712 	 8.85628 	 -103.515
| 33> H 	 -70.5574 	 9.02417 	 -102.565
| 34> H 	 -71.9273 	 8.30502 	 -103.305
| 35> C 	 -71.4351 	 10.3088 	 -103.953
| 36> H 	 -71.9899 	 10.3009 	 -104.857
| 37> H 	 -70.554 	 10.881 	 -104.111
| 38> H 	 -71.9855 	 10.7926 	 -103.118
| 39> H 	 -66.5389 	 11.4169 	 -100.874
| 40> H 	 -68.6297 	 3.78466 	 -103.656
| 41> *
| 42>
| 43>                          ****END OF INPUT****

CARTESIAN COORDINATES (ANGSTROEM)
---------------------------------
  S    -67.744000    9.186230  -100.953000
  C    -66.816100   10.582400  -101.528000
  C    -66.165800   10.318700  -102.719000
  C    -66.680600    9.149220  -103.378000
  C    -67.613400    8.488990  -102.604000
  H    -66.252500    8.804530  -104.279000
  C    -65.032900   11.042000  -103.331000
  H    -64.471700   10.338400  -103.931000
  H    -64.548200   11.381000  -102.384000
  C    -65.319800   12.308800  -104.289000
  H    -66.094800   12.173100  -105.050000
  H    -65.739600   13.061600  -103.601000
  C    -63.966500   12.874100  -104.865000
  H    -63.648000   12.312400  -105.780000
  H    -64.124900   13.960500  -105.136000
  H    -63.173600   12.853900  -104.170000
  S    -67.585000    5.701040  -102.467000
  C    -68.536000    4.847480  -103.618000
  C    -69.490400    5.629430  -104.270000
  C    -69.303700    7.022820  -103.869000
  C    -68.269800    7.240300  -102.980000
  H    -70.242000    5.259460  -104.935000
  C    -70.079400    8.187520  -104.449000
  H    -70.549900    7.767690  -105.357000
  H    -69.330700    8.883600  -104.826000
  C    -71.071200    8.856280  -103.515000
  H    -70.557400    9.024170  -102.565000
  H    -71.927300    8.305020  -103.305000
  C    -71.435100   10.308800  -103.953000
  H    -71.989900   10.300900  -104.857000
  H    -70.554000   10.881000  -104.111000
  H    -71.985500   10.792600  -103.118000
  H    -66.538900   11.416900  -100.874000
  H    -68.629700    3.784660  -103.656000

 Total Charge           Charge          ....    0
 Multiplicity           Mult            ....    1
 Number of Electrons    NEL             ....  134
 Basis Dimension        Dim             ....  322

ORBITAL ENERGIES
----------------

  NO   OCC          E(Eh)            E(eV)
   0   2.0000     -88.969481     -2420.9827
   1   2.0000     -88.963426     -2420.8179
   2   2.0000     -10.333306      -281.1835
   3   2.0000     -10.319244      -280.8009
   4   2.0000     -10.317009      -280.7401
   5   2.0000     -10.314957      -280.6842
   6   2.0000     -10.300679      -280.2957
   7   2.0000     -10.299418      -280.2614
   8   2.0000     -10.299064      -280.2518
   9   2.0000     -10.297922      -280.2207
  10   2.0000     -10.296088      -280.1708
  11   2.0000     -10.293783      -280.1081
  12   2.0000     -10.287405      -279.9345
  13   2.0000     -10.284179      -279.8468
  14   2.0000     -10.273675      -279.5609
  15   2.0000     -10.267967      -279.4056
  16   2.0000      -8.082896      -219.9468
  17   2.0000      -8.078609      -219.8301
  18   2.0000      -6.041475      -164.3969
  19   2.0000      -6.037886      -164.2992
  20   2.0000      -6.037061      -164.2768
  21   2.0000      -6.033362      -164.1761
  22   2.0000      -6.033041      -164.1674
  23   2.0000      -6.029421      -164.0689
  24   2.0000      -1.002250       -27.2726
  25   2.0000      -0.980831       -26.6898
  26   2.0000      -0.905863       -24.6498
  27   2.0000      -0.903069       -24.5738
  28   2.0000      -0.864817       -23.5329
  29   2.0000      -0.849947       -23.1282
  30   2.0000      -0.845699       -23.0126
  31   2.0000      -0.813579       -22.1386
  32   2.0000      -0.777693       -21.1621
  33   2.0000      -0.764728       -20.8093
  34   2.0000      -0.706641       -19.2287
  35   2.0000      -0.705161       -19.1884
  36   2.0000      -0.692746       -18.8506
  37   2.0000      -0.662816       -18.0361
  38   2.0000      -0.640611       -17.4319
  39   2.0000      -0.617156       -16.7937
  40   2.0000      -0.588651       -16.0180
  41   2.0000      -0.571296       -15.5457
  42   2.0000      -0.563422       -15.3315
  43   2.0000      -0.553002       -15.0479
  44   2.0000      -0.524176       -14.2635
  45   2.0000      -0.522269       -14.2117
  46   2.0000      -0.516130       -14.0446
  47   2.0000      -0.509000       -13.8506
  48   2.0000      -0.498959       -13.5774
  49   2.0000      -0.494088       -13.4448
  50   2.0000      -0.489605       -13.3228
  51   2.0000      -0.479676       -13.0527
  52   2.0000      -0.469682       -12.7807
  53   2.0000      -0.466309       -12.6889
  54   2.0000      -0.460337       -12.5264
  55   2.0000      -0.451146       -12.2763
  56   2.0000      -0.445147       -12.1131
  57   2.0000      -0.438137       -11.9223
  58   2.0000      -0.435658       -11.8549
  59   2.0000      -0.427566       -11.6347
  60   2.0000      -0.419108       -11.4045
  61   2.0000      -0.416723       -11.3396
  62   2.0000      -0.404290       -11.0013
  63   2.0000      -0.336364        -9.1529
  64   2.0000      -0.326968        -8.8972
  65   2.0000      -0.321122        -8.7382
  66   2.0000      -0.303396        -8.2558
  67   0.0000       0.037172         1.0115
  68   0.0000       0.051326         1.3967
  69   0.0000       0.093914         2.5555
  70   0.0000       0.123936         3.3725
  71   0.0000       0.128520         3.4972

MULLIKEN ATOMIC CHARGES
-----------------------
   0 S :    0.107224
   1 C :   -0.130139
   2 C :   -0.089841
   3 C :    0.073354
   4 C :   -0.164027
   5 H :    0.002472
   6 C :    0.031520
   7 H :    0.028445
   8 H :    0.039655
   9 C :   -0.071865
  10 H :    0.039341
  11 H :    0.026505
  12 C :   -0.062602
  13 H :    0.045252
  14 H :    0.043897
  15 H :    0.026009
  16 S :    0.116665
  17 C :   -0.078524
  18 C :   -0.029179
  19 C :   -0.068528
  20 C :   -0.166953
  21 H :    0.015876
  22 C :    0.093217
  23 H :    0.008707
  24 H :    0.021497
  25 C :   -0.037414
  26 H :    0.020791
  27 H :    0.014894
  28 C :   -0.042688
  29 H :    0.023825
  30 H :    0.023630
  31 H :    0.038244
  32 H :    0.050549
  33 H :    0.050193
Sum of atomic charges:   -0.0000000

LOEWDIN ATOMIC CHARGES
----------------------
   0 S :    0.378877
   1 C :   -0.196867
   2 C :   -0.065265
   3 C :   -0.042150
   4 C :   -0.176328
   5 H :    0.027805
   6 C :   -0.035885
   7 H :    0.029099
   8 H :    0.041302
   9 C :   -0.037031
  10 H :    0.024807
  11 H :    0.023584
  12 C :   -0.069314
  13 H :    0.030047
  14 H :    0.034740
  15 H :    0.017171
  16 S :    0.412035
  17 C :   -0.188068
  18 C :   -0.070277
  19 C :   -0.047149
  20 C :   -0.212623
  21 H :    0.029815
  22 C :   -0.035092
  23 H :    0.026654
  24 H :    0.032513
  25 C :   -0.031968
  26 H :    0.023200
  27 H :    0.014656
  28 C :   -0.057025
  29 H :    0.015674
  30 H :    0.019916
  31 H :    0.031265
  32 H :    0.028056
  33 H :    0.023828

  Mayer bond orders larger than 0.100000
B(  0-S ,  1-C ) :   1.1235 B(  0-S ,  4-C ) :   1.1298 B(  1-C ,  2-C ) :   1.6309
B(  1-C , 32-H ) :   0.9634 B(  2-C ,  3-C ) :   1.2163 B(  2-C ,  6-C ) :   1.0239
B(  3-C ,  4-C ) :   1.6021 B(  3-C ,  5-H ) :   0.9991 B(  4-C , 20-C ) :   1.0167
B(  6-C ,  7-H ) :   0.9454 B(  6-C ,  8-H ) :   0.9375 B(  6-C ,  9-C ) :   1.0487
B(  9-C , 10-H ) :   0.9630 B(  9-C , 11-H ) :   0.9586 B(  9-C , 12-C ) :   1.0678
B( 12-C , 13-H ) :   0.9778 B( 12-C , 14-H ) :   0.9761 B( 12-C , 15-H ) :   0.9766
B( 16-S , 17-C ) :   1.1778 B( 16-S , 20-C ) :   1.1252 B( 17-C , 18-C ) :   1.5970
B( 17-C , 33-H ) :   0.9626 B( 18-C , 19-C ) :   1.2474 B( 18-C , 21-H ) :   0.9939
B( 19-C , 20-C ) :   1.6166 B( 19-C , 22-C ) :   1.0406 B( 22-C , 23-H ) :   0.9264
B( 22-C , 24-H ) :   0.9286 B( 22-C , 25-C ) :   1.0648 B( 25-C , 26-H ) :   0.9567
B( 25-C , 27-H ) :   0.9550 B( 25-C , 28-C ) :   1.0806 B( 28-C , 29-H ) :   0.9778
B( 28-C , 30-H ) :   0.9765 B( 28-C , 31-H ) :   0.9760

Dispersion correction           -0.014438923
FINAL SINGLE POINT ENERGY     -1339.868601104404

DIPOLE MOMENT
-------------
                                X             Y             Z
Electronic contribution:      0.25818     -22.59141      14.86688
Nuclear contribution   :     -0.08696      22.90573     -15.29733
                        -----------------------------------------
Total Dipole Moment    :      0.17122       0.31432      -0.43045
                        -----------------------------------------
Magnitude (a.u.)       :      0.55982
Magnitude (Debye)      :      1.42296

Rotational constants in cm-1:     0.018281     0.008051     0.007125
Rotational constants in MHz :   548.047201   241.366163   213.612750

                             ****ORCA TERMINATED NORMALLY****
TOTAL RUN TIME: 0 days 0 hours 0 minutes 21 seconds 447 msec
