                         Program Version 4.2.1 -  RELEASE  -
|  1> ! wB97X-D3 SP def2-SVP
|  2> %pal
|  3> nprocs 24
|  4> end
|  5>
|  6> * xyz 0 1
|  7> S 	 -54.1573 	 -51.044 	 -79.4828
|  8> C 	 -54.2994 	 -51.9923 	 -80.9568
|  9> C 	 -54.3738 	 -51.1202 	 -82.006
| 10> C 	 -54.1944 	 -49.7136 	 -81.709
| 11> C 	 -53.9794 	 -49.502 	 -80.3582
| 12> H 	 -54.2039 	 -48.9055 	 -82.4066
| 13> C 	 -54.6406 	 -51.4852 	 -83.4606
| 14> H 	 -54.1178 	 -52.4573 	 -83.5961
| 15> H 	 -54.1078 	 -50.7629 	 -84.1529
| 16> C 	 -56.1023 	 -51.5185 	 -84.0158
| 17> H 	 -56.0236 	 -51.2407 	 -85.0274
| 18> H 	 -56.6738 	 -52.4562 	 -83.9547
| 19> C 	 -57.0556 	 -50.6058 	 -83.197
| 20> H 	 -56.899 	 -49.5016 	 -83.2336
| 21> H 	 -58.0778 	 -50.7 	 -83.5365
| 22> H 	 -57.0528 	 -50.8731 	 -82.1696
| 23> S 	 -52.3412 	 -48.1566 	 -78.8293
| 24> C 	 -52.6006 	 -46.4562 	 -78.5914
| 25> C 	 -53.656 	 -45.9721 	 -79.2576
| 26> C 	 -54.3714 	 -46.9722 	 -80.008
| 27> C 	 -53.8163 	 -48.2056 	 -79.766
| 28> H 	 -53.8266 	 -44.8866 	 -79.1446
| 29> C 	 -55.5785 	 -46.6981 	 -80.879
| 30> H 	 -56.2034 	 -46.0361 	 -80.2374
| 31> H 	 -56.2295 	 -47.5182 	 -81.1426
| 32> C 	 -55.2454 	 -45.7307 	 -82.0096
| 33> H 	 -54.6395 	 -46.1901 	 -82.8188
| 34> H 	 -54.5885 	 -44.9139 	 -81.6684
| 35> C 	 -56.4198 	 -45.0166 	 -82.5974
| 36> H 	 -56.2502 	 -44.0457 	 -83.1221
| 37> H 	 -57.3069 	 -44.9846 	 -81.9793
| 38> H 	 -56.6166 	 -45.5966 	 -83.5478
| 39> H 	 -54.532 	 -53.0567 	 -81.079
| 40> H 	 -51.8611 	 -45.8143 	 -78.109
| 41> *
| 42>
| 43>                          ****END OF INPUT****

CARTESIAN COORDINATES (ANGSTROEM)
---------------------------------
  S    -54.157300  -51.044000  -79.482800
  C    -54.299400  -51.992300  -80.956800
  C    -54.373800  -51.120200  -82.006000
  C    -54.194400  -49.713600  -81.709000
  C    -53.979400  -49.502000  -80.358200
  H    -54.203900  -48.905500  -82.406600
  C    -54.640600  -51.485200  -83.460600
  H    -54.117800  -52.457300  -83.596100
  H    -54.107800  -50.762900  -84.152900
  C    -56.102300  -51.518500  -84.015800
  H    -56.023600  -51.240700  -85.027400
  H    -56.673800  -52.456200  -83.954700
  C    -57.055600  -50.605800  -83.197000
  H    -56.899000  -49.501600  -83.233600
  H    -58.077800  -50.700000  -83.536500
  H    -57.052800  -50.873100  -82.169600
  S    -52.341200  -48.156600  -78.829300
  C    -52.600600  -46.456200  -78.591400
  C    -53.656000  -45.972100  -79.257600
  C    -54.371400  -46.972200  -80.008000
  C    -53.816300  -48.205600  -79.766000
  H    -53.826600  -44.886600  -79.144600
  C    -55.578500  -46.698100  -80.879000
  H    -56.203400  -46.036100  -80.237400
  H    -56.229500  -47.518200  -81.142600
  C    -55.245400  -45.730700  -82.009600
  H    -54.639500  -46.190100  -82.818800
  H    -54.588500  -44.913900  -81.668400
  C    -56.419800  -45.016600  -82.597400
  H    -56.250200  -44.045700  -83.122100
  H    -57.306900  -44.984600  -81.979300
  H    -56.616600  -45.596600  -83.547800
  H    -54.532000  -53.056700  -81.079000
  H    -51.861100  -45.814300  -78.109000

 Total Charge           Charge          ....    0
 Multiplicity           Mult            ....    1
 Number of Electrons    NEL             ....  134
 Basis Dimension        Dim             ....  322

ORBITAL ENERGIES
----------------

  NO   OCC          E(Eh)            E(eV)
   0   2.0000     -88.965605     -2420.8772
   1   2.0000     -88.960876     -2420.7485
   2   2.0000     -10.328657      -281.0570
   3   2.0000     -10.322362      -280.8857
   4   2.0000     -10.315244      -280.6921
   5   2.0000     -10.312073      -280.6058
   6   2.0000     -10.309845      -280.5451
   7   2.0000     -10.299275      -280.2575
   8   2.0000     -10.298851      -280.2460
   9   2.0000     -10.296341      -280.1777
  10   2.0000     -10.295045      -280.1424
  11   2.0000     -10.290770      -280.0261
  12   2.0000     -10.289245      -279.9846
  13   2.0000     -10.287771      -279.9445
  14   2.0000     -10.281764      -279.7810
  15   2.0000     -10.273384      -279.5530
  16   2.0000      -8.079507      -219.8546
  17   2.0000      -8.076680      -219.7776
  18   2.0000      -6.038299      -164.3105
  19   2.0000      -6.035091      -164.2232
  20   2.0000      -6.034138      -164.1973
  21   2.0000      -6.031202      -164.1173
  22   2.0000      -6.029974      -164.0839
  23   2.0000      -6.027279      -164.0106
  24   2.0000      -1.010922       -27.5086
  25   2.0000      -0.983859       -26.7722
  26   2.0000      -0.918289       -24.9879
  27   2.0000      -0.904016       -24.5995
  28   2.0000      -0.875133       -23.8136
  29   2.0000      -0.856098       -23.2956
  30   2.0000      -0.840100       -22.8603
  31   2.0000      -0.817122       -22.2350
  32   2.0000      -0.783556       -21.3216
  33   2.0000      -0.773000       -21.0344
  34   2.0000      -0.707326       -19.2473
  35   2.0000      -0.701127       -19.0786
  36   2.0000      -0.696397       -18.9499
  37   2.0000      -0.661357       -17.9964
  38   2.0000      -0.635629       -17.2963
  39   2.0000      -0.615927       -16.7602
  40   2.0000      -0.599473       -16.3125
  41   2.0000      -0.570780       -15.5317
  42   2.0000      -0.567110       -15.4319
  43   2.0000      -0.546906       -14.8821
  44   2.0000      -0.542915       -14.7735
  45   2.0000      -0.528059       -14.3692
  46   2.0000      -0.522474       -14.2172
  47   2.0000      -0.512032       -13.9331
  48   2.0000      -0.506786       -13.7903
  49   2.0000      -0.494263       -13.4496
  50   2.0000      -0.492877       -13.4119
  51   2.0000      -0.475446       -12.9375
  52   2.0000      -0.472995       -12.8709
  53   2.0000      -0.465823       -12.6757
  54   2.0000      -0.460197       -12.5226
  55   2.0000      -0.452094       -12.3021
  56   2.0000      -0.443692       -12.0735
  57   2.0000      -0.439703       -11.9649
  58   2.0000      -0.431847       -11.7512
  59   2.0000      -0.426167       -11.5966
  60   2.0000      -0.414619       -11.2824
  61   2.0000      -0.409621       -11.1464
  62   2.0000      -0.399901       -10.8819
  63   2.0000      -0.351270        -9.5585
  64   2.0000      -0.330076        -8.9818
  65   2.0000      -0.325940        -8.8693
  66   2.0000      -0.295564        -8.0427
  67   0.0000       0.032777         0.8919
  68   0.0000       0.072819         1.9815
  69   0.0000       0.112930         3.0730
  70   0.0000       0.117271         3.1911
  71   0.0000       0.121819         3.3149

MULLIKEN ATOMIC CHARGES
-----------------------
   0 S :    0.102628
   1 C :   -0.105848
   2 C :   -0.113863
   3 C :    0.033776
   4 C :   -0.129080
   5 H :    0.001158
   6 C :    0.026342
   7 H :    0.031633
   8 H :    0.034965
   9 C :   -0.032204
  10 H :    0.023079
  11 H :    0.033685
  12 C :   -0.076089
  13 H :    0.025926
  14 H :    0.024446
  15 H :    0.040121
  16 S :    0.098226
  17 C :   -0.082662
  18 C :   -0.056973
  19 C :    0.002793
  20 C :   -0.169246
  21 H :    0.030783
  22 C :    0.077462
  23 H :    0.024619
  24 H :    0.042266
  25 C :   -0.096493
  26 H :    0.030175
  27 H :    0.028900
  28 C :   -0.065829
  29 H :    0.038140
  30 H :    0.039179
  31 H :    0.024240
  32 H :    0.057497
  33 H :    0.056249
Sum of atomic charges:   -0.0000000

LOEWDIN ATOMIC CHARGES
----------------------
   0 S :    0.386341
   1 C :   -0.204118
   2 C :   -0.067861
   3 C :   -0.057710
   4 C :   -0.188472
   5 H :    0.026448
   6 C :   -0.041464
   7 H :    0.032882
   8 H :    0.036708
   9 C :   -0.035270
  10 H :    0.018706
  11 H :    0.028697
  12 C :   -0.069824
  13 H :    0.021334
  14 H :    0.022753
  15 H :    0.023053
  16 S :    0.406918
  17 C :   -0.183698
  18 C :   -0.075807
  19 C :   -0.046909
  20 C :   -0.193226
  21 H :    0.039730
  22 C :   -0.029136
  23 H :    0.039504
  24 H :    0.032247
  25 C :   -0.050894
  26 H :    0.023163
  27 H :    0.026178
  28 C :   -0.080563
  29 H :    0.033148
  30 H :    0.023091
  31 H :    0.033251
  32 H :    0.039992
  33 H :    0.030807

  Mayer bond orders larger than 0.100000
B(  0-S ,  1-C ) :   1.1064 B(  0-S ,  4-C ) :   1.1409 B(  1-C ,  2-C ) :   1.6371
B(  1-C , 32-H ) :   0.9659 B(  2-C ,  3-C ) :   1.2079 B(  2-C ,  6-C ) :   1.0332
B(  3-C ,  4-C ) :   1.5754 B(  3-C ,  5-H ) :   1.0041 B(  4-C , 20-C ) :   1.0354
B(  6-C ,  7-H ) :   0.9443 B(  6-C ,  8-H ) :   0.9481 B(  6-C ,  9-C ) :   1.0499
B(  9-C , 10-H ) :   0.9614 B(  9-C , 11-H ) :   0.9585 B(  9-C , 12-C ) :   1.0899
B( 12-C , 13-H ) :   0.9742 B( 12-C , 14-H ) :   0.9749 B( 12-C , 15-H ) :   0.9657
B( 16-S , 17-C ) :   1.1382 B( 16-S , 20-C ) :   1.1405 B( 17-C , 18-C ) :   1.6749
B( 17-C , 33-H ) :   0.9614 B( 18-C , 19-C ) :   1.1784 B( 18-C , 21-H ) :   0.9837
B( 19-C , 20-C ) :   1.6369 B( 19-C , 22-C ) :   1.0392 B( 22-C , 23-H ) :   0.9269
B( 22-C , 24-H ) :   0.9469 B( 22-C , 25-C ) :   1.0475 B( 25-C , 26-H ) :   0.9553
B( 25-C , 27-H ) :   0.9589 B( 25-C , 28-C ) :   1.0700 B( 28-C , 29-H ) :   0.9732
B( 28-C , 30-H ) :   0.9758 B( 28-C , 31-H ) :   0.9740

Dispersion correction           -0.015075718
FINAL SINGLE POINT ENERGY     -1339.862759038525

DIPOLE MOMENT
-------------
                                X             Y             Z
Electronic contribution:     18.27638      -8.63117      23.51125
Nuclear contribution   :    -18.62262       9.07412     -24.12402
                        -----------------------------------------
Total Dipole Moment    :     -0.34624       0.44295      -0.61277
                        -----------------------------------------
Magnitude (a.u.)       :      0.83161
Magnitude (Debye)      :      2.11378

Rotational constants in cm-1:     0.016609     0.010669     0.007009
Rotational constants in MHz :   497.922111   319.852954   210.113929

                             ****ORCA TERMINATED NORMALLY****
TOTAL RUN TIME: 0 days 0 hours 0 minutes 22 seconds 526 msec
