                         Program Version 4.2.1 -  RELEASE  -
|  1> ! wB97X-D3 SP def2-SVP
|  2> %pal
|  3> nprocs 24
|  4> end
|  5>
|  6> * xyz 0 1
|  7> S 	 -120.05 	 63.5952 	 -51.8315
|  8> C 	 -119.119 	 63.9451 	 -50.2665
|  9> C 	 -119.868 	 64.4458 	 -49.2632
| 10> C 	 -121.239 	 64.6107 	 -49.6799
| 11> C 	 -121.489 	 64.2458 	 -50.9973
| 12> H 	 -121.941 	 65.143 	 -49.1898
| 13> C 	 -119.354 	 64.9107 	 -47.9034
| 14> H 	 -118.513 	 64.2385 	 -47.7743
| 15> H 	 -120.097 	 64.5921 	 -47.086
| 16> C 	 -118.867 	 66.4116 	 -47.9058
| 17> H 	 -118.223 	 66.4211 	 -46.9914
| 18> H 	 -118.212 	 66.6155 	 -48.7807
| 19> C 	 -120.042 	 67.3818 	 -47.7943
| 20> H 	 -119.7 	 68.3996 	 -47.7185
| 21> H 	 -120.59 	 67.4957 	 -48.7379
| 22> H 	 -120.694 	 67.2152 	 -46.8747
| 23> S 	 -122.736 	 64.9121 	 -53.4142
| 24> C 	 -124.425 	 64.9011 	 -53.4953
| 25> C 	 -125.087 	 64.4828 	 -52.3334
| 26> C 	 -124.146 	 64.3201 	 -51.2645
| 27> C 	 -122.797 	 64.4339 	 -51.7014
| 28> H 	 -126.145 	 64.2138 	 -52.3719
| 29> C 	 -124.68 	 63.9064 	 -49.9009
| 30> H 	 -123.984 	 63.1949 	 -49.3121
| 31> H 	 -125.677 	 63.5035 	 -50.1075
| 32> C 	 -124.975 	 65.0968 	 -48.9381
| 33> H 	 -125.762 	 65.7355 	 -49.3888
| 34> H 	 -124.157 	 65.8226 	 -48.917
| 35> C 	 -125.425 	 64.6879 	 -47.5227
| 36> H 	 -126.314 	 64.113 	 -47.7383
| 37> H 	 -125.896 	 65.4212 	 -46.93
| 38> H 	 -124.747 	 64.1284 	 -46.9391
| 39> H 	 -118.009 	 63.8732 	 -50.1396
| 40> H 	 -125.03 	 65.0284 	 -54.3661
| 41> *
| 42>
| 43>                          ****END OF INPUT****

CARTESIAN COORDINATES (ANGSTROEM)
---------------------------------
  S    -120.050000   63.595200  -51.831500
  C    -119.119000   63.945100  -50.266500
  C    -119.868000   64.445800  -49.263200
  C    -121.239000   64.610700  -49.679900
  C    -121.489000   64.245800  -50.997300
  H    -121.941000   65.143000  -49.189800
  C    -119.354000   64.910700  -47.903400
  H    -118.513000   64.238500  -47.774300
  H    -120.097000   64.592100  -47.086000
  C    -118.867000   66.411600  -47.905800
  H    -118.223000   66.421100  -46.991400
  H    -118.212000   66.615500  -48.780700
  C    -120.042000   67.381800  -47.794300
  H    -119.700000   68.399600  -47.718500
  H    -120.590000   67.495700  -48.737900
  H    -120.694000   67.215200  -46.874700
  S    -122.736000   64.912100  -53.414200
  C    -124.425000   64.901100  -53.495300
  C    -125.087000   64.482800  -52.333400
  C    -124.146000   64.320100  -51.264500
  C    -122.797000   64.433900  -51.701400
  H    -126.145000   64.213800  -52.371900
  C    -124.680000   63.906400  -49.900900
  H    -123.984000   63.194900  -49.312100
  H    -125.677000   63.503500  -50.107500
  C    -124.975000   65.096800  -48.938100
  H    -125.762000   65.735500  -49.388800
  H    -124.157000   65.822600  -48.917000
  C    -125.425000   64.687900  -47.522700
  H    -126.314000   64.113000  -47.738300
  H    -125.896000   65.421200  -46.930000
  H    -124.747000   64.128400  -46.939100
  H    -118.009000   63.873200  -50.139600
  H    -125.030000   65.028400  -54.366100

 Total Charge           Charge          ....    0
 Multiplicity           Mult            ....    1
 Number of Electrons    NEL             ....  134
 Basis Dimension        Dim             ....  322

ORBITAL ENERGIES
----------------

  NO   OCC          E(Eh)            E(eV)
   0   2.0000     -88.971241     -2421.0305
   1   2.0000     -88.968404     -2420.9534
   2   2.0000     -10.335993      -281.2567
   3   2.0000     -10.334336      -281.2116
   4   2.0000     -10.317939      -280.7654
   5   2.0000     -10.313191      -280.6362
   6   2.0000     -10.311044      -280.5778
   7   2.0000     -10.301838      -280.3273
   8   2.0000     -10.301695      -280.3234
   9   2.0000     -10.300293      -280.2852
  10   2.0000     -10.298575      -280.2385
  11   2.0000     -10.296517      -280.1825
  12   2.0000     -10.289926      -280.0031
  13   2.0000     -10.284136      -279.8456
  14   2.0000     -10.283659      -279.8326
  15   2.0000     -10.271736      -279.5081
  16   2.0000      -8.086207      -220.0369
  17   2.0000      -8.080999      -219.8952
  18   2.0000      -6.044583      -164.4815
  19   2.0000      -6.040681      -164.3753
  20   2.0000      -6.039801      -164.3513
  21   2.0000      -6.037120      -164.2784
  22   2.0000      -6.036177      -164.2527
  23   2.0000      -6.031215      -164.1177
  24   2.0000      -0.999459       -27.1967
  25   2.0000      -0.976046       -26.5596
  26   2.0000      -0.907319       -24.6894
  27   2.0000      -0.905525       -24.6406
  28   2.0000      -0.862336       -23.4654
  29   2.0000      -0.855582       -23.2816
  30   2.0000      -0.839059       -22.8319
  31   2.0000      -0.812217       -22.1015
  32   2.0000      -0.785165       -21.3654
  33   2.0000      -0.772095       -21.0098
  34   2.0000      -0.705459       -19.1965
  35   2.0000      -0.701034       -19.0761
  36   2.0000      -0.689766       -18.7695
  37   2.0000      -0.661119       -17.9900
  38   2.0000      -0.632258       -17.2046
  39   2.0000      -0.616877       -16.7861
  40   2.0000      -0.592470       -16.1219
  41   2.0000      -0.571411       -15.5489
  42   2.0000      -0.564225       -15.3533
  43   2.0000      -0.542527       -14.7629
  44   2.0000      -0.535259       -14.5651
  45   2.0000      -0.518056       -14.0970
  46   2.0000      -0.515332       -14.0229
  47   2.0000      -0.511806       -13.9269
  48   2.0000      -0.501173       -13.6376
  49   2.0000      -0.490999       -13.3608
  50   2.0000      -0.484789       -13.1918
  51   2.0000      -0.478152       -13.0112
  52   2.0000      -0.476617       -12.9694
  53   2.0000      -0.461943       -12.5701
  54   2.0000      -0.458766       -12.4837
  55   2.0000      -0.450417       -12.2565
  56   2.0000      -0.442557       -12.0426
  57   2.0000      -0.437410       -11.9025
  58   2.0000      -0.433159       -11.7869
  59   2.0000      -0.427284       -11.6270
  60   2.0000      -0.425671       -11.5831
  61   2.0000      -0.413732       -11.2582
  62   2.0000      -0.411615       -11.2006
  63   2.0000      -0.348158        -9.4739
  64   2.0000      -0.333544        -9.0762
  65   2.0000      -0.332539        -9.0489
  66   2.0000      -0.284007        -7.7282
  67   0.0000       0.023841         0.6487
  68   0.0000       0.071643         1.9495
  69   0.0000       0.097002         2.6396
  70   0.0000       0.121344         3.3019
  71   0.0000       0.125722         3.4211

MULLIKEN ATOMIC CHARGES
-----------------------
   0 S :    0.086829
   1 C :   -0.144893
   2 C :   -0.077603
   3 C :    0.060500
   4 C :   -0.104084
   5 H :   -0.059280
   6 C :    0.035394
   7 H :    0.019015
   8 H :    0.049118
   9 C :   -0.061433
  10 H :    0.040455
  11 H :    0.043137
  12 C :   -0.058703
  13 H :    0.022361
  14 H :    0.044539
  15 H :    0.047002
  16 S :    0.123965
  17 C :   -0.073441
  18 C :   -0.063408
  19 C :   -0.028933
  20 C :   -0.160176
  21 H :    0.034386
  22 C :    0.040382
  23 H :    0.054182
  24 H :    0.021324
  25 C :   -0.103790
  26 H :    0.019784
  27 H :    0.028259
  28 C :    0.006499
  29 H :    0.009600
  30 H :    0.019460
  31 H :    0.031835
  32 H :    0.052393
  33 H :    0.045323
Sum of atomic charges:    0.0000000

LOEWDIN ATOMIC CHARGES
----------------------
   0 S :    0.338273
   1 C :   -0.175892
   2 C :   -0.061783
   3 C :   -0.055920
   4 C :   -0.165907
   5 H :    0.007046
   6 C :   -0.036434
   7 H :    0.027788
   8 H :    0.041830
   9 C :   -0.037306
  10 H :    0.029263
  11 H :    0.032846
  12 C :   -0.078614
  13 H :    0.024473
  14 H :    0.031740
  15 H :    0.035669
  16 S :    0.426952
  17 C :   -0.201766
  18 C :   -0.076523
  19 C :   -0.050427
  20 C :   -0.194233
  21 H :    0.037280
  22 C :   -0.033943
  23 H :    0.041020
  24 H :    0.030975
  25 C :   -0.045009
  26 H :    0.026058
  27 H :    0.014286
  28 C :   -0.063368
  29 H :    0.028301
  30 H :    0.024509
  31 H :    0.019259
  32 H :    0.034625
  33 H :    0.024933

  Mayer bond orders larger than 0.100000
B(  0-S ,  1-C ) :   1.0848 B(  0-S ,  4-C ) :   1.1193 B(  1-C ,  2-C ) :   1.7047
B(  1-C , 32-H ) :   0.9516 B(  2-C ,  3-C ) :   1.1862 B(  2-C ,  6-C ) :   1.0071
B(  3-C ,  4-C ) :   1.6109 B(  3-C ,  5-H ) :   1.0076 B(  4-C , 20-C ) :   1.0533
B(  6-C ,  7-H ) :   0.9376 B(  6-C ,  8-H ) :   0.9457 B(  6-C ,  9-C ) :   1.0500
B(  9-C , 10-H ) :   0.9577 B(  9-C , 11-H ) :   0.9543 B(  9-C , 12-C ) :   1.0834
B( 12-C , 13-H ) :   0.9684 B( 12-C , 14-H ) :   0.9688 B( 12-C , 15-H ) :   0.9739
B( 16-S , 17-C ) :   1.1815 B( 16-S , 20-C ) :   1.1376 B( 17-C , 18-C ) :   1.6005
B( 17-C , 33-H ) :   0.9622 B( 18-C , 19-C ) :   1.2640 B( 18-C , 21-H ) :   0.9823
B( 19-C , 20-C ) :   1.5643 B( 19-C , 22-C ) :   1.0458 B( 22-C , 23-H ) :   0.9416
B( 22-C , 24-H ) :   0.9305 B( 22-C , 25-C ) :   1.0487 B( 25-C , 26-H ) :   0.9492
B( 25-C , 27-H ) :   0.9575 B( 25-C , 28-C ) :   1.0774 B( 28-C , 29-H ) :   0.9667
B( 28-C , 30-H ) :   0.9705 B( 28-C , 31-H ) :   0.9780

Dispersion correction           -0.014468186
FINAL SINGLE POINT ENERGY     -1339.858274157146

DIPOLE MOMENT
-------------
                                X             Y             Z
Electronic contribution:      6.23480      -9.24282     -28.01682
Nuclear contribution   :     -6.50964       9.53819      28.58262
                        -----------------------------------------
Total Dipole Moment    :     -0.27483       0.29538       0.56581
                        -----------------------------------------
Magnitude (a.u.)       :      0.69492
Magnitude (Debye)      :      1.76635

Rotational constants in cm-1:     0.015876     0.009960     0.007033
Rotational constants in MHz :   475.937290   298.593363   210.833762

                             ****ORCA TERMINATED NORMALLY****
TOTAL RUN TIME: 0 days 0 hours 0 minutes 21 seconds 875 msec
