                         Program Version 4.2.1 -  RELEASE  -
|  1> ! wB97X-D3 SP def2-SVP
|  2> %pal
|  3> nprocs 24
|  4> end
|  5>
|  6> * xyz 0 1
|  7> S 	 -49.8518 	 13.209 	 20.2514
|  8> C 	 -49.7913 	 11.5828 	 19.7104
|  9> C 	 -50.1885 	 10.6841 	 20.7047
| 10> C 	 -50.4403 	 11.3651 	 21.9013
| 11> C 	 -50.3988 	 12.7203 	 21.9062
| 12> H 	 -50.8907 	 10.8218 	 22.7007
| 13> C 	 -50.0953 	 9.18225 	 20.685
| 14> H 	 -50.5984 	 8.7832 	 21.5444
| 15> H 	 -49.0131 	 9.03185 	 20.8234
| 16> C 	 -50.6681 	 8.50095 	 19.4014
| 17> H 	 -51.7042 	 8.83456 	 19.1441
| 18> H 	 -50.0614 	 8.76825 	 18.4583
| 19> C 	 -50.7755 	 6.99167 	 19.6093
| 20> H 	 -51.4068 	 6.67216 	 20.3885
| 21> H 	 -51.1358 	 6.50977 	 18.6653
| 22> H 	 -49.7859 	 6.52326 	 19.8205
| 23> S 	 -51.1438 	 15.3014 	 22.5132
| 24> C 	 -51.1608 	 15.7791 	 24.1526
| 25> C 	 -50.9183 	 14.7905 	 25.0377
| 26> C 	 -50.5897 	 13.5251 	 24.3711
| 27> C 	 -50.6149 	 13.666 	 23.0009
| 28> H 	 -51.0526 	 15.0352 	 26.0968
| 29> C 	 -50.3593 	 12.2328 	 25.1163
| 30> H 	 -51.0519 	 11.4468 	 24.8182
| 31> H 	 -50.7003 	 12.3924 	 26.1667
| 32> C 	 -48.9966 	 11.6043 	 25.2134
| 33> H 	 -48.2942 	 12.302 	 25.7154
| 34> H 	 -48.5798 	 11.4227 	 24.1682
| 35> C 	 -48.9261 	 10.2021 	 25.9105
| 36> H 	 -47.9499 	 9.87211 	 26.0899
| 37> H 	 -49.5538 	 9.52015 	 25.3612
| 38> H 	 -49.2404 	 10.2118 	 26.9055
| 39> H 	 -49.2977 	 11.2897 	 18.7651
| 40> H 	 -51.5425 	 16.728 	 24.4684
| 41> *
| 42>
| 43>                          ****END OF INPUT****

CARTESIAN COORDINATES (ANGSTROEM)
---------------------------------
  S    -49.851800   13.209000   20.251400
  C    -49.791300   11.582800   19.710400
  C    -50.188500   10.684100   20.704700
  C    -50.440300   11.365100   21.901300
  C    -50.398800   12.720300   21.906200
  H    -50.890700   10.821800   22.700700
  C    -50.095300    9.182250   20.685000
  H    -50.598400    8.783200   21.544400
  H    -49.013100    9.031850   20.823400
  C    -50.668100    8.500950   19.401400
  H    -51.704200    8.834560   19.144100
  H    -50.061400    8.768250   18.458300
  C    -50.775500    6.991670   19.609300
  H    -51.406800    6.672160   20.388500
  H    -51.135800    6.509770   18.665300
  H    -49.785900    6.523260   19.820500
  S    -51.143800   15.301400   22.513200
  C    -51.160800   15.779100   24.152600
  C    -50.918300   14.790500   25.037700
  C    -50.589700   13.525100   24.371100
  C    -50.614900   13.666000   23.000900
  H    -51.052600   15.035200   26.096800
  C    -50.359300   12.232800   25.116300
  H    -51.051900   11.446800   24.818200
  H    -50.700300   12.392400   26.166700
  C    -48.996600   11.604300   25.213400
  H    -48.294200   12.302000   25.715400
  H    -48.579800   11.422700   24.168200
  C    -48.926100   10.202100   25.910500
  H    -47.949900    9.872110   26.089900
  H    -49.553800    9.520150   25.361200
  H    -49.240400   10.211800   26.905500
  H    -49.297700   11.289700   18.765100
  H    -51.542500   16.728000   24.468400

 Total Charge           Charge          ....    0
 Multiplicity           Mult            ....    1
 Number of Electrons    NEL             ....  134
 Basis Dimension        Dim             ....  322

ORBITAL ENERGIES
----------------

  NO   OCC          E(Eh)            E(eV)
   0   2.0000     -88.965462     -2420.8733
   1   2.0000     -88.964623     -2420.8505
   2   2.0000     -10.332249      -281.1548
   3   2.0000     -10.331866      -281.1444
   4   2.0000     -10.314265      -280.6654
   5   2.0000     -10.310249      -280.5561
   6   2.0000     -10.309763      -280.5429
   7   2.0000     -10.299901      -280.2746
   8   2.0000     -10.296420      -280.1798
   9   2.0000     -10.295946      -280.1669
  10   2.0000     -10.295378      -280.1515
  11   2.0000     -10.293857      -280.1101
  12   2.0000     -10.291037      -280.0334
  13   2.0000     -10.284665      -279.8600
  14   2.0000     -10.280403      -279.7440
  15   2.0000     -10.271300      -279.4963
  16   2.0000      -8.079952      -219.8667
  17   2.0000      -8.079794      -219.8624
  18   2.0000      -6.038477      -164.3153
  19   2.0000      -6.038390      -164.3130
  20   2.0000      -6.034533      -164.2080
  21   2.0000      -6.034291      -164.2014
  22   2.0000      -6.030552      -164.0997
  23   2.0000      -6.030509      -164.0985
  24   2.0000      -1.007452       -27.4142
  25   2.0000      -0.987315       -26.8662
  26   2.0000      -0.909935       -24.7606
  27   2.0000      -0.909008       -24.7354
  28   2.0000      -0.870600       -23.6902
  29   2.0000      -0.855730       -23.2856
  30   2.0000      -0.848975       -23.1018
  31   2.0000      -0.817966       -22.2580
  32   2.0000      -0.788591       -21.4586
  33   2.0000      -0.770153       -20.9569
  34   2.0000      -0.709697       -19.3118
  35   2.0000      -0.702493       -19.1158
  36   2.0000      -0.688646       -18.7390
  37   2.0000      -0.664303       -18.0766
  38   2.0000      -0.635784       -17.3006
  39   2.0000      -0.624840       -17.0028
  40   2.0000      -0.599839       -16.3224
  41   2.0000      -0.570020       -15.5110
  42   2.0000      -0.565193       -15.3797
  43   2.0000      -0.556436       -15.1414
  44   2.0000      -0.526539       -14.3279
  45   2.0000      -0.522466       -14.2170
  46   2.0000      -0.520925       -14.1751
  47   2.0000      -0.517275       -14.0758
  48   2.0000      -0.501395       -13.6437
  49   2.0000      -0.498463       -13.5639
  50   2.0000      -0.490604       -13.3500
  51   2.0000      -0.482895       -13.1402
  52   2.0000      -0.477588       -12.9958
  53   2.0000      -0.464222       -12.6321
  54   2.0000      -0.456063       -12.4101
  55   2.0000      -0.455100       -12.3839
  56   2.0000      -0.449568       -12.2334
  57   2.0000      -0.439339       -11.9550
  58   2.0000      -0.430848       -11.7240
  59   2.0000      -0.424236       -11.5440
  60   2.0000      -0.421395       -11.4668
  61   2.0000      -0.413599       -11.2546
  62   2.0000      -0.406438       -11.0597
  63   2.0000      -0.363783        -9.8990
  64   2.0000      -0.333464        -9.0740
  65   2.0000      -0.330122        -8.9831
  66   2.0000      -0.283034        -7.7018
  67   0.0000       0.022917         0.6236
  68   0.0000       0.077189         2.1004
  69   0.0000       0.100238         2.7276
  70   0.0000       0.115412         3.1405
  71   0.0000       0.137687         3.7466

MULLIKEN ATOMIC CHARGES
-----------------------
   0 S :    0.102756
   1 C :   -0.139662
   2 C :   -0.079731
   3 C :   -0.020358
   4 C :   -0.087185
   5 H :   -0.005553
   6 C :    0.067818
   7 H :    0.012672
   8 H :    0.054004
   9 C :   -0.108609
  10 H :    0.041016
  11 H :    0.042558
  12 C :   -0.049331
  13 H :    0.027566
  14 H :    0.036955
  15 H :    0.027775
  16 S :    0.097915
  17 C :   -0.068595
  18 C :   -0.038557
  19 C :   -0.035371
  20 C :   -0.119839
  21 H :    0.025952
  22 C :    0.039892
  23 H :    0.024319
  24 H :    0.012236
  25 C :   -0.101431
  26 H :    0.031305
  27 H :    0.045322
  28 C :    0.004416
  29 H :    0.020491
  30 H :    0.024835
  31 H :    0.005238
  32 H :    0.063571
  33 H :    0.045608
Sum of atomic charges:    0.0000000

LOEWDIN ATOMIC CHARGES
----------------------
   0 S :    0.395429
   1 C :   -0.212199
   2 C :   -0.068345
   3 C :   -0.071979
   4 C :   -0.171796
   5 H :    0.024547
   6 C :   -0.029653
   7 H :    0.025477
   8 H :    0.043287
   9 C :   -0.046788
  10 H :    0.030307
  11 H :    0.031156
  12 C :   -0.070508
  13 H :    0.017132
  14 H :    0.031434
  15 H :    0.026193
  16 S :    0.399445
  17 C :   -0.189831
  18 C :   -0.072313
  19 C :   -0.052241
  20 C :   -0.173038
  21 H :    0.038113
  22 C :   -0.044358
  23 H :    0.027613
  24 H :    0.034222
  25 C :   -0.043056
  26 H :    0.024972
  27 H :    0.030061
  28 C :   -0.056905
  29 H :    0.024230
  30 H :    0.022792
  31 H :    0.016753
  32 H :    0.034431
  33 H :    0.025418

  Mayer bond orders larger than 0.100000
B(  0-S ,  1-C ) :   1.1581 B(  0-S ,  4-C ) :   1.1295 B(  1-C ,  2-C ) :   1.5707
B(  1-C ,  4-C ) :   0.1035 B(  1-C , 32-H ) :   0.9636 B(  2-C ,  3-C ) :   1.2936
B(  2-C ,  6-C ) :   1.0184 B(  3-C ,  4-C ) :   1.5683 B(  3-C ,  5-H ) :   0.9889
B(  4-C , 20-C ) :   1.0710 B(  6-C ,  7-H ) :   0.9454 B(  6-C ,  8-H ) :   0.9331
B(  6-C ,  9-C ) :   1.0526 B(  9-C , 10-H ) :   0.9615 B(  9-C , 11-H ) :   0.9524
B(  9-C , 12-C ) :   1.0863 B( 12-C , 13-H ) :   0.9754 B( 12-C , 14-H ) :   0.9735
B( 12-C , 15-H ) :   0.9728 B( 16-S , 17-C ) :   1.1459 B( 16-S , 20-C ) :   1.1235
B( 17-C , 18-C ) :   1.6606 B( 17-C , 33-H ) :   0.9621 B( 18-C , 19-C ) :   1.1964
B( 18-C , 21-H ) :   0.9892 B( 19-C , 20-C ) :   1.6301 B( 19-C , 22-C ) :   1.0414
B( 22-C , 23-H ) :   0.9331 B( 22-C , 24-H ) :   0.9233 B( 22-C , 25-C ) :   1.0668
B( 25-C , 26-H ) :   0.9521 B( 25-C , 27-H ) :   0.9546 B( 25-C , 28-C ) :   1.0800
B( 28-C , 29-H ) :   0.9706 B( 28-C , 30-H ) :   0.9746 B( 28-C , 31-H ) :   0.9709

Dispersion correction           -0.013920258
FINAL SINGLE POINT ENERGY     -1339.879345912831

DIPOLE MOMENT
-------------
                                X             Y             Z
Electronic contribution:     -3.74691      31.01360      -7.48349
Nuclear contribution   :      3.72247     -31.64182       7.93178
                        -----------------------------------------
Total Dipole Moment    :     -0.02444      -0.62822       0.44829
                        -----------------------------------------
Magnitude (a.u.)       :      0.77216
Magnitude (Debye)      :      1.96266

Rotational constants in cm-1:     0.018777     0.008424     0.006210
Rotational constants in MHz :   562.922362   252.546032   186.162885

                             ****ORCA TERMINATED NORMALLY****
TOTAL RUN TIME: 0 days 0 hours 0 minutes 21 seconds 539 msec
