                         Program Version 4.2.1 -  RELEASE  -
|  1> ! wB97X-D3 SP def2-SVP
|  2> %pal
|  3> nprocs 24
|  4> end
|  5>
|  6> * xyz 0 1
|  7> S 	 -63.4097 	 -45.5578 	 -81.915
|  8> C 	 -62.1621 	 -46.1357 	 -82.9653
|  9> C 	 -61.9941 	 -47.481 	 -82.8074
| 10> C 	 -62.94 	 -48.0986 	 -81.9189
| 11> C 	 -63.8542 	 -47.1792 	 -81.472
| 12> H 	 -62.984 	 -49.1479 	 -81.6142
| 13> C 	 -60.958 	 -48.2717 	 -83.6071
| 14> H 	 -60.1497 	 -48.5033 	 -82.9886
| 15> H 	 -60.5618 	 -47.6563 	 -84.4223
| 16> C 	 -61.4777 	 -49.5741 	 -84.1936
| 17> H 	 -60.7365 	 -50.2517 	 -84.6597
| 18> H 	 -61.812 	 -50.2038 	 -83.355
| 19> C 	 -62.6703 	 -49.4421 	 -85.1473
| 20> H 	 -63.3799 	 -48.6892 	 -84.8108
| 21> H 	 -62.2834 	 -48.998 	 -86.0794
| 22> H 	 -63.1658 	 -50.4008 	 -85.2692
| 23> S 	 -64.6099 	 -46.5429 	 -78.9155
| 24> C 	 -65.9109 	 -47.4101 	 -78.1524
| 25> C 	 -66.3764 	 -48.46 	 -78.864
| 26> C 	 -65.7492 	 -48.4641 	 -80.1324
| 27> C 	 -64.6787 	 -47.5309 	 -80.3062
| 28> H 	 -67.1051 	 -49.1232 	 -78.4648
| 29> C 	 -66.1023 	 -49.5955 	 -81.1406
| 30> H 	 -65.4378 	 -50.4532 	 -81.1314
| 31> H 	 -65.9138 	 -49.1755 	 -82.1381
| 32> C 	 -67.527 	 -50.0631 	 -81.0685
| 33> H 	 -67.7989 	 -50.6249 	 -80.1801
| 34> H 	 -67.7185 	 -50.8128 	 -81.8342
| 35> C 	 -68.5215 	 -48.9019 	 -81.3007
| 36> H 	 -68.4268 	 -48.065 	 -80.5443
| 37> H 	 -69.5998 	 -49.1144 	 -81.154
| 38> H 	 -68.219 	 -48.5411 	 -82.3135
| 39> H 	 -61.5337 	 -45.5199 	 -83.5702
| 40> H 	 -66.179 	 -47.2273 	 -77.1408
| 41> *
| 42>
| 43>                          ****END OF INPUT****

CARTESIAN COORDINATES (ANGSTROEM)
---------------------------------
  S    -63.409700  -45.557800  -81.915000
  C    -62.162100  -46.135700  -82.965300
  C    -61.994100  -47.481000  -82.807400
  C    -62.940000  -48.098600  -81.918900
  C    -63.854200  -47.179200  -81.472000
  H    -62.984000  -49.147900  -81.614200
  C    -60.958000  -48.271700  -83.607100
  H    -60.149700  -48.503300  -82.988600
  H    -60.561800  -47.656300  -84.422300
  C    -61.477700  -49.574100  -84.193600
  H    -60.736500  -50.251700  -84.659700
  H    -61.812000  -50.203800  -83.355000
  C    -62.670300  -49.442100  -85.147300
  H    -63.379900  -48.689200  -84.810800
  H    -62.283400  -48.998000  -86.079400
  H    -63.165800  -50.400800  -85.269200
  S    -64.609900  -46.542900  -78.915500
  C    -65.910900  -47.410100  -78.152400
  C    -66.376400  -48.460000  -78.864000
  C    -65.749200  -48.464100  -80.132400
  C    -64.678700  -47.530900  -80.306200
  H    -67.105100  -49.123200  -78.464800
  C    -66.102300  -49.595500  -81.140600
  H    -65.437800  -50.453200  -81.131400
  H    -65.913800  -49.175500  -82.138100
  C    -67.527000  -50.063100  -81.068500
  H    -67.798900  -50.624900  -80.180100
  H    -67.718500  -50.812800  -81.834200
  C    -68.521500  -48.901900  -81.300700
  H    -68.426800  -48.065000  -80.544300
  H    -69.599800  -49.114400  -81.154000
  H    -68.219000  -48.541100  -82.313500
  H    -61.533700  -45.519900  -83.570200
  H    -66.179000  -47.227300  -77.140800

 Total Charge           Charge          ....    0
 Multiplicity           Mult            ....    1
 Number of Electrons    NEL             ....  134
 Basis Dimension        Dim             ....  322

ORBITAL ENERGIES
----------------

  NO   OCC          E(Eh)            E(eV)
   0   2.0000     -88.969428     -2420.9812
   1   2.0000     -88.963910     -2420.8311
   2   2.0000     -10.329559      -281.0816
   3   2.0000     -10.326127      -280.9882
   4   2.0000     -10.313113      -280.6341
   5   2.0000     -10.308075      -280.4970
   6   2.0000     -10.303833      -280.3815
   7   2.0000     -10.302217      -280.3376
   8   2.0000     -10.297189      -280.2008
   9   2.0000     -10.288928      -279.9760
  10   2.0000     -10.288533      -279.9652
  11   2.0000     -10.287815      -279.9457
  12   2.0000     -10.286297      -279.9044
  13   2.0000     -10.282890      -279.8117
  14   2.0000     -10.280257      -279.7400
  15   2.0000     -10.273776      -279.5637
  16   2.0000      -8.084672      -219.9951
  17   2.0000      -8.079622      -219.8577
  18   2.0000      -6.043169      -164.4430
  19   2.0000      -6.039177      -164.3344
  20   2.0000      -6.037976      -164.3017
  21   2.0000      -6.035328      -164.2296
  22   2.0000      -6.033902      -164.1908
  23   2.0000      -6.030587      -164.1006
  24   2.0000      -1.013748       -27.5855
  25   2.0000      -0.991432       -26.9782
  26   2.0000      -0.914542       -24.8860
  27   2.0000      -0.908944       -24.7336
  28   2.0000      -0.875943       -23.8356
  29   2.0000      -0.848278       -23.0828
  30   2.0000      -0.840340       -22.8668
  31   2.0000      -0.817827       -22.2542
  32   2.0000      -0.784318       -21.3424
  33   2.0000      -0.770195       -20.9581
  34   2.0000      -0.708821       -19.2880
  35   2.0000      -0.694142       -18.8886
  36   2.0000      -0.692425       -18.8418
  37   2.0000      -0.656122       -17.8540
  38   2.0000      -0.643039       -17.4980
  39   2.0000      -0.625001       -17.0071
  40   2.0000      -0.599319       -16.3083
  41   2.0000      -0.573025       -15.5928
  42   2.0000      -0.560403       -15.2493
  43   2.0000      -0.558429       -15.1956
  44   2.0000      -0.539961       -14.6931
  45   2.0000      -0.531759       -14.4699
  46   2.0000      -0.516899       -14.0655
  47   2.0000      -0.514857       -14.0100
  48   2.0000      -0.505102       -13.7445
  49   2.0000      -0.492609       -13.4046
  50   2.0000      -0.489296       -13.3144
  51   2.0000      -0.482207       -13.1215
  52   2.0000      -0.472973       -12.8703
  53   2.0000      -0.460697       -12.5362
  54   2.0000      -0.455549       -12.3961
  55   2.0000      -0.451289       -12.2802
  56   2.0000      -0.440534       -11.9875
  57   2.0000      -0.437736       -11.9114
  58   2.0000      -0.434299       -11.8179
  59   2.0000      -0.425508       -11.5787
  60   2.0000      -0.420638       -11.4461
  61   2.0000      -0.408690       -11.1210
  62   2.0000      -0.405116       -11.0238
  63   2.0000      -0.354734        -9.6528
  64   2.0000      -0.331502        -9.0206
  65   2.0000      -0.330456        -8.9922
  66   2.0000      -0.291710        -7.9378
  67   0.0000       0.031853         0.8668
  68   0.0000       0.072915         1.9841
  69   0.0000       0.114316         3.1107
  70   0.0000       0.126632         3.4458
  71   0.0000       0.134866         3.6699

MULLIKEN ATOMIC CHARGES
-----------------------
   0 S :    0.110195
   1 C :   -0.109134
   2 C :   -0.095849
   3 C :   -0.005770
   4 C :   -0.107916
   5 H :    0.037215
   6 C :    0.136005
   7 H :    0.024167
   8 H :    0.014516
   9 C :   -0.123300
  10 H :    0.031705
  11 H :    0.016074
  12 C :   -0.045092
  13 H :    0.039286
  14 H :    0.025425
  15 H :    0.039456
  16 S :    0.105494
  17 C :   -0.082346
  18 C :   -0.006028
  19 C :   -0.076984
  20 C :   -0.154174
  21 H :    0.015468
  22 C :    0.077419
  23 H :    0.036979
  24 H :    0.019804
  25 C :   -0.079888
  26 H :    0.020675
  27 H :    0.024920
  28 C :   -0.091179
  29 H :    0.046282
  30 H :    0.037968
  31 H :    0.039716
  32 H :    0.039667
  33 H :    0.039222
Sum of atomic charges:   -0.0000000

LOEWDIN ATOMIC CHARGES
----------------------
   0 S :    0.416861
   1 C :   -0.194923
   2 C :   -0.061401
   3 C :   -0.053567
   4 C :   -0.199283
   5 H :    0.038047
   6 C :   -0.025232
   7 H :    0.027229
   8 H :    0.028397
   9 C :   -0.050995
  10 H :    0.027496
  11 H :    0.018234
  12 C :   -0.066403
  13 H :    0.025900
  14 H :    0.025372
  15 H :    0.027188
  16 S :    0.427223
  17 C :   -0.181441
  18 C :   -0.066752
  19 C :   -0.057109
  20 C :   -0.212746
  21 H :    0.033058
  22 C :   -0.035460
  23 H :    0.029051
  24 H :    0.030333
  25 C :   -0.050678
  26 H :    0.016878
  27 H :    0.027254
  28 C :   -0.076773
  29 H :    0.030599
  30 H :    0.027127
  31 H :    0.030777
  32 H :    0.026323
  33 H :    0.019418

  Mayer bond orders larger than 0.100000
B(  0-S ,  1-C ) :   1.1308 B(  0-S ,  4-C ) :   1.1587 B(  1-C ,  2-C ) :   1.6219
B(  1-C , 32-H ) :   0.9728 B(  2-C ,  3-C ) :   1.2280 B(  2-C ,  6-C ) :   1.0141
B(  3-C ,  4-C ) :   1.5517 B(  3-C ,  5-H ) :   0.9951 B(  4-C , 20-C ) :   1.0359
B(  6-C ,  7-H ) :   0.9268 B(  6-C ,  8-H ) :   0.9467 B(  6-C ,  9-C ) :   1.0759
B(  9-C , 10-H ) :   0.9550 B(  9-C , 11-H ) :   0.9511 B(  9-C , 12-C ) :   1.0750
B( 12-C , 13-H ) :   0.9744 B( 12-C , 14-H ) :   0.9741 B( 12-C , 15-H ) :   0.9749
B( 16-S , 17-C ) :   1.1735 B( 16-S , 20-C ) :   1.1562 B( 17-C , 18-C ) :   1.5887
B( 17-C , 33-H ) :   0.9643 B( 18-C , 19-C ) :   1.2621 B( 18-C , 21-H ) :   0.9968
B( 19-C , 20-C ) :   1.5764 B( 19-C , 22-C ) :   1.0217 B( 22-C , 23-H ) :   0.9386
B( 22-C , 24-H ) :   0.9300 B( 22-C , 25-C ) :   1.0861 B( 25-C , 26-H ) :   0.9467
B( 25-C , 27-H ) :   0.9519 B( 25-C , 28-C ) :   1.0665 B( 28-C , 29-H ) :   0.9712
B( 28-C , 30-H ) :   0.9744 B( 28-C , 31-H ) :   0.9756

Dispersion correction           -0.014842430
FINAL SINGLE POINT ENERGY     -1339.879238960827

DIPOLE MOMENT
-------------
                                X             Y             Z
Electronic contribution:      5.73305      20.33120      15.70825
Nuclear contribution   :     -5.56342     -20.90495     -15.83090
                        -----------------------------------------
Total Dipole Moment    :      0.16962      -0.57375      -0.12265
                        -----------------------------------------
Magnitude (a.u.)       :      0.61074
Magnitude (Debye)      :      1.55238

Rotational constants in cm-1:     0.019187     0.009273     0.007103
Rotational constants in MHz :   575.220067   278.005677   212.944506

                             ****ORCA TERMINATED NORMALLY****
TOTAL RUN TIME: 0 days 0 hours 0 minutes 22 seconds 302 msec
