                         Program Version 4.2.1 -  RELEASE  -
|  1> ! wB97X-D3 SP def2-SVP
|  2> %pal
|  3> nprocs 24
|  4> end
|  5>
|  6> * xyz 0 1
|  7> S 	 38.1658 	 -15.9312 	 -121.695
|  8> C 	 38.1572 	 -14.715 	 -120.431
|  9> C 	 39.4245 	 -14.2207 	 -120.172
| 10> C 	 40.3952 	 -14.907 	 -120.923
| 11> C 	 39.8882 	 -15.9755 	 -121.635
| 12> H 	 41.4514 	 -14.7785 	 -120.92
| 13> C 	 39.8054 	 -13.2689 	 -118.999
| 14> H 	 40.322 	 -13.8441 	 -118.201
| 15> H 	 38.831 	 -12.9544 	 -118.561
| 16> C 	 40.5715 	 -12.0543 	 -119.255
| 17> H 	 40.1292 	 -11.2842 	 -119.92
| 18> H 	 40.6339 	 -11.586 	 -118.261
| 19> C 	 42.0575 	 -12.3924 	 -119.613
| 20> H 	 42.2321 	 -12.6658 	 -120.624
| 21> H 	 42.7539 	 -11.5758 	 -119.302
| 22> H 	 42.3102 	 -13.2751 	 -118.951
| 23> S 	 39.9221 	 -18.6509 	 -122.38
| 24> C 	 41.3068 	 -19.4128 	 -123.105
| 25> C 	 42.223 	 -18.4212 	 -123.422
| 26> C 	 41.8243 	 -17.0612 	 -123.081
| 27> C 	 40.6111 	 -17.0179 	 -122.369
| 28> H 	 43.1965 	 -18.6972 	 -123.857
| 29> C 	 42.7988 	 -15.8876 	 -123.278
| 30> H 	 42.2663 	 -14.9514 	 -123.155
| 31> H 	 43.2196 	 -15.8981 	 -124.251
| 32> C 	 43.9762 	 -15.8669 	 -122.234
| 33> H 	 44.6552 	 -16.7167 	 -122.282
| 34> H 	 43.6697 	 -15.9786 	 -121.233
| 35> C 	 44.7706 	 -14.5555 	 -122.284
| 36> H 	 44.2228 	 -13.679 	 -122.387
| 37> H 	 45.3652 	 -14.6004 	 -123.147
| 38> H 	 45.4796 	 -14.4625 	 -121.469
| 39> H 	 37.3091 	 -14.292 	 -119.93
| 40> H 	 41.3693 	 -20.504 	 -123.301
| 41> *
| 42>
| 43>                          ****END OF INPUT****

CARTESIAN COORDINATES (ANGSTROEM)
---------------------------------
  S     38.165800  -15.931200  -121.695000
  C     38.157200  -14.715000  -120.431000
  C     39.424500  -14.220700  -120.172000
  C     40.395200  -14.907000  -120.923000
  C     39.888200  -15.975500  -121.635000
  H     41.451400  -14.778500  -120.920000
  C     39.805400  -13.268900  -118.999000
  H     40.322000  -13.844100  -118.201000
  H     38.831000  -12.954400  -118.561000
  C     40.571500  -12.054300  -119.255000
  H     40.129200  -11.284200  -119.920000
  H     40.633900  -11.586000  -118.261000
  C     42.057500  -12.392400  -119.613000
  H     42.232100  -12.665800  -120.624000
  H     42.753900  -11.575800  -119.302000
  H     42.310200  -13.275100  -118.951000
  S     39.922100  -18.650900  -122.380000
  C     41.306800  -19.412800  -123.105000
  C     42.223000  -18.421200  -123.422000
  C     41.824300  -17.061200  -123.081000
  C     40.611100  -17.017900  -122.369000
  H     43.196500  -18.697200  -123.857000
  C     42.798800  -15.887600  -123.278000
  H     42.266300  -14.951400  -123.155000
  H     43.219600  -15.898100  -124.251000
  C     43.976200  -15.866900  -122.234000
  H     44.655200  -16.716700  -122.282000
  H     43.669700  -15.978600  -121.233000
  C     44.770600  -14.555500  -122.284000
  H     44.222800  -13.679000  -122.387000
  H     45.365200  -14.600400  -123.147000
  H     45.479600  -14.462500  -121.469000
  H     37.309100  -14.292000  -119.930000
  H     41.369300  -20.504000  -123.301000

 Total Charge           Charge          ....    0
 Multiplicity           Mult            ....    1
 Number of Electrons    NEL             ....  134
 Basis Dimension        Dim             ....  322

ORBITAL ENERGIES
----------------

  NO   OCC          E(Eh)            E(eV)
   0   2.0000     -88.968281     -2420.9500
   1   2.0000     -88.961659     -2420.7698
   2   2.0000     -10.332813      -281.1701
   3   2.0000     -10.329476      -281.0793
   4   2.0000     -10.322921      -280.9009
   5   2.0000     -10.312260      -280.6108
   6   2.0000     -10.310492      -280.5627
   7   2.0000     -10.300723      -280.2969
   8   2.0000     -10.299523      -280.2643
   9   2.0000     -10.297387      -280.2062
  10   2.0000     -10.295130      -280.1447
  11   2.0000     -10.289200      -279.9834
  12   2.0000     -10.289100      -279.9807
  13   2.0000     -10.284673      -279.8602
  14   2.0000     -10.284558      -279.8571
  15   2.0000     -10.268270      -279.4138
  16   2.0000      -8.083317      -219.9582
  17   2.0000      -8.076486      -219.7723
  18   2.0000      -6.041756      -164.4046
  19   2.0000      -6.037885      -164.2992
  20   2.0000      -6.035139      -164.2245
  21   2.0000      -6.034034      -164.1944
  22   2.0000      -6.030790      -164.1061
  23   2.0000      -6.027249      -164.0098
  24   2.0000      -1.008347       -27.4385
  25   2.0000      -0.983038       -26.7498
  26   2.0000      -0.919143       -25.0111
  27   2.0000      -0.906701       -24.6726
  28   2.0000      -0.869098       -23.6494
  29   2.0000      -0.852491       -23.1975
  30   2.0000      -0.842679       -22.9305
  31   2.0000      -0.813967       -22.1492
  32   2.0000      -0.784449       -21.3459
  33   2.0000      -0.774828       -21.0841
  34   2.0000      -0.712422       -19.3860
  35   2.0000      -0.699612       -19.0374
  36   2.0000      -0.696571       -18.9547
  37   2.0000      -0.660378       -17.9698
  38   2.0000      -0.639686       -17.4067
  39   2.0000      -0.620518       -16.8851
  40   2.0000      -0.596628       -16.2351
  41   2.0000      -0.578073       -15.7302
  42   2.0000      -0.563746       -15.3403
  43   2.0000      -0.545958       -14.8563
  44   2.0000      -0.540846       -14.7172
  45   2.0000      -0.528981       -14.3943
  46   2.0000      -0.516801       -14.0629
  47   2.0000      -0.512712       -13.9516
  48   2.0000      -0.506563       -13.7843
  49   2.0000      -0.495233       -13.4760
  50   2.0000      -0.491279       -13.3684
  51   2.0000      -0.487107       -13.2549
  52   2.0000      -0.479366       -13.0442
  53   2.0000      -0.466505       -12.6942
  54   2.0000      -0.462458       -12.5841
  55   2.0000      -0.448634       -12.2079
  56   2.0000      -0.445050       -12.1104
  57   2.0000      -0.440487       -11.9863
  58   2.0000      -0.437872       -11.9151
  59   2.0000      -0.422924       -11.5084
  60   2.0000      -0.420040       -11.4299
  61   2.0000      -0.412053       -11.2125
  62   2.0000      -0.410488       -11.1700
  63   2.0000      -0.353579        -9.6214
  64   2.0000      -0.334724        -9.1083
  65   2.0000      -0.326030        -8.8717
  66   2.0000      -0.287551        -7.8246
  67   0.0000       0.023018         0.6264
  68   0.0000       0.077048         2.0966
  69   0.0000       0.109169         2.9706
  70   0.0000       0.119857         3.2615
  71   0.0000       0.125775         3.4225

MULLIKEN ATOMIC CHARGES
-----------------------
   0 S :    0.125073
   1 C :   -0.112982
   2 C :   -0.051348
   3 C :    0.021156
   4 C :   -0.130393
   5 H :   -0.024464
   6 C :    0.026741
   7 H :    0.050443
   8 H :    0.014699
   9 C :   -0.058129
  10 H :    0.041720
  11 H :    0.029260
  12 C :   -0.083549
  13 H :    0.047049
  14 H :    0.042421
  15 H :    0.027058
  16 S :    0.085883
  17 C :   -0.102376
  18 C :   -0.048745
  19 C :   -0.038126
  20 C :   -0.140596
  21 H :    0.028920
  22 C :    0.084183
  23 H :    0.018371
  24 H :    0.021290
  25 C :   -0.069092
  26 H :    0.017797
  27 H :    0.014312
  28 C :   -0.005269
  29 H :    0.015385
  30 H :    0.007711
  31 H :    0.029633
  32 H :    0.034540
  33 H :    0.081422
Sum of atomic charges:   -0.0000000

LOEWDIN ATOMIC CHARGES
----------------------
   0 S :    0.417503
   1 C :   -0.193984
   2 C :   -0.061644
   3 C :   -0.064777
   4 C :   -0.191586
   5 H :    0.023618
   6 C :   -0.034013
   7 H :    0.037810
   8 H :    0.031063
   9 C :   -0.047053
  10 H :    0.028861
  11 H :    0.032152
  12 C :   -0.069881
  13 H :    0.014949
  14 H :    0.030734
  15 H :    0.029086
  16 S :    0.396188
  17 C :   -0.194134
  18 C :   -0.077733
  19 C :   -0.055548
  20 C :   -0.191978
  21 H :    0.032825
  22 C :   -0.022076
  23 H :    0.027788
  24 H :    0.027198
  25 C :   -0.036475
  26 H :    0.024009
  27 H :    0.014554
  28 C :   -0.056560
  29 H :    0.014332
  30 H :    0.019168
  31 H :    0.028741
  32 H :    0.024252
  33 H :    0.042611

  Mayer bond orders larger than 0.100000
B(  0-S ,  1-C ) :   1.1326 B(  0-S ,  4-C ) :   1.1605 B(  1-C ,  2-C ) :   1.6231
B(  1-C , 32-H ) :   0.9653 B(  2-C ,  3-C ) :   1.2370 B(  2-C ,  6-C ) :   1.0088
B(  3-C ,  4-C ) :   1.5712 B(  3-C ,  5-H ) :   0.9985 B(  4-C , 20-C ) :   1.0511
B(  6-C ,  7-H ) :   0.9447 B(  6-C ,  8-H ) :   0.9329 B(  6-C ,  9-C ) :   1.0945
B(  9-C , 10-H ) :   0.9523 B(  9-C , 11-H ) :   0.9470 B(  9-C , 12-C ) :   1.0705
B( 12-C , 13-H ) :   0.9714 B( 12-C , 14-H ) :   0.9718 B( 12-C , 15-H ) :   0.9704
B( 16-S , 17-C ) :   1.1559 B( 16-S , 20-C ) :   1.1382 B( 17-C , 18-C ) :   1.5924
B( 17-C , 20-C ) :   0.1000 B( 17-C , 33-H ) :   0.9668 B( 18-C , 19-C ) :   1.2380
B( 18-C , 21-H ) :   0.9878 B( 19-C , 20-C ) :   1.5685 B( 19-C , 22-C ) :   1.0612
B( 22-C , 23-H ) :   0.9387 B( 22-C , 24-H ) :   0.9324 B( 22-C , 25-C ) :   1.0485
B( 25-C , 26-H ) :   0.9517 B( 25-C , 27-H ) :   0.9580 B( 25-C , 28-C ) :   1.0810
B( 28-C , 29-H ) :   0.9746 B( 28-C , 30-H ) :   0.9716 B( 28-C , 31-H ) :   0.9729

Dispersion correction           -0.014989444
FINAL SINGLE POINT ENERGY     -1339.874524493586

DIPOLE MOMENT
-------------
                                X             Y             Z
Electronic contribution:    -23.47769     -21.46780      -8.25276
Nuclear contribution   :     24.10863      21.83859       8.49557
                        -----------------------------------------
Total Dipole Moment    :      0.63094       0.37079       0.24281
                        -----------------------------------------
Magnitude (a.u.)       :      0.77105
Magnitude (Debye)      :      1.95986

Rotational constants in cm-1:     0.016673     0.010746     0.006877
Rotational constants in MHz :   499.850835   322.148250   206.156083

                             ****ORCA TERMINATED NORMALLY****
TOTAL RUN TIME: 0 days 0 hours 0 minutes 22 seconds 522 msec
