                         Program Version 4.2.1 -  RELEASE  -
|  1> ! wB97X-D3 SP def2-SVP
|  2> %pal
|  3> nprocs 24
|  4> end
|  5>
|  6> * xyz 0 1
|  7> S 	 32.4318 	 -36.3341 	 -126.905
|  8> C 	 32.2385 	 -35.323 	 -125.503
|  9> C 	 32.4159 	 -33.9815 	 -125.852
| 10> C 	 32.6483 	 -33.7999 	 -127.251
| 11> C 	 32.6879 	 -34.9884 	 -127.995
| 12> H 	 32.7889 	 -32.8575 	 -127.764
| 13> C 	 32.5897 	 -32.8795 	 -124.852
| 14> H 	 31.8548 	 -32.9407 	 -124.078
| 15> H 	 32.2646 	 -31.9771 	 -125.389
| 16> C 	 34.0029 	 -32.6116 	 -124.339
| 17> H 	 34.1506 	 -31.9127 	 -123.481
| 18> H 	 34.3883 	 -33.5514 	 -123.94
| 19> C 	 35.0443 	 -32.1638 	 -125.374
| 20> H 	 35.9093 	 -31.7645 	 -124.827
| 21> H 	 35.421 	 -32.9948 	 -126.025
| 22> H 	 34.692 	 -31.3097 	 -125.918
| 23> S 	 31.3783 	 -35.8395 	 -130.226
| 24> C 	 32.1632 	 -35.7442 	 -131.767
| 25> C 	 33.405 	 -35.1777 	 -131.66
| 26> C 	 33.7232 	 -34.6216 	 -130.392
| 27> C 	 32.7628 	 -35.1478 	 -129.444
| 28> H 	 34.0328 	 -35.1206 	 -132.519
| 29> C 	 35.0233 	 -33.9441 	 -130.115
| 30> H 	 35.3263 	 -34.3024 	 -129.099
| 31> H 	 34.9597 	 -32.9051 	 -130.059
| 32> C 	 36.2281 	 -34.1611 	 -131.151
| 33> H 	 35.8354 	 -33.749 	 -132.067
| 34> H 	 36.4309 	 -35.2017 	 -131.435
| 35> C 	 37.5527 	 -33.5732 	 -130.776
| 36> H 	 38.4179 	 -34.1728 	 -131.011
| 37> H 	 37.5144 	 -33.4216 	 -129.711
| 38> H 	 37.6787 	 -32.5869 	 -131.256
| 39> H 	 32.0623 	 -35.7226 	 -124.493
| 40> H 	 31.8507 	 -36.2823 	 -132.638
| 41> *
| 42>
| 43>                          ****END OF INPUT****

CARTESIAN COORDINATES (ANGSTROEM)
---------------------------------
  S     32.431800  -36.334100  -126.905000
  C     32.238500  -35.323000  -125.503000
  C     32.415900  -33.981500  -125.852000
  C     32.648300  -33.799900  -127.251000
  C     32.687900  -34.988400  -127.995000
  H     32.788900  -32.857500  -127.764000
  C     32.589700  -32.879500  -124.852000
  H     31.854800  -32.940700  -124.078000
  H     32.264600  -31.977100  -125.389000
  C     34.002900  -32.611600  -124.339000
  H     34.150600  -31.912700  -123.481000
  H     34.388300  -33.551400  -123.940000
  C     35.044300  -32.163800  -125.374000
  H     35.909300  -31.764500  -124.827000
  H     35.421000  -32.994800  -126.025000
  H     34.692000  -31.309700  -125.918000
  S     31.378300  -35.839500  -130.226000
  C     32.163200  -35.744200  -131.767000
  C     33.405000  -35.177700  -131.660000
  C     33.723200  -34.621600  -130.392000
  C     32.762800  -35.147800  -129.444000
  H     34.032800  -35.120600  -132.519000
  C     35.023300  -33.944100  -130.115000
  H     35.326300  -34.302400  -129.099000
  H     34.959700  -32.905100  -130.059000
  C     36.228100  -34.161100  -131.151000
  H     35.835400  -33.749000  -132.067000
  H     36.430900  -35.201700  -131.435000
  C     37.552700  -33.573200  -130.776000
  H     38.417900  -34.172800  -131.011000
  H     37.514400  -33.421600  -129.711000
  H     37.678700  -32.586900  -131.256000
  H     32.062300  -35.722600  -124.493000
  H     31.850700  -36.282300  -132.638000

 Total Charge           Charge          ....    0
 Multiplicity           Mult            ....    1
 Number of Electrons    NEL             ....  134
 Basis Dimension        Dim             ....  322

ORBITAL ENERGIES
----------------

  NO   OCC          E(Eh)            E(eV)
   0   2.0000     -88.967031     -2420.9160
   1   2.0000     -88.966482     -2420.9010
   2   2.0000     -10.330680      -281.1121
   3   2.0000     -10.329572      -281.0819
   4   2.0000     -10.318288      -280.7749
   5   2.0000     -10.309138      -280.5259
   6   2.0000     -10.309073      -280.5241
   7   2.0000     -10.302170      -280.3363
   8   2.0000     -10.295774      -280.1623
   9   2.0000     -10.295357      -280.1509
  10   2.0000     -10.289017      -279.9784
  11   2.0000     -10.288122      -279.9540
  12   2.0000     -10.287851      -279.9467
  13   2.0000     -10.287384      -279.9340
  14   2.0000     -10.277312      -279.6599
  15   2.0000     -10.276313      -279.6327
  16   2.0000      -8.082192      -219.9276
  17   2.0000      -8.081232      -219.9015
  18   2.0000      -6.040640      -164.3742
  19   2.0000      -6.039673      -164.3479
  20   2.0000      -6.036554      -164.2630
  21   2.0000      -6.035531      -164.2351
  22   2.0000      -6.033075      -164.1683
  23   2.0000      -6.032265      -164.1463
  24   2.0000      -1.005698       -27.3664
  25   2.0000      -0.984469       -26.7888
  26   2.0000      -0.911812       -24.8117
  27   2.0000      -0.908851       -24.7311
  28   2.0000      -0.867558       -23.6075
  29   2.0000      -0.857288       -23.3280
  30   2.0000      -0.845426       -23.0052
  31   2.0000      -0.814794       -22.1717
  32   2.0000      -0.785167       -21.3655
  33   2.0000      -0.769984       -20.9523
  34   2.0000      -0.707122       -19.2418
  35   2.0000      -0.698899       -19.0180
  36   2.0000      -0.697491       -18.9797
  37   2.0000      -0.651983       -17.7414
  38   2.0000      -0.640735       -17.4353
  39   2.0000      -0.616802       -16.7840
  40   2.0000      -0.601884       -16.3781
  41   2.0000      -0.571329       -15.5466
  42   2.0000      -0.565564       -15.3898
  43   2.0000      -0.550727       -14.9861
  44   2.0000      -0.542604       -14.7650
  45   2.0000      -0.530457       -14.4345
  46   2.0000      -0.515438       -14.0258
  47   2.0000      -0.511315       -13.9136
  48   2.0000      -0.505314       -13.7503
  49   2.0000      -0.497895       -13.5484
  50   2.0000      -0.487313       -13.2605
  51   2.0000      -0.480718       -13.0810
  52   2.0000      -0.475860       -12.9488
  53   2.0000      -0.466598       -12.6968
  54   2.0000      -0.461669       -12.5627
  55   2.0000      -0.453547       -12.3416
  56   2.0000      -0.441113       -12.0033
  57   2.0000      -0.436631       -11.8813
  58   2.0000      -0.431111       -11.7311
  59   2.0000      -0.424380       -11.5480
  60   2.0000      -0.421920       -11.4810
  61   2.0000      -0.411776       -11.2050
  62   2.0000      -0.407535       -11.0896
  63   2.0000      -0.344079        -9.3629
  64   2.0000      -0.328190        -8.9305
  65   2.0000      -0.328001        -8.9254
  66   2.0000      -0.292113        -7.9488
  67   0.0000       0.026566         0.7229
  68   0.0000       0.067279         1.8307
  69   0.0000       0.124157         3.3785
  70   0.0000       0.124847         3.3973
  71   0.0000       0.127487         3.4691

MULLIKEN ATOMIC CHARGES
-----------------------
   0 S :    0.114398
   1 C :   -0.129507
   2 C :   -0.104347
   3 C :    0.049443
   4 C :   -0.183928
   5 H :    0.011054
   6 C :    0.097740
   7 H :    0.017967
   8 H :    0.012372
   9 C :   -0.064343
  10 H :    0.035525
  11 H :    0.016278
  12 C :   -0.070471
  13 H :    0.026506
  14 H :    0.056285
  15 H :    0.020710
  16 S :    0.127716
  17 C :   -0.072486
  18 C :   -0.045469
  19 C :   -0.011649
  20 C :   -0.170842
  21 H :    0.008604
  22 C :    0.064885
  23 H :    0.041581
  24 H :    0.025039
  25 C :   -0.126047
  26 H :    0.026689
  27 H :    0.031247
  28 C :   -0.012501
  29 H :    0.037021
  30 H :    0.023773
  31 H :    0.033290
  32 H :    0.063538
  33 H :    0.049933
Sum of atomic charges:    0.0000000

LOEWDIN ATOMIC CHARGES
----------------------
   0 S :    0.417103
   1 C :   -0.200473
   2 C :   -0.068540
   3 C :   -0.057261
   4 C :   -0.208372
   5 H :    0.031380
   6 C :   -0.035844
   7 H :    0.028365
   8 H :    0.029925
   9 C :   -0.045593
  10 H :    0.030727
  11 H :    0.022056
  12 C :   -0.070378
  13 H :    0.028674
  14 H :    0.031774
  15 H :    0.017346
  16 S :    0.432385
  17 C :   -0.197643
  18 C :   -0.067038
  19 C :   -0.048796
  20 C :   -0.208099
  21 H :    0.025849
  22 C :   -0.029944
  23 H :    0.037538
  24 H :    0.025025
  25 C :   -0.045662
  26 H :    0.018003
  27 H :    0.024787
  28 C :   -0.063731
  29 H :    0.028607
  30 H :    0.025794
  31 H :    0.030242
  32 H :    0.035459
  33 H :    0.026335

  Mayer bond orders larger than 0.100000
B(  0-S ,  1-C ) :   1.1591 B(  0-S ,  4-C ) :   1.1654 B(  1-C ,  2-C ) :   1.5667
B(  1-C ,  4-C ) :   0.1020 B(  1-C , 32-H ) :   0.9705 B(  2-C ,  3-C ) :   1.2690
B(  2-C ,  6-C ) :   1.0316 B(  3-C ,  4-C ) :   1.5397 B(  3-C ,  5-H ) :   0.9955
B(  4-C , 20-C ) :   1.0366 B(  6-C ,  7-H ) :   0.9365 B(  6-C ,  8-H ) :   0.9376
B(  6-C ,  9-C ) :   1.0594 B(  9-C , 10-H ) :   0.9604 B(  9-C , 11-H ) :   0.9525
B(  9-C , 12-C ) :   1.0846 B( 12-C , 13-H ) :   0.9721 B( 12-C , 14-H ) :   0.9728
B( 12-C , 15-H ) :   0.9745 B( 16-S , 17-C ) :   1.1533 B( 16-S , 20-C ) :   1.1859
B( 17-C , 18-C ) :   1.5999 B( 17-C , 20-C ) :   0.1067 B( 17-C , 33-H ) :   0.9627
B( 18-C , 19-C ) :   1.2740 B( 18-C , 21-H ) :   0.9853 B( 19-C , 20-C ) :   1.5247
B( 19-C , 22-C ) :   1.0515 B( 22-C , 23-H ) :   0.9331 B( 22-C , 24-H ) :   0.9200
B( 22-C , 25-C ) :   1.0723 B( 25-C , 26-H ) :   0.9511 B( 25-C , 27-H ) :   0.9622
B( 25-C , 28-C ) :   1.0755 B( 28-C , 29-H ) :   0.9762 B( 28-C , 30-H ) :   0.9755
B( 28-C , 31-H ) :   0.9729

Dispersion correction           -0.014209351
FINAL SINGLE POINT ENERGY     -1339.874958928964

DIPOLE MOMENT
-------------
                                X             Y             Z
Electronic contribution:    -23.30478     -18.43721      -4.54120
Nuclear contribution   :     23.80471      18.85350       4.59011
                        -----------------------------------------
Total Dipole Moment    :      0.49993       0.41629       0.04891
                        -----------------------------------------
Magnitude (a.u.)       :      0.65239
Magnitude (Debye)      :      1.65825

Rotational constants in cm-1:     0.016318     0.009553     0.006607
Rotational constants in MHz :   489.209261   286.406718   198.065203

                             ****ORCA TERMINATED NORMALLY****
TOTAL RUN TIME: 0 days 0 hours 0 minutes 21 seconds 582 msec
