                         Program Version 4.2.1 -  RELEASE  -
|  1> ! wB97X-D3 SP def2-SVP
|  2> %pal
|  3> nprocs 24
|  4> end
|  5>
|  6> * xyz 0 1
|  7> S 	 -74.4221 	 -0.217313 	 -62.4179
|  8> C 	 -74.899 	 1.42164 	 -62.7533
|  9> C 	 -76.1459 	 1.68763 	 -62.164
| 10> C 	 -76.7252 	 0.593358 	 -61.5167
| 11> C 	 -75.87 	 -0.520125 	 -61.4638
| 12> H 	 -77.6651 	 0.562931 	 -61.0179
| 13> C 	 -76.7552 	 3.03366 	 -62.1607
| 14> H 	 -76.0077 	 3.78146 	 -62.394
| 15> H 	 -76.996 	 3.34592 	 -61.1318
| 16> C 	 -78.0717 	 3.04172 	 -63.0054
| 17> H 	 -77.7923 	 2.51583 	 -63.9265
| 18> H 	 -78.8105 	 2.61735 	 -62.3871
| 19> C 	 -78.3351 	 4.52028 	 -63.3948
| 20> H 	 -78.5261 	 5.23424 	 -62.622
| 21> H 	 -77.4313 	 4.9638 	 -63.8582
| 22> H 	 -79.1931 	 4.57292 	 -64.0579
| 23> S 	 -74.8178 	 -2.91794 	 -60.4927
| 24> C 	 -75.9122 	 -4.2292 	 -60.1164
| 25> C 	 -77.2249 	 -3.88531 	 -60.3346
| 26> C 	 -77.4085 	 -2.48674 	 -60.651
| 27> C 	 -76.1813 	 -1.82695 	 -60.9129
| 28> H 	 -78.0503 	 -4.61519 	 -60.183
| 29> C 	 -78.7437 	 -2.00868 	 -61.071
| 30> H 	 -78.6809 	 -1.7752 	 -62.1231
| 31> H 	 -78.889 	 -1.1235 	 -60.5173
| 32> C 	 -80.0816 	 -2.82226 	 -61.0004
| 33> H 	 -80.1093 	 -3.24615 	 -59.9937
| 34> H 	 -79.8934 	 -3.63578 	 -61.6876
| 35> C 	 -81.3214 	 -1.94107 	 -61.3365
| 36> H 	 -81.2421 	 -1.50005 	 -62.2555
| 37> H 	 -81.4846 	 -1.13319 	 -60.6096
| 38> H 	 -82.2942 	 -2.55588 	 -61.3414
| 39> H 	 -74.2382 	 2.03395 	 -63.4279
| 40> H 	 -75.5393 	 -5.14926 	 -59.6833
| 41> *
| 42>
| 43>                          ****END OF INPUT****

CARTESIAN COORDINATES (ANGSTROEM)
---------------------------------
  S    -74.422100   -0.217313  -62.417900
  C    -74.899000    1.421640  -62.753300
  C    -76.145900    1.687630  -62.164000
  C    -76.725200    0.593358  -61.516700
  C    -75.870000   -0.520125  -61.463800
  H    -77.665100    0.562931  -61.017900
  C    -76.755200    3.033660  -62.160700
  H    -76.007700    3.781460  -62.394000
  H    -76.996000    3.345920  -61.131800
  C    -78.071700    3.041720  -63.005400
  H    -77.792300    2.515830  -63.926500
  H    -78.810500    2.617350  -62.387100
  C    -78.335100    4.520280  -63.394800
  H    -78.526100    5.234240  -62.622000
  H    -77.431300    4.963800  -63.858200
  H    -79.193100    4.572920  -64.057900
  S    -74.817800   -2.917940  -60.492700
  C    -75.912200   -4.229200  -60.116400
  C    -77.224900   -3.885310  -60.334600
  C    -77.408500   -2.486740  -60.651000
  C    -76.181300   -1.826950  -60.912900
  H    -78.050300   -4.615190  -60.183000
  C    -78.743700   -2.008680  -61.071000
  H    -78.680900   -1.775200  -62.123100
  H    -78.889000   -1.123500  -60.517300
  C    -80.081600   -2.822260  -61.000400
  H    -80.109300   -3.246150  -59.993700
  H    -79.893400   -3.635780  -61.687600
  C    -81.321400   -1.941070  -61.336500
  H    -81.242100   -1.500050  -62.255500
  H    -81.484600   -1.133190  -60.609600
  H    -82.294200   -2.555880  -61.341400
  H    -74.238200    2.033950  -63.427900
  H    -75.539300   -5.149260  -59.683300

 Total Charge           Charge          ....    0
 Multiplicity           Mult            ....    1
 Number of Electrons    NEL             ....  134
 Basis Dimension        Dim             ....  322

ORBITAL ENERGIES
----------------

  NO   OCC          E(Eh)            E(eV)
   0   2.0000     -88.965670     -2420.8790
   1   2.0000     -88.964511     -2420.8474
   2   2.0000     -10.333642      -281.1927
   3   2.0000     -10.332653      -281.1658
   4   2.0000     -10.318093      -280.7696
   5   2.0000     -10.318032      -280.7679
   6   2.0000     -10.308079      -280.4971
   7   2.0000     -10.298298      -280.2309
   8   2.0000     -10.297893      -280.2199
   9   2.0000     -10.294929      -280.1393
  10   2.0000     -10.290601      -280.0215
  11   2.0000     -10.288774      -279.9718
  12   2.0000     -10.287308      -279.9319
  13   2.0000     -10.285454      -279.8814
  14   2.0000     -10.284620      -279.8588
  15   2.0000     -10.277691      -279.6702
  16   2.0000      -8.080359      -219.8778
  17   2.0000      -8.078717      -219.8331
  18   2.0000      -6.038787      -164.3237
  19   2.0000      -6.037333      -164.2842
  20   2.0000      -6.034797      -164.2152
  21   2.0000      -6.033290      -164.1742
  22   2.0000      -6.031294      -164.1198
  23   2.0000      -6.029420      -164.0689
  24   2.0000      -1.003199       -27.2984
  25   2.0000      -0.980907       -26.6918
  26   2.0000      -0.913513       -24.8579
  27   2.0000      -0.910242       -24.7689
  28   2.0000      -0.867608       -23.6088
  29   2.0000      -0.854398       -23.2494
  30   2.0000      -0.845830       -23.0162
  31   2.0000      -0.812378       -22.1059
  32   2.0000      -0.782254       -21.2862
  33   2.0000      -0.766836       -20.8667
  34   2.0000      -0.717177       -19.5154
  35   2.0000      -0.706462       -19.2238
  36   2.0000      -0.694318       -18.8933
  37   2.0000      -0.654061       -17.7979
  38   2.0000      -0.638250       -17.3677
  39   2.0000      -0.623312       -16.9612
  40   2.0000      -0.598575       -16.2881
  41   2.0000      -0.579336       -15.7645
  42   2.0000      -0.575669       -15.6647
  43   2.0000      -0.555571       -15.1179
  44   2.0000      -0.527611       -14.3570
  45   2.0000      -0.522508       -14.2182
  46   2.0000      -0.514021       -13.9872
  47   2.0000      -0.510832       -13.9004
  48   2.0000      -0.508449       -13.8356
  49   2.0000      -0.496962       -13.5230
  50   2.0000      -0.488943       -13.3048
  51   2.0000      -0.484244       -13.1769
  52   2.0000      -0.474923       -12.9233
  53   2.0000      -0.464079       -12.6282
  54   2.0000      -0.458760       -12.4835
  55   2.0000      -0.453829       -12.3493
  56   2.0000      -0.445175       -12.1138
  57   2.0000      -0.443309       -12.0631
  58   2.0000      -0.436552       -11.8792
  59   2.0000      -0.427814       -11.6414
  60   2.0000      -0.417967       -11.3735
  61   2.0000      -0.414947       -11.2913
  62   2.0000      -0.409074       -11.1315
  63   2.0000      -0.358009        -9.7419
  64   2.0000      -0.331840        -9.0298
  65   2.0000      -0.327960        -8.9243
  66   2.0000      -0.275841        -7.5060
  67   0.0000       0.017363         0.4725
  68   0.0000       0.077868         2.1189
  69   0.0000       0.108854         2.9621
  70   0.0000       0.122806         3.3417
  71   0.0000       0.134932         3.6717

MULLIKEN ATOMIC CHARGES
-----------------------
   0 S :    0.102675
   1 C :   -0.158137
   2 C :   -0.049361
   3 C :    0.000128
   4 C :   -0.106296
   5 H :   -0.007362
   6 C :    0.031220
   7 H :    0.010094
   8 H :    0.028486
   9 C :   -0.047417
  10 H :    0.046237
  11 H :    0.034405
  12 C :   -0.048958
  13 H :    0.019490
  14 H :    0.027967
  15 H :    0.033126
  16 S :    0.090050
  17 C :   -0.085547
  18 C :   -0.054397
  19 C :   -0.015503
  20 C :   -0.144613
  21 H :    0.037809
  22 C :   -0.031306
  23 H :    0.045278
  24 H :    0.028665
  25 C :   -0.055171
  26 H :    0.031682
  27 H :    0.033617
  28 C :   -0.034274
  29 H :    0.018052
  30 H :    0.035563
  31 H :    0.048191
  32 H :    0.074930
  33 H :    0.060679
Sum of atomic charges:   -0.0000000

LOEWDIN ATOMIC CHARGES
----------------------
   0 S :    0.407083
   1 C :   -0.215230
   2 C :   -0.064274
   3 C :   -0.064278
   4 C :   -0.183804
   5 H :    0.025594
   6 C :   -0.036477
   7 H :    0.025053
   8 H :    0.031734
   9 C :   -0.024296
  10 H :    0.032209
  11 H :    0.019390
  12 C :   -0.068494
  13 H :    0.019707
  14 H :    0.028578
  15 H :    0.022757
  16 S :    0.383760
  17 C :   -0.181498
  18 C :   -0.078721
  19 C :   -0.053749
  20 C :   -0.181740
  21 H :    0.038610
  22 C :   -0.041222
  23 H :    0.036953
  24 H :    0.021332
  25 C :   -0.035023
  26 H :    0.021573
  27 H :    0.022738
  28 C :   -0.058461
  29 H :    0.012385
  30 H :    0.029061
  31 H :    0.040069
  32 H :    0.039451
  33 H :    0.029233

  Mayer bond orders larger than 0.100000
B(  0-S ,  1-C ) :   1.1437 B(  0-S ,  4-C ) :   1.1640 B(  1-C ,  2-C ) :   1.5498
B(  1-C ,  4-C ) :   0.1034 B(  1-C , 32-H ) :   0.9666 B(  2-C ,  3-C ) :   1.2725
B(  2-C ,  6-C ) :   1.0412 B(  3-C ,  4-C ) :   1.5202 B(  3-C ,  5-H ) :   1.0008
B(  4-C , 20-C ) :   1.1010 B(  6-C ,  7-H ) :   0.9501 B(  6-C ,  8-H ) :   0.9377
B(  6-C ,  9-C ) :   1.0337 B(  9-C , 10-H ) :   0.9620 B(  9-C , 11-H ) :   0.9565
B(  9-C , 12-C ) :   1.0813 B( 12-C , 13-H ) :   0.9734 B( 12-C , 14-H ) :   0.9771
B( 12-C , 15-H ) :   0.9760 B( 16-S , 17-C ) :   1.1527 B( 16-S , 20-C ) :   1.1271
B( 17-C , 18-C ) :   1.5987 B( 17-C , 33-H ) :   0.9672 B( 18-C , 19-C ) :   1.2565
B( 18-C , 21-H ) :   0.9772 B( 19-C , 20-C ) :   1.5602 B( 19-C , 22-C ) :   1.0368
B( 22-C , 23-H ) :   0.9398 B( 22-C , 24-H ) :   0.9220 B( 22-C , 25-C ) :   1.0721
B( 25-C , 26-H ) :   0.9540 B( 25-C , 27-H ) :   0.9505 B( 25-C , 28-C ) :   1.0759
B( 28-C , 29-H ) :   0.9767 B( 28-C , 30-H ) :   0.9746 B( 28-C , 31-H ) :   0.9736

Dispersion correction           -0.013510431
FINAL SINGLE POINT ENERGY     -1339.868452008142

DIPOLE MOMENT
-------------
                                X             Y             Z
Electronic contribution:     28.44666     -15.24937       4.82880
Nuclear contribution   :    -29.17784      15.48266      -4.89585
                        -----------------------------------------
Total Dipole Moment    :     -0.73119       0.23330      -0.06705
                        -----------------------------------------
Magnitude (a.u.)       :      0.77043
Magnitude (Debye)      :      1.95827

Rotational constants in cm-1:     0.016467     0.009067     0.006024
Rotational constants in MHz :   493.664744   271.811480   180.589680

                             ****ORCA TERMINATED NORMALLY****
TOTAL RUN TIME: 0 days 0 hours 0 minutes 21 seconds 252 msec
