                         Program Version 4.2.1 -  RELEASE  -
|  1> ! wB97X-D3 SP def2-SVP
|  2> %pal
|  3> nprocs 24
|  4> end
|  5>
|  6> * xyz 0 1
|  7> S 	 -134.066 	 24.5811 	 -15.7777
|  8> C 	 -133.155 	 25.136 	 -14.3803
|  9> C 	 -131.825 	 24.7949 	 -14.5332
| 10> C 	 -131.582 	 24.0142 	 -15.719
| 11> C 	 -132.699 	 23.7805 	 -16.528
| 12> H 	 -130.619 	 23.6782 	 -16.0165
| 13> C 	 -130.681 	 25.1648 	 -13.6239
| 14> H 	 -130.068 	 24.3112 	 -13.371
| 15> H 	 -131.045 	 25.3195 	 -12.6419
| 16> C 	 -129.882 	 26.4622 	 -14.0687
| 17> H 	 -130.57 	 27.3025 	 -14.1079
| 18> H 	 -129.133 	 26.6048 	 -13.3229
| 19> C 	 -129.181 	 26.4585 	 -15.4185
| 20> H 	 -128.499 	 27.3231 	 -15.5218
| 21> H 	 -128.474 	 25.6513 	 -15.3868
| 22> H 	 -129.921 	 26.3379 	 -16.2689
| 23> S 	 -133.106 	 24.2016 	 -19.2213
| 24> C 	 -132.456 	 23.0509 	 -20.3968
| 25> C 	 -132.275 	 21.8249 	 -19.7584
| 26> C 	 -132.347 	 21.9781 	 -18.3628
| 27> C 	 -132.657 	 23.2117 	 -17.8652
| 28> H 	 -132.168 	 21.0338 	 -20.4565
| 29> C 	 -131.906 	 20.8978 	 -17.4379
| 30> H 	 -132.261 	 19.9257 	 -17.882
| 31> H 	 -132.361 	 20.9631 	 -16.4262
| 32> C 	 -130.365 	 20.8031 	 -17.2258
| 33> H 	 -130.175 	 21.5856 	 -16.5155
| 34> H 	 -129.844 	 20.9246 	 -18.2065
| 35> C 	 -130.004 	 19.3043 	 -16.7322
| 36> H 	 -130.583 	 19.0809 	 -15.8819
| 37> H 	 -128.926 	 19.1608 	 -16.549
| 38> H 	 -130.288 	 18.6272 	 -17.5764
| 39> H 	 -133.649 	 25.6274 	 -13.55
| 40> H 	 -132.501 	 23.1213 	 -21.4187
| 41> *
| 42>
| 43>                          ****END OF INPUT****

CARTESIAN COORDINATES (ANGSTROEM)
---------------------------------
  S    -134.066000   24.581100  -15.777700
  C    -133.155000   25.136000  -14.380300
  C    -131.825000   24.794900  -14.533200
  C    -131.582000   24.014200  -15.719000
  C    -132.699000   23.780500  -16.528000
  H    -130.619000   23.678200  -16.016500
  C    -130.681000   25.164800  -13.623900
  H    -130.068000   24.311200  -13.371000
  H    -131.045000   25.319500  -12.641900
  C    -129.882000   26.462200  -14.068700
  H    -130.570000   27.302500  -14.107900
  H    -129.133000   26.604800  -13.322900
  C    -129.181000   26.458500  -15.418500
  H    -128.499000   27.323100  -15.521800
  H    -128.474000   25.651300  -15.386800
  H    -129.921000   26.337900  -16.268900
  S    -133.106000   24.201600  -19.221300
  C    -132.456000   23.050900  -20.396800
  C    -132.275000   21.824900  -19.758400
  C    -132.347000   21.978100  -18.362800
  C    -132.657000   23.211700  -17.865200
  H    -132.168000   21.033800  -20.456500
  C    -131.906000   20.897800  -17.437900
  H    -132.261000   19.925700  -17.882000
  H    -132.361000   20.963100  -16.426200
  C    -130.365000   20.803100  -17.225800
  H    -130.175000   21.585600  -16.515500
  H    -129.844000   20.924600  -18.206500
  C    -130.004000   19.304300  -16.732200
  H    -130.583000   19.080900  -15.881900
  H    -128.926000   19.160800  -16.549000
  H    -130.288000   18.627200  -17.576400
  H    -133.649000   25.627400  -13.550000
  H    -132.501000   23.121300  -21.418700

 Total Charge           Charge          ....    0
 Multiplicity           Mult            ....    1
 Number of Electrons    NEL             ....  134
 Basis Dimension        Dim             ....  322

ORBITAL ENERGIES
----------------

  NO   OCC          E(Eh)            E(eV)
   0   2.0000     -88.967341     -2420.9244
   1   2.0000     -88.961254     -2420.7588
   2   2.0000     -10.335098      -281.2323
   3   2.0000     -10.324639      -280.9477
   4   2.0000     -10.320396      -280.8323
   5   2.0000     -10.314571      -280.6737
   6   2.0000     -10.304817      -280.4083
   7   2.0000     -10.299039      -280.2511
   8   2.0000     -10.295612      -280.1578
   9   2.0000     -10.293672      -280.1050
  10   2.0000     -10.291039      -280.0334
  11   2.0000     -10.290763      -280.0259
  12   2.0000     -10.287674      -279.9418
  13   2.0000     -10.286803      -279.9181
  14   2.0000     -10.282509      -279.8013
  15   2.0000     -10.278211      -279.6843
  16   2.0000      -8.081887      -219.9193
  17   2.0000      -8.076189      -219.7643
  18   2.0000      -6.040474      -164.3696
  19   2.0000      -6.036254      -164.2548
  20   2.0000      -6.034758      -164.2141
  21   2.0000      -6.032727      -164.1588
  22   2.0000      -6.030670      -164.1029
  23   2.0000      -6.026841      -163.9987
  24   2.0000      -1.009937       -27.4818
  25   2.0000      -0.987013       -26.8580
  26   2.0000      -0.908369       -24.7180
  27   2.0000      -0.901213       -24.5232
  28   2.0000      -0.874259       -23.7898
  29   2.0000      -0.846620       -23.0377
  30   2.0000      -0.841405       -22.8958
  31   2.0000      -0.821029       -22.3413
  32   2.0000      -0.783691       -21.3253
  33   2.0000      -0.766342       -20.8532
  34   2.0000      -0.710353       -19.3297
  35   2.0000      -0.697287       -18.9741
  36   2.0000      -0.693800       -18.8793
  37   2.0000      -0.667318       -18.1587
  38   2.0000      -0.648215       -17.6388
  39   2.0000      -0.622476       -16.9384
  40   2.0000      -0.593946       -16.1621
  41   2.0000      -0.581027       -15.8105
  42   2.0000      -0.562367       -15.3028
  43   2.0000      -0.550381       -14.9766
  44   2.0000      -0.536470       -14.5981
  45   2.0000      -0.528234       -14.3740
  46   2.0000      -0.521613       -14.1938
  47   2.0000      -0.512713       -13.9516
  48   2.0000      -0.509063       -13.8523
  49   2.0000      -0.502348       -13.6696
  50   2.0000      -0.487880       -13.2759
  51   2.0000      -0.479849       -13.0573
  52   2.0000      -0.467766       -12.7286
  53   2.0000      -0.465190       -12.6585
  54   2.0000      -0.458563       -12.4781
  55   2.0000      -0.442981       -12.0541
  56   2.0000      -0.437309       -11.8998
  57   2.0000      -0.435739       -11.8571
  58   2.0000      -0.431180       -11.7330
  59   2.0000      -0.424964       -11.5639
  60   2.0000      -0.417854       -11.3704
  61   2.0000      -0.415530       -11.3071
  62   2.0000      -0.406321       -11.0566
  63   2.0000      -0.346777        -9.4363
  64   2.0000      -0.330076        -8.9818
  65   2.0000      -0.324654        -8.8343
  66   2.0000      -0.299229        -8.1424
  67   0.0000       0.032181         0.8757
  68   0.0000       0.056188         1.5290
  69   0.0000       0.113491         3.0882
  70   0.0000       0.120292         3.2733
  71   0.0000       0.129343         3.5196

MULLIKEN ATOMIC CHARGES
-----------------------
   0 S :    0.107605
   1 C :   -0.132596
   2 C :   -0.079972
   3 C :    0.033001
   4 C :   -0.147605
   5 H :    0.008013
   6 C :    0.086187
   7 H :    0.021297
   8 H :   -0.001586
   9 C :   -0.052957
  10 H :    0.029129
  11 H :    0.023822
  12 C :   -0.068182
  13 H :    0.037125
  14 H :    0.013822
  15 H :    0.065437
  16 S :    0.094960
  17 C :   -0.070019
  18 C :   -0.038279
  19 C :    0.007872
  20 C :   -0.142336
  21 H :    0.013367
  22 C :    0.003403
  23 H :    0.018074
  24 H :    0.038363
  25 C :   -0.074672
  26 H :    0.027645
  27 H :    0.040681
  28 C :   -0.058596
  29 H :    0.029359
  30 H :    0.043274
  31 H :    0.038219
  32 H :    0.058559
  33 H :    0.027589
Sum of atomic charges:   -0.0000000

LOEWDIN ATOMIC CHARGES
----------------------
   0 S :    0.404315
   1 C :   -0.189072
   2 C :   -0.064947
   3 C :   -0.053164
   4 C :   -0.196490
   5 H :    0.022069
   6 C :   -0.034608
   7 H :    0.030541
   8 H :    0.026121
   9 C :   -0.030224
  10 H :    0.023714
  11 H :    0.020525
  12 C :   -0.072965
  13 H :    0.031788
  14 H :    0.017178
  15 H :    0.036304
  16 S :    0.401006
  17 C :   -0.158632
  18 C :   -0.064412
  19 C :   -0.063138
  20 C :   -0.200596
  21 H :    0.032351
  22 C :   -0.039414
  23 H :    0.028282
  24 H :    0.031646
  25 C :   -0.034087
  26 H :    0.015797
  27 H :    0.027010
  28 C :   -0.062806
  29 H :    0.016085
  30 H :    0.026709
  31 H :    0.029785
  32 H :    0.032102
  33 H :    0.011229

  Mayer bond orders larger than 0.100000
B(  0-S ,  1-C ) :   1.1428 B(  0-S ,  4-C ) :   1.1518 B(  1-C ,  2-C ) :   1.5863
B(  1-C , 32-H ) :   0.9734 B(  2-C ,  3-C ) :   1.2580 B(  2-C ,  6-C ) :   1.0300
B(  3-C ,  4-C ) :   1.5468 B(  3-C ,  5-H ) :   0.9897 B(  4-C , 20-C ) :   1.0463
B(  6-C ,  7-H ) :   0.9402 B(  6-C ,  8-H ) :   0.9303 B(  6-C ,  9-C ) :   1.0616
B(  9-C , 10-H ) :   0.9573 B(  9-C , 11-H ) :   0.9551 B(  9-C , 12-C ) :   1.0915
B( 12-C , 13-H ) :   0.9699 B( 12-C , 14-H ) :   0.9727 B( 12-C , 15-H ) :   0.9690
B( 16-S , 17-C ) :   1.1675 B( 16-S , 20-C ) :   1.1235 B( 17-C , 18-C ) :   1.6031
B( 17-C , 20-C ) :   0.1045 B( 17-C , 33-H ) :   0.9744 B( 18-C , 19-C ) :   1.2135
B( 18-C , 21-H ) :   1.0071 B( 19-C , 20-C ) :   1.5982 B( 19-C , 22-C ) :   1.0686
B( 22-C , 23-H ) :   0.9384 B( 22-C , 24-H ) :   0.9298 B( 22-C , 25-C ) :   1.0481
B( 25-C , 26-H ) :   0.9520 B( 25-C , 27-H ) :   0.9629 B( 25-C , 28-C ) :   1.0657
B( 28-C , 29-H ) :   0.9783 B( 28-C , 30-H ) :   0.9771 B( 28-C , 31-H ) :   0.9783

Dispersion correction           -0.014776095
FINAL SINGLE POINT ENERGY     -1339.863611158285

DIPOLE MOMENT
-------------
                                X             Y             Z
Electronic contribution:    -22.47029       7.55497     -10.11692
Nuclear contribution   :     22.97477      -7.77201      10.34822
                        -----------------------------------------
Total Dipole Moment    :      0.50448      -0.21704       0.23130
                        -----------------------------------------
Magnitude (a.u.)       :      0.59590
Magnitude (Debye)      :      1.51466

Rotational constants in cm-1:     0.016657     0.009321     0.007706
Rotational constants in MHz :   499.362899   279.450436   231.026920

                             ****ORCA TERMINATED NORMALLY****
TOTAL RUN TIME: 0 days 0 hours 0 minutes 22 seconds 11 msec
