                         Program Version 4.2.1 -  RELEASE  -
|  1> ! wB97X-D3 SP def2-SVP
|  2> %pal
|  3> nprocs 24
|  4> end
|  5>
|  6> * xyz 0 1
|  7> S 	 39.3542 	 -26.5903 	 -109.444
|  8> C 	 41.0355 	 -26.7637 	 -109.029
|  9> C 	 41.7485 	 -25.6129 	 -109.384
| 10> C 	 40.9218 	 -24.633 	 -109.907
| 11> C 	 39.6183 	 -24.9662 	 -109.979
| 12> H 	 41.2735 	 -23.7062 	 -110.378
| 13> C 	 43.2889 	 -25.4058 	 -109.124
| 14> H 	 43.7688 	 -25.9302 	 -109.952
| 15> H 	 43.5372 	 -25.8826 	 -108.214
| 16> C 	 43.8586 	 -23.9842 	 -108.944
| 17> H 	 44.8916 	 -24.1037 	 -108.668
| 18> H 	 43.841 	 -23.43 	 -109.876
| 19> C 	 43.1867 	 -23.1045 	 -107.898
| 20> H 	 43.0804 	 -23.5235 	 -106.894
| 21> H 	 43.6551 	 -22.1708 	 -107.683
| 22> H 	 42.1616 	 -22.9181 	 -108.204
| 23> S 	 37.273 	 -25.1176 	 -111.386
| 24> C 	 36.2202 	 -23.6538 	 -111.397
| 25> C 	 36.666 	 -22.6875 	 -110.541
| 26> C 	 37.9845 	 -22.9835 	 -110.11
| 27> C 	 38.5154 	 -24.2285 	 -110.505
| 28> H 	 36.0756 	 -21.7481 	 -110.425
| 29> C 	 38.7241 	 -22.0383 	 -109.259
| 30> H 	 39.5501 	 -22.5695 	 -108.777
| 31> H 	 38.072 	 -21.6281 	 -108.444
| 32> C 	 39.3463 	 -20.9291 	 -110.129
| 33> H 	 38.6886 	 -20.0711 	 -110.291
| 34> H 	 39.5633 	 -21.3798 	 -111.114
| 35> C 	 40.5425 	 -20.2194 	 -109.437
| 36> H 	 40.8617 	 -19.4702 	 -110.195
| 37> H 	 41.3735 	 -20.9264 	 -109.299
| 38> H 	 40.3316 	 -19.6263 	 -108.55
| 39> H 	 41.4032 	 -27.6934 	 -108.664
| 40> H 	 35.2573 	 -23.5012 	 -111.838
| 41> *
| 42>
| 43>                          ****END OF INPUT****

CARTESIAN COORDINATES (ANGSTROEM)
---------------------------------
  S     39.354200  -26.590300  -109.444000
  C     41.035500  -26.763700  -109.029000
  C     41.748500  -25.612900  -109.384000
  C     40.921800  -24.633000  -109.907000
  C     39.618300  -24.966200  -109.979000
  H     41.273500  -23.706200  -110.378000
  C     43.288900  -25.405800  -109.124000
  H     43.768800  -25.930200  -109.952000
  H     43.537200  -25.882600  -108.214000
  C     43.858600  -23.984200  -108.944000
  H     44.891600  -24.103700  -108.668000
  H     43.841000  -23.430000  -109.876000
  C     43.186700  -23.104500  -107.898000
  H     43.080400  -23.523500  -106.894000
  H     43.655100  -22.170800  -107.683000
  H     42.161600  -22.918100  -108.204000
  S     37.273000  -25.117600  -111.386000
  C     36.220200  -23.653800  -111.397000
  C     36.666000  -22.687500  -110.541000
  C     37.984500  -22.983500  -110.110000
  C     38.515400  -24.228500  -110.505000
  H     36.075600  -21.748100  -110.425000
  C     38.724100  -22.038300  -109.259000
  H     39.550100  -22.569500  -108.777000
  H     38.072000  -21.628100  -108.444000
  C     39.346300  -20.929100  -110.129000
  H     38.688600  -20.071100  -110.291000
  H     39.563300  -21.379800  -111.114000
  C     40.542500  -20.219400  -109.437000
  H     40.861700  -19.470200  -110.195000
  H     41.373500  -20.926400  -109.299000
  H     40.331600  -19.626300  -108.550000
  H     41.403200  -27.693400  -108.664000
  H     35.257300  -23.501200  -111.838000

 Total Charge           Charge          ....    0
 Multiplicity           Mult            ....    1
 Number of Electrons    NEL             ....  134
 Basis Dimension        Dim             ....  322

ORBITAL ENERGIES
----------------

  NO   OCC          E(Eh)            E(eV)
   0   2.0000     -88.967045     -2420.9164
   1   2.0000     -88.964890     -2420.8577
   2   2.0000     -10.324745      -280.9506
   3   2.0000     -10.322135      -280.8796
   4   2.0000     -10.318985      -280.7938
   5   2.0000     -10.310962      -280.5755
   6   2.0000     -10.302423      -280.3432
   7   2.0000     -10.301407      -280.3155
   8   2.0000     -10.295795      -280.1628
   9   2.0000     -10.293809      -280.1088
  10   2.0000     -10.287650      -279.9412
  11   2.0000     -10.287626      -279.9405
  12   2.0000     -10.286887      -279.9204
  13   2.0000     -10.285115      -279.8722
  14   2.0000     -10.280942      -279.7586
  15   2.0000     -10.272777      -279.5365
  16   2.0000      -8.080594      -219.8841
  17   2.0000      -8.080324      -219.8768
  18   2.0000      -6.039329      -164.3385
  19   2.0000      -6.038670      -164.3206
  20   2.0000      -6.035361      -164.2305
  21   2.0000      -6.034746      -164.2138
  22   2.0000      -6.031196      -164.1172
  23   2.0000      -6.031081      -164.1141
  24   2.0000      -1.013365       -27.5751
  25   2.0000      -0.984618       -26.7928
  26   2.0000      -0.910759       -24.7830
  27   2.0000      -0.907026       -24.6814
  28   2.0000      -0.875320       -23.8187
  29   2.0000      -0.852066       -23.1859
  30   2.0000      -0.844012       -22.9667
  31   2.0000      -0.820457       -22.3258
  32   2.0000      -0.786473       -21.4010
  33   2.0000      -0.765379       -20.8270
  34   2.0000      -0.710220       -19.3261
  35   2.0000      -0.698022       -18.9941
  36   2.0000      -0.692858       -18.8536
  37   2.0000      -0.657762       -17.8986
  38   2.0000      -0.645610       -17.5679
  39   2.0000      -0.627988       -17.0884
  40   2.0000      -0.591372       -16.0920
  41   2.0000      -0.570188       -15.5156
  42   2.0000      -0.565023       -15.3751
  43   2.0000      -0.555262       -15.1095
  44   2.0000      -0.541734       -14.7413
  45   2.0000      -0.526180       -14.3181
  46   2.0000      -0.516793       -14.0627
  47   2.0000      -0.507638       -13.8135
  48   2.0000      -0.503147       -13.6913
  49   2.0000      -0.500704       -13.6249
  50   2.0000      -0.487527       -13.2663
  51   2.0000      -0.485980       -13.2242
  52   2.0000      -0.468767       -12.7558
  53   2.0000      -0.464322       -12.6348
  54   2.0000      -0.458465       -12.4755
  55   2.0000      -0.452427       -12.3112
  56   2.0000      -0.448594       -12.2069
  57   2.0000      -0.440363       -11.9829
  58   2.0000      -0.431341       -11.7374
  59   2.0000      -0.423221       -11.5164
  60   2.0000      -0.418528       -11.3887
  61   2.0000      -0.413263       -11.2455
  62   2.0000      -0.408555       -11.1173
  63   2.0000      -0.352806        -9.6003
  64   2.0000      -0.335769        -9.1367
  65   2.0000      -0.329751        -8.9730
  66   2.0000      -0.283983        -7.7276
  67   0.0000       0.026537         0.7221
  68   0.0000       0.065872         1.7925
  69   0.0000       0.105546         2.8721
  70   0.0000       0.123266         3.3543
  71   0.0000       0.133328         3.6280

MULLIKEN ATOMIC CHARGES
-----------------------
   0 S :    0.112008
   1 C :   -0.137104
   2 C :   -0.075370
   3 C :   -0.016223
   4 C :   -0.124498
   5 H :    0.018384
   6 C :    0.087327
   7 H :    0.046522
   8 H :    0.020262
   9 C :   -0.066353
  10 H :    0.029526
  11 H :    0.027568
  12 C :   -0.042129
  13 H :    0.020688
  14 H :    0.028103
  15 H :    0.022501
  16 S :    0.085194
  17 C :   -0.074294
  18 C :   -0.032317
  19 C :   -0.080220
  20 C :   -0.121406
  21 H :    0.042468
  22 C :    0.073499
  23 H :    0.024288
  24 H :    0.035494
  25 C :   -0.101085
  26 H :    0.028256
  27 H :    0.043248
  28 C :   -0.058723
  29 H :    0.030499
  30 H :    0.028832
  31 H :    0.042134
  32 H :    0.037750
  33 H :    0.045170
Sum of atomic charges:   -0.0000000

LOEWDIN ATOMIC CHARGES
----------------------
   0 S :    0.420684
   1 C :   -0.198298
   2 C :   -0.059098
   3 C :   -0.080412
   4 C :   -0.194124
   5 H :    0.035975
   6 C :   -0.023012
   7 H :    0.037386
   8 H :    0.025693
   9 C :   -0.040237
  10 H :    0.027215
  11 H :    0.022004
  12 C :   -0.068288
  13 H :    0.026399
  14 H :    0.023938
  15 H :    0.020164
  16 S :    0.375873
  17 C :   -0.160671
  18 C :   -0.073064
  19 C :   -0.050292
  20 C :   -0.201884
  21 H :    0.044799
  22 C :   -0.040847
  23 H :    0.027428
  24 H :    0.036128
  25 C :   -0.041004
  26 H :    0.023786
  27 H :    0.027733
  28 C :   -0.069551
  29 H :    0.030704
  30 H :    0.020748
  31 H :    0.026897
  32 H :    0.019773
  33 H :    0.027455

  Mayer bond orders larger than 0.100000
B(  0-S ,  1-C ) :   1.1492 B(  0-S ,  4-C ) :   1.1602 B(  1-C ,  2-C ) :   1.5831
B(  1-C ,  4-C ) :   0.1033 B(  1-C , 32-H ) :   0.9808 B(  2-C ,  3-C ) :   1.2803
B(  2-C ,  6-C ) :   0.9846 B(  3-C ,  4-C ) :   1.5568 B(  3-C ,  5-H ) :   0.9914
B(  4-C , 20-C ) :   1.0694 B(  6-C ,  7-H ) :   0.9375 B(  6-C ,  8-H ) :   0.9489
B(  6-C ,  9-C ) :   1.0859 B(  9-C , 10-H ) :   0.9526 B(  9-C , 11-H ) :   0.9488
B(  9-C , 12-C ) :   1.0836 B( 12-C , 13-H ) :   0.9675 B( 12-C , 14-H ) :   0.9712
B( 12-C , 15-H ) :   0.9672 B( 16-S , 17-C ) :   1.1406 B( 16-S , 20-C ) :   1.1038
B( 17-C , 18-C ) :   1.6350 B( 17-C , 33-H ) :   0.9632 B( 18-C , 19-C ) :   1.2388
B( 18-C , 21-H ) :   0.9816 B( 19-C , 20-C ) :   1.5658 B( 19-C , 22-C ) :   1.0739
B( 22-C , 23-H ) :   0.9333 B( 22-C , 24-H ) :   0.9274 B( 22-C , 25-C ) :   1.0437
B( 25-C , 26-H ) :   0.9532 B( 25-C , 27-H ) :   0.9583 B( 25-C , 28-C ) :   1.0834
B( 28-C , 29-H ) :   0.9724 B( 28-C , 30-H ) :   0.9744 B( 28-C , 31-H ) :   0.9732

Dispersion correction           -0.015757639
FINAL SINGLE POINT ENERGY     -1339.875828424458

DIPOLE MOMENT
-------------
                                X             Y             Z
Electronic contribution:    -20.85794     -22.57288      -9.00007
Nuclear contribution   :     21.16031      23.13670       9.20540
                        -----------------------------------------
Total Dipole Moment    :      0.30237       0.56382       0.20533
                        -----------------------------------------
Magnitude (a.u.)       :      0.67192
Magnitude (Debye)      :      1.70789

Rotational constants in cm-1:     0.017628     0.011070     0.007197
Rotational constants in MHz :   528.484442   331.880234   215.748136

                             ****ORCA TERMINATED NORMALLY****
TOTAL RUN TIME: 0 days 0 hours 0 minutes 21 seconds 928 msec
