                         Program Version 4.2.1 -  RELEASE  -
|  1> ! wB97X-D3 SP def2-SVP
|  2> %pal
|  3> nprocs 24
|  4> end
|  5>
|  6> * xyz 0 1
|  7> S 	 -65.954 	 8.73355 	 -77.3638
|  8> C 	 -65.1685 	 7.47158 	 -76.3894
|  9> C 	 -65.9019 	 7.0388 	 -75.3127
| 10> C 	 -67.0422 	 7.91912 	 -75.2025
| 11> C 	 -67.1809 	 8.88545 	 -76.1771
| 12> H 	 -67.8034 	 7.90623 	 -74.356
| 13> C 	 -65.5275 	 5.85634 	 -74.4211
| 14> H 	 -65.2312 	 6.3719 	 -73.5364
| 15> H 	 -64.6451 	 5.34253 	 -74.6472
| 16> C 	 -66.6682 	 4.87944 	 -74.1385
| 17> H 	 -66.3638 	 4.44973 	 -73.1654
| 18> H 	 -67.5642 	 5.38071 	 -73.9298
| 19> C 	 -66.8955 	 3.79208 	 -75.1452
| 20> H 	 -67.8645 	 3.46848 	 -75.2598
| 21> H 	 -66.629 	 4.22557 	 -76.0977
| 22> H 	 -66.2674 	 2.89275 	 -75.031
| 23> S 	 -68.1782 	 11.4998 	 -76.4609
| 24> C 	 -69.8812 	 11.7226 	 -76.4449
| 25> C 	 -70.5413 	 10.502 	 -76.3599
| 26> C 	 -69.658 	 9.31573 	 -76.2911
| 27> C 	 -68.3527 	 9.71466 	 -76.3868
| 28> H 	 -71.6218 	 10.5866 	 -76.2865
| 29> C 	 -70.2869 	 7.97693 	 -76.0686
| 30> H 	 -69.5072 	 7.20621 	 -75.9411
| 31> H 	 -70.7838 	 7.77806 	 -77.0251
| 32> C 	 -71.2612 	 7.85451 	 -74.866
| 33> H 	 -72.0869 	 8.5998 	 -75.0495
| 34> H 	 -70.5781 	 8.27561 	 -74.0312
| 35> C 	 -71.8942 	 6.44776 	 -74.6439
| 36> H 	 -71.2287 	 5.63935 	 -74.5654
| 37> H 	 -72.4943 	 6.22685 	 -75.5087
| 38> H 	 -72.4749 	 6.56274 	 -73.8072
| 39> H 	 -64.3432 	 6.85059 	 -76.7227
| 40> H 	 -70.43 	 12.6789 	 -76.3737
| 41> *
| 42>
| 43>                          ****END OF INPUT****

CARTESIAN COORDINATES (ANGSTROEM)
---------------------------------
  S    -65.954000    8.733550  -77.363800
  C    -65.168500    7.471580  -76.389400
  C    -65.901900    7.038800  -75.312700
  C    -67.042200    7.919120  -75.202500
  C    -67.180900    8.885450  -76.177100
  H    -67.803400    7.906230  -74.356000
  C    -65.527500    5.856340  -74.421100
  H    -65.231200    6.371900  -73.536400
  H    -64.645100    5.342530  -74.647200
  C    -66.668200    4.879440  -74.138500
  H    -66.363800    4.449730  -73.165400
  H    -67.564200    5.380710  -73.929800
  C    -66.895500    3.792080  -75.145200
  H    -67.864500    3.468480  -75.259800
  H    -66.629000    4.225570  -76.097700
  H    -66.267400    2.892750  -75.031000
  S    -68.178200   11.499800  -76.460900
  C    -69.881200   11.722600  -76.444900
  C    -70.541300   10.502000  -76.359900
  C    -69.658000    9.315730  -76.291100
  C    -68.352700    9.714660  -76.386800
  H    -71.621800   10.586600  -76.286500
  C    -70.286900    7.976930  -76.068600
  H    -69.507200    7.206210  -75.941100
  H    -70.783800    7.778060  -77.025100
  C    -71.261200    7.854510  -74.866000
  H    -72.086900    8.599800  -75.049500
  H    -70.578100    8.275610  -74.031200
  C    -71.894200    6.447760  -74.643900
  H    -71.228700    5.639350  -74.565400
  H    -72.494300    6.226850  -75.508700
  H    -72.474900    6.562740  -73.807200
  H    -64.343200    6.850590  -76.722700
  H    -70.430000   12.678900  -76.373700

 Total Charge           Charge          ....    0
 Multiplicity           Mult            ....    1
 Number of Electrons    NEL             ....  134
 Basis Dimension        Dim             ....  322

ORBITAL ENERGIES
----------------

  NO   OCC          E(Eh)            E(eV)
   0   2.0000     -88.964354     -2420.8431
   1   2.0000     -88.963611     -2420.8229
   2   2.0000     -10.326437      -280.9966
   3   2.0000     -10.323561      -280.9184
   4   2.0000     -10.318504      -280.7808
   5   2.0000     -10.309759      -280.5428
   6   2.0000     -10.308185      -280.5000
   7   2.0000     -10.303454      -280.3712
   8   2.0000     -10.302613      -280.3483
   9   2.0000     -10.299120      -280.2533
  10   2.0000     -10.295174      -280.1459
  11   2.0000     -10.292058      -280.0611
  12   2.0000     -10.290859      -280.0285
  13   2.0000     -10.283821      -279.8370
  14   2.0000     -10.275127      -279.6004
  15   2.0000     -10.269677      -279.4521
  16   2.0000      -8.079385      -219.8512
  17   2.0000      -8.078374      -219.8237
  18   2.0000      -6.037818      -164.2974
  19   2.0000      -6.037005      -164.2753
  20   2.0000      -6.033974      -164.1928
  21   2.0000      -6.032937      -164.1646
  22   2.0000      -6.030086      -164.0870
  23   2.0000      -6.028933      -164.0556
  24   2.0000      -1.005732       -27.3674
  25   2.0000      -0.981348       -26.7038
  26   2.0000      -0.919516       -25.0213
  27   2.0000      -0.908411       -24.7191
  28   2.0000      -0.872349       -23.7378
  29   2.0000      -0.854320       -23.2472
  30   2.0000      -0.841760       -22.9055
  31   2.0000      -0.811192       -22.0736
  32   2.0000      -0.793210       -21.5843
  33   2.0000      -0.781572       -21.2676
  34   2.0000      -0.713209       -19.4074
  35   2.0000      -0.700037       -19.0490
  36   2.0000      -0.690074       -18.7779
  37   2.0000      -0.652845       -17.7648
  38   2.0000      -0.640697       -17.4342
  39   2.0000      -0.616574       -16.7778
  40   2.0000      -0.594824       -16.1860
  41   2.0000      -0.569400       -15.4942
  42   2.0000      -0.564856       -15.3705
  43   2.0000      -0.562310       -15.3012
  44   2.0000      -0.538321       -14.6485
  45   2.0000      -0.536386       -14.5958
  46   2.0000      -0.518272       -14.1029
  47   2.0000      -0.513516       -13.9735
  48   2.0000      -0.506097       -13.7716
  49   2.0000      -0.494843       -13.4654
  50   2.0000      -0.487582       -13.2678
  51   2.0000      -0.479581       -13.0501
  52   2.0000      -0.475687       -12.9441
  53   2.0000      -0.467196       -12.7131
  54   2.0000      -0.459694       -12.5089
  55   2.0000      -0.452623       -12.3165
  56   2.0000      -0.447830       -12.1861
  57   2.0000      -0.441256       -12.0072
  58   2.0000      -0.433251       -11.7894
  59   2.0000      -0.425991       -11.5918
  60   2.0000      -0.421350       -11.4655
  61   2.0000      -0.420313       -11.4373
  62   2.0000      -0.406852       -11.0710
  63   2.0000      -0.343537        -9.3481
  64   2.0000      -0.329992        -8.9795
  65   2.0000      -0.325185        -8.8487
  66   2.0000      -0.296770        -8.0755
  67   0.0000       0.037781         1.0281
  68   0.0000       0.070016         1.9052
  69   0.0000       0.112989         3.0746
  70   0.0000       0.116621         3.1734
  71   0.0000       0.120451         3.2776

MULLIKEN ATOMIC CHARGES
-----------------------
   0 S :    0.111680
   1 C :   -0.119095
   2 C :   -0.101467
   3 C :   -0.023791
   4 C :   -0.140867
   5 H :    0.033693
   6 C :    0.110549
   7 H :    0.028660
   8 H :    0.000314
   9 C :   -0.062049
  10 H :    0.021987
  11 H :    0.011514
  12 C :    0.003898
  13 H :    0.012853
  14 H :    0.018284
  15 H :    0.031486
  16 S :    0.107176
  17 C :   -0.101093
  18 C :   -0.063633
  19 C :   -0.014192
  20 C :   -0.163302
  21 H :    0.020956
  22 C :    0.068379
  23 H :    0.023382
  24 H :    0.034224
  25 C :   -0.158895
  26 H :    0.040435
  27 H :    0.046761
  28 C :    0.038183
  29 H :    0.021408
  30 H :    0.025047
  31 H :    0.026831
  32 H :    0.040077
  33 H :    0.070604
Sum of atomic charges:   -0.0000000

LOEWDIN ATOMIC CHARGES
----------------------
   0 S :    0.408323
   1 C :   -0.194303
   2 C :   -0.060089
   3 C :   -0.072163
   4 C :   -0.208185
   5 H :    0.035897
   6 C :   -0.021760
   7 H :    0.037505
   8 H :    0.024291
   9 C :   -0.036680
  10 H :    0.028604
  11 H :    0.016519
  12 C :   -0.059805
  13 H :    0.016086
  14 H :    0.027412
  15 H :    0.029687
  16 S :    0.393826
  17 C :   -0.197896
  18 C :   -0.077381
  19 C :   -0.044550
  20 C :   -0.195186
  21 H :    0.028135
  22 C :   -0.042078
  23 H :    0.027822
  24 H :    0.034086
  25 C :   -0.042988
  26 H :    0.026376
  27 H :    0.032115
  28 C :   -0.047988
  29 H :    0.019544
  30 H :    0.029404
  31 H :    0.020454
  32 H :    0.024830
  33 H :    0.040139

  Mayer bond orders larger than 0.100000
B(  0-S ,  1-C ) :   1.1317 B(  0-S ,  4-C ) :   1.1557 B(  1-C ,  2-C ) :   1.6406
B(  1-C , 32-H ) :   0.9622 B(  2-C ,  3-C ) :   1.2247 B(  2-C ,  6-C ) :   1.0086
B(  3-C ,  4-C ) :   1.6018 B(  3-C ,  5-H ) :   0.9791 B(  4-C , 20-C ) :   1.0143
B(  6-C ,  7-H ) :   0.9295 B(  6-C ,  8-H ) :   0.9418 B(  6-C ,  9-C ) :   1.0791
B(  9-C , 10-H ) :   0.9523 B(  9-C , 11-H ) :   0.9590 B(  9-C , 12-C ) :   1.0715
B( 12-C , 13-H ) :   0.9734 B( 12-C , 14-H ) :   0.9750 B( 12-C , 15-H ) :   0.9732
B( 16-S , 17-C ) :   1.1494 B( 16-S , 20-C ) :   1.1155 B( 17-C , 18-C ) :   1.6560
B( 17-C , 33-H ) :   0.9612 B( 18-C , 19-C ) :   1.1748 B( 18-C , 21-H ) :   0.9860
B( 19-C , 20-C ) :   1.6400 B( 19-C , 22-C ) :   1.0485 B( 22-C , 23-H ) :   0.9331
B( 22-C , 24-H ) :   0.9214 B( 22-C , 25-C ) :   1.0516 B( 25-C , 26-H ) :   0.9511
B( 25-C , 27-H ) :   0.9577 B( 25-C , 28-C ) :   1.0714 B( 28-C , 29-H ) :   0.9763
B( 28-C , 30-H ) :   0.9701 B( 28-C , 31-H ) :   0.9740

Dispersion correction           -0.014660357
FINAL SINGLE POINT ENERGY     -1339.863703840337

DIPOLE MOMENT
-------------
                                X             Y             Z
Electronic contribution:     12.25123      26.97237     -13.07337
Nuclear contribution   :    -12.75385     -27.63154      13.52449
                        -----------------------------------------
Total Dipole Moment    :     -0.50262      -0.65917       0.45112
                        -----------------------------------------
Magnitude (a.u.)       :      0.94374
Magnitude (Debye)      :      2.39879

Rotational constants in cm-1:     0.016528     0.010213     0.006783
Rotational constants in MHz :   495.505305   306.185824   203.342925

                             ****ORCA TERMINATED NORMALLY****
TOTAL RUN TIME: 0 days 0 hours 0 minutes 22 seconds 137 msec
