                         Program Version 4.2.1 -  RELEASE  -
|  1> ! wB97X-D3 SP def2-SVP
|  2> %pal
|  3> nprocs 24
|  4> end
|  5>
|  6> * xyz 0 1
|  7> S 	 -54.2423 	 -0.240516 	 -21.0644
|  8> C 	 -53.0657 	 0.130007 	 -22.278
|  9> C 	 -53.2296 	 1.46455 	 -22.6942
| 10> C 	 -54.3529 	 2.08244 	 -22.0816
| 11> C 	 -55.067 	 1.28189 	 -21.2581
| 12> H 	 -54.7801 	 3.07732 	 -22.3658
| 13> C 	 -52.4047 	 2.23552 	 -23.6858
| 14> H 	 -51.7812 	 1.60326 	 -24.3741
| 15> H 	 -51.7913 	 2.75832 	 -23.027
| 16> C 	 -53.1254 	 3.18469 	 -24.5894
| 17> H 	 -53.7678 	 2.569 	 -25.2322
| 18> H 	 -53.6603 	 4.00153 	 -24.0628
| 19> C 	 -52.1827 	 3.84959 	 -25.5851
| 20> H 	 -51.636 	 3.13336 	 -26.1135
| 21> H 	 -52.6876 	 4.44431 	 -26.3048
| 22> H 	 -51.5407 	 4.52961 	 -24.9638
| 23> S 	 -57.416 	 2.58408 	 -21.5954
| 24> C 	 -58.7634 	 2.29324 	 -20.5201
| 25> C 	 -58.3821 	 1.50713 	 -19.4223
| 26> C 	 -57.0349 	 1.10066 	 -19.5006
| 27> C 	 -56.3827 	 1.48891 	 -20.6795
| 28> H 	 -59.1588 	 1.16092 	 -18.7307
| 29> C 	 -56.4808 	 0.121349 	 -18.4284
| 30> H 	 -56.265 	 -0.801374 	 -19.0131
| 31> H 	 -57.3108 	 -0.225814 	 -17.8195
| 32> C 	 -55.3941 	 0.676149 	 -17.5354
| 33> H 	 -55.6086 	 1.74101 	 -17.1862
| 34> H 	 -54.3962 	 0.730093 	 -18.0462
| 35> C 	 -55.3097 	 -0.141044 	 -16.2349
| 36> H 	 -54.8609 	 0.44184 	 -15.4739
| 37> H 	 -54.7403 	 -1.059 	 -16.3176
| 38> H 	 -56.2304 	 -0.436838 	 -15.7178
| 39> H 	 -52.3053 	 -0.577443 	 -22.6289
| 40> H 	 -59.8236 	 2.57637 	 -20.565
| 41> *
| 42>
| 43>                          ****END OF INPUT****

CARTESIAN COORDINATES (ANGSTROEM)
---------------------------------
  S    -54.242300   -0.240516  -21.064400
  C    -53.065700    0.130007  -22.278000
  C    -53.229600    1.464550  -22.694200
  C    -54.352900    2.082440  -22.081600
  C    -55.067000    1.281890  -21.258100
  H    -54.780100    3.077320  -22.365800
  C    -52.404700    2.235520  -23.685800
  H    -51.781200    1.603260  -24.374100
  H    -51.791300    2.758320  -23.027000
  C    -53.125400    3.184690  -24.589400
  H    -53.767800    2.569000  -25.232200
  H    -53.660300    4.001530  -24.062800
  C    -52.182700    3.849590  -25.585100
  H    -51.636000    3.133360  -26.113500
  H    -52.687600    4.444310  -26.304800
  H    -51.540700    4.529610  -24.963800
  S    -57.416000    2.584080  -21.595400
  C    -58.763400    2.293240  -20.520100
  C    -58.382100    1.507130  -19.422300
  C    -57.034900    1.100660  -19.500600
  C    -56.382700    1.488910  -20.679500
  H    -59.158800    1.160920  -18.730700
  C    -56.480800    0.121349  -18.428400
  H    -56.265000   -0.801374  -19.013100
  H    -57.310800   -0.225814  -17.819500
  C    -55.394100    0.676149  -17.535400
  H    -55.608600    1.741010  -17.186200
  H    -54.396200    0.730093  -18.046200
  C    -55.309700   -0.141044  -16.234900
  H    -54.860900    0.441840  -15.473900
  H    -54.740300   -1.059000  -16.317600
  H    -56.230400   -0.436838  -15.717800
  H    -52.305300   -0.577443  -22.628900
  H    -59.823600    2.576370  -20.565000

 Total Charge           Charge          ....    0
 Multiplicity           Mult            ....    1
 Number of Electrons    NEL             ....  134
 Basis Dimension        Dim             ....  322

ORBITAL ENERGIES
----------------

  NO   OCC          E(Eh)            E(eV)
   0   2.0000     -88.969623     -2420.9865
   1   2.0000     -88.964035     -2420.8345
   2   2.0000     -10.329668      -281.0846
   3   2.0000     -10.327770      -281.0329
   4   2.0000     -10.318932      -280.7924
   5   2.0000     -10.315233      -280.6918
   6   2.0000     -10.304476      -280.3991
   7   2.0000     -10.303206      -280.3645
   8   2.0000     -10.293874      -280.1106
   9   2.0000     -10.291869      -280.0560
  10   2.0000     -10.291726      -280.0521
  11   2.0000     -10.290875      -280.0289
  12   2.0000     -10.287561      -279.9388
  13   2.0000     -10.285054      -279.8705
  14   2.0000     -10.273137      -279.5463
  15   2.0000     -10.269687      -279.4524
  16   2.0000      -8.083654      -219.9674
  17   2.0000      -8.078946      -219.8393
  18   2.0000      -6.042289      -164.4190
  19   2.0000      -6.038139      -164.3061
  20   2.0000      -6.037438      -164.2870
  21   2.0000      -6.034453      -164.2058
  22   2.0000      -6.033407      -164.1773
  23   2.0000      -6.029752      -164.0779
  24   2.0000      -1.009682       -27.4748
  25   2.0000      -0.984704       -26.7952
  26   2.0000      -0.921751       -25.0821
  27   2.0000      -0.904517       -24.6132
  28   2.0000      -0.872317       -23.7370
  29   2.0000      -0.854679       -23.2570
  30   2.0000      -0.845048       -22.9949
  31   2.0000      -0.813708       -22.1421
  32   2.0000      -0.783289       -21.3144
  33   2.0000      -0.769855       -20.9488
  34   2.0000      -0.709318       -19.3015
  35   2.0000      -0.695859       -18.9353
  36   2.0000      -0.687341       -18.7035
  37   2.0000      -0.666777       -18.1439
  38   2.0000      -0.631590       -17.1864
  39   2.0000      -0.623569       -16.9682
  40   2.0000      -0.589532       -16.0420
  41   2.0000      -0.584218       -15.8974
  42   2.0000      -0.567117       -15.4320
  43   2.0000      -0.556372       -15.1397
  44   2.0000      -0.529244       -14.4015
  45   2.0000      -0.523268       -14.2388
  46   2.0000      -0.514094       -13.9892
  47   2.0000      -0.512257       -13.9392
  48   2.0000      -0.508357       -13.8331
  49   2.0000      -0.501993       -13.6599
  50   2.0000      -0.487740       -13.2721
  51   2.0000      -0.481999       -13.1159
  52   2.0000      -0.474809       -12.9202
  53   2.0000      -0.464531       -12.6405
  54   2.0000      -0.455868       -12.4048
  55   2.0000      -0.452628       -12.3166
  56   2.0000      -0.446759       -12.1569
  57   2.0000      -0.436888       -11.8883
  58   2.0000      -0.430705       -11.7201
  59   2.0000      -0.427406       -11.6303
  60   2.0000      -0.415928       -11.3180
  61   2.0000      -0.407783       -11.0963
  62   2.0000      -0.402851       -10.9621
  63   2.0000      -0.356425        -9.6988
  64   2.0000      -0.334361        -9.0984
  65   2.0000      -0.329165        -8.9570
  66   2.0000      -0.280916        -7.6441
  67   0.0000       0.023636         0.6432
  68   0.0000       0.075355         2.0505
  69   0.0000       0.108691         2.9576
  70   0.0000       0.125018         3.4019
  71   0.0000       0.133438         3.6310

MULLIKEN ATOMIC CHARGES
-----------------------
   0 S :    0.094177
   1 C :   -0.132669
   2 C :   -0.079761
   3 C :   -0.030874
   4 C :   -0.112442
   5 H :    0.032261
   6 C :    0.092756
   7 H :    0.023171
   8 H :    0.022298
   9 C :   -0.119434
  10 H :    0.031484
  11 H :    0.044125
  12 C :   -0.012274
  13 H :    0.015188
  14 H :    0.026282
  15 H :    0.027604
  16 S :    0.102596
  17 C :   -0.088821
  18 C :   -0.065766
  19 C :   -0.038939
  20 C :   -0.123628
  21 H :    0.031792
  22 C :    0.050071
  23 H :    0.046360
  24 H :    0.005237
  25 C :   -0.071937
  26 H :    0.043475
  27 H :    0.047290
  28 C :   -0.046220
  29 H :    0.016350
  30 H :    0.030807
  31 H :    0.022247
  32 H :    0.057348
  33 H :    0.059844
Sum of atomic charges:   -0.0000000

LOEWDIN ATOMIC CHARGES
----------------------
   0 S :    0.419134
   1 C :   -0.213189
   2 C :   -0.056355
   3 C :   -0.085462
   4 C :   -0.189039
   5 H :    0.033436
   6 C :   -0.032345
   7 H :    0.035553
   8 H :    0.027845
   9 C :   -0.044193
  10 H :    0.026650
  11 H :    0.026068
  12 C :   -0.053560
  13 H :    0.014218
  14 H :    0.021810
  15 H :    0.028559
  16 S :    0.415770
  17 C :   -0.195121
  18 C :   -0.077307
  19 C :   -0.057238
  20 C :   -0.191862
  21 H :    0.036508
  22 C :   -0.039670
  23 H :    0.033556
  24 H :    0.027059
  25 C :   -0.045265
  26 H :    0.035078
  27 H :    0.029965
  28 C :   -0.071438
  29 H :    0.020675
  30 H :    0.024037
  31 H :    0.025029
  32 H :    0.033560
  33 H :    0.037534

  Mayer bond orders larger than 0.100000
B(  0-S ,  1-C ) :   1.1350 B(  0-S ,  4-C ) :   1.1529 B(  1-C ,  2-C ) :   1.5926
B(  1-C , 32-H ) :   0.9730 B(  2-C ,  3-C ) :   1.2503 B(  2-C ,  6-C ) :   1.0099
B(  3-C ,  4-C ) :   1.5822 B(  3-C ,  5-H ) :   0.9721 B(  4-C , 20-C ) :   1.0603
B(  6-C ,  7-H ) :   0.9475 B(  6-C ,  8-H ) :   0.9225 B(  6-C ,  9-C ) :   1.0785
B(  9-C , 10-H ) :   0.9577 B(  9-C , 11-H ) :   0.9441 B(  9-C , 12-C ) :   1.0945
B( 12-C , 13-H ) :   0.9724 B( 12-C , 14-H ) :   0.9732 B( 12-C , 15-H ) :   0.9756
B( 16-S , 17-C ) :   1.1618 B( 16-S , 20-C ) :   1.1362 B( 17-C , 18-C ) :   1.6026
B( 17-C , 20-C ) :   0.1056 B( 17-C , 33-H ) :   0.9613 B( 18-C , 19-C ) :   1.2731
B( 18-C , 21-H ) :   0.9820 B( 19-C , 20-C ) :   1.5513 B( 19-C , 22-C ) :   1.0267
B( 22-C , 23-H ) :   0.9352 B( 22-C , 24-H ) :   0.9398 B( 22-C , 25-C ) :   1.0505
B( 25-C , 26-H ) :   0.9619 B( 25-C , 27-H ) :   0.9489 B( 25-C , 28-C ) :   1.0784
B( 28-C , 29-H ) :   0.9756 B( 28-C , 30-H ) :   0.9747 B( 28-C , 31-H ) :   0.9743

Dispersion correction           -0.013728484
FINAL SINGLE POINT ENERGY     -1339.872375901881

DIPOLE MOMENT
-------------
                                X             Y             Z
Electronic contribution:    -11.18333      -3.48126      -1.91081
Nuclear contribution   :     11.23323       3.53230       1.88867
                        -----------------------------------------
Total Dipole Moment    :      0.04991       0.05103      -0.02215
                        -----------------------------------------
Magnitude (a.u.)       :      0.07474
Magnitude (Debye)      :      0.18997

Rotational constants in cm-1:     0.021098     0.008046     0.006287
Rotational constants in MHz :   632.492057   241.218287   188.475495

                             ****ORCA TERMINATED NORMALLY****
TOTAL RUN TIME: 0 days 0 hours 0 minutes 20 seconds 38 msec
