                         Program Version 4.2.1 -  RELEASE  -
|  1> ! wB97X-D3 SP def2-SVP
|  2> %pal
|  3> nprocs 24
|  4> end
|  5>
|  6> * xyz 0 1
|  7> S 	 -108.751 	 60.1031 	 -16.7613
|  8> C 	 -109.283 	 60.5817 	 -15.2343
|  9> C 	 -108.558 	 60.0535 	 -14.1471
| 10> C 	 -107.471 	 59.3021 	 -14.6568
| 11> C 	 -107.348 	 59.2594 	 -16.0766
| 12> H 	 -106.818 	 58.7436 	 -13.9635
| 13> C 	 -108.773 	 60.2508 	 -12.6401
| 14> H 	 -109.474 	 59.4713 	 -12.3026
| 15> H 	 -109.286 	 61.242 	 -12.6282
| 16> C 	 -107.436 	 60.3753 	 -11.8566
| 17> H 	 -106.894 	 59.3802 	 -11.7254
| 18> H 	 -106.737 	 61.0278 	 -12.3881
| 19> C 	 -107.732 	 60.945 	 -10.4973
| 20> H 	 -106.846 	 60.7758 	 -9.86649
| 21> H 	 -108.095 	 61.9606 	 -10.4568
| 22> H 	 -108.569 	 60.4429 	 -10.0021
| 23> S 	 -107.083 	 57.702 	 -18.3493
| 24> C 	 -105.463 	 57.2379 	 -18.9478
| 25> C 	 -104.564 	 57.5356 	 -17.9654
| 26> C 	 -105.058 	 58.3227 	 -16.8409
| 27> C 	 -106.403 	 58.5114 	 -16.896
| 28> H 	 -103.544 	 57.2064 	 -18.1823
| 29> C 	 -104.178 	 58.8794 	 -15.7007
| 30> H 	 -103.35 	 58.1315 	 -15.5435
| 31> H 	 -104.718 	 58.9266 	 -14.7493
| 32> C 	 -103.558 	 60.2906 	 -16.034
| 33> H 	 -104.343 	 61.0574 	 -16.15
| 34> H 	 -102.881 	 60.2165 	 -16.9442
| 35> C 	 -102.73 	 60.792 	 -14.7874
| 36> H 	 -102.357 	 61.7866 	 -14.9361
| 37> H 	 -101.901 	 60.173 	 -14.5835
| 38> H 	 -103.24 	 60.749 	 -13.7131
| 39> H 	 -110.123 	 61.3206 	 -15.0347
| 40> H 	 -105.307 	 56.5718 	 -19.8114
| 41> *
| 42>
| 43>                          ****END OF INPUT****

CARTESIAN COORDINATES (ANGSTROEM)
---------------------------------
  S    -108.751000   60.103100  -16.761300
  C    -109.283000   60.581700  -15.234300
  C    -108.558000   60.053500  -14.147100
  C    -107.471000   59.302100  -14.656800
  C    -107.348000   59.259400  -16.076600
  H    -106.818000   58.743600  -13.963500
  C    -108.773000   60.250800  -12.640100
  H    -109.474000   59.471300  -12.302600
  H    -109.286000   61.242000  -12.628200
  C    -107.436000   60.375300  -11.856600
  H    -106.894000   59.380200  -11.725400
  H    -106.737000   61.027800  -12.388100
  C    -107.732000   60.945000  -10.497300
  H    -106.846000   60.775800   -9.866490
  H    -108.095000   61.960600  -10.456800
  H    -108.569000   60.442900  -10.002100
  S    -107.083000   57.702000  -18.349300
  C    -105.463000   57.237900  -18.947800
  C    -104.564000   57.535600  -17.965400
  C    -105.058000   58.322700  -16.840900
  C    -106.403000   58.511400  -16.896000
  H    -103.544000   57.206400  -18.182300
  C    -104.178000   58.879400  -15.700700
  H    -103.350000   58.131500  -15.543500
  H    -104.718000   58.926600  -14.749300
  C    -103.558000   60.290600  -16.034000
  H    -104.343000   61.057400  -16.150000
  H    -102.881000   60.216500  -16.944200
  C    -102.730000   60.792000  -14.787400
  H    -102.357000   61.786600  -14.936100
  H    -101.901000   60.173000  -14.583500
  H    -103.240000   60.749000  -13.713100
  H    -110.123000   61.320600  -15.034700
  H    -105.307000   56.571800  -19.811400

 Total Charge           Charge          ....    0
 Multiplicity           Mult            ....    1
 Number of Electrons    NEL             ....  134
 Basis Dimension        Dim             ....  322

ORBITAL ENERGIES
----------------

  NO   OCC          E(Eh)            E(eV)
   0   2.0000     -88.972508     -2421.0650
   1   2.0000     -88.957362     -2420.6529
   2   2.0000     -10.334869      -281.2261
   3   2.0000     -10.329382      -281.0768
   4   2.0000     -10.319633      -280.8115
   5   2.0000     -10.317196      -280.7452
   6   2.0000     -10.305053      -280.4148
   7   2.0000     -10.303294      -280.3669
   8   2.0000     -10.300720      -280.2969
   9   2.0000     -10.300458      -280.2897
  10   2.0000     -10.298751      -280.2433
  11   2.0000     -10.298508      -280.2366
  12   2.0000     -10.297978      -280.2222
  13   2.0000     -10.297465      -280.2083
  14   2.0000     -10.282058      -279.7890
  15   2.0000     -10.278530      -279.6930
  16   2.0000      -8.087273      -220.0659
  17   2.0000      -8.071349      -219.6326
  18   2.0000      -6.045659      -164.5107
  19   2.0000      -6.041636      -164.4013
  20   2.0000      -6.038297      -164.3104
  21   2.0000      -6.030096      -164.0873
  22   2.0000      -6.026032      -163.9767
  23   2.0000      -6.021814      -163.8619
  24   2.0000      -1.002836       -27.2886
  25   2.0000      -0.979930       -26.6652
  26   2.0000      -0.914296       -24.8793
  27   2.0000      -0.895144       -24.3581
  28   2.0000      -0.869122       -23.6500
  29   2.0000      -0.853927       -23.2365
  30   2.0000      -0.837210       -22.7817
  31   2.0000      -0.810806       -22.0632
  32   2.0000      -0.776706       -21.1353
  33   2.0000      -0.767203       -20.8767
  34   2.0000      -0.712480       -19.3876
  35   2.0000      -0.695148       -18.9159
  36   2.0000      -0.689016       -18.7491
  37   2.0000      -0.658030       -17.9059
  38   2.0000      -0.630428       -17.1548
  39   2.0000      -0.621642       -16.9157
  40   2.0000      -0.588578       -16.0160
  41   2.0000      -0.572678       -15.5834
  42   2.0000      -0.562367       -15.3028
  43   2.0000      -0.555330       -15.1113
  44   2.0000      -0.530224       -14.4281
  45   2.0000      -0.519036       -14.1237
  46   2.0000      -0.513461       -13.9720
  47   2.0000      -0.506623       -13.7859
  48   2.0000      -0.503090       -13.6898
  49   2.0000      -0.492845       -13.4110
  50   2.0000      -0.490011       -13.3339
  51   2.0000      -0.481890       -13.1129
  52   2.0000      -0.475459       -12.9379
  53   2.0000      -0.459509       -12.5039
  54   2.0000      -0.456393       -12.4191
  55   2.0000      -0.440471       -11.9858
  56   2.0000      -0.439380       -11.9561
  57   2.0000      -0.435970       -11.8633
  58   2.0000      -0.432652       -11.7731
  59   2.0000      -0.425608       -11.5814
  60   2.0000      -0.423949       -11.5362
  61   2.0000      -0.420996       -11.4559
  62   2.0000      -0.406651       -11.0655
  63   2.0000      -0.355848        -9.6831
  64   2.0000      -0.332526        -9.0485
  65   2.0000      -0.325629        -8.8608
  66   2.0000      -0.284578        -7.7437
  67   0.0000       0.024238         0.6595
  68   0.0000       0.073062         1.9881
  69   0.0000       0.103801         2.8246
  70   0.0000       0.121817         3.3148
  71   0.0000       0.130841         3.5604

MULLIKEN ATOMIC CHARGES
-----------------------
   0 S :    0.142243
   1 C :   -0.142373
   2 C :   -0.121889
   3 C :    0.004642
   4 C :   -0.141753
   5 H :    0.024414
   6 C :    0.060689
   7 H :    0.060752
   8 H :    0.029052
   9 C :   -0.112715
  10 H :    0.047430
  11 H :    0.043957
  12 C :   -0.031771
  13 H :    0.036485
  14 H :    0.031144
  15 H :    0.020303
  16 S :    0.059689
  17 C :   -0.108225
  18 C :   -0.037374
  19 C :   -0.023473
  20 C :   -0.133643
  21 H :    0.023342
  22 C :    0.039670
  23 H :    0.032069
  24 H :    0.016697
  25 C :   -0.080685
  26 H :    0.051776
  27 H :    0.050682
  28 C :   -0.067709
  29 H :    0.035788
  30 H :    0.014379
  31 H :    0.035874
  32 H :    0.065523
  33 H :    0.075007
Sum of atomic charges:    0.0000000

LOEWDIN ATOMIC CHARGES
----------------------
   0 S :    0.440804
   1 C :   -0.231903
   2 C :   -0.074441
   3 C :   -0.062126
   4 C :   -0.198268
   5 H :    0.030399
   6 C :   -0.031849
   7 H :    0.039796
   8 H :    0.036914
   9 C :   -0.046284
  10 H :    0.031760
  11 H :    0.029070
  12 C :   -0.069978
  13 H :    0.029612
  14 H :    0.024150
  15 H :    0.025567
  16 S :    0.349074
  17 C :   -0.176666
  18 C :   -0.072849
  19 C :   -0.064921
  20 C :   -0.172039
  21 H :    0.032881
  22 C :   -0.031321
  23 H :    0.034666
  24 H :    0.026630
  25 C :   -0.035918
  26 H :    0.030631
  27 H :    0.034479
  28 C :   -0.077685
  29 H :    0.021477
  30 H :    0.013139
  31 H :    0.035919
  32 H :    0.040304
  33 H :    0.038976

  Mayer bond orders larger than 0.100000
B(  0-S ,  1-C ) :   1.1787 B(  0-S ,  4-C ) :   1.1583 B(  1-C ,  2-C ) :   1.5685
B(  1-C ,  4-C ) :   0.1076 B(  1-C , 32-H ) :   0.9523 B(  2-C ,  3-C ) :   1.3221
B(  2-C ,  6-C ) :   0.9989 B(  3-C ,  4-C ) :   1.5032 B(  3-C ,  5-H ) :   0.9759
B(  4-C , 20-C ) :   1.0722 B(  6-C ,  7-H ) :   0.9313 B(  6-C ,  8-H ) :   0.9475
B(  6-C ,  9-C ) :   1.0699 B(  9-C , 10-H ) :   0.9454 B(  9-C , 11-H ) :   0.9584
B(  9-C , 12-C ) :   1.0898 B( 12-C , 13-H ) :   0.9720 B( 12-C , 14-H ) :   0.9732
B( 12-C , 15-H ) :   0.9690 B( 16-S , 17-C ) :   1.1185 B( 16-S , 20-C ) :   1.1140
B( 17-C , 18-C ) :   1.6583 B( 17-C , 33-H ) :   0.9638 B( 18-C , 19-C ) :   1.1897
B( 18-C , 21-H ) :   0.9862 B( 19-C , 20-C ) :   1.6476 B( 19-C , 22-C ) :   1.0372
B( 22-C , 23-H ) :   0.9382 B( 22-C , 24-H ) :   0.9413 B( 22-C , 25-C ) :   1.0573
B( 25-C , 26-H ) :   0.9598 B( 25-C , 27-H ) :   0.9554 B( 25-C , 28-C ) :   1.0679
B( 28-C , 29-H ) :   0.9763 B( 28-C , 30-H ) :   0.9750 B( 28-C , 31-H ) :   0.9734

Dispersion correction           -0.013882877
FINAL SINGLE POINT ENERGY     -1339.874798439463

DIPOLE MOMENT
-------------
                                X             Y             Z
Electronic contribution:    -14.76332     -10.16004     -27.14316
Nuclear contribution   :     15.10976      10.26724      27.81404
                        -----------------------------------------
Total Dipole Moment    :      0.34644       0.10719       0.67088
                        -----------------------------------------
Magnitude (a.u.)       :      0.76263
Magnitude (Debye)      :      1.93844

Rotational constants in cm-1:     0.017312     0.009141     0.006609
Rotational constants in MHz :   518.992925   274.042833   198.144461

                             ****ORCA TERMINATED NORMALLY****
TOTAL RUN TIME: 0 days 0 hours 0 minutes 20 seconds 251 msec
