                         Program Version 4.2.1 -  RELEASE  -
|  1> ! wB97X-D3 SP def2-SVP
|  2> %pal
|  3> nprocs 24
|  4> end
|  5>
|  6> * xyz 0 1
|  7> S 	 -134.013 	 68.1245 	 -62.0373
|  8> C 	 -132.831 	 67.7305 	 -63.3277
|  9> C 	 -133.439 	 67.155 	 -64.4093
| 10> C 	 -134.877 	 67.0654 	 -64.239
| 11> C 	 -135.325 	 67.5682 	 -62.9788
| 12> H 	 -135.502 	 66.5751 	 -64.976
| 13> C 	 -132.634 	 66.6677 	 -65.6093
| 14> H 	 -131.612 	 67.1055 	 -65.5177
| 15> H 	 -133.065 	 67.0909 	 -66.5419
| 16> C 	 -132.358 	 65.2037 	 -65.7353
| 17> H 	 -133.214 	 64.7021 	 -66.0721
| 18> H 	 -131.597 	 65.1358 	 -66.4658
| 19> C 	 -131.761 	 64.5091 	 -64.5177
| 20> H 	 -132.387 	 64.4726 	 -63.5882
| 21> H 	 -131.725 	 63.454 	 -64.8154
| 22> H 	 -130.86 	 64.8753 	 -64.2216
| 23> S 	 -136.92 	 67.0862 	 -60.8492
| 24> C 	 -138.608 	 67.4626 	 -60.9768
| 25> C 	 -139.019 	 67.6271 	 -62.2511
| 26> C 	 -137.924 	 67.7148 	 -63.1587
| 27> C 	 -136.687 	 67.6286 	 -62.479
| 28> H 	 -140.048 	 67.7046 	 -62.417
| 29> C 	 -138.153 	 67.9565 	 -64.6098
| 30> H 	 -137.183 	 68.1902 	 -65.08
| 31> H 	 -138.716 	 68.8738 	 -64.8393
| 32> C 	 -138.601 	 66.7056 	 -65.3176
| 33> H 	 -139.638 	 66.653 	 -65.0331
| 34> H 	 -138.064 	 65.8166 	 -64.7814
| 35> C 	 -138.411 	 66.602 	 -66.8489
| 36> H 	 -138.948 	 67.4683 	 -67.2905
| 37> H 	 -138.87 	 65.6151 	 -67.1311
| 38> H 	 -137.325 	 66.6073 	 -67.1144
| 39> H 	 -131.787 	 67.9138 	 -63.2891
| 40> H 	 -139.304 	 67.5167 	 -60.1113
| 41> *
| 42>
| 43>                          ****END OF INPUT****

CARTESIAN COORDINATES (ANGSTROEM)
---------------------------------
  S    -134.013000   68.124500  -62.037300
  C    -132.831000   67.730500  -63.327700
  C    -133.439000   67.155000  -64.409300
  C    -134.877000   67.065400  -64.239000
  C    -135.325000   67.568200  -62.978800
  H    -135.502000   66.575100  -64.976000
  C    -132.634000   66.667700  -65.609300
  H    -131.612000   67.105500  -65.517700
  H    -133.065000   67.090900  -66.541900
  C    -132.358000   65.203700  -65.735300
  H    -133.214000   64.702100  -66.072100
  H    -131.597000   65.135800  -66.465800
  C    -131.761000   64.509100  -64.517700
  H    -132.387000   64.472600  -63.588200
  H    -131.725000   63.454000  -64.815400
  H    -130.860000   64.875300  -64.221600
  S    -136.920000   67.086200  -60.849200
  C    -138.608000   67.462600  -60.976800
  C    -139.019000   67.627100  -62.251100
  C    -137.924000   67.714800  -63.158700
  C    -136.687000   67.628600  -62.479000
  H    -140.048000   67.704600  -62.417000
  C    -138.153000   67.956500  -64.609800
  H    -137.183000   68.190200  -65.080000
  H    -138.716000   68.873800  -64.839300
  C    -138.601000   66.705600  -65.317600
  H    -139.638000   66.653000  -65.033100
  H    -138.064000   65.816600  -64.781400
  C    -138.411000   66.602000  -66.848900
  H    -138.948000   67.468300  -67.290500
  H    -138.870000   65.615100  -67.131100
  H    -137.325000   66.607300  -67.114400
  H    -131.787000   67.913800  -63.289100
  H    -139.304000   67.516700  -60.111300

 Total Charge           Charge          ....    0
 Multiplicity           Mult            ....    1
 Number of Electrons    NEL             ....  134
 Basis Dimension        Dim             ....  322

ORBITAL ENERGIES
----------------

  NO   OCC          E(Eh)            E(eV)
   0   2.0000     -88.967434     -2420.9270
   1   2.0000     -88.964314     -2420.8421
   2   2.0000     -10.332300      -281.1562
   3   2.0000     -10.326260      -280.9918
   4   2.0000     -10.313208      -280.6367
   5   2.0000     -10.311034      -280.5775
   6   2.0000     -10.304501      -280.3997
   7   2.0000     -10.300672      -280.2955
   8   2.0000     -10.298688      -280.2415
   9   2.0000     -10.294193      -280.1192
  10   2.0000     -10.292214      -280.0654
  11   2.0000     -10.290232      -280.0115
  12   2.0000     -10.286172      -279.9010
  13   2.0000     -10.285593      -279.8852
  14   2.0000     -10.276847      -279.6472
  15   2.0000     -10.270142      -279.4648
  16   2.0000      -8.082066      -219.9242
  17   2.0000      -8.079921      -219.8658
  18   2.0000      -6.040606      -164.3732
  19   2.0000      -6.038314      -164.3109
  20   2.0000      -6.036538      -164.2625
  21   2.0000      -6.034557      -164.2086
  22   2.0000      -6.032836      -164.1618
  23   2.0000      -6.030498      -164.0982
  24   2.0000      -1.009799       -27.4780
  25   2.0000      -0.983646       -26.7664
  26   2.0000      -0.919279       -25.0149
  27   2.0000      -0.913965       -24.8702
  28   2.0000      -0.873622       -23.7725
  29   2.0000      -0.849228       -23.1087
  30   2.0000      -0.843203       -22.9447
  31   2.0000      -0.812216       -22.1015
  32   2.0000      -0.788428       -21.4542
  33   2.0000      -0.774077       -21.0637
  34   2.0000      -0.710182       -19.3250
  35   2.0000      -0.695120       -18.9152
  36   2.0000      -0.689352       -18.7582
  37   2.0000      -0.658858       -17.9284
  38   2.0000      -0.633708       -17.2441
  39   2.0000      -0.622999       -16.9527
  40   2.0000      -0.599563       -16.3149
  41   2.0000      -0.574231       -15.6256
  42   2.0000      -0.564331       -15.3562
  43   2.0000      -0.559053       -15.2126
  44   2.0000      -0.545541       -14.8449
  45   2.0000      -0.524376       -14.2690
  46   2.0000      -0.522402       -14.2153
  47   2.0000      -0.511137       -13.9088
  48   2.0000      -0.504216       -13.7204
  49   2.0000      -0.496710       -13.5162
  50   2.0000      -0.488809       -13.3012
  51   2.0000      -0.483809       -13.1651
  52   2.0000      -0.473570       -12.8865
  53   2.0000      -0.464197       -12.6315
  54   2.0000      -0.460740       -12.5374
  55   2.0000      -0.452929       -12.3248
  56   2.0000      -0.444165       -12.0863
  57   2.0000      -0.433930       -11.8078
  58   2.0000      -0.431578       -11.7438
  59   2.0000      -0.423913       -11.5353
  60   2.0000      -0.418695       -11.3933
  61   2.0000      -0.415001       -11.2928
  62   2.0000      -0.406059       -11.0494
  63   2.0000      -0.351476        -9.5641
  64   2.0000      -0.332863        -9.0577
  65   2.0000      -0.327920        -8.9232
  66   2.0000      -0.285463        -7.7678
  67   0.0000       0.022254         0.6056
  68   0.0000       0.081379         2.2144
  69   0.0000       0.105887         2.8813
  70   0.0000       0.116318         3.1652
  71   0.0000       0.127676         3.4742

MULLIKEN ATOMIC CHARGES
-----------------------
   0 S :    0.110308
   1 C :   -0.116337
   2 C :   -0.084509
   3 C :    0.029037
   4 C :   -0.149555
   5 H :    0.000222
   6 C :    0.042181
   7 H :    0.013080
   8 H :    0.036627
   9 C :   -0.020627
  10 H :    0.014811
  11 H :    0.019261
  12 C :   -0.042010
  13 H :    0.043117
  14 H :    0.031480
  15 H :    0.007020
  16 S :    0.103548
  17 C :   -0.096205
  18 C :   -0.010280
  19 C :   -0.052116
  20 C :   -0.114110
  21 H :   -0.002453
  22 C :    0.078024
  23 H :    0.000505
  24 H :    0.036081
  25 C :   -0.139382
  26 H :    0.022497
  27 H :    0.049442
  28 C :   -0.045425
  29 H :    0.044064
  30 H :    0.052104
  31 H :    0.043395
  32 H :    0.032609
  33 H :    0.063596
Sum of atomic charges:    0.0000000

LOEWDIN ATOMIC CHARGES
----------------------
   0 S :    0.410426
   1 C :   -0.184019
   2 C :   -0.059824
   3 C :   -0.069845
   4 C :   -0.204579
   5 H :    0.025774
   6 C :   -0.034377
   7 H :    0.031915
   8 H :    0.034338
   9 C :   -0.034228
  10 H :    0.015317
  11 H :    0.024983
  12 C :   -0.058095
  13 H :    0.032534
  14 H :    0.032349
  15 H :    0.007325
  16 S :    0.412554
  17 C :   -0.186620
  18 C :   -0.065740
  19 C :   -0.047310
  20 C :   -0.203089
  21 H :    0.025637
  22 C :   -0.046108
  23 H :    0.026562
  24 H :    0.031434
  25 C :   -0.051487
  26 H :    0.017907
  27 H :    0.034444
  28 C :   -0.068620
  29 H :    0.030306
  30 H :    0.036786
  31 H :    0.027512
  32 H :    0.020589
  33 H :    0.035247

  Mayer bond orders larger than 0.100000
B(  0-S ,  1-C ) :   1.1179 B(  0-S ,  4-C ) :   1.1744 B(  1-C ,  2-C ) :   1.6211
B(  1-C , 32-H ) :   0.9696 B(  2-C ,  3-C ) :   1.2509 B(  2-C ,  6-C ) :   1.0246
B(  3-C ,  4-C ) :   1.5224 B(  3-C ,  5-H ) :   0.9922 B(  4-C , 20-C ) :   1.0518
B(  6-C ,  7-H ) :   0.9390 B(  6-C ,  8-H ) :   0.9389 B(  6-C ,  9-C ) :   1.0825
B(  9-C , 10-H ) :   0.9541 B(  9-C , 11-H ) :   0.9512 B(  9-C , 12-C ) :   1.0837
B( 12-C , 13-H ) :   0.9712 B( 12-C , 14-H ) :   0.9722 B( 12-C , 15-H ) :   0.9762
B( 16-S , 17-C ) :   1.1478 B( 16-S , 20-C ) :   1.1523 B( 17-C , 18-C ) :   1.6254
B( 17-C , 33-H ) :   0.9614 B( 18-C , 19-C ) :   1.2167 B( 18-C , 21-H ) :   1.0070
B( 19-C , 20-C ) :   1.5737 B( 19-C , 22-C ) :   1.0632 B( 22-C , 23-H ) :   0.9258
B( 22-C , 24-H ) :   0.9338 B( 22-C , 25-C ) :   1.0340 B( 25-C , 26-H ) :   0.9553
B( 25-C , 27-H ) :   0.9533 B( 25-C , 28-C ) :   1.0800 B( 28-C , 29-H ) :   0.9710
B( 28-C , 30-H ) :   0.9730 B( 28-C , 31-H ) :   0.9738

Dispersion correction           -0.014649040
FINAL SINGLE POINT ENERGY     -1339.870184720444

DIPOLE MOMENT
-------------
                                X             Y             Z
Electronic contribution:     -2.20416      10.98661      25.23437
Nuclear contribution   :      2.04669     -11.22207     -25.84123
                        -----------------------------------------
Total Dipole Moment    :     -0.15746      -0.23546      -0.60686
                        -----------------------------------------
Magnitude (a.u.)       :      0.66971
Magnitude (Debye)      :      1.70227

Rotational constants in cm-1:     0.017938     0.009400     0.006935
Rotational constants in MHz :   537.781217   281.807738   207.915872

                             ****ORCA TERMINATED NORMALLY****
TOTAL RUN TIME: 0 days 0 hours 0 minutes 22 seconds 135 msec
