                         Program Version 4.2.1 -  RELEASE  -
|  1> ! wB97X-D3 SP def2-SVP
|  2> %pal
|  3> nprocs 24
|  4> end
|  5>
|  6> * xyz 0 1
|  7> S 	 -141.823 	 31.0623 	 -13.5314
|  8> C 	 -140.34 	 31.9191 	 -13.9804
|  9> C 	 -139.84 	 31.3944 	 -15.1947
| 10> C 	 -140.587 	 30.221 	 -15.5985
| 11> C 	 -141.755 	 29.9866 	 -14.8811
| 12> H 	 -140.511 	 29.749 	 -16.5546
| 13> C 	 -138.648 	 31.888 	 -15.9829
| 14> H 	 -138.006 	 31.0157 	 -16.0835
| 15> H 	 -138.181 	 32.7377 	 -15.5337
| 16> C 	 -139.022 	 32.4354 	 -17.4332
| 17> H 	 -139.738 	 31.7956 	 -18.0701
| 18> H 	 -139.616 	 33.3468 	 -17.3339
| 19> C 	 -137.72 	 32.991 	 -18.2422
| 20> H 	 -137.113 	 32.1622 	 -18.4221
| 21> H 	 -137.958 	 33.5432 	 -19.0902
| 22> H 	 -137.148 	 33.7757 	 -17.7163
| 23> S 	 -144.341 	 29.5474 	 -15.3308
| 24> C 	 -144.973 	 27.8563 	 -15.4671
| 25> C 	 -143.894 	 26.9111 	 -15.5692
| 26> C 	 -142.658 	 27.602 	 -15.4178
| 27> C 	 -142.705 	 28.9487 	 -15.207
| 28> H 	 -144.196 	 25.8751 	 -15.6903
| 29> C 	 -141.368 	 26.814 	 -15.3912
| 30> H 	 -141.658 	 25.9378 	 -14.8714
| 31> H 	 -140.724 	 27.3127 	 -14.7252
| 32> C 	 -140.743 	 26.5836 	 -16.78
| 33> H 	 -140.595 	 27.5643 	 -17.2635
| 34> H 	 -141.437 	 26.0158 	 -17.27
| 35> C 	 -139.471 	 25.7278 	 -16.5898
| 36> H 	 -138.818 	 26.1649 	 -15.8245
| 37> H 	 -138.925 	 25.729 	 -17.5512
| 38> H 	 -139.759 	 24.7086 	 -16.3514
| 39> H 	 -139.853 	 32.7373 	 -13.4925
| 40> H 	 -145.974 	 27.5193 	 -15.3689
| 41> *
| 42>
| 43>                          ****END OF INPUT****

CARTESIAN COORDINATES (ANGSTROEM)
---------------------------------
  S    -141.823000   31.062300  -13.531400
  C    -140.340000   31.919100  -13.980400
  C    -139.840000   31.394400  -15.194700
  C    -140.587000   30.221000  -15.598500
  C    -141.755000   29.986600  -14.881100
  H    -140.511000   29.749000  -16.554600
  C    -138.648000   31.888000  -15.982900
  H    -138.006000   31.015700  -16.083500
  H    -138.181000   32.737700  -15.533700
  C    -139.022000   32.435400  -17.433200
  H    -139.738000   31.795600  -18.070100
  H    -139.616000   33.346800  -17.333900
  C    -137.720000   32.991000  -18.242200
  H    -137.113000   32.162200  -18.422100
  H    -137.958000   33.543200  -19.090200
  H    -137.148000   33.775700  -17.716300
  S    -144.341000   29.547400  -15.330800
  C    -144.973000   27.856300  -15.467100
  C    -143.894000   26.911100  -15.569200
  C    -142.658000   27.602000  -15.417800
  C    -142.705000   28.948700  -15.207000
  H    -144.196000   25.875100  -15.690300
  C    -141.368000   26.814000  -15.391200
  H    -141.658000   25.937800  -14.871400
  H    -140.724000   27.312700  -14.725200
  C    -140.743000   26.583600  -16.780000
  H    -140.595000   27.564300  -17.263500
  H    -141.437000   26.015800  -17.270000
  C    -139.471000   25.727800  -16.589800
  H    -138.818000   26.164900  -15.824500
  H    -138.925000   25.729000  -17.551200
  H    -139.759000   24.708600  -16.351400
  H    -139.853000   32.737300  -13.492500
  H    -145.974000   27.519300  -15.368900

 Total Charge           Charge          ....    0
 Multiplicity           Mult            ....    1
 Number of Electrons    NEL             ....  134
 Basis Dimension        Dim             ....  322

ORBITAL ENERGIES
----------------

  NO   OCC          E(Eh)            E(eV)
   0   2.0000     -88.970657     -2421.0147
   1   2.0000     -88.965014     -2420.8611
   2   2.0000     -10.330254      -281.1005
   3   2.0000     -10.323085      -280.9054
   4   2.0000     -10.322964      -280.9021
   5   2.0000     -10.318825      -280.7895
   6   2.0000     -10.307861      -280.4911
   7   2.0000     -10.302768      -280.3526
   8   2.0000     -10.301685      -280.3231
   9   2.0000     -10.300452      -280.2896
  10   2.0000     -10.299156      -280.2543
  11   2.0000     -10.292276      -280.0671
  12   2.0000     -10.281029      -279.7610
  13   2.0000     -10.279577      -279.7215
  14   2.0000     -10.277705      -279.6706
  15   2.0000     -10.275581      -279.6128
  16   2.0000      -8.084849      -219.9999
  17   2.0000      -8.078884      -219.8376
  18   2.0000      -6.043437      -164.4503
  19   2.0000      -6.039246      -164.3362
  20   2.0000      -6.037490      -164.2885
  21   2.0000      -6.035713      -164.2401
  22   2.0000      -6.033489      -164.1796
  23   2.0000      -6.029608      -164.0740
  24   2.0000      -1.005779       -27.3686
  25   2.0000      -0.978407       -26.6238
  26   2.0000      -0.910393       -24.7731
  27   2.0000      -0.902113       -24.5477
  28   2.0000      -0.866706       -23.5843
  29   2.0000      -0.848994       -23.1023
  30   2.0000      -0.842543       -22.9268
  31   2.0000      -0.813528       -22.1372
  32   2.0000      -0.781461       -21.2646
  33   2.0000      -0.768519       -20.9125
  34   2.0000      -0.709062       -19.2946
  35   2.0000      -0.703798       -19.1513
  36   2.0000      -0.698607       -19.0101
  37   2.0000      -0.669445       -18.2165
  38   2.0000      -0.642087       -17.4721
  39   2.0000      -0.619485       -16.8570
  40   2.0000      -0.586601       -15.9622
  41   2.0000      -0.572892       -15.5892
  42   2.0000      -0.568636       -15.4734
  43   2.0000      -0.559575       -15.2268
  44   2.0000      -0.530761       -14.4428
  45   2.0000      -0.523222       -14.2376
  46   2.0000      -0.520166       -14.1544
  47   2.0000      -0.511609       -13.9216
  48   2.0000      -0.503264       -13.6945
  49   2.0000      -0.499363       -13.5884
  50   2.0000      -0.493889       -13.4394
  51   2.0000      -0.476624       -12.9696
  52   2.0000      -0.467834       -12.7304
  53   2.0000      -0.466624       -12.6975
  54   2.0000      -0.458266       -12.4701
  55   2.0000      -0.447324       -12.1723
  56   2.0000      -0.443892       -12.0789
  57   2.0000      -0.435883       -11.8610
  58   2.0000      -0.433551       -11.7975
  59   2.0000      -0.429370       -11.6838
  60   2.0000      -0.427522       -11.6335
  61   2.0000      -0.410591       -11.1727
  62   2.0000      -0.408149       -11.1063
  63   2.0000      -0.342560        -9.3215
  64   2.0000      -0.331482        -9.0201
  65   2.0000      -0.327134        -8.9018
  66   2.0000      -0.292750        -7.9661
  67   0.0000       0.026320         0.7162
  68   0.0000       0.066228         1.8022
  69   0.0000       0.107463         2.9242
  70   0.0000       0.121286         3.3004
  71   0.0000       0.126479         3.4417

MULLIKEN ATOMIC CHARGES
-----------------------
   0 S :    0.131429
   1 C :   -0.108758
   2 C :   -0.101250
   3 C :    0.026389
   4 C :   -0.136666
   5 H :    0.009979
   6 C :    0.100802
   7 H :    0.043805
   8 H :    0.015740
   9 C :   -0.143659
  10 H :    0.050824
  11 H :    0.030586
  12 C :   -0.030283
  13 H :    0.030709
  14 H :    0.023650
  15 H :    0.026568
  16 S :    0.094198
  17 C :   -0.094529
  18 C :   -0.052057
  19 C :   -0.041213
  20 C :   -0.159376
  21 H :    0.031131
  22 C :    0.071435
  23 H :    0.004666
  24 H :    0.009353
  25 C :   -0.024583
  26 H :    0.032116
  27 H :    0.002170
  28 C :   -0.037393
  29 H :    0.036219
  30 H :    0.036199
  31 H :    0.033566
  32 H :    0.040893
  33 H :    0.047338
Sum of atomic charges:    0.0000000

LOEWDIN ATOMIC CHARGES
----------------------
   0 S :    0.418307
   1 C :   -0.198326
   2 C :   -0.055746
   3 C :   -0.065649
   4 C :   -0.207454
   5 H :    0.023921
   6 C :   -0.026468
   7 H :    0.035269
   8 H :    0.028270
   9 C :   -0.044758
  10 H :    0.030780
  11 H :    0.022476
  12 C :   -0.060799
  13 H :    0.015776
  14 H :    0.019428
  15 H :    0.029633
  16 S :    0.387093
  17 C :   -0.163551
  18 C :   -0.067523
  19 C :   -0.056007
  20 C :   -0.199276
  21 H :    0.037891
  22 C :   -0.025184
  23 H :    0.023659
  24 H :    0.020313
  25 C :   -0.025053
  26 H :    0.024496
  27 H :    0.011671
  28 C :   -0.061169
  29 H :    0.026129
  30 H :    0.027782
  31 H :    0.025771
  32 H :    0.027536
  33 H :    0.020763

  Mayer bond orders larger than 0.100000
B(  0-S ,  1-C ) :   1.1314 B(  0-S ,  4-C ) :   1.1559 B(  1-C ,  2-C ) :   1.5955
B(  1-C , 32-H ) :   0.9715 B(  2-C ,  3-C ) :   1.2451 B(  2-C ,  6-C ) :   1.0381
B(  3-C ,  4-C ) :   1.5590 B(  3-C ,  5-H ) :   0.9858 B(  4-C , 20-C ) :   1.0441
B(  6-C ,  7-H ) :   0.9415 B(  6-C ,  8-H ) :   0.9411 B(  6-C ,  9-C ) :   1.0401
B(  9-C , 10-H ) :   0.9628 B(  9-C , 11-H ) :   0.9594 B(  9-C , 12-C ) :   1.0630
B( 12-C , 13-H ) :   0.9826 B( 12-C , 14-H ) :   0.9767 B( 12-C , 15-H ) :   0.9750
B( 16-S , 17-C ) :   1.1537 B( 16-S , 20-C ) :   1.1207 B( 17-C , 18-C ) :   1.6104
B( 17-C , 20-C ) :   0.1070 B( 17-C , 33-H ) :   0.9700 B( 18-C , 19-C ) :   1.2165
B( 18-C , 21-H ) :   0.9944 B( 19-C , 20-C ) :   1.6244 B( 19-C , 22-C ) :   1.0363
B( 22-C , 23-H ) :   0.9339 B( 22-C , 24-H ) :   0.9303 B( 22-C , 25-C ) :   1.0591
B( 25-C , 26-H ) :   0.9543 B( 25-C , 27-H ) :   0.9509 B( 25-C , 28-C ) :   1.0835
B( 28-C , 29-H ) :   0.9760 B( 28-C , 30-H ) :   0.9746 B( 28-C , 31-H ) :   0.9749

Dispersion correction           -0.014069544
FINAL SINGLE POINT ENERGY     -1339.848578113830

DIPOLE MOMENT
-------------
                                X             Y             Z
Electronic contribution:    -23.92451       4.80485      16.37680
Nuclear contribution   :     24.35447      -5.00618     -16.69928
                        -----------------------------------------
Total Dipole Moment    :      0.42996      -0.20133      -0.32247
                        -----------------------------------------
Magnitude (a.u.)       :      0.57392
Magnitude (Debye)      :      1.45879

Rotational constants in cm-1:     0.016676     0.008783     0.006789
Rotational constants in MHz :   499.930476   263.302499   203.526747

                             ****ORCA TERMINATED NORMALLY****
TOTAL RUN TIME: 0 days 0 hours 0 minutes 20 seconds 276 msec
