                         Program Version 4.2.1 -  RELEASE  -
|  1> ! wB97X-D3 SP def2-SVP
|  2> %pal
|  3> nprocs 24
|  4> end
|  5>
|  6> * xyz 0 1
|  7> S 	 -95.7498 	 5.22432 	 -3.98117
|  8> C 	 -95.0055 	 6.77525 	 -4.36444
|  9> C 	 -95.7766 	 7.42613 	 -5.33857
| 10> C 	 -97.1325 	 6.98325 	 -5.23397
| 11> C 	 -97.2894 	 5.86934 	 -4.40885
| 12> H 	 -97.999 	 7.45818 	 -5.67287
| 13> C 	 -95.316 	 8.70073 	 -5.96565
| 14> H 	 -95.8974 	 8.9304 	 -6.78266
| 15> H 	 -94.2646 	 8.43153 	 -6.24393
| 16> C 	 -95.3196 	 9.91399 	 -5.04882
| 17> H 	 -95.1223 	 9.73956 	 -3.97229
| 18> H 	 -94.4502 	 10.6133 	 -5.25005
| 19> C 	 -96.5775 	 10.8095 	 -5.18339
| 20> H 	 -96.2697 	 11.6862 	 -5.78432
| 21> H 	 -97.469 	 10.3255 	 -5.57229
| 22> H 	 -96.8119 	 11.1516 	 -4.16624
| 23> S 	 -98.4201 	 3.36345 	 -4.50456
| 24> C 	 -100.142 	 3.19647 	 -4.17683
| 25> C 	 -100.736 	 4.41959 	 -3.96437
| 26> C 	 -99.8233 	 5.49668 	 -3.91727
| 27> C 	 -98.5047 	 5.12033 	 -4.1681
| 28> H 	 -101.775 	 4.54723 	 -3.91572
| 29> C 	 -100.362 	 6.93035 	 -3.83166
| 30> H 	 -99.6583 	 7.63608 	 -3.42686
| 31> H 	 -101.148 	 6.87956 	 -3.05071
| 32> C 	 -101.147 	 7.49981 	 -5.02042
| 33> H 	 -101.853 	 6.75641 	 -5.32795
| 34> H 	 -100.44 	 7.62926 	 -5.82337
| 35> C 	 -101.916 	 8.72752 	 -4.5807
| 36> H 	 -101.104 	 9.46469 	 -4.43573
| 37> H 	 -102.546 	 8.58095 	 -3.76953
| 38> H 	 -102.494 	 9.15379 	 -5.40624
| 39> H 	 -93.9704 	 7.00416 	 -4.17518
| 40> H 	 -100.67 	 2.29695 	 -4.21808
| 41> *
| 42>
| 43>                          ****END OF INPUT****

CARTESIAN COORDINATES (ANGSTROEM)
---------------------------------
  S    -95.749800    5.224320   -3.981170
  C    -95.005500    6.775250   -4.364440
  C    -95.776600    7.426130   -5.338570
  C    -97.132500    6.983250   -5.233970
  C    -97.289400    5.869340   -4.408850
  H    -97.999000    7.458180   -5.672870
  C    -95.316000    8.700730   -5.965650
  H    -95.897400    8.930400   -6.782660
  H    -94.264600    8.431530   -6.243930
  C    -95.319600    9.913990   -5.048820
  H    -95.122300    9.739560   -3.972290
  H    -94.450200   10.613300   -5.250050
  C    -96.577500   10.809500   -5.183390
  H    -96.269700   11.686200   -5.784320
  H    -97.469000   10.325500   -5.572290
  H    -96.811900   11.151600   -4.166240
  S    -98.420100    3.363450   -4.504560
  C    -100.142000    3.196470   -4.176830
  C    -100.736000    4.419590   -3.964370
  C    -99.823300    5.496680   -3.917270
  C    -98.504700    5.120330   -4.168100
  H    -101.775000    4.547230   -3.915720
  C    -100.362000    6.930350   -3.831660
  H    -99.658300    7.636080   -3.426860
  H    -101.148000    6.879560   -3.050710
  C    -101.147000    7.499810   -5.020420
  H    -101.853000    6.756410   -5.327950
  H    -100.440000    7.629260   -5.823370
  C    -101.916000    8.727520   -4.580700
  H    -101.104000    9.464690   -4.435730
  H    -102.546000    8.580950   -3.769530
  H    -102.494000    9.153790   -5.406240
  H    -93.970400    7.004160   -4.175180
  H    -100.670000    2.296950   -4.218080

 Total Charge           Charge          ....    0
 Multiplicity           Mult            ....    1
 Number of Electrons    NEL             ....  134
 Basis Dimension        Dim             ....  322

ORBITAL ENERGIES
----------------

  NO   OCC          E(Eh)            E(eV)
   0   2.0000     -88.964694     -2420.8524
   1   2.0000     -88.964132     -2420.8371
   2   2.0000     -10.328423      -281.0507
   3   2.0000     -10.326777      -281.0059
   4   2.0000     -10.313855      -280.6543
   5   2.0000     -10.313713      -280.6504
   6   2.0000     -10.303177      -280.3637
   7   2.0000     -10.301675      -280.3228
   8   2.0000     -10.296251      -280.1752
   9   2.0000     -10.291460      -280.0449
  10   2.0000     -10.290020      -280.0057
  11   2.0000     -10.289561      -279.9932
  12   2.0000     -10.288171      -279.9554
  13   2.0000     -10.283849      -279.8378
  14   2.0000     -10.281410      -279.7714
  15   2.0000     -10.277390      -279.6620
  16   2.0000      -8.079892      -219.8650
  17   2.0000      -8.078308      -219.8219
  18   2.0000      -6.038334      -164.3114
  19   2.0000      -6.036897      -164.2723
  20   2.0000      -6.034663      -164.2115
  21   2.0000      -6.033034      -164.1672
  22   2.0000      -6.030373      -164.0948
  23   2.0000      -6.028885      -164.0543
  24   2.0000      -1.007386       -27.4124
  25   2.0000      -0.982809       -26.7436
  26   2.0000      -0.917390       -24.9635
  27   2.0000      -0.913724       -24.8637
  28   2.0000      -0.868389       -23.6301
  29   2.0000      -0.854049       -23.2399
  30   2.0000      -0.844923       -22.9915
  31   2.0000      -0.814491       -22.1634
  32   2.0000      -0.784043       -21.3349
  33   2.0000      -0.771735       -21.0000
  34   2.0000      -0.706891       -19.2355
  35   2.0000      -0.702544       -19.1172
  36   2.0000      -0.697359       -18.9761
  37   2.0000      -0.667052       -18.1514
  38   2.0000      -0.641254       -17.4494
  39   2.0000      -0.615222       -16.7410
  40   2.0000      -0.600241       -16.3334
  41   2.0000      -0.577108       -15.7039
  42   2.0000      -0.575240       -15.6531
  43   2.0000      -0.555175       -15.1071
  44   2.0000      -0.537435       -14.6243
  45   2.0000      -0.523433       -14.2433
  46   2.0000      -0.520287       -14.1577
  47   2.0000      -0.514983       -14.0134
  48   2.0000      -0.509584       -13.8665
  49   2.0000      -0.500152       -13.6098
  50   2.0000      -0.489938       -13.3319
  51   2.0000      -0.481570       -13.1042
  52   2.0000      -0.473856       -12.8943
  53   2.0000      -0.463634       -12.6161
  54   2.0000      -0.461937       -12.5699
  55   2.0000      -0.454994       -12.3810
  56   2.0000      -0.446507       -12.1501
  57   2.0000      -0.436207       -11.8698
  58   2.0000      -0.431662       -11.7461
  59   2.0000      -0.429639       -11.6911
  60   2.0000      -0.422377       -11.4935
  61   2.0000      -0.416109       -11.3229
  62   2.0000      -0.404559       -11.0086
  63   2.0000      -0.347049        -9.4437
  64   2.0000      -0.330992        -9.0068
  65   2.0000      -0.326593        -8.8870
  66   2.0000      -0.282412        -7.6848
  67   0.0000       0.020418         0.5556
  68   0.0000       0.061075         1.6619
  69   0.0000       0.096444         2.6244
  70   0.0000       0.119638         3.2555
  71   0.0000       0.122702         3.3389

MULLIKEN ATOMIC CHARGES
-----------------------
   0 S :    0.108744
   1 C :   -0.109815
   2 C :   -0.086113
   3 C :    0.020165
   4 C :   -0.135873
   5 H :   -0.001153
   6 C :    0.103862
   7 H :    0.009045
   8 H :    0.034844
   9 C :   -0.103869
  10 H :    0.032785
  11 H :    0.029598
  12 C :   -0.063018
  13 H :    0.045131
  14 H :    0.033911
  15 H :    0.032467
  16 S :    0.085806
  17 C :   -0.060326
  18 C :   -0.021559
  19 C :   -0.014670
  20 C :   -0.134586
  21 H :    0.000177
  22 C :    0.013703
  23 H :    0.023019
  24 H :    0.010471
  25 C :   -0.037056
  26 H :    0.012685
  27 H :    0.023167
  28 C :   -0.026425
  29 H :    0.029981
  30 H :    0.030002
  31 H :    0.033198
  32 H :    0.044868
  33 H :    0.036834
Sum of atomic charges:    0.0000000

LOEWDIN ATOMIC CHARGES
----------------------
   0 S :    0.408819
   1 C :   -0.183843
   2 C :   -0.056238
   3 C :   -0.060782
   4 C :   -0.199461
   5 H :    0.026708
   6 C :   -0.029524
   7 H :    0.019959
   8 H :    0.041090
   9 C :   -0.049384
  10 H :    0.025621
  11 H :    0.029968
  12 C :   -0.069264
  13 H :    0.031011
  14 H :    0.020040
  15 H :    0.029984
  16 S :    0.379217
  17 C :   -0.167859
  18 C :   -0.061752
  19 C :   -0.060032
  20 C :   -0.180154
  21 H :    0.023149
  22 C :   -0.034983
  23 H :    0.024568
  24 H :    0.030408
  25 C :   -0.034417
  26 H :    0.017955
  27 H :    0.017994
  28 C :   -0.056394
  29 H :    0.031674
  30 H :    0.017061
  31 H :    0.029246
  32 H :    0.021522
  33 H :    0.018093

  Mayer bond orders larger than 0.100000
B(  0-S ,  1-C ) :   1.1440 B(  0-S ,  4-C ) :   1.1537 B(  1-C ,  2-C ) :   1.5755
B(  1-C ,  4-C ) :   0.1089 B(  1-C , 32-H ) :   0.9744 B(  2-C ,  3-C ) :   1.2268
B(  2-C ,  6-C ) :   1.0540 B(  3-C ,  4-C ) :   1.5473 B(  3-C ,  5-H ) :   0.9992
B(  4-C , 20-C ) :   1.0614 B(  6-C ,  7-H ) :   0.9455 B(  6-C ,  8-H ) :   0.9310
B(  6-C ,  9-C ) :   1.0514 B(  9-C , 10-H ) :   0.9667 B(  9-C , 11-H ) :   0.9611
B(  9-C , 12-C ) :   1.0609 B( 12-C , 13-H ) :   0.9817 B( 12-C , 14-H ) :   0.9802
B( 12-C , 15-H ) :   0.9778 B( 16-S , 17-C ) :   1.1429 B( 16-S , 20-C ) :   1.1263
B( 17-C , 18-C ) :   1.6050 B( 17-C , 20-C ) :   0.1009 B( 17-C , 33-H ) :   0.9754
B( 18-C , 19-C ) :   1.2404 B( 18-C , 21-H ) :   0.9971 B( 19-C , 20-C ) :   1.6101
B( 19-C , 22-C ) :   1.0480 B( 22-C , 23-H ) :   0.9381 B( 22-C , 24-H ) :   0.9317
B( 22-C , 25-C ) :   1.0603 B( 25-C , 26-H ) :   0.9472 B( 25-C , 27-H ) :   0.9540
B( 25-C , 28-C ) :   1.0809 B( 28-C , 29-H ) :   0.9753 B( 28-C , 30-H ) :   0.9754
B( 28-C , 31-H ) :   0.9713

Dispersion correction           -0.014237714
FINAL SINGLE POINT ENERGY     -1339.851548577915

DIPOLE MOMENT
-------------
                                X             Y             Z
Electronic contribution:      9.89464     -30.61322       4.29400
Nuclear contribution   :    -10.19022      31.32150      -4.56204
                        -----------------------------------------
Total Dipole Moment    :     -0.29558       0.70829      -0.26804
                        -----------------------------------------
Magnitude (a.u.)       :      0.81295
Magnitude (Debye)      :      2.06635

Rotational constants in cm-1:     0.016581     0.010176     0.006604
Rotational constants in MHz :   497.095226   305.063810   197.988925

                             ****ORCA TERMINATED NORMALLY****
TOTAL RUN TIME: 0 days 0 hours 0 minutes 22 seconds 173 msec
