                         Program Version 4.2.1 -  RELEASE  -
|  1> ! wB97X-D3 SP def2-SVP
|  2> %pal
|  3> nprocs 24
|  4> end
|  5>
|  6> * xyz 0 1
|  7> S 	 44.396 	 -18.6527 	 -111.088
|  8> C 	 44.8734 	 -18.1212 	 -109.503
|  9> C 	 45.295 	 -19.1887 	 -108.753
| 10> C 	 45.0196 	 -20.4834 	 -109.32
| 11> C 	 44.5304 	 -20.3287 	 -110.628
| 12> H 	 45.1818 	 -21.4444 	 -108.907
| 13> C 	 45.824 	 -19.0814 	 -107.302
| 14> H 	 46.1849 	 -20.0331 	 -106.9
| 15> H 	 45.0025 	 -18.7674 	 -106.637
| 16> C 	 47.0197 	 -18.1408 	 -107.049
| 17> H 	 47.9171 	 -18.3741 	 -107.657
| 18> H 	 46.82 	 -17.0484 	 -107.295
| 19> C 	 47.4586 	 -18.1825 	 -105.562
| 20> H 	 47.7452 	 -19.2083 	 -105.304
| 21> H 	 48.3103 	 -17.497 	 -105.457
| 22> H 	 46.6252 	 -17.7383 	 -104.966
| 23> S 	 45.0937 	 -21.9145 	 -112.645
| 24> C 	 43.9921 	 -23.1574 	 -113.108
| 25> C 	 42.8191 	 -23.1633 	 -112.38
| 26> C 	 42.8754 	 -22.1441 	 -111.34
| 27> C 	 44.0404 	 -21.3983 	 -111.374
| 28> H 	 41.9735 	 -23.8977 	 -112.453
| 29> C 	 41.7427 	 -21.8803 	 -110.398
| 30> H 	 40.8679 	 -21.8712 	 -111.026
| 31> H 	 41.9646 	 -20.8998 	 -109.922
| 32> C 	 41.4285 	 -22.9896 	 -109.389
| 33> H 	 42.3743 	 -23.4834 	 -109.091
| 34> H 	 40.8579 	 -23.7984 	 -109.899
| 35> C 	 40.6955 	 -22.4412 	 -108.136
| 36> H 	 39.7407 	 -21.9281 	 -108.266
| 37> H 	 41.2909 	 -21.9333 	 -107.382
| 38> H 	 40.5856 	 -23.29 	 -107.519
| 39> H 	 44.9277 	 -17.0705 	 -109.166
| 40> H 	 44.119 	 -23.6517 	 -114.055
| 41> *
| 42>
| 43>                          ****END OF INPUT****

CARTESIAN COORDINATES (ANGSTROEM)
---------------------------------
  S     44.396000  -18.652700  -111.088000
  C     44.873400  -18.121200  -109.503000
  C     45.295000  -19.188700  -108.753000
  C     45.019600  -20.483400  -109.320000
  C     44.530400  -20.328700  -110.628000
  H     45.181800  -21.444400  -108.907000
  C     45.824000  -19.081400  -107.302000
  H     46.184900  -20.033100  -106.900000
  H     45.002500  -18.767400  -106.637000
  C     47.019700  -18.140800  -107.049000
  H     47.917100  -18.374100  -107.657000
  H     46.820000  -17.048400  -107.295000
  C     47.458600  -18.182500  -105.562000
  H     47.745200  -19.208300  -105.304000
  H     48.310300  -17.497000  -105.457000
  H     46.625200  -17.738300  -104.966000
  S     45.093700  -21.914500  -112.645000
  C     43.992100  -23.157400  -113.108000
  C     42.819100  -23.163300  -112.380000
  C     42.875400  -22.144100  -111.340000
  C     44.040400  -21.398300  -111.374000
  H     41.973500  -23.897700  -112.453000
  C     41.742700  -21.880300  -110.398000
  H     40.867900  -21.871200  -111.026000
  H     41.964600  -20.899800  -109.922000
  C     41.428500  -22.989600  -109.389000
  H     42.374300  -23.483400  -109.091000
  H     40.857900  -23.798400  -109.899000
  C     40.695500  -22.441200  -108.136000
  H     39.740700  -21.928100  -108.266000
  H     41.290900  -21.933300  -107.382000
  H     40.585600  -23.290000  -107.519000
  H     44.927700  -17.070500  -109.166000
  H     44.119000  -23.651700  -114.055000

 Total Charge           Charge          ....    0
 Multiplicity           Mult            ....    1
 Number of Electrons    NEL             ....  134
 Basis Dimension        Dim             ....  322

ORBITAL ENERGIES
----------------

  NO   OCC          E(Eh)            E(eV)
   0   2.0000     -88.968196     -2420.9477
   1   2.0000     -88.959195     -2420.7028
   2   2.0000     -10.321997      -280.8758
   3   2.0000     -10.315208      -280.6911
   4   2.0000     -10.313489      -280.6443
   5   2.0000     -10.312632      -280.6210
   6   2.0000     -10.302611      -280.3483
   7   2.0000     -10.299668      -280.2682
   8   2.0000     -10.299183      -280.2550
   9   2.0000     -10.295380      -280.1515
  10   2.0000     -10.294847      -280.1370
  11   2.0000     -10.292004      -280.0597
  12   2.0000     -10.291476      -280.0453
  13   2.0000     -10.283657      -279.8325
  14   2.0000     -10.283401      -279.8256
  15   2.0000     -10.274626      -279.5868
  16   2.0000      -8.082992      -219.9494
  17   2.0000      -8.075396      -219.7427
  18   2.0000      -6.041478      -164.3970
  19   2.0000      -6.037420      -164.2865
  20   2.0000      -6.033841      -164.1892
  21   2.0000      -6.033815      -164.1884
  22   2.0000      -6.029658      -164.0753
  23   2.0000      -6.026201      -163.9813
  24   2.0000      -1.011008       -27.5109
  25   2.0000      -0.983962       -26.7750
  26   2.0000      -0.907703       -24.6999
  27   2.0000      -0.906091       -24.6560
  28   2.0000      -0.874929       -23.8080
  29   2.0000      -0.849788       -23.1239
  30   2.0000      -0.848008       -23.0755
  31   2.0000      -0.809953       -22.0399
  32   2.0000      -0.781338       -21.2613
  33   2.0000      -0.768421       -20.9098
  34   2.0000      -0.707115       -19.2416
  35   2.0000      -0.695818       -18.9342
  36   2.0000      -0.688861       -18.7449
  37   2.0000      -0.661487       -18.0000
  38   2.0000      -0.646363       -17.5884
  39   2.0000      -0.610711       -16.6183
  40   2.0000      -0.593628       -16.1534
  41   2.0000      -0.571044       -15.5389
  42   2.0000      -0.563639       -15.3374
  43   2.0000      -0.554897       -15.0995
  44   2.0000      -0.527575       -14.3561
  45   2.0000      -0.521188       -14.1822
  46   2.0000      -0.517459       -14.0808
  47   2.0000      -0.511144       -13.9089
  48   2.0000      -0.503666       -13.7055
  49   2.0000      -0.499313       -13.5870
  50   2.0000      -0.491161       -13.3652
  51   2.0000      -0.486013       -13.2251
  52   2.0000      -0.476718       -12.9721
  53   2.0000      -0.467657       -12.7256
  54   2.0000      -0.453072       -12.3287
  55   2.0000      -0.445080       -12.1112
  56   2.0000      -0.442030       -12.0282
  57   2.0000      -0.432196       -11.7607
  58   2.0000      -0.428618       -11.6633
  59   2.0000      -0.425376       -11.5751
  60   2.0000      -0.419398       -11.4124
  61   2.0000      -0.415951       -11.3186
  62   2.0000      -0.409409       -11.1406
  63   2.0000      -0.335128        -9.1193
  64   2.0000      -0.328192        -8.9306
  65   2.0000      -0.319954        -8.7064
  66   2.0000      -0.305084        -8.3018
  67   0.0000       0.043667         1.1882
  68   0.0000       0.057119         1.5543
  69   0.0000       0.114881         3.1261
  70   0.0000       0.123446         3.3591
  71   0.0000       0.128707         3.5023

MULLIKEN ATOMIC CHARGES
-----------------------
   0 S :    0.135327
   1 C :   -0.140012
   2 C :   -0.041266
   3 C :    0.054754
   4 C :   -0.178434
   5 H :    0.006211
   6 C :    0.057650
   7 H :    0.013783
   8 H :    0.040388
   9 C :   -0.132173
  10 H :    0.037016
  11 H :    0.028462
  12 C :   -0.060275
  13 H :    0.040034
  14 H :    0.037198
  15 H :    0.039187
  16 S :    0.106769
  17 C :   -0.080647
  18 C :   -0.045393
  19 C :   -0.041462
  20 C :   -0.207769
  21 H :    0.039327
  22 C :    0.096714
  23 H :    0.021138
  24 H :    0.041867
  25 C :   -0.102838
  26 H :    0.029546
  27 H :    0.032221
  28 C :   -0.027592
  29 H :    0.045769
  30 H :    0.024873
  31 H :    0.008167
  32 H :    0.062580
  33 H :    0.058879
Sum of atomic charges:   -0.0000000

LOEWDIN ATOMIC CHARGES
----------------------
   0 S :    0.421028
   1 C :   -0.205495
   2 C :   -0.064282
   3 C :   -0.043934
   4 C :   -0.212617
   5 H :    0.028964
   6 C :   -0.035836
   7 H :    0.027425
   8 H :    0.034845
   9 C :   -0.051391
  10 H :    0.024659
  11 H :    0.021715
  12 C :   -0.067133
  13 H :    0.023935
  14 H :    0.027963
  15 H :    0.028670
  16 S :    0.423494
  17 C :   -0.189316
  18 C :   -0.077758
  19 C :   -0.050127
  20 C :   -0.219966
  21 H :    0.040568
  22 C :   -0.036862
  23 H :    0.032010
  24 H :    0.036923
  25 C :   -0.039231
  26 H :    0.025093
  27 H :    0.025187
  28 C :   -0.073549
  29 H :    0.028422
  30 H :    0.030142
  31 H :    0.024411
  32 H :    0.037139
  33 H :    0.024906

  Mayer bond orders larger than 0.100000
B(  0-S ,  1-C ) :   1.1381 B(  0-S ,  4-C ) :   1.1550 B(  1-C ,  2-C ) :   1.6090
B(  1-C , 32-H ) :   0.9683 B(  2-C ,  3-C ) :   1.2310 B(  2-C ,  6-C ) :   1.0125
B(  3-C ,  4-C ) :   1.5550 B(  3-C ,  5-H ) :   1.0052 B(  4-C , 20-C ) :   1.0401
B(  6-C ,  7-H ) :   0.9492 B(  6-C ,  8-H ) :   0.9426 B(  6-C ,  9-C ) :   1.0536
B(  9-C , 10-H ) :   0.9593 B(  9-C , 11-H ) :   0.9549 B(  9-C , 12-C ) :   1.0828
B( 12-C , 13-H ) :   0.9748 B( 12-C , 14-H ) :   0.9745 B( 12-C , 15-H ) :   0.9751
B( 16-S , 17-C ) :   1.1691 B( 16-S , 20-C ) :   1.1439 B( 17-C , 18-C ) :   1.6066
B( 17-C , 33-H ) :   0.9651 B( 18-C , 19-C ) :   1.2247 B( 18-C , 21-H ) :   0.9821
B( 19-C , 20-C ) :   1.6133 B( 19-C , 22-C ) :   1.0619 B( 22-C , 23-H ) :   0.9234
B( 22-C , 24-H ) :   0.9393 B( 22-C , 25-C ) :   1.0487 B( 25-C , 26-H ) :   0.9595
B( 25-C , 27-H ) :   0.9538 B( 25-C , 28-C ) :   1.0883 B( 28-C , 29-H ) :   0.9758
B( 28-C , 30-H ) :   0.9692 B( 28-C , 31-H ) :   0.9649

Dispersion correction           -0.013900291
FINAL SINGLE POINT ENERGY     -1339.874708581268

DIPOLE MOMENT
-------------
                                X             Y             Z
Electronic contribution:      3.91365       0.38508     -27.40834
Nuclear contribution   :     -4.13022      -0.51249      27.96075
                        -----------------------------------------
Total Dipole Moment    :     -0.21656      -0.12741       0.55241
                        -----------------------------------------
Magnitude (a.u.)       :      0.60687
Magnitude (Debye)      :      1.54253

Rotational constants in cm-1:     0.018900     0.007872     0.006447
Rotational constants in MHz :   566.609184   235.987327   193.266974

                             ****ORCA TERMINATED NORMALLY****
TOTAL RUN TIME: 0 days 0 hours 0 minutes 21 seconds 116 msec
