                         Program Version 4.2.1 -  RELEASE  -
|  1> ! wB97X-D3 SP def2-SVP
|  2> %pal
|  3> nprocs 24
|  4> end
|  5>
|  6> * xyz 0 1
|  7> S 	 -32.4091 	 -4.71822 	 8.00967
|  8> C 	 -32.0798 	 -4.46101 	 9.77839
|  9> C 	 -33.1931 	 -4.83778 	 10.4684
| 10> C 	 -34.3175 	 -5.34216 	 9.68528
| 11> C 	 -34.0798 	 -5.24107 	 8.34664
| 12> H 	 -35.2439 	 -5.65457 	 10.2566
| 13> C 	 -33.2896 	 -4.7531 	 11.9503
| 14> H 	 -32.2828 	 -4.7796 	 12.3215
| 15> H 	 -33.6926 	 -5.63671 	 12.323
| 16> C 	 -33.9396 	 -3.47819 	 12.5434
| 17> H 	 -33.3399 	 -2.62057 	 12.14
| 18> H 	 -34.9268 	 -3.3586 	 12.087
| 19> C 	 -33.9899 	 -3.27176 	 14.0554
| 20> H 	 -33.0314 	 -3.11668 	 14.5317
| 21> H 	 -34.6664 	 -2.52108 	 14.4109
| 22> H 	 -34.3413 	 -4.17363 	 14.5564
| 23> S 	 -34.5513 	 -6.94584 	 6.17987
| 24> C 	 -36.0414 	 -6.73929 	 5.25849
| 25> C 	 -36.8656 	 -5.78511 	 5.84453
| 26> C 	 -36.3261 	 -5.20736 	 7.05781
| 27> C 	 -35.0048 	 -5.65484 	 7.32465
| 28> H 	 -37.8159 	 -5.54824 	 5.3859
| 29> C 	 -37.0949 	 -4.24737 	 7.88022
| 30> H 	 -36.5109 	 -3.3312 	 7.84589
| 31> H 	 -37.011 	 -4.44163 	 8.93756
| 32> C 	 -38.5744 	 -3.90714 	 7.56729
| 33> H 	 -39.1767 	 -4.7641 	 7.8225
| 34> H 	 -38.8473 	 -3.80962 	 6.54113
| 35> C 	 -38.9899 	 -2.77001 	 8.39823
| 36> H 	 -38.417 	 -1.96385 	 8.02901
| 37> H 	 -38.8337 	 -2.78212 	 9.51737
| 38> H 	 -39.9876 	 -2.38663 	 8.19115
| 39> H 	 -31.2185 	 -3.89637 	 10.1862
| 40> H 	 -36.5814 	 -7.3381 	 4.52563
| 41> *
| 42>
| 43>                          ****END OF INPUT****

CARTESIAN COORDINATES (ANGSTROEM)
---------------------------------
  S    -32.409100   -4.718220    8.009670
  C    -32.079800   -4.461010    9.778390
  C    -33.193100   -4.837780   10.468400
  C    -34.317500   -5.342160    9.685280
  C    -34.079800   -5.241070    8.346640
  H    -35.243900   -5.654570   10.256600
  C    -33.289600   -4.753100   11.950300
  H    -32.282800   -4.779600   12.321500
  H    -33.692600   -5.636710   12.323000
  C    -33.939600   -3.478190   12.543400
  H    -33.339900   -2.620570   12.140000
  H    -34.926800   -3.358600   12.087000
  C    -33.989900   -3.271760   14.055400
  H    -33.031400   -3.116680   14.531700
  H    -34.666400   -2.521080   14.410900
  H    -34.341300   -4.173630   14.556400
  S    -34.551300   -6.945840    6.179870
  C    -36.041400   -6.739290    5.258490
  C    -36.865600   -5.785110    5.844530
  C    -36.326100   -5.207360    7.057810
  C    -35.004800   -5.654840    7.324650
  H    -37.815900   -5.548240    5.385900
  C    -37.094900   -4.247370    7.880220
  H    -36.510900   -3.331200    7.845890
  H    -37.011000   -4.441630    8.937560
  C    -38.574400   -3.907140    7.567290
  H    -39.176700   -4.764100    7.822500
  H    -38.847300   -3.809620    6.541130
  C    -38.989900   -2.770010    8.398230
  H    -38.417000   -1.963850    8.029010
  H    -38.833700   -2.782120    9.517370
  H    -39.987600   -2.386630    8.191150
  H    -31.218500   -3.896370   10.186200
  H    -36.581400   -7.338100    4.525630

 Total Charge           Charge          ....    0
 Multiplicity           Mult            ....    1
 Number of Electrons    NEL             ....  134
 Basis Dimension        Dim             ....  322

ORBITAL ENERGIES
----------------

  NO   OCC          E(Eh)            E(eV)
   0   2.0000     -88.969274     -2420.9770
   1   2.0000     -88.965623     -2420.8777
   2   2.0000     -10.334813      -281.2246
   3   2.0000     -10.328633      -281.0564
   4   2.0000     -10.320644      -280.8390
   5   2.0000     -10.317774      -280.7609
   6   2.0000     -10.309084      -280.5244
   7   2.0000     -10.301708      -280.3237
   8   2.0000     -10.300445      -280.2894
   9   2.0000     -10.294288      -280.1218
  10   2.0000     -10.292271      -280.0669
  11   2.0000     -10.288541      -279.9654
  12   2.0000     -10.284258      -279.8489
  13   2.0000     -10.283176      -279.8194
  14   2.0000     -10.277853      -279.6746
  15   2.0000     -10.275767      -279.6178
  16   2.0000      -8.082567      -219.9378
  17   2.0000      -8.078987      -219.8404
  18   2.0000      -6.041255      -164.3909
  19   2.0000      -6.037850      -164.2983
  20   2.0000      -6.037243      -164.2817
  21   2.0000      -6.033758      -164.1869
  22   2.0000      -6.033243      -164.1729
  23   2.0000      -6.029353      -164.0670
  24   2.0000      -0.999669       -27.2024
  25   2.0000      -0.976182       -26.5633
  26   2.0000      -0.918843       -25.0030
  27   2.0000      -0.911547       -24.8044
  28   2.0000      -0.870970       -23.7003
  29   2.0000      -0.856407       -23.3040
  30   2.0000      -0.844301       -22.9746
  31   2.0000      -0.818016       -22.2594
  32   2.0000      -0.784342       -21.3430
  33   2.0000      -0.769877       -20.9494
  34   2.0000      -0.716196       -19.4887
  35   2.0000      -0.706801       -19.2330
  36   2.0000      -0.704321       -19.1656
  37   2.0000      -0.649314       -17.6687
  38   2.0000      -0.636118       -17.3097
  39   2.0000      -0.622683       -16.9441
  40   2.0000      -0.599502       -16.3133
  41   2.0000      -0.568691       -15.4749
  42   2.0000      -0.567592       -15.4450
  43   2.0000      -0.558094       -15.1865
  44   2.0000      -0.529084       -14.3971
  45   2.0000      -0.525300       -14.2941
  46   2.0000      -0.521086       -14.1795
  47   2.0000      -0.511706       -13.9242
  48   2.0000      -0.511374       -13.9152
  49   2.0000      -0.499212       -13.5843
  50   2.0000      -0.492707       -13.4072
  51   2.0000      -0.482780       -13.1371
  52   2.0000      -0.476189       -12.9577
  53   2.0000      -0.465396       -12.6641
  54   2.0000      -0.455113       -12.3843
  55   2.0000      -0.454608       -12.3705
  56   2.0000      -0.448537       -12.2053
  57   2.0000      -0.436145       -11.8681
  58   2.0000      -0.429144       -11.6776
  59   2.0000      -0.423162       -11.5148
  60   2.0000      -0.420083       -11.4310
  61   2.0000      -0.414283       -11.2732
  62   2.0000      -0.412840       -11.2339
  63   2.0000      -0.346703        -9.4343
  64   2.0000      -0.329213        -8.9584
  65   2.0000      -0.327141        -8.9020
  66   2.0000      -0.291910        -7.9433
  67   0.0000       0.027556         0.7498
  68   0.0000       0.060888         1.6568
  69   0.0000       0.108086         2.9412
  70   0.0000       0.118481         3.2240
  71   0.0000       0.127948         3.4816

MULLIKEN ATOMIC CHARGES
-----------------------
   0 S :    0.092665
   1 C :   -0.138554
   2 C :   -0.107614
   3 C :    0.021230
   4 C :   -0.146220
   5 H :    0.047958
   6 C :    0.102680
   7 H :    0.001543
   8 H :    0.004570
   9 C :   -0.078296
  10 H :    0.026486
  11 H :    0.021712
  12 C :   -0.019248
  13 H :    0.026733
  14 H :    0.034076
  15 H :    0.014317
  16 S :    0.117729
  17 C :   -0.066772
  18 C :   -0.081287
  19 C :    0.002142
  20 C :   -0.160580
  21 H :    0.019734
  22 C :    0.039355
  23 H :    0.028249
  24 H :    0.012851
  25 C :   -0.023702
  26 H :    0.018721
  27 H :    0.022017
  28 C :   -0.038514
  29 H :    0.009354
  30 H :    0.044063
  31 H :    0.023882
  32 H :    0.070495
  33 H :    0.058225
Sum of atomic charges:    0.0000000

LOEWDIN ATOMIC CHARGES
----------------------
   0 S :    0.361030
   1 C :   -0.181619
   2 C :   -0.060748
   3 C :   -0.064774
   4 C :   -0.180087
   5 H :    0.045833
   6 C :   -0.031837
   7 H :    0.027503
   8 H :    0.019866
   9 C :   -0.041744
  10 H :    0.028576
  11 H :    0.021205
  12 C :   -0.068579
  13 H :    0.024697
  14 H :    0.028214
  15 H :    0.023653
  16 S :    0.397050
  17 C :   -0.194310
  18 C :   -0.074191
  19 C :   -0.042230
  20 C :   -0.198696
  21 H :    0.029144
  22 C :   -0.039014
  23 H :    0.039282
  24 H :    0.031424
  25 C :   -0.039921
  26 H :    0.022236
  27 H :    0.022251
  28 C :   -0.068011
  29 H :    0.021232
  30 H :    0.034248
  31 H :    0.027437
  32 H :    0.041196
  33 H :    0.039688

  Mayer bond orders larger than 0.100000
B(  0-S ,  1-C ) :   1.0925 B(  0-S ,  4-C ) :   1.1300 B(  1-C ,  2-C ) :   1.6618
B(  1-C , 32-H ) :   0.9629 B(  2-C ,  3-C ) :   1.2062 B(  2-C ,  6-C ) :   1.0420
B(  3-C ,  4-C ) :   1.5907 B(  3-C ,  5-H ) :   0.9789 B(  4-C , 20-C ) :   1.0652
B(  6-C ,  7-H ) :   0.9335 B(  6-C ,  8-H ) :   0.9301 B(  6-C ,  9-C ) :   1.0542
B(  9-C , 10-H ) :   0.9550 B(  9-C , 11-H ) :   0.9581 B(  9-C , 12-C ) :   1.0811
B( 12-C , 13-H ) :   0.9742 B( 12-C , 14-H ) :   0.9735 B( 12-C , 15-H ) :   0.9717
B( 16-S , 17-C ) :   1.1465 B( 16-S , 20-C ) :   1.1284 B( 17-C , 18-C ) :   1.6194
B( 17-C , 20-C ) :   0.1006 B( 17-C , 33-H ) :   0.9553 B( 18-C , 19-C ) :   1.2572
B( 18-C , 21-H ) :   0.9810 B( 19-C , 20-C ) :   1.5682 B( 19-C , 22-C ) :   1.0409
B( 22-C , 23-H ) :   0.9193 B( 22-C , 24-H ) :   0.9263 B( 22-C , 25-C ) :   1.0675
B( 25-C , 26-H ) :   0.9460 B( 25-C , 27-H ) :   0.9454 B( 25-C , 28-C ) :   1.0915
B( 28-C , 29-H ) :   0.9701 B( 28-C , 30-H ) :   0.9726 B( 28-C , 31-H ) :   0.9659

Dispersion correction           -0.013554362
FINAL SINGLE POINT ENERGY     -1339.860220196389

DIPOLE MOMENT
-------------
                                X             Y             Z
Electronic contribution:     16.81273     -15.38577     -22.92223
Nuclear contribution   :    -17.44245      15.72000      23.51975
                        -----------------------------------------
Total Dipole Moment    :     -0.62972       0.33423       0.59753
                        -----------------------------------------
Magnitude (a.u.)       :      0.93021
Magnitude (Debye)      :      2.36441

Rotational constants in cm-1:     0.016501     0.008665     0.006133
Rotational constants in MHz :   494.697246   259.764811   183.849177

                             ****ORCA TERMINATED NORMALLY****
TOTAL RUN TIME: 0 days 0 hours 0 minutes 20 seconds 64 msec
