                         Program Version 4.2.1 -  RELEASE  -
|  1> ! wB97X-D3 SP def2-SVP
|  2> %pal
|  3> nprocs 24
|  4> end
|  5>
|  6> * xyz 0 1
|  7> S 	 -36.9724 	 2.98224 	 2.56788
|  8> C 	 -36.8275 	 1.65351 	 1.40804
|  9> C 	 -35.7532 	 0.870969 	 1.70232
| 10> C 	 -35.03 	 1.22116 	 2.8545
| 11> C 	 -35.608 	 2.41303 	 3.53866
| 12> H 	 -34.1466 	 0.712081 	 3.19582
| 13> C 	 -35.212 	 -0.321455 	 0.836183
| 14> H 	 -35.7725 	 -0.350262 	 -0.086157
| 15> H 	 -35.5717 	 -1.24148 	 1.27225
| 16> C 	 -33.7209 	 -0.384881 	 0.535621
| 17> H 	 -33.267 	 0.521592 	 0.220448
| 18> H 	 -33.2157 	 -0.489232 	 1.52336
| 19> C 	 -33.3392 	 -1.57701 	 -0.236562
| 20> H 	 -32.2687 	 -1.47807 	 -0.465614
| 21> H 	 -33.5811 	 -2.53287 	 0.401575
| 22> H 	 -33.8915 	 -1.72076 	 -1.19192
| 23> S 	 -36.5125 	 3.77623 	 5.69936
| 24> C 	 -35.5429 	 4.23326 	 7.08657
| 25> C 	 -34.2296 	 3.8618 	 6.81158
| 26> C 	 -34.0609 	 3.16702 	 5.5648
| 27> C 	 -35.2006 	 3.12961 	 4.76356
| 28> H 	 -33.4982 	 4.20486 	 7.53553
| 29> C 	 -32.7726 	 2.54002 	 5.15698
| 30> H 	 -32.8567 	 1.59362 	 4.53559
| 31> H 	 -32.4086 	 2.12939 	 6.0891
| 32> C 	 -31.7165 	 3.45076 	 4.49113
| 33> H 	 -31.0424 	 2.79117 	 3.87935
| 34> H 	 -31.0827 	 3.95225 	 5.26005
| 35> C 	 -32.3931 	 4.27661 	 3.3903
| 36> H 	 -32.8669 	 3.72631 	 2.62832
| 37> H 	 -31.7082 	 4.97238 	 2.89953
| 38> H 	 -33.0391 	 4.94537 	 3.94051
| 39> H 	 -37.3746 	 1.53576 	 0.477737
| 40> H 	 -35.9248 	 4.46621 	 8.04102
| 41> *
| 42>
| 43>                          ****END OF INPUT****

CARTESIAN COORDINATES (ANGSTROEM)
---------------------------------
  S    -36.972400    2.982240    2.567880
  C    -36.827500    1.653510    1.408040
  C    -35.753200    0.870969    1.702320
  C    -35.030000    1.221160    2.854500
  C    -35.608000    2.413030    3.538660
  H    -34.146600    0.712081    3.195820
  C    -35.212000   -0.321455    0.836183
  H    -35.772500   -0.350262   -0.086157
  H    -35.571700   -1.241480    1.272250
  C    -33.720900   -0.384881    0.535621
  H    -33.267000    0.521592    0.220448
  H    -33.215700   -0.489232    1.523360
  C    -33.339200   -1.577010   -0.236562
  H    -32.268700   -1.478070   -0.465614
  H    -33.581100   -2.532870    0.401575
  H    -33.891500   -1.720760   -1.191920
  S    -36.512500    3.776230    5.699360
  C    -35.542900    4.233260    7.086570
  C    -34.229600    3.861800    6.811580
  C    -34.060900    3.167020    5.564800
  C    -35.200600    3.129610    4.763560
  H    -33.498200    4.204860    7.535530
  C    -32.772600    2.540020    5.156980
  H    -32.856700    1.593620    4.535590
  H    -32.408600    2.129390    6.089100
  C    -31.716500    3.450760    4.491130
  H    -31.042400    2.791170    3.879350
  H    -31.082700    3.952250    5.260050
  C    -32.393100    4.276610    3.390300
  H    -32.866900    3.726310    2.628320
  H    -31.708200    4.972380    2.899530
  H    -33.039100    4.945370    3.940510
  H    -37.374600    1.535760    0.477737
  H    -35.924800    4.466210    8.041020

 Total Charge           Charge          ....    0
 Multiplicity           Mult            ....    1
 Number of Electrons    NEL             ....  134
 Basis Dimension        Dim             ....  322

ORBITAL ENERGIES
----------------

  NO   OCC          E(Eh)            E(eV)
   0   2.0000     -88.973054     -2421.0799
   1   2.0000     -88.962665     -2420.7972
   2   2.0000     -10.348821      -281.6057
   3   2.0000     -10.332621      -281.1649
   4   2.0000     -10.319272      -280.8017
   5   2.0000     -10.314268      -280.6655
   6   2.0000     -10.307164      -280.4722
   7   2.0000     -10.302449      -280.3439
   8   2.0000     -10.301123      -280.3078
   9   2.0000     -10.300556      -280.2924
  10   2.0000     -10.292773      -280.0806
  11   2.0000     -10.291071      -280.0343
  12   2.0000     -10.291038      -280.0334
  13   2.0000     -10.289642      -279.9954
  14   2.0000     -10.285376      -279.8793
  15   2.0000     -10.265491      -279.3382
  16   2.0000      -8.086485      -220.0445
  17   2.0000      -8.077839      -219.8092
  18   2.0000      -6.045068      -164.4947
  19   2.0000      -6.041010      -164.3842
  20   2.0000      -6.037403      -164.2861
  21   2.0000      -6.036368      -164.2579
  22   2.0000      -6.032045      -164.1403
  23   2.0000      -6.028751      -164.0507
  24   2.0000      -1.005460       -27.3599
  25   2.0000      -0.981472       -26.7072
  26   2.0000      -0.917109       -24.9558
  27   2.0000      -0.909379       -24.7455
  28   2.0000      -0.874692       -23.8016
  29   2.0000      -0.848205       -23.0808
  30   2.0000      -0.842970       -22.9384
  31   2.0000      -0.811267       -22.0757
  32   2.0000      -0.781129       -21.2556
  33   2.0000      -0.774980       -21.0883
  34   2.0000      -0.713824       -19.4241
  35   2.0000      -0.696893       -18.9634
  36   2.0000      -0.693099       -18.8602
  37   2.0000      -0.663193       -18.0464
  38   2.0000      -0.634857       -17.2753
  39   2.0000      -0.623297       -16.9608
  40   2.0000      -0.593679       -16.1548
  41   2.0000      -0.574212       -15.6251
  42   2.0000      -0.562352       -15.3024
  43   2.0000      -0.553920       -15.0729
  44   2.0000      -0.546505       -14.8712
  45   2.0000      -0.534127       -14.5343
  46   2.0000      -0.516446       -14.0532
  47   2.0000      -0.510289       -13.8857
  48   2.0000      -0.506692       -13.7878
  49   2.0000      -0.500346       -13.6151
  50   2.0000      -0.491423       -13.3723
  51   2.0000      -0.480132       -13.0651
  52   2.0000      -0.477758       -13.0005
  53   2.0000      -0.470957       -12.8154
  54   2.0000      -0.457509       -12.4494
  55   2.0000      -0.446907       -12.1610
  56   2.0000      -0.441067       -12.0020
  57   2.0000      -0.437016       -11.8918
  58   2.0000      -0.430114       -11.7040
  59   2.0000      -0.422136       -11.4869
  60   2.0000      -0.410712       -11.1760
  61   2.0000      -0.406416       -11.0592
  62   2.0000      -0.400356       -10.8942
  63   2.0000      -0.359475        -9.7818
  64   2.0000      -0.335143        -9.1197
  65   2.0000      -0.327183        -8.9031
  66   2.0000      -0.282357        -7.6833
  67   0.0000       0.013758         0.3744
  68   0.0000       0.074018         2.0141
  69   0.0000       0.106217         2.8903
  70   0.0000       0.112340         3.0569
  71   0.0000       0.129393         3.5210

MULLIKEN ATOMIC CHARGES
-----------------------
   0 S :    0.111854
   1 C :   -0.121651
   2 C :   -0.070901
   3 C :    0.019215
   4 C :   -0.140237
   5 H :    0.004559
   6 C :    0.080803
   7 H :   -0.002553
   8 H :    0.026407
   9 C :   -0.063250
  10 H :    0.024612
  11 H :    0.021681
  12 C :   -0.073822
  13 H :    0.043539
  14 H :    0.043512
  15 H :    0.036845
  16 S :    0.080175
  17 C :   -0.082079
  18 C :   -0.043228
  19 C :   -0.077842
  20 C :   -0.086367
  21 H :    0.028564
  22 C :    0.032369
  23 H :    0.030740
  24 H :    0.017438
  25 C :   -0.078764
  26 H :    0.025669
  27 H :    0.042047
  28 C :   -0.032351
  29 H :    0.036398
  30 H :    0.023356
  31 H :    0.038553
  32 H :    0.048163
  33 H :    0.056545
Sum of atomic charges:    0.0000000

LOEWDIN ATOMIC CHARGES
----------------------
   0 S :    0.407942
   1 C :   -0.202896
   2 C :   -0.064725
   3 C :   -0.067506
   4 C :   -0.179855
   5 H :    0.021149
   6 C :   -0.026802
   7 H :    0.022274
   8 H :    0.031351
   9 C :   -0.051230
  10 H :    0.021253
  11 H :    0.027443
  12 C :   -0.069371
  13 H :    0.031503
  14 H :    0.037465
  15 H :    0.024712
  16 S :    0.411654
  17 C :   -0.178742
  18 C :   -0.070760
  19 C :   -0.063898
  20 C :   -0.200516
  21 H :    0.034850
  22 C :   -0.044057
  23 H :    0.036539
  24 H :    0.029747
  25 C :   -0.042004
  26 H :    0.026787
  27 H :    0.027046
  28 C :   -0.061342
  29 H :    0.022276
  30 H :    0.025033
  31 H :    0.024987
  32 H :    0.033354
  33 H :    0.026336

  Mayer bond orders larger than 0.100000
B(  0-S ,  1-C ) :   1.1262 B(  0-S ,  4-C ) :   1.1879 B(  1-C ,  2-C ) :   1.6089
B(  1-C ,  4-C ) :   0.1136 B(  1-C , 32-H ) :   0.9612 B(  2-C ,  3-C ) :   1.2986
B(  2-C ,  6-C ) :   1.0020 B(  3-C ,  4-C ) :   1.4794 B(  3-C ,  5-H ) :   0.9898
B(  4-C , 20-C ) :   1.0627 B(  6-C ,  7-H ) :   0.9418 B(  6-C ,  8-H ) :   0.9363
B(  6-C ,  9-C ) :   1.0604 B(  9-C , 10-H ) :   0.9576 B(  9-C , 11-H ) :   0.9391
B(  9-C , 12-C ) :   1.0933 B( 12-C , 13-H ) :   0.9700 B( 12-C , 14-H ) :   0.9706
B( 12-C , 15-H ) :   0.9744 B( 16-S , 17-C ) :   1.1699 B( 16-S , 20-C ) :   1.1442
B( 17-C , 18-C ) :   1.5820 B( 17-C , 33-H ) :   0.9741 B( 18-C , 19-C ) :   1.2554
B( 18-C , 21-H ) :   0.9929 B( 19-C , 20-C ) :   1.5546 B( 19-C , 22-C ) :   1.0446
B( 22-C , 23-H ) :   0.9465 B( 22-C , 24-H ) :   0.9272 B( 22-C , 25-C ) :   1.0653
B( 25-C , 26-H ) :   0.9584 B( 25-C , 27-H ) :   0.9603 B( 25-C , 28-C ) :   1.0722
B( 28-C , 29-H ) :   0.9744 B( 28-C , 30-H ) :   0.9725 B( 28-C , 31-H ) :   0.9688

Dispersion correction           -0.014793588
FINAL SINGLE POINT ENERGY     -1339.854312793200

DIPOLE MOMENT
-------------
                                X             Y             Z
Electronic contribution:    -23.11606      13.27777      13.01918
Nuclear contribution   :     23.72486     -13.64583     -13.06154
                        -----------------------------------------
Total Dipole Moment    :      0.60881      -0.36806      -0.04236
                        -----------------------------------------
Magnitude (a.u.)       :      0.71267
Magnitude (Debye)      :      1.81147

Rotational constants in cm-1:     0.020307     0.008777     0.006826
Rotational constants in MHz :   608.800127   263.122227   204.626563

                             ****ORCA TERMINATED NORMALLY****
TOTAL RUN TIME: 0 days 0 hours 0 minutes 22 seconds 126 msec
