                         Program Version 4.2.1 -  RELEASE  -
|  1> ! wB97X-D3 SP def2-SVP
|  2> %pal
|  3> nprocs 24
|  4> end
|  5>
|  6> * xyz 0 1
|  7> S 	 -68.3388 	 8.99101 	 -74.3836
|  8> C 	 -67.9536 	 8.9815 	 -72.6531
|  9> C 	 -68.8548 	 9.69788 	 -71.8731
| 10> C 	 -69.8625 	 10.3043 	 -72.6934
| 11> C 	 -69.7007 	 10.0191 	 -74.0708
| 12> H 	 -70.6784 	 10.9147 	 -72.3231
| 13> C 	 -68.8559 	 9.72582 	 -70.353
| 14> H 	 -68.8715 	 10.7946 	 -70.1112
| 15> H 	 -67.9147 	 9.28893 	 -69.9774
| 16> C 	 -70.0808 	 9.09452 	 -69.7524
| 17> H 	 -70.0466 	 9.39067 	 -68.72
| 18> H 	 -70.8773 	 9.62298 	 -70.2292
| 19> C 	 -70.2745 	 7.56033 	 -69.985
| 20> H 	 -69.3352 	 7.00884 	 -69.8179
| 21> H 	 -71.0225 	 7.10378 	 -69.2684
| 22> H 	 -70.6091 	 7.29666 	 -70.9791
| 23> S 	 -69.5207 	 10.9743 	 -76.5628
| 24> C 	 -70.9646 	 11.5155 	 -77.3611
| 25> C 	 -72.0979 	 11.3889 	 -76.5918
| 26> C 	 -71.8015 	 10.7052 	 -75.4186
| 27> C 	 -70.4108 	 10.5631 	 -75.1943
| 28> H 	 -73.0302 	 11.5984 	 -77.0842
| 29> C 	 -72.8931 	 10.1954 	 -74.5411
| 30> H 	 -73.6842 	 10.8755 	 -74.3605
| 31> H 	 -72.5328 	 10.0252 	 -73.5762
| 32> C 	 -73.5029 	 8.88567 	 -75.0407
| 33> H 	 -72.7289 	 8.25229 	 -75.4403
| 34> H 	 -74.1008 	 9.21486 	 -75.9348
| 35> C 	 -74.298 	 8.17366 	 -73.9612
| 36> H 	 -75.0368 	 7.46345 	 -74.3061
| 37> H 	 -74.8335 	 8.83718 	 -73.2868
| 38> H 	 -73.7266 	 7.53361 	 -73.3553
| 39> H 	 -67.1935 	 8.3633 	 -72.2253
| 40> H 	 -70.8463 	 11.9113 	 -78.3716
| 41> *
| 42>
| 43>                          ****END OF INPUT****

CARTESIAN COORDINATES (ANGSTROEM)
---------------------------------
  S    -68.338800    8.991010  -74.383600
  C    -67.953600    8.981500  -72.653100
  C    -68.854800    9.697880  -71.873100
  C    -69.862500   10.304300  -72.693400
  C    -69.700700   10.019100  -74.070800
  H    -70.678400   10.914700  -72.323100
  C    -68.855900    9.725820  -70.353000
  H    -68.871500   10.794600  -70.111200
  H    -67.914700    9.288930  -69.977400
  C    -70.080800    9.094520  -69.752400
  H    -70.046600    9.390670  -68.720000
  H    -70.877300    9.622980  -70.229200
  C    -70.274500    7.560330  -69.985000
  H    -69.335200    7.008840  -69.817900
  H    -71.022500    7.103780  -69.268400
  H    -70.609100    7.296660  -70.979100
  S    -69.520700   10.974300  -76.562800
  C    -70.964600   11.515500  -77.361100
  C    -72.097900   11.388900  -76.591800
  C    -71.801500   10.705200  -75.418600
  C    -70.410800   10.563100  -75.194300
  H    -73.030200   11.598400  -77.084200
  C    -72.893100   10.195400  -74.541100
  H    -73.684200   10.875500  -74.360500
  H    -72.532800   10.025200  -73.576200
  C    -73.502900    8.885670  -75.040700
  H    -72.728900    8.252290  -75.440300
  H    -74.100800    9.214860  -75.934800
  C    -74.298000    8.173660  -73.961200
  H    -75.036800    7.463450  -74.306100
  H    -74.833500    8.837180  -73.286800
  H    -73.726600    7.533610  -73.355300
  H    -67.193500    8.363300  -72.225300
  H    -70.846300   11.911300  -78.371600

 Total Charge           Charge          ....    0
 Multiplicity           Mult            ....    1
 Number of Electrons    NEL             ....  134
 Basis Dimension        Dim             ....  322

ORBITAL ENERGIES
----------------

  NO   OCC          E(Eh)            E(eV)
   0   2.0000     -88.967787     -2420.9366
   1   2.0000     -88.966061     -2420.8896
   2   2.0000     -10.329820      -281.0887
   3   2.0000     -10.319227      -280.8004
   4   2.0000     -10.313778      -280.6522
   5   2.0000     -10.310741      -280.5695
   6   2.0000     -10.301146      -280.3084
   7   2.0000     -10.298979      -280.2495
   8   2.0000     -10.296617      -280.1852
   9   2.0000     -10.293389      -280.0974
  10   2.0000     -10.290195      -280.0105
  11   2.0000     -10.285137      -279.8728
  12   2.0000     -10.283567      -279.8301
  13   2.0000     -10.283562      -279.8299
  14   2.0000     -10.275645      -279.6145
  15   2.0000     -10.270876      -279.4847
  16   2.0000      -8.082484      -219.9356
  17   2.0000      -8.082390      -219.9330
  18   2.0000      -6.040805      -164.3787
  19   2.0000      -6.040629      -164.3739
  20   2.0000      -6.037001      -164.2752
  21   2.0000      -6.036729      -164.2677
  22   2.0000      -6.033542      -164.1810
  23   2.0000      -6.033185      -164.1713
  24   2.0000      -1.015339       -27.6288
  25   2.0000      -0.984063       -26.7777
  26   2.0000      -0.918076       -24.9821
  27   2.0000      -0.913763       -24.8647
  28   2.0000      -0.871733       -23.7211
  29   2.0000      -0.853448       -23.2235
  30   2.0000      -0.841798       -22.9065
  31   2.0000      -0.811478       -22.0814
  32   2.0000      -0.787156       -21.4196
  33   2.0000      -0.774269       -21.0689
  34   2.0000      -0.711511       -19.3612
  35   2.0000      -0.700669       -19.0662
  36   2.0000      -0.693378       -18.8678
  37   2.0000      -0.664141       -18.0722
  38   2.0000      -0.634957       -17.2781
  39   2.0000      -0.625230       -17.0134
  40   2.0000      -0.606147       -16.4941
  41   2.0000      -0.570703       -15.5296
  42   2.0000      -0.560814       -15.2605
  43   2.0000      -0.549014       -14.9394
  44   2.0000      -0.541516       -14.7354
  45   2.0000      -0.521436       -14.1890
  46   2.0000      -0.518096       -14.0981
  47   2.0000      -0.511764       -13.9258
  48   2.0000      -0.503265       -13.6945
  49   2.0000      -0.495171       -13.4743
  50   2.0000      -0.488576       -13.2948
  51   2.0000      -0.483715       -13.1626
  52   2.0000      -0.469743       -12.7824
  53   2.0000      -0.466551       -12.6955
  54   2.0000      -0.460336       -12.5264
  55   2.0000      -0.454944       -12.3797
  56   2.0000      -0.443332       -12.0637
  57   2.0000      -0.439877       -11.9697
  58   2.0000      -0.436547       -11.8790
  59   2.0000      -0.431334       -11.7372
  60   2.0000      -0.424739       -11.5577
  61   2.0000      -0.417766       -11.3680
  62   2.0000      -0.409913       -11.1543
  63   2.0000      -0.351603        -9.5676
  64   2.0000      -0.333734        -9.0814
  65   2.0000      -0.331668        -9.0251
  66   2.0000      -0.279953        -7.6179
  67   0.0000       0.025891         0.7045
  68   0.0000       0.076457         2.0805
  69   0.0000       0.105727         2.8770
  70   0.0000       0.119301         3.2463
  71   0.0000       0.133005         3.6192

MULLIKEN ATOMIC CHARGES
-----------------------
   0 S :    0.106509
   1 C :   -0.121269
   2 C :   -0.092484
   3 C :    0.017064
   4 C :   -0.156877
   5 H :    0.021510
   6 C :    0.066547
   7 H :    0.034103
   8 H :    0.020307
   9 C :   -0.042387
  10 H :    0.029630
  11 H :    0.015650
  12 C :   -0.062982
  13 H :    0.027209
  14 H :    0.041759
  15 H :    0.042155
  16 S :    0.117950
  17 C :   -0.123801
  18 C :   -0.003703
  19 C :   -0.061570
  20 C :   -0.136063
  21 H :    0.021876
  22 C :    0.123587
  23 H :    0.011546
  24 H :   -0.025077
  25 C :   -0.076047
  26 H :    0.031617
  27 H :    0.027093
  28 C :   -0.012218
  29 H :    0.022057
  30 H :    0.021658
  31 H :    0.019011
  32 H :    0.034834
  33 H :    0.060808
Sum of atomic charges:    0.0000000

LOEWDIN ATOMIC CHARGES
----------------------
   0 S :    0.400859
   1 C :   -0.196075
   2 C :   -0.058033
   3 C :   -0.068498
   4 C :   -0.190789
   5 H :    0.029104
   6 C :   -0.028579
   7 H :    0.036800
   8 H :    0.027536
   9 C :   -0.037813
  10 H :    0.024760
  11 H :    0.020450
  12 C :   -0.069158
  13 H :    0.024481
  14 H :    0.033838
  15 H :    0.026337
  16 S :    0.444972
  17 C :   -0.187659
  18 C :   -0.067507
  19 C :   -0.052856
  20 C :   -0.228604
  21 H :    0.035619
  22 C :   -0.029338
  23 H :    0.025115
  24 H :    0.015476
  25 C :   -0.034324
  26 H :    0.024587
  27 H :    0.025430
  28 C :   -0.065592
  29 H :    0.027857
  30 H :    0.024234
  31 H :    0.022183
  32 H :    0.019661
  33 H :    0.025528

  Mayer bond orders larger than 0.100000
B(  0-S ,  1-C ) :   1.1238 B(  0-S ,  4-C ) :   1.1620 B(  1-C ,  2-C ) :   1.6156
B(  1-C , 32-H ) :   0.9687 B(  2-C ,  3-C ) :   1.2417 B(  2-C ,  6-C ) :   1.0212
B(  3-C ,  4-C ) :   1.5521 B(  3-C ,  5-H ) :   0.9850 B(  4-C , 20-C ) :   1.0645
B(  6-C ,  7-H ) :   0.9325 B(  6-C ,  8-H ) :   0.9416 B(  6-C ,  9-C ) :   1.0836
B(  9-C , 10-H ) :   0.9555 B(  9-C , 11-H ) :   0.9529 B(  9-C , 12-C ) :   1.0609
B( 12-C , 13-H ) :   0.9780 B( 12-C , 14-H ) :   0.9764 B( 12-C , 15-H ) :   0.9752
B( 16-S , 17-C ) :   1.1836 B( 16-S , 20-C ) :   1.1712 B( 17-C , 18-C ) :   1.5587
B( 17-C , 20-C ) :   0.1060 B( 17-C , 33-H ) :   0.9671 B( 18-C , 19-C ) :   1.2768
B( 18-C , 21-H ) :   0.9968 B( 19-C , 20-C ) :   1.5239 B( 19-C , 22-C ) :   1.0642
B( 22-C , 23-H ) :   0.9254 B( 22-C , 24-H ) :   0.9186 B( 22-C , 25-C ) :   1.0553
B( 25-C , 26-H ) :   0.9583 B( 25-C , 27-H ) :   0.9579 B( 25-C , 28-C ) :   1.0805
B( 28-C , 29-H ) :   0.9704 B( 28-C , 30-H ) :   0.9732 B( 28-C , 31-H ) :   0.9710

Dispersion correction           -0.014595060
FINAL SINGLE POINT ENERGY     -1339.884412704109

DIPOLE MOMENT
-------------
                                X             Y             Z
Electronic contribution:     18.46064       9.89052     -20.52171
Nuclear contribution   :    -18.91114      -9.97457      20.87858
                        -----------------------------------------
Total Dipole Moment    :     -0.45050      -0.08405       0.35687
                        -----------------------------------------
Magnitude (a.u.)       :      0.58084
Magnitude (Debye)      :      1.47637

Rotational constants in cm-1:     0.018258     0.009820     0.007192
Rotational constants in MHz :   547.349306   294.401730   215.624953

                             ****ORCA TERMINATED NORMALLY****
TOTAL RUN TIME: 0 days 0 hours 0 minutes 22 seconds 361 msec
