                         Program Version 4.2.1 -  RELEASE  -
|  1> ! wB97X-D3 SP def2-SVP
|  2> %pal
|  3> nprocs 24
|  4> end
|  5>
|  6> * xyz 0 1
|  7> S 	 -42.3218 	 16.5827 	 32.1357
|  8> C 	 -41.374 	 16.7025 	 30.6771
|  9> C 	 -42.0543 	 16.3287 	 29.5173
| 10> C 	 -43.378 	 15.9511 	 29.8707
| 11> C 	 -43.7609 	 16.1805 	 31.199
| 12> H 	 -44.119 	 15.691 	 29.1113
| 13> C 	 -41.646 	 16.4944 	 28.0654
| 14> H 	 -42.0377 	 15.6401 	 27.5202
| 15> H 	 -40.5316 	 16.4064 	 27.9769
| 16> C 	 -42.0626 	 17.7983 	 27.3796
| 17> H 	 -41.8478 	 18.5689 	 28.0868
| 18> H 	 -41.597 	 17.9166 	 26.4069
| 19> C 	 -43.6173 	 17.889 	 27.1834
| 20> H 	 -44.1263 	 18.4019 	 28.0198
| 21> H 	 -43.845 	 18.4639 	 26.2711
| 22> H 	 -44.1509 	 16.9217 	 26.9888
| 23> S 	 -45.1092 	 14.9712 	 33.2369
| 24> C 	 -46.8862 	 15.0358 	 33.3641
| 25> C 	 -47.3889 	 15.7729 	 32.3589
| 26> C 	 -46.3839 	 16.3143 	 31.3672
| 27> C 	 -45.0656 	 16.0522 	 31.8444
| 28> H 	 -48.4115 	 16.0488 	 32.3281
| 29> C 	 -46.6711 	 17.2504 	 30.1944
| 30> H 	 -45.7461 	 17.4456 	 29.6965
| 31> H 	 -46.8351 	 18.2409 	 30.5001
| 32> C 	 -47.6981 	 16.7548 	 29.1539
| 33> H 	 -47.8991 	 17.5243 	 28.4165
| 34> H 	 -48.715 	 16.6704 	 29.4653
| 35> C 	 -47.3284 	 15.449 	 28.459
| 36> H 	 -46.3839 	 15.5042 	 27.9703
| 37> H 	 -47.9722 	 15.1825 	 27.5969
| 38> H 	 -47.3202 	 14.6422 	 29.1563
| 39> H 	 -40.3598 	 17.1153 	 30.6042
| 40> H 	 -47.5152 	 14.7028 	 34.1624
| 41> *
| 42>
| 43>                          ****END OF INPUT****

CARTESIAN COORDINATES (ANGSTROEM)
---------------------------------
  S    -42.321800   16.582700   32.135700
  C    -41.374000   16.702500   30.677100
  C    -42.054300   16.328700   29.517300
  C    -43.378000   15.951100   29.870700
  C    -43.760900   16.180500   31.199000
  H    -44.119000   15.691000   29.111300
  C    -41.646000   16.494400   28.065400
  H    -42.037700   15.640100   27.520200
  H    -40.531600   16.406400   27.976900
  C    -42.062600   17.798300   27.379600
  H    -41.847800   18.568900   28.086800
  H    -41.597000   17.916600   26.406900
  C    -43.617300   17.889000   27.183400
  H    -44.126300   18.401900   28.019800
  H    -43.845000   18.463900   26.271100
  H    -44.150900   16.921700   26.988800
  S    -45.109200   14.971200   33.236900
  C    -46.886200   15.035800   33.364100
  C    -47.388900   15.772900   32.358900
  C    -46.383900   16.314300   31.367200
  C    -45.065600   16.052200   31.844400
  H    -48.411500   16.048800   32.328100
  C    -46.671100   17.250400   30.194400
  H    -45.746100   17.445600   29.696500
  H    -46.835100   18.240900   30.500100
  C    -47.698100   16.754800   29.153900
  H    -47.899100   17.524300   28.416500
  H    -48.715000   16.670400   29.465300
  C    -47.328400   15.449000   28.459000
  H    -46.383900   15.504200   27.970300
  H    -47.972200   15.182500   27.596900
  H    -47.320200   14.642200   29.156300
  H    -40.359800   17.115300   30.604200
  H    -47.515200   14.702800   34.162400

 Total Charge           Charge          ....    0
 Multiplicity           Mult            ....    1
 Number of Electrons    NEL             ....  134
 Basis Dimension        Dim             ....  322

ORBITAL ENERGIES
----------------

  NO   OCC          E(Eh)            E(eV)
   0   2.0000     -88.970050     -2420.9981
   1   2.0000     -88.962086     -2420.7814
   2   2.0000     -10.333827      -281.1977
   3   2.0000     -10.333063      -281.1769
   4   2.0000     -10.317808      -280.7618
   5   2.0000     -10.316826      -280.7351
   6   2.0000     -10.316337      -280.7218
   7   2.0000     -10.302576      -280.3473
   8   2.0000     -10.297960      -280.2217
   9   2.0000     -10.296595      -280.1846
  10   2.0000     -10.295742      -280.1614
  11   2.0000     -10.291095      -280.0349
  12   2.0000     -10.289835      -280.0006
  13   2.0000     -10.285888      -279.8932
  14   2.0000     -10.284662      -279.8599
  15   2.0000     -10.272497      -279.5289
  16   2.0000      -8.084469      -219.9896
  17   2.0000      -8.076321      -219.7679
  18   2.0000      -6.042985      -164.4380
  19   2.0000      -6.039022      -164.3301
  20   2.0000      -6.035238      -164.2272
  21   2.0000      -6.035170      -164.2253
  22   2.0000      -6.030847      -164.1077
  23   2.0000      -6.026780      -163.9970
  24   2.0000      -1.001673       -27.2569
  25   2.0000      -0.977020       -26.5861
  26   2.0000      -0.912867       -24.8404
  27   2.0000      -0.907672       -24.6990
  28   2.0000      -0.869992       -23.6737
  29   2.0000      -0.847555       -23.0631
  30   2.0000      -0.839580       -22.8461
  31   2.0000      -0.815451       -22.1895
  32   2.0000      -0.785372       -21.3711
  33   2.0000      -0.773941       -21.0600
  34   2.0000      -0.712025       -19.3752
  35   2.0000      -0.704166       -19.1613
  36   2.0000      -0.698855       -19.0168
  37   2.0000      -0.654833       -17.8189
  38   2.0000      -0.635652       -17.2970
  39   2.0000      -0.618781       -16.8379
  40   2.0000      -0.598052       -16.2738
  41   2.0000      -0.579793       -15.7770
  42   2.0000      -0.557357       -15.1664
  43   2.0000      -0.549485       -14.9523
  44   2.0000      -0.540907       -14.7188
  45   2.0000      -0.535221       -14.5641
  46   2.0000      -0.516227       -14.0472
  47   2.0000      -0.510280       -13.8854
  48   2.0000      -0.500185       -13.6107
  49   2.0000      -0.493846       -13.4382
  50   2.0000      -0.492612       -13.4046
  51   2.0000      -0.480348       -13.0709
  52   2.0000      -0.468995       -12.7620
  53   2.0000      -0.462955       -12.5976
  54   2.0000      -0.459139       -12.4938
  55   2.0000      -0.444534       -12.0964
  56   2.0000      -0.443168       -12.0592
  57   2.0000      -0.438076       -11.9206
  58   2.0000      -0.434830       -11.8323
  59   2.0000      -0.429452       -11.6860
  60   2.0000      -0.422190       -11.4884
  61   2.0000      -0.418393       -11.3850
  62   2.0000      -0.410390       -11.1673
  63   2.0000      -0.352476        -9.5914
  64   2.0000      -0.333734        -9.0814
  65   2.0000      -0.323146        -8.7933
  66   2.0000      -0.290931        -7.9166
  67   0.0000       0.024384         0.6635
  68   0.0000       0.069286         1.8854
  69   0.0000       0.108083         2.9411
  70   0.0000       0.114981         3.1288
  71   0.0000       0.128085         3.4854

MULLIKEN ATOMIC CHARGES
-----------------------
   0 S :    0.120406
   1 C :   -0.118396
   2 C :   -0.108310
   3 C :    0.053230
   4 C :   -0.176725
   5 H :    0.001006
   6 C :    0.035757
   7 H :    0.029847
   8 H :    0.029819
   9 C :   -0.011855
  10 H :    0.026450
  11 H :    0.043148
  12 C :   -0.119212
  13 H :    0.059832
  14 H :    0.032479
  15 H :    0.032246
  16 S :    0.081738
  17 C :   -0.068264
  18 C :   -0.013895
  19 C :   -0.073702
  20 C :   -0.116010
  21 H :    0.011267
  22 C :    0.127098
  23 H :   -0.015682
  24 H :    0.021660
  25 C :   -0.058071
  26 H :    0.012337
  27 H :    0.015392
  28 C :   -0.042807
  29 H :    0.013211
  30 H :    0.029901
  31 H :    0.040446
  32 H :    0.051518
  33 H :    0.054141
Sum of atomic charges:   -0.0000000

LOEWDIN ATOMIC CHARGES
----------------------
   0 S :    0.409362
   1 C :   -0.199258
   2 C :   -0.068693
   3 C :   -0.055593
   4 C :   -0.198392
   5 H :    0.027948
   6 C :   -0.034020
   7 H :    0.029297
   8 H :    0.034143
   9 C :   -0.031362
  10 H :    0.026592
  11 H :    0.028187
  12 C :   -0.079395
  13 H :    0.028191
  14 H :    0.027932
  15 H :    0.023042
  16 S :    0.377981
  17 C :   -0.173683
  18 C :   -0.062927
  19 C :   -0.047550
  20 C :   -0.192493
  21 H :    0.025091
  22 C :   -0.029935
  23 H :    0.029808
  24 H :    0.030858
  25 C :   -0.043309
  26 H :    0.025384
  27 H :    0.019535
  28 C :   -0.062743
  29 H :    0.015900
  30 H :    0.031964
  31 H :    0.023923
  32 H :    0.031467
  33 H :    0.032748

  Mayer bond orders larger than 0.100000
B(  0-S ,  1-C ) :   1.1536 B(  0-S ,  4-C ) :   1.1457 B(  1-C ,  2-C ) :   1.6053
B(  1-C ,  4-C ) :   0.1024 B(  1-C , 32-H ) :   0.9598 B(  2-C ,  3-C ) :   1.2697
B(  2-C ,  6-C ) :   1.0300 B(  3-C ,  4-C ) :   1.5603 B(  3-C ,  5-H ) :   0.9797
B(  4-C , 20-C ) :   1.0315 B(  6-C ,  7-H ) :   0.9411 B(  6-C ,  8-H ) :   0.9389
B(  6-C ,  9-C ) :   1.0727 B(  9-C , 10-H ) :   0.9523 B(  9-C , 11-H ) :   0.9602
B(  9-C , 12-C ) :   1.0688 B( 12-C , 13-H ) :   0.9727 B( 12-C , 14-H ) :   0.9716
B( 12-C , 15-H ) :   0.9763 B( 16-S , 17-C ) :   1.1128 B( 16-S , 20-C ) :   1.1331
B( 17-C , 18-C ) :   1.6755 B( 17-C , 33-H ) :   0.9668 B( 18-C , 19-C ) :   1.1800
B( 18-C , 21-H ) :   0.9894 B( 19-C , 20-C ) :   1.6106 B( 19-C , 22-C ) :   1.0452
B( 22-C , 23-H ) :   0.9259 B( 22-C , 24-H ) :   0.9298 B( 22-C , 25-C ) :   1.0646
B( 25-C , 26-H ) :   0.9498 B( 25-C , 27-H ) :   0.9555 B( 25-C , 28-C ) :   1.0794
B( 28-C , 29-H ) :   0.9714 B( 28-C , 30-H ) :   0.9691 B( 28-C , 31-H ) :   0.9745

Dispersion correction           -0.016168885
FINAL SINGLE POINT ENERGY     -1339.872296997061

DIPOLE MOMENT
-------------
                                X             Y             Z
Electronic contribution:      8.57929      -7.14080      28.67410
Nuclear contribution   :     -8.88037       7.54377     -29.40969
                        -----------------------------------------
Total Dipole Moment    :     -0.30108       0.40297      -0.73559
                        -----------------------------------------
Magnitude (a.u.)       :      0.89114
Magnitude (Debye)      :      2.26509

Rotational constants in cm-1:     0.017697     0.010915     0.007277
Rotational constants in MHz :   530.534701   327.217333   218.164034

                             ****ORCA TERMINATED NORMALLY****
TOTAL RUN TIME: 0 days 0 hours 0 minutes 23 seconds 235 msec
