                         Program Version 4.2.1 -  RELEASE  -
|  1> ! wB97X-D3 SP def2-SVP
|  2> %pal
|  3> nprocs 24
|  4> end
|  5>
|  6> * xyz 0 1
|  7> S 	 24.9697 	 -6.50905 	 -110.209
|  8> C 	 25.1657 	 -7.46076 	 -111.641
|  9> C 	 24.2538 	 -7.15874 	 -112.683
| 10> C 	 23.4186 	 -6.08554 	 -112.271
| 11> C 	 23.7799 	 -5.53695 	 -111.006
| 12> H 	 22.6113 	 -5.58904 	 -112.85
| 13> C 	 24.0812 	 -7.96998 	 -113.948
| 14> H 	 23.0617 	 -8.42485 	 -113.99
| 15> H 	 24.7695 	 -8.83207 	 -113.921
| 16> C 	 24.2013 	 -7.16441 	 -115.271
| 17> H 	 23.6745 	 -6.1677 	 -115.304
| 18> H 	 25.3014 	 -6.98431 	 -115.452
| 19> C 	 23.8154 	 -8.05174 	 -116.398
| 20> H 	 22.7596 	 -8.07885 	 -116.474
| 21> H 	 24.1296 	 -7.79842 	 -117.349
| 22> H 	 24.3118 	 -9.05549 	 -116.257
| 23> S 	 24.4984 	 -2.96485 	 -110.363
| 24> C 	 23.3275 	 -1.91016 	 -109.733
| 25> C 	 22.1694 	 -2.54472 	 -109.315
| 26> C 	 22.1547 	 -3.90896 	 -109.804
| 27> C 	 23.3667 	 -4.28828 	 -110.379
| 28> H 	 21.3311 	 -2.06549 	 -108.838
| 29> C 	 20.9536 	 -4.86566 	 -109.649
| 30> H 	 20.685 	 -5.36968 	 -110.628
| 31> H 	 20.1671 	 -4.18823 	 -109.307
| 32> C 	 21.0738 	 -5.87785 	 -108.521
| 33> H 	 20.7903 	 -5.38283 	 -107.54
| 34> H 	 22.066 	 -6.05635 	 -108.405
| 35> C 	 20.4363 	 -7.25406 	 -108.712
| 36> H 	 21.11 	 -8.00397 	 -108.267
| 37> H 	 20.3512 	 -7.50089 	 -109.788
| 38> H 	 19.3632 	 -7.37962 	 -108.41
| 39> H 	 25.6871 	 -8.39882 	 -111.788
| 40> H 	 23.4601 	 -0.863028 	 -109.576
| 41> *
| 42>
| 43>                          ****END OF INPUT****

CARTESIAN COORDINATES (ANGSTROEM)
---------------------------------
  S     24.969700   -6.509050  -110.209000
  C     25.165700   -7.460760  -111.641000
  C     24.253800   -7.158740  -112.683000
  C     23.418600   -6.085540  -112.271000
  C     23.779900   -5.536950  -111.006000
  H     22.611300   -5.589040  -112.850000
  C     24.081200   -7.969980  -113.948000
  H     23.061700   -8.424850  -113.990000
  H     24.769500   -8.832070  -113.921000
  C     24.201300   -7.164410  -115.271000
  H     23.674500   -6.167700  -115.304000
  H     25.301400   -6.984310  -115.452000
  C     23.815400   -8.051740  -116.398000
  H     22.759600   -8.078850  -116.474000
  H     24.129600   -7.798420  -117.349000
  H     24.311800   -9.055490  -116.257000
  S     24.498400   -2.964850  -110.363000
  C     23.327500   -1.910160  -109.733000
  C     22.169400   -2.544720  -109.315000
  C     22.154700   -3.908960  -109.804000
  C     23.366700   -4.288280  -110.379000
  H     21.331100   -2.065490  -108.838000
  C     20.953600   -4.865660  -109.649000
  H     20.685000   -5.369680  -110.628000
  H     20.167100   -4.188230  -109.307000
  C     21.073800   -5.877850  -108.521000
  H     20.790300   -5.382830  -107.540000
  H     22.066000   -6.056350  -108.405000
  C     20.436300   -7.254060  -108.712000
  H     21.110000   -8.003970  -108.267000
  H     20.351200   -7.500890  -109.788000
  H     19.363200   -7.379620  -108.410000
  H     25.687100   -8.398820  -111.788000
  H     23.460100   -0.863028  -109.576000

 Total Charge           Charge          ....    0
 Multiplicity           Mult            ....    1
 Number of Electrons    NEL             ....  134
 Basis Dimension        Dim             ....  322

ORBITAL ENERGIES
----------------

  NO   OCC          E(Eh)            E(eV)
   0   2.0000     -88.972780     -2421.0724
   1   2.0000     -88.966001     -2420.8880
   2   2.0000     -10.329579      -281.0821
   3   2.0000     -10.321275      -280.8562
   4   2.0000     -10.313285      -280.6388
   5   2.0000     -10.312588      -280.6198
   6   2.0000     -10.304433      -280.3979
   7   2.0000     -10.303633      -280.3761
   8   2.0000     -10.300988      -280.3041
   9   2.0000     -10.300680      -280.2957
  10   2.0000     -10.294915      -280.1389
  11   2.0000     -10.292390      -280.0702
  12   2.0000     -10.292075      -280.0616
  13   2.0000     -10.279098      -279.7085
  14   2.0000     -10.274937      -279.5953
  15   2.0000     -10.270090      -279.4634
  16   2.0000      -8.087391      -220.0691
  17   2.0000      -8.081844      -219.9182
  18   2.0000      -6.045729      -164.5126
  19   2.0000      -6.041833      -164.4066
  20   2.0000      -6.040218      -164.3627
  21   2.0000      -6.038433      -164.3141
  22   2.0000      -6.036122      -164.2512
  23   2.0000      -6.032757      -164.1597
  24   2.0000      -1.008024       -27.4297
  25   2.0000      -0.985223       -26.8093
  26   2.0000      -0.915912       -24.9232
  27   2.0000      -0.906656       -24.6714
  28   2.0000      -0.870360       -23.6837
  29   2.0000      -0.851055       -23.1584
  30   2.0000      -0.848066       -23.0770
  31   2.0000      -0.810376       -22.0515
  32   2.0000      -0.782458       -21.2918
  33   2.0000      -0.768435       -20.9102
  34   2.0000      -0.705692       -19.2029
  35   2.0000      -0.692965       -18.8565
  36   2.0000      -0.687327       -18.7031
  37   2.0000      -0.663411       -18.0523
  38   2.0000      -0.638567       -17.3763
  39   2.0000      -0.616715       -16.7817
  40   2.0000      -0.594831       -16.1862
  41   2.0000      -0.573638       -15.6095
  42   2.0000      -0.567862       -15.4523
  43   2.0000      -0.557899       -15.1812
  44   2.0000      -0.527724       -14.3601
  45   2.0000      -0.524137       -14.2625
  46   2.0000      -0.508434       -13.8352
  47   2.0000      -0.506796       -13.7906
  48   2.0000      -0.503575       -13.7030
  49   2.0000      -0.496320       -13.5056
  50   2.0000      -0.489611       -13.3230
  51   2.0000      -0.479496       -13.0477
  52   2.0000      -0.474602       -12.9146
  53   2.0000      -0.462662       -12.5897
  54   2.0000      -0.457529       -12.4500
  55   2.0000      -0.452193       -12.3048
  56   2.0000      -0.441596       -12.0164
  57   2.0000      -0.438949       -11.9444
  58   2.0000      -0.430728       -11.7207
  59   2.0000      -0.427614       -11.6360
  60   2.0000      -0.426500       -11.6056
  61   2.0000      -0.413450       -11.2506
  62   2.0000      -0.402867       -10.9626
  63   2.0000      -0.339421        -9.2361
  64   2.0000      -0.329040        -8.9536
  65   2.0000      -0.326655        -8.8887
  66   2.0000      -0.296267        -8.0618
  67   0.0000       0.040399         1.0993
  68   0.0000       0.054389         1.4800
  69   0.0000       0.107401         2.9225
  70   0.0000       0.125458         3.4139
  71   0.0000       0.128974         3.5096

MULLIKEN ATOMIC CHARGES
-----------------------
   0 S :    0.142972
   1 C :   -0.098292
   2 C :   -0.095288
   3 C :    0.052900
   4 C :   -0.211430
   5 H :    0.024871
   6 C :    0.037854
   7 H :    0.041281
   8 H :    0.020976
   9 C :   -0.109376
  10 H :    0.050443
  11 H :    0.036053
  12 C :   -0.009643
  13 H :    0.023226
  14 H :    0.008461
  15 H :    0.028284
  16 S :    0.139425
  17 C :   -0.081921
  18 C :   -0.027402
  19 C :   -0.069836
  20 C :   -0.175345
  21 H :    0.018221
  22 C :    0.077699
  23 H :    0.041621
  24 H :    0.013023
  25 C :   -0.025222
  26 H :    0.028491
  27 H :   -0.005761
  28 C :   -0.070639
  29 H :    0.043535
  30 H :    0.023134
  31 H :    0.039996
  32 H :    0.038607
  33 H :    0.049081
Sum of atomic charges:   -0.0000000

LOEWDIN ATOMIC CHARGES
----------------------
   0 S :    0.437752
   1 C :   -0.215405
   2 C :   -0.063664
   3 C :   -0.059327
   4 C :   -0.209752
   5 H :    0.035514
   6 C :   -0.033991
   7 H :    0.037006
   8 H :    0.030720
   9 C :   -0.047645
  10 H :    0.031293
  11 H :    0.030508
  12 C :   -0.063465
  13 H :    0.019481
  14 H :    0.014374
  15 H :    0.033849
  16 S :    0.440190
  17 C :   -0.194417
  18 C :   -0.073681
  19 C :   -0.049568
  20 C :   -0.223371
  21 H :    0.030262
  22 C :   -0.033677
  23 H :    0.036862
  24 H :    0.029304
  25 C :   -0.044902
  26 H :    0.031588
  27 H :    0.007395
  28 C :   -0.071298
  29 H :    0.032755
  30 H :    0.026053
  31 H :    0.028143
  32 H :    0.025896
  33 H :    0.025218

  Mayer bond orders larger than 0.100000
B(  0-S ,  1-C ) :   1.1524 B(  0-S ,  4-C ) :   1.1800 B(  1-C ,  2-C ) :   1.5903
B(  1-C ,  4-C ) :   0.1088 B(  1-C , 32-H ) :   0.9580 B(  2-C ,  3-C ) :   1.2690
B(  2-C ,  6-C ) :   1.0257 B(  3-C ,  4-C ) :   1.5516 B(  3-C ,  5-H ) :   0.9852
B(  4-C , 20-C ) :   1.0172 B(  6-C ,  7-H ) :   0.9461 B(  6-C ,  8-H ) :   0.9362
B(  6-C ,  9-C ) :   1.0466 B(  9-C , 10-H ) :   0.9606 B(  9-C , 11-H ) :   0.9536
B(  9-C , 12-C ) :   1.0867 B( 12-C , 13-H ) :   0.9728 B( 12-C , 14-H ) :   0.9707
B( 12-C , 15-H ) :   0.9661 B( 16-S , 17-C ) :   1.1869 B( 16-S , 20-C ) :   1.1459
B( 17-C , 18-C ) :   1.5856 B( 17-C , 33-H ) :   0.9678 B( 18-C , 19-C ) :   1.2646
B( 18-C , 21-H ) :   0.9863 B( 19-C , 20-C ) :   1.5922 B( 19-C , 22-C ) :   1.0471
B( 22-C , 23-H ) :   0.9383 B( 22-C , 24-H ) :   0.9281 B( 22-C , 25-C ) :   1.0634
B( 25-C , 26-H ) :   0.9482 B( 25-C , 27-H ) :   0.9618 B( 25-C , 28-C ) :   1.0718
B( 28-C , 29-H ) :   0.9784 B( 28-C , 30-H ) :   0.9752 B( 28-C , 31-H ) :   0.9762

Dispersion correction           -0.014154320
FINAL SINGLE POINT ENERGY     -1339.863892104661

DIPOLE MOMENT
-------------
                                X             Y             Z
Electronic contribution:     14.62979      15.61871      12.54444
Nuclear contribution   :    -15.01755     -15.76682     -12.86721
                        -----------------------------------------
Total Dipole Moment    :     -0.38777      -0.14811      -0.32277
                        -----------------------------------------
Magnitude (a.u.)       :      0.52581
Magnitude (Debye)      :      1.33651

Rotational constants in cm-1:     0.018436     0.008070     0.007056
Rotational constants in MHz :   552.684513   241.938716   211.536997

                             ****ORCA TERMINATED NORMALLY****
TOTAL RUN TIME: 0 days 0 hours 0 minutes 21 seconds 432 msec
