                         Program Version 4.2.1 -  RELEASE  -
|  1> ! wB97X-D3 SP def2-SVP
|  2> %pal
|  3> nprocs 24
|  4> end
|  5>
|  6> * xyz 0 1
|  7> S 	 -99.2162 	 2.66648 	 -104.723
|  8> C 	 -98.8981 	 1.85936 	 -106.223
|  9> C 	 -99.6425 	 0.732969 	 -106.388
| 10> C 	 -100.688 	 0.639181 	 -105.418
| 11> C 	 -100.714 	 1.78234 	 -104.576
| 12> H 	 -101.382 	 -0.107839 	 -105.353
| 13> C 	 -99.5035 	 -0.243441 	 -107.6
| 14> H 	 -98.671 	 0.156233 	 -108.251
| 15> H 	 -100.425 	 -0.204009 	 -108.177
| 16> C 	 -99.2381 	 -1.66147 	 -107.016
| 17> H 	 -98.2203 	 -1.83728 	 -106.546
| 18> H 	 -99.8915 	 -1.88298 	 -106.229
| 19> C 	 -99.2663 	 -2.63373 	 -108.194
| 20> H 	 -100.193 	 -2.61758 	 -108.817
| 21> H 	 -98.513 	 -2.34039 	 -108.919
| 22> H 	 -99.1582 	 -3.65174 	 -107.896
| 23> S 	 -101.113 	 2.53432 	 -101.926
| 24> C 	 -102.722 	 2.80701 	 -101.423
| 25> C 	 -103.684 	 2.42586 	 -102.286
| 26> C 	 -103.056 	 1.86987 	 -103.473
| 27> C 	 -101.602 	 1.92239 	 -103.433
| 28> H 	 -104.668 	 2.62213 	 -102.159
| 29> C 	 -103.883 	 1.39607 	 -104.651
| 30> H 	 -103.197 	 1.42945 	 -105.573
| 31> H 	 -104.775 	 2.06482 	 -104.845
| 32> C 	 -104.548 	 0.0102336 	 -104.526
| 33> H 	 -105.284 	 0.080845 	 -103.729
| 34> H 	 -103.808 	 -0.682878 	 -104.157
| 35> C 	 -105.289 	 -0.422837 	 -105.78
| 36> H 	 -105.689 	 -1.39274 	 -105.782
| 37> H 	 -104.56 	 -0.369131 	 -106.584
| 38> H 	 -106.166 	 0.211679 	 -105.879
| 39> H 	 -97.9933 	 1.87493 	 -106.856
| 40> H 	 -102.949 	 3.10966 	 -100.445
| 41> *
| 42>
| 43>                          ****END OF INPUT****

CARTESIAN COORDINATES (ANGSTROEM)
---------------------------------
  S    -99.216200    2.666480  -104.723000
  C    -98.898100    1.859360  -106.223000
  C    -99.642500    0.732969  -106.388000
  C    -100.688000    0.639181  -105.418000
  C    -100.714000    1.782340  -104.576000
  H    -101.382000   -0.107839  -105.353000
  C    -99.503500   -0.243441  -107.600000
  H    -98.671000    0.156233  -108.251000
  H    -100.425000   -0.204009  -108.177000
  C    -99.238100   -1.661470  -107.016000
  H    -98.220300   -1.837280  -106.546000
  H    -99.891500   -1.882980  -106.229000
  C    -99.266300   -2.633730  -108.194000
  H    -100.193000   -2.617580  -108.817000
  H    -98.513000   -2.340390  -108.919000
  H    -99.158200   -3.651740  -107.896000
  S    -101.113000    2.534320  -101.926000
  C    -102.722000    2.807010  -101.423000
  C    -103.684000    2.425860  -102.286000
  C    -103.056000    1.869870  -103.473000
  C    -101.602000    1.922390  -103.433000
  H    -104.668000    2.622130  -102.159000
  C    -103.883000    1.396070  -104.651000
  H    -103.197000    1.429450  -105.573000
  H    -104.775000    2.064820  -104.845000
  C    -104.548000    0.010234  -104.526000
  H    -105.284000    0.080845  -103.729000
  H    -103.808000   -0.682878  -104.157000
  C    -105.289000   -0.422837  -105.780000
  H    -105.689000   -1.392740  -105.782000
  H    -104.560000   -0.369131  -106.584000
  H    -106.166000    0.211679  -105.879000
  H    -97.993300    1.874930  -106.856000
  H    -102.949000    3.109660  -100.445000

 Total Charge           Charge          ....    0
 Multiplicity           Mult            ....    1
 Number of Electrons    NEL             ....  134
 Basis Dimension        Dim             ....  322

ORBITAL ENERGIES
----------------

  NO   OCC          E(Eh)            E(eV)
   0   2.0000     -88.969277     -2420.9771
   1   2.0000     -88.967873     -2420.9389
   2   2.0000     -10.333263      -281.1824
   3   2.0000     -10.327945      -281.0377
   4   2.0000     -10.309129      -280.5257
   5   2.0000     -10.307940      -280.4933
   6   2.0000     -10.307461      -280.4803
   7   2.0000     -10.303709      -280.3782
   8   2.0000     -10.297208      -280.2013
   9   2.0000     -10.295992      -280.1682
  10   2.0000     -10.291466      -280.0450
  11   2.0000     -10.290967      -280.0315
  12   2.0000     -10.287182      -279.9285
  13   2.0000     -10.282071      -279.7894
  14   2.0000     -10.276726      -279.6439
  15   2.0000     -10.273944      -279.5682
  16   2.0000      -8.084233      -219.9832
  17   2.0000      -8.084148      -219.9809
  18   2.0000      -6.042689      -164.4299
  19   2.0000      -6.042592      -164.4273
  20   2.0000      -6.038929      -164.3276
  21   2.0000      -6.038412      -164.3136
  22   2.0000      -6.035169      -164.2253
  23   2.0000      -6.034590      -164.2095
  24   2.0000      -1.011610       -27.5273
  25   2.0000      -0.989648       -26.9297
  26   2.0000      -0.911016       -24.7900
  27   2.0000      -0.908616       -24.7247
  28   2.0000      -0.874889       -23.8069
  29   2.0000      -0.854746       -23.2588
  30   2.0000      -0.848213       -23.0810
  31   2.0000      -0.816511       -22.2184
  32   2.0000      -0.780683       -21.2435
  33   2.0000      -0.767408       -20.8822
  34   2.0000      -0.712510       -19.3884
  35   2.0000      -0.699087       -19.0231
  36   2.0000      -0.692749       -18.8507
  37   2.0000      -0.665935       -18.1210
  38   2.0000      -0.637800       -17.3554
  39   2.0000      -0.622502       -16.9391
  40   2.0000      -0.598573       -16.2880
  41   2.0000      -0.575623       -15.6635
  42   2.0000      -0.569181       -15.4882
  43   2.0000      -0.558522       -15.1982
  44   2.0000      -0.532291       -14.4844
  45   2.0000      -0.524264       -14.2660
  46   2.0000      -0.522579       -14.2201
  47   2.0000      -0.512109       -13.9352
  48   2.0000      -0.500776       -13.6268
  49   2.0000      -0.496114       -13.5000
  50   2.0000      -0.489973       -13.3328
  51   2.0000      -0.475753       -12.9459
  52   2.0000      -0.473502       -12.8846
  53   2.0000      -0.469752       -12.7826
  54   2.0000      -0.462793       -12.5932
  55   2.0000      -0.458479       -12.4758
  56   2.0000      -0.449432       -12.2297
  57   2.0000      -0.445539       -12.1237
  58   2.0000      -0.429856       -11.6970
  59   2.0000      -0.423546       -11.5253
  60   2.0000      -0.421045       -11.4572
  61   2.0000      -0.414267       -11.2728
  62   2.0000      -0.410868       -11.1803
  63   2.0000      -0.356344        -9.6966
  64   2.0000      -0.331630        -9.0241
  65   2.0000      -0.329411        -8.9637
  66   2.0000      -0.282170        -7.6782
  67   0.0000       0.022071         0.6006
  68   0.0000       0.077696         2.1142
  69   0.0000       0.110032         2.9941
  70   0.0000       0.118675         3.2293
  71   0.0000       0.127576         3.4715

MULLIKEN ATOMIC CHARGES
-----------------------
   0 S :    0.111892
   1 C :   -0.100397
   2 C :   -0.102894
   3 C :    0.038725
   4 C :   -0.125236
   5 H :   -0.023665
   6 C :    0.047382
   7 H :    0.032218
   8 H :    0.045718
   9 C :   -0.083067
  10 H :    0.042304
  11 H :    0.023993
  12 C :   -0.033089
  13 H :    0.022557
  14 H :    0.025620
  15 H :    0.028988
  16 S :    0.115494
  17 C :   -0.068810
  18 C :    0.036783
  19 C :   -0.058561
  20 C :   -0.133193
  21 H :   -0.018954
  22 C :   -0.019887
  23 H :    0.041862
  24 H :    0.028673
  25 C :   -0.073258
  26 H :    0.015236
  27 H :    0.023126
  28 C :    0.000959
  29 H :    0.022649
  30 H :    0.025244
  31 H :    0.027719
  32 H :    0.047708
  33 H :    0.036160
Sum of atomic charges:   -0.0000000

LOEWDIN ATOMIC CHARGES
----------------------
   0 S :    0.412934
   1 C :   -0.217314
   2 C :   -0.063623
   3 C :   -0.050457
   4 C :   -0.184096
   5 H :    0.010711
   6 C :   -0.021655
   7 H :    0.034183
   8 H :    0.032472
   9 C :   -0.038535
  10 H :    0.037528
  11 H :    0.014695
  12 C :   -0.068728
  13 H :    0.024524
  14 H :    0.025516
  15 H :    0.019576
  16 S :    0.442130
  17 C :   -0.183976
  18 C :   -0.053200
  19 C :   -0.045202
  20 C :   -0.225922
  21 H :    0.017117
  22 C :   -0.047301
  23 H :    0.034039
  24 H :    0.032883
  25 C :   -0.043222
  26 H :    0.019337
  27 H :    0.016276
  28 C :   -0.056878
  29 H :    0.020737
  30 H :    0.024757
  31 H :    0.027936
  32 H :    0.035036
  33 H :    0.017723

  Mayer bond orders larger than 0.100000
B(  0-S ,  1-C ) :   1.1259 B(  0-S ,  4-C ) :   1.1562 B(  1-C ,  2-C ) :   1.6451
B(  1-C , 32-H ) :   0.9513 B(  2-C ,  3-C ) :   1.2430 B(  2-C ,  6-C ) :   1.0105
B(  3-C ,  4-C ) :   1.5108 B(  3-C ,  5-H ) :   1.0126 B(  4-C , 20-C ) :   1.0944
B(  6-C ,  7-H ) :   0.9446 B(  6-C ,  8-H ) :   0.9519 B(  6-C ,  9-C ) :   1.0413
B(  9-C , 10-H ) :   0.9528 B(  9-C , 11-H ) :   0.9660 B(  9-C , 12-C ) :   1.0804
B( 12-C , 13-H ) :   0.9751 B( 12-C , 14-H ) :   0.9713 B( 12-C , 15-H ) :   0.9743
B( 16-S , 17-C ) :   1.1732 B( 16-S , 20-C ) :   1.1480 B( 17-C , 18-C ) :   1.5860
B( 17-C , 33-H ) :   0.9671 B( 18-C , 19-C ) :   1.2658 B( 18-C , 21-H ) :   1.0121
B( 19-C , 20-C ) :   1.5226 B( 19-C , 22-C ) :   1.0604 B( 22-C , 23-H ) :   0.9290
B( 22-C , 24-H ) :   0.9381 B( 22-C , 25-C ) :   1.0521 B( 25-C , 26-H ) :   0.9534
B( 25-C , 27-H ) :   0.9540 B( 25-C , 28-C ) :   1.0824 B( 28-C , 29-H ) :   0.9722
B( 28-C , 30-H ) :   0.9753 B( 28-C , 31-H ) :   0.9721

Dispersion correction           -0.013847820
FINAL SINGLE POINT ENERGY     -1339.856759454585

DIPOLE MOMENT
-------------
                                X             Y             Z
Electronic contribution:     11.51645      22.41358      20.38899
Nuclear contribution   :    -11.86808     -22.89718     -20.61874
                        -----------------------------------------
Total Dipole Moment    :     -0.35163      -0.48360      -0.22974
                        -----------------------------------------
Magnitude (a.u.)       :      0.64054
Magnitude (Debye)      :      1.62813

Rotational constants in cm-1:     0.016956     0.009234     0.006487
Rotational constants in MHz :   508.331997   276.832006   194.462829

                             ****ORCA TERMINATED NORMALLY****
TOTAL RUN TIME: 0 days 0 hours 0 minutes 22 seconds 773 msec
