                         Program Version 4.2.1 -  RELEASE  -
|  1> ! wB97X-D3 SP def2-SVP
|  2> %pal
|  3> nprocs 24
|  4> end
|  5>
|  6> * xyz 0 1
|  7> S 	 -106.178 	 49.3997 	 -81.0395
|  8> C 	 -104.702 	 49.9564 	 -80.5572
|  9> C 	 -103.867 	 50.1119 	 -81.6636
| 10> C 	 -104.414 	 49.5068 	 -82.8873
| 11> C 	 -105.646 	 49.015 	 -82.6656
| 12> H 	 -103.861 	 49.5154 	 -83.8483
| 13> C 	 -102.596 	 50.7664 	 -81.5915
| 14> H 	 -101.837 	 50.1361 	 -81.1262
| 15> H 	 -102.626 	 51.5947 	 -80.9163
| 16> C 	 -102.038 	 51.3666 	 -82.9263
| 17> H 	 -101.044 	 51.823 	 -82.7439
| 18> H 	 -101.924 	 50.5695 	 -83.6523
| 19> C 	 -102.771 	 52.6002 	 -83.4282
| 20> H 	 -102.781 	 53.5363 	 -82.8461
| 21> H 	 -102.434 	 52.8941 	 -84.4079
| 22> H 	 -103.84 	 52.4281 	 -83.4535
| 23> S 	 -108.064 	 49.2753 	 -83.9197
| 24> C 	 -108.567 	 47.8906 	 -84.9328
| 25> C 	 -107.576 	 47.013 	 -85.1989
| 26> C 	 -106.334 	 47.361 	 -84.521
| 27> C 	 -106.558 	 48.4526 	 -83.6765
| 28> H 	 -107.755 	 46.1127 	 -85.8303
| 29> C 	 -105.033 	 46.4819 	 -84.5337
| 30> H 	 -104.166 	 47.1083 	 -84.1893
| 31> H 	 -104.696 	 46.2347 	 -85.5479
| 32> C 	 -105.12 	 45.1065 	 -83.8542
| 33> H 	 -104.351 	 44.5277 	 -84.35
| 34> H 	 -105.977 	 44.5293 	 -84.1937
| 35> C 	 -104.993 	 45.0998 	 -82.3405
| 36> H 	 -105.836 	 45.6224 	 -81.9505
| 37> H 	 -104.135 	 45.809 	 -82.0635
| 38> H 	 -104.969 	 44.1277 	 -81.9109
| 39> H 	 -104.57 	 50.4314 	 -79.6651
| 40> H 	 -109.505 	 47.7827 	 -85.3776
| 41> *
| 42>
| 43>                          ****END OF INPUT****

CARTESIAN COORDINATES (ANGSTROEM)
---------------------------------
  S    -106.178000   49.399700  -81.039500
  C    -104.702000   49.956400  -80.557200
  C    -103.867000   50.111900  -81.663600
  C    -104.414000   49.506800  -82.887300
  C    -105.646000   49.015000  -82.665600
  H    -103.861000   49.515400  -83.848300
  C    -102.596000   50.766400  -81.591500
  H    -101.837000   50.136100  -81.126200
  H    -102.626000   51.594700  -80.916300
  C    -102.038000   51.366600  -82.926300
  H    -101.044000   51.823000  -82.743900
  H    -101.924000   50.569500  -83.652300
  C    -102.771000   52.600200  -83.428200
  H    -102.781000   53.536300  -82.846100
  H    -102.434000   52.894100  -84.407900
  H    -103.840000   52.428100  -83.453500
  S    -108.064000   49.275300  -83.919700
  C    -108.567000   47.890600  -84.932800
  C    -107.576000   47.013000  -85.198900
  C    -106.334000   47.361000  -84.521000
  C    -106.558000   48.452600  -83.676500
  H    -107.755000   46.112700  -85.830300
  C    -105.033000   46.481900  -84.533700
  H    -104.166000   47.108300  -84.189300
  H    -104.696000   46.234700  -85.547900
  C    -105.120000   45.106500  -83.854200
  H    -104.351000   44.527700  -84.350000
  H    -105.977000   44.529300  -84.193700
  C    -104.993000   45.099800  -82.340500
  H    -105.836000   45.622400  -81.950500
  H    -104.135000   45.809000  -82.063500
  H    -104.969000   44.127700  -81.910900
  H    -104.570000   50.431400  -79.665100
  H    -109.505000   47.782700  -85.377600

 Total Charge           Charge          ....    0
 Multiplicity           Mult            ....    1
 Number of Electrons    NEL             ....  134
 Basis Dimension        Dim             ....  322

ORBITAL ENERGIES
----------------

  NO   OCC          E(Eh)            E(eV)
   0   2.0000     -88.966618     -2420.9048
   1   2.0000     -88.961494     -2420.7653
   2   2.0000     -10.326167      -280.9893
   3   2.0000     -10.324523      -280.9445
   4   2.0000     -10.310288      -280.5572
   5   2.0000     -10.308091      -280.4974
   6   2.0000     -10.299785      -280.2714
   7   2.0000     -10.298401      -280.2337
   8   2.0000     -10.297205      -280.2012
   9   2.0000     -10.297103      -280.1984
  10   2.0000     -10.295773      -280.1622
  11   2.0000     -10.290916      -280.0300
  12   2.0000     -10.283103      -279.8175
  13   2.0000     -10.281036      -279.7612
  14   2.0000     -10.273781      -279.5638
  15   2.0000     -10.269679      -279.4522
  16   2.0000      -8.081176      -219.9000
  17   2.0000      -8.078296      -219.8216
  18   2.0000      -6.039703      -164.3487
  19   2.0000      -6.036626      -164.2649
  20   2.0000      -6.035999      -164.2479
  21   2.0000      -6.032453      -164.1514
  22   2.0000      -6.031639      -164.1292
  23   2.0000      -6.029170      -164.0621
  24   2.0000      -1.012913       -27.5628
  25   2.0000      -0.986312       -26.8389
  26   2.0000      -0.915471       -24.9112
  27   2.0000      -0.902185       -24.5497
  28   2.0000      -0.875828       -23.8325
  29   2.0000      -0.850417       -23.1410
  30   2.0000      -0.843033       -22.9401
  31   2.0000      -0.822043       -22.3689
  32   2.0000      -0.781811       -21.2742
  33   2.0000      -0.770164       -20.9572
  34   2.0000      -0.711860       -19.3707
  35   2.0000      -0.695052       -18.9133
  36   2.0000      -0.693360       -18.8673
  37   2.0000      -0.652412       -17.7530
  38   2.0000      -0.645165       -17.5558
  39   2.0000      -0.629364       -17.1259
  40   2.0000      -0.595950       -16.2166
  41   2.0000      -0.566133       -15.4053
  42   2.0000      -0.556201       -15.1350
  43   2.0000      -0.550154       -14.9705
  44   2.0000      -0.536322       -14.5941
  45   2.0000      -0.530252       -14.4289
  46   2.0000      -0.517859       -14.0917
  47   2.0000      -0.511701       -13.9241
  48   2.0000      -0.505249       -13.7485
  49   2.0000      -0.499010       -13.5787
  50   2.0000      -0.493095       -13.4178
  51   2.0000      -0.481289       -13.0965
  52   2.0000      -0.472534       -12.8583
  53   2.0000      -0.463041       -12.6000
  54   2.0000      -0.461525       -12.5587
  55   2.0000      -0.449954       -12.2439
  56   2.0000      -0.444346       -12.0913
  57   2.0000      -0.439679       -11.9643
  58   2.0000      -0.432760       -11.7760
  59   2.0000      -0.421892       -11.4803
  60   2.0000      -0.416455       -11.3323
  61   2.0000      -0.407532       -11.0895
  62   2.0000      -0.404706       -11.0126
  63   2.0000      -0.353399        -9.6165
  64   2.0000      -0.333110        -9.0644
  65   2.0000      -0.318853        -8.6764
  66   2.0000      -0.291668        -7.9367
  67   0.0000       0.036235         0.9860
  68   0.0000       0.070196         1.9101
  69   0.0000       0.107689         2.9304
  70   0.0000       0.123371         3.3571
  71   0.0000       0.131669         3.5829

MULLIKEN ATOMIC CHARGES
-----------------------
   0 S :    0.119097
   1 C :   -0.060741
   2 C :   -0.124697
   3 C :    0.030571
   4 C :   -0.151529
   5 H :    0.037942
   6 C :    0.067070
   7 H :    0.041358
   8 H :    0.006581
   9 C :   -0.088322
  10 H :    0.032104
  11 H :    0.034306
  12 C :   -0.054646
  13 H :    0.028662
  14 H :    0.030897
  15 H :    0.024496
  16 S :    0.113460
  17 C :   -0.065993
  18 C :   -0.042276
  19 C :   -0.021065
  20 C :   -0.170131
  21 H :    0.037158
  22 C :    0.043060
  23 H :    0.022589
  24 H :    0.022130
  25 C :   -0.065997
  26 H :    0.011710
  27 H :    0.015676
  28 C :   -0.013296
  29 H :    0.024922
  30 H :    0.034501
  31 H :    0.035137
  32 H :    0.016782
  33 H :    0.028483
Sum of atomic charges:   -0.0000000

LOEWDIN ATOMIC CHARGES
----------------------
   0 S :    0.444416
   1 C :   -0.214965
   2 C :   -0.063301
   3 C :   -0.065271
   4 C :   -0.197925
   5 H :    0.040019
   6 C :   -0.041556
   7 H :    0.037937
   8 H :    0.027884
   9 C :   -0.039952
  10 H :    0.032124
  11 H :    0.019813
  12 C :   -0.073499
  13 H :    0.029407
  14 H :    0.025259
  15 H :    0.021489
  16 S :    0.391035
  17 C :   -0.167261
  18 C :   -0.067034
  19 C :   -0.056568
  20 C :   -0.197323
  21 H :    0.041109
  22 C :   -0.034437
  23 H :    0.033631
  24 H :    0.032972
  25 C :   -0.045519
  26 H :    0.020024
  27 H :    0.022233
  28 C :   -0.063677
  29 H :    0.023480
  30 H :    0.036186
  31 H :    0.022174
  32 H :    0.010879
  33 H :    0.016218

  Mayer bond orders larger than 0.100000
B(  0-S ,  1-C ) :   1.1621 B(  0-S ,  4-C ) :   1.1657 B(  1-C ,  2-C ) :   1.5778
B(  1-C , 32-H ) :   0.9822 B(  2-C ,  3-C ) :   1.2416 B(  2-C ,  6-C ) :   1.0493
B(  3-C ,  4-C ) :   1.5699 B(  3-C ,  5-H ) :   0.9826 B(  4-C , 20-C ) :   1.0172
B(  6-C ,  7-H ) :   0.9255 B(  6-C ,  8-H ) :   0.9317 B(  6-C ,  9-C ) :   1.0846
B(  9-C , 10-H ) :   0.9540 B(  9-C , 11-H ) :   0.9530 B(  9-C , 12-C ) :   1.0695
B( 12-C , 13-H ) :   0.9723 B( 12-C , 14-H ) :   0.9737 B( 12-C , 15-H ) :   0.9758
B( 16-S , 17-C ) :   1.1100 B( 16-S , 20-C ) :   1.1513 B( 17-C , 18-C ) :   1.6792
B( 17-C , 33-H ) :   0.9716 B( 18-C , 19-C ) :   1.1965 B( 18-C , 21-H ) :   0.9800
B( 19-C , 20-C ) :   1.6236 B( 19-C , 22-C ) :   1.0417 B( 22-C , 23-H ) :   0.9347
B( 22-C , 24-H ) :   0.9356 B( 22-C , 25-C ) :   1.0764 B( 25-C , 26-H ) :   0.9520
B( 25-C , 27-H ) :   0.9502 B( 25-C , 28-C ) :   1.0742 B( 28-C , 29-H ) :   0.9735
B( 28-C , 30-H ) :   0.9723 B( 28-C , 31-H ) :   0.9733

Dispersion correction           -0.015195913
FINAL SINGLE POINT ENERGY     -1339.862531670319

DIPOLE MOMENT
-------------
                                X             Y             Z
Electronic contribution:    -20.89007       3.45698       3.36076
Nuclear contribution   :     21.35495      -3.50075      -3.57633
                        -----------------------------------------
Total Dipole Moment    :      0.46488      -0.04376      -0.21557
                        -----------------------------------------
Magnitude (a.u.)       :      0.51429
Magnitude (Debye)      :      1.30723

Rotational constants in cm-1:     0.018682     0.009066     0.008139
Rotational constants in MHz :   560.063326   271.798831   243.992893

                             ****ORCA TERMINATED NORMALLY****
TOTAL RUN TIME: 0 days 0 hours 0 minutes 22 seconds 270 msec
