                         Program Version 4.2.1 -  RELEASE  -
|  1> ! wB97X-D3 SP def2-SVP
|  2> %pal
|  3> nprocs 24
|  4> end
|  5>
|  6> * xyz 0 1
|  7> S 	 -111.436 	 58.1752 	 -18.3054
|  8> C 	 -112.047 	 59.8685 	 -17.8884
|  9> C 	 -111.392 	 60.8212 	 -18.5987
| 10> C 	 -110.614 	 60.2124 	 -19.6359
| 11> C 	 -110.439 	 58.8472 	 -19.5583
| 12> H 	 -110.137 	 60.7745 	 -20.4518
| 13> C 	 -111.474 	 62.2813 	 -18.282
| 14> H 	 -111.99 	 62.4128 	 -17.2816
| 15> H 	 -112.095 	 62.877 	 -18.9844
| 16> C 	 -110.174 	 62.9707 	 -18.1788
| 17> H 	 -109.477 	 62.418 	 -17.5081
| 18> H 	 -109.658 	 63.0373 	 -19.194
| 19> C 	 -110.135 	 64.4391 	 -17.6795
| 20> H 	 -110.489 	 64.469 	 -16.6432
| 21> H 	 -109.125 	 64.767 	 -17.6057
| 22> H 	 -110.673 	 65.2335 	 -18.2128
| 23> S 	 -110.426 	 56.4544 	 -20.969
| 24> C 	 -109.02 	 56.1657 	 -21.9148
| 25> C 	 -108.165 	 57.2365 	 -21.9353
| 26> C 	 -108.43 	 58.3341 	 -21.0686
| 27> C 	 -109.711 	 58.059 	 -20.5081
| 28> H 	 -107.372 	 57.1757 	 -22.5799
| 29> C 	 -107.589 	 59.553 	 -21.066
| 30> H 	 -106.519 	 59.3087 	 -20.8348
| 31> H 	 -107.933 	 60.084 	 -20.2307
| 32> C 	 -107.727 	 60.457 	 -22.3151
| 33> H 	 -108.753 	 60.8357 	 -22.6112
| 34> H 	 -107.426 	 59.8237 	 -23.1397
| 35> C 	 -106.967 	 61.7908 	 -22.2388
| 36> H 	 -107.533 	 62.5819 	 -21.7201
| 37> H 	 -107.057 	 62.2554 	 -23.2766
| 38> H 	 -105.949 	 61.8357 	 -21.9226
| 39> H 	 -112.632 	 60.0299 	 -17.0627
| 40> H 	 -108.903 	 55.327 	 -22.6258
| 41> *
| 42>
| 43>                          ****END OF INPUT****

CARTESIAN COORDINATES (ANGSTROEM)
---------------------------------
  S    -111.436000   58.175200  -18.305400
  C    -112.047000   59.868500  -17.888400
  C    -111.392000   60.821200  -18.598700
  C    -110.614000   60.212400  -19.635900
  C    -110.439000   58.847200  -19.558300
  H    -110.137000   60.774500  -20.451800
  C    -111.474000   62.281300  -18.282000
  H    -111.990000   62.412800  -17.281600
  H    -112.095000   62.877000  -18.984400
  C    -110.174000   62.970700  -18.178800
  H    -109.477000   62.418000  -17.508100
  H    -109.658000   63.037300  -19.194000
  C    -110.135000   64.439100  -17.679500
  H    -110.489000   64.469000  -16.643200
  H    -109.125000   64.767000  -17.605700
  H    -110.673000   65.233500  -18.212800
  S    -110.426000   56.454400  -20.969000
  C    -109.020000   56.165700  -21.914800
  C    -108.165000   57.236500  -21.935300
  C    -108.430000   58.334100  -21.068600
  C    -109.711000   58.059000  -20.508100
  H    -107.372000   57.175700  -22.579900
  C    -107.589000   59.553000  -21.066000
  H    -106.519000   59.308700  -20.834800
  H    -107.933000   60.084000  -20.230700
  C    -107.727000   60.457000  -22.315100
  H    -108.753000   60.835700  -22.611200
  H    -107.426000   59.823700  -23.139700
  C    -106.967000   61.790800  -22.238800
  H    -107.533000   62.581900  -21.720100
  H    -107.057000   62.255400  -23.276600
  H    -105.949000   61.835700  -21.922600
  H    -112.632000   60.029900  -17.062700
  H    -108.903000   55.327000  -22.625800

 Total Charge           Charge          ....    0
 Multiplicity           Mult            ....    1
 Number of Electrons    NEL             ....  134
 Basis Dimension        Dim             ....  322

ORBITAL ENERGIES
----------------

  NO   OCC          E(Eh)            E(eV)
   0   2.0000     -88.969610     -2420.9862
   1   2.0000     -88.962853     -2420.8023
   2   2.0000     -10.333137      -281.1789
   3   2.0000     -10.325104      -280.9604
   4   2.0000     -10.313346      -280.6404
   5   2.0000     -10.311109      -280.5795
   6   2.0000     -10.307147      -280.4717
   7   2.0000     -10.301652      -280.3222
   8   2.0000     -10.298949      -280.2487
   9   2.0000     -10.297943      -280.2213
  10   2.0000     -10.294582      -280.1298
  11   2.0000     -10.293915      -280.1117
  12   2.0000     -10.291927      -280.0576
  13   2.0000     -10.286173      -279.9010
  14   2.0000     -10.282351      -279.7970
  15   2.0000     -10.279745      -279.7261
  16   2.0000      -8.083741      -219.9698
  17   2.0000      -8.076737      -219.7792
  18   2.0000      -6.042177      -164.4160
  19   2.0000      -6.038490      -164.3157
  20   2.0000      -6.035385      -164.2312
  21   2.0000      -6.034455      -164.2059
  22   2.0000      -6.031546      -164.1267
  23   2.0000      -6.027211      -164.0088
  24   2.0000      -1.003660       -27.3110
  25   2.0000      -0.980177       -26.6720
  26   2.0000      -0.918424       -24.9916
  27   2.0000      -0.913908       -24.8687
  28   2.0000      -0.871674       -23.7195
  29   2.0000      -0.857933       -23.3455
  30   2.0000      -0.839101       -22.8331
  31   2.0000      -0.812445       -22.1078
  32   2.0000      -0.791709       -21.5435
  33   2.0000      -0.778565       -21.1858
  34   2.0000      -0.712555       -19.3896
  35   2.0000      -0.701485       -19.0884
  36   2.0000      -0.691303       -18.8113
  37   2.0000      -0.658410       -17.9163
  38   2.0000      -0.642531       -17.4841
  39   2.0000      -0.619965       -16.8701
  40   2.0000      -0.599766       -16.3205
  41   2.0000      -0.574045       -15.6205
  42   2.0000      -0.569752       -15.5037
  43   2.0000      -0.556891       -15.1538
  44   2.0000      -0.532002       -14.4765
  45   2.0000      -0.524186       -14.2638
  46   2.0000      -0.519570       -14.1382
  47   2.0000      -0.512626       -13.9493
  48   2.0000      -0.505242       -13.7483
  49   2.0000      -0.500723       -13.6254
  50   2.0000      -0.492086       -13.3903
  51   2.0000      -0.482519       -13.1300
  52   2.0000      -0.469915       -12.7870
  53   2.0000      -0.462445       -12.5838
  54   2.0000      -0.457376       -12.4458
  55   2.0000      -0.451950       -12.2982
  56   2.0000      -0.444948       -12.1076
  57   2.0000      -0.439714       -11.9652
  58   2.0000      -0.436176       -11.8690
  59   2.0000      -0.432647       -11.7729
  60   2.0000      -0.420347       -11.4382
  61   2.0000      -0.411861       -11.2073
  62   2.0000      -0.408944       -11.1279
  63   2.0000      -0.350665        -9.5421
  64   2.0000      -0.334483        -9.1017
  65   2.0000      -0.329882        -8.9765
  66   2.0000      -0.283468        -7.7136
  67   0.0000       0.021980         0.5981
  68   0.0000       0.077485         2.1085
  69   0.0000       0.094359         2.5676
  70   0.0000       0.117034         3.1846
  71   0.0000       0.117472         3.1966

MULLIKEN ATOMIC CHARGES
-----------------------
   0 S :    0.078596
   1 C :   -0.103952
   2 C :   -0.038906
   3 C :   -0.009970
   4 C :   -0.114294
   5 H :    0.009967
   6 C :    0.093680
   7 H :    0.020169
   8 H :    0.038960
   9 C :   -0.141824
  10 H :    0.039997
  11 H :    0.037171
  12 C :   -0.040524
  13 H :    0.022544
  14 H :    0.026290
  15 H :    0.035380
  16 S :    0.116335
  17 C :   -0.093423
  18 C :   -0.010598
  19 C :   -0.027434
  20 C :   -0.169703
  21 H :   -0.023309
  22 C :    0.101090
  23 H :    0.043572
  24 H :    0.002375
  25 C :   -0.084567
  26 H :    0.043292
  27 H :    0.028151
  28 C :   -0.060070
  29 H :    0.029640
  30 H :    0.033065
  31 H :    0.038104
  32 H :    0.015823
  33 H :    0.064371
Sum of atomic charges:   -0.0000000

LOEWDIN ATOMIC CHARGES
----------------------
   0 S :    0.360288
   1 C :   -0.146619
   2 C :   -0.056499
   3 C :   -0.070131
   4 C :   -0.193449
   5 H :    0.029887
   6 C :   -0.038731
   7 H :    0.036314
   8 H :    0.036548
   9 C :   -0.050607
  10 H :    0.030496
  11 H :    0.026920
  12 C :   -0.068451
  13 H :    0.023634
  14 H :    0.024974
  15 H :    0.025198
  16 S :    0.394474
  17 C :   -0.200212
  18 C :   -0.063801
  19 C :   -0.042071
  20 C :   -0.170735
  21 H :    0.012316
  22 C :   -0.035203
  23 H :    0.043590
  24 H :    0.021802
  25 C :   -0.039645
  26 H :    0.036491
  27 H :    0.021380
  28 C :   -0.074552
  29 H :    0.026761
  30 H :    0.038176
  31 H :    0.018511
  32 H :    0.006989
  33 H :    0.035958

  Mayer bond orders larger than 0.100000
B(  0-S ,  1-C ) :   1.1008 B(  0-S ,  4-C ) :   1.1306 B(  1-C ,  2-C ) :   1.6497
B(  1-C , 32-H ) :   0.9754 B(  2-C ,  3-C ) :   1.1999 B(  2-C ,  6-C ) :   1.0317
B(  3-C ,  4-C ) :   1.5875 B(  3-C ,  5-H ) :   0.9855 B(  4-C , 20-C ) :   1.0841
B(  6-C ,  7-H ) :   0.9377 B(  6-C ,  8-H ) :   0.9278 B(  6-C ,  9-C ) :   1.0689
B(  9-C , 10-H ) :   0.9547 B(  9-C , 11-H ) :   0.9469 B(  9-C , 12-C ) :   1.0892
B( 12-C , 13-H ) :   0.9718 B( 12-C , 14-H ) :   0.9731 B( 12-C , 15-H ) :   0.9746
B( 16-S , 17-C ) :   1.1387 B( 16-S , 20-C ) :   1.1408 B( 17-C , 18-C ) :   1.6354
B( 17-C , 33-H ) :   0.9590 B( 18-C , 19-C ) :   1.2216 B( 18-C , 21-H ) :   0.9958
B( 19-C , 20-C ) :   1.5600 B( 19-C , 22-C ) :   1.0692 B( 22-C , 23-H ) :   0.9233
B( 22-C , 24-H ) :   0.9144 B( 22-C , 25-C ) :   1.0520 B( 25-C , 26-H ) :   0.9522
B( 25-C , 27-H ) :   0.9583 B( 25-C , 28-C ) :   1.0769 B( 28-C , 29-H ) :   0.9746
B( 28-C , 30-H ) :   0.9695 B( 28-C , 31-H ) :   0.9773

Dispersion correction           -0.014178000
FINAL SINGLE POINT ENERGY     -1339.862478881698

DIPOLE MOMENT
-------------
                                X             Y             Z
Electronic contribution:    -12.88132     -32.11415       2.27496
Nuclear contribution   :     13.29872      32.86546      -2.52486
                        -----------------------------------------
Total Dipole Moment    :      0.41740       0.75131      -0.24990
                        -----------------------------------------
Magnitude (a.u.)       :      0.89507
Magnitude (Debye)      :      2.27508

Rotational constants in cm-1:     0.016853     0.009830     0.006434
Rotational constants in MHz :   505.252696   294.710895   192.898177

                             ****ORCA TERMINATED NORMALLY****
TOTAL RUN TIME: 0 days 0 hours 0 minutes 20 seconds 798 msec
