                         Program Version 4.2.1 -  RELEASE  -
|  1> ! wB97X-D3 SP def2-SVP
|  2> %pal
|  3> nprocs 24
|  4> end
|  5>
|  6> * xyz 0 1
|  7> S 	 27.7842 	 -24.6987 	 -131.514
|  8> C 	 28.0746 	 -25.8832 	 -132.759
|  9> C 	 27.9487 	 -27.1696 	 -132.22
| 10> C 	 27.851 	 -27.1649 	 -130.764
| 11> C 	 27.9629 	 -25.9159 	 -130.261
| 12> H 	 27.8643 	 -28.0351 	 -130.133
| 13> C 	 27.9499 	 -28.5141 	 -133.001
| 14> H 	 27.6676 	 -28.3537 	 -134.041
| 15> H 	 27.2138 	 -29.1788 	 -132.563
| 16> C 	 29.3585 	 -29.2657 	 -133.023
| 17> H 	 30.1118 	 -28.6316 	 -133.574
| 18> H 	 29.6775 	 -29.4237 	 -132.002
| 19> C 	 29.2377 	 -30.5846 	 -133.653
| 20> H 	 28.5807 	 -31.1896 	 -133.022
| 21> H 	 28.8517 	 -30.5168 	 -134.705
| 22> H 	 30.1924 	 -31.1127 	 -133.626
| 23> S 	 29.6074 	 -25.9223 	 -128.111
| 24> C 	 29.0156 	 -25.4672 	 -126.503
| 25> C 	 27.681 	 -25.1314 	 -126.61
| 26> C 	 27.1918 	 -25.0514 	 -127.941
| 27> C 	 28.0579 	 -25.6626 	 -128.855
| 28> H 	 27.0458 	 -24.8391 	 -125.792
| 29> C 	 25.7719 	 -24.5488 	 -128.161
| 30> H 	 25.1692 	 -24.9927 	 -127.346
| 31> H 	 25.3891 	 -24.9925 	 -129.069
| 32> C 	 25.5853 	 -22.9997 	 -128.268
| 33> H 	 26.0596 	 -22.4573 	 -127.431
| 34> H 	 24.5131 	 -22.7728 	 -128.159
| 35> C 	 26.1212 	 -22.4219 	 -129.632
| 36> H 	 25.7707 	 -21.4412 	 -129.846
| 37> H 	 25.8339 	 -23.1453 	 -130.361
| 38> H 	 27.1605 	 -22.3183 	 -129.76
| 39> H 	 28.2336 	 -25.604 	 -133.846
| 40> H 	 29.5156 	 -25.4673 	 -125.589
| 41> *
| 42>
| 43>                          ****END OF INPUT****

CARTESIAN COORDINATES (ANGSTROEM)
---------------------------------
  S     27.784200  -24.698700  -131.514000
  C     28.074600  -25.883200  -132.759000
  C     27.948700  -27.169600  -132.220000
  C     27.851000  -27.164900  -130.764000
  C     27.962900  -25.915900  -130.261000
  H     27.864300  -28.035100  -130.133000
  C     27.949900  -28.514100  -133.001000
  H     27.667600  -28.353700  -134.041000
  H     27.213800  -29.178800  -132.563000
  C     29.358500  -29.265700  -133.023000
  H     30.111800  -28.631600  -133.574000
  H     29.677500  -29.423700  -132.002000
  C     29.237700  -30.584600  -133.653000
  H     28.580700  -31.189600  -133.022000
  H     28.851700  -30.516800  -134.705000
  H     30.192400  -31.112700  -133.626000
  S     29.607400  -25.922300  -128.111000
  C     29.015600  -25.467200  -126.503000
  C     27.681000  -25.131400  -126.610000
  C     27.191800  -25.051400  -127.941000
  C     28.057900  -25.662600  -128.855000
  H     27.045800  -24.839100  -125.792000
  C     25.771900  -24.548800  -128.161000
  H     25.169200  -24.992700  -127.346000
  H     25.389100  -24.992500  -129.069000
  C     25.585300  -22.999700  -128.268000
  H     26.059600  -22.457300  -127.431000
  H     24.513100  -22.772800  -128.159000
  C     26.121200  -22.421900  -129.632000
  H     25.770700  -21.441200  -129.846000
  H     25.833900  -23.145300  -130.361000
  H     27.160500  -22.318300  -129.760000
  H     28.233600  -25.604000  -133.846000
  H     29.515600  -25.467300  -125.589000

 Total Charge           Charge          ....    0
 Multiplicity           Mult            ....    1
 Number of Electrons    NEL             ....  134
 Basis Dimension        Dim             ....  322

ORBITAL ENERGIES
----------------

  NO   OCC          E(Eh)            E(eV)
   0   2.0000     -88.965139     -2420.8645
   1   2.0000     -88.964664     -2420.8516
   2   2.0000     -10.323775      -280.9242
   3   2.0000     -10.323006      -280.9033
   4   2.0000     -10.321782      -280.8700
   5   2.0000     -10.314399      -280.6691
   6   2.0000     -10.308304      -280.5032
   7   2.0000     -10.299307      -280.2584
   8   2.0000     -10.296064      -280.1701
   9   2.0000     -10.293564      -280.1021
  10   2.0000     -10.292677      -280.0780
  11   2.0000     -10.291804      -280.0542
  12   2.0000     -10.289298      -279.9860
  13   2.0000     -10.286784      -279.9176
  14   2.0000     -10.277377      -279.6617
  15   2.0000     -10.264748      -279.3180
  16   2.0000      -8.079495      -219.8542
  17   2.0000      -8.079209      -219.8465
  18   2.0000      -6.038149      -164.3064
  19   2.0000      -6.037859      -164.2985
  20   2.0000      -6.033935      -164.1917
  21   2.0000      -6.033821      -164.1886
  22   2.0000      -6.030240      -164.0912
  23   2.0000      -6.029713      -164.0768
  24   2.0000      -1.007625       -27.4189
  25   2.0000      -0.982295       -26.7296
  26   2.0000      -0.908047       -24.7092
  27   2.0000      -0.899737       -24.4831
  28   2.0000      -0.874435       -23.7946
  29   2.0000      -0.849745       -23.1227
  30   2.0000      -0.843212       -22.9450
  31   2.0000      -0.813684       -22.1415
  32   2.0000      -0.780724       -21.2446
  33   2.0000      -0.765232       -20.8230
  34   2.0000      -0.707354       -19.2481
  35   2.0000      -0.695431       -18.9236
  36   2.0000      -0.689177       -18.7535
  37   2.0000      -0.663902       -18.0657
  38   2.0000      -0.642761       -17.4904
  39   2.0000      -0.616516       -16.7763
  40   2.0000      -0.594303       -16.1718
  41   2.0000      -0.570338       -15.5197
  42   2.0000      -0.562357       -15.3025
  43   2.0000      -0.548993       -14.9389
  44   2.0000      -0.537118       -14.6157
  45   2.0000      -0.521958       -14.2032
  46   2.0000      -0.516367       -14.0511
  47   2.0000      -0.512063       -13.9339
  48   2.0000      -0.503056       -13.6888
  49   2.0000      -0.499562       -13.5938
  50   2.0000      -0.494841       -13.4653
  51   2.0000      -0.474494       -12.9116
  52   2.0000      -0.468617       -12.7517
  53   2.0000      -0.463887       -12.6230
  54   2.0000      -0.454597       -12.3702
  55   2.0000      -0.449497       -12.2314
  56   2.0000      -0.443711       -12.0740
  57   2.0000      -0.439600       -11.9621
  58   2.0000      -0.426950       -11.6179
  59   2.0000      -0.424824       -11.5601
  60   2.0000      -0.420507       -11.4426
  61   2.0000      -0.413645       -11.2559
  62   2.0000      -0.412155       -11.2153
  63   2.0000      -0.339142        -9.2285
  64   2.0000      -0.332775        -9.0553
  65   2.0000      -0.320076        -8.7097
  66   2.0000      -0.299352        -8.1458
  67   0.0000       0.038329         1.0430
  68   0.0000       0.056074         1.5258
  69   0.0000       0.100339         2.7304
  70   0.0000       0.123820         3.3693
  71   0.0000       0.128285         3.4908

MULLIKEN ATOMIC CHARGES
-----------------------
   0 S :    0.110491
   1 C :   -0.144224
   2 C :   -0.067989
   3 C :    0.036998
   4 C :   -0.137123
   5 H :    0.017158
   6 C :    0.045119
   7 H :    0.018172
   8 H :    0.024691
   9 C :   -0.083329
  10 H :    0.038062
  11 H :    0.025113
  12 C :   -0.038497
  13 H :    0.021820
  14 H :    0.038048
  15 H :    0.036260
  16 S :    0.112742
  17 C :   -0.061316
  18 C :   -0.025899
  19 C :   -0.032065
  20 C :   -0.190100
  21 H :    0.013161
  22 C :    0.027770
  23 H :    0.033104
  24 H :    0.023883
  25 C :   -0.061800
  26 H :    0.028819
  27 H :    0.034174
  28 C :   -0.026597
  29 H :    0.024826
  30 H :    0.019480
  31 H :    0.027459
  32 H :    0.076347
  33 H :    0.035243
Sum of atomic charges:    0.0000000

LOEWDIN ATOMIC CHARGES
----------------------
   0 S :    0.417341
   1 C :   -0.208364
   2 C :   -0.059220
   3 C :   -0.051292
   4 C :   -0.197766
   5 H :    0.032477
   6 C :   -0.029501
   7 H :    0.025693
   8 H :    0.027969
   9 C :   -0.042163
  10 H :    0.028000
  11 H :    0.021223
  12 C :   -0.070002
  13 H :    0.023867
  14 H :    0.028852
  15 H :    0.028392
  16 S :    0.411796
  17 C :   -0.174797
  18 C :   -0.065894
  19 C :   -0.059426
  20 C :   -0.204639
  21 H :    0.028027
  22 C :   -0.033910
  23 H :    0.035128
  24 H :    0.026027
  25 C :   -0.034920
  26 H :    0.022331
  27 H :    0.026741
  28 C :   -0.065899
  29 H :    0.023824
  30 H :    0.010046
  31 H :    0.016282
  32 H :    0.043479
  33 H :    0.020296

  Mayer bond orders larger than 0.100000
B(  0-S ,  1-C ) :   1.1302 B(  0-S ,  4-C ) :   1.1243 B(  1-C ,  2-C ) :   1.6239
B(  1-C , 32-H ) :   0.9641 B(  2-C ,  3-C ) :   1.2037 B(  2-C ,  6-C ) :   1.0291
B(  3-C ,  4-C ) :   1.6012 B(  3-C ,  5-H ) :   0.9974 B(  4-C , 20-C ) :   1.0431
B(  6-C ,  7-H ) :   0.9443 B(  6-C ,  8-H ) :   0.9457 B(  6-C ,  9-C ) :   1.0566
B(  9-C , 10-H ) :   0.9545 B(  9-C , 11-H ) :   0.9550 B(  9-C , 12-C ) :   1.0990
B( 12-C , 13-H ) :   0.9699 B( 12-C , 14-H ) :   0.9707 B( 12-C , 15-H ) :   0.9689
B( 16-S , 17-C ) :   1.1436 B( 16-S , 20-C ) :   1.1535 B( 17-C , 18-C ) :   1.5952
B( 17-C , 20-C ) :   0.1072 B( 17-C , 33-H ) :   0.9774 B( 18-C , 19-C ) :   1.2622
B( 18-C , 21-H ) :   0.9831 B( 19-C , 20-C ) :   1.5702 B( 19-C , 22-C ) :   1.0388
B( 22-C , 23-H ) :   0.9424 B( 22-C , 24-H ) :   0.9394 B( 22-C , 25-C ) :   1.0638
B( 25-C , 26-H ) :   0.9590 B( 25-C , 27-H ) :   0.9578 B( 25-C , 28-C ) :   1.0608
B( 28-C , 29-H ) :   0.9713 B( 28-C , 30-H ) :   0.9721 B( 28-C , 31-H ) :   0.9755

Dispersion correction           -0.014715113
FINAL SINGLE POINT ENERGY     -1339.875536126666

DIPOLE MOMENT
-------------
                                X             Y             Z
Electronic contribution:      7.35994       6.95342       8.92442
Nuclear contribution   :     -7.61853      -7.20736      -8.94341
                        -----------------------------------------
Total Dipole Moment    :     -0.25859      -0.25394      -0.01899
                        -----------------------------------------
Magnitude (a.u.)       :      0.36292
Magnitude (Debye)      :      0.92247

Rotational constants in cm-1:     0.022432     0.007982     0.006530
Rotational constants in MHz :   672.504207   239.282976   195.779133

                             ****ORCA TERMINATED NORMALLY****
TOTAL RUN TIME: 0 days 0 hours 0 minutes 21 seconds 437 msec
