                         Program Version 4.2.1 -  RELEASE  -
|  1> ! wB97X-D3 SP def2-SVP
|  2> %pal
|  3> nprocs 24
|  4> end
|  5>
|  6> * xyz 0 1
|  7> S 	 -84.8245 	 -38.0971 	 -73.1749
|  8> C 	 -84.4339 	 -37.7354 	 -74.8579
|  9> C 	 -83.7646 	 -38.8289 	 -75.4048
| 10> C 	 -83.4802 	 -39.8755 	 -74.4375
| 11> C 	 -83.7949 	 -39.5183 	 -73.125
| 12> H 	 -83.144 	 -40.8555 	 -74.6569
| 13> C 	 -83.3601 	 -38.88 	 -76.8471
| 14> H 	 -84.1118 	 -38.3588 	 -77.3269
| 15> H 	 -83.4216 	 -39.9505 	 -77.1931
| 16> C 	 -81.9298 	 -38.3711 	 -77.1471
| 17> H 	 -81.77 	 -38.4581 	 -78.2475
| 18> H 	 -81.9289 	 -37.2917 	 -76.8016
| 19> C 	 -80.7697 	 -39.126 	 -76.4624
| 20> H 	 -80.8643 	 -39.0804 	 -75.3982
| 21> H 	 -80.6951 	 -40.232 	 -76.7749
| 22> H 	 -79.7486 	 -38.6399 	 -76.5866
| 23> S 	 -82.6738 	 -39.6839 	 -70.5761
| 24> C 	 -82.7152 	 -41.2941 	 -69.7974
| 25> C 	 -83.5674 	 -42.1012 	 -70.5208
| 26> C 	 -84.108 	 -41.5504 	 -71.6873
| 27> C 	 -83.6234 	 -40.3157 	 -71.9671
| 28> H 	 -83.8791 	 -43.0659 	 -70.1154
| 29> C 	 -85.0629 	 -42.3303 	 -72.6209
| 30> H 	 -85.341 	 -41.6322 	 -73.505
| 31> H 	 -86.0053 	 -42.3705 	 -72.0427
| 32> C 	 -84.7344 	 -43.8175 	 -73.1073
| 33> H 	 -85.5622 	 -44.2661 	 -73.5887
| 34> H 	 -84.5692 	 -44.4179 	 -72.2507
| 35> C 	 -83.5554 	 -43.8039 	 -74.1767
| 36> H 	 -83.426 	 -44.7629 	 -74.7935
| 37> H 	 -82.5731 	 -43.6614 	 -73.6678
| 38> H 	 -83.799 	 -42.9556 	 -74.8375
| 39> H 	 -84.5011 	 -36.8034 	 -75.3522
| 40> H 	 -82.2697 	 -41.4645 	 -68.8417
| 41> *
| 42>
| 43>                          ****END OF INPUT****

CARTESIAN COORDINATES (ANGSTROEM)
---------------------------------
  S    -84.824500  -38.097100  -73.174900
  C    -84.433900  -37.735400  -74.857900
  C    -83.764600  -38.828900  -75.404800
  C    -83.480200  -39.875500  -74.437500
  C    -83.794900  -39.518300  -73.125000
  H    -83.144000  -40.855500  -74.656900
  C    -83.360100  -38.880000  -76.847100
  H    -84.111800  -38.358800  -77.326900
  H    -83.421600  -39.950500  -77.193100
  C    -81.929800  -38.371100  -77.147100
  H    -81.770000  -38.458100  -78.247500
  H    -81.928900  -37.291700  -76.801600
  C    -80.769700  -39.126000  -76.462400
  H    -80.864300  -39.080400  -75.398200
  H    -80.695100  -40.232000  -76.774900
  H    -79.748600  -38.639900  -76.586600
  S    -82.673800  -39.683900  -70.576100
  C    -82.715200  -41.294100  -69.797400
  C    -83.567400  -42.101200  -70.520800
  C    -84.108000  -41.550400  -71.687300
  C    -83.623400  -40.315700  -71.967100
  H    -83.879100  -43.065900  -70.115400
  C    -85.062900  -42.330300  -72.620900
  H    -85.341000  -41.632200  -73.505000
  H    -86.005300  -42.370500  -72.042700
  C    -84.734400  -43.817500  -73.107300
  H    -85.562200  -44.266100  -73.588700
  H    -84.569200  -44.417900  -72.250700
  C    -83.555400  -43.803900  -74.176700
  H    -83.426000  -44.762900  -74.793500
  H    -82.573100  -43.661400  -73.667800
  H    -83.799000  -42.955600  -74.837500
  H    -84.501100  -36.803400  -75.352200
  H    -82.269700  -41.464500  -68.841700

 Total Charge           Charge          ....    0
 Multiplicity           Mult            ....    1
 Number of Electrons    NEL             ....  134
 Basis Dimension        Dim             ....  322

ORBITAL ENERGIES
----------------

  NO   OCC          E(Eh)            E(eV)
   0   2.0000     -88.963994     -2420.8334
   1   2.0000     -88.963265     -2420.8135
   2   2.0000     -10.327601      -281.0283
   3   2.0000     -10.324130      -280.9339
   4   2.0000     -10.324050      -280.9317
   5   2.0000     -10.312131      -280.6073
   6   2.0000     -10.305846      -280.4363
   7   2.0000     -10.303780      -280.3801
   8   2.0000     -10.301481      -280.3175
   9   2.0000     -10.296434      -280.1802
  10   2.0000     -10.295539      -280.1559
  11   2.0000     -10.294809      -280.1360
  12   2.0000     -10.293649      -280.1044
  13   2.0000     -10.292285      -280.0673
  14   2.0000     -10.288611      -279.9673
  15   2.0000     -10.284114      -279.8450
  16   2.0000      -8.077769      -219.8073
  17   2.0000      -8.077604      -219.8028
  18   2.0000      -6.036330      -164.2569
  19   2.0000      -6.036255      -164.2548
  20   2.0000      -6.032540      -164.1538
  21   2.0000      -6.032150      -164.1432
  22   2.0000      -6.028380      -164.0406
  23   2.0000      -6.028245      -164.0369
  24   2.0000      -1.005862       -27.3709
  25   2.0000      -0.980911       -26.6919
  26   2.0000      -0.910105       -24.7652
  27   2.0000      -0.895844       -24.3772
  28   2.0000      -0.870958       -23.7000
  29   2.0000      -0.845690       -23.0124
  30   2.0000      -0.837907       -22.8006
  31   2.0000      -0.815435       -22.1891
  32   2.0000      -0.779139       -21.2014
  33   2.0000      -0.769612       -20.9422
  34   2.0000      -0.712403       -19.3855
  35   2.0000      -0.704170       -19.1614
  36   2.0000      -0.694758       -18.9053
  37   2.0000      -0.662129       -18.0174
  38   2.0000      -0.641139       -17.4463
  39   2.0000      -0.611946       -16.6519
  40   2.0000      -0.595008       -16.1910
  41   2.0000      -0.572377       -15.5752
  42   2.0000      -0.551977       -15.0201
  43   2.0000      -0.543532       -14.7903
  44   2.0000      -0.542813       -14.7707
  45   2.0000      -0.540155       -14.6984
  46   2.0000      -0.523745       -14.2518
  47   2.0000      -0.513147       -13.9634
  48   2.0000      -0.502493       -13.6735
  49   2.0000      -0.491486       -13.3740
  50   2.0000      -0.486853       -13.2479
  51   2.0000      -0.471242       -12.8231
  52   2.0000      -0.466853       -12.7037
  53   2.0000      -0.464726       -12.6458
  54   2.0000      -0.455610       -12.3978
  55   2.0000      -0.443487       -12.0679
  56   2.0000      -0.440052       -11.9744
  57   2.0000      -0.437806       -11.9133
  58   2.0000      -0.433026       -11.7832
  59   2.0000      -0.429382       -11.6841
  60   2.0000      -0.416243       -11.3265
  61   2.0000      -0.415165       -11.2972
  62   2.0000      -0.412510       -11.2250
  63   2.0000      -0.335719        -9.1354
  64   2.0000      -0.331353        -9.0166
  65   2.0000      -0.324059        -8.8181
  66   2.0000      -0.301706        -8.2098
  67   0.0000       0.025552         0.6953
  68   0.0000       0.057933         1.5764
  69   0.0000       0.102659         2.7935
  70   0.0000       0.113764         3.0957
  71   0.0000       0.132738         3.6120

MULLIKEN ATOMIC CHARGES
-----------------------
   0 S :    0.105917
   1 C :   -0.103863
   2 C :   -0.126736
   3 C :    0.060392
   4 C :   -0.160665
   5 H :   -0.020727
   6 C :    0.092011
   7 H :    0.009919
   8 H :    0.026025
   9 C :   -0.075368
  10 H :    0.044056
  11 H :    0.035683
  12 C :   -0.091883
  13 H :    0.038902
  14 H :    0.042761
  15 H :    0.043893
  16 S :    0.093695
  17 C :   -0.085023
  18 C :   -0.035327
  19 C :    0.028212
  20 C :   -0.191676
  21 H :    0.020881
  22 C :   -0.019828
  23 H :    0.054368
  24 H :    0.042144
  25 C :   -0.014094
  26 H :    0.025818
  27 H :    0.020718
  28 C :   -0.108975
  29 H :    0.050174
  30 H :    0.053568
  31 H :    0.045375
  32 H :    0.040831
  33 H :    0.058823
Sum of atomic charges:    0.0000000

LOEWDIN ATOMIC CHARGES
----------------------
   0 S :    0.395971
   1 C :   -0.194625
   2 C :   -0.058514
   3 C :   -0.052529
   4 C :   -0.192096
   5 H :    0.020085
   6 C :   -0.033663
   7 H :    0.021031
   8 H :    0.035205
   9 C :   -0.042594
  10 H :    0.028232
  11 H :    0.029835
  12 C :   -0.080950
  13 H :    0.021235
  14 H :    0.032063
  15 H :    0.035798
  16 S :    0.369203
  17 C :   -0.157511
  18 C :   -0.072784
  19 C :   -0.055680
  20 C :   -0.190572
  21 H :    0.032032
  22 C :   -0.039076
  23 H :    0.041581
  24 H :    0.037316
  25 C :   -0.030210
  26 H :    0.022552
  27 H :    0.015774
  28 C :   -0.077173
  29 H :    0.033835
  30 H :    0.030727
  31 H :    0.024382
  32 H :    0.023897
  33 H :    0.027223

  Mayer bond orders larger than 0.100000
B(  0-S ,  1-C ) :   1.1282 B(  0-S ,  4-C ) :   1.1553 B(  1-C ,  2-C ) :   1.6055
B(  1-C ,  4-C ) :   0.1014 B(  1-C , 32-H ) :   0.9715 B(  2-C ,  3-C ) :   1.2280
B(  2-C ,  6-C ) :   1.0242 B(  3-C ,  4-C ) :   1.5518 B(  3-C ,  5-H ) :   1.0043
B(  4-C , 20-C ) :   1.0612 B(  6-C ,  7-H ) :   0.9360 B(  6-C ,  8-H ) :   0.9390
B(  6-C ,  9-C ) :   1.0656 B(  9-C , 10-H ) :   0.9573 B(  9-C , 11-H ) :   0.9531
B(  9-C , 12-C ) :   1.0765 B( 12-C , 13-H ) :   0.9705 B( 12-C , 14-H ) :   0.9734
B( 12-C , 15-H ) :   0.9721 B( 16-S , 17-C ) :   1.1455 B( 16-S , 20-C ) :   1.1175
B( 17-C , 18-C ) :   1.6017 B( 17-C , 20-C ) :   0.1060 B( 17-C , 33-H ) :   0.9749
B( 18-C , 19-C ) :   1.2382 B( 18-C , 21-H ) :   0.9871 B( 19-C , 20-C ) :   1.6056
B( 19-C , 22-C ) :   1.0248 B( 22-C , 23-H ) :   0.9394 B( 22-C , 24-H ) :   0.9302
B( 22-C , 25-C ) :   1.0673 B( 25-C , 26-H ) :   0.9555 B( 25-C , 27-H ) :   0.9572
B( 25-C , 28-C ) :   1.0549 B( 28-C , 29-H ) :   0.9748 B( 28-C , 30-H ) :   0.9799
B( 28-C , 31-H ) :   0.9685

Dispersion correction           -0.015530072
FINAL SINGLE POINT ENERGY     -1339.865042782886

DIPOLE MOMENT
-------------
                                X             Y             Z
Electronic contribution:     -5.75726      14.06613      20.77668
Nuclear contribution   :      5.69889     -14.65278     -21.06575
                        -----------------------------------------
Total Dipole Moment    :     -0.05836      -0.58666      -0.28907
                        -----------------------------------------
Magnitude (a.u.)       :      0.65661
Magnitude (Debye)      :      1.66896

Rotational constants in cm-1:     0.017797     0.009314     0.007835
Rotational constants in MHz :   533.526491   279.236662   234.882323

                             ****ORCA TERMINATED NORMALLY****
TOTAL RUN TIME: 0 days 0 hours 0 minutes 21 seconds 407 msec
