                         Program Version 4.2.1 -  RELEASE  -
|  1> ! wB97X-D3 SP def2-SVP
|  2> %pal
|  3> nprocs 24
|  4> end
|  5>
|  6> * xyz 0 1
|  7> S 	 -39.3137 	 -10.5686 	 5.00578
|  8> C 	 -39.8221 	 -11.6917 	 6.23481
|  9> C 	 -39.8063 	 -11.0721 	 7.49637
| 10> C 	 -39.4097 	 -9.65642 	 7.38549
| 11> C 	 -39.245 	 -9.23885 	 6.09095
| 12> H 	 -39.2659 	 -9.04787 	 8.25226
| 13> C 	 -40.0927 	 -11.8072 	 8.81547
| 14> H 	 -39.3401 	 -12.5395 	 9.11733
| 15> H 	 -40.9334 	 -12.5171 	 8.60535
| 16> C 	 -40.4419 	 -10.9764 	 10.0522
| 17> H 	 -41.1828 	 -10.1749 	 9.87228
| 18> H 	 -40.8592 	 -11.6912 	 10.7537
| 19> C 	 -39.1982 	 -10.5104 	 10.7465
| 20> H 	 -38.5275 	 -11.2754 	 11.0495
| 21> H 	 -38.609 	 -9.806 	 10.1397
| 22> H 	 -39.4674 	 -10.0122 	 11.648
| 23> S 	 -37.2015 	 -8.06503 	 4.6348
| 24> C 	 -37.178 	 -6.38321 	 4.39825
| 25> C 	 -38.0646 	 -5.7658 	 5.25989
| 26> C 	 -38.8864 	 -6.6502 	 6.02924
| 27> C 	 -38.6435 	 -7.99611 	 5.64659
| 28> H 	 -38.1831 	 -4.69203 	 5.37735
| 29> C 	 -40.0059 	 -6.07394 	 6.9218
| 30> H 	 -40.5903 	 -6.91568 	 7.32683
| 31> H 	 -40.6861 	 -5.52066 	 6.30513
| 32> C 	 -39.4269 	 -5.15457 	 8.01569
| 33> H 	 -39.025 	 -4.18997 	 7.59999
| 34> H 	 -38.6669 	 -5.65988 	 8.63365
| 35> C 	 -40.6566 	 -4.74168 	 8.89437
| 36> H 	 -40.4327 	 -4.05615 	 9.67435
| 37> H 	 -41.1747 	 -5.69133 	 9.2047
| 38> H 	 -41.3198 	 -4.22047 	 8.26378
| 39> H 	 -40.1181 	 -12.7604 	 6.04859
| 40> H 	 -36.5502 	 -5.90934 	 3.77444
| 41> *
| 42>
| 43>                          ****END OF INPUT****

CARTESIAN COORDINATES (ANGSTROEM)
---------------------------------
  S    -39.313700  -10.568600    5.005780
  C    -39.822100  -11.691700    6.234810
  C    -39.806300  -11.072100    7.496370
  C    -39.409700   -9.656420    7.385490
  C    -39.245000   -9.238850    6.090950
  H    -39.265900   -9.047870    8.252260
  C    -40.092700  -11.807200    8.815470
  H    -39.340100  -12.539500    9.117330
  H    -40.933400  -12.517100    8.605350
  C    -40.441900  -10.976400   10.052200
  H    -41.182800  -10.174900    9.872280
  H    -40.859200  -11.691200   10.753700
  C    -39.198200  -10.510400   10.746500
  H    -38.527500  -11.275400   11.049500
  H    -38.609000   -9.806000   10.139700
  H    -39.467400  -10.012200   11.648000
  S    -37.201500   -8.065030    4.634800
  C    -37.178000   -6.383210    4.398250
  C    -38.064600   -5.765800    5.259890
  C    -38.886400   -6.650200    6.029240
  C    -38.643500   -7.996110    5.646590
  H    -38.183100   -4.692030    5.377350
  C    -40.005900   -6.073940    6.921800
  H    -40.590300   -6.915680    7.326830
  H    -40.686100   -5.520660    6.305130
  C    -39.426900   -5.154570    8.015690
  H    -39.025000   -4.189970    7.599990
  H    -38.666900   -5.659880    8.633650
  C    -40.656600   -4.741680    8.894370
  H    -40.432700   -4.056150    9.674350
  H    -41.174700   -5.691330    9.204700
  H    -41.319800   -4.220470    8.263780
  H    -40.118100  -12.760400    6.048590
  H    -36.550200   -5.909340    3.774440

 Total Charge           Charge          ....    0
 Multiplicity           Mult            ....    1
 Number of Electrons    NEL             ....  134
 Basis Dimension        Dim             ....  322

ORBITAL ENERGIES
----------------

  NO   OCC          E(Eh)            E(eV)
   0   2.0000     -88.964992     -2420.8605
   1   2.0000     -88.963472     -2420.8192
   2   2.0000     -10.327525      -281.0262
   3   2.0000     -10.325719      -280.9771
   4   2.0000     -10.318997      -280.7942
   5   2.0000     -10.308881      -280.5189
   6   2.0000     -10.305103      -280.4161
   7   2.0000     -10.302948      -280.3575
   8   2.0000     -10.296279      -280.1760
   9   2.0000     -10.296009      -280.1687
  10   2.0000     -10.295534      -280.1557
  11   2.0000     -10.295039      -280.1422
  12   2.0000     -10.290025      -280.0058
  13   2.0000     -10.287899      -279.9480
  14   2.0000     -10.276475      -279.6371
  15   2.0000     -10.271577      -279.5038
  16   2.0000      -8.080410      -219.8791
  17   2.0000      -8.078883      -219.8376
  18   2.0000      -6.038963      -164.3285
  19   2.0000      -6.037305      -164.2834
  20   2.0000      -6.034703      -164.2126
  21   2.0000      -6.033270      -164.1736
  22   2.0000      -6.031191      -164.1171
  23   2.0000      -6.029717      -164.0769
  24   2.0000      -1.008110       -27.4321
  25   2.0000      -0.983806       -26.7707
  26   2.0000      -0.915777       -24.9196
  27   2.0000      -0.909595       -24.7513
  28   2.0000      -0.871127       -23.7046
  29   2.0000      -0.850400       -23.1405
  30   2.0000      -0.841561       -22.9000
  31   2.0000      -0.813726       -22.1426
  32   2.0000      -0.782601       -21.2957
  33   2.0000      -0.771553       -20.9950
  34   2.0000      -0.706907       -19.2359
  35   2.0000      -0.700685       -19.0666
  36   2.0000      -0.691915       -18.8280
  37   2.0000      -0.656822       -17.8730
  38   2.0000      -0.639166       -17.3926
  39   2.0000      -0.626530       -17.0488
  40   2.0000      -0.602876       -16.4051
  41   2.0000      -0.571384       -15.5482
  42   2.0000      -0.568636       -15.4734
  43   2.0000      -0.545975       -14.8567
  44   2.0000      -0.538300       -14.6479
  45   2.0000      -0.530096       -14.4246
  46   2.0000      -0.516898       -14.0655
  47   2.0000      -0.511303       -13.9133
  48   2.0000      -0.506626       -13.7860
  49   2.0000      -0.501417       -13.6443
  50   2.0000      -0.492446       -13.4001
  51   2.0000      -0.483746       -13.1634
  52   2.0000      -0.469498       -12.7757
  53   2.0000      -0.463746       -12.6192
  54   2.0000      -0.457286       -12.4434
  55   2.0000      -0.448766       -12.2116
  56   2.0000      -0.443402       -12.0656
  57   2.0000      -0.442932       -12.0528
  58   2.0000      -0.436809       -11.8862
  59   2.0000      -0.428310       -11.6549
  60   2.0000      -0.421651       -11.4737
  61   2.0000      -0.416540       -11.3346
  62   2.0000      -0.411271       -11.1913
  63   2.0000      -0.350259        -9.5310
  64   2.0000      -0.328158        -8.9296
  65   2.0000      -0.323850        -8.8124
  66   2.0000      -0.287848        -7.8328
  67   0.0000       0.028241         0.7685
  68   0.0000       0.073762         2.0072
  69   0.0000       0.114481         3.1152
  70   0.0000       0.124786         3.3956
  71   0.0000       0.127168         3.4604

MULLIKEN ATOMIC CHARGES
-----------------------
   0 S :    0.108988
   1 C :   -0.142935
   2 C :   -0.083063
   3 C :    0.033261
   4 C :   -0.136353
   5 H :    0.004034
   6 C :    0.030437
   7 H :    0.033998
   8 H :    0.027264
   9 C :   -0.069584
  10 H :    0.041712
  11 H :    0.024584
  12 C :   -0.028619
  13 H :    0.019510
  14 H :    0.024454
  15 H :    0.022686
  16 S :    0.112929
  17 C :   -0.035522
  18 C :   -0.032906
  19 C :   -0.026358
  20 C :   -0.159660
  21 H :    0.013457
  22 C :    0.051781
  23 H :    0.025139
  24 H :    0.031879
  25 C :   -0.121263
  26 H :    0.042858
  27 H :    0.045840
  28 C :   -0.012960
  29 H :    0.030803
  30 H :    0.032563
  31 H :    0.010086
  32 H :    0.070677
  33 H :    0.010280
Sum of atomic charges:   -0.0000000

LOEWDIN ATOMIC CHARGES
----------------------
   0 S :    0.426350
   1 C :   -0.212230
   2 C :   -0.058505
   3 C :   -0.059777
   4 C :   -0.208602
   5 H :    0.024209
   6 C :   -0.041459
   7 H :    0.034090
   8 H :    0.035680
   9 C :   -0.045118
  10 H :    0.028925
  11 H :    0.030131
  12 C :   -0.062056
  13 H :    0.021812
  14 H :    0.021725
  15 H :    0.022585
  16 S :    0.422689
  17 C :   -0.184117
  18 C :   -0.068738
  19 C :   -0.055942
  20 C :   -0.199353
  21 H :    0.027324
  22 C :   -0.027722
  23 H :    0.030213
  24 H :    0.030118
  25 C :   -0.037659
  26 H :    0.028112
  27 H :    0.025962
  28 C :   -0.061213
  29 H :    0.019423
  30 H :    0.029940
  31 H :    0.016837
  32 H :    0.041038
  33 H :    0.005328

  Mayer bond orders larger than 0.100000
B(  0-S ,  1-C ) :   1.1450 B(  0-S ,  4-C ) :   1.1624 B(  1-C ,  2-C ) :   1.5956
B(  1-C , 32-H ) :   0.9661 B(  2-C ,  3-C ) :   1.2581 B(  2-C ,  6-C ) :   1.0146
B(  3-C ,  4-C ) :   1.5473 B(  3-C ,  5-H ) :   0.9890 B(  4-C , 20-C ) :   1.0458
B(  6-C ,  7-H ) :   0.9362 B(  6-C ,  8-H ) :   0.9407 B(  6-C ,  9-C ) :   1.0850
B(  9-C , 10-H ) :   0.9572 B(  9-C , 11-H ) :   0.9463 B(  9-C , 12-C ) :   1.0824
B( 12-C , 13-H ) :   0.9680 B( 12-C , 14-H ) :   0.9759 B( 12-C , 15-H ) :   0.9692
B( 16-S , 17-C ) :   1.1621 B( 16-S , 20-C ) :   1.1573 B( 17-C , 18-C ) :   1.5692
B( 17-C , 20-C ) :   0.1007 B( 17-C , 33-H ) :   0.9880 B( 18-C , 19-C ) :   1.2708
B( 18-C , 21-H ) :   0.9884 B( 19-C , 20-C ) :   1.5592 B( 19-C , 22-C ) :   1.0366
B( 22-C , 23-H ) :   0.9402 B( 22-C , 24-H ) :   0.9409 B( 22-C , 25-C ) :   1.0521
B( 25-C , 26-H ) :   0.9526 B( 25-C , 27-H ) :   0.9620 B( 25-C , 28-C ) :   1.0791
B( 28-C , 29-H ) :   0.9742 B( 28-C , 30-H ) :   0.9748 B( 28-C , 31-H ) :   0.9716

Dispersion correction           -0.013805759
FINAL SINGLE POINT ENERGY     -1339.876293811047

DIPOLE MOMENT
-------------
                                X             Y             Z
Electronic contribution:     10.35530      -7.89874     -27.96681
Nuclear contribution   :    -10.56140       8.03380      28.62411
                        -----------------------------------------
Total Dipole Moment    :     -0.20610       0.13506       0.65730
                        -----------------------------------------
Magnitude (a.u.)       :      0.70197
Magnitude (Debye)      :      1.78427

Rotational constants in cm-1:     0.015535     0.010155     0.006801
Rotational constants in MHz :   465.720115   304.440409   203.892023

                             ****ORCA TERMINATED NORMALLY****
TOTAL RUN TIME: 0 days 0 hours 0 minutes 21 seconds 768 msec
