                         Program Version 4.2.1 -  RELEASE  -
|  1> ! wB97X-D3 SP def2-SVP
|  2> %pal
|  3> nprocs 24
|  4> end
|  5>
|  6> * xyz 0 1
|  7> S 	 -107.751 	 12.3498 	 -6.5567
|  8> C 	 -106.666 	 13.5431 	 -7.16984
|  9> C 	 -105.82 	 13.9192 	 -6.13093
| 10> C 	 -105.975 	 13.1688 	 -4.91424
| 11> C 	 -107.017 	 12.2622 	 -4.95671
| 12> H 	 -105.465 	 13.2047 	 -3.99934
| 13> C 	 -104.793 	 15.0252 	 -6.19461
| 14> H 	 -104.795 	 15.7119 	 -5.36543
| 15> H 	 -105.298 	 15.594 	 -7.01962
| 16> C 	 -103.379 	 14.5931 	 -6.64317
| 17> H 	 -103.47 	 13.8635 	 -7.44091
| 18> H 	 -102.927 	 15.4767 	 -7.12381
| 19> C 	 -102.327 	 14.0177 	 -5.56393
| 20> H 	 -102.205 	 14.8369 	 -4.77756
| 21> H 	 -102.619 	 13.1372 	 -4.99478
| 22> H 	 -101.356 	 13.7722 	 -5.942
| 23> S 	 -108.902 	 10.2903 	 -4.52576
| 24> C 	 -109.215 	 9.73644 	 -2.8842
| 25> C 	 -108.025 	 9.99469 	 -2.16793
| 26> C 	 -107.117 	 10.819 	 -2.85415
| 27> C 	 -107.564 	 11.3141 	 -4.04203
| 28> H 	 -107.799 	 9.44598 	 -1.24369
| 29> C 	 -105.794 	 11.1883 	 -2.19837
| 30> H 	 -105.959 	 10.9075 	 -1.13791
| 31> H 	 -105.548 	 12.2607 	 -2.23926
| 32> C 	 -104.542 	 10.4898 	 -2.75567
| 33> H 	 -104.296 	 10.72 	 -3.80484
| 34> H 	 -104.683 	 9.3637 	 -2.68423
| 35> C 	 -103.263 	 10.8696 	 -2.01146
| 36> H 	 -102.911 	 11.8153 	 -2.46359
| 37> H 	 -102.464 	 10.2112 	 -2.13596
| 38> H 	 -103.467 	 10.8991 	 -0.874082
| 39> H 	 -106.757 	 13.9954 	 -8.15968
| 40> H 	 -109.861 	 8.94133 	 -2.5326
| 41> *
| 42>
| 43>                          ****END OF INPUT****

CARTESIAN COORDINATES (ANGSTROEM)
---------------------------------
  S    -107.751000   12.349800   -6.556700
  C    -106.666000   13.543100   -7.169840
  C    -105.820000   13.919200   -6.130930
  C    -105.975000   13.168800   -4.914240
  C    -107.017000   12.262200   -4.956710
  H    -105.465000   13.204700   -3.999340
  C    -104.793000   15.025200   -6.194610
  H    -104.795000   15.711900   -5.365430
  H    -105.298000   15.594000   -7.019620
  C    -103.379000   14.593100   -6.643170
  H    -103.470000   13.863500   -7.440910
  H    -102.927000   15.476700   -7.123810
  C    -102.327000   14.017700   -5.563930
  H    -102.205000   14.836900   -4.777560
  H    -102.619000   13.137200   -4.994780
  H    -101.356000   13.772200   -5.942000
  S    -108.902000   10.290300   -4.525760
  C    -109.215000    9.736440   -2.884200
  C    -108.025000    9.994690   -2.167930
  C    -107.117000   10.819000   -2.854150
  C    -107.564000   11.314100   -4.042030
  H    -107.799000    9.445980   -1.243690
  C    -105.794000   11.188300   -2.198370
  H    -105.959000   10.907500   -1.137910
  H    -105.548000   12.260700   -2.239260
  C    -104.542000   10.489800   -2.755670
  H    -104.296000   10.720000   -3.804840
  H    -104.683000    9.363700   -2.684230
  C    -103.263000   10.869600   -2.011460
  H    -102.911000   11.815300   -2.463590
  H    -102.464000   10.211200   -2.135960
  H    -103.467000   10.899100   -0.874082
  H    -106.757000   13.995400   -8.159680
  H    -109.861000    8.941330   -2.532600

 Total Charge           Charge          ....    0
 Multiplicity           Mult            ....    1
 Number of Electrons    NEL             ....  134
 Basis Dimension        Dim             ....  322

ORBITAL ENERGIES
----------------

  NO   OCC          E(Eh)            E(eV)
   0   2.0000     -88.966010     -2420.8882
   1   2.0000     -88.962737     -2420.7991
   2   2.0000     -10.332489      -281.1613
   3   2.0000     -10.327724      -281.0317
   4   2.0000     -10.322669      -280.8941
   5   2.0000     -10.319072      -280.7962
   6   2.0000     -10.305848      -280.4364
   7   2.0000     -10.300145      -280.2812
   8   2.0000     -10.298248      -280.2296
   9   2.0000     -10.298192      -280.2281
  10   2.0000     -10.296071      -280.1703
  11   2.0000     -10.295142      -280.1451
  12   2.0000     -10.293131      -280.0903
  13   2.0000     -10.291977      -280.0589
  14   2.0000     -10.288567      -279.9661
  15   2.0000     -10.282168      -279.7920
  16   2.0000      -8.080527      -219.8823
  17   2.0000      -8.078063      -219.8153
  18   2.0000      -6.039174      -164.3343
  19   2.0000      -6.036676      -164.2663
  20   2.0000      -6.035318      -164.2293
  21   2.0000      -6.032356      -164.1488
  22   2.0000      -6.030846      -164.1077
  23   2.0000      -6.028783      -164.0515
  24   2.0000      -1.014938       -27.6179
  25   2.0000      -0.989030       -26.9129
  26   2.0000      -0.910170       -24.7670
  27   2.0000      -0.906776       -24.6746
  28   2.0000      -0.872983       -23.7551
  29   2.0000      -0.855001       -23.2658
  30   2.0000      -0.841096       -22.8874
  31   2.0000      -0.819891       -22.3104
  32   2.0000      -0.781730       -21.2720
  33   2.0000      -0.774172       -21.0663
  34   2.0000      -0.711448       -19.3595
  35   2.0000      -0.705666       -19.2022
  36   2.0000      -0.689227       -18.7548
  37   2.0000      -0.670460       -18.2441
  38   2.0000      -0.647414       -17.6170
  39   2.0000      -0.618546       -16.8315
  40   2.0000      -0.595652       -16.2085
  41   2.0000      -0.574462       -15.6319
  42   2.0000      -0.567680       -15.4474
  43   2.0000      -0.543555       -14.7909
  44   2.0000      -0.537423       -14.6240
  45   2.0000      -0.524566       -14.2742
  46   2.0000      -0.518655       -14.1133
  47   2.0000      -0.514542       -14.0014
  48   2.0000      -0.513614       -13.9761
  49   2.0000      -0.504100       -13.7173
  50   2.0000      -0.491138       -13.3646
  51   2.0000      -0.484928       -13.1956
  52   2.0000      -0.479209       -13.0399
  53   2.0000      -0.465139       -12.6571
  54   2.0000      -0.460426       -12.5288
  55   2.0000      -0.451753       -12.2928
  56   2.0000      -0.446737       -12.1563
  57   2.0000      -0.436534       -11.8787
  58   2.0000      -0.429234       -11.6800
  59   2.0000      -0.421318       -11.4646
  60   2.0000      -0.417469       -11.3599
  61   2.0000      -0.408691       -11.1210
  62   2.0000      -0.403339       -10.9754
  63   2.0000      -0.368603       -10.0302
  64   2.0000      -0.333177        -9.0662
  65   2.0000      -0.324042        -8.8176
  66   2.0000      -0.282197        -7.6790
  67   0.0000       0.006852         0.1864
  68   0.0000       0.081135         2.2078
  69   0.0000       0.094822         2.5802
  70   0.0000       0.115343         3.1386
  71   0.0000       0.121690         3.3114

MULLIKEN ATOMIC CHARGES
-----------------------
   0 S :    0.082246
   1 C :   -0.111068
   2 C :   -0.097690
   3 C :    0.044029
   4 C :   -0.124066
   5 H :   -0.037595
   6 C :    0.052317
   7 H :    0.031195
   8 H :    0.021740
   9 C :   -0.047853
  10 H :    0.024515
  11 H :    0.034924
  12 C :   -0.073550
  13 H :    0.032246
  14 H :    0.033106
  15 H :    0.036477
  16 S :    0.091127
  17 C :   -0.069118
  18 C :   -0.064561
  19 C :   -0.050407
  20 C :   -0.078119
  21 H :    0.030658
  22 C :    0.022980
  23 H :    0.022842
  24 H :    0.036312
  25 C :   -0.095424
  26 H :    0.041589
  27 H :    0.033540
  28 C :   -0.048839
  29 H :    0.033588
  30 H :    0.023778
  31 H :    0.039170
  32 H :    0.063112
  33 H :    0.066798
Sum of atomic charges:    0.0000000

LOEWDIN ATOMIC CHARGES
----------------------
   0 S :    0.406630
   1 C :   -0.206956
   2 C :   -0.062644
   3 C :   -0.065369
   4 C :   -0.171320
   5 H :    0.019215
   6 C :   -0.037596
   7 H :    0.027800
   8 H :    0.039902
   9 C :   -0.036266
  10 H :    0.022382
  11 H :    0.028147
  12 C :   -0.073600
  13 H :    0.029796
  14 H :    0.021000
  15 H :    0.024016
  16 S :    0.401535
  17 C :   -0.187095
  18 C :   -0.071693
  19 C :   -0.066471
  20 C :   -0.188961
  21 H :    0.034527
  22 C :   -0.033740
  23 H :    0.033196
  24 H :    0.028175
  25 C :   -0.048404
  26 H :    0.026539
  27 H :    0.027043
  28 C :   -0.068280
  29 H :    0.026338
  30 H :    0.017172
  31 H :    0.033174
  32 H :    0.036697
  33 H :    0.035111

  Mayer bond orders larger than 0.100000
B(  0-S ,  1-C ) :   1.1422 B(  0-S ,  4-C ) :   1.1419 B(  1-C ,  2-C ) :   1.5924
B(  1-C , 32-H ) :   0.9699 B(  2-C ,  3-C ) :   1.2278 B(  2-C ,  6-C ) :   1.0187
B(  3-C ,  4-C ) :   1.5584 B(  3-C ,  5-H ) :   1.0017 B(  4-C , 20-C ) :   1.1181
B(  6-C ,  7-H ) :   0.9489 B(  6-C ,  8-H ) :   0.9365 B(  6-C ,  9-C ) :   1.0644
B(  9-C , 10-H ) :   0.9564 B(  9-C , 11-H ) :   0.9583 B(  9-C , 12-C ) :   1.0598
B( 12-C , 13-H ) :   0.9786 B( 12-C , 14-H ) :   0.9781 B( 12-C , 15-H ) :   0.9757
B( 16-S , 17-C ) :   1.1509 B( 16-S , 20-C ) :   1.1287 B( 17-C , 18-C ) :   1.5718
B( 17-C , 20-C ) :   0.1125 B( 17-C , 33-H ) :   0.9658 B( 18-C , 19-C ) :   1.2968
B( 18-C , 21-H ) :   0.9770 B( 19-C , 20-C ) :   1.5518 B( 19-C , 22-C ) :   1.0396
B( 22-C , 23-H ) :   0.9306 B( 22-C , 24-H ) :   0.9399 B( 22-C , 25-C ) :   1.0595
B( 25-C , 26-H ) :   0.9567 B( 25-C , 27-H ) :   0.9531 B( 25-C , 28-C ) :   1.0806
B( 28-C , 29-H ) :   0.9738 B( 28-C , 30-H ) :   0.9737 B( 28-C , 31-H ) :   0.9715

Dispersion correction           -0.014745981
FINAL SINGLE POINT ENERGY     -1339.854716954662

DIPOLE MOMENT
-------------
                                X             Y             Z
Electronic contribution:    -30.22427      -7.65268      -8.40610
Nuclear contribution   :     30.87531       7.69564       8.66471
                        -----------------------------------------
Total Dipole Moment    :      0.65104       0.04295       0.25861
                        -----------------------------------------
Magnitude (a.u.)       :      0.70183
Magnitude (Debye)      :      1.78392

Rotational constants in cm-1:     0.018003     0.010199     0.006832
Rotational constants in MHz :   539.717186   305.756270   204.804556

                             ****ORCA TERMINATED NORMALLY****
TOTAL RUN TIME: 0 days 0 hours 0 minutes 22 seconds 234 msec
