                         Program Version 4.2.1 -  RELEASE  -
|  1> ! wB97X-D3 SP def2-SVP
|  2> %pal
|  3> nprocs 24
|  4> end
|  5>
|  6> * xyz 0 1
|  7> S 	 -133.45 	 5.39063 	 -2.35892
|  8> C 	 -132.172 	 6.50909 	 -1.95683
|  9> C 	 -131.928 	 6.4076 	 -0.61325
| 10> C 	 -132.689 	 5.39534 	 0.0906732
| 11> C 	 -133.523 	 4.66232 	 -0.77836
| 12> H 	 -132.577 	 5.19517 	 1.15287
| 13> C 	 -130.934 	 7.23711 	 0.170697
| 14> H 	 -131.457 	 7.83355 	 0.894722
| 15> H 	 -130.484 	 7.85754 	 -0.523303
| 16> C 	 -129.946 	 6.36005 	 1.06402
| 17> H 	 -130.455 	 5.676 	 1.78578
| 18> H 	 -129.401 	 5.57935 	 0.502183
| 19> C 	 -128.871 	 7.22315 	 1.80487
| 20> H 	 -128.113 	 6.47478 	 2.07932
| 21> H 	 -128.332 	 7.87102 	 1.05466
| 22> H 	 -129.305 	 7.73564 	 2.69385
| 23> S 	 -136.097 	 4.10967 	 -0.0287978
| 24> C 	 -136.516 	 2.46536 	 0.340864
| 25> C 	 -135.465 	 1.56986 	 0.366659
| 26> C 	 -134.284 	 2.29103 	 0.0201331
| 27> C 	 -134.463 	 3.63532 	 -0.326205
| 28> H 	 -135.604 	 0.524372 	 0.587318
| 29> C 	 -132.927 	 1.58182 	 0.0329682
| 30> H 	 -132.933 	 0.897069 	 0.901213
| 31> H 	 -132.111 	 2.28445 	 0.375189
| 32> C 	 -132.504 	 0.901217 	 -1.33115
| 33> H 	 -131.574 	 0.416979 	 -1.1217
| 34> H 	 -132.245 	 1.69811 	 -1.98515
| 35> C 	 -133.454 	 -0.217014 	 -1.8433
| 36> H 	 -134.297 	 0.113485 	 -2.39296
| 37> H 	 -133.76 	 -0.852343 	 -0.975432
| 38> H 	 -132.828 	 -0.950263 	 -2.4329
| 39> H 	 -131.553 	 7.06292 	 -2.65596
| 40> H 	 -137.503 	 2.13908 	 0.595293
| 41> *
| 42>
| 43>                          ****END OF INPUT****

CARTESIAN COORDINATES (ANGSTROEM)
---------------------------------
  S    -133.450000    5.390630   -2.358920
  C    -132.172000    6.509090   -1.956830
  C    -131.928000    6.407600   -0.613250
  C    -132.689000    5.395340    0.090673
  C    -133.523000    4.662320   -0.778360
  H    -132.577000    5.195170    1.152870
  C    -130.934000    7.237110    0.170697
  H    -131.457000    7.833550    0.894722
  H    -130.484000    7.857540   -0.523303
  C    -129.946000    6.360050    1.064020
  H    -130.455000    5.676000    1.785780
  H    -129.401000    5.579350    0.502183
  C    -128.871000    7.223150    1.804870
  H    -128.113000    6.474780    2.079320
  H    -128.332000    7.871020    1.054660
  H    -129.305000    7.735640    2.693850
  S    -136.097000    4.109670   -0.028798
  C    -136.516000    2.465360    0.340864
  C    -135.465000    1.569860    0.366659
  C    -134.284000    2.291030    0.020133
  C    -134.463000    3.635320   -0.326205
  H    -135.604000    0.524372    0.587318
  C    -132.927000    1.581820    0.032968
  H    -132.933000    0.897069    0.901213
  H    -132.111000    2.284450    0.375189
  C    -132.504000    0.901217   -1.331150
  H    -131.574000    0.416979   -1.121700
  H    -132.245000    1.698110   -1.985150
  C    -133.454000   -0.217014   -1.843300
  H    -134.297000    0.113485   -2.392960
  H    -133.760000   -0.852343   -0.975432
  H    -132.828000   -0.950263   -2.432900
  H    -131.553000    7.062920   -2.655960
  H    -137.503000    2.139080    0.595293

 Total Charge           Charge          ....    0
 Multiplicity           Mult            ....    1
 Number of Electrons    NEL             ....  134
 Basis Dimension        Dim             ....  322

ORBITAL ENERGIES
----------------

  NO   OCC          E(Eh)            E(eV)
   0   2.0000     -88.965744     -2420.8810
   1   2.0000     -88.965094     -2420.8633
   2   2.0000     -10.332234      -281.1544
   3   2.0000     -10.322792      -280.8975
   4   2.0000     -10.314086      -280.6605
   5   2.0000     -10.313493      -280.6444
   6   2.0000     -10.302967      -280.3580
   7   2.0000     -10.298552      -280.2379
   8   2.0000     -10.296184      -280.1734
   9   2.0000     -10.295515      -280.1552
  10   2.0000     -10.292933      -280.0850
  11   2.0000     -10.292488      -280.0728
  12   2.0000     -10.288735      -279.9707
  13   2.0000     -10.288460      -279.9632
  14   2.0000     -10.282284      -279.7952
  15   2.0000     -10.281131      -279.7638
  16   2.0000      -8.081117      -219.8984
  17   2.0000      -8.079830      -219.8633
  18   2.0000      -6.039449      -164.3418
  19   2.0000      -6.038374      -164.3125
  20   2.0000      -6.035575      -164.2363
  21   2.0000      -6.034213      -164.1993
  22   2.0000      -6.031988      -164.1387
  23   2.0000      -6.030637      -164.1020
  24   2.0000      -1.006053       -27.3761
  25   2.0000      -0.985274       -26.8107
  26   2.0000      -0.904111       -24.6021
  27   2.0000      -0.896310       -24.3898
  28   2.0000      -0.869662       -23.6647
  29   2.0000      -0.844685       -22.9850
  30   2.0000      -0.842995       -22.9390
  31   2.0000      -0.813699       -22.1419
  32   2.0000      -0.778233       -21.1768
  33   2.0000      -0.767613       -20.8878
  34   2.0000      -0.711220       -19.3533
  35   2.0000      -0.697171       -18.9710
  36   2.0000      -0.687721       -18.7138
  37   2.0000      -0.661363       -17.9966
  38   2.0000      -0.639494       -17.4015
  39   2.0000      -0.616998       -16.7894
  40   2.0000      -0.587693       -15.9919
  41   2.0000      -0.573235       -15.5985
  42   2.0000      -0.558016       -15.1844
  43   2.0000      -0.548897       -14.9363
  44   2.0000      -0.531874       -14.4730
  45   2.0000      -0.525115       -14.2891
  46   2.0000      -0.516263       -14.0482
  47   2.0000      -0.512350       -13.9418
  48   2.0000      -0.502260       -13.6672
  49   2.0000      -0.498399       -13.5621
  50   2.0000      -0.482055       -13.1174
  51   2.0000      -0.478355       -13.0167
  52   2.0000      -0.473634       -12.8882
  53   2.0000      -0.464839       -12.6489
  54   2.0000      -0.461640       -12.5619
  55   2.0000      -0.448335       -12.1998
  56   2.0000      -0.442802       -12.0492
  57   2.0000      -0.433840       -11.8054
  58   2.0000      -0.425637       -11.5822
  59   2.0000      -0.420551       -11.4438
  60   2.0000      -0.419675       -11.4199
  61   2.0000      -0.413346       -11.2477
  62   2.0000      -0.411100       -11.1866
  63   2.0000      -0.338032        -9.1983
  64   2.0000      -0.325600        -8.8600
  65   2.0000      -0.322741        -8.7822
  66   2.0000      -0.304046        -8.2735
  67   0.0000       0.044031         1.1981
  68   0.0000       0.055548         1.5115
  69   0.0000       0.116712         3.1759
  70   0.0000       0.123655         3.3648
  71   0.0000       0.133316         3.6277

MULLIKEN ATOMIC CHARGES
-----------------------
   0 S :    0.111036
   1 C :   -0.125663
   2 C :   -0.106854
   3 C :    0.035326
   4 C :   -0.152754
   5 H :    0.021645
   6 C :    0.151302
   7 H :    0.031139
   8 H :   -0.008469
   9 C :   -0.146060
  10 H :    0.032093
  11 H :    0.028129
  12 C :   -0.063970
  13 H :    0.034730
  14 H :    0.042576
  15 H :    0.055463
  16 S :    0.129631
  17 C :   -0.081123
  18 C :   -0.033103
  19 C :   -0.024013
  20 C :   -0.179280
  21 H :    0.022986
  22 C :    0.011980
  23 H :    0.019975
  24 H :    0.026430
  25 C :   -0.026078
  26 H :    0.017444
  27 H :    0.030319
  28 C :   -0.063685
  29 H :    0.050370
  30 H :    0.026849
  31 H :    0.036331
  32 H :    0.054299
  33 H :    0.040998
Sum of atomic charges:    0.0000000

LOEWDIN ATOMIC CHARGES
----------------------
   0 S :    0.412992
   1 C :   -0.206819
   2 C :   -0.063922
   3 C :   -0.057939
   4 C :   -0.203104
   5 H :    0.031153
   6 C :   -0.020869
   7 H :    0.033529
   8 H :    0.016382
   9 C :   -0.048580
  10 H :    0.024429
  11 H :    0.022933
  12 C :   -0.073923
  13 H :    0.029704
  14 H :    0.031607
  15 H :    0.030111
  16 S :    0.428223
  17 C :   -0.179948
  18 C :   -0.070065
  19 C :   -0.051776
  20 C :   -0.219764
  21 H :    0.035743
  22 C :   -0.041680
  23 H :    0.026038
  24 H :    0.033588
  25 C :   -0.032614
  26 H :    0.021744
  27 H :    0.022263
  28 C :   -0.068231
  29 H :    0.021124
  30 H :    0.028361
  31 H :    0.033771
  32 H :    0.034631
  33 H :    0.020909

  Mayer bond orders larger than 0.100000
B(  0-S ,  1-C ) :   1.1294 B(  0-S ,  4-C ) :   1.1640 B(  1-C ,  2-C ) :   1.6124
B(  1-C , 32-H ) :   0.9672 B(  2-C ,  3-C ) :   1.2399 B(  2-C ,  6-C ) :   1.0373
B(  3-C ,  4-C ) :   1.5560 B(  3-C ,  5-H ) :   0.9920 B(  4-C , 20-C ) :   1.0205
B(  6-C ,  7-H ) :   0.9342 B(  6-C ,  8-H ) :   0.9409 B(  6-C ,  9-C ) :   1.0384
B(  9-C , 10-H ) :   0.9541 B(  9-C , 11-H ) :   0.9633 B(  9-C , 12-C ) :   1.0795
B( 12-C , 13-H ) :   0.9756 B( 12-C , 14-H ) :   0.9749 B( 12-C , 15-H ) :   0.9761
B( 16-S , 17-C ) :   1.1752 B( 16-S , 20-C ) :   1.1499 B( 17-C , 18-C ) :   1.5998
B( 17-C , 33-H ) :   0.9654 B( 18-C , 19-C ) :   1.2456 B( 18-C , 21-H ) :   0.9964
B( 19-C , 20-C ) :   1.6001 B( 19-C , 22-C ) :   1.0380 B( 22-C , 23-H ) :   0.9412
B( 22-C , 24-H ) :   0.9363 B( 22-C , 25-C ) :   1.0742 B( 25-C , 26-H ) :   0.9548
B( 25-C , 27-H ) :   0.9583 B( 25-C , 28-C ) :   1.0679 B( 28-C , 29-H ) :   0.9779
B( 28-C , 30-H ) :   0.9723 B( 28-C , 31-H ) :   0.9758

Dispersion correction           -0.014419805
FINAL SINGLE POINT ENERGY     -1339.872681151391

DIPOLE MOMENT
-------------
                                X             Y             Z
Electronic contribution:    -22.30988       6.94873      -7.69156
Nuclear contribution   :     22.81468      -7.16134       8.06719
                        -----------------------------------------
Total Dipole Moment    :      0.50480      -0.21261       0.37564
                        -----------------------------------------
Magnitude (a.u.)       :      0.66418
Magnitude (Debye)      :      1.68821

Rotational constants in cm-1:     0.019208     0.007789     0.007081
Rotational constants in MHz :   575.836604   233.502194   212.280432

                             ****ORCA TERMINATED NORMALLY****
TOTAL RUN TIME: 0 days 0 hours 0 minutes 21 seconds 453 msec
