                         Program Version 4.2.1 -  RELEASE  -
|  1> ! wB97X-D3 SP def2-SVP
|  2> %pal
|  3> nprocs 24
|  4> end
|  5>
|  6> * xyz 0 1
|  7> S 	 -103.337 	 1.10769 	 -103.709
|  8> C 	 -102.186 	 1.02763 	 -104.983
|  9> C 	 -101.492 	 -0.157574 	 -104.882
| 10> C 	 -101.83 	 -0.968595 	 -103.768
| 11> C 	 -102.879 	 -0.376108 	 -103.021
| 12> H 	 -101.451 	 -1.99653 	 -103.5
| 13> C 	 -100.461 	 -0.586582 	 -105.915
| 14> H 	 -99.7433 	 -1.21463 	 -105.401
| 15> H 	 -99.9916 	 0.242259 	 -106.435
| 16> C 	 -101.15 	 -1.43139 	 -106.92
| 17> H 	 -101.691 	 -2.21564 	 -106.519
| 18> H 	 -101.855 	 -0.785208 	 -107.458
| 19> C 	 -100.207 	 -2.08324 	 -107.94
| 20> H 	 -99.4808 	 -1.33918 	 -108.313
| 21> H 	 -99.6053 	 -2.8398 	 -107.48
| 22> H 	 -100.664 	 -2.51208 	 -108.868
| 23> S 	 -102.323 	 -0.772635 	 -100.414
| 24> C 	 -103.591 	 -1.3749 	 -99.3501
| 25> C 	 -104.792 	 -1.51094 	 -100.045
| 26> C 	 -104.71 	 -1.2466 	 -101.46
| 27> C 	 -103.431 	 -0.809673 	 -101.78
| 28> H 	 -105.698 	 -1.82323 	 -99.5096
| 29> C 	 -105.91 	 -1.48693 	 -102.386
| 30> H 	 -106.299 	 -2.36992 	 -102.024
| 31> H 	 -105.5 	 -1.47799 	 -103.395
| 32> C 	 -106.888 	 -0.364238 	 -102.547
| 33> H 	 -106.344 	 0.591053 	 -102.638
| 34> H 	 -107.434 	 -0.31417 	 -101.646
| 35> C 	 -107.911 	 -0.478294 	 -103.726
| 36> H 	 -108.598 	 0.425912 	 -103.752
| 37> H 	 -108.409 	 -1.40478 	 -103.561
| 38> H 	 -107.501 	 -0.500249 	 -104.785
| 39> H 	 -101.9 	 1.71045 	 -105.791
| 40> H 	 -103.514 	 -1.69112 	 -98.3158
| 41> *
| 42>
| 43>                          ****END OF INPUT****

CARTESIAN COORDINATES (ANGSTROEM)
---------------------------------
  S    -103.337000    1.107690  -103.709000
  C    -102.186000    1.027630  -104.983000
  C    -101.492000   -0.157574  -104.882000
  C    -101.830000   -0.968595  -103.768000
  C    -102.879000   -0.376108  -103.021000
  H    -101.451000   -1.996530  -103.500000
  C    -100.461000   -0.586582  -105.915000
  H    -99.743300   -1.214630  -105.401000
  H    -99.991600    0.242259  -106.435000
  C    -101.150000   -1.431390  -106.920000
  H    -101.691000   -2.215640  -106.519000
  H    -101.855000   -0.785208  -107.458000
  C    -100.207000   -2.083240  -107.940000
  H    -99.480800   -1.339180  -108.313000
  H    -99.605300   -2.839800  -107.480000
  H    -100.664000   -2.512080  -108.868000
  S    -102.323000   -0.772635  -100.414000
  C    -103.591000   -1.374900  -99.350100
  C    -104.792000   -1.510940  -100.045000
  C    -104.710000   -1.246600  -101.460000
  C    -103.431000   -0.809673  -101.780000
  H    -105.698000   -1.823230  -99.509600
  C    -105.910000   -1.486930  -102.386000
  H    -106.299000   -2.369920  -102.024000
  H    -105.500000   -1.477990  -103.395000
  C    -106.888000   -0.364238  -102.547000
  H    -106.344000    0.591053  -102.638000
  H    -107.434000   -0.314170  -101.646000
  C    -107.911000   -0.478294  -103.726000
  H    -108.598000    0.425912  -103.752000
  H    -108.409000   -1.404780  -103.561000
  H    -107.501000   -0.500249  -104.785000
  H    -101.900000    1.710450  -105.791000
  H    -103.514000   -1.691120  -98.315800

 Total Charge           Charge          ....    0
 Multiplicity           Mult            ....    1
 Number of Electrons    NEL             ....  134
 Basis Dimension        Dim             ....  322

ORBITAL ENERGIES
----------------

  NO   OCC          E(Eh)            E(eV)
   0   2.0000     -88.969428     -2420.9812
   1   2.0000     -88.967680     -2420.9337
   2   2.0000     -10.325288      -280.9654
   3   2.0000     -10.323893      -280.9274
   4   2.0000     -10.318292      -280.7750
   5   2.0000     -10.310362      -280.5592
   6   2.0000     -10.305305      -280.4216
   7   2.0000     -10.300409      -280.2884
   8   2.0000     -10.297810      -280.2177
   9   2.0000     -10.295722      -280.1608
  10   2.0000     -10.286695      -279.9152
  11   2.0000     -10.285523      -279.8833
  12   2.0000     -10.284800      -279.8636
  13   2.0000     -10.280967      -279.7593
  14   2.0000     -10.276648      -279.6418
  15   2.0000     -10.274934      -279.5952
  16   2.0000      -8.084823      -219.9992
  17   2.0000      -8.081810      -219.9172
  18   2.0000      -6.043215      -164.4442
  19   2.0000      -6.040422      -164.3682
  20   2.0000      -6.038897      -164.3267
  21   2.0000      -6.036373      -164.2581
  22   2.0000      -6.036010      -164.2482
  23   2.0000      -6.032523      -164.1533
  24   2.0000      -1.012750       -27.5583
  25   2.0000      -0.984452       -26.7883
  26   2.0000      -0.922364       -25.0988
  27   2.0000      -0.912271       -24.8242
  28   2.0000      -0.871473       -23.7140
  29   2.0000      -0.849218       -23.1084
  30   2.0000      -0.845314       -23.0022
  31   2.0000      -0.809964       -22.0402
  32   2.0000      -0.784832       -21.3564
  33   2.0000      -0.771862       -21.0034
  34   2.0000      -0.708286       -19.2735
  35   2.0000      -0.697974       -18.9928
  36   2.0000      -0.692934       -18.8557
  37   2.0000      -0.664137       -18.0721
  38   2.0000      -0.638199       -17.3663
  39   2.0000      -0.617039       -16.7905
  40   2.0000      -0.593588       -16.1524
  41   2.0000      -0.578345       -15.7376
  42   2.0000      -0.573269       -15.5994
  43   2.0000      -0.565110       -15.3774
  44   2.0000      -0.528815       -14.3898
  45   2.0000      -0.522460       -14.2169
  46   2.0000      -0.517291       -14.0762
  47   2.0000      -0.507088       -13.7986
  48   2.0000      -0.501945       -13.6586
  49   2.0000      -0.500674       -13.6240
  50   2.0000      -0.493313       -13.4237
  51   2.0000      -0.482190       -13.1211
  52   2.0000      -0.470909       -12.8141
  53   2.0000      -0.469075       -12.7642
  54   2.0000      -0.459237       -12.4965
  55   2.0000      -0.449757       -12.2385
  56   2.0000      -0.443834       -12.0773
  57   2.0000      -0.438826       -11.9411
  58   2.0000      -0.433489       -11.7958
  59   2.0000      -0.425170       -11.5695
  60   2.0000      -0.416916       -11.3449
  61   2.0000      -0.413687       -11.2570
  62   2.0000      -0.411688       -11.2026
  63   2.0000      -0.336150        -9.1471
  64   2.0000      -0.332334        -9.0433
  65   2.0000      -0.327376        -8.9084
  66   2.0000      -0.301227        -8.1968
  67   0.0000       0.036227         0.9858
  68   0.0000       0.063374         1.7245
  69   0.0000       0.110338         3.0025
  70   0.0000       0.122125         3.3232
  71   0.0000       0.129366         3.5202

MULLIKEN ATOMIC CHARGES
-----------------------
   0 S :    0.142231
   1 C :   -0.109937
   2 C :   -0.118507
   3 C :    0.021886
   4 C :   -0.194221
   5 H :    0.038224
   6 C :    0.094780
   7 H :    0.015254
   8 H :    0.019827
   9 C :   -0.048399
  10 H :    0.013983
  11 H :    0.016289
  12 C :   -0.050219
  13 H :    0.016909
  14 H :    0.022947
  15 H :    0.042607
  16 S :    0.128547
  17 C :   -0.095439
  18 C :   -0.054725
  19 C :   -0.031606
  20 C :   -0.187720
  21 H :    0.023409
  22 C :    0.135696
  23 H :    0.010590
  24 H :    0.019843
  25 C :   -0.060950
  26 H :    0.027709
  27 H :    0.009499
  28 C :   -0.076130
  29 H :    0.049444
  30 H :    0.029476
  31 H :    0.042528
  32 H :    0.047830
  33 H :    0.058346
Sum of atomic charges:   -0.0000000

LOEWDIN ATOMIC CHARGES
----------------------
   0 S :    0.458846
   1 C :   -0.224787
   2 C :   -0.061059
   3 C :   -0.070544
   4 C :   -0.222040
   5 H :    0.043485
   6 C :   -0.024389
   7 H :    0.027710
   8 H :    0.028438
   9 C :   -0.036744
  10 H :    0.014843
  11 H :    0.023607
  12 C :   -0.069903
  13 H :    0.022373
  14 H :    0.018733
  15 H :    0.031447
  16 S :    0.408443
  17 C :   -0.189629
  18 C :   -0.074043
  19 C :   -0.047058
  20 C :   -0.205906
  21 H :    0.031719
  22 C :   -0.022653
  23 H :    0.020624
  24 H :    0.035738
  25 C :   -0.039368
  26 H :    0.023010
  27 H :    0.014159
  28 C :   -0.071281
  29 H :    0.036266
  30 H :    0.019019
  31 H :    0.030495
  32 H :    0.038178
  33 H :    0.032270

  Mayer bond orders larger than 0.100000
B(  0-S ,  1-C ) :   1.1435 B(  0-S ,  4-C ) :   1.2001 B(  1-C ,  2-C ) :   1.5875
B(  1-C ,  4-C ) :   0.1013 B(  1-C , 32-H ) :   0.9641 B(  2-C ,  3-C ) :   1.2739
B(  2-C ,  6-C ) :   1.0329 B(  3-C ,  4-C ) :   1.5164 B(  3-C ,  5-H ) :   0.9883
B(  4-C , 20-C ) :   1.0328 B(  6-C ,  7-H ) :   0.9361 B(  6-C ,  8-H ) :   0.9371
B(  6-C ,  9-C ) :   1.0742 B(  9-C , 10-H ) :   0.9567 B(  9-C , 11-H ) :   0.9515
B(  9-C , 12-C ) :   1.0795 B( 12-C , 13-H ) :   0.9716 B( 12-C , 14-H ) :   0.9753
B( 12-C , 15-H ) :   0.9752 B( 16-S , 17-C ) :   1.1412 B( 16-S , 20-C ) :   1.1434
B( 17-C , 18-C ) :   1.6277 B( 17-C , 20-C ) :   0.1004 B( 17-C , 33-H ) :   0.9660
B( 18-C , 19-C ) :   1.2275 B( 18-C , 21-H ) :   0.9809 B( 19-C , 20-C ) :   1.5991
B( 19-C , 22-C ) :   1.0448 B( 22-C , 23-H ) :   0.9291 B( 22-C , 24-H ) :   0.9227
B( 22-C , 25-C ) :   1.0703 B( 25-C , 26-H ) :   0.9515 B( 25-C , 27-H ) :   0.9513
B( 25-C , 28-C ) :   1.0784 B( 28-C , 29-H ) :   0.9750 B( 28-C , 30-H ) :   0.9751
B( 28-C , 31-H ) :   0.9756

Dispersion correction           -0.014090713
FINAL SINGLE POINT ENERGY     -1339.874199611133

DIPOLE MOMENT
-------------
                                X             Y             Z
Electronic contribution:      6.38135       7.85506      20.52588
Nuclear contribution   :     -6.51867      -8.15479     -20.77317
                        -----------------------------------------
Total Dipole Moment    :     -0.13732      -0.29974      -0.24729
                        -----------------------------------------
Magnitude (a.u.)       :      0.41213
Magnitude (Debye)      :      1.04754

Rotational constants in cm-1:     0.018705     0.008150     0.006678
Rotational constants in MHz :   560.770241   244.324706   200.210131

                             ****ORCA TERMINATED NORMALLY****
TOTAL RUN TIME: 0 days 0 hours 0 minutes 20 seconds 71 msec
