                         Program Version 4.2.1 -  RELEASE  -
|  1> ! wB97X-D3 SP def2-SVP
|  2> %pal
|  3> nprocs 24
|  4> end
|  5>
|  6> * xyz 0 1
|  7> S 	 -100.339 	 4.27878 	 -5.31218
|  8> C 	 -98.9035 	 5.28236 	 -5.11324
|  9> C 	 -99.2929 	 6.59046 	 -4.92639
| 10> C 	 -100.64 	 6.9494 	 -5.31494
| 11> C 	 -101.28 	 5.74688 	 -5.68165
| 12> H 	 -101.223 	 7.88312 	 -5.26677
| 13> C 	 -98.3079 	 7.60256 	 -4.42045
| 14> H 	 -98.78 	 8.51264 	 -4.88249
| 15> H 	 -97.2621 	 7.42077 	 -4.80791
| 16> C 	 -98.2249 	 7.72913 	 -2.90232
| 17> H 	 -97.7771 	 6.83821 	 -2.5469
| 18> H 	 -97.5789 	 8.59416 	 -2.69389
| 19> C 	 -99.454 	 8.04802 	 -2.19338
| 20> H 	 -100.029 	 7.15457 	 -2.08544
| 21> H 	 -99.2689 	 8.29662 	 -1.15224
| 22> H 	 -100.072 	 8.79235 	 -2.62479
| 23> S 	 -103.232 	 7.0117 	 -6.9782
| 24> C 	 -104.802 	 6.19429 	 -7.1101
| 25> C 	 -104.982 	 5.21503 	 -6.1679
| 26> C 	 -103.753 	 4.97356 	 -5.49214
| 27> C 	 -102.729 	 5.73412 	 -5.92005
| 28> H 	 -105.962 	 4.72536 	 -6.07044
| 29> C 	 -103.621 	 3.87818 	 -4.50778
| 30> H 	 -103.059 	 3.00344 	 -4.85206
| 31> H 	 -104.569 	 3.29281 	 -4.33262
| 32> C 	 -103.319 	 4.29033 	 -3.06751
| 33> H 	 -102.426 	 4.93712 	 -2.93081
| 34> H 	 -103.054 	 3.37564 	 -2.44907
| 35> C 	 -104.443 	 5.08506 	 -2.36084
| 36> H 	 -105.405 	 4.97907 	 -2.82982
| 37> H 	 -104.096 	 6.09572 	 -2.31231
| 38> H 	 -104.513 	 4.75631 	 -1.31594
| 39> H 	 -97.8897 	 4.90584 	 -4.78872
| 40> H 	 -105.658 	 6.40528 	 -7.76096
| 41> *
| 42>
| 43>                          ****END OF INPUT****

CARTESIAN COORDINATES (ANGSTROEM)
---------------------------------
  S    -100.339000    4.278780   -5.312180
  C    -98.903500    5.282360   -5.113240
  C    -99.292900    6.590460   -4.926390
  C    -100.640000    6.949400   -5.314940
  C    -101.280000    5.746880   -5.681650
  H    -101.223000    7.883120   -5.266770
  C    -98.307900    7.602560   -4.420450
  H    -98.780000    8.512640   -4.882490
  H    -97.262100    7.420770   -4.807910
  C    -98.224900    7.729130   -2.902320
  H    -97.777100    6.838210   -2.546900
  H    -97.578900    8.594160   -2.693890
  C    -99.454000    8.048020   -2.193380
  H    -100.029000    7.154570   -2.085440
  H    -99.268900    8.296620   -1.152240
  H    -100.072000    8.792350   -2.624790
  S    -103.232000    7.011700   -6.978200
  C    -104.802000    6.194290   -7.110100
  C    -104.982000    5.215030   -6.167900
  C    -103.753000    4.973560   -5.492140
  C    -102.729000    5.734120   -5.920050
  H    -105.962000    4.725360   -6.070440
  C    -103.621000    3.878180   -4.507780
  H    -103.059000    3.003440   -4.852060
  H    -104.569000    3.292810   -4.332620
  C    -103.319000    4.290330   -3.067510
  H    -102.426000    4.937120   -2.930810
  H    -103.054000    3.375640   -2.449070
  C    -104.443000    5.085060   -2.360840
  H    -105.405000    4.979070   -2.829820
  H    -104.096000    6.095720   -2.312310
  H    -104.513000    4.756310   -1.315940
  H    -97.889700    4.905840   -4.788720
  H    -105.658000    6.405280   -7.760960

 Total Charge           Charge          ....    0
 Multiplicity           Mult            ....    1
 Number of Electrons    NEL             ....  134
 Basis Dimension        Dim             ....  322

ORBITAL ENERGIES
----------------

  NO   OCC          E(Eh)            E(eV)
   0   2.0000     -88.970527     -2421.0111
   1   2.0000     -88.966869     -2420.9116
   2   2.0000     -10.337212      -281.2898
   3   2.0000     -10.320439      -280.8334
   4   2.0000     -10.316141      -280.7165
   5   2.0000     -10.316106      -280.7155
   6   2.0000     -10.304013      -280.3865
   7   2.0000     -10.302209      -280.3373
   8   2.0000     -10.295857      -280.1645
   9   2.0000     -10.294429      -280.1257
  10   2.0000     -10.292008      -280.0598
  11   2.0000     -10.290284      -280.0129
  12   2.0000     -10.285555      -279.8842
  13   2.0000     -10.277496      -279.6649
  14   2.0000     -10.269224      -279.4398
  15   2.0000     -10.264543      -279.3124
  16   2.0000      -8.083824      -219.9720
  17   2.0000      -8.081652      -219.9129
  18   2.0000      -6.042472      -164.4240
  19   2.0000      -6.040301      -164.3649
  20   2.0000      -6.038817      -164.3246
  21   2.0000      -6.036417      -164.2593
  22   2.0000      -6.034240      -164.2000
  23   2.0000      -6.031994      -164.1389
  24   2.0000      -1.011024       -27.5114
  25   2.0000      -0.984256       -26.7830
  26   2.0000      -0.918780       -25.0013
  27   2.0000      -0.907298       -24.6888
  28   2.0000      -0.874197       -23.7881
  29   2.0000      -0.854571       -23.2540
  30   2.0000      -0.844465       -22.9791
  31   2.0000      -0.816497       -22.2180
  32   2.0000      -0.782934       -21.3047
  33   2.0000      -0.770625       -20.9698
  34   2.0000      -0.704252       -19.1637
  35   2.0000      -0.701292       -19.0831
  36   2.0000      -0.683565       -18.6008
  37   2.0000      -0.665620       -18.1124
  38   2.0000      -0.635881       -17.3032
  39   2.0000      -0.604276       -16.4432
  40   2.0000      -0.596679       -16.2364
  41   2.0000      -0.577827       -15.7235
  42   2.0000      -0.554489       -15.0884
  43   2.0000      -0.551278       -15.0010
  44   2.0000      -0.545530       -14.8446
  45   2.0000      -0.534750       -14.5513
  46   2.0000      -0.525409       -14.2971
  47   2.0000      -0.516560       -14.0563
  48   2.0000      -0.499940       -13.6041
  49   2.0000      -0.490091       -13.3361
  50   2.0000      -0.485699       -13.2165
  51   2.0000      -0.481896       -13.1131
  52   2.0000      -0.474433       -12.9100
  53   2.0000      -0.462349       -12.5812
  54   2.0000      -0.458424       -12.4743
  55   2.0000      -0.450260       -12.2522
  56   2.0000      -0.443890       -12.0789
  57   2.0000      -0.437601       -11.9077
  58   2.0000      -0.433186       -11.7876
  59   2.0000      -0.427276       -11.6268
  60   2.0000      -0.408391       -11.1129
  61   2.0000      -0.403933       -10.9916
  62   2.0000      -0.399313       -10.8659
  63   2.0000      -0.355829        -9.6826
  64   2.0000      -0.333186        -9.0665
  65   2.0000      -0.326639        -8.8883
  66   2.0000      -0.284738        -7.7481
  67   0.0000       0.020770         0.5652
  68   0.0000       0.067345         1.8325
  69   0.0000       0.089164         2.4263
  70   0.0000       0.113258         3.0819
  71   0.0000       0.130787         3.5589

MULLIKEN ATOMIC CHARGES
-----------------------
   0 S :    0.102141
   1 C :   -0.116409
   2 C :   -0.098405
   3 C :   -0.018991
   4 C :   -0.089571
   5 H :    0.050000
   6 C :    0.015016
   7 H :    0.024556
   8 H :    0.042568
   9 C :   -0.028437
  10 H :    0.012288
  11 H :    0.028977
  12 C :   -0.025781
  13 H :    0.022309
  14 H :    0.024680
  15 H :    0.020556
  16 S :    0.099016
  17 C :   -0.085143
  18 C :   -0.046721
  19 C :   -0.008595
  20 C :   -0.158272
  21 H :    0.031213
  22 C :    0.015924
  23 H :    0.039706
  24 H :    0.014796
  25 C :   -0.114015
  26 H :    0.036284
  27 H :    0.031733
  28 C :   -0.031520
  29 H :    0.026140
  30 H :    0.032531
  31 H :    0.029976
  32 H :    0.069068
  33 H :    0.052379
Sum of atomic charges:   -0.0000000

LOEWDIN ATOMIC CHARGES
----------------------
   0 S :    0.396488
   1 C :   -0.212226
   2 C :   -0.061707
   3 C :   -0.075542
   4 C :   -0.168153
   5 H :    0.038139
   6 C :   -0.038753
   7 H :    0.031570
   8 H :    0.038281
   9 C :   -0.039841
  10 H :    0.018776
  11 H :    0.027988
  12 C :   -0.063635
  13 H :    0.023579
  14 H :    0.029686
  15 H :    0.019554
  16 S :    0.403262
  17 C :   -0.178758
  18 C :   -0.065609
  19 C :   -0.072293
  20 C :   -0.187978
  21 H :    0.039995
  22 C :   -0.052222
  23 H :    0.031524
  24 H :    0.036915
  25 C :   -0.049687
  26 H :    0.020683
  27 H :    0.027203
  28 C :   -0.065182
  29 H :    0.019137
  30 H :    0.025776
  31 H :    0.029791
  32 H :    0.040817
  33 H :    0.032421

  Mayer bond orders larger than 0.100000
B(  0-S ,  1-C ) :   1.1020 B(  0-S ,  4-C ) :   1.1626 B(  1-C ,  2-C ) :   1.6308
B(  1-C , 32-H ) :   0.9594 B(  2-C ,  3-C ) :   1.2235 B(  2-C ,  6-C ) :   1.0140
B(  3-C ,  4-C ) :   1.5381 B(  3-C ,  5-H ) :   0.9818 B(  4-C , 20-C ) :   1.0346
B(  6-C ,  7-H ) :   0.9427 B(  6-C ,  8-H ) :   0.9462 B(  6-C ,  9-C ) :   1.0764
B(  9-C , 10-H ) :   0.9496 B(  9-C , 11-H ) :   0.9538 B(  9-C , 12-C ) :   1.0979
B( 12-C , 13-H ) :   0.9646 B( 12-C , 14-H ) :   0.9652 B( 12-C , 15-H ) :   0.9725
B( 16-S , 17-C ) :   1.1286 B( 16-S , 20-C ) :   1.1218 B( 17-C , 18-C ) :   1.6619
B( 17-C , 33-H ) :   0.9610 B( 18-C , 19-C ) :   1.1976 B( 18-C , 21-H ) :   0.9891
B( 19-C , 20-C ) :   1.6349 B( 19-C , 22-C ) :   1.0400 B( 22-C , 23-H ) :   0.9381
B( 22-C , 24-H ) :   0.9329 B( 22-C , 25-C ) :   1.0656 B( 25-C , 26-H ) :   0.9662
B( 25-C , 27-H ) :   0.9613 B( 25-C , 28-C ) :   1.0544 B( 28-C , 29-H ) :   0.9807
B( 28-C , 30-H ) :   0.9806 B( 28-C , 31-H ) :   0.9764

Dispersion correction           -0.015660921
FINAL SINGLE POINT ENERGY     -1339.845696430528

DIPOLE MOMENT
-------------
                                X             Y             Z
Electronic contribution:     -2.14057      -3.79444     -21.72716
Nuclear contribution   :      2.05591       3.81257      22.25816
                        -----------------------------------------
Total Dipole Moment    :     -0.08466       0.01813       0.53100
                        -----------------------------------------
Magnitude (a.u.)       :      0.53801
Magnitude (Debye)      :      1.36751

Rotational constants in cm-1:     0.019909     0.009319     0.008413
Rotational constants in MHz :   596.848920   279.381616   252.210090

                             ****ORCA TERMINATED NORMALLY****
TOTAL RUN TIME: 0 days 0 hours 0 minutes 22 seconds 818 msec
