                         Program Version 4.2.1 -  RELEASE  -
|  1> ! wB97X-D3 SP def2-SVP
|  2> %pal
|  3> nprocs 24
|  4> end
|  5>
|  6> * xyz 0 1
|  7> S 	 -52.7836 	 -50.8383 	 -78.4003
|  8> C 	 -52.8909 	 -51.0047 	 -80.173
|  9> C 	 -52.9975 	 -49.7789 	 -80.796
| 10> C 	 -52.9901 	 -48.6799 	 -79.8694
| 11> C 	 -52.8176 	 -49.0261 	 -78.554
| 12> H 	 -52.9539 	 -47.5884 	 -80.1391
| 13> C 	 -52.982 	 -49.5578 	 -82.2621
| 14> H 	 -52.3708 	 -50.2743 	 -82.8286
| 15> H 	 -52.5531 	 -48.5569 	 -82.6137
| 16> C 	 -54.3655 	 -49.5941 	 -83.0092
| 17> H 	 -54.2221 	 -49.5108 	 -84.091
| 18> H 	 -54.8371 	 -50.5803 	 -82.7709
| 19> C 	 -55.2737 	 -48.4144 	 -82.6801
| 20> H 	 -55.9254 	 -48.6445 	 -81.7596
| 21> H 	 -54.704 	 -47.4688 	 -82.5491
| 22> H 	 -56.0093 	 -48.2543 	 -83.4732
| 23> S 	 -50.8071 	 -48.7318 	 -76.6762
| 24> C 	 -50.9941 	 -47.3774 	 -75.4854
| 25> C 	 -52.0459 	 -46.546 	 -75.8563
| 26> C 	 -52.7975 	 -46.958 	 -77.0043
| 27> C 	 -52.2951 	 -48.1768 	 -77.467
| 28> H 	 -52.324 	 -45.6559 	 -75.3316
| 29> C 	 -54.1292 	 -46.3388 	 -77.4293
| 30> H 	 -54.7197 	 -46.3846 	 -76.4978
| 31> H 	 -54.689 	 -46.9993 	 -78.0567
| 32> C 	 -53.9922 	 -44.9943 	 -78.119
| 33> H 	 -53.1018 	 -45.0563 	 -78.7195
| 34> H 	 -53.7846 	 -44.2155 	 -77.4402
| 35> C 	 -55.0981 	 -44.6551 	 -79.0331
| 36> H 	 -54.8218 	 -43.8657 	 -79.7296
| 37> H 	 -56.056 	 -44.476 	 -78.6069
| 38> H 	 -55.3016 	 -45.5854 	 -79.6229
| 39> H 	 -52.8804 	 -51.9077 	 -80.7548
| 40> H 	 -50.3346 	 -47.2188 	 -74.5377
| 41> *
| 42>
| 43>                          ****END OF INPUT****

CARTESIAN COORDINATES (ANGSTROEM)
---------------------------------
  S    -52.783600  -50.838300  -78.400300
  C    -52.890900  -51.004700  -80.173000
  C    -52.997500  -49.778900  -80.796000
  C    -52.990100  -48.679900  -79.869400
  C    -52.817600  -49.026100  -78.554000
  H    -52.953900  -47.588400  -80.139100
  C    -52.982000  -49.557800  -82.262100
  H    -52.370800  -50.274300  -82.828600
  H    -52.553100  -48.556900  -82.613700
  C    -54.365500  -49.594100  -83.009200
  H    -54.222100  -49.510800  -84.091000
  H    -54.837100  -50.580300  -82.770900
  C    -55.273700  -48.414400  -82.680100
  H    -55.925400  -48.644500  -81.759600
  H    -54.704000  -47.468800  -82.549100
  H    -56.009300  -48.254300  -83.473200
  S    -50.807100  -48.731800  -76.676200
  C    -50.994100  -47.377400  -75.485400
  C    -52.045900  -46.546000  -75.856300
  C    -52.797500  -46.958000  -77.004300
  C    -52.295100  -48.176800  -77.467000
  H    -52.324000  -45.655900  -75.331600
  C    -54.129200  -46.338800  -77.429300
  H    -54.719700  -46.384600  -76.497800
  H    -54.689000  -46.999300  -78.056700
  C    -53.992200  -44.994300  -78.119000
  H    -53.101800  -45.056300  -78.719500
  H    -53.784600  -44.215500  -77.440200
  C    -55.098100  -44.655100  -79.033100
  H    -54.821800  -43.865700  -79.729600
  H    -56.056000  -44.476000  -78.606900
  H    -55.301600  -45.585400  -79.622900
  H    -52.880400  -51.907700  -80.754800
  H    -50.334600  -47.218800  -74.537700

 Total Charge           Charge          ....    0
 Multiplicity           Mult            ....    1
 Number of Electrons    NEL             ....  134
 Basis Dimension        Dim             ....  322

ORBITAL ENERGIES
----------------

  NO   OCC          E(Eh)            E(eV)
   0   2.0000     -88.968997     -2420.9695
   1   2.0000     -88.968066     -2420.9441
   2   2.0000     -10.333936      -281.2007
   3   2.0000     -10.331055      -281.1223
   4   2.0000     -10.329989      -281.0933
   5   2.0000     -10.318639      -280.7845
   6   2.0000     -10.303954      -280.3848
   7   2.0000     -10.303787      -280.3803
   8   2.0000     -10.301127      -280.3079
   9   2.0000     -10.298611      -280.2395
  10   2.0000     -10.296359      -280.1782
  11   2.0000     -10.291383      -280.0428
  12   2.0000     -10.291105      -280.0352
  13   2.0000     -10.283827      -279.8372
  14   2.0000     -10.278095      -279.6812
  15   2.0000     -10.275099      -279.5997
  16   2.0000      -8.082143      -219.9263
  17   2.0000      -8.081082      -219.8974
  18   2.0000      -6.040826      -164.3792
  19   2.0000      -6.039819      -164.3518
  20   2.0000      -6.036971      -164.2743
  21   2.0000      -6.035910      -164.2455
  22   2.0000      -6.032685      -164.1577
  23   2.0000      -6.031608      -164.1284
  24   2.0000      -0.997905       -27.1544
  25   2.0000      -0.975184       -26.5361
  26   2.0000      -0.917894       -24.9772
  27   2.0000      -0.906684       -24.6721
  28   2.0000      -0.864507       -23.5244
  29   2.0000      -0.855059       -23.2673
  30   2.0000      -0.842232       -22.9183
  31   2.0000      -0.813432       -22.1346
  32   2.0000      -0.781269       -21.2594
  33   2.0000      -0.768626       -20.9154
  34   2.0000      -0.707546       -19.2533
  35   2.0000      -0.698648       -19.0112
  36   2.0000      -0.690988       -18.8027
  37   2.0000      -0.659167       -17.9368
  38   2.0000      -0.638141       -17.3647
  39   2.0000      -0.611583       -16.6420
  40   2.0000      -0.595043       -16.1919
  41   2.0000      -0.572338       -15.5741
  42   2.0000      -0.570471       -15.5233
  43   2.0000      -0.543234       -14.7821
  44   2.0000      -0.538928       -14.6650
  45   2.0000      -0.535832       -14.5807
  46   2.0000      -0.518422       -14.1070
  47   2.0000      -0.507883       -13.8202
  48   2.0000      -0.501626       -13.6500
  49   2.0000      -0.494194       -13.4477
  50   2.0000      -0.488463       -13.2918
  51   2.0000      -0.474692       -12.9170
  52   2.0000      -0.468809       -12.7569
  53   2.0000      -0.462965       -12.5979
  54   2.0000      -0.454368       -12.3640
  55   2.0000      -0.449756       -12.2385
  56   2.0000      -0.441268       -12.0075
  57   2.0000      -0.433893       -11.8068
  58   2.0000      -0.432676       -11.7737
  59   2.0000      -0.425572       -11.5804
  60   2.0000      -0.420647       -11.4464
  61   2.0000      -0.416864       -11.3434
  62   2.0000      -0.412637       -11.2284
  63   2.0000      -0.349501        -9.5104
  64   2.0000      -0.333534        -9.0759
  65   2.0000      -0.327065        -8.8999
  66   2.0000      -0.290120        -7.8946
  67   0.0000       0.022698         0.6176
  68   0.0000       0.065538         1.7834
  69   0.0000       0.102937         2.8011
  70   0.0000       0.116621         3.1734
  71   0.0000       0.119410         3.2493

MULLIKEN ATOMIC CHARGES
-----------------------
   0 S :    0.092328
   1 C :   -0.103519
   2 C :   -0.044468
   3 C :    0.032641
   4 C :   -0.157876
   5 H :    0.034209
   6 C :   -0.000554
   7 H :    0.030681
   8 H :    0.033587
   9 C :   -0.084116
  10 H :    0.033089
  11 H :    0.034371
  12 C :   -0.086479
  13 H :    0.049786
  14 H :    0.034465
  15 H :    0.034442
  16 S :    0.109239
  17 C :   -0.134484
  18 C :   -0.007865
  19 C :   -0.051989
  20 C :   -0.159741
  21 H :    0.010373
  22 C :    0.068424
  23 H :    0.038538
  24 H :    0.007679
  25 C :   -0.032511
  26 H :    0.021723
  27 H :    0.017500
  28 C :   -0.040143
  29 H :    0.038931
  30 H :    0.024190
  31 H :    0.020340
  32 H :    0.042749
  33 H :    0.094459
Sum of atomic charges:    0.0000000

LOEWDIN ATOMIC CHARGES
----------------------
   0 S :    0.361273
   1 C :   -0.176164
   2 C :   -0.069458
   3 C :   -0.057546
   4 C :   -0.174305
   5 H :    0.041154
   6 C :   -0.041790
   7 H :    0.032453
   8 H :    0.035705
   9 C :   -0.044480
  10 H :    0.024199
  11 H :    0.025399
  12 C :   -0.080404
  13 H :    0.035277
  14 H :    0.024765
  15 H :    0.025233
  16 S :    0.374272
  17 C :   -0.189082
  18 C :   -0.065664
  19 C :   -0.057684
  20 C :   -0.185441
  21 H :    0.027184
  22 C :   -0.026666
  23 H :    0.037856
  24 H :    0.024483
  25 C :   -0.041994
  26 H :    0.026917
  27 H :    0.018047
  28 C :   -0.063284
  29 H :    0.029411
  30 H :    0.019677
  31 H :    0.029108
  32 H :    0.028718
  33 H :    0.052831

  Mayer bond orders larger than 0.100000
B(  0-S ,  1-C ) :   1.1191 B(  0-S ,  4-C ) :   1.1195 B(  1-C ,  2-C ) :   1.6362
B(  1-C , 32-H ) :   0.9662 B(  2-C ,  3-C ) :   1.2220 B(  2-C ,  6-C ) :   1.0248
B(  3-C ,  4-C ) :   1.6022 B(  3-C ,  5-H ) :   0.9784 B(  4-C , 20-C ) :   1.0362
B(  6-C ,  7-H ) :   0.9450 B(  6-C ,  8-H ) :   0.9488 B(  6-C ,  9-C ) :   1.0729
B(  9-C , 10-H ) :   0.9592 B(  9-C , 11-H ) :   0.9558 B(  9-C , 12-C ) :   1.0729
B( 12-C , 13-H ) :   0.9740 B( 12-C , 14-H ) :   0.9732 B( 12-C , 15-H ) :   0.9763
B( 16-S , 17-C ) :   1.1172 B( 16-S , 20-C ) :   1.1390 B( 17-C , 18-C ) :   1.6285
B( 17-C , 33-H ) :   0.9556 B( 18-C , 19-C ) :   1.2344 B( 18-C , 21-H ) :   0.9854
B( 19-C , 20-C ) :   1.6004 B( 19-C , 22-C ) :   1.0459 B( 22-C , 23-H ) :   0.9335
B( 22-C , 24-H ) :   0.9364 B( 22-C , 25-C ) :   1.0434 B( 25-C , 26-H ) :   0.9546
B( 25-C , 27-H ) :   0.9468 B( 25-C , 28-C ) :   1.1018 B( 28-C , 29-H ) :   0.9727
B( 28-C , 30-H ) :   0.9713 B( 28-C , 31-H ) :   0.9696

Dispersion correction           -0.014625554
FINAL SINGLE POINT ENERGY     -1339.871001125359

DIPOLE MOMENT
-------------
                                X             Y             Z
Electronic contribution:     17.36508     -16.82741      19.81968
Nuclear contribution   :    -17.60910      17.30407     -20.23302
                        -----------------------------------------
Total Dipole Moment    :     -0.24402       0.47666      -0.41334
                        -----------------------------------------
Magnitude (a.u.)       :      0.67646
Magnitude (Debye)      :      1.71943

Rotational constants in cm-1:     0.016909     0.009971     0.006744
Rotational constants in MHz :   506.926274   298.929988   202.165995

                             ****ORCA TERMINATED NORMALLY****
TOTAL RUN TIME: 0 days 0 hours 0 minutes 20 seconds 832 msec
