                         Program Version 4.2.1 -  RELEASE  -
|  1> ! wB97X-D3 SP def2-SVP
|  2> %pal
|  3> nprocs 24
|  4> end
|  5>
|  6> * xyz 0 1
|  7> S 	 -38.112 	 19.8757 	 14.1165
|  8> C 	 -39.6339 	 19.2733 	 14.7376
|  9> C 	 -40.0211 	 20.0788 	 15.791
| 10> C 	 -39.0439 	 20.9953 	 16.3101
| 11> C 	 -37.8779 	 20.9236 	 15.5376
| 12> H 	 -38.9942 	 21.5941 	 17.2099
| 13> C 	 -41.3246 	 19.8459 	 16.5442
| 14> H 	 -42.043 	 19.598 	 15.8212
| 15> H 	 -41.6849 	 20.8209 	 16.8978
| 16> C 	 -41.2507 	 18.8841 	 17.747
| 17> H 	 -41.0356 	 17.8336 	 17.4766
| 18> H 	 -40.4954 	 19.1124 	 18.4613
| 19> C 	 -42.5803 	 18.8684 	 18.5313
| 20> H 	 -43.4657 	 18.5728 	 17.929
| 21> H 	 -42.5108 	 18.1972 	 19.4389
| 22> H 	 -42.7923 	 19.8365 	 18.8232
| 23> S 	 -35.1814 	 20.7191 	 15.9164
| 24> C 	 -34.2424 	 22.1241 	 16.4789
| 25> C 	 -35.0267 	 23.2892 	 16.4534
| 26> C 	 -36.3937 	 23.0026 	 16.0171
| 27> C 	 -36.6522 	 21.6519 	 15.7468
| 28> H 	 -34.7024 	 24.2619 	 16.8845
| 29> C 	 -37.4238 	 24.0788 	 16.0585
| 30> H 	 -37.4684 	 24.5595 	 17.0317
| 31> H 	 -38.3539 	 23.4728 	 15.9292
| 32> C 	 -37.3861 	 25.0874 	 14.9534
| 33> H 	 -36.5509 	 25.7285 	 15.1499
| 34> H 	 -38.2502 	 25.6688 	 15.0945
| 35> C 	 -37.4374 	 24.6594 	 13.4768
| 36> H 	 -38.0517 	 23.7689 	 13.3254
| 37> H 	 -36.4187 	 24.4035 	 13.1325
| 38> H 	 -37.8293 	 25.5616 	 12.8856
| 39> H 	 -40.2987 	 18.6066 	 14.3062
| 40> H 	 -33.2122 	 22.0915 	 16.8374
| 41> *
| 42>
| 43>                          ****END OF INPUT****

CARTESIAN COORDINATES (ANGSTROEM)
---------------------------------
  S    -38.112000   19.875700   14.116500
  C    -39.633900   19.273300   14.737600
  C    -40.021100   20.078800   15.791000
  C    -39.043900   20.995300   16.310100
  C    -37.877900   20.923600   15.537600
  H    -38.994200   21.594100   17.209900
  C    -41.324600   19.845900   16.544200
  H    -42.043000   19.598000   15.821200
  H    -41.684900   20.820900   16.897800
  C    -41.250700   18.884100   17.747000
  H    -41.035600   17.833600   17.476600
  H    -40.495400   19.112400   18.461300
  C    -42.580300   18.868400   18.531300
  H    -43.465700   18.572800   17.929000
  H    -42.510800   18.197200   19.438900
  H    -42.792300   19.836500   18.823200
  S    -35.181400   20.719100   15.916400
  C    -34.242400   22.124100   16.478900
  C    -35.026700   23.289200   16.453400
  C    -36.393700   23.002600   16.017100
  C    -36.652200   21.651900   15.746800
  H    -34.702400   24.261900   16.884500
  C    -37.423800   24.078800   16.058500
  H    -37.468400   24.559500   17.031700
  H    -38.353900   23.472800   15.929200
  C    -37.386100   25.087400   14.953400
  H    -36.550900   25.728500   15.149900
  H    -38.250200   25.668800   15.094500
  C    -37.437400   24.659400   13.476800
  H    -38.051700   23.768900   13.325400
  H    -36.418700   24.403500   13.132500
  H    -37.829300   25.561600   12.885600
  H    -40.298700   18.606600   14.306200
  H    -33.212200   22.091500   16.837400

 Total Charge           Charge          ....    0
 Multiplicity           Mult            ....    1
 Number of Electrons    NEL             ....  134
 Basis Dimension        Dim             ....  322

ORBITAL ENERGIES
----------------

  NO   OCC          E(Eh)            E(eV)
   0   2.0000     -88.967528     -2420.9295
   1   2.0000     -88.965995     -2420.8878
   2   2.0000     -10.334549      -281.2174
   3   2.0000     -10.327543      -281.0267
   4   2.0000     -10.326680      -281.0033
   5   2.0000     -10.311077      -280.5787
   6   2.0000     -10.305858      -280.4366
   7   2.0000     -10.303930      -280.3842
   8   2.0000     -10.302825      -280.3541
   9   2.0000     -10.299615      -280.2668
  10   2.0000     -10.288729      -279.9706
  11   2.0000     -10.286320      -279.9050
  12   2.0000     -10.285040      -279.8702
  13   2.0000     -10.280222      -279.7391
  14   2.0000     -10.276989      -279.6511
  15   2.0000     -10.274021      -279.5703
  16   2.0000      -8.081598      -219.9115
  17   2.0000      -8.080262      -219.8751
  18   2.0000      -6.040145      -164.3607
  19   2.0000      -6.038930      -164.3276
  20   2.0000      -6.036201      -164.2534
  21   2.0000      -6.034716      -164.2130
  22   2.0000      -6.032332      -164.1481
  23   2.0000      -6.030978      -164.1112
  24   2.0000      -1.003479       -27.3061
  25   2.0000      -0.979156       -26.6442
  26   2.0000      -0.912229       -24.8230
  27   2.0000      -0.908557       -24.7231
  28   2.0000      -0.871463       -23.7137
  29   2.0000      -0.849435       -23.1143
  30   2.0000      -0.842368       -22.9220
  31   2.0000      -0.816230       -22.2108
  32   2.0000      -0.779729       -21.2175
  33   2.0000      -0.768758       -20.9190
  34   2.0000      -0.709929       -19.3181
  35   2.0000      -0.704125       -19.1602
  36   2.0000      -0.692899       -18.8547
  37   2.0000      -0.659073       -17.9343
  38   2.0000      -0.647615       -17.6225
  39   2.0000      -0.614354       -16.7174
  40   2.0000      -0.589976       -16.0541
  41   2.0000      -0.567632       -15.4460
  42   2.0000      -0.558142       -15.1878
  43   2.0000      -0.553447       -15.0601
  44   2.0000      -0.545396       -14.8410
  45   2.0000      -0.528181       -14.3725
  46   2.0000      -0.520844       -14.1729
  47   2.0000      -0.511851       -13.9282
  48   2.0000      -0.504817       -13.7368
  49   2.0000      -0.502764       -13.6809
  50   2.0000      -0.497451       -13.5363
  51   2.0000      -0.473831       -12.8936
  52   2.0000      -0.467952       -12.7336
  53   2.0000      -0.459150       -12.4941
  54   2.0000      -0.455321       -12.3899
  55   2.0000      -0.445886       -12.1332
  56   2.0000      -0.443992       -12.0816
  57   2.0000      -0.441503       -12.0139
  58   2.0000      -0.435470       -11.8498
  59   2.0000      -0.422058       -11.4848
  60   2.0000      -0.416005       -11.3201
  61   2.0000      -0.413451       -11.2506
  62   2.0000      -0.405611       -11.0372
  63   2.0000      -0.347391        -9.4530
  64   2.0000      -0.329558        -8.9677
  65   2.0000      -0.327729        -8.9180
  66   2.0000      -0.294683        -8.0187
  67   0.0000       0.026200         0.7129
  68   0.0000       0.062901         1.7116
  69   0.0000       0.108328         2.9478
  70   0.0000       0.114650         3.1198
  71   0.0000       0.126763         3.4494

MULLIKEN ATOMIC CHARGES
-----------------------
   0 S :    0.109647
   1 C :   -0.068901
   2 C :   -0.108572
   3 C :    0.049368
   4 C :   -0.172131
   5 H :    0.029463
   6 C :    0.077128
   7 H :    0.005590
   8 H :    0.011673
   9 C :   -0.039482
  10 H :    0.027598
  11 H :    0.022100
  12 C :   -0.052535
  13 H :    0.029904
  14 H :    0.044310
  15 H :    0.007248
  16 S :    0.107233
  17 C :   -0.104006
  18 C :   -0.037446
  19 C :   -0.055191
  20 C :   -0.157204
  21 H :    0.040486
  22 C :    0.049334
  23 H :    0.032492
  24 H :    0.011788
  25 C :   -0.039312
  26 H :    0.014666
  27 H :    0.014062
  28 C :   -0.070236
  29 H :    0.038418
  30 H :    0.042127
  31 H :    0.049138
  32 H :    0.022036
  33 H :    0.069206
Sum of atomic charges:   -0.0000000

LOEWDIN ATOMIC CHARGES
----------------------
   0 S :    0.393343
   1 C :   -0.188598
   2 C :   -0.057983
   3 C :   -0.059691
   4 C :   -0.180580
   5 H :    0.037344
   6 C :   -0.030315
   7 H :    0.021727
   8 H :    0.029750
   9 C :   -0.035265
  10 H :    0.025720
  11 H :    0.021837
  12 C :   -0.064671
  13 H :    0.026112
  14 H :    0.033412
  15 H :    0.009083
  16 S :    0.400199
  17 C :   -0.176234
  18 C :   -0.074866
  19 C :   -0.052439
  20 C :   -0.213362
  21 H :    0.038840
  22 C :   -0.041230
  23 H :    0.032823
  24 H :    0.032199
  25 C :   -0.041851
  26 H :    0.017837
  27 H :    0.019817
  28 C :   -0.067006
  29 H :    0.026168
  30 H :    0.027891
  31 H :    0.038317
  32 H :    0.018108
  33 H :    0.033566

  Mayer bond orders larger than 0.100000
B(  0-S ,  1-C ) :   1.1177 B(  0-S ,  4-C ) :   1.1526 B(  1-C ,  2-C ) :   1.6200
B(  1-C , 32-H ) :   0.9776 B(  2-C ,  3-C ) :   1.2124 B(  2-C ,  6-C ) :   1.0390
B(  3-C ,  4-C ) :   1.5710 B(  3-C ,  5-H ) :   0.9918 B(  4-C , 20-C ) :   1.0437
B(  6-C ,  7-H ) :   0.9358 B(  6-C ,  8-H ) :   0.9392 B(  6-C ,  9-C ) :   1.0587
B(  9-C , 10-H ) :   0.9561 B(  9-C , 11-H ) :   0.9564 B(  9-C , 12-C ) :   1.0785
B( 12-C , 13-H ) :   0.9759 B( 12-C , 14-H ) :   0.9744 B( 12-C , 15-H ) :   0.9756
B( 16-S , 17-C ) :   1.1558 B( 16-S , 20-C ) :   1.1296 B( 17-C , 18-C ) :   1.6038
B( 17-C , 33-H ) :   0.9668 B( 18-C , 19-C ) :   1.2262 B( 18-C , 21-H ) :   0.9824
B( 19-C , 20-C ) :   1.5880 B( 19-C , 22-C ) :   1.0477 B( 22-C , 23-H ) :   0.9347
B( 22-C , 24-H ) :   0.9234 B( 22-C , 25-C ) :   1.0898 B( 25-C , 26-H ) :   0.9521
B( 25-C , 27-H ) :   0.9528 B( 25-C , 28-C ) :   1.0695 B( 28-C , 29-H ) :   0.9756
B( 28-C , 30-H ) :   0.9738 B( 28-C , 31-H ) :   0.9755

Dispersion correction           -0.014336217
FINAL SINGLE POINT ENERGY     -1339.873251358033

DIPOLE MOMENT
-------------
                                X             Y             Z
Electronic contribution:     19.61632      -9.24843      -7.53833
Nuclear contribution   :    -19.98976       9.65133       8.01979
                        -----------------------------------------
Total Dipole Moment    :     -0.37343       0.40290       0.48146
                        -----------------------------------------
Magnitude (a.u.)       :      0.73047
Magnitude (Debye)      :      1.85671

Rotational constants in cm-1:     0.020009     0.007610     0.007067
Rotational constants in MHz :   599.851138   228.150095   211.876958

                             ****ORCA TERMINATED NORMALLY****
TOTAL RUN TIME: 0 days 0 hours 0 minutes 21 seconds 514 msec
