                         Program Version 4.2.1 -  RELEASE  -
|  1> ! wB97X-D3 SP def2-SVP
|  2> %pal
|  3> nprocs 24
|  4> end
|  5>
|  6> * xyz 0 1
|  7> S 	 45.131 	 -15.3569 	 -126.763
|  8> C 	 45.8189 	 -13.9234 	 -126.141
|  9> C 	 44.9292 	 -13.1007 	 -125.38
| 10> C 	 43.6171 	 -13.6402 	 -125.427
| 11> C 	 43.5543 	 -14.9182 	 -126.022
| 12> H 	 42.7577 	 -13.2279 	 -124.941
| 13> C 	 45.2859 	 -11.8291 	 -124.646
| 14> H 	 46.3408 	 -11.7372 	 -124.773
| 15> H 	 45.3852 	 -12.0962 	 -123.594
| 16> C 	 44.613 	 -10.5092 	 -124.993
| 17> H 	 43.5108 	 -10.5597 	 -124.991
| 18> H 	 44.8195 	 -9.74146 	 -124.194
| 19> C 	 45.0883 	 -10.0001 	 -126.36
| 20> H 	 45.1152 	 -10.759 	 -127.192
| 21> H 	 44.4842 	 -9.14684 	 -126.741
| 22> H 	 46.1453 	 -9.71284 	 -126.374
| 23> S 	 42.4082 	 -17.402 	 -125.601
| 24> C 	 40.8652 	 -17.7634 	 -126.311
| 25> C 	 40.3464 	 -16.6971 	 -126.966
| 26> C 	 41.226 	 -15.5261 	 -127.015
| 27> C 	 42.3926 	 -15.7529 	 -126.262
| 28> H 	 39.3247 	 -16.7523 	 -127.349
| 29> C 	 40.7588 	 -14.1826 	 -127.559
| 30> H 	 41.3389 	 -13.4292 	 -126.944
| 31> H 	 39.683 	 -13.955 	 -127.324
| 32> C 	 40.9436 	 -14.048 	 -128.995
| 33> H 	 41.8738 	 -14.4413 	 -129.352
| 34> H 	 40.8582 	 -12.9826 	 -129.198
| 35> C 	 39.8857 	 -14.6985 	 -129.94
| 36> H 	 40.1612 	 -14.7691 	 -131.006
| 37> H 	 38.9965 	 -14.0474 	 -129.91
| 38> H 	 39.5966 	 -15.6889 	 -129.593
| 39> H 	 46.8582 	 -13.6848 	 -126.096
| 40> H 	 40.3643 	 -18.661 	 -126.19
| 41> *
| 42>
| 43>                          ****END OF INPUT****

CARTESIAN COORDINATES (ANGSTROEM)
---------------------------------
  S     45.131000  -15.356900  -126.763000
  C     45.818900  -13.923400  -126.141000
  C     44.929200  -13.100700  -125.380000
  C     43.617100  -13.640200  -125.427000
  C     43.554300  -14.918200  -126.022000
  H     42.757700  -13.227900  -124.941000
  C     45.285900  -11.829100  -124.646000
  H     46.340800  -11.737200  -124.773000
  H     45.385200  -12.096200  -123.594000
  C     44.613000  -10.509200  -124.993000
  H     43.510800  -10.559700  -124.991000
  H     44.819500   -9.741460  -124.194000
  C     45.088300  -10.000100  -126.360000
  H     45.115200  -10.759000  -127.192000
  H     44.484200   -9.146840  -126.741000
  H     46.145300   -9.712840  -126.374000
  S     42.408200  -17.402000  -125.601000
  C     40.865200  -17.763400  -126.311000
  C     40.346400  -16.697100  -126.966000
  C     41.226000  -15.526100  -127.015000
  C     42.392600  -15.752900  -126.262000
  H     39.324700  -16.752300  -127.349000
  C     40.758800  -14.182600  -127.559000
  H     41.338900  -13.429200  -126.944000
  H     39.683000  -13.955000  -127.324000
  C     40.943600  -14.048000  -128.995000
  H     41.873800  -14.441300  -129.352000
  H     40.858200  -12.982600  -129.198000
  C     39.885700  -14.698500  -129.940000
  H     40.161200  -14.769100  -131.006000
  H     38.996500  -14.047400  -129.910000
  H     39.596600  -15.688900  -129.593000
  H     46.858200  -13.684800  -126.096000
  H     40.364300  -18.661000  -126.190000

 Total Charge           Charge          ....    0
 Multiplicity           Mult            ....    1
 Number of Electrons    NEL             ....  134
 Basis Dimension        Dim             ....  322

ORBITAL ENERGIES
----------------

  NO   OCC          E(Eh)            E(eV)
   0   2.0000     -88.971183     -2421.0290
   1   2.0000     -88.962667     -2420.7972
   2   2.0000     -10.332311      -281.1565
   3   2.0000     -10.328268      -281.0465
   4   2.0000     -10.314133      -280.6618
   5   2.0000     -10.309512      -280.5361
   6   2.0000     -10.307650      -280.4854
   7   2.0000     -10.304674      -280.4044
   8   2.0000     -10.298913      -280.2477
   9   2.0000     -10.297002      -280.1957
  10   2.0000     -10.294216      -280.1198
  11   2.0000     -10.292997      -280.0867
  12   2.0000     -10.291466      -280.0450
  13   2.0000     -10.282861      -279.8109
  14   2.0000     -10.277526      -279.6657
  15   2.0000     -10.276155      -279.6284
  16   2.0000      -8.085550      -220.0190
  17   2.0000      -8.077465      -219.7990
  18   2.0000      -6.043938      -164.4639
  19   2.0000      -6.040049      -164.3581
  20   2.0000      -6.036524      -164.2622
  21   2.0000      -6.035986      -164.2475
  22   2.0000      -6.031960      -164.1380
  23   2.0000      -6.028215      -164.0361
  24   2.0000      -1.000541       -27.2261
  25   2.0000      -0.979748       -26.6603
  26   2.0000      -0.914704       -24.8904
  27   2.0000      -0.912779       -24.8380
  28   2.0000      -0.868154       -23.6237
  29   2.0000      -0.851030       -23.1577
  30   2.0000      -0.840639       -22.8750
  31   2.0000      -0.813817       -22.1451
  32   2.0000      -0.784644       -21.3513
  33   2.0000      -0.770784       -20.9741
  34   2.0000      -0.713670       -19.4199
  35   2.0000      -0.697249       -18.9731
  36   2.0000      -0.686814       -18.6892
  37   2.0000      -0.657834       -17.9006
  38   2.0000      -0.642275       -17.4772
  39   2.0000      -0.623343       -16.9620
  40   2.0000      -0.600648       -16.3445
  41   2.0000      -0.564804       -15.3691
  42   2.0000      -0.555873       -15.1261
  43   2.0000      -0.550740       -14.9864
  44   2.0000      -0.545553       -14.8452
  45   2.0000      -0.531421       -14.4607
  46   2.0000      -0.514567       -14.0021
  47   2.0000      -0.510705       -13.8970
  48   2.0000      -0.500632       -13.6229
  49   2.0000      -0.487430       -13.2636
  50   2.0000      -0.487129       -13.2555
  51   2.0000      -0.477593       -12.9960
  52   2.0000      -0.477052       -12.9812
  53   2.0000      -0.463241       -12.6054
  54   2.0000      -0.459145       -12.4940
  55   2.0000      -0.451410       -12.2835
  56   2.0000      -0.445526       -12.1234
  57   2.0000      -0.441996       -12.0273
  58   2.0000      -0.434079       -11.8119
  59   2.0000      -0.424060       -11.5393
  60   2.0000      -0.416517       -11.3340
  61   2.0000      -0.412870       -11.2348
  62   2.0000      -0.401031       -10.9126
  63   2.0000      -0.341727        -9.2989
  64   2.0000      -0.329640        -8.9699
  65   2.0000      -0.328461        -8.9379
  66   2.0000      -0.294154        -8.0043
  67   0.0000       0.031466         0.8562
  68   0.0000       0.060886         1.6568
  69   0.0000       0.113518         3.0890
  70   0.0000       0.115641         3.1468
  71   0.0000       0.127332         3.4649

MULLIKEN ATOMIC CHARGES
-----------------------
   0 S :    0.135578
   1 C :   -0.089805
   2 C :   -0.142850
   3 C :    0.047066
   4 C :   -0.166873
   5 H :    0.015559
   6 C :    0.097019
   7 H :   -0.014609
   8 H :    0.034567
   9 C :   -0.041417
  10 H :    0.033545
  11 H :    0.040477
  12 C :   -0.084539
  13 H :    0.041300
  14 H :    0.041350
  15 H :    0.025146
  16 S :    0.101619
  17 C :   -0.055227
  18 C :   -0.044047
  19 C :   -0.018726
  20 C :   -0.198423
  21 H :    0.028681
  22 C :    0.053911
  23 H :    0.028414
  24 H :    0.031148
  25 C :   -0.039508
  26 H :    0.028526
  27 H :    0.026126
  28 C :   -0.068677
  29 H :    0.042960
  30 H :    0.021492
  31 H :    0.023347
  32 H :    0.036840
  33 H :    0.030029
Sum of atomic charges:    0.0000000

LOEWDIN ATOMIC CHARGES
----------------------
   0 S :    0.420464
   1 C :   -0.212485
   2 C :   -0.060895
   3 C :   -0.051681
   4 C :   -0.189177
   5 H :    0.029019
   6 C :   -0.043638
   7 H :    0.027528
   8 H :    0.038844
   9 C :   -0.042638
  10 H :    0.024831
  11 H :    0.035428
  12 C :   -0.076945
  13 H :    0.032232
  14 H :    0.028974
  15 H :    0.024036
  16 S :    0.396376
  17 C :   -0.175259
  18 C :   -0.075563
  19 C :   -0.045695
  20 C :   -0.202960
  21 H :    0.032722
  22 C :   -0.038219
  23 H :    0.038996
  24 H :    0.036296
  25 C :   -0.042274
  26 H :    0.023062
  27 H :    0.026929
  28 C :   -0.067002
  29 H :    0.030296
  30 H :    0.021978
  31 H :    0.018507
  32 H :    0.021057
  33 H :    0.016857

  Mayer bond orders larger than 0.100000
B(  0-S ,  1-C ) :   1.1675 B(  0-S ,  4-C ) :   1.1502 B(  1-C ,  2-C ) :   1.5770
B(  1-C ,  4-C ) :   0.1099 B(  1-C , 32-H ) :   0.9578 B(  2-C ,  3-C ) :   1.2702
B(  2-C ,  6-C ) :   1.0283 B(  3-C ,  4-C ) :   1.5610 B(  3-C ,  5-H ) :   0.9887
B(  4-C , 20-C ) :   1.0414 B(  6-C ,  7-H ) :   0.9220 B(  6-C ,  8-H ) :   0.9262
B(  6-C ,  9-C ) :   1.0570 B(  9-C , 10-H ) :   0.9607 B(  9-C , 11-H ) :   0.9504
B(  9-C , 12-C ) :   1.0656 B( 12-C , 13-H ) :   0.9775 B( 12-C , 14-H ) :   0.9752
B( 12-C , 15-H ) :   0.9730 B( 16-S , 17-C ) :   1.1436 B( 16-S , 20-C ) :   1.1393
B( 17-C , 18-C ) :   1.6389 B( 17-C , 33-H ) :   0.9737 B( 18-C , 19-C ) :   1.2113
B( 18-C , 21-H ) :   0.9811 B( 19-C , 20-C ) :   1.6033 B( 19-C , 22-C ) :   1.0319
B( 22-C , 23-H ) :   0.9317 B( 22-C , 24-H ) :   0.9390 B( 22-C , 25-C ) :   1.0707
B( 25-C , 26-H ) :   0.9558 B( 25-C , 27-H ) :   0.9538 B( 25-C , 28-C ) :   1.0710
B( 28-C , 29-H ) :   0.9765 B( 28-C , 30-H ) :   0.9768 B( 28-C , 31-H ) :   0.9754

Dispersion correction           -0.014439181
FINAL SINGLE POINT ENERGY     -1339.875931089378

DIPOLE MOMENT
-------------
                                X             Y             Z
Electronic contribution:      6.53851     -24.76616       8.26398
Nuclear contribution   :     -6.76015      25.32258      -8.19455
                        -----------------------------------------
Total Dipole Moment    :     -0.22164       0.55642       0.06943
                        -----------------------------------------
Magnitude (a.u.)       :      0.60295
Magnitude (Debye)      :      1.53258

Rotational constants in cm-1:     0.019080     0.008556     0.006843
Rotational constants in MHz :   572.005033   256.493012   205.134508

                             ****ORCA TERMINATED NORMALLY****
TOTAL RUN TIME: 0 days 0 hours 0 minutes 21 seconds 427 msec
