                         Program Version 4.2.1 -  RELEASE  -
|  1> ! wB97X-D3 SP def2-SVP
|  2> %pal
|  3> nprocs 24
|  4> end
|  5>
|  6> * xyz 0 1
|  7> S 	 -117.817 	 50.1252 	 -34.6828
|  8> C 	 -118.697 	 48.6259 	 -35.1738
|  9> C 	 -120.02 	 48.8026 	 -34.9168
| 10> C 	 -120.389 	 50.1381 	 -34.7676
| 11> C 	 -119.307 	 50.9848 	 -34.8664
| 12> H 	 -121.433 	 50.4886 	 -34.7471
| 13> C 	 -121.032 	 47.6911 	 -34.8337
| 14> H 	 -120.549 	 46.6982 	 -35.1701
| 15> H 	 -121.718 	 47.8545 	 -35.6682
| 16> C 	 -121.634 	 47.4992 	 -33.4114
| 17> H 	 -122.21 	 48.4044 	 -33.1483
| 18> H 	 -122.453 	 46.7747 	 -33.383
| 19> C 	 -120.666 	 47.1652 	 -32.1918
| 20> H 	 -119.899 	 47.9375 	 -32.1397
| 21> H 	 -121.274 	 47.2098 	 -31.3362
| 22> H 	 -120.275 	 46.154 	 -32.263
| 23> S 	 -118.348 	 53.3058 	 -36.0888
| 24> C 	 -118.91 	 54.904 	 -35.5179
| 25> C 	 -119.598 	 54.7784 	 -34.3098
| 26> C 	 -119.899 	 53.4051 	 -33.9545
| 27> C 	 -119.282 	 52.4725 	 -34.8043
| 28> H 	 -119.957 	 55.647 	 -33.8716
| 29> C 	 -120.593 	 53.0612 	 -32.6834
| 30> H 	 -121.509 	 52.5411 	 -32.9918
| 31> H 	 -120.875 	 54.1002 	 -32.2886
| 32> C 	 -119.702 	 52.3331 	 -31.6498
| 33> H 	 -119.432 	 51.4034 	 -31.9782
| 34> H 	 -120.302 	 52.0601 	 -30.733
| 35> C 	 -118.411 	 53.0949 	 -31.3073
| 36> H 	 -118.088 	 52.6949 	 -30.3659
| 37> H 	 -118.566 	 54.1497 	 -31.1658
| 38> H 	 -117.687 	 53.14 	 -32.1176
| 39> H 	 -118.351 	 47.6359 	 -35.2096
| 40> H 	 -118.649 	 55.9039 	 -35.8384
| 41> *
| 42>
| 43>                          ****END OF INPUT****

CARTESIAN COORDINATES (ANGSTROEM)
---------------------------------
  S    -117.817000   50.125200  -34.682800
  C    -118.697000   48.625900  -35.173800
  C    -120.020000   48.802600  -34.916800
  C    -120.389000   50.138100  -34.767600
  C    -119.307000   50.984800  -34.866400
  H    -121.433000   50.488600  -34.747100
  C    -121.032000   47.691100  -34.833700
  H    -120.549000   46.698200  -35.170100
  H    -121.718000   47.854500  -35.668200
  C    -121.634000   47.499200  -33.411400
  H    -122.210000   48.404400  -33.148300
  H    -122.453000   46.774700  -33.383000
  C    -120.666000   47.165200  -32.191800
  H    -119.899000   47.937500  -32.139700
  H    -121.274000   47.209800  -31.336200
  H    -120.275000   46.154000  -32.263000
  S    -118.348000   53.305800  -36.088800
  C    -118.910000   54.904000  -35.517900
  C    -119.598000   54.778400  -34.309800
  C    -119.899000   53.405100  -33.954500
  C    -119.282000   52.472500  -34.804300
  H    -119.957000   55.647000  -33.871600
  C    -120.593000   53.061200  -32.683400
  H    -121.509000   52.541100  -32.991800
  H    -120.875000   54.100200  -32.288600
  C    -119.702000   52.333100  -31.649800
  H    -119.432000   51.403400  -31.978200
  H    -120.302000   52.060100  -30.733000
  C    -118.411000   53.094900  -31.307300
  H    -118.088000   52.694900  -30.365900
  H    -118.566000   54.149700  -31.165800
  H    -117.687000   53.140000  -32.117600
  H    -118.351000   47.635900  -35.209600
  H    -118.649000   55.903900  -35.838400

 Total Charge           Charge          ....    0
 Multiplicity           Mult            ....    1
 Number of Electrons    NEL             ....  134
 Basis Dimension        Dim             ....  322

ORBITAL ENERGIES
----------------

  NO   OCC          E(Eh)            E(eV)
   0   2.0000     -88.967653     -2420.9329
   1   2.0000     -88.967268     -2420.9224
   2   2.0000     -10.333032      -281.1761
   3   2.0000     -10.331719      -281.1404
   4   2.0000     -10.322507      -280.8897
   5   2.0000     -10.307323      -280.4765
   6   2.0000     -10.306193      -280.4458
   7   2.0000     -10.301631      -280.3216
   8   2.0000     -10.297066      -280.1974
   9   2.0000     -10.295809      -280.1632
  10   2.0000     -10.295082      -280.1434
  11   2.0000     -10.293242      -280.0933
  12   2.0000     -10.292919      -280.0846
  13   2.0000     -10.282309      -279.7958
  14   2.0000     -10.280186      -279.7381
  15   2.0000     -10.270067      -279.4627
  16   2.0000      -8.081463      -219.9078
  17   2.0000      -8.080760      -219.8887
  18   2.0000      -6.040014      -164.3571
  19   2.0000      -6.039475      -164.3425
  20   2.0000      -6.036518      -164.2620
  21   2.0000      -6.035397      -164.2315
  22   2.0000      -6.031712      -164.1312
  23   2.0000      -6.031478      -164.1249
  24   2.0000      -1.006758       -27.3953
  25   2.0000      -0.979234       -26.6463
  26   2.0000      -0.907512       -24.6947
  27   2.0000      -0.906396       -24.6643
  28   2.0000      -0.864012       -23.5110
  29   2.0000      -0.846288       -23.0287
  30   2.0000      -0.843020       -22.9397
  31   2.0000      -0.817099       -22.2344
  32   2.0000      -0.785854       -21.3842
  33   2.0000      -0.771571       -20.9955
  34   2.0000      -0.716380       -19.4937
  35   2.0000      -0.701477       -19.0882
  36   2.0000      -0.691799       -18.8248
  37   2.0000      -0.662668       -18.0321
  38   2.0000      -0.634737       -17.2721
  39   2.0000      -0.621908       -16.9230
  40   2.0000      -0.580422       -15.7941
  41   2.0000      -0.568707       -15.4753
  42   2.0000      -0.558553       -15.1990
  43   2.0000      -0.553116       -15.0510
  44   2.0000      -0.545124       -14.8336
  45   2.0000      -0.537316       -14.6211
  46   2.0000      -0.515348       -14.0233
  47   2.0000      -0.505066       -13.7435
  48   2.0000      -0.497202       -13.5296
  49   2.0000      -0.490211       -13.3393
  50   2.0000      -0.486648       -13.2424
  51   2.0000      -0.482398       -13.1267
  52   2.0000      -0.468375       -12.7451
  53   2.0000      -0.465480       -12.6664
  54   2.0000      -0.460826       -12.5397
  55   2.0000      -0.455308       -12.3896
  56   2.0000      -0.440139       -11.9768
  57   2.0000      -0.436628       -11.8812
  58   2.0000      -0.430931       -11.7262
  59   2.0000      -0.428358       -11.6562
  60   2.0000      -0.419961       -11.4277
  61   2.0000      -0.415155       -11.2969
  62   2.0000      -0.408886       -11.1263
  63   2.0000      -0.340835        -9.2746
  64   2.0000      -0.332334        -9.0433
  65   2.0000      -0.327252        -8.9050
  66   2.0000      -0.295743        -8.0476
  67   0.0000       0.021686         0.5901
  68   0.0000       0.060438         1.6446
  69   0.0000       0.093470         2.5435
  70   0.0000       0.114617         3.1189
  71   0.0000       0.128258         3.4901

MULLIKEN ATOMIC CHARGES
-----------------------
   0 S :    0.101352
   1 C :   -0.069346
   2 C :   -0.120662
   3 C :    0.024184
   4 C :   -0.136733
   5 H :    0.023720
   6 C :    0.058117
   7 H :    0.021569
   8 H :    0.040444
   9 C :   -0.107469
  10 H :    0.024704
  11 H :    0.027767
  12 C :   -0.024896
  13 H :    0.047847
  14 H :    0.024299
  15 H :    0.037121
  16 S :    0.105585
  17 C :   -0.078257
  18 C :   -0.031833
  19 C :   -0.051827
  20 C :   -0.172007
  21 H :   -0.000081
  22 C :    0.055781
  23 H :    0.036614
  24 H :    0.025748
  25 C :   -0.034614
  26 H :    0.010628
  27 H :    0.030373
  28 C :   -0.028070
  29 H :    0.032236
  30 H :    0.008982
  31 H :    0.042658
  32 H :    0.021534
  33 H :    0.054532
Sum of atomic charges:   -0.0000000

LOEWDIN ATOMIC CHARGES
----------------------
   0 S :    0.389535
   1 C :   -0.178025
   2 C :   -0.065479
   3 C :   -0.068941
   4 C :   -0.184342
   5 H :    0.036582
   6 C :   -0.037378
   7 H :    0.033529
   8 H :    0.034952
   9 C :   -0.044406
  10 H :    0.022579
  11 H :    0.023746
  12 C :   -0.053097
  13 H :    0.027576
  14 H :    0.021778
  15 H :    0.025626
  16 S :    0.381813
  17 C :   -0.172642
  18 C :   -0.066787
  19 C :   -0.054973
  20 C :   -0.195116
  21 H :    0.019581
  22 C :   -0.037036
  23 H :    0.033580
  24 H :    0.035635
  25 C :   -0.033610
  26 H :    0.009498
  27 H :    0.030809
  28 C :   -0.060275
  29 H :    0.027278
  30 H :    0.019505
  31 H :    0.029593
  32 H :    0.016697
  33 H :    0.032217

  Mayer bond orders larger than 0.100000
B(  0-S ,  1-C ) :   1.0981 B(  0-S ,  4-C ) :   1.1723 B(  1-C ,  2-C ) :   1.6424
B(  1-C , 32-H ) :   0.9669 B(  2-C ,  3-C ) :   1.2226 B(  2-C ,  6-C ) :   1.0218
B(  3-C ,  4-C ) :   1.5723 B(  3-C ,  5-H ) :   1.0002 B(  4-C , 20-C ) :   1.0226
B(  6-C ,  7-H ) :   0.9439 B(  6-C ,  8-H ) :   0.9433 B(  6-C ,  9-C ) :   1.0509
B(  9-C , 10-H ) :   0.9585 B(  9-C , 11-H ) :   0.9586 B(  9-C , 12-C ) :   1.0694
B( 12-C , 13-H ) :   0.9773 B( 12-C , 14-H ) :   0.9734 B( 12-C , 15-H ) :   0.9772
B( 16-S , 17-C ) :   1.1455 B( 16-S , 20-C ) :   1.1287 B( 17-C , 18-C ) :   1.6351
B( 17-C , 20-C ) :   0.1024 B( 17-C , 33-H ) :   0.9623 B( 18-C , 19-C ) :   1.2296
B( 18-C , 21-H ) :   0.9891 B( 19-C , 20-C ) :   1.5824 B( 19-C , 22-C ) :   1.0354
B( 22-C , 23-H ) :   0.9266 B( 22-C , 24-H ) :   0.9405 B( 22-C , 25-C ) :   1.0702
B( 25-C , 26-H ) :   0.9517 B( 25-C , 27-H ) :   0.9574 B( 25-C , 28-C ) :   1.0670
B( 28-C , 29-H ) :   0.9728 B( 28-C , 30-H ) :   0.9774 B( 28-C , 31-H ) :   0.9703

Dispersion correction           -0.016231904
FINAL SINGLE POINT ENERGY     -1339.852878682166

DIPOLE MOMENT
-------------
                                X             Y             Z
Electronic contribution:     12.10426      10.05960     -19.53837
Nuclear contribution   :    -12.68413     -10.16535      20.05671
                        -----------------------------------------
Total Dipole Moment    :     -0.57986      -0.10575       0.51834
                        -----------------------------------------
Magnitude (a.u.)       :      0.78492
Magnitude (Debye)      :      1.99511

Rotational constants in cm-1:     0.021874     0.009167     0.007762
Rotational constants in MHz :   655.775107   274.818601   232.691944

                             ****ORCA TERMINATED NORMALLY****
TOTAL RUN TIME: 0 days 0 hours 0 minutes 23 seconds 58 msec
