                         Program Version 4.2.1 -  RELEASE  -
|  1> ! wB97X-D3 SP def2-SVP
|  2> %pal
|  3> nprocs 24
|  4> end
|  5>
|  6> * xyz 0 1
|  7> S 	 3.70855 	 -22.3976 	 -110.38
|  8> C 	 2.43704 	 -21.2025 	 -110.839
|  9> C 	 1.89889 	 -21.5481 	 -112.063
| 10> C 	 2.47475 	 -22.767 	 -112.643
| 11> C 	 3.53454 	 -23.3023 	 -111.939
| 12> H 	 2.20315 	 -23.2752 	 -113.565
| 13> C 	 0.792607 	 -20.7893 	 -112.771
| 14> H 	 0.362272 	 -20.072 	 -112.075
| 15> H 	 -0.0637168 	 -21.4111 	 -113.136
| 16> C 	 1.291 	 -20.2056 	 -114.115
| 17> H 	 1.53707 	 -21.0968 	 -114.797
| 18> H 	 0.45481 	 -19.7382 	 -114.709
| 19> C 	 2.46406 	 -19.2051 	 -114.141
| 20> H 	 2.03174 	 -18.253 	 -113.796
| 21> H 	 3.25266 	 -19.4898 	 -113.536
| 22> H 	 2.75869 	 -19.1536 	 -115.117
| 23> S 	 4.02569 	 -25.7254 	 -110.652
| 24> C 	 4.68996 	 -27.0659 	 -111.576
| 25> C 	 5.14803 	 -26.5796 	 -112.787
| 26> C 	 4.77767 	 -25.2737 	 -113.123
| 27> C 	 4.16766 	 -24.6446 	 -112.025
| 28> H 	 5.65531 	 -27.2804 	 -113.44
| 29> C 	 5.08868 	 -24.671 	 -114.524
| 30> H 	 4.29184 	 -23.9708 	 -114.746
| 31> H 	 5.02523 	 -25.4923 	 -115.255
| 32> C 	 6.49284 	 -24.1201 	 -114.757
| 33> H 	 6.42906 	 -23.6486 	 -115.684
| 34> H 	 7.21704 	 -24.9022 	 -114.794
| 35> C 	 6.92806 	 -23.1923 	 -113.663
| 36> H 	 7.59654 	 -22.4487 	 -114.089
| 37> H 	 7.57339 	 -23.7532 	 -112.956
| 38> H 	 6.27376 	 -22.5831 	 -113.054
| 39> H 	 1.93909 	 -20.4369 	 -110.234
| 40> H 	 4.8706 	 -28.0496 	 -111.168
| 41> *
| 42>
| 43>                          ****END OF INPUT****

CARTESIAN COORDINATES (ANGSTROEM)
---------------------------------
  S      3.708550  -22.397600  -110.380000
  C      2.437040  -21.202500  -110.839000
  C      1.898890  -21.548100  -112.063000
  C      2.474750  -22.767000  -112.643000
  C      3.534540  -23.302300  -111.939000
  H      2.203150  -23.275200  -113.565000
  C      0.792607  -20.789300  -112.771000
  H      0.362272  -20.072000  -112.075000
  H     -0.063717  -21.411100  -113.136000
  C      1.291000  -20.205600  -114.115000
  H      1.537070  -21.096800  -114.797000
  H      0.454810  -19.738200  -114.709000
  C      2.464060  -19.205100  -114.141000
  H      2.031740  -18.253000  -113.796000
  H      3.252660  -19.489800  -113.536000
  H      2.758690  -19.153600  -115.117000
  S      4.025690  -25.725400  -110.652000
  C      4.689960  -27.065900  -111.576000
  C      5.148030  -26.579600  -112.787000
  C      4.777670  -25.273700  -113.123000
  C      4.167660  -24.644600  -112.025000
  H      5.655310  -27.280400  -113.440000
  C      5.088680  -24.671000  -114.524000
  H      4.291840  -23.970800  -114.746000
  H      5.025230  -25.492300  -115.255000
  C      6.492840  -24.120100  -114.757000
  H      6.429060  -23.648600  -115.684000
  H      7.217040  -24.902200  -114.794000
  C      6.928060  -23.192300  -113.663000
  H      7.596540  -22.448700  -114.089000
  H      7.573390  -23.753200  -112.956000
  H      6.273760  -22.583100  -113.054000
  H      1.939090  -20.436900  -110.234000
  H      4.870600  -28.049600  -111.168000

 Total Charge           Charge          ....    0
 Multiplicity           Mult            ....    1
 Number of Electrons    NEL             ....  134
 Basis Dimension        Dim             ....  322

ORBITAL ENERGIES
----------------

  NO   OCC          E(Eh)            E(eV)
   0   2.0000     -88.968228     -2420.9486
   1   2.0000     -88.964345     -2420.8429
   2   2.0000     -10.338463      -281.3239
   3   2.0000     -10.332716      -281.1675
   4   2.0000     -10.321938      -280.8742
   5   2.0000     -10.318688      -280.7858
   6   2.0000     -10.308092      -280.4974
   7   2.0000     -10.305234      -280.4197
   8   2.0000     -10.301090      -280.3069
   9   2.0000     -10.298135      -280.2265
  10   2.0000     -10.295174      -280.1459
  11   2.0000     -10.294738      -280.1341
  12   2.0000     -10.292137      -280.0633
  13   2.0000     -10.278206      -279.6842
  14   2.0000     -10.266272      -279.3595
  15   2.0000     -10.263415      -279.2817
  16   2.0000      -8.082544      -219.9372
  17   2.0000      -8.077351      -219.7959
  18   2.0000      -6.041040      -164.3850
  19   2.0000      -6.037054      -164.2766
  20   2.0000      -6.036162      -164.2523
  21   2.0000      -6.033371      -164.1764
  22   2.0000      -6.032180      -164.1440
  23   2.0000      -6.027781      -164.0243
  24   2.0000      -1.001772       -27.2596
  25   2.0000      -0.976414       -26.5696
  26   2.0000      -0.912416       -24.8281
  27   2.0000      -0.906651       -24.6712
  28   2.0000      -0.865799       -23.5596
  29   2.0000      -0.850545       -23.1445
  30   2.0000      -0.837688       -22.7947
  31   2.0000      -0.815660       -22.1952
  32   2.0000      -0.786165       -21.3926
  33   2.0000      -0.778001       -21.1705
  34   2.0000      -0.708034       -19.2666
  35   2.0000      -0.696506       -18.9529
  36   2.0000      -0.687785       -18.7156
  37   2.0000      -0.657198       -17.8833
  38   2.0000      -0.639178       -17.3929
  39   2.0000      -0.615365       -16.7449
  40   2.0000      -0.597338       -16.2544
  41   2.0000      -0.563003       -15.3201
  42   2.0000      -0.554070       -15.0770
  43   2.0000      -0.547411       -14.8958
  44   2.0000      -0.544272       -14.8104
  45   2.0000      -0.543109       -14.7787
  46   2.0000      -0.525125       -14.2894
  47   2.0000      -0.513533       -13.9739
  48   2.0000      -0.504035       -13.7155
  49   2.0000      -0.499982       -13.6052
  50   2.0000      -0.491780       -13.3820
  51   2.0000      -0.472989       -12.8707
  52   2.0000      -0.469142       -12.7660
  53   2.0000      -0.462298       -12.5798
  54   2.0000      -0.461009       -12.5447
  55   2.0000      -0.447561       -12.1788
  56   2.0000      -0.438650       -11.9363
  57   2.0000      -0.434182       -11.8147
  58   2.0000      -0.428110       -11.6495
  59   2.0000      -0.421780       -11.4772
  60   2.0000      -0.415257       -11.2997
  61   2.0000      -0.412976       -11.2377
  62   2.0000      -0.407967       -11.1014
  63   2.0000      -0.349331        -9.5058
  64   2.0000      -0.333553        -9.0764
  65   2.0000      -0.325349        -8.8532
  66   2.0000      -0.294550        -8.0151
  67   0.0000       0.026061         0.7092
  68   0.0000       0.063994         1.7414
  69   0.0000       0.106866         2.9080
  70   0.0000       0.119981         3.2648
  71   0.0000       0.125973         3.4279

MULLIKEN ATOMIC CHARGES
-----------------------
   0 S :    0.066490
   1 C :   -0.108626
   2 C :   -0.099493
   3 C :    0.038071
   4 C :   -0.150431
   5 H :    0.024962
   6 C :    0.088857
   7 H :    0.016330
   8 H :    0.042105
   9 C :   -0.177586
  10 H :    0.028957
  11 H :    0.032973
  12 C :    0.036159
  13 H :    0.027872
  14 H :    0.027149
  15 H :    0.013749
  16 S :    0.117454
  17 C :   -0.102580
  18 C :   -0.037302
  19 C :   -0.041285
  20 C :   -0.157873
  21 H :    0.016058
  22 C :    0.072134
  23 H :    0.020802
  24 H :    0.020639
  25 C :    0.001935
  26 H :    0.021165
  27 H :    0.020529
  28 C :   -0.067091
  29 H :    0.018371
  30 H :    0.031286
  31 H :    0.039043
  32 H :    0.058655
  33 H :    0.060523
Sum of atomic charges:   -0.0000000

LOEWDIN ATOMIC CHARGES
----------------------
   0 S :    0.348042
   1 C :   -0.186516
   2 C :   -0.060564
   3 C :   -0.060486
   4 C :   -0.166624
   5 H :    0.031998
   6 C :   -0.036750
   7 H :    0.025109
   8 H :    0.041874
   9 C :   -0.050589
  10 H :    0.023870
  11 H :    0.025974
  12 C :   -0.049134
  13 H :    0.029027
  14 H :    0.016709
  15 H :    0.016567
  16 S :    0.411230
  17 C :   -0.183827
  18 C :   -0.071782
  19 C :   -0.057319
  20 C :   -0.202201
  21 H :    0.029551
  22 C :   -0.023145
  23 H :    0.026515
  24 H :    0.031687
  25 C :   -0.029976
  26 H :    0.019857
  27 H :    0.024440
  28 C :   -0.074457
  29 H :    0.025429
  30 H :    0.031462
  31 H :    0.025734
  32 H :    0.037962
  33 H :    0.030331

  Mayer bond orders larger than 0.100000
B(  0-S ,  1-C ) :   1.1044 B(  0-S ,  4-C ) :   1.1123 B(  1-C ,  2-C ) :   1.6577
B(  1-C , 32-H ) :   0.9612 B(  2-C ,  3-C ) :   1.1838 B(  2-C ,  6-C ) :   1.0368
B(  3-C ,  4-C ) :   1.6328 B(  3-C ,  5-H ) :   0.9812 B(  4-C , 20-C ) :   1.0219
B(  6-C ,  7-H ) :   0.9442 B(  6-C ,  8-H ) :   0.9396 B(  6-C ,  9-C ) :   1.0531
B(  9-C , 10-H ) :   0.9576 B(  9-C , 11-H ) :   0.9581 B(  9-C , 12-C ) :   1.0688
B( 12-C , 13-H ) :   0.9760 B( 12-C , 14-H ) :   0.9763 B( 12-C , 15-H ) :   0.9704
B( 16-S , 17-C ) :   1.1543 B( 16-S , 20-C ) :   1.1616 B( 17-C , 18-C ) :   1.5890
B( 17-C , 20-C ) :   0.1072 B( 17-C , 33-H ) :   0.9705 B( 18-C , 19-C ) :   1.2732
B( 18-C , 21-H ) :   0.9865 B( 19-C , 20-C ) :   1.5604 B( 19-C , 22-C ) :   1.0326
B( 22-C , 23-H ) :   0.9345 B( 22-C , 24-H ) :   0.9357 B( 22-C , 25-C ) :   1.0842
B( 25-C , 26-H ) :   0.9567 B( 25-C , 27-H ) :   0.9523 B( 25-C , 28-C ) :   1.0714
B( 28-C , 29-H ) :   0.9722 B( 28-C , 30-H ) :   0.9744 B( 28-C , 31-H ) :   0.9802

Dispersion correction           -0.015053182
FINAL SINGLE POINT ENERGY     -1339.866334763177

DIPOLE MOMENT
-------------
                                X             Y             Z
Electronic contribution:     -1.55295     -14.53012      21.57596
Nuclear contribution   :      1.40341      14.49339     -22.25908
                        -----------------------------------------
Total Dipole Moment    :     -0.14953      -0.03673      -0.68311
                        -----------------------------------------
Magnitude (a.u.)       :      0.70025
Magnitude (Debye)      :      1.77990

Rotational constants in cm-1:     0.019723     0.009181     0.007422
Rotational constants in MHz :   591.295091   275.252417   222.514252

                             ****ORCA TERMINATED NORMALLY****
TOTAL RUN TIME: 0 days 0 hours 0 minutes 22 seconds 228 msec
