                         Program Version 4.2.1 -  RELEASE  -
|  1> ! wB97X-D3 SP def2-SVP
|  2> %pal
|  3> nprocs 24
|  4> end
|  5>
|  6> * xyz 0 1
|  7> S 	 -44.4506 	 -4.56733 	 -23.7322
|  8> C 	 -45.7204 	 -5.63636 	 -24.0258
|  9> C 	 -45.4242 	 -6.56603 	 -24.9554
| 10> C 	 -43.9967 	 -6.45888 	 -25.3352
| 11> C 	 -43.3921 	 -5.38452 	 -24.8131
| 12> H 	 -43.3931 	 -7.04603 	 -26.041
| 13> C 	 -46.2614 	 -7.80916 	 -25.2867
| 14> H 	 -46.6571 	 -8.2783 	 -24.4081
| 15> H 	 -45.644 	 -8.57451 	 -25.7825
| 16> C 	 -47.5213 	 -7.57042 	 -26.123
| 17> H 	 -48.2193 	 -8.42969 	 -26.3339
| 18> H 	 -48.1565 	 -6.86696 	 -25.5771
| 19> C 	 -47.0822 	 -7.02617 	 -27.5532
| 20> H 	 -47.8748 	 -7.17746 	 -28.2863
| 21> H 	 -46.5299 	 -6.18103 	 -27.675
| 22> H 	 -46.3585 	 -7.6856 	 -28.0433
| 23> S 	 -41.7373 	 -4.07979 	 -26.6689
| 24> C 	 -40.1196 	 -3.6061 	 -26.3044
| 25> C 	 -39.8657 	 -3.95276 	 -24.9642
| 26> C 	 -40.8811 	 -4.72582 	 -24.3437
| 27> C 	 -41.9931 	 -4.88877 	 -25.1191
| 28> H 	 -38.9508 	 -3.60212 	 -24.5323
| 29> C 	 -40.9003 	 -4.95316 	 -22.8997
| 30> H 	 -41.9319 	 -4.81658 	 -22.5628
| 31> H 	 -40.4264 	 -4.24248 	 -22.2577
| 32> C 	 -40.5048 	 -6.39503 	 -22.5857
| 33> H 	 -39.5433 	 -6.64068 	 -23.0933
| 34> H 	 -41.2589 	 -7.04127 	 -23.0181
| 35> C 	 -40.2754 	 -6.62141 	 -21.1556
| 36> H 	 -39.4514 	 -6.0214 	 -20.9265
| 37> H 	 -40.0033 	 -7.67773 	 -21.0291
| 38> H 	 -41.1492 	 -6.47492 	 -20.4821
| 39> H 	 -46.5842 	 -5.63827 	 -23.4369
| 40> H 	 -39.6402 	 -2.82191 	 -26.9185
| 41> *
| 42>
| 43>                          ****END OF INPUT****

CARTESIAN COORDINATES (ANGSTROEM)
---------------------------------
  S    -44.450600   -4.567330  -23.732200
  C    -45.720400   -5.636360  -24.025800
  C    -45.424200   -6.566030  -24.955400
  C    -43.996700   -6.458880  -25.335200
  C    -43.392100   -5.384520  -24.813100
  H    -43.393100   -7.046030  -26.041000
  C    -46.261400   -7.809160  -25.286700
  H    -46.657100   -8.278300  -24.408100
  H    -45.644000   -8.574510  -25.782500
  C    -47.521300   -7.570420  -26.123000
  H    -48.219300   -8.429690  -26.333900
  H    -48.156500   -6.866960  -25.577100
  C    -47.082200   -7.026170  -27.553200
  H    -47.874800   -7.177460  -28.286300
  H    -46.529900   -6.181030  -27.675000
  H    -46.358500   -7.685600  -28.043300
  S    -41.737300   -4.079790  -26.668900
  C    -40.119600   -3.606100  -26.304400
  C    -39.865700   -3.952760  -24.964200
  C    -40.881100   -4.725820  -24.343700
  C    -41.993100   -4.888770  -25.119100
  H    -38.950800   -3.602120  -24.532300
  C    -40.900300   -4.953160  -22.899700
  H    -41.931900   -4.816580  -22.562800
  H    -40.426400   -4.242480  -22.257700
  C    -40.504800   -6.395030  -22.585700
  H    -39.543300   -6.640680  -23.093300
  H    -41.258900   -7.041270  -23.018100
  C    -40.275400   -6.621410  -21.155600
  H    -39.451400   -6.021400  -20.926500
  H    -40.003300   -7.677730  -21.029100
  H    -41.149200   -6.474920  -20.482100
  H    -46.584200   -5.638270  -23.436900
  H    -39.640200   -2.821910  -26.918500

 Total Charge           Charge          ....    0
 Multiplicity           Mult            ....    1
 Number of Electrons    NEL             ....  134
 Basis Dimension        Dim             ....  322

ORBITAL ENERGIES
----------------

  NO   OCC          E(Eh)            E(eV)
   0   2.0000     -88.964261     -2420.8406
   1   2.0000     -88.962251     -2420.7859
   2   2.0000     -10.328227      -281.0453
   3   2.0000     -10.327057      -281.0135
   4   2.0000     -10.321034      -280.8496
   5   2.0000     -10.307715      -280.4872
   6   2.0000     -10.305932      -280.4387
   7   2.0000     -10.298003      -280.2229
   8   2.0000     -10.296466      -280.1811
   9   2.0000     -10.295633      -280.1584
  10   2.0000     -10.295346      -280.1506
  11   2.0000     -10.293039      -280.0878
  12   2.0000     -10.278646      -279.6962
  13   2.0000     -10.275872      -279.6207
  14   2.0000     -10.267660      -279.3972
  15   2.0000     -10.266959      -279.3782
  16   2.0000      -8.080863      -219.8915
  17   2.0000      -8.077338      -219.7955
  18   2.0000      -6.039362      -164.3394
  19   2.0000      -6.035714      -164.2401
  20   2.0000      -6.034990      -164.2204
  21   2.0000      -6.031631      -164.1290
  22   2.0000      -6.031597      -164.1281
  23   2.0000      -6.028403      -164.0412
  24   2.0000      -1.016140       -27.6506
  25   2.0000      -0.993890       -27.0451
  26   2.0000      -0.919646       -25.0248
  27   2.0000      -0.907596       -24.6969
  28   2.0000      -0.870454       -23.6863
  29   2.0000      -0.858373       -23.3575
  30   2.0000      -0.843429       -22.9509
  31   2.0000      -0.816982       -22.2312
  32   2.0000      -0.784400       -21.3446
  33   2.0000      -0.776086       -21.1184
  34   2.0000      -0.707848       -19.2615
  35   2.0000      -0.696586       -18.9551
  36   2.0000      -0.688336       -18.7306
  37   2.0000      -0.666283       -18.1305
  38   2.0000      -0.653805       -17.7909
  39   2.0000      -0.614223       -16.7139
  40   2.0000      -0.598911       -16.2972
  41   2.0000      -0.575903       -15.6711
  42   2.0000      -0.571321       -15.5464
  43   2.0000      -0.550075       -14.9683
  44   2.0000      -0.543227       -14.7820
  45   2.0000      -0.527016       -14.3408
  46   2.0000      -0.521610       -14.1937
  47   2.0000      -0.517532       -14.0828
  48   2.0000      -0.504391       -13.7252
  49   2.0000      -0.498621       -13.5682
  50   2.0000      -0.492279       -13.3956
  51   2.0000      -0.480003       -13.0615
  52   2.0000      -0.470928       -12.8146
  53   2.0000      -0.462909       -12.5964
  54   2.0000      -0.461014       -12.5448
  55   2.0000      -0.446964       -12.1625
  56   2.0000      -0.446030       -12.1371
  57   2.0000      -0.432571       -11.7708
  58   2.0000      -0.426915       -11.6170
  59   2.0000      -0.423017       -11.5109
  60   2.0000      -0.418277       -11.3819
  61   2.0000      -0.409738       -11.1495
  62   2.0000      -0.408622       -11.1192
  63   2.0000      -0.340265        -9.2591
  64   2.0000      -0.330270        -8.9871
  65   2.0000      -0.327069        -8.9000
  66   2.0000      -0.311900        -8.4872
  67   0.0000       0.041491         1.1290
  68   0.0000       0.062556         1.7022
  69   0.0000       0.113616         3.0917
  70   0.0000       0.116067         3.1583
  71   0.0000       0.131986         3.5915

MULLIKEN ATOMIC CHARGES
-----------------------
   0 S :    0.123531
   1 C :   -0.099619
   2 C :   -0.056301
   3 C :    0.021789
   4 C :   -0.159727
   5 H :    0.020917
   6 C :    0.061283
   7 H :    0.026151
   8 H :    0.028692
   9 C :   -0.082996
  10 H :    0.040545
  11 H :    0.028458
  12 C :   -0.032923
  13 H :    0.024207
  14 H :    0.023559
  15 H :   -0.001187
  16 S :    0.100805
  17 C :   -0.112815
  18 C :   -0.048935
  19 C :    0.019006
  20 C :   -0.163882
  21 H :    0.015708
  22 C :    0.060990
  23 H :    0.004372
  24 H :    0.011050
  25 C :   -0.101468
  26 H :    0.027004
  27 H :    0.027407
  28 C :    0.002108
  29 H :    0.016926
  30 H :    0.026972
  31 H :    0.033339
  32 H :    0.031990
  33 H :    0.083044
Sum of atomic charges:    0.0000000

LOEWDIN ATOMIC CHARGES
----------------------
   0 S :    0.441179
   1 C :   -0.194584
   2 C :   -0.062340
   3 C :   -0.061569
   4 C :   -0.206981
   5 H :    0.037220
   6 C :   -0.031230
   7 H :    0.027971
   8 H :    0.030777
   9 C :   -0.038249
  10 H :    0.032508
  11 H :    0.020053
  12 C :   -0.074473
  13 H :    0.026427
  14 H :    0.012938
  15 H :    0.027120
  16 S :    0.414396
  17 C :   -0.201195
  18 C :   -0.066246
  19 C :   -0.059455
  20 C :   -0.193133
  21 H :    0.027260
  22 C :   -0.035242
  23 H :    0.022454
  24 H :    0.024843
  25 C :   -0.039407
  26 H :    0.026629
  27 H :    0.021607
  28 C :   -0.062636
  29 H :    0.017955
  30 H :    0.028988
  31 H :    0.027648
  32 H :    0.019822
  33 H :    0.038947

  Mayer bond orders larger than 0.100000
B(  0-S ,  1-C ) :   1.1582 B(  0-S ,  4-C ) :   1.1447 B(  1-C ,  2-C ) :   1.6309
B(  1-C , 32-H ) :   0.9735 B(  2-C ,  3-C ) :   1.1923 B(  2-C ,  6-C ) :   1.0123
B(  3-C ,  4-C ) :   1.6500 B(  3-C ,  5-H ) :   0.9912 B(  4-C , 20-C ) :   0.9710
B(  6-C ,  7-H ) :   0.9463 B(  6-C ,  8-H ) :   0.9532 B(  6-C ,  9-C ) :   1.0660
B(  9-C , 10-H ) :   0.9596 B(  9-C , 11-H ) :   0.9597 B(  9-C , 12-C ) :   1.0574
B( 12-C , 13-H ) :   0.9772 B( 12-C , 14-H ) :   0.9799 B( 12-C , 15-H ) :   0.9660
B( 16-S , 17-C ) :   1.1840 B( 16-S , 20-C ) :   1.1609 B( 17-C , 18-C ) :   1.5609
B( 17-C , 20-C ) :   0.1031 B( 17-C , 33-H ) :   0.9637 B( 18-C , 19-C ) :   1.2552
B( 18-C , 21-H ) :   0.9989 B( 19-C , 20-C ) :   1.5866 B( 19-C , 22-C ) :   1.0487
B( 22-C , 23-H ) :   0.9236 B( 22-C , 24-H ) :   0.9481 B( 22-C , 25-C ) :   1.0458
B( 25-C , 26-H ) :   0.9585 B( 25-C , 27-H ) :   0.9536 B( 25-C , 28-C ) :   1.0954
B( 28-C , 29-H ) :   0.9717 B( 28-C , 30-H ) :   0.9681 B( 28-C , 31-H ) :   0.9688

Dispersion correction           -0.014399215
FINAL SINGLE POINT ENERGY     -1339.855638345140

DIPOLE MOMENT
-------------
                                X             Y             Z
Electronic contribution:      4.77962      15.34548      -5.29864
Nuclear contribution   :     -4.79084     -15.54463       5.56727
                        -----------------------------------------
Total Dipole Moment    :     -0.01121      -0.19915       0.26863
                        -----------------------------------------
Magnitude (a.u.)       :      0.33458
Magnitude (Debye)      :      0.85045

Rotational constants in cm-1:     0.020335     0.008294     0.006732
Rotational constants in MHz :   609.636675   248.636130   201.823037

                             ****ORCA TERMINATED NORMALLY****
TOTAL RUN TIME: 0 days 0 hours 0 minutes 21 seconds 435 msec
