                         Program Version 4.2.1 -  RELEASE  -
|  1> ! wB97X-D3 SP def2-SVP
|  2> %pal
|  3> nprocs 24
|  4> end
|  5>
|  6> * xyz 0 1
|  7> S 	 -110.784 	 64.37 	 -76.259
|  8> C 	 -109.593 	 63.1732 	 -75.8807
|  9> C 	 -110.163 	 61.9775 	 -75.378
| 10> C 	 -111.582 	 62.1438 	 -75.3403
| 11> C 	 -112.032 	 63.3846 	 -75.6719
| 12> H 	 -112.328 	 61.423 	 -74.8518
| 13> C 	 -109.414 	 60.6522 	 -75.3046
| 14> H 	 -109.025 	 60.4739 	 -76.3127
| 15> H 	 -110.071 	 59.8816 	 -75.2323
| 16> C 	 -108.27 	 60.5998 	 -74.2432
| 17> H 	 -107.667 	 59.6265 	 -74.4204
| 18> H 	 -107.656 	 61.427 	 -74.4662
| 19> C 	 -108.812 	 60.7706 	 -72.7765
| 20> H 	 -109.445 	 59.9226 	 -72.4329
| 21> H 	 -108.072 	 61.0121 	 -71.9405
| 22> H 	 -109.421 	 61.6963 	 -72.7079
| 23> S 	 -113.773 	 65.3293 	 -74.6348
| 24> C 	 -115.459 	 65.0151 	 -74.7188
| 25> C 	 -115.747 	 63.9259 	 -75.5179
| 26> C 	 -114.595 	 63.2167 	 -75.9668
| 27> C 	 -113.408 	 63.7947 	 -75.5139
| 28> H 	 -116.778 	 63.7061 	 -75.6931
| 29> C 	 -114.722 	 62.0204 	 -76.7743
| 30> H 	 -115.451 	 61.4023 	 -76.2962
| 31> H 	 -113.9 	 61.4024 	 -76.6585
| 32> C 	 -115.098 	 62.2266 	 -78.2374
| 33> H 	 -115.861 	 62.98 	 -78.366
| 34> H 	 -115.552 	 61.3499 	 -78.6467
| 35> C 	 -113.941 	 62.6113 	 -79.2405
| 36> H 	 -113.538 	 63.6313 	 -79.1624
| 37> H 	 -114.113 	 62.3946 	 -80.2618
| 38> H 	 -113.163 	 61.9304 	 -78.8705
| 39> H 	 -108.498 	 63.2955 	 -76.0933
| 40> H 	 -116.201 	 65.7341 	 -74.4979
| 41> *
| 42>
| 43>                          ****END OF INPUT****

CARTESIAN COORDINATES (ANGSTROEM)
---------------------------------
  S    -110.784000   64.370000  -76.259000
  C    -109.593000   63.173200  -75.880700
  C    -110.163000   61.977500  -75.378000
  C    -111.582000   62.143800  -75.340300
  C    -112.032000   63.384600  -75.671900
  H    -112.328000   61.423000  -74.851800
  C    -109.414000   60.652200  -75.304600
  H    -109.025000   60.473900  -76.312700
  H    -110.071000   59.881600  -75.232300
  C    -108.270000   60.599800  -74.243200
  H    -107.667000   59.626500  -74.420400
  H    -107.656000   61.427000  -74.466200
  C    -108.812000   60.770600  -72.776500
  H    -109.445000   59.922600  -72.432900
  H    -108.072000   61.012100  -71.940500
  H    -109.421000   61.696300  -72.707900
  S    -113.773000   65.329300  -74.634800
  C    -115.459000   65.015100  -74.718800
  C    -115.747000   63.925900  -75.517900
  C    -114.595000   63.216700  -75.966800
  C    -113.408000   63.794700  -75.513900
  H    -116.778000   63.706100  -75.693100
  C    -114.722000   62.020400  -76.774300
  H    -115.451000   61.402300  -76.296200
  H    -113.900000   61.402400  -76.658500
  C    -115.098000   62.226600  -78.237400
  H    -115.861000   62.980000  -78.366000
  H    -115.552000   61.349900  -78.646700
  C    -113.941000   62.611300  -79.240500
  H    -113.538000   63.631300  -79.162400
  H    -114.113000   62.394600  -80.261800
  H    -113.163000   61.930400  -78.870500
  H    -108.498000   63.295500  -76.093300
  H    -116.201000   65.734100  -74.497900

 Total Charge           Charge          ....    0
 Multiplicity           Mult            ....    1
 Number of Electrons    NEL             ....  134
 Basis Dimension        Dim             ....  322

ORBITAL ENERGIES
----------------

  NO   OCC          E(Eh)            E(eV)
   0   2.0000     -88.970896     -2421.0212
   1   2.0000     -88.963185     -2420.8113
   2   2.0000     -10.328057      -281.0407
   3   2.0000     -10.320899      -280.8459
   4   2.0000     -10.318818      -280.7893
   5   2.0000     -10.310224      -280.5555
   6   2.0000     -10.305814      -280.4354
   7   2.0000     -10.300121      -280.2805
   8   2.0000     -10.297812      -280.2177
   9   2.0000     -10.295533      -280.1557
  10   2.0000     -10.289055      -279.9794
  11   2.0000     -10.288875      -279.9745
  12   2.0000     -10.286839      -279.9191
  13   2.0000     -10.283625      -279.8317
  14   2.0000     -10.278495      -279.6921
  15   2.0000     -10.271810      -279.5102
  16   2.0000      -8.086640      -220.0487
  17   2.0000      -8.077804      -219.8082
  18   2.0000      -6.044997      -164.4927
  19   2.0000      -6.040945      -164.3825
  20   2.0000      -6.037560      -164.2904
  21   2.0000      -6.036269      -164.2552
  22   2.0000      -6.032378      -164.1494
  23   2.0000      -6.028582      -164.0461
  24   2.0000      -1.012256       -27.5449
  25   2.0000      -0.986508       -26.8443
  26   2.0000      -0.914105       -24.8741
  27   2.0000      -0.909261       -24.7422
  28   2.0000      -0.866871       -23.5887
  29   2.0000      -0.849375       -23.1127
  30   2.0000      -0.843928       -22.9645
  31   2.0000      -0.810128       -22.0447
  32   2.0000      -0.786774       -21.4092
  33   2.0000      -0.774158       -21.0659
  34   2.0000      -0.707985       -19.2653
  35   2.0000      -0.706642       -19.2287
  36   2.0000      -0.695625       -18.9289
  37   2.0000      -0.658992       -17.9321
  38   2.0000      -0.639668       -17.4063
  39   2.0000      -0.616177       -16.7670
  40   2.0000      -0.601431       -16.3658
  41   2.0000      -0.575521       -15.6607
  42   2.0000      -0.555266       -15.1096
  43   2.0000      -0.545366       -14.8402
  44   2.0000      -0.537130       -14.6160
  45   2.0000      -0.529866       -14.4184
  46   2.0000      -0.518246       -14.1022
  47   2.0000      -0.507714       -13.8156
  48   2.0000      -0.502060       -13.6618
  49   2.0000      -0.497158       -13.5284
  50   2.0000      -0.485037       -13.1985
  51   2.0000      -0.475373       -12.9356
  52   2.0000      -0.468870       -12.7586
  53   2.0000      -0.467146       -12.7117
  54   2.0000      -0.458020       -12.4634
  55   2.0000      -0.447104       -12.1663
  56   2.0000      -0.444150       -12.0859
  57   2.0000      -0.439766       -11.9666
  58   2.0000      -0.437904       -11.9160
  59   2.0000      -0.427857       -11.6426
  60   2.0000      -0.420033       -11.4297
  61   2.0000      -0.416405       -11.3310
  62   2.0000      -0.409364       -11.1394
  63   2.0000      -0.347140        -9.4462
  64   2.0000      -0.332510        -9.0481
  65   2.0000      -0.328435        -8.9372
  66   2.0000      -0.290596        -7.9075
  67   0.0000       0.030688         0.8351
  68   0.0000       0.068177         1.8552
  69   0.0000       0.106721         2.9040
  70   0.0000       0.123899         3.3715
  71   0.0000       0.132781         3.6132

MULLIKEN ATOMIC CHARGES
-----------------------
   0 S :    0.141527
   1 C :   -0.150478
   2 C :   -0.103869
   3 C :   -0.010864
   4 C :   -0.159084
   5 H :    0.046871
   6 C :    0.102504
   7 H :    0.036543
   8 H :   -0.014403
   9 C :   -0.056107
  10 H :    0.048432
  11 H :    0.020328
  12 C :   -0.105591
  13 H :    0.042073
  14 H :    0.044669
  15 H :    0.044122
  16 S :    0.098508
  17 C :   -0.071465
  18 C :   -0.045693
  19 C :   -0.026487
  20 C :   -0.165490
  21 H :    0.010894
  22 C :    0.140722
  23 H :    0.011175
  24 H :   -0.021271
  25 C :   -0.056247
  26 H :    0.018849
  27 H :    0.018017
  28 C :   -0.052753
  29 H :    0.042881
  30 H :    0.031032
  31 H :    0.021447
  32 H :    0.070431
  33 H :    0.048776
Sum of atomic charges:    0.0000000

LOEWDIN ATOMIC CHARGES
----------------------
   0 S :    0.446413
   1 C :   -0.213004
   2 C :   -0.062596
   3 C :   -0.075929
   4 C :   -0.223019
   5 H :    0.043882
   6 C :   -0.024211
   7 H :    0.039094
   8 H :    0.012369
   9 C :   -0.035744
  10 H :    0.034556
  11 H :    0.015891
  12 C :   -0.084763
  13 H :    0.026908
  14 H :    0.033925
  15 H :    0.031081
  16 S :    0.391901
  17 C :   -0.189604
  18 C :   -0.067046
  19 C :   -0.050066
  20 C :   -0.180066
  21 H :    0.028092
  22 C :   -0.032074
  23 H :    0.036267
  24 H :    0.019415
  25 C :   -0.029848
  26 H :    0.019330
  27 H :    0.022186
  28 C :   -0.065690
  29 H :    0.027322
  30 H :    0.019713
  31 H :    0.026490
  32 H :    0.035568
  33 H :    0.023256

  Mayer bond orders larger than 0.100000
B(  0-S ,  1-C ) :   1.1620 B(  0-S ,  4-C ) :   1.1647 B(  1-C ,  2-C ) :   1.5710
B(  1-C , 32-H ) :   0.9603 B(  2-C ,  3-C ) :   1.2723 B(  2-C ,  6-C ) :   1.0083
B(  3-C ,  4-C ) :   1.5707 B(  3-C ,  5-H ) :   0.9705 B(  4-C , 20-C ) :   1.0509
B(  6-C ,  7-H ) :   0.9427 B(  6-C ,  8-H ) :   0.9426 B(  6-C ,  9-C ) :   1.0557
B(  9-C , 10-H ) :   0.9584 B(  9-C , 11-H ) :   0.9608 B(  9-C , 12-C ) :   1.0598
B( 12-C , 13-H ) :   0.9788 B( 12-C , 14-H ) :   0.9765 B( 12-C , 15-H ) :   0.9715
B( 16-S , 17-C ) :   1.1624 B( 16-S , 20-C ) :   1.1236 B( 17-C , 18-C ) :   1.6169
B( 17-C , 33-H ) :   0.9647 B( 18-C , 19-C ) :   1.2317 B( 18-C , 21-H ) :   0.9936
B( 19-C , 20-C ) :   1.5793 B( 19-C , 22-C ) :   1.0646 B( 22-C , 23-H ) :   0.9127
B( 22-C , 24-H ) :   0.9145 B( 22-C , 25-C ) :   1.0737 B( 25-C , 26-H ) :   0.9592
B( 25-C , 27-H ) :   0.9535 B( 25-C , 28-C ) :   1.0626 B( 28-C , 29-H ) :   0.9783
B( 28-C , 30-H ) :   0.9780 B( 28-C , 31-H ) :   0.9775

Dispersion correction           -0.014853827
FINAL SINGLE POINT ENERGY     -1339.866116395035

DIPOLE MOMENT
-------------
                                X             Y             Z
Electronic contribution:     -4.58744      20.31550       4.01857
Nuclear contribution   :      4.47571     -20.86782      -4.24049
                        -----------------------------------------
Total Dipole Moment    :     -0.11174      -0.55232      -0.22192
                        -----------------------------------------
Magnitude (a.u.)       :      0.60563
Magnitude (Debye)      :      1.53939

Rotational constants in cm-1:     0.020386     0.008207     0.007287
Rotational constants in MHz :   611.148347   246.025479   218.455303

                             ****ORCA TERMINATED NORMALLY****
TOTAL RUN TIME: 0 days 0 hours 0 minutes 20 seconds 758 msec
