                         Program Version 4.2.1 -  RELEASE  -
|  1> ! wB97X-D3 SP def2-SVP
|  2> %pal
|  3> nprocs 24
|  4> end
|  5>
|  6> * xyz 0 1
|  7> S 	 -121.967 	 53.9136 	 -37.8396
|  8> C 	 -122.212 	 52.8121 	 -39.1
|  9> C 	 -121.272 	 52.9835 	 -40.0524
| 10> C 	 -120.339 	 54.0169 	 -39.7829
| 11> C 	 -120.624 	 54.7469 	 -38.6511
| 12> H 	 -119.579 	 54.3733 	 -40.4923
| 13> C 	 -121.256 	 52.1331 	 -41.3206
| 14> H 	 -121.47 	 51.1153 	 -41.0106
| 15> H 	 -120.155 	 51.9808 	 -41.6291
| 16> C 	 -122.014 	 52.659 	 -42.4917
| 17> H 	 -121.803 	 52.0314 	 -43.3251
| 18> H 	 -123.112 	 52.6379 	 -42.283
| 19> C 	 -121.679 	 54.1424 	 -42.9528
| 20> H 	 -120.685 	 54.2316 	 -43.4809
| 21> H 	 -122.448 	 54.544 	 -43.5549
| 22> H 	 -121.476 	 54.7291 	 -42.1299
| 23> S 	 -119.725 	 55.5883 	 -36.2638
| 24> C 	 -118.524 	 56.8592 	 -36.1681
| 25> C 	 -118.028 	 57.1169 	 -37.41
| 26> C 	 -118.773 	 56.5626 	 -38.4696
| 27> C 	 -119.795 	 55.7463 	 -37.9811
| 28> H 	 -117.188 	 57.772 	 -37.5421
| 29> C 	 -118.329 	 56.7889 	 -39.892
| 30> H 	 -117.93 	 57.8045 	 -39.9651
| 31> H 	 -119.157 	 56.687 	 -40.5951
| 32> C 	 -117.183 	 55.746 	 -40.2154
| 33> H 	 -117.528 	 54.7611 	 -40.0985
| 34> H 	 -116.459 	 55.7392 	 -39.3337
| 35> C 	 -116.545 	 55.8861 	 -41.5985
| 36> H 	 -116.362 	 56.9513 	 -41.9295
| 37> H 	 -117.235 	 55.3388 	 -42.2812
| 38> H 	 -115.576 	 55.4389 	 -41.5564
| 39> H 	 -123.09 	 52.1709 	 -39.2257
| 40> H 	 -118.089 	 57.3959 	 -35.3098
| 41> *
| 42>
| 43>                          ****END OF INPUT****

CARTESIAN COORDINATES (ANGSTROEM)
---------------------------------
  S    -121.967000   53.913600  -37.839600
  C    -122.212000   52.812100  -39.100000
  C    -121.272000   52.983500  -40.052400
  C    -120.339000   54.016900  -39.782900
  C    -120.624000   54.746900  -38.651100
  H    -119.579000   54.373300  -40.492300
  C    -121.256000   52.133100  -41.320600
  H    -121.470000   51.115300  -41.010600
  H    -120.155000   51.980800  -41.629100
  C    -122.014000   52.659000  -42.491700
  H    -121.803000   52.031400  -43.325100
  H    -123.112000   52.637900  -42.283000
  C    -121.679000   54.142400  -42.952800
  H    -120.685000   54.231600  -43.480900
  H    -122.448000   54.544000  -43.554900
  H    -121.476000   54.729100  -42.129900
  S    -119.725000   55.588300  -36.263800
  C    -118.524000   56.859200  -36.168100
  C    -118.028000   57.116900  -37.410000
  C    -118.773000   56.562600  -38.469600
  C    -119.795000   55.746300  -37.981100
  H    -117.188000   57.772000  -37.542100
  C    -118.329000   56.788900  -39.892000
  H    -117.930000   57.804500  -39.965100
  H    -119.157000   56.687000  -40.595100
  C    -117.183000   55.746000  -40.215400
  H    -117.528000   54.761100  -40.098500
  H    -116.459000   55.739200  -39.333700
  C    -116.545000   55.886100  -41.598500
  H    -116.362000   56.951300  -41.929500
  H    -117.235000   55.338800  -42.281200
  H    -115.576000   55.438900  -41.556400
  H    -123.090000   52.170900  -39.225700
  H    -118.089000   57.395900  -35.309800

 Total Charge           Charge          ....    0
 Multiplicity           Mult            ....    1
 Number of Electrons    NEL             ....  134
 Basis Dimension        Dim             ....  322

ORBITAL ENERGIES
----------------

  NO   OCC          E(Eh)            E(eV)
   0   2.0000     -88.966498     -2420.9015
   1   2.0000     -88.963096     -2420.8089
   2   2.0000     -10.331882      -281.1448
   3   2.0000     -10.327012      -281.0123
   4   2.0000     -10.315061      -280.6871
   5   2.0000     -10.309068      -280.5240
   6   2.0000     -10.300778      -280.2984
   7   2.0000     -10.298051      -280.2242
   8   2.0000     -10.294505      -280.1277
   9   2.0000     -10.294386      -280.1245
  10   2.0000     -10.293800      -280.1085
  11   2.0000     -10.290940      -280.0307
  12   2.0000     -10.288898      -279.9751
  13   2.0000     -10.287391      -279.9341
  14   2.0000     -10.286378      -279.9066
  15   2.0000     -10.273870      -279.5662
  16   2.0000      -8.081561      -219.9105
  17   2.0000      -8.078680      -219.8321
  18   2.0000      -6.040136      -164.3604
  19   2.0000      -6.037196      -164.2805
  20   2.0000      -6.036115      -164.2510
  21   2.0000      -6.032938      -164.1646
  22   2.0000      -6.032125      -164.1425
  23   2.0000      -6.029495      -164.0709
  24   2.0000      -1.015139       -27.6233
  25   2.0000      -0.993436       -27.0328
  26   2.0000      -0.911816       -24.8118
  27   2.0000      -0.908403       -24.7189
  28   2.0000      -0.874880       -23.8067
  29   2.0000      -0.854347       -23.2480
  30   2.0000      -0.842511       -22.9259
  31   2.0000      -0.819889       -22.3103
  32   2.0000      -0.784961       -21.3599
  33   2.0000      -0.773465       -21.0471
  34   2.0000      -0.706949       -19.2371
  35   2.0000      -0.701909       -19.0999
  36   2.0000      -0.697846       -18.9893
  37   2.0000      -0.667600       -18.1663
  38   2.0000      -0.638214       -17.3667
  39   2.0000      -0.619161       -16.8482
  40   2.0000      -0.594342       -16.1729
  41   2.0000      -0.575077       -15.6486
  42   2.0000      -0.561799       -15.2873
  43   2.0000      -0.552570       -15.0362
  44   2.0000      -0.540098       -14.6968
  45   2.0000      -0.525321       -14.2947
  46   2.0000      -0.521006       -14.1773
  47   2.0000      -0.508845       -13.8464
  48   2.0000      -0.508788       -13.8448
  49   2.0000      -0.506461       -13.7815
  50   2.0000      -0.493567       -13.4306
  51   2.0000      -0.476958       -12.9787
  52   2.0000      -0.476368       -12.9626
  53   2.0000      -0.467243       -12.7143
  54   2.0000      -0.460655       -12.5351
  55   2.0000      -0.454979       -12.3806
  56   2.0000      -0.450527       -12.2595
  57   2.0000      -0.441076       -12.0023
  58   2.0000      -0.433022       -11.7831
  59   2.0000      -0.422792       -11.5048
  60   2.0000      -0.417760       -11.3678
  61   2.0000      -0.413651       -11.2560
  62   2.0000      -0.405694       -11.0395
  63   2.0000      -0.362554        -9.8656
  64   2.0000      -0.334220        -9.0946
  65   2.0000      -0.327267        -8.9054
  66   2.0000      -0.285572        -7.7708
  67   0.0000       0.021638         0.5888
  68   0.0000       0.085192         2.3182
  69   0.0000       0.100636         2.7384
  70   0.0000       0.119500         3.2518
  71   0.0000       0.128851         3.5062

MULLIKEN ATOMIC CHARGES
-----------------------
   0 S :    0.092185
   1 C :   -0.107818
   2 C :   -0.106740
   3 C :    0.013585
   4 C :   -0.134787
   5 H :    0.010349
   6 C :    0.034916
   7 H :    0.025189
   8 H :    0.025349
   9 C :   -0.041557
  10 H :    0.029825
  11 H :    0.031902
  12 C :   -0.041204
  13 H :    0.022914
  14 H :    0.037497
  15 H :    0.016588
  16 S :    0.104091
  17 C :   -0.082077
  18 C :   -0.043827
  19 C :   -0.073675
  20 C :   -0.105144
  21 H :    0.010446
  22 C :    0.082964
  23 H :    0.025368
  24 H :    0.030481
  25 C :   -0.116568
  26 H :    0.014874
  27 H :    0.026503
  28 C :   -0.015268
  29 H :    0.040456
  30 H :    0.040120
  31 H :    0.034549
  32 H :    0.058038
  33 H :    0.060480
Sum of atomic charges:   -0.0000000

LOEWDIN ATOMIC CHARGES
----------------------
   0 S :    0.410046
   1 C :   -0.209971
   2 C :   -0.074625
   3 C :   -0.069948
   4 C :   -0.182391
   5 H :    0.031689
   6 C :   -0.040810
   7 H :    0.030258
   8 H :    0.035757
   9 C :   -0.036988
  10 H :    0.022183
  11 H :    0.027127
  12 C :   -0.059813
  13 H :    0.029299
  14 H :    0.023459
  15 H :    0.011956
  16 S :    0.417086
  17 C :   -0.191849
  18 C :   -0.069206
  19 C :   -0.059899
  20 C :   -0.200336
  21 H :    0.028039
  22 C :   -0.026103
  23 H :    0.031222
  24 H :    0.027188
  25 C :   -0.046315
  26 H :    0.014741
  27 H :    0.029468
  28 C :   -0.066851
  29 H :    0.030973
  30 H :    0.031073
  31 H :    0.026179
  32 H :    0.038051
  33 H :    0.039312

  Mayer bond orders larger than 0.100000
B(  0-S ,  1-C ) :   1.1443 B(  0-S ,  4-C ) :   1.1561 B(  1-C ,  2-C ) :   1.6124
B(  1-C , 32-H ) :   0.9639 B(  2-C ,  3-C ) :   1.2713 B(  2-C ,  6-C ) :   1.0085
B(  3-C ,  4-C ) :   1.5486 B(  3-C ,  5-H ) :   0.9767 B(  4-C , 20-C ) :   1.0546
B(  6-C ,  7-H ) :   0.9428 B(  6-C ,  8-H ) :   0.9416 B(  6-C ,  9-C ) :   1.0765
B(  9-C , 10-H ) :   0.9548 B(  9-C , 11-H ) :   0.9561 B(  9-C , 12-C ) :   1.0689
B( 12-C , 13-H ) :   0.9727 B( 12-C , 14-H ) :   0.9760 B( 12-C , 15-H ) :   0.9758
B( 16-S , 17-C ) :   1.1403 B( 16-S , 20-C ) :   1.1525 B( 17-C , 18-C ) :   1.6145
B( 17-C , 33-H ) :   0.9644 B( 18-C , 19-C ) :   1.2639 B( 18-C , 21-H ) :   0.9870
B( 19-C , 20-C ) :   1.5725 B( 19-C , 22-C ) :   1.0574 B( 22-C , 23-H ) :   0.9298
B( 22-C , 24-H ) :   0.9368 B( 22-C , 25-C ) :   1.0445 B( 25-C , 26-H ) :   0.9531
B( 25-C , 27-H ) :   0.9548 B( 25-C , 28-C ) :   1.0671 B( 28-C , 29-H ) :   0.9757
B( 28-C , 30-H ) :   0.9745 B( 28-C , 31-H ) :   0.9718

Dispersion correction           -0.015140591
FINAL SINGLE POINT ENERGY     -1339.871175730864

DIPOLE MOMENT
-------------
                                X             Y             Z
Electronic contribution:     -9.76964       1.16371      29.15040
Nuclear contribution   :     10.20536      -1.19960     -29.73778
                        -----------------------------------------
Total Dipole Moment    :      0.43572      -0.03590      -0.58738
                        -----------------------------------------
Magnitude (a.u.)       :      0.73223
Magnitude (Debye)      :      1.86118

Rotational constants in cm-1:     0.017646     0.010515     0.007046
Rotational constants in MHz :   529.017473   315.218525   211.227350

                             ****ORCA TERMINATED NORMALLY****
TOTAL RUN TIME: 0 days 0 hours 0 minutes 22 seconds 631 msec
