                         Program Version 4.2.1 -  RELEASE  -
|  1> ! wB97X-D3 SP def2-SVP
|  2> %pal
|  3> nprocs 24
|  4> end
|  5>
|  6> * xyz 0 1
|  7> S 	 -42.8843 	 -1.25821 	 12.2292
|  8> C 	 -43.1861 	 0.053901 	 13.3703
|  9> C 	 -43.387 	 -0.468546 	 14.6748
| 10> C 	 -43.3986 	 -1.91419 	 14.7063
| 11> C 	 -43.1257 	 -2.43223 	 13.4965
| 12> H 	 -43.4682 	 -2.58298 	 15.5654
| 13> C 	 -43.4963 	 0.382509 	 15.8961
| 14> H 	 -43.1009 	 1.35415 	 15.6693
| 15> H 	 -42.9706 	 -0.176674 	 16.721
| 16> C 	 -44.9522 	 0.587473 	 16.4043
| 17> H 	 -45.561 	 0.955395 	 15.6304
| 18> H 	 -45.3602 	 -0.402827 	 16.5708
| 19> C 	 -45.2422 	 1.63907 	 17.4812
| 20> H 	 -44.622 	 1.47904 	 18.4265
| 21> H 	 -45.0844 	 2.74614 	 17.245
| 22> H 	 -46.2635 	 1.54296 	 17.8783
| 23> S 	 -41.3245 	 -4.51812 	 13.1873
| 24> C 	 -41.9289 	 -6.12941 	 12.7325
| 25> C 	 -43.2649 	 -6.14658 	 12.8974
| 26> C 	 -43.8308 	 -4.87797 	 13.1199
| 27> C 	 -42.9183 	 -3.88265 	 13.1939
| 28> H 	 -43.7648 	 -7.11086 	 12.7573
| 29> C 	 -45.3775 	 -4.77672 	 13.1146
| 30> H 	 -45.7016 	 -5.12358 	 12.1068
| 31> H 	 -45.703 	 -3.7504 	 13.2029
| 32> C 	 -45.9778 	 -5.43234 	 14.3417
| 33> H 	 -45.45 	 -5.04434 	 15.2236
| 34> H 	 -45.8295 	 -6.5457 	 14.4961
| 35> C 	 -47.4069 	 -4.76098 	 14.5406
| 36> H 	 -48.1864 	 -5.0029 	 13.8889
| 37> H 	 -47.4084 	 -3.69752 	 14.4919
| 38> H 	 -47.7374 	 -4.97206 	 15.5649
| 39> H 	 -43.1731 	 1.11652 	 13.168
| 40> H 	 -41.3126 	 -6.97481 	 12.6
| 41> *
| 42>
| 43>                          ****END OF INPUT****

CARTESIAN COORDINATES (ANGSTROEM)
---------------------------------
  S    -42.884300   -1.258210   12.229200
  C    -43.186100    0.053901   13.370300
  C    -43.387000   -0.468546   14.674800
  C    -43.398600   -1.914190   14.706300
  C    -43.125700   -2.432230   13.496500
  H    -43.468200   -2.582980   15.565400
  C    -43.496300    0.382509   15.896100
  H    -43.100900    1.354150   15.669300
  H    -42.970600   -0.176674   16.721000
  C    -44.952200    0.587473   16.404300
  H    -45.561000    0.955395   15.630400
  H    -45.360200   -0.402827   16.570800
  C    -45.242200    1.639070   17.481200
  H    -44.622000    1.479040   18.426500
  H    -45.084400    2.746140   17.245000
  H    -46.263500    1.542960   17.878300
  S    -41.324500   -4.518120   13.187300
  C    -41.928900   -6.129410   12.732500
  C    -43.264900   -6.146580   12.897400
  C    -43.830800   -4.877970   13.119900
  C    -42.918300   -3.882650   13.193900
  H    -43.764800   -7.110860   12.757300
  C    -45.377500   -4.776720   13.114600
  H    -45.701600   -5.123580   12.106800
  H    -45.703000   -3.750400   13.202900
  C    -45.977800   -5.432340   14.341700
  H    -45.450000   -5.044340   15.223600
  H    -45.829500   -6.545700   14.496100
  C    -47.406900   -4.760980   14.540600
  H    -48.186400   -5.002900   13.888900
  H    -47.408400   -3.697520   14.491900
  H    -47.737400   -4.972060   15.564900
  H    -43.173100    1.116520   13.168000
  H    -41.312600   -6.974810   12.600000

 Total Charge           Charge          ....    0
 Multiplicity           Mult            ....    1
 Number of Electrons    NEL             ....  134
 Basis Dimension        Dim             ....  322

ORBITAL ENERGIES
----------------

  NO   OCC          E(Eh)            E(eV)
   0   2.0000     -88.967638     -2420.9325
   1   2.0000     -88.959529     -2420.7118
   2   2.0000     -10.327388      -281.0225
   3   2.0000     -10.319818      -280.8165
   4   2.0000     -10.318136      -280.7708
   5   2.0000     -10.311234      -280.5829
   6   2.0000     -10.305880      -280.4372
   7   2.0000     -10.296071      -280.1703
   8   2.0000     -10.295081      -280.1434
   9   2.0000     -10.294819      -280.1363
  10   2.0000     -10.294385      -280.1245
  11   2.0000     -10.290898      -280.0296
  12   2.0000     -10.290672      -280.0234
  13   2.0000     -10.287593      -279.9396
  14   2.0000     -10.283477      -279.8276
  15   2.0000     -10.274506      -279.5835
  16   2.0000      -8.082073      -219.9244
  17   2.0000      -8.074842      -219.7276
  18   2.0000      -6.040647      -164.3744
  19   2.0000      -6.036600      -164.2642
  20   2.0000      -6.033363      -164.1761
  21   2.0000      -6.032798      -164.1608
  22   2.0000      -6.029398      -164.0683
  23   2.0000      -6.025419      -163.9600
  24   2.0000      -1.010332       -27.4925
  25   2.0000      -0.986685       -26.8491
  26   2.0000      -0.910213       -24.7682
  27   2.0000      -0.906646       -24.6711
  28   2.0000      -0.868027       -23.6202
  29   2.0000      -0.849701       -23.1215
  30   2.0000      -0.843778       -22.9604
  31   2.0000      -0.820657       -22.3312
  32   2.0000      -0.779048       -21.1990
  33   2.0000      -0.769918       -20.9505
  34   2.0000      -0.705639       -19.2014
  35   2.0000      -0.702040       -19.1035
  36   2.0000      -0.695821       -18.9342
  37   2.0000      -0.659722       -17.9519
  38   2.0000      -0.645079       -17.5535
  39   2.0000      -0.619786       -16.8652
  40   2.0000      -0.599710       -16.3189
  41   2.0000      -0.569819       -15.5056
  42   2.0000      -0.561473       -15.2784
  43   2.0000      -0.555294       -15.1103
  44   2.0000      -0.527280       -14.3480
  45   2.0000      -0.518348       -14.1050
  46   2.0000      -0.516273       -14.0485
  47   2.0000      -0.508886       -13.8475
  48   2.0000      -0.504527       -13.7289
  49   2.0000      -0.502396       -13.6709
  50   2.0000      -0.486927       -13.2500
  51   2.0000      -0.479393       -13.0449
  52   2.0000      -0.471191       -12.8218
  53   2.0000      -0.466521       -12.6947
  54   2.0000      -0.463932       -12.6242
  55   2.0000      -0.450587       -12.2611
  56   2.0000      -0.447768       -12.1844
  57   2.0000      -0.437020       -11.8919
  58   2.0000      -0.432937       -11.7808
  59   2.0000      -0.427854       -11.6425
  60   2.0000      -0.422527       -11.4976
  61   2.0000      -0.408701       -11.1213
  62   2.0000      -0.401619       -10.9286
  63   2.0000      -0.341623        -9.2960
  64   2.0000      -0.330497        -8.9933
  65   2.0000      -0.322372        -8.7722
  66   2.0000      -0.308768        -8.4020
  67   0.0000       0.046055         1.2532
  68   0.0000       0.062293         1.6951
  69   0.0000       0.113076         3.0769
  70   0.0000       0.122619         3.3366
  71   0.0000       0.125148         3.4054

MULLIKEN ATOMIC CHARGES
-----------------------
   0 S :    0.120403
   1 C :   -0.113456
   2 C :   -0.113556
   3 C :    0.049960
   4 C :   -0.174720
   5 H :    0.022487
   6 C :    0.084725
   7 H :    0.012638
   8 H :    0.040430
   9 C :   -0.050632
  10 H :    0.012948
  11 H :    0.018295
  12 C :   -0.088199
  13 H :    0.026821
  14 H :    0.048784
  15 H :    0.039499
  16 S :    0.095613
  17 C :   -0.080872
  18 C :   -0.036402
  19 C :   -0.025928
  20 C :   -0.174496
  21 H :    0.025484
  22 C :    0.105611
  23 H :    0.045586
  24 H :    0.011726
  25 C :   -0.104911
  26 H :    0.028297
  27 H :    0.049556
  28 C :   -0.035615
  29 H :    0.023023
  30 H :    0.022488
  31 H :    0.024936
  32 H :    0.047819
  33 H :    0.041657
Sum of atomic charges:   -0.0000000

LOEWDIN ATOMIC CHARGES
----------------------
   0 S :    0.407024
   1 C :   -0.198834
   2 C :   -0.056622
   3 C :   -0.064614
   4 C :   -0.189510
   5 H :    0.038337
   6 C :   -0.030077
   7 H :    0.026295
   8 H :    0.039819
   9 C :   -0.045838
  10 H :    0.019686
  11 H :    0.023154
  12 C :   -0.081391
  13 H :    0.024825
  14 H :    0.033733
  15 H :    0.030630
  16 S :    0.397461
  17 C :   -0.163201
  18 C :   -0.073247
  19 C :   -0.063810
  20 C :   -0.214899
  21 H :    0.036266
  22 C :   -0.027540
  23 H :    0.035378
  24 H :    0.027594
  25 C :   -0.044102
  26 H :    0.029177
  27 H :    0.031159
  28 C :   -0.061558
  29 H :    0.015639
  30 H :    0.023402
  31 H :    0.026026
  32 H :    0.028336
  33 H :    0.021301

  Mayer bond orders larger than 0.100000
B(  0-S ,  1-C ) :   1.1295 B(  0-S ,  4-C ) :   1.1580 B(  1-C ,  2-C ) :   1.6188
B(  1-C , 32-H ) :   0.9697 B(  2-C ,  3-C ) :   1.1999 B(  2-C ,  6-C ) :   1.0474
B(  3-C ,  4-C ) :   1.6338 B(  3-C ,  5-H ) :   0.9902 B(  4-C , 20-C ) :   0.9663
B(  6-C ,  7-H ) :   0.9363 B(  6-C ,  8-H ) :   0.9359 B(  6-C ,  9-C ) :   1.0607
B(  9-C , 10-H ) :   0.9526 B(  9-C , 11-H ) :   0.9557 B(  9-C , 12-C ) :   1.0738
B( 12-C , 13-H ) :   0.9742 B( 12-C , 14-H ) :   0.9750 B( 12-C , 15-H ) :   0.9721
B( 16-S , 17-C ) :   1.1401 B( 16-S , 20-C ) :   1.1508 B( 17-C , 18-C ) :   1.6348
B( 17-C , 33-H ) :   0.9737 B( 18-C , 19-C ) :   1.2207 B( 18-C , 21-H ) :   0.9894
B( 19-C , 20-C ) :   1.6429 B( 19-C , 22-C ) :   1.0303 B( 22-C , 23-H ) :   0.9416
B( 22-C , 24-H ) :   0.9350 B( 22-C , 25-C ) :   1.0493 B( 25-C , 26-H ) :   0.9524
B( 25-C , 27-H ) :   0.9601 B( 25-C , 28-C ) :   1.0668 B( 28-C , 29-H ) :   0.9782
B( 28-C , 30-H ) :   0.9740 B( 28-C , 31-H ) :   0.9776

Dispersion correction           -0.014014169
FINAL SINGLE POINT ENERGY     -1339.862944462878

DIPOLE MOMENT
-------------
                                X             Y             Z
Electronic contribution:     22.88679      -6.73935     -18.72986
Nuclear contribution   :    -23.34793       6.69033      19.15502
                        -----------------------------------------
Total Dipole Moment    :     -0.46114      -0.04902       0.42516
                        -----------------------------------------
Magnitude (a.u.)       :      0.62914
Magnitude (Debye)      :      1.59914

Rotational constants in cm-1:     0.017858     0.008437     0.006581
Rotational constants in MHz :   535.361641   252.929570   197.307216

                             ****ORCA TERMINATED NORMALLY****
TOTAL RUN TIME: 0 days 0 hours 0 minutes 20 seconds 248 msec
