                         Program Version 4.2.1 -  RELEASE  -
|  1> ! wB97X-D3 SP def2-SVP
|  2> %pal
|  3> nprocs 24
|  4> end
|  5>
|  6> * xyz 0 1
|  7> S 	 -56.2173 	 -49.7973 	 -79.3421
|  8> C 	 -56.8815 	 -50.0687 	 -80.9397
|  9> C 	 -56.0307 	 -49.5074 	 -81.9194
| 10> C 	 -54.9463 	 -48.777 	 -81.2984
| 11> C 	 -54.8199 	 -48.8896 	 -79.948
| 12> H 	 -54.1944 	 -48.1368 	 -81.767
| 13> C 	 -56.3338 	 -49.4868 	 -83.4025
| 14> H 	 -56.6366 	 -50.5742 	 -83.7209
| 15> H 	 -55.4672 	 -49.3178 	 -83.9617
| 16> C 	 -57.4667 	 -48.5956 	 -83.9119
| 17> H 	 -57.5037 	 -48.5069 	 -84.9961
| 18> H 	 -58.4871 	 -48.888 	 -83.5615
| 19> C 	 -57.1977 	 -47.1239 	 -83.4901
| 20> H 	 -57.031 	 -47.1266 	 -82.4655
| 21> H 	 -56.345 	 -46.7146 	 -84.0197
| 22> H 	 -58.0521 	 -46.4454 	 -83.6754
| 23> S 	 -52.3982 	 -49.1433 	 -78.8409
| 24> C 	 -51.8947 	 -48.0829 	 -77.6129
| 25> C 	 -52.8628 	 -47.1731 	 -77.3398
| 26> C 	 -53.9864 	 -47.1668 	 -78.2027
| 27> C 	 -53.8736 	 -48.3194 	 -79.0538
| 28> H 	 -52.6774 	 -46.4409 	 -76.5346
| 29> C 	 -55.1795 	 -46.2247 	 -78.143
| 30> H 	 -55.6688 	 -46.4135 	 -79.1163
| 31> H 	 -54.8684 	 -45.1559 	 -78.0879
| 32> C 	 -56.1171 	 -46.5891 	 -76.9533
| 33> H 	 -55.4372 	 -46.5371 	 -76.0905
| 34> H 	 -56.544 	 -47.5531 	 -77.1202
| 35> C 	 -57.3057 	 -45.5805 	 -76.7995
| 36> H 	 -58.0228 	 -46.1461 	 -76.2733
| 37> H 	 -57.8464 	 -45.333 	 -77.7198
| 38> H 	 -56.9568 	 -44.6909 	 -76.2452
| 39> H 	 -57.6177 	 -50.7745 	 -81.224
| 40> H 	 -50.9956 	 -48.1207 	 -77.0883
| 41> *
| 42>
| 43>                          ****END OF INPUT****

CARTESIAN COORDINATES (ANGSTROEM)
---------------------------------
  S    -56.217300  -49.797300  -79.342100
  C    -56.881500  -50.068700  -80.939700
  C    -56.030700  -49.507400  -81.919400
  C    -54.946300  -48.777000  -81.298400
  C    -54.819900  -48.889600  -79.948000
  H    -54.194400  -48.136800  -81.767000
  C    -56.333800  -49.486800  -83.402500
  H    -56.636600  -50.574200  -83.720900
  H    -55.467200  -49.317800  -83.961700
  C    -57.466700  -48.595600  -83.911900
  H    -57.503700  -48.506900  -84.996100
  H    -58.487100  -48.888000  -83.561500
  C    -57.197700  -47.123900  -83.490100
  H    -57.031000  -47.126600  -82.465500
  H    -56.345000  -46.714600  -84.019700
  H    -58.052100  -46.445400  -83.675400
  S    -52.398200  -49.143300  -78.840900
  C    -51.894700  -48.082900  -77.612900
  C    -52.862800  -47.173100  -77.339800
  C    -53.986400  -47.166800  -78.202700
  C    -53.873600  -48.319400  -79.053800
  H    -52.677400  -46.440900  -76.534600
  C    -55.179500  -46.224700  -78.143000
  H    -55.668800  -46.413500  -79.116300
  H    -54.868400  -45.155900  -78.087900
  C    -56.117100  -46.589100  -76.953300
  H    -55.437200  -46.537100  -76.090500
  H    -56.544000  -47.553100  -77.120200
  C    -57.305700  -45.580500  -76.799500
  H    -58.022800  -46.146100  -76.273300
  H    -57.846400  -45.333000  -77.719800
  H    -56.956800  -44.690900  -76.245200
  H    -57.617700  -50.774500  -81.224000
  H    -50.995600  -48.120700  -77.088300

 Total Charge           Charge          ....    0
 Multiplicity           Mult            ....    1
 Number of Electrons    NEL             ....  134
 Basis Dimension        Dim             ....  322

ORBITAL ENERGIES
----------------

  NO   OCC          E(Eh)            E(eV)
   0   2.0000     -88.967166     -2420.9197
   1   2.0000     -88.965785     -2420.8821
   2   2.0000     -10.325368      -280.9676
   3   2.0000     -10.321360      -280.8585
   4   2.0000     -10.317157      -280.7441
   5   2.0000     -10.308645      -280.5125
   6   2.0000     -10.306203      -280.4460
   7   2.0000     -10.305650      -280.4310
   8   2.0000     -10.297115      -280.1988
   9   2.0000     -10.296256      -280.1754
  10   2.0000     -10.294059      -280.1156
  11   2.0000     -10.289476      -279.9909
  12   2.0000     -10.289392      -279.9886
  13   2.0000     -10.285625      -279.8861
  14   2.0000     -10.274830      -279.5923
  15   2.0000     -10.267406      -279.3903
  16   2.0000      -8.083461      -219.9622
  17   2.0000      -8.079796      -219.8624
  18   2.0000      -6.041715      -164.4034
  19   2.0000      -6.038335      -164.3115
  20   2.0000      -6.037585      -164.2910
  21   2.0000      -6.034556      -164.2086
  22   2.0000      -6.034228      -164.1997
  23   2.0000      -6.030725      -164.1044
  24   2.0000      -1.013317       -27.5738
  25   2.0000      -0.985769       -26.8241
  26   2.0000      -0.911411       -24.8007
  27   2.0000      -0.904904       -24.6237
  28   2.0000      -0.874124       -23.7861
  29   2.0000      -0.849431       -23.1142
  30   2.0000      -0.841726       -22.9045
  31   2.0000      -0.817174       -22.2364
  32   2.0000      -0.782998       -21.3065
  33   2.0000      -0.770045       -20.9540
  34   2.0000      -0.706902       -19.2358
  35   2.0000      -0.700905       -19.0726
  36   2.0000      -0.694340       -18.8939
  37   2.0000      -0.656173       -17.8554
  38   2.0000      -0.643280       -17.5045
  39   2.0000      -0.611337       -16.6353
  40   2.0000      -0.595129       -16.1943
  41   2.0000      -0.578150       -15.7322
  42   2.0000      -0.570556       -15.5256
  43   2.0000      -0.551622       -15.0104
  44   2.0000      -0.541816       -14.7436
  45   2.0000      -0.518817       -14.1177
  46   2.0000      -0.517159       -14.0726
  47   2.0000      -0.511589       -13.9210
  48   2.0000      -0.503952       -13.7132
  49   2.0000      -0.503706       -13.7065
  50   2.0000      -0.491877       -13.3847
  51   2.0000      -0.474832       -12.9208
  52   2.0000      -0.471471       -12.8294
  53   2.0000      -0.466268       -12.6878
  54   2.0000      -0.461062       -12.5461
  55   2.0000      -0.442471       -12.0402
  56   2.0000      -0.439782       -11.9671
  57   2.0000      -0.434691       -11.8285
  58   2.0000      -0.432492       -11.7687
  59   2.0000      -0.425243       -11.5714
  60   2.0000      -0.419144       -11.4055
  61   2.0000      -0.417944       -11.3728
  62   2.0000      -0.410993       -11.1837
  63   2.0000      -0.336916        -9.1680
  64   2.0000      -0.335398        -9.1266
  65   2.0000      -0.318489        -8.6665
  66   2.0000      -0.307089        -8.3563
  67   0.0000       0.040760         1.1091
  68   0.0000       0.051406         1.3988
  69   0.0000       0.114287         3.1099
  70   0.0000       0.122839         3.3426
  71   0.0000       0.132670         3.6101

MULLIKEN ATOMIC CHARGES
-----------------------
   0 S :    0.111214
   1 C :   -0.093295
   2 C :   -0.113351
   3 C :    0.052397
   4 C :   -0.188477
   5 H :    0.014632
   6 C :    0.058887
   7 H :    0.040276
   8 H :    0.011157
   9 C :   -0.059519
  10 H :    0.032184
  11 H :    0.033262
  12 C :   -0.063755
  13 H :    0.029744
  14 H :    0.025232
  15 H :    0.033495
  16 S :    0.146116
  17 C :   -0.062898
  18 C :   -0.059818
  19 C :   -0.007089
  20 C :   -0.215203
  21 H :    0.021713
  22 C :    0.061967
  23 H :    0.033666
  24 H :    0.036891
  25 C :   -0.086450
  26 H :    0.032407
  27 H :    0.024830
  28 C :   -0.021593
  29 H :    0.021330
  30 H :    0.032055
  31 H :    0.042338
  32 H :    0.044894
  33 H :    0.030762
Sum of atomic charges:    0.0000000

LOEWDIN ATOMIC CHARGES
----------------------
   0 S :    0.401591
   1 C :   -0.190458
   2 C :   -0.063775
   3 C :   -0.061146
   4 C :   -0.199658
   5 H :    0.035039
   6 C :   -0.036816
   7 H :    0.043284
   8 H :    0.022158
   9 C :   -0.038620
  10 H :    0.025576
  11 H :    0.025218
  12 C :   -0.064323
  13 H :    0.013293
  14 H :    0.021897
  15 H :    0.027588
  16 S :    0.463459
  17 C :   -0.198424
  18 C :   -0.078788
  19 C :   -0.045732
  20 C :   -0.233573
  21 H :    0.032555
  22 C :   -0.036026
  23 H :    0.032579
  24 H :    0.034383
  25 C :   -0.029909
  26 H :    0.025924
  27 H :    0.015795
  28 C :   -0.065987
  29 H :    0.021633
  30 H :    0.027737
  31 H :    0.028702
  32 H :    0.024778
  33 H :    0.020043

  Mayer bond orders larger than 0.100000
B(  0-S ,  1-C ) :   1.1549 B(  0-S ,  4-C ) :   1.1272 B(  1-C ,  2-C ) :   1.5923
B(  1-C ,  4-C ) :   0.1024 B(  1-C , 32-H ) :   0.9705 B(  2-C ,  3-C ) :   1.2165
B(  2-C ,  6-C ) :   1.0381 B(  3-C ,  4-C ) :   1.6246 B(  3-C ,  5-H ) :   0.9886
B(  4-C , 20-C ) :   1.0256 B(  6-C ,  7-H ) :   0.9365 B(  6-C ,  8-H ) :   0.9412
B(  6-C ,  9-C ) :   1.0707 B(  9-C , 10-H ) :   0.9579 B(  9-C , 11-H ) :   0.9578
B(  9-C , 12-C ) :   1.0683 B( 12-C , 13-H ) :   0.9784 B( 12-C , 14-H ) :   0.9766
B( 12-C , 15-H ) :   0.9742 B( 16-S , 17-C ) :   1.1682 B( 16-S , 20-C ) :   1.1971
B( 17-C , 18-C ) :   1.5896 B( 17-C , 20-C ) :   0.1075 B( 17-C , 33-H ) :   0.9751
B( 18-C , 19-C ) :   1.2739 B( 18-C , 21-H ) :   0.9810 B( 19-C , 20-C ) :   1.5172
B( 19-C , 22-C ) :   1.0492 B( 22-C , 23-H ) :   0.9226 B( 22-C , 24-H ) :   0.9387
B( 22-C , 25-C ) :   1.0610 B( 25-C , 26-H ) :   0.9615 B( 25-C , 27-H ) :   0.9549
B( 25-C , 28-C ) :   1.0775 B( 28-C , 29-H ) :   0.9760 B( 28-C , 30-H ) :   0.9737
B( 28-C , 31-H ) :   0.9769

Dispersion correction           -0.014951405
FINAL SINGLE POINT ENERGY     -1339.875679535270

DIPOLE MOMENT
-------------
                                X             Y             Z
Electronic contribution:     16.68652     -15.45496       7.79895
Nuclear contribution   :    -16.78599      15.76902      -7.95523
                        -----------------------------------------
Total Dipole Moment    :     -0.09947       0.31406      -0.15629
                        -----------------------------------------
Magnitude (a.u.)       :      0.36463
Magnitude (Debye)      :      0.92682

Rotational constants in cm-1:     0.018432     0.008953     0.007291
Rotational constants in MHz :   552.568831   268.408052   218.571735

                             ****ORCA TERMINATED NORMALLY****
TOTAL RUN TIME: 0 days 0 hours 0 minutes 20 seconds 593 msec
