                         Program Version 4.2.1 -  RELEASE  -
|  1> ! wB97X-D3 SP def2-SVP
|  2> %pal
|  3> nprocs 24
|  4> end
|  5>
|  6> * xyz 0 1
|  7> S 	 -99.4384 	 -1.82292 	 -110.111
|  8> C 	 -100.817 	 -1.99148 	 -111.205
|  9> C 	 -102.017 	 -2.12258 	 -110.473
| 10> C 	 -101.803 	 -1.92393 	 -109.096
| 11> C 	 -100.505 	 -1.66824 	 -108.788
| 12> H 	 -102.53 	 -1.97569 	 -108.32
| 13> C 	 -103.408 	 -2.48272 	 -111.029
| 14> H 	 -103.413 	 -3.61018 	 -111.039
| 15> H 	 -103.424 	 -2.3378 	 -112.134
| 16> C 	 -104.686 	 -1.80656 	 -110.548
| 17> H 	 -104.739 	 -1.72149 	 -109.471
| 18> H 	 -104.554 	 -0.809259 	 -111.031
| 19> C 	 -106.039 	 -2.35825 	 -111.042
| 20> H 	 -106.079 	 -3.38217 	 -110.887
| 21> H 	 -106.934 	 -2.02481 	 -110.468
| 22> H 	 -106.257 	 -2.09587 	 -112.072
| 23> S 	 -98.5277 	 -2.07255 	 -106.844
| 24> C 	 -98.5503 	 -0.960735 	 -105.466
| 25> C 	 -99.7005 	 -0.29097 	 -105.332
| 26> C 	 -100.564 	 -0.464983 	 -106.498
| 27> C 	 -100.042 	 -1.32018 	 -107.445
| 28> H 	 -99.7509 	 0.356214 	 -104.465
| 29> C 	 -101.926 	 0.14419 	 -106.507
| 30> H 	 -102.648 	 -0.649982 	 -106.562
| 31> H 	 -102.037 	 0.627384 	 -107.502
| 32> C 	 -102.251 	 1.04621 	 -105.305
| 33> H 	 -102.304 	 0.487634 	 -104.406
| 34> H 	 -103.24 	 1.2867 	 -105.477
| 35> C 	 -101.567 	 2.4426 	 -105.246
| 36> H 	 -101.511 	 2.70288 	 -106.304
| 37> H 	 -100.615 	 2.42178 	 -104.731
| 38> H 	 -102.208 	 3.19311 	 -104.655
| 39> H 	 -100.708 	 -2.27786 	 -112.202
| 40> H 	 -97.7559 	 -0.891487 	 -104.723
| 41> *
| 42>
| 43>                          ****END OF INPUT****

CARTESIAN COORDINATES (ANGSTROEM)
---------------------------------
  S    -99.438400   -1.822920  -110.111000
  C    -100.817000   -1.991480  -111.205000
  C    -102.017000   -2.122580  -110.473000
  C    -101.803000   -1.923930  -109.096000
  C    -100.505000   -1.668240  -108.788000
  H    -102.530000   -1.975690  -108.320000
  C    -103.408000   -2.482720  -111.029000
  H    -103.413000   -3.610180  -111.039000
  H    -103.424000   -2.337800  -112.134000
  C    -104.686000   -1.806560  -110.548000
  H    -104.739000   -1.721490  -109.471000
  H    -104.554000   -0.809259  -111.031000
  C    -106.039000   -2.358250  -111.042000
  H    -106.079000   -3.382170  -110.887000
  H    -106.934000   -2.024810  -110.468000
  H    -106.257000   -2.095870  -112.072000
  S    -98.527700   -2.072550  -106.844000
  C    -98.550300   -0.960735  -105.466000
  C    -99.700500   -0.290970  -105.332000
  C    -100.564000   -0.464983  -106.498000
  C    -100.042000   -1.320180  -107.445000
  H    -99.750900    0.356214  -104.465000
  C    -101.926000    0.144190  -106.507000
  H    -102.648000   -0.649982  -106.562000
  H    -102.037000    0.627384  -107.502000
  C    -102.251000    1.046210  -105.305000
  H    -102.304000    0.487634  -104.406000
  H    -103.240000    1.286700  -105.477000
  C    -101.567000    2.442600  -105.246000
  H    -101.511000    2.702880  -106.304000
  H    -100.615000    2.421780  -104.731000
  H    -102.208000    3.193110  -104.655000
  H    -100.708000   -2.277860  -112.202000
  H    -97.755900   -0.891487  -104.723000

 Total Charge           Charge          ....    0
 Multiplicity           Mult            ....    1
 Number of Electrons    NEL             ....  134
 Basis Dimension        Dim             ....  322

ORBITAL ENERGIES
----------------

  NO   OCC          E(Eh)            E(eV)
   0   2.0000     -88.968106     -2420.9452
   1   2.0000     -88.959566     -2420.7129
   2   2.0000     -10.324535      -280.9449
   3   2.0000     -10.323686      -280.9218
   4   2.0000     -10.312421      -280.6152
   5   2.0000     -10.312378      -280.6141
   6   2.0000     -10.308012      -280.4953
   7   2.0000     -10.302877      -280.3555
   8   2.0000     -10.301173      -280.3092
   9   2.0000     -10.293762      -280.1075
  10   2.0000     -10.291534      -280.0469
  11   2.0000     -10.289704      -279.9971
  12   2.0000     -10.286686      -279.9150
  13   2.0000     -10.286232      -279.9026
  14   2.0000     -10.279588      -279.7218
  15   2.0000     -10.279463      -279.7184
  16   2.0000      -8.083228      -219.9558
  17   2.0000      -8.073772      -219.6985
  18   2.0000      -6.041652      -164.4017
  19   2.0000      -6.037737      -164.2952
  20   2.0000      -6.033997      -164.1934
  21   2.0000      -6.032403      -164.1500
  22   2.0000      -6.028599      -164.0465
  23   2.0000      -6.024210      -163.9271
  24   2.0000      -1.008606       -27.4456
  25   2.0000      -0.982070       -26.7235
  26   2.0000      -0.912017       -24.8172
  27   2.0000      -0.909722       -24.7548
  28   2.0000      -0.871480       -23.7142
  29   2.0000      -0.855654       -23.2835
  30   2.0000      -0.840947       -22.8833
  31   2.0000      -0.819226       -22.2923
  32   2.0000      -0.787296       -21.4234
  33   2.0000      -0.774328       -21.0705
  34   2.0000      -0.712697       -19.3935
  35   2.0000      -0.701281       -19.0828
  36   2.0000      -0.695953       -18.9379
  37   2.0000      -0.652683       -17.7604
  38   2.0000      -0.643596       -17.5131
  39   2.0000      -0.627262       -17.0687
  40   2.0000      -0.596933       -16.2434
  41   2.0000      -0.571967       -15.5640
  42   2.0000      -0.566620       -15.4185
  43   2.0000      -0.559062       -15.2129
  44   2.0000      -0.529747       -14.4151
  45   2.0000      -0.522405       -14.2154
  46   2.0000      -0.518016       -14.0959
  47   2.0000      -0.510501       -13.8915
  48   2.0000      -0.507939       -13.8217
  49   2.0000      -0.496302       -13.5051
  50   2.0000      -0.489885       -13.3305
  51   2.0000      -0.483853       -13.1663
  52   2.0000      -0.475311       -12.9339
  53   2.0000      -0.468692       -12.7537
  54   2.0000      -0.457633       -12.4528
  55   2.0000      -0.455025       -12.3819
  56   2.0000      -0.439601       -11.9621
  57   2.0000      -0.436483       -11.8773
  58   2.0000      -0.435136       -11.8406
  59   2.0000      -0.431994       -11.7551
  60   2.0000      -0.421025       -11.4567
  61   2.0000      -0.417653       -11.3649
  62   2.0000      -0.409343       -11.1388
  63   2.0000      -0.347374        -9.4525
  64   2.0000      -0.333537        -9.0760
  65   2.0000      -0.326344        -8.8803
  66   2.0000      -0.288588        -7.8529
  67   0.0000       0.027405         0.7457
  68   0.0000       0.075768         2.0617
  69   0.0000       0.103878         2.8267
  70   0.0000       0.123393         3.3577
  71   0.0000       0.134756         3.6669

MULLIKEN ATOMIC CHARGES
-----------------------
   0 S :    0.122875
   1 C :   -0.103666
   2 C :   -0.062067
   3 C :    0.000189
   4 C :   -0.122085
   5 H :   -0.006108
   6 C :    0.032013
   7 H :    0.042360
   8 H :    0.016302
   9 C :   -0.077575
  10 H :    0.032180
  11 H :    0.042847
  12 C :   -0.035213
  13 H :    0.016084
  14 H :    0.033763
  15 H :    0.034811
  16 S :    0.079029
  17 C :   -0.081794
  18 C :   -0.037055
  19 C :   -0.033916
  20 C :   -0.152282
  21 H :    0.022978
  22 C :    0.023180
  23 H :    0.033002
  24 H :    0.038480
  25 C :   -0.019491
  26 H :    0.021455
  27 H :    0.002286
  28 C :   -0.065651
  29 H :    0.042385
  30 H :    0.036783
  31 H :    0.045569
  32 H :    0.028724
  33 H :    0.049607
Sum of atomic charges:   -0.0000000

LOEWDIN ATOMIC CHARGES
----------------------
   0 S :    0.425225
   1 C :   -0.192279
   2 C :   -0.050196
   3 C :   -0.067058
   4 C :   -0.200923
   5 H :    0.025452
   6 C :   -0.046511
   7 H :    0.036172
   8 H :    0.032447
   9 C :   -0.044621
  10 H :    0.019279
  11 H :    0.035741
  12 C :   -0.061887
  13 H :    0.015087
  14 H :    0.035454
  15 H :    0.025797
  16 S :    0.356135
  17 C :   -0.167373
  18 C :   -0.076582
  19 C :   -0.051081
  20 C :   -0.183366
  21 H :    0.036611
  22 C :   -0.035004
  23 H :    0.029652
  24 H :    0.038965
  25 C :   -0.041567
  26 H :    0.020202
  27 H :    0.020700
  28 C :   -0.062514
  29 H :    0.031502
  30 H :    0.017912
  31 H :    0.035610
  32 H :    0.013682
  33 H :    0.029336

  Mayer bond orders larger than 0.100000
B(  0-S ,  1-C ) :   1.1358 B(  0-S ,  4-C ) :   1.1706 B(  1-C ,  2-C ) :   1.5900
B(  1-C , 32-H ) :   0.9739 B(  2-C ,  3-C ) :   1.2503 B(  2-C ,  6-C ) :   1.0204
B(  3-C ,  4-C ) :   1.5492 B(  3-C ,  5-H ) :   1.0042 B(  4-C , 20-C ) :   1.0491
B(  6-C ,  7-H ) :   0.9328 B(  6-C ,  8-H ) :   0.9440 B(  6-C ,  9-C ) :   1.0444
B(  9-C , 10-H ) :   0.9582 B(  9-C , 11-H ) :   0.9607 B(  9-C , 12-C ) :   1.0833
B( 12-C , 13-H ) :   0.9751 B( 12-C , 14-H ) :   0.9735 B( 12-C , 15-H ) :   0.9776
B( 16-S , 17-C ) :   1.1259 B( 16-S , 20-C ) :   1.1056 B( 17-C , 18-C ) :   1.6841
B( 17-C , 33-H ) :   0.9558 B( 18-C , 19-C ) :   1.1796 B( 18-C , 21-H ) :   0.9838
B( 19-C , 20-C ) :   1.6528 B( 19-C , 22-C ) :   1.0324 B( 22-C , 23-H ) :   0.9278
B( 22-C , 24-H ) :   0.9175 B( 22-C , 25-C ) :   1.1076 B( 25-C , 26-H ) :   0.9409
B( 25-C , 27-H ) :   0.9401 B( 25-C , 28-C ) :   1.0590 B( 28-C , 29-H ) :   0.9733
B( 28-C , 30-H ) :   0.9783 B( 28-C , 31-H ) :   0.9770

Dispersion correction           -0.013820143
FINAL SINGLE POINT ENERGY     -1339.859743455042

DIPOLE MOMENT
-------------
                                X             Y             Z
Electronic contribution:     28.49499     -10.15348      -1.38154
Nuclear contribution   :    -29.30643      10.29657       1.55183
                        -----------------------------------------
Total Dipole Moment    :     -0.81144       0.14309       0.17029
                        -----------------------------------------
Magnitude (a.u.)       :      0.84138
Magnitude (Debye)      :      2.13861

Rotational constants in cm-1:     0.017474     0.008585     0.006237
Rotational constants in MHz :   523.861364   257.356908   186.987583

                             ****ORCA TERMINATED NORMALLY****
TOTAL RUN TIME: 0 days 0 hours 0 minutes 21 seconds 285 msec
