                         Program Version 4.2.1 -  RELEASE  -
|  1> ! wB97X-D3 SP def2-SVP
|  2> %pal
|  3> nprocs 24
|  4> end
|  5>
|  6> * xyz 0 1
|  7> S 	 -67.4377 	 -55.2327 	 -82.3026
|  8> C 	 -66.0176 	 -56.1369 	 -82.8526
|  9> C 	 -65.3749 	 -56.7296 	 -81.7795
| 10> C 	 -65.8532 	 -56.1449 	 -80.5692
| 11> C 	 -67.0367 	 -55.4757 	 -80.689
| 12> H 	 -65.26 	 -56.2339 	 -79.6603
| 13> C 	 -64.0776 	 -57.4209 	 -81.9675
| 14> H 	 -64.3253 	 -58.0578 	 -82.8672
| 15> H 	 -63.9217 	 -58.1726 	 -81.2156
| 16> C 	 -62.7681 	 -56.5736 	 -82.1639
| 17> H 	 -61.9539 	 -57.2461 	 -82.4423
| 18> H 	 -62.9215 	 -55.8875 	 -83.0207
| 19> C 	 -62.4675 	 -55.7604 	 -80.9451
| 20> H 	 -61.4706 	 -55.4548 	 -80.939
| 21> H 	 -63.141 	 -54.9103 	 -80.9583
| 22> H 	 -62.5773 	 -56.3431 	 -80.0374
| 23> S 	 -68.0078 	 -53.0525 	 -79.8927
| 24> C 	 -68.7927 	 -52.9016 	 -78.3205
| 25> C 	 -68.8664 	 -54.1164 	 -77.6852
| 26> C 	 -68.3095 	 -55.1914 	 -78.4693
| 27> C 	 -67.705 	 -54.7829 	 -79.6148
| 28> H 	 -69.5255 	 -54.2115 	 -76.7387
| 29> C 	 -68.2824 	 -56.6181 	 -78.0146
| 30> H 	 -68.4112 	 -57.2408 	 -78.9052
| 31> H 	 -69.2073 	 -56.6884 	 -77.4256
| 32> C 	 -67.0551 	 -57.0874 	 -77.3068
| 33> H 	 -66.228 	 -56.9379 	 -78.0174
| 34> H 	 -67.1164 	 -58.1123 	 -77.0644
| 35> C 	 -66.7431 	 -56.2908 	 -76.0198
| 36> H 	 -67.3766 	 -56.5183 	 -75.2017
| 37> H 	 -66.7961 	 -55.1261 	 -76.0609
| 38> H 	 -65.7564 	 -56.5623 	 -75.7894
| 39> H 	 -65.8814 	 -56.4973 	 -83.844
| 40> H 	 -69.29 	 -51.9803 	 -77.9524
| 41> *
| 42>
| 43>                          ****END OF INPUT****

CARTESIAN COORDINATES (ANGSTROEM)
---------------------------------
  S    -67.437700  -55.232700  -82.302600
  C    -66.017600  -56.136900  -82.852600
  C    -65.374900  -56.729600  -81.779500
  C    -65.853200  -56.144900  -80.569200
  C    -67.036700  -55.475700  -80.689000
  H    -65.260000  -56.233900  -79.660300
  C    -64.077600  -57.420900  -81.967500
  H    -64.325300  -58.057800  -82.867200
  H    -63.921700  -58.172600  -81.215600
  C    -62.768100  -56.573600  -82.163900
  H    -61.953900  -57.246100  -82.442300
  H    -62.921500  -55.887500  -83.020700
  C    -62.467500  -55.760400  -80.945100
  H    -61.470600  -55.454800  -80.939000
  H    -63.141000  -54.910300  -80.958300
  H    -62.577300  -56.343100  -80.037400
  S    -68.007800  -53.052500  -79.892700
  C    -68.792700  -52.901600  -78.320500
  C    -68.866400  -54.116400  -77.685200
  C    -68.309500  -55.191400  -78.469300
  C    -67.705000  -54.782900  -79.614800
  H    -69.525500  -54.211500  -76.738700
  C    -68.282400  -56.618100  -78.014600
  H    -68.411200  -57.240800  -78.905200
  H    -69.207300  -56.688400  -77.425600
  C    -67.055100  -57.087400  -77.306800
  H    -66.228000  -56.937900  -78.017400
  H    -67.116400  -58.112300  -77.064400
  C    -66.743100  -56.290800  -76.019800
  H    -67.376600  -56.518300  -75.201700
  H    -66.796100  -55.126100  -76.060900
  H    -65.756400  -56.562300  -75.789400
  H    -65.881400  -56.497300  -83.844000
  H    -69.290000  -51.980300  -77.952400

 Total Charge           Charge          ....    0
 Multiplicity           Mult            ....    1
 Number of Electrons    NEL             ....  134
 Basis Dimension        Dim             ....  322

ORBITAL ENERGIES
----------------

  NO   OCC          E(Eh)            E(eV)
   0   2.0000     -88.968185     -2420.9474
   1   2.0000     -88.960334     -2420.7338
   2   2.0000     -10.323172      -280.9078
   3   2.0000     -10.321544      -280.8635
   4   2.0000     -10.320066      -280.8233
   5   2.0000     -10.312551      -280.6188
   6   2.0000     -10.300688      -280.2960
   7   2.0000     -10.298423      -280.2343
   8   2.0000     -10.298218      -280.2288
   9   2.0000     -10.293340      -280.0960
  10   2.0000     -10.291361      -280.0422
  11   2.0000     -10.290335      -280.0142
  12   2.0000     -10.282777      -279.8086
  13   2.0000     -10.281011      -279.7605
  14   2.0000     -10.272209      -279.5210
  15   2.0000     -10.269327      -279.4426
  16   2.0000      -8.083872      -219.9733
  17   2.0000      -8.074831      -219.7273
  18   2.0000      -6.042291      -164.4191
  19   2.0000      -6.038184      -164.3073
  20   2.0000      -6.034709      -164.2128
  21   2.0000      -6.033438      -164.1782
  22   2.0000      -6.029415      -164.0687
  23   2.0000      -6.025437      -163.9605
  24   2.0000      -1.015748       -27.6399
  25   2.0000      -0.986108       -26.8334
  26   2.0000      -0.917681       -24.9714
  27   2.0000      -0.912191       -24.8220
  28   2.0000      -0.873566       -23.7709
  29   2.0000      -0.851511       -23.1708
  30   2.0000      -0.842334       -22.9211
  31   2.0000      -0.818315       -22.2675
  32   2.0000      -0.785063       -21.3627
  33   2.0000      -0.774347       -21.0711
  34   2.0000      -0.709930       -19.3182
  35   2.0000      -0.704805       -19.1787
  36   2.0000      -0.690902       -18.8004
  37   2.0000      -0.659506       -17.9461
  38   2.0000      -0.640375       -17.4255
  39   2.0000      -0.617985       -16.8162
  40   2.0000      -0.587476       -15.9860
  41   2.0000      -0.573720       -15.6117
  42   2.0000      -0.555925       -15.1275
  43   2.0000      -0.554131       -15.0787
  44   2.0000      -0.548673       -14.9301
  45   2.0000      -0.540821       -14.7165
  46   2.0000      -0.520644       -14.1675
  47   2.0000      -0.514372       -13.9968
  48   2.0000      -0.504913       -13.7394
  49   2.0000      -0.494436       -13.4543
  50   2.0000      -0.488789       -13.3006
  51   2.0000      -0.478489       -13.0204
  52   2.0000      -0.470039       -12.7904
  53   2.0000      -0.468568       -12.7504
  54   2.0000      -0.456334       -12.4175
  55   2.0000      -0.444986       -12.1087
  56   2.0000      -0.438187       -11.9237
  57   2.0000      -0.437787       -11.9128
  58   2.0000      -0.430943       -11.7265
  59   2.0000      -0.425051       -11.5662
  60   2.0000      -0.420648       -11.4464
  61   2.0000      -0.419766       -11.4224
  62   2.0000      -0.407818       -11.0973
  63   2.0000      -0.345450        -9.4002
  64   2.0000      -0.333298        -9.0695
  65   2.0000      -0.326971        -8.8973
  66   2.0000      -0.297709        -8.1011
  67   0.0000       0.031051         0.8449
  68   0.0000       0.067415         1.8345
  69   0.0000       0.107482         2.9247
  70   0.0000       0.120017         3.2658
  71   0.0000       0.134354         3.6559

MULLIKEN ATOMIC CHARGES
-----------------------
   0 S :    0.121882
   1 C :   -0.117007
   2 C :   -0.093476
   3 C :   -0.006068
   4 C :   -0.126886
   5 H :    0.036929
   6 C :    0.016204
   7 H :    0.026945
   8 H :    0.018266
   9 C :   -0.045378
  10 H :    0.032728
  11 H :    0.029289
  12 C :   -0.022193
  13 H :    0.019764
  14 H :    0.049238
  15 H :    0.021275
  16 S :    0.084985
  17 C :   -0.106254
  18 C :   -0.058694
  19 C :   -0.067224
  20 C :   -0.152272
  21 H :    0.052479
  22 C :    0.080985
  23 H :    0.030074
  24 H :    0.014551
  25 C :   -0.009438
  26 H :    0.004285
  27 H :    0.024045
  28 C :   -0.065061
  29 H :    0.020010
  30 H :    0.052404
  31 H :    0.018401
  32 H :    0.044690
  33 H :    0.070521
Sum of atomic charges:   -0.0000000

LOEWDIN ATOMIC CHARGES
----------------------
   0 S :    0.432937
   1 C :   -0.185197
   2 C :   -0.066420
   3 C :   -0.061826
   4 C :   -0.220589
   5 H :    0.030073
   6 C :   -0.041186
   7 H :    0.038143
   8 H :    0.023490
   9 C :   -0.032064
  10 H :    0.024178
  11 H :    0.026974
  12 C :   -0.059978
  13 H :    0.020337
  14 H :    0.032289
  15 H :    0.022241
  16 S :    0.375878
  17 C :   -0.184299
  18 C :   -0.087183
  19 C :   -0.057601
  20 C :   -0.184813
  21 H :    0.048181
  22 C :   -0.034608
  23 H :    0.033952
  24 H :    0.028565
  25 C :   -0.031709
  26 H :    0.023322
  27 H :    0.022587
  28 C :   -0.067831
  29 H :    0.016320
  30 H :    0.038899
  31 H :    0.017792
  32 H :    0.021224
  33 H :    0.037923

  Mayer bond orders larger than 0.100000
B(  0-S ,  1-C ) :   1.1425 B(  0-S ,  4-C ) :   1.1663 B(  1-C ,  2-C ) :   1.5845
B(  1-C , 32-H ) :   0.9661 B(  2-C ,  3-C ) :   1.2506 B(  2-C ,  6-C ) :   1.0497
B(  3-C ,  4-C ) :   1.5620 B(  3-C ,  5-H ) :   0.9758 B(  4-C , 20-C ) :   1.0288
B(  6-C ,  7-H ) :   0.9335 B(  6-C ,  8-H ) :   0.9392 B(  6-C ,  9-C ) :   1.0592
B(  9-C , 10-H ) :   0.9545 B(  9-C , 11-H ) :   0.9553 B(  9-C , 12-C ) :   1.0831
B( 12-C , 13-H ) :   0.9675 B( 12-C , 14-H ) :   0.9723 B( 12-C , 15-H ) :   0.9729
B( 16-S , 17-C ) :   1.1439 B( 16-S , 20-C ) :   1.1125 B( 17-C , 18-C ) :   1.6414
B( 17-C , 33-H ) :   0.9608 B( 18-C , 19-C ) :   1.2102 B( 18-C , 21-H ) :   0.9712
B( 19-C , 20-C ) :   1.6462 B( 19-C , 22-C ) :   1.0508 B( 22-C , 23-H ) :   0.9198
B( 22-C , 24-H ) :   0.9280 B( 22-C , 25-C ) :   1.0897 B( 25-C , 26-H ) :   0.9470
B( 25-C , 27-H ) :   0.9461 B( 25-C , 28-C ) :   1.0743 B( 28-C , 29-H ) :   0.9760
B( 28-C , 30-H ) :   0.9718 B( 28-C , 31-H ) :   0.9742

Dispersion correction           -0.015470480
FINAL SINGLE POINT ENERGY     -1339.872415712261

DIPOLE MOMENT
-------------
                                X             Y             Z
Electronic contribution:    -17.46596      13.55719     -11.95778
Nuclear contribution   :     17.79530     -13.98638      12.20874
                        -----------------------------------------
Total Dipole Moment    :      0.32934      -0.42920       0.25096
                        -----------------------------------------
Magnitude (a.u.)       :      0.59637
Magnitude (Debye)      :      1.51585

Rotational constants in cm-1:     0.019411     0.009487     0.007675
Rotational constants in MHz :   581.920159   284.412789   230.103684

                             ****ORCA TERMINATED NORMALLY****
TOTAL RUN TIME: 0 days 0 hours 0 minutes 22 seconds 765 msec
