                         Program Version 4.2.1 -  RELEASE  -
|  1> ! wB97X-D3 SP def2-SVP
|  2> %pal
|  3> nprocs 24
|  4> end
|  5>
|  6> * xyz 0 1
|  7> S 	 -51.0069 	 16.5866 	 -86.9298
|  8> C 	 -51.8597 	 17.4327 	 -88.246
|  9> C 	 -52.9155 	 18.2152 	 -87.7587
| 10> C 	 -53.0414 	 18.1335 	 -86.2999
| 11> C 	 -51.9972 	 17.4206 	 -85.7279
| 12> H 	 -53.7946 	 18.6443 	 -85.6681
| 13> C 	 -53.9262 	 18.9173 	 -88.6506
| 14> H 	 -54.7425 	 18.2879 	 -88.4884
| 15> H 	 -53.8334 	 18.9645 	 -89.7238
| 16> C 	 -54.2833 	 20.3346 	 -88.1822
| 17> H 	 -54.5223 	 20.4396 	 -87.0796
| 18> H 	 -53.3753 	 20.9752 	 -88.3255
| 19> C 	 -55.5431 	 20.8554 	 -88.9139
| 20> H 	 -56.4598 	 20.2928 	 -88.7816
| 21> H 	 -55.763 	 21.9102 	 -88.8183
| 22> H 	 -55.2704 	 20.845 	 -90.0021
| 23> S 	 -51.1679 	 15.5917 	 -83.8627
| 24> C 	 -51.1034 	 15.9972 	 -82.1074
| 25> C 	 -51.2182 	 17.3455 	 -82.0006
| 26> C 	 -51.5336 	 18.0436 	 -83.1965
| 27> C 	 -51.6565 	 17.2169 	 -84.2807
| 28> H 	 -51.2231 	 17.8809 	 -81.0503
| 29> C 	 -51.715 	 19.5243 	 -83.3135
| 30> H 	 -52.0748 	 19.8116 	 -84.215
| 31> H 	 -50.6732 	 19.8817 	 -83.4818
| 32> C 	 -52.6734 	 20.1485 	 -82.252
| 33> H 	 -52.3696 	 19.8213 	 -81.2557
| 34> H 	 -53.7448 	 19.8724 	 -82.4277
| 35> C 	 -52.6641 	 21.6454 	 -82.2896
| 36> H 	 -53.2526 	 22.1254 	 -81.3889
| 37> H 	 -53.1065 	 22.1317 	 -83.1559
| 38> H 	 -51.5939 	 21.9702 	 -82.3456
| 39> H 	 -51.5513 	 17.3173 	 -89.333
| 40> H 	 -50.8837 	 15.3809 	 -81.2575
| 41> *
| 42>
| 43>                          ****END OF INPUT****

CARTESIAN COORDINATES (ANGSTROEM)
---------------------------------
  S    -51.006900   16.586600  -86.929800
  C    -51.859700   17.432700  -88.246000
  C    -52.915500   18.215200  -87.758700
  C    -53.041400   18.133500  -86.299900
  C    -51.997200   17.420600  -85.727900
  H    -53.794600   18.644300  -85.668100
  C    -53.926200   18.917300  -88.650600
  H    -54.742500   18.287900  -88.488400
  H    -53.833400   18.964500  -89.723800
  C    -54.283300   20.334600  -88.182200
  H    -54.522300   20.439600  -87.079600
  H    -53.375300   20.975200  -88.325500
  C    -55.543100   20.855400  -88.913900
  H    -56.459800   20.292800  -88.781600
  H    -55.763000   21.910200  -88.818300
  H    -55.270400   20.845000  -90.002100
  S    -51.167900   15.591700  -83.862700
  C    -51.103400   15.997200  -82.107400
  C    -51.218200   17.345500  -82.000600
  C    -51.533600   18.043600  -83.196500
  C    -51.656500   17.216900  -84.280700
  H    -51.223100   17.880900  -81.050300
  C    -51.715000   19.524300  -83.313500
  H    -52.074800   19.811600  -84.215000
  H    -50.673200   19.881700  -83.481800
  C    -52.673400   20.148500  -82.252000
  H    -52.369600   19.821300  -81.255700
  H    -53.744800   19.872400  -82.427700
  C    -52.664100   21.645400  -82.289600
  H    -53.252600   22.125400  -81.388900
  H    -53.106500   22.131700  -83.155900
  H    -51.593900   21.970200  -82.345600
  H    -51.551300   17.317300  -89.333000
  H    -50.883700   15.380900  -81.257500

 Total Charge           Charge          ....    0
 Multiplicity           Mult            ....    1
 Number of Electrons    NEL             ....  134
 Basis Dimension        Dim             ....  322

ORBITAL ENERGIES
----------------

  NO   OCC          E(Eh)            E(eV)
   0   2.0000     -88.965700     -2420.8798
   1   2.0000     -88.961619     -2420.7687
   2   2.0000     -10.338374      -281.3214
   3   2.0000     -10.326845      -281.0077
   4   2.0000     -10.322218      -280.8818
   5   2.0000     -10.319584      -280.8102
   6   2.0000     -10.312934      -280.6292
   7   2.0000     -10.305033      -280.4142
   8   2.0000     -10.298680      -280.2413
   9   2.0000     -10.297357      -280.2053
  10   2.0000     -10.294152      -280.1181
  11   2.0000     -10.292564      -280.0749
  12   2.0000     -10.290876      -280.0290
  13   2.0000     -10.286859      -279.9197
  14   2.0000     -10.285928      -279.8943
  15   2.0000     -10.282996      -279.8145
  16   2.0000      -8.079820      -219.8631
  17   2.0000      -8.075845      -219.7549
  18   2.0000      -6.038520      -164.3165
  19   2.0000      -6.034586      -164.2094
  20   2.0000      -6.034470      -164.2063
  21   2.0000      -6.030482      -164.0978
  22   2.0000      -6.030364      -164.0945
  23   2.0000      -6.026309      -163.9842
  24   2.0000      -1.003732       -27.3129
  25   2.0000      -0.978918       -26.6377
  26   2.0000      -0.913917       -24.8689
  27   2.0000      -0.911147       -24.7936
  28   2.0000      -0.866735       -23.5851
  29   2.0000      -0.852793       -23.2057
  30   2.0000      -0.841600       -22.9011
  31   2.0000      -0.818499       -22.2725
  32   2.0000      -0.780125       -21.2283
  33   2.0000      -0.769980       -20.9522
  34   2.0000      -0.706621       -19.2281
  35   2.0000      -0.703919       -19.1546
  36   2.0000      -0.691758       -18.8237
  37   2.0000      -0.658310       -17.9135
  38   2.0000      -0.641628       -17.4596
  39   2.0000      -0.619995       -16.8709
  40   2.0000      -0.602262       -16.3884
  41   2.0000      -0.564930       -15.3725
  42   2.0000      -0.562557       -15.3079
  43   2.0000      -0.561792       -15.2871
  44   2.0000      -0.534258       -14.5379
  45   2.0000      -0.521489       -14.1904
  46   2.0000      -0.515996       -14.0410
  47   2.0000      -0.511071       -13.9069
  48   2.0000      -0.508786       -13.8448
  49   2.0000      -0.497523       -13.5383
  50   2.0000      -0.487867       -13.2755
  51   2.0000      -0.487078       -13.2541
  52   2.0000      -0.472235       -12.8502
  53   2.0000      -0.463628       -12.6160
  54   2.0000      -0.458351       -12.4724
  55   2.0000      -0.452813       -12.3217
  56   2.0000      -0.448784       -12.2120
  57   2.0000      -0.436337       -11.8733
  58   2.0000      -0.432966       -11.7816
  59   2.0000      -0.425388       -11.5754
  60   2.0000      -0.417538       -11.3618
  61   2.0000      -0.414258       -11.2725
  62   2.0000      -0.401961       -10.9379
  63   2.0000      -0.351271        -9.5586
  64   2.0000      -0.331620        -9.0238
  65   2.0000      -0.324664        -8.8346
  66   2.0000      -0.291320        -7.9272
  67   0.0000       0.028899         0.7864
  68   0.0000       0.070580         1.9206
  69   0.0000       0.096619         2.6291
  70   0.0000       0.123032         3.3479
  71   0.0000       0.125257         3.4084

MULLIKEN ATOMIC CHARGES
-----------------------
   0 S :    0.094540
   1 C :   -0.150055
   2 C :   -0.077405
   3 C :    0.021921
   4 C :   -0.136609
   5 H :    0.036034
   6 C :    0.093544
   7 H :    0.026256
   8 H :    0.021058
   9 C :   -0.125182
  10 H :    0.036822
  11 H :    0.043338
  12 C :   -0.058308
  13 H :    0.042838
  14 H :    0.031549
  15 H :    0.020664
  16 S :    0.075503
  17 C :   -0.070780
  18 C :   -0.032223
  19 C :   -0.057762
  20 C :   -0.143329
  21 H :    0.020049
  22 C :    0.115102
  23 H :   -0.031966
  24 H :    0.041701
  25 C :   -0.064268
  26 H :    0.032830
  27 H :    0.042329
  28 C :   -0.088369
  29 H :    0.050743
  30 H :    0.029058
  31 H :    0.031100
  32 H :    0.076174
  33 H :    0.053103
Sum of atomic charges:   -0.0000000

LOEWDIN ATOMIC CHARGES
----------------------
   0 S :    0.378441
   1 C :   -0.204686
   2 C :   -0.052984
   3 C :   -0.070213
   4 C :   -0.175898
   5 H :    0.038210
   6 C :   -0.030961
   7 H :    0.031083
   8 H :    0.031288
   9 C :   -0.047191
  10 H :    0.024603
  11 H :    0.030426
  12 C :   -0.074088
  13 H :    0.026102
  14 H :    0.025578
  15 H :    0.027604
  16 S :    0.375312
  17 C :   -0.164116
  18 C :   -0.070651
  19 C :   -0.062450
  20 C :   -0.192717
  21 H :    0.031530
  22 C :   -0.031135
  23 H :    0.012799
  24 H :    0.047497
  25 C :   -0.038965
  26 H :    0.021020
  27 H :    0.033677
  28 C :   -0.080211
  29 H :    0.038402
  30 H :    0.020072
  31 H :    0.027300
  32 H :    0.042571
  33 H :    0.032748

  Mayer bond orders larger than 0.100000
B(  0-S ,  1-C ) :   1.1111 B(  0-S ,  4-C ) :   1.1512 B(  1-C ,  2-C ) :   1.6358
B(  1-C , 32-H ) :   0.9634 B(  2-C ,  3-C ) :   1.1984 B(  2-C ,  6-C ) :   1.0066
B(  3-C ,  4-C ) :   1.6102 B(  3-C ,  5-H ) :   0.9812 B(  4-C , 20-C ) :   1.0068
B(  6-C ,  7-H ) :   0.9355 B(  6-C ,  8-H ) :   0.9532 B(  6-C ,  9-C ) :   1.0461
B(  9-C , 10-H ) :   0.9571 B(  9-C , 11-H ) :   0.9582 B(  9-C , 12-C ) :   1.0732
B( 12-C , 13-H ) :   0.9781 B( 12-C , 14-H ) :   0.9737 B( 12-C , 15-H ) :   0.9712
B( 16-S , 17-C ) :   1.1274 B( 16-S , 20-C ) :   1.1253 B( 17-C , 18-C ) :   1.6290
B( 17-C , 33-H ) :   0.9710 B( 18-C , 19-C ) :   1.2351 B( 18-C , 21-H ) :   0.9812
B( 19-C , 20-C ) :   1.6252 B( 19-C , 22-C ) :   1.0490 B( 22-C , 23-H ) :   0.9210
B( 22-C , 24-H ) :   0.9216 B( 22-C , 25-C ) :   1.0417 B( 25-C , 26-H ) :   0.9595
B( 25-C , 27-H ) :   0.9539 B( 25-C , 28-C ) :   1.0845 B( 28-C , 29-H ) :   0.9717
B( 28-C , 30-H ) :   0.9739 B( 28-C , 31-H ) :   0.9731

Dispersion correction           -0.013551556
FINAL SINGLE POINT ENERGY     -1339.857957861935

DIPOLE MOMENT
-------------
                                X             Y             Z
Electronic contribution:     16.36817     -28.54515       1.59234
Nuclear contribution   :    -16.77632      29.22898      -1.58869
                        -----------------------------------------
Total Dipole Moment    :     -0.40815       0.68383       0.00365
                        -----------------------------------------
Magnitude (a.u.)       :      0.79638
Magnitude (Debye)      :      2.02423

Rotational constants in cm-1:     0.016326     0.009134     0.006192
Rotational constants in MHz :   489.434284   273.829720   185.630257

                             ****ORCA TERMINATED NORMALLY****
TOTAL RUN TIME: 0 days 0 hours 0 minutes 21 seconds 172 msec
