                         Program Version 4.2.1 -  RELEASE  -
|  1> ! wB97X-D3 SP def2-SVP
|  2> %pal
|  3> nprocs 24
|  4> end
|  5>
|  6> * xyz 0 1
|  7> S 	 -142.054 	 29.1556 	 -15.811
|  8> C 	 -141.007 	 28.8804 	 -14.4186
|  9> C 	 -140.18 	 27.8011 	 -14.7076
| 10> C 	 -140.649 	 27.0858 	 -15.8127
| 11> C 	 -141.652 	 27.6795 	 -16.5462
| 12> H 	 -140.285 	 26.181 	 -16.2709
| 13> C 	 -139.056 	 27.3403 	 -13.7496
| 14> H 	 -138.401 	 28.1636 	 -13.7546
| 15> H 	 -138.554 	 26.4447 	 -14.1719
| 16> C 	 -139.467 	 27.0528 	 -12.2792
| 17> H 	 -138.754 	 27.2756 	 -11.5647
| 18> H 	 -140.342 	 27.6872 	 -12.1941
| 19> C 	 -139.977 	 25.5959 	 -12.0487
| 20> H 	 -140.498 	 25.1776 	 -12.9098
| 21> H 	 -139.237 	 24.8839 	 -11.7626
| 22> H 	 -140.671 	 25.6546 	 -11.1945
| 23> S 	 -141.763 	 28.38 	 -19.3248
| 24> C 	 -142.528 	 27.1898 	 -20.3944
| 25> C 	 -143.005 	 26.0929 	 -19.7713
| 26> C 	 -142.644 	 26.1168 	 -18.3862
| 27> C 	 -142.165 	 27.2856 	 -17.8966
| 28> H 	 -143.498 	 25.3688 	 -20.4205
| 29> C 	 -142.917 	 24.8534 	 -17.5883
| 30> H 	 -143.895 	 24.4812 	 -17.8902
| 31> H 	 -143.021 	 25.0547 	 -16.5993
| 32> C 	 -141.867 	 23.7774 	 -17.7419
| 33> H 	 -140.929 	 24.2175 	 -17.5341
| 34> H 	 -141.946 	 23.7481 	 -18.864
| 35> C 	 -142.185 	 22.4145 	 -17.0789
| 36> H 	 -142.178 	 22.5516 	 -15.9636
| 37> H 	 -141.405 	 21.6188 	 -17.2945
| 38> H 	 -143.183 	 22.0917 	 -17.3297
| 39> H 	 -140.839 	 29.5475 	 -13.6199
| 40> H 	 -142.773 	 27.2675 	 -21.4512
| 41> *
| 42>
| 43>                          ****END OF INPUT****

CARTESIAN COORDINATES (ANGSTROEM)
---------------------------------
  S    -142.054000   29.155600  -15.811000
  C    -141.007000   28.880400  -14.418600
  C    -140.180000   27.801100  -14.707600
  C    -140.649000   27.085800  -15.812700
  C    -141.652000   27.679500  -16.546200
  H    -140.285000   26.181000  -16.270900
  C    -139.056000   27.340300  -13.749600
  H    -138.401000   28.163600  -13.754600
  H    -138.554000   26.444700  -14.171900
  C    -139.467000   27.052800  -12.279200
  H    -138.754000   27.275600  -11.564700
  H    -140.342000   27.687200  -12.194100
  C    -139.977000   25.595900  -12.048700
  H    -140.498000   25.177600  -12.909800
  H    -139.237000   24.883900  -11.762600
  H    -140.671000   25.654600  -11.194500
  S    -141.763000   28.380000  -19.324800
  C    -142.528000   27.189800  -20.394400
  C    -143.005000   26.092900  -19.771300
  C    -142.644000   26.116800  -18.386200
  C    -142.165000   27.285600  -17.896600
  H    -143.498000   25.368800  -20.420500
  C    -142.917000   24.853400  -17.588300
  H    -143.895000   24.481200  -17.890200
  H    -143.021000   25.054700  -16.599300
  C    -141.867000   23.777400  -17.741900
  H    -140.929000   24.217500  -17.534100
  H    -141.946000   23.748100  -18.864000
  C    -142.185000   22.414500  -17.078900
  H    -142.178000   22.551600  -15.963600
  H    -141.405000   21.618800  -17.294500
  H    -143.183000   22.091700  -17.329700
  H    -140.839000   29.547500  -13.619900
  H    -142.773000   27.267500  -21.451200

 Total Charge           Charge          ....    0
 Multiplicity           Mult            ....    1
 Number of Electrons    NEL             ....  134
 Basis Dimension        Dim             ....  322

ORBITAL ENERGIES
----------------

  NO   OCC          E(Eh)            E(eV)
   0   2.0000     -88.967551     -2420.9301
   1   2.0000     -88.965483     -2420.8739
   2   2.0000     -10.335657      -281.2475
   3   2.0000     -10.328761      -281.0599
   4   2.0000     -10.317153      -280.7440
   5   2.0000     -10.314605      -280.6747
   6   2.0000     -10.304988      -280.4130
   7   2.0000     -10.304199      -280.3915
   8   2.0000     -10.292873      -280.0833
   9   2.0000     -10.292423      -280.0711
  10   2.0000     -10.290855      -280.0284
  11   2.0000     -10.290686      -280.0238
  12   2.0000     -10.285654      -279.8869
  13   2.0000     -10.284176      -279.8466
  14   2.0000     -10.278044      -279.6798
  15   2.0000     -10.275963      -279.6232
  16   2.0000      -8.082796      -219.9441
  17   2.0000      -8.078706      -219.8328
  18   2.0000      -6.041195      -164.3893
  19   2.0000      -6.037586      -164.2911
  20   2.0000      -6.037032      -164.2760
  21   2.0000      -6.033823      -164.1887
  22   2.0000      -6.033625      -164.1833
  23   2.0000      -6.028947      -164.0560
  24   2.0000      -1.010465       -27.4962
  25   2.0000      -0.987152       -26.8618
  26   2.0000      -0.912943       -24.8425
  27   2.0000      -0.910489       -24.7757
  28   2.0000      -0.868840       -23.6423
  29   2.0000      -0.848949       -23.1011
  30   2.0000      -0.843337       -22.9484
  31   2.0000      -0.820337       -22.3225
  32   2.0000      -0.785993       -21.3880
  33   2.0000      -0.776421       -21.1275
  34   2.0000      -0.709511       -19.3068
  35   2.0000      -0.705352       -19.1936
  36   2.0000      -0.696442       -18.9511
  37   2.0000      -0.659308       -17.9407
  38   2.0000      -0.648196       -17.6383
  39   2.0000      -0.614012       -16.7081
  40   2.0000      -0.594656       -16.1814
  41   2.0000      -0.581163       -15.8143
  42   2.0000      -0.568925       -15.4812
  43   2.0000      -0.559652       -15.2289
  44   2.0000      -0.544031       -14.8038
  45   2.0000      -0.521963       -14.2033
  46   2.0000      -0.514511       -14.0005
  47   2.0000      -0.512874       -13.9560
  48   2.0000      -0.504997       -13.7417
  49   2.0000      -0.501271       -13.6403
  50   2.0000      -0.486257       -13.2317
  51   2.0000      -0.478924       -13.0322
  52   2.0000      -0.477161       -12.9842
  53   2.0000      -0.465257       -12.6603
  54   2.0000      -0.461205       -12.5500
  55   2.0000      -0.451018       -12.2728
  56   2.0000      -0.445198       -12.1144
  57   2.0000      -0.440622       -11.9899
  58   2.0000      -0.432790       -11.7768
  59   2.0000      -0.429005       -11.6738
  60   2.0000      -0.419934       -11.4270
  61   2.0000      -0.411068       -11.1857
  62   2.0000      -0.405262       -11.0277
  63   2.0000      -0.344929        -9.3860
  64   2.0000      -0.334968        -9.1149
  65   2.0000      -0.331364        -9.0169
  66   2.0000      -0.302140        -8.2216
  67   0.0000       0.032023         0.8714
  68   0.0000       0.059877         1.6293
  69   0.0000       0.109294         2.9740
  70   0.0000       0.118537         3.2256
  71   0.0000       0.130324         3.5463

MULLIKEN ATOMIC CHARGES
-----------------------
   0 S :    0.119653
   1 C :   -0.110309
   2 C :   -0.099518
   3 C :    0.045959
   4 C :   -0.175818
   5 H :   -0.010708
   6 C :    0.076415
   7 H :    0.023060
   8 H :    0.028284
   9 C :   -0.037754
  10 H :    0.021837
  11 H :    0.021580
  12 C :   -0.066740
  13 H :    0.034134
  14 H :    0.029418
  15 H :    0.032375
  16 S :    0.084383
  17 C :   -0.074311
  18 C :   -0.044014
  19 C :   -0.058399
  20 C :   -0.114267
  21 H :    0.030782
  22 C :    0.106912
  23 H :    0.011654
  24 H :   -0.013966
  25 C :   -0.073095
  26 H :    0.017378
  27 H :    0.018376
  28 C :   -0.037554
  29 H :    0.035476
  30 H :    0.055133
  31 H :    0.029651
  32 H :    0.043389
  33 H :    0.050606
Sum of atomic charges:   -0.0000000

LOEWDIN ATOMIC CHARGES
----------------------
   0 S :    0.436063
   1 C :   -0.191176
   2 C :   -0.060356
   3 C :   -0.068879
   4 C :   -0.213882
   5 H :    0.027265
   6 C :   -0.025132
   7 H :    0.026838
   8 H :    0.030292
   9 C :   -0.029423
  10 H :    0.015245
  11 H :    0.024776
  12 C :   -0.064603
  13 H :    0.025421
  14 H :    0.018965
  15 H :    0.029648
  16 S :    0.348570
  17 C :   -0.166394
  18 C :   -0.078799
  19 C :   -0.047818
  20 C :   -0.167017
  21 H :    0.040260
  22 C :   -0.023279
  23 H :    0.027756
  24 H :    0.007248
  25 C :   -0.041257
  26 H :    0.014050
  27 H :    0.027524
  28 C :   -0.066695
  29 H :    0.030260
  30 H :    0.037220
  31 H :    0.023586
  32 H :    0.020639
  33 H :    0.033085

  Mayer bond orders larger than 0.100000
B(  0-S ,  1-C ) :   1.1577 B(  0-S ,  4-C ) :   1.1801 B(  1-C ,  2-C ) :   1.5628
B(  1-C ,  4-C ) :   0.1100 B(  1-C , 32-H ) :   0.9718 B(  2-C ,  3-C ) :   1.2713
B(  2-C ,  6-C ) :   1.0194 B(  3-C ,  4-C ) :   1.5487 B(  3-C ,  5-H ) :   0.9993
B(  4-C , 20-C ) :   1.0037 B(  6-C ,  7-H ) :   0.9286 B(  6-C ,  8-H ) :   0.9524
B(  6-C ,  9-C ) :   1.0656 B(  9-C , 10-H ) :   0.9579 B(  9-C , 11-H ) :   0.9623
B(  9-C , 12-C ) :   1.0722 B( 12-C , 13-H ) :   0.9793 B( 12-C , 14-H ) :   0.9781
B( 12-C , 15-H ) :   0.9769 B( 16-S , 17-C ) :   1.1317 B( 16-S , 20-C ) :   1.0830
B( 17-C , 18-C ) :   1.7006 B( 17-C , 33-H ) :   0.9530 B( 18-C , 19-C ) :   1.1606
B( 18-C , 21-H ) :   0.9857 B( 19-C , 20-C ) :   1.7017 B( 19-C , 22-C ) :   1.0486
B( 22-C , 23-H ) :   0.9364 B( 22-C , 24-H ) :   0.9241 B( 22-C , 25-C ) :   1.0472
B( 25-C , 26-H ) :   0.9541 B( 25-C , 27-H ) :   0.9578 B( 25-C , 28-C ) :   1.0710
B( 28-C , 29-H ) :   0.9737 B( 28-C , 30-H ) :   0.9748 B( 28-C , 31-H ) :   0.9729

Dispersion correction           -0.014115713
FINAL SINGLE POINT ENERGY     -1339.851181721621

DIPOLE MOMENT
-------------
                                X             Y             Z
Electronic contribution:     -5.96637      24.89872     -16.47582
Nuclear contribution   :      6.14794     -25.47033      16.69083
                        -----------------------------------------
Total Dipole Moment    :      0.18157      -0.57161       0.21502
                        -----------------------------------------
Magnitude (a.u.)       :      0.63713
Magnitude (Debye)      :      1.61946

Rotational constants in cm-1:     0.017625     0.009094     0.006470
Rotational constants in MHz :   528.386442   272.639413   193.963989

                             ****ORCA TERMINATED NORMALLY****
TOTAL RUN TIME: 0 days 0 hours 0 minutes 21 seconds 619 msec
