                         Program Version 4.2.1 -  RELEASE  -
|  1> ! wB97X-D3 SP def2-SVP
|  2> %pal
|  3> nprocs 24
|  4> end
|  5>
|  6> * xyz 0 1
|  7> S 	 -40.5655 	 -48.1159 	 -72.3798
|  8> C 	 -39.6856 	 -48.2819 	 -70.9277
|  9> C 	 -40.1462 	 -49.3283 	 -70.1321
| 10> C 	 -41.2066 	 -50.0634 	 -70.7599
| 11> C 	 -41.4639 	 -49.5919 	 -72.0471
| 12> H 	 -41.7006 	 -50.9035 	 -70.4384
| 13> C 	 -39.7089 	 -49.6567 	 -68.7345
| 14> H 	 -39.7046 	 -48.7273 	 -68.1481
| 15> H 	 -38.7157 	 -49.9103 	 -68.9743
| 16> C 	 -40.4688 	 -50.6794 	 -67.9046
| 17> H 	 -40.3607 	 -51.6437 	 -68.4006
| 18> H 	 -39.729 	 -50.808 	 -67.0352
| 19> C 	 -41.842 	 -50.453 	 -67.3157
| 20> H 	 -42.4139 	 -51.389 	 -67.0884
| 21> H 	 -41.7726 	 -49.718 	 -66.4348
| 22> H 	 -42.3764 	 -50.1322 	 -68.1957
| 23> S 	 -43.2543 	 -49.0486 	 -74.092
| 24> C 	 -44.3454 	 -50.278 	 -74.4584
| 25> C 	 -44.0723 	 -51.4814 	 -73.8507
| 26> C 	 -43.0346 	 -51.368 	 -72.9087
| 27> C 	 -42.5168 	 -50.0936 	 -72.9031
| 28> H 	 -44.6878 	 -52.2947 	 -74.2419
| 29> C 	 -42.5634 	 -52.5586 	 -72.041
| 30> H 	 -41.5598 	 -52.4008 	 -71.6201
| 31> H 	 -42.3902 	 -53.4068 	 -72.7262
| 32> C 	 -43.5527 	 -53.0479 	 -71.0288
| 33> H 	 -44.3888 	 -53.2981 	 -71.5976
| 34> H 	 -43.8284 	 -52.131 	 -70.4246
| 35> C 	 -43.1157 	 -54.0728 	 -69.8515
| 36> H 	 -43.774 	 -53.8964 	 -68.9521
| 37> H 	 -41.9791 	 -54.0502 	 -69.6947
| 38> H 	 -43.3686 	 -55.073 	 -70.2512
| 39> H 	 -39.0709 	 -47.5139 	 -70.4851
| 40> H 	 -45.0645 	 -50.2306 	 -75.2779
| 41> *
| 42>
| 43>                          ****END OF INPUT****

CARTESIAN COORDINATES (ANGSTROEM)
---------------------------------
  S    -40.565500  -48.115900  -72.379800
  C    -39.685600  -48.281900  -70.927700
  C    -40.146200  -49.328300  -70.132100
  C    -41.206600  -50.063400  -70.759900
  C    -41.463900  -49.591900  -72.047100
  H    -41.700600  -50.903500  -70.438400
  C    -39.708900  -49.656700  -68.734500
  H    -39.704600  -48.727300  -68.148100
  H    -38.715700  -49.910300  -68.974300
  C    -40.468800  -50.679400  -67.904600
  H    -40.360700  -51.643700  -68.400600
  H    -39.729000  -50.808000  -67.035200
  C    -41.842000  -50.453000  -67.315700
  H    -42.413900  -51.389000  -67.088400
  H    -41.772600  -49.718000  -66.434800
  H    -42.376400  -50.132200  -68.195700
  S    -43.254300  -49.048600  -74.092000
  C    -44.345400  -50.278000  -74.458400
  C    -44.072300  -51.481400  -73.850700
  C    -43.034600  -51.368000  -72.908700
  C    -42.516800  -50.093600  -72.903100
  H    -44.687800  -52.294700  -74.241900
  C    -42.563400  -52.558600  -72.041000
  H    -41.559800  -52.400800  -71.620100
  H    -42.390200  -53.406800  -72.726200
  C    -43.552700  -53.047900  -71.028800
  H    -44.388800  -53.298100  -71.597600
  H    -43.828400  -52.131000  -70.424600
  C    -43.115700  -54.072800  -69.851500
  H    -43.774000  -53.896400  -68.952100
  H    -41.979100  -54.050200  -69.694700
  H    -43.368600  -55.073000  -70.251200
  H    -39.070900  -47.513900  -70.485100
  H    -45.064500  -50.230600  -75.277900

 Total Charge           Charge          ....    0
 Multiplicity           Mult            ....    1
 Number of Electrons    NEL             ....  134
 Basis Dimension        Dim             ....  322

ORBITAL ENERGIES
----------------

  NO   OCC          E(Eh)            E(eV)
   0   2.0000     -88.968559     -2420.9576
   1   2.0000     -88.967017     -2420.9156
   2   2.0000     -10.326680      -281.0033
   3   2.0000     -10.323834      -280.9258
   4   2.0000     -10.310771      -280.5703
   5   2.0000     -10.304942      -280.4117
   6   2.0000     -10.304388      -280.3966
   7   2.0000     -10.301643      -280.3219
   8   2.0000     -10.297794      -280.2172
   9   2.0000     -10.294385      -280.1245
  10   2.0000     -10.292233      -280.0659
  11   2.0000     -10.291445      -280.0445
  12   2.0000     -10.289360      -279.9877
  13   2.0000     -10.288793      -279.9723
  14   2.0000     -10.287569      -279.9390
  15   2.0000     -10.284583      -279.8577
  16   2.0000      -8.084741      -219.9970
  17   2.0000      -8.082043      -219.9236
  18   2.0000      -6.042989      -164.4381
  19   2.0000      -6.040493      -164.3702
  20   2.0000      -6.039229      -164.3358
  21   2.0000      -6.036623      -164.2649
  22   2.0000      -6.035522      -164.2349
  23   2.0000      -6.032782      -164.1603
  24   2.0000      -1.015248       -27.6263
  25   2.0000      -0.989408       -26.9232
  26   2.0000      -0.915758       -24.9191
  27   2.0000      -0.911233       -24.7959
  28   2.0000      -0.872947       -23.7541
  29   2.0000      -0.854828       -23.2610
  30   2.0000      -0.847228       -23.0542
  31   2.0000      -0.816402       -22.2154
  32   2.0000      -0.788634       -21.4598
  33   2.0000      -0.775700       -21.1079
  34   2.0000      -0.709268       -19.3002
  35   2.0000      -0.695828       -18.9344
  36   2.0000      -0.691165       -18.8076
  37   2.0000      -0.660654       -17.9773
  38   2.0000      -0.637641       -17.3511
  39   2.0000      -0.625663       -17.0251
  40   2.0000      -0.598784       -16.2937
  41   2.0000      -0.573145       -15.5961
  42   2.0000      -0.565336       -15.3836
  43   2.0000      -0.555121       -15.1056
  44   2.0000      -0.538332       -14.6488
  45   2.0000      -0.523973       -14.2580
  46   2.0000      -0.513790       -13.9809
  47   2.0000      -0.511792       -13.9266
  48   2.0000      -0.504436       -13.7264
  49   2.0000      -0.498693       -13.5701
  50   2.0000      -0.491506       -13.3746
  51   2.0000      -0.484631       -13.1875
  52   2.0000      -0.479659       -13.0522
  53   2.0000      -0.466270       -12.6878
  54   2.0000      -0.462569       -12.5871
  55   2.0000      -0.454036       -12.3550
  56   2.0000      -0.450943       -12.2708
  57   2.0000      -0.448749       -12.2111
  58   2.0000      -0.430980       -11.7276
  59   2.0000      -0.427844       -11.6422
  60   2.0000      -0.416015       -11.3203
  61   2.0000      -0.401581       -10.9276
  62   2.0000      -0.399136       -10.8610
  63   2.0000      -0.360613        -9.8128
  64   2.0000      -0.339007        -9.2248
  65   2.0000      -0.326415        -8.8822
  66   2.0000      -0.277437        -7.5494
  67   0.0000       0.022534         0.6132
  68   0.0000       0.083738         2.2786
  69   0.0000       0.105926         2.8824
  70   0.0000       0.112440         3.0596
  71   0.0000       0.125904         3.4260

MULLIKEN ATOMIC CHARGES
-----------------------
   0 S :    0.111947
   1 C :   -0.116952
   2 C :   -0.106776
   3 C :    0.023455
   4 C :   -0.121324
   5 H :   -0.042148
   6 C :    0.088823
   7 H :    0.028329
   8 H :    0.033963
   9 C :   -0.119359
  10 H :    0.021547
  11 H :    0.029972
  12 C :   -0.029974
  13 H :    0.044407
  14 H :    0.059464
  15 H :    0.025699
  16 S :    0.126914
  17 C :   -0.096776
  18 C :   -0.053927
  19 C :   -0.035475
  20 C :   -0.130425
  21 H :    0.022707
  22 C :    0.052522
  23 H :    0.024555
  24 H :    0.024617
  25 C :   -0.088041
  26 H :    0.018520
  27 H :    0.031196
  28 C :   -0.080148
  29 H :    0.060997
  30 H :    0.056729
  31 H :    0.040003
  32 H :    0.041477
  33 H :    0.053484
Sum of atomic charges:    0.0000000

LOEWDIN ATOMIC CHARGES
----------------------
   0 S :    0.416665
   1 C :   -0.227960
   2 C :   -0.056001
   3 C :   -0.062357
   4 C :   -0.177492
   5 H :    0.012061
   6 C :   -0.036214
   7 H :    0.033782
   8 H :    0.037288
   9 C :   -0.058119
  10 H :    0.020893
  11 H :    0.033499
  12 C :   -0.075019
  13 H :    0.038179
  14 H :    0.040568
  15 H :    0.025399
  16 S :    0.431281
  17 C :   -0.205263
  18 C :   -0.075860
  19 C :   -0.053028
  20 C :   -0.194779
  21 H :    0.037443
  22 C :   -0.038270
  23 H :    0.026651
  24 H :    0.031359
  25 C :   -0.047351
  26 H :    0.014959
  27 H :    0.025650
  28 C :   -0.074720
  29 H :    0.037478
  30 H :    0.036547
  31 H :    0.026709
  32 H :    0.026952
  33 H :    0.029073

  Mayer bond orders larger than 0.100000
B(  0-S ,  1-C ) :   1.1369 B(  0-S ,  4-C ) :   1.1575 B(  1-C ,  2-C ) :   1.6058
B(  1-C , 32-H ) :   0.9678 B(  2-C ,  3-C ) :   1.2602 B(  2-C ,  6-C ) :   0.9836
B(  3-C ,  4-C ) :   1.5306 B(  3-C ,  5-H ) :   0.9924 B(  4-C , 20-C ) :   1.0944
B(  6-C ,  7-H ) :   0.9360 B(  6-C ,  8-H ) :   0.9277 B(  6-C ,  9-C ) :   1.1027
B(  9-C , 10-H ) :   0.9419 B(  9-C , 11-H ) :   0.9485 B(  9-C , 12-C ) :   1.0693
B( 12-C , 13-H ) :   0.9687 B( 12-C , 14-H ) :   0.9702 B( 12-C , 15-H ) :   0.9727
B( 16-S , 17-C ) :   1.1708 B( 16-S , 20-C ) :   1.1373 B( 17-C , 18-C ) :   1.6225
B( 17-C , 33-H ) :   0.9611 B( 18-C , 19-C ) :   1.2308 B( 18-C , 21-H ) :   0.9931
B( 19-C , 20-C ) :   1.5959 B( 19-C , 22-C ) :   1.0360 B( 22-C , 23-H ) :   0.9301
B( 22-C , 24-H ) :   0.9286 B( 22-C , 25-C ) :   1.0571 B( 25-C , 26-H ) :   0.9582
B( 25-C , 27-H ) :   0.9604 B( 25-C , 28-C ) :   1.0471 B( 28-C , 29-H ) :   0.9780
B( 28-C , 30-H ) :   0.9744 B( 28-C , 31-H ) :   0.9785

Dispersion correction           -0.015298390
FINAL SINGLE POINT ENERGY     -1339.848756959958

DIPOLE MOMENT
-------------
                                X             Y             Z
Electronic contribution:      1.23476      20.77143     -25.77260
Nuclear contribution   :     -1.38800     -21.30953      26.14080
                        -----------------------------------------
Total Dipole Moment    :     -0.15324      -0.53810       0.36819
                        -----------------------------------------
Magnitude (a.u.)       :      0.66978
Magnitude (Debye)      :      1.70244

Rotational constants in cm-1:     0.016092     0.011475     0.007193
Rotational constants in MHz :   482.417257   344.007813   215.644876

                             ****ORCA TERMINATED NORMALLY****
TOTAL RUN TIME: 0 days 0 hours 0 minutes 21 seconds 757 msec
