                         Program Version 4.2.1 -  RELEASE  -
|  1> ! wB97X-D3 SP def2-SVP
|  2> %pal
|  3> nprocs 24
|  4> end
|  5>
|  6> * xyz 0 1
|  7> S 	 -93.6071 	 13.459 	 -117.388
|  8> C 	 -92.0893 	 12.5863 	 -117.476
|  9> C 	 -91.4121 	 12.8298 	 -118.669
| 10> C 	 -92.2252 	 13.6056 	 -119.479
| 11> C 	 -93.5195 	 13.798 	 -119.064
| 12> H 	 -92.0753 	 14.0056 	 -120.463
| 13> C 	 -90.0403 	 12.5526 	 -119.073
| 14> H 	 -89.6664 	 13.5408 	 -118.991
| 15> H 	 -90.0779 	 12.3644 	 -120.121
| 16> C 	 -89.199 	 11.5317 	 -118.239
| 17> H 	 -88.2163 	 11.4749 	 -118.755
| 18> H 	 -89.0441 	 11.8492 	 -117.225
| 19> C 	 -89.8161 	 10.1432 	 -118.212
| 20> H 	 -89.1297 	 9.4383 	 -117.645
| 21> H 	 -90.7358 	 10.1317 	 -117.653
| 22> H 	 -90.0198 	 9.81353 	 -119.257
| 23> S 	 -95.8373 	 12.9764 	 -120.062
| 24> C 	 -96.7067 	 14.0325 	 -121.049
| 25> C 	 -96.0471 	 15.1864 	 -121.276
| 26> C 	 -94.8415 	 15.3599 	 -120.537
| 27> C 	 -94.6781 	 14.2509 	 -119.756
| 28> H 	 -96.5007 	 16.0186 	 -121.812
| 29> C 	 -94.055 	 16.6822 	 -120.698
| 30> H 	 -94.7911 	 17.4554 	 -120.992
| 31> H 	 -93.3419 	 16.5512 	 -121.494
| 32> C 	 -93.4172 	 17.3309 	 -119.413
| 33> H 	 -92.6268 	 16.653 	 -119.003
| 34> H 	 -94.1247 	 17.31 	 -118.622
| 35> C 	 -92.8737 	 18.806 	 -119.699
| 36> H 	 -92.0057 	 18.8078 	 -120.221
| 37> H 	 -92.5912 	 19.2623 	 -118.738
| 38> H 	 -93.6997 	 19.4007 	 -120.093
| 39> H 	 -91.5883 	 12.0226 	 -116.69
| 40> H 	 -97.5173 	 13.7555 	 -121.721
| 41> *
| 42>
| 43>                          ****END OF INPUT****

CARTESIAN COORDINATES (ANGSTROEM)
---------------------------------
  S    -93.607100   13.459000  -117.388000
  C    -92.089300   12.586300  -117.476000
  C    -91.412100   12.829800  -118.669000
  C    -92.225200   13.605600  -119.479000
  C    -93.519500   13.798000  -119.064000
  H    -92.075300   14.005600  -120.463000
  C    -90.040300   12.552600  -119.073000
  H    -89.666400   13.540800  -118.991000
  H    -90.077900   12.364400  -120.121000
  C    -89.199000   11.531700  -118.239000
  H    -88.216300   11.474900  -118.755000
  H    -89.044100   11.849200  -117.225000
  C    -89.816100   10.143200  -118.212000
  H    -89.129700    9.438300  -117.645000
  H    -90.735800   10.131700  -117.653000
  H    -90.019800    9.813530  -119.257000
  S    -95.837300   12.976400  -120.062000
  C    -96.706700   14.032500  -121.049000
  C    -96.047100   15.186400  -121.276000
  C    -94.841500   15.359900  -120.537000
  C    -94.678100   14.250900  -119.756000
  H    -96.500700   16.018600  -121.812000
  C    -94.055000   16.682200  -120.698000
  H    -94.791100   17.455400  -120.992000
  H    -93.341900   16.551200  -121.494000
  C    -93.417200   17.330900  -119.413000
  H    -92.626800   16.653000  -119.003000
  H    -94.124700   17.310000  -118.622000
  C    -92.873700   18.806000  -119.699000
  H    -92.005700   18.807800  -120.221000
  H    -92.591200   19.262300  -118.738000
  H    -93.699700   19.400700  -120.093000
  H    -91.588300   12.022600  -116.690000
  H    -97.517300   13.755500  -121.721000

 Total Charge           Charge          ....    0
 Multiplicity           Mult            ....    1
 Number of Electrons    NEL             ....  134
 Basis Dimension        Dim             ....  322

ORBITAL ENERGIES
----------------

  NO   OCC          E(Eh)            E(eV)
   0   2.0000     -88.964205     -2420.8391
   1   2.0000     -88.958669     -2420.6885
   2   2.0000     -10.318160      -280.7714
   3   2.0000     -10.313855      -280.6543
   4   2.0000     -10.307913      -280.4926
   5   2.0000     -10.305997      -280.4404
   6   2.0000     -10.302021      -280.3322
   7   2.0000     -10.300381      -280.2876
   8   2.0000     -10.292641      -280.0770
   9   2.0000     -10.290790      -280.0266
  10   2.0000     -10.289838      -280.0007
  11   2.0000     -10.285657      -279.8870
  12   2.0000     -10.284707      -279.8611
  13   2.0000     -10.281259      -279.7673
  14   2.0000     -10.279581      -279.7216
  15   2.0000     -10.277810      -279.6734
  16   2.0000      -8.080507      -219.8818
  17   2.0000      -8.074155      -219.7089
  18   2.0000      -6.038787      -164.3237
  19   2.0000      -6.034929      -164.2188
  20   2.0000      -6.032519      -164.1532
  21   2.0000      -6.031240      -164.1184
  22   2.0000      -6.028750      -164.0506
  23   2.0000      -6.024840      -163.9442
  24   2.0000      -1.017833       -27.6966
  25   2.0000      -0.993242       -27.0275
  26   2.0000      -0.919543       -25.0220
  27   2.0000      -0.901010       -24.5177
  28   2.0000      -0.869934       -23.6721
  29   2.0000      -0.853881       -23.2353
  30   2.0000      -0.851021       -23.1574
  31   2.0000      -0.808606       -22.0033
  32   2.0000      -0.788222       -21.4486
  33   2.0000      -0.777406       -21.1543
  34   2.0000      -0.712113       -19.3776
  35   2.0000      -0.706691       -19.2300
  36   2.0000      -0.691773       -18.8241
  37   2.0000      -0.660549       -17.9745
  38   2.0000      -0.637584       -17.3495
  39   2.0000      -0.606916       -16.5150
  40   2.0000      -0.595226       -16.1969
  41   2.0000      -0.580322       -15.7914
  42   2.0000      -0.566110       -15.4046
  43   2.0000      -0.556852       -15.1527
  44   2.0000      -0.533158       -14.5080
  45   2.0000      -0.524426       -14.2704
  46   2.0000      -0.520329       -14.1589
  47   2.0000      -0.509990       -13.8775
  48   2.0000      -0.505361       -13.7516
  49   2.0000      -0.495678       -13.4881
  50   2.0000      -0.485386       -13.2080
  51   2.0000      -0.484003       -13.1704
  52   2.0000      -0.477349       -12.9893
  53   2.0000      -0.466004       -12.6806
  54   2.0000      -0.461996       -12.5716
  55   2.0000      -0.447645       -12.1810
  56   2.0000      -0.439736       -11.9658
  57   2.0000      -0.436244       -11.8708
  58   2.0000      -0.434706       -11.8289
  59   2.0000      -0.426026       -11.5928
  60   2.0000      -0.423371       -11.5205
  61   2.0000      -0.419988       -11.4284
  62   2.0000      -0.415894       -11.3170
  63   2.0000      -0.337979        -9.1969
  64   2.0000      -0.332217        -9.0401
  65   2.0000      -0.321169        -8.7394
  66   2.0000      -0.293437        -7.9848
  67   0.0000       0.037138         1.0106
  68   0.0000       0.068266         1.8576
  69   0.0000       0.113319         3.0836
  70   0.0000       0.118547         3.2258
  71   0.0000       0.134947         3.6721

MULLIKEN ATOMIC CHARGES
-----------------------
   0 S :    0.115314
   1 C :   -0.133775
   2 C :   -0.091481
   3 C :    0.037690
   4 C :   -0.208355
   5 H :   -0.011284
   6 C :    0.082848
   7 H :    0.034192
   8 H :    0.022218
   9 C :   -0.047637
  10 H :    0.035870
  11 H :    0.026825
  12 C :   -0.072444
  13 H :    0.043286
  14 H :    0.029308
  15 H :    0.041066
  16 S :    0.130505
  17 C :   -0.059806
  18 C :   -0.071717
  19 C :   -0.002065
  20 C :   -0.181783
  21 H :    0.018498
  22 C :    0.065896
  23 H :    0.024324
  24 H :    0.040546
  25 C :   -0.099304
  26 H :    0.039702
  27 H :    0.023192
  28 C :   -0.019683
  29 H :    0.020705
  30 H :    0.030485
  31 H :    0.037804
  32 H :    0.040075
  33 H :    0.058984
Sum of atomic charges:    0.0000000

LOEWDIN ATOMIC CHARGES
----------------------
   0 S :    0.414101
   1 C :   -0.213652
   2 C :   -0.062065
   3 C :   -0.067752
   4 C :   -0.208944
   5 H :    0.024715
   6 C :   -0.031518
   7 H :    0.041246
   8 H :    0.031013
   9 C :   -0.039118
  10 H :    0.031746
  11 H :    0.021005
  12 C :   -0.068697
  13 H :    0.033179
  14 H :    0.019767
  15 H :    0.030167
  16 S :    0.441082
  17 C :   -0.205644
  18 C :   -0.077117
  19 C :   -0.049985
  20 C :   -0.209820
  21 H :    0.029044
  22 C :   -0.026673
  23 H :    0.033424
  24 H :    0.030474
  25 C :   -0.038559
  26 H :    0.026514
  27 H :    0.018219
  28 C :   -0.054456
  29 H :    0.010805
  30 H :    0.032239
  31 H :    0.027509
  32 H :    0.022850
  33 H :    0.034899

  Mayer bond orders larger than 0.100000
B(  0-S ,  1-C ) :   1.1321 B(  0-S ,  4-C ) :   1.1637 B(  1-C ,  2-C ) :   1.5917
B(  1-C ,  4-C ) :   0.1041 B(  1-C , 32-H ) :   0.9607 B(  2-C ,  3-C ) :   1.2561
B(  2-C ,  6-C ) :   0.9948 B(  3-C ,  4-C ) :   1.5854 B(  3-C ,  5-H ) :   0.9979
B(  4-C , 20-C ) :   1.0166 B(  6-C ,  7-H ) :   0.9297 B(  6-C ,  8-H ) :   0.9337
B(  6-C ,  9-C ) :   1.0753 B(  9-C , 10-H ) :   0.9528 B(  9-C , 11-H ) :   0.9511
B(  9-C , 12-C ) :   1.0829 B( 12-C , 13-H ) :   0.9726 B( 12-C , 14-H ) :   0.9736
B( 12-C , 15-H ) :   0.9742 B( 16-S , 17-C ) :   1.1575 B( 16-S , 20-C ) :   1.1566
B( 17-C , 18-C ) :   1.6308 B( 17-C , 33-H ) :   0.9583 B( 18-C , 19-C ) :   1.2495
B( 18-C , 21-H ) :   0.9805 B( 19-C , 20-C ) :   1.6091 B( 19-C , 22-C ) :   1.0205
B( 22-C , 23-H ) :   0.9446 B( 22-C , 24-H ) :   0.9323 B( 22-C , 25-C ) :   1.0569
B( 25-C , 26-H ) :   0.9529 B( 25-C , 27-H ) :   0.9623 B( 25-C , 28-C ) :   1.0756
B( 28-C , 29-H ) :   0.9789 B( 28-C , 30-H ) :   0.9741 B( 28-C , 31-H ) :   0.9766

Dispersion correction           -0.014470065
FINAL SINGLE POINT ENERGY     -1339.852179397859

DIPOLE MOMENT
-------------
                                X             Y             Z
Electronic contribution:    -20.31486      -7.71335       1.93994
Nuclear contribution   :     20.79204       8.07788      -2.36593
                        -----------------------------------------
Total Dipole Moment    :      0.47718       0.36452      -0.42599
                        -----------------------------------------
Magnitude (a.u.)       :      0.73624
Magnitude (Debye)      :      1.87136

Rotational constants in cm-1:     0.019118     0.008521     0.006821
Rotational constants in MHz :   573.137379   255.463678   204.500474

                             ****ORCA TERMINATED NORMALLY****
TOTAL RUN TIME: 0 days 0 hours 0 minutes 21 seconds 758 msec
