                         Program Version 4.2.1 -  RELEASE  -
|  1> ! wB97X-D3 SP def2-SVP
|  2> %pal
|  3> nprocs 24
|  4> end
|  5>
|  6> * xyz 0 1
|  7> S 	 -24.878 	 -32.0483 	 -96.3558
|  8> C 	 -24.2903 	 -33.6405 	 -96.915
|  9> C 	 -23.1595 	 -33.4626 	 -97.696
| 10> C 	 -22.8729 	 -32.1028 	 -97.9709
| 11> C 	 -23.5647 	 -31.1953 	 -97.1889
| 12> H 	 -22.1637 	 -31.6839 	 -98.6739
| 13> C 	 -22.3737 	 -34.5658 	 -98.3633
| 14> H 	 -22.7345 	 -35.4872 	 -97.9468
| 15> H 	 -21.3631 	 -34.4559 	 -97.9996
| 16> C 	 -22.3601 	 -34.4246 	 -99.8871
| 17> H 	 -23.3949 	 -34.3448 	 -100.194
| 18> H 	 -21.9354 	 -33.4551 	 -100.157
| 19> C 	 -21.7343 	 -35.5935 	 -100.591
| 20> H 	 -22.0217 	 -36.5523 	 -100.277
| 21> H 	 -21.9207 	 -35.5344 	 -101.681
| 22> H 	 -20.6481 	 -35.4786 	 -100.396
| 23> S 	 -24.8272 	 -28.993 	 -98.117
| 24> C 	 -24.1822 	 -27.3756 	 -97.747
| 25> C 	 -23.1024 	 -27.4693 	 -96.9213
| 26> C 	 -22.6977 	 -28.7825 	 -96.6455
| 27> C 	 -23.5201 	 -29.7486 	 -97.2302
| 28> H 	 -22.6278 	 -26.5711 	 -96.4919
| 29> C 	 -21.5276 	 -29.1364 	 -95.7996
| 30> H 	 -21.814 	 -29.9254 	 -95.0764
| 31> H 	 -21.1399 	 -28.333 	 -95.2024
| 32> C 	 -20.3291 	 -29.6101 	 -96.6137
| 33> H 	 -20.2095 	 -29.0368 	 -97.5133
| 34> H 	 -20.4064 	 -30.5963 	 -96.8899
| 35> C 	 -19.0382 	 -29.4423 	 -95.7901
| 36> H 	 -18.2383 	 -29.8237 	 -96.4113
| 37> H 	 -19.0795 	 -30.0242 	 -94.8739
| 38> H 	 -18.8346 	 -28.4267 	 -95.4495
| 39> H 	 -24.6187 	 -34.5773 	 -96.4729
| 40> H 	 -24.5867 	 -26.4954 	 -98.1336
| 41> *
| 42>
| 43>                          ****END OF INPUT****

CARTESIAN COORDINATES (ANGSTROEM)
---------------------------------
  S    -24.878000  -32.048300  -96.355800
  C    -24.290300  -33.640500  -96.915000
  C    -23.159500  -33.462600  -97.696000
  C    -22.872900  -32.102800  -97.970900
  C    -23.564700  -31.195300  -97.188900
  H    -22.163700  -31.683900  -98.673900
  C    -22.373700  -34.565800  -98.363300
  H    -22.734500  -35.487200  -97.946800
  H    -21.363100  -34.455900  -97.999600
  C    -22.360100  -34.424600  -99.887100
  H    -23.394900  -34.344800  -100.194000
  H    -21.935400  -33.455100  -100.157000
  C    -21.734300  -35.593500  -100.591000
  H    -22.021700  -36.552300  -100.277000
  H    -21.920700  -35.534400  -101.681000
  H    -20.648100  -35.478600  -100.396000
  S    -24.827200  -28.993000  -98.117000
  C    -24.182200  -27.375600  -97.747000
  C    -23.102400  -27.469300  -96.921300
  C    -22.697700  -28.782500  -96.645500
  C    -23.520100  -29.748600  -97.230200
  H    -22.627800  -26.571100  -96.491900
  C    -21.527600  -29.136400  -95.799600
  H    -21.814000  -29.925400  -95.076400
  H    -21.139900  -28.333000  -95.202400
  C    -20.329100  -29.610100  -96.613700
  H    -20.209500  -29.036800  -97.513300
  H    -20.406400  -30.596300  -96.889900
  C    -19.038200  -29.442300  -95.790100
  H    -18.238300  -29.823700  -96.411300
  H    -19.079500  -30.024200  -94.873900
  H    -18.834600  -28.426700  -95.449500
  H    -24.618700  -34.577300  -96.472900
  H    -24.586700  -26.495400  -98.133600

 Total Charge           Charge          ....    0
 Multiplicity           Mult            ....    1
 Number of Electrons    NEL             ....  134
 Basis Dimension        Dim             ....  322

ORBITAL ENERGIES
----------------

  NO   OCC          E(Eh)            E(eV)
   0   2.0000     -88.963350     -2420.8158
   1   2.0000     -88.962615     -2420.7958
   2   2.0000     -10.330200      -281.0990
   3   2.0000     -10.323533      -280.9176
   4   2.0000     -10.317602      -280.7562
   5   2.0000     -10.314349      -280.6677
   6   2.0000     -10.300794      -280.2989
   7   2.0000     -10.300265      -280.2845
   8   2.0000     -10.293385      -280.0972
   9   2.0000     -10.292496      -280.0730
  10   2.0000     -10.287909      -279.9482
  11   2.0000     -10.284441      -279.8539
  12   2.0000     -10.284361      -279.8517
  13   2.0000     -10.277137      -279.6551
  14   2.0000     -10.273734      -279.5625
  15   2.0000     -10.273293      -279.5505
  16   2.0000      -8.077776      -219.8075
  17   2.0000      -8.076548      -219.7740
  18   2.0000      -6.036277      -164.2555
  19   2.0000      -6.035173      -164.2254
  20   2.0000      -6.032257      -164.1460
  21   2.0000      -6.031102      -164.1146
  22   2.0000      -6.028625      -164.0472
  23   2.0000      -6.027273      -164.0104
  24   2.0000      -1.005260       -27.3545
  25   2.0000      -0.982276       -26.7291
  26   2.0000      -0.916731       -24.9455
  27   2.0000      -0.912930       -24.8421
  28   2.0000      -0.872919       -23.7533
  29   2.0000      -0.849955       -23.1285
  30   2.0000      -0.846126       -23.0243
  31   2.0000      -0.817534       -22.2462
  32   2.0000      -0.780830       -21.2475
  33   2.0000      -0.768498       -20.9119
  34   2.0000      -0.713495       -19.4152
  35   2.0000      -0.703016       -19.1300
  36   2.0000      -0.694333       -18.8938
  37   2.0000      -0.664557       -18.0835
  38   2.0000      -0.645309       -17.5597
  39   2.0000      -0.618152       -16.8208
  40   2.0000      -0.601617       -16.3708
  41   2.0000      -0.572918       -15.5899
  42   2.0000      -0.569638       -15.5006
  43   2.0000      -0.559427       -15.2228
  44   2.0000      -0.530116       -14.4252
  45   2.0000      -0.523732       -14.2515
  46   2.0000      -0.519848       -14.1458
  47   2.0000      -0.518454       -14.1079
  48   2.0000      -0.507662       -13.8142
  49   2.0000      -0.499193       -13.5837
  50   2.0000      -0.495102       -13.4724
  51   2.0000      -0.480523       -13.0757
  52   2.0000      -0.474293       -12.9062
  53   2.0000      -0.464117       -12.6293
  54   2.0000      -0.456020       -12.4089
  55   2.0000      -0.448326       -12.1996
  56   2.0000      -0.445529       -12.1235
  57   2.0000      -0.437134       -11.8950
  58   2.0000      -0.435909       -11.8617
  59   2.0000      -0.424316       -11.5462
  60   2.0000      -0.420967       -11.4551
  61   2.0000      -0.418837       -11.3971
  62   2.0000      -0.411180       -11.1888
  63   2.0000      -0.341254        -9.2860
  64   2.0000      -0.325946        -8.8695
  65   2.0000      -0.324028        -8.8173
  66   2.0000      -0.302002        -8.2179
  67   0.0000       0.037585         1.0227
  68   0.0000       0.051871         1.4115
  69   0.0000       0.117014         3.1841
  70   0.0000       0.124089         3.3766
  71   0.0000       0.127474         3.4688

MULLIKEN ATOMIC CHARGES
-----------------------
   0 S :    0.094384
   1 C :   -0.126467
   2 C :   -0.096859
   3 C :    0.032902
   4 C :   -0.166028
   5 H :    0.021537
   6 C :    0.117312
   7 H :    0.002742
   8 H :    0.021881
   9 C :   -0.096715
  10 H :    0.026264
  11 H :    0.032199
  12 C :   -0.013235
  13 H :    0.020983
  14 H :    0.040051
  15 H :    0.027641
  16 S :    0.106720
  17 C :   -0.068537
  18 C :   -0.039830
  19 C :   -0.005415
  20 C :   -0.196361
  21 H :    0.026271
  22 C :    0.087285
  23 H :    0.039128
  24 H :    0.000139
  25 C :   -0.043105
  26 H :    0.023384
  27 H :    0.010778
  28 C :   -0.056318
  29 H :    0.031224
  30 H :    0.023738
  31 H :    0.030758
  32 H :    0.056643
  33 H :    0.034902
Sum of atomic charges:    0.0000000

LOEWDIN ATOMIC CHARGES
----------------------
   0 S :    0.378179
   1 C :   -0.189444
   2 C :   -0.061315
   3 C :   -0.061003
   4 C :   -0.189021
   5 H :    0.031843
   6 C :   -0.025104
   7 H :    0.024011
   8 H :    0.028905
   9 C :   -0.040531
  10 H :    0.022908
  11 H :    0.025628
  12 C :   -0.060724
  13 H :    0.017133
  14 H :    0.032162
  15 H :    0.029242
  16 S :    0.400256
  17 C :   -0.161647
  18 C :   -0.073717
  19 C :   -0.052546
  20 C :   -0.206528
  21 H :    0.038403
  22 C :   -0.030719
  23 H :    0.039230
  24 H :    0.024433
  25 C :   -0.027628
  26 H :    0.022055
  27 H :    0.010975
  28 C :   -0.062296
  29 H :    0.025343
  30 H :    0.022719
  31 H :    0.021667
  32 H :    0.030090
  33 H :    0.017043

  Mayer bond orders larger than 0.100000
B(  0-S ,  1-C ) :   1.1251 B(  0-S ,  4-C ) :   1.1479 B(  1-C ,  2-C ) :   1.6207
B(  1-C ,  4-C ) :   0.1035 B(  1-C , 32-H ) :   0.9647 B(  2-C ,  3-C ) :   1.2165
B(  2-C ,  6-C ) :   1.0296 B(  3-C ,  4-C ) :   1.6037 B(  3-C ,  5-H ) :   0.9831
B(  4-C , 20-C ) :   1.0247 B(  6-C ,  7-H ) :   0.9392 B(  6-C ,  8-H ) :   0.9283
B(  6-C ,  9-C ) :   1.0567 B(  9-C , 10-H ) :   0.9576 B(  9-C , 11-H ) :   0.9499
B(  9-C , 12-C ) :   1.0897 B( 12-C , 13-H ) :   0.9747 B( 12-C , 14-H ) :   0.9730
B( 12-C , 15-H ) :   0.9729 B( 16-S , 17-C ) :   1.1535 B( 16-S , 20-C ) :   1.1546
B( 17-C , 18-C ) :   1.5929 B( 17-C , 20-C ) :   0.1084 B( 17-C , 33-H ) :   0.9769
B( 18-C , 19-C ) :   1.2630 B( 18-C , 21-H ) :   0.9866 B( 19-C , 20-C ) :   1.5742
B( 19-C , 22-C ) :   1.0631 B( 22-C , 23-H ) :   0.9169 B( 22-C , 24-H ) :   0.9382
B( 22-C , 25-C ) :   1.0643 B( 25-C , 26-H ) :   0.9575 B( 25-C , 27-H ) :   0.9456
B( 25-C , 28-C ) :   1.0957 B( 28-C , 29-H ) :   0.9738 B( 28-C , 30-H ) :   0.9721
B( 28-C , 31-H ) :   0.9759

Dispersion correction           -0.014092209
FINAL SINGLE POINT ENERGY     -1339.884848540381

DIPOLE MOMENT
-------------
                                X             Y             Z
Electronic contribution:    -24.49616      11.06978       4.96253
Nuclear contribution   :     25.10029     -11.17847      -5.07414
                        -----------------------------------------
Total Dipole Moment    :      0.60413      -0.10868      -0.11161
                        -----------------------------------------
Magnitude (a.u.)       :      0.62389
Magnitude (Debye)      :      1.58580

Rotational constants in cm-1:     0.017422     0.008526     0.007031
Rotational constants in MHz :   522.303450   255.591161   210.792882

                             ****ORCA TERMINATED NORMALLY****
TOTAL RUN TIME: 0 days 0 hours 0 minutes 21 seconds 639 msec
