                         Program Version 4.2.1 -  RELEASE  -
|  1> ! wB97X-D3 SP def2-SVP
|  2> %pal
|  3> nprocs 24
|  4> end
|  5>
|  6> * xyz 0 1
|  7> S 	 -141.825 	 5.85276 	 4.77632
|  8> C 	 -141.014 	 4.75609 	 5.96898
|  9> C 	 -139.671 	 5.12224 	 6.13079
| 10> C 	 -139.343 	 6.23757 	 5.34713
| 11> C 	 -140.36 	 6.75632 	 4.52254
| 12> H 	 -138.338 	 6.64752 	 5.34522
| 13> C 	 -138.656 	 4.5077 	 7.09162
| 14> H 	 -137.635 	 4.38904 	 6.6475
| 15> H 	 -139.017 	 3.46751 	 7.23426
| 16> C 	 -138.378 	 5.32714 	 8.3635
| 17> H 	 -137.509 	 4.94701 	 8.88843
| 18> H 	 -138.109 	 6.41561 	 8.14578
| 19> C 	 -139.51 	 5.31838 	 9.40402
| 20> H 	 -140.415 	 5.73772 	 8.97137
| 21> H 	 -139.721 	 4.23964 	 9.62297
| 22> H 	 -139.175 	 5.98589 	 10.214
| 23> S 	 -139.986 	 7.88572 	 2.00212
| 24> C 	 -139.764 	 9.64198 	 1.84155
| 25> C 	 -139.845 	 10.2424 	 3.06346
| 26> C 	 -140.147 	 9.31131 	 4.06781
| 27> C 	 -140.309 	 7.96972 	 3.68081
| 28> H 	 -139.733 	 11.3043 	 3.12606
| 29> C 	 -140.335 	 9.75875 	 5.45449
| 30> H 	 -139.531 	 10.4371 	 5.58023
| 31> H 	 -140.08 	 8.87656 	 6.0943
| 32> C 	 -141.699 	 10.3638 	 5.85377
| 33> H 	 -142.483 	 9.55673 	 5.94699
| 34> H 	 -141.863 	 10.9597 	 4.93181
| 35> C 	 -141.647 	 11.2345 	 7.09377
| 36> H 	 -141.053 	 10.7221 	 7.87145
| 37> H 	 -142.636 	 11.5999 	 7.4354
| 38> H 	 -141.037 	 12.1238 	 7.00496
| 39> H 	 -141.627 	 4.12987 	 6.64926
| 40> H 	 -139.591 	 10.1354 	 0.92011
| 41> *
| 42>
| 43>                          ****END OF INPUT****

CARTESIAN COORDINATES (ANGSTROEM)
---------------------------------
  S    -141.825000    5.852760    4.776320
  C    -141.014000    4.756090    5.968980
  C    -139.671000    5.122240    6.130790
  C    -139.343000    6.237570    5.347130
  C    -140.360000    6.756320    4.522540
  H    -138.338000    6.647520    5.345220
  C    -138.656000    4.507700    7.091620
  H    -137.635000    4.389040    6.647500
  H    -139.017000    3.467510    7.234260
  C    -138.378000    5.327140    8.363500
  H    -137.509000    4.947010    8.888430
  H    -138.109000    6.415610    8.145780
  C    -139.510000    5.318380    9.404020
  H    -140.415000    5.737720    8.971370
  H    -139.721000    4.239640    9.622970
  H    -139.175000    5.985890   10.214000
  S    -139.986000    7.885720    2.002120
  C    -139.764000    9.641980    1.841550
  C    -139.845000   10.242400    3.063460
  C    -140.147000    9.311310    4.067810
  C    -140.309000    7.969720    3.680810
  H    -139.733000   11.304300    3.126060
  C    -140.335000    9.758750    5.454490
  H    -139.531000   10.437100    5.580230
  H    -140.080000    8.876560    6.094300
  C    -141.699000   10.363800    5.853770
  H    -142.483000    9.556730    5.946990
  H    -141.863000   10.959700    4.931810
  C    -141.647000   11.234500    7.093770
  H    -141.053000   10.722100    7.871450
  H    -142.636000   11.599900    7.435400
  H    -141.037000   12.123800    7.004960
  H    -141.627000    4.129870    6.649260
  H    -139.591000   10.135400    0.920110

 Total Charge           Charge          ....    0
 Multiplicity           Mult            ....    1
 Number of Electrons    NEL             ....  134
 Basis Dimension        Dim             ....  322

ORBITAL ENERGIES
----------------

  NO   OCC          E(Eh)            E(eV)
   0   2.0000     -88.969548     -2420.9845
   1   2.0000     -88.963715     -2420.8258
   2   2.0000     -10.336050      -281.2582
   3   2.0000     -10.326355      -280.9944
   4   2.0000     -10.325002      -280.9576
   5   2.0000     -10.317541      -280.7546
   6   2.0000     -10.306478      -280.4535
   7   2.0000     -10.302264      -280.3388
   8   2.0000     -10.297151      -280.1997
   9   2.0000     -10.296048      -280.1697
  10   2.0000     -10.293224      -280.0929
  11   2.0000     -10.291037      -280.0333
  12   2.0000     -10.288972      -279.9772
  13   2.0000     -10.280531      -279.7475
  14   2.0000     -10.278155      -279.6828
  15   2.0000     -10.278104      -279.6814
  16   2.0000      -8.083348      -219.9591
  17   2.0000      -8.078768      -219.8344
  18   2.0000      -6.041804      -164.4058
  19   2.0000      -6.037827      -164.2976
  20   2.0000      -6.037207      -164.2807
  21   2.0000      -6.034367      -164.2035
  22   2.0000      -6.033063      -164.1680
  23   2.0000      -6.029735      -164.0774
  24   2.0000      -1.007291       -27.4098
  25   2.0000      -0.984349       -26.7855
  26   2.0000      -0.911019       -24.7901
  27   2.0000      -0.908621       -24.7248
  28   2.0000      -0.870591       -23.6900
  29   2.0000      -0.850109       -23.1326
  30   2.0000      -0.847111       -23.0511
  31   2.0000      -0.814263       -22.1572
  32   2.0000      -0.783510       -21.3204
  33   2.0000      -0.766651       -20.8616
  34   2.0000      -0.707680       -19.2569
  35   2.0000      -0.695053       -18.9134
  36   2.0000      -0.691360       -18.8129
  37   2.0000      -0.664302       -18.0766
  38   2.0000      -0.637858       -17.3570
  39   2.0000      -0.623366       -16.9626
  40   2.0000      -0.593426       -16.1479
  41   2.0000      -0.573606       -15.6086
  42   2.0000      -0.558581       -15.1998
  43   2.0000      -0.548317       -14.9205
  44   2.0000      -0.541713       -14.7408
  45   2.0000      -0.527733       -14.3604
  46   2.0000      -0.524844       -14.2817
  47   2.0000      -0.520829       -14.1725
  48   2.0000      -0.506166       -13.7735
  49   2.0000      -0.500518       -13.6198
  50   2.0000      -0.484593       -13.1864
  51   2.0000      -0.474893       -12.9225
  52   2.0000      -0.467186       -12.7128
  53   2.0000      -0.461850       -12.5676
  54   2.0000      -0.451834       -12.2950
  55   2.0000      -0.451022       -12.2729
  56   2.0000      -0.445936       -12.1345
  57   2.0000      -0.437890       -11.9156
  58   2.0000      -0.433325       -11.7914
  59   2.0000      -0.419696       -11.4205
  60   2.0000      -0.415622       -11.3097
  61   2.0000      -0.413020       -11.2388
  62   2.0000      -0.405436       -11.0325
  63   2.0000      -0.341910        -9.3038
  64   2.0000      -0.335950        -9.1417
  65   2.0000      -0.319340        -8.6897
  66   2.0000      -0.305201        -8.3050
  67   0.0000       0.036337         0.9888
  68   0.0000       0.050952         1.3865
  69   0.0000       0.113339         3.0841
  70   0.0000       0.121958         3.3186
  71   0.0000       0.124377         3.3845

MULLIKEN ATOMIC CHARGES
-----------------------
   0 S :    0.106646
   1 C :   -0.148370
   2 C :   -0.075773
   3 C :    0.047341
   4 C :   -0.181654
   5 H :    0.013758
   6 C :    0.044569
   7 H :    0.040903
   8 H :    0.032199
   9 C :   -0.100694
  10 H :    0.029849
  11 H :    0.037140
  12 C :   -0.052305
  13 H :    0.033467
  14 H :    0.034187
  15 H :    0.044333
  16 S :    0.102756
  17 C :   -0.087872
  18 C :   -0.010165
  19 C :   -0.078470
  20 C :   -0.119095
  21 H :    0.016756
  22 C :    0.059744
  23 H :    0.004552
  24 H :    0.025095
  25 C :   -0.049950
  26 H :    0.044786
  27 H :    0.023637
  28 C :   -0.040121
  29 H :    0.026759
  30 H :    0.044418
  31 H :    0.016421
  32 H :    0.070002
  33 H :    0.045151
Sum of atomic charges:    0.0000000

LOEWDIN ATOMIC CHARGES
----------------------
   0 S :    0.399046
   1 C :   -0.188469
   2 C :   -0.065244
   3 C :   -0.057944
   4 C :   -0.200216
   5 H :    0.031985
   6 C :   -0.036817
   7 H :    0.039865
   8 H :    0.033909
   9 C :   -0.047851
  10 H :    0.021912
  11 H :    0.029912
  12 C :   -0.068590
  13 H :    0.021330
  14 H :    0.028403
  15 H :    0.031159
  16 S :    0.417781
  17 C :   -0.162472
  18 C :   -0.071785
  19 C :   -0.057931
  20 C :   -0.226609
  21 H :    0.033854
  22 C :   -0.041722
  23 H :    0.022927
  24 H :    0.031112
  25 C :   -0.041479
  26 H :    0.033090
  27 H :    0.025156
  28 C :   -0.073541
  29 H :    0.028545
  30 H :    0.031028
  31 H :    0.022419
  32 H :    0.034270
  33 H :    0.022967

  Mayer bond orders larger than 0.100000
B(  0-S ,  1-C ) :   1.1462 B(  0-S ,  4-C ) :   1.1699 B(  1-C ,  2-C ) :   1.5735
B(  1-C ,  4-C ) :   0.1112 B(  1-C , 32-H ) :   0.9641 B(  2-C ,  3-C ) :   1.2782
B(  2-C ,  6-C ) :   1.0200 B(  3-C ,  4-C ) :   1.5479 B(  3-C ,  5-H ) :   0.9959
B(  4-C , 20-C ) :   0.9973 B(  6-C ,  7-H ) :   0.9417 B(  6-C ,  8-H ) :   0.9450
B(  6-C ,  9-C ) :   1.0622 B(  9-C , 10-H ) :   0.9571 B(  9-C , 11-H ) :   0.9544
B(  9-C , 12-C ) :   1.0741 B( 12-C , 13-H ) :   0.9781 B( 12-C , 14-H ) :   0.9745
B( 12-C , 15-H ) :   0.9728 B( 16-S , 17-C ) :   1.1796 B( 16-S , 20-C ) :   1.1481
B( 17-C , 18-C ) :   1.5692 B( 17-C , 33-H ) :   0.9721 B( 18-C , 19-C ) :   1.2663
B( 18-C , 21-H ) :   0.9998 B( 19-C , 20-C ) :   1.5626 B( 19-C , 22-C ) :   1.0603
B( 22-C , 23-H ) :   0.9306 B( 22-C , 24-H ) :   0.9129 B( 22-C , 25-C ) :   1.0534
B( 25-C , 26-H ) :   0.9514 B( 25-C , 27-H ) :   0.9588 B( 25-C , 28-C ) :   1.0813
B( 28-C , 29-H ) :   0.9716 B( 28-C , 30-H ) :   0.9736 B( 28-C , 31-H ) :   0.9710

Dispersion correction           -0.014694679
FINAL SINGLE POINT ENERGY     -1339.876845452703

DIPOLE MOMENT
-------------
                                X             Y             Z
Electronic contribution:     -4.46646      -6.98541     -26.80700
Nuclear contribution   :      4.89074       7.31561      27.33174
                        -----------------------------------------
Total Dipole Moment    :      0.42428       0.33020       0.52474
                        -----------------------------------------
Magnitude (a.u.)       :      0.75126
Magnitude (Debye)      :      1.90956

Rotational constants in cm-1:     0.017590     0.008965     0.007188
Rotational constants in MHz :   527.346984   268.751780   215.483771

                             ****ORCA TERMINATED NORMALLY****
TOTAL RUN TIME: 0 days 0 hours 0 minutes 21 seconds 907 msec
