                         Program Version 4.2.1 -  RELEASE  -
|  1> ! wB97X-D3 SP def2-SVP
|  2> %pal
|  3> nprocs 24
|  4> end
|  5>
|  6> * xyz 0 1
|  7> S 	 -105.143 	 23.26 	 -110.031
|  8> C 	 -105.21 	 21.4876 	 -110.48
|  9> C 	 -105.881 	 21.3223 	 -111.664
| 10> C 	 -106.442 	 22.5432 	 -112.166
| 11> C 	 -106.216 	 23.6971 	 -111.412
| 12> H 	 -107.146 	 22.5883 	 -112.983
| 13> C 	 -106.073 	 19.9939 	 -112.401
| 14> H 	 -107.073 	 19.9202 	 -112.825
| 15> H 	 -106.054 	 19.287 	 -111.588
| 16> C 	 -105.048 	 19.4927 	 -113.462
| 17> H 	 -105.54 	 18.7007 	 -114.038
| 18> H 	 -104.742 	 20.2672 	 -114.195
| 19> C 	 -103.861 	 18.8879 	 -112.776
| 20> H 	 -103.372 	 18.1695 	 -113.464
| 21> H 	 -103.228 	 19.7111 	 -112.538
| 22> H 	 -104.155 	 18.3183 	 -111.856
| 23> S 	 -106.758 	 26.1463 	 -110.362
| 24> C 	 -107.738 	 27.3279 	 -111.238
| 25> C 	 -107.804 	 26.9921 	 -112.582
| 26> C 	 -107.305 	 25.6921 	 -112.831
| 27> C 	 -106.804 	 25.0711 	 -111.669
| 28> H 	 -108.144 	 27.8321 	 -113.297
| 29> C 	 -107.132 	 25.1393 	 -114.291
| 30> H 	 -107.62 	 24.1741 	 -114.206
| 31> H 	 -106.099 	 25.084 	 -114.623
| 32> C 	 -107.802 	 26.0283 	 -115.386
| 33> H 	 -107.225 	 26.9619 	 -115.57
| 34> H 	 -108.803 	 26.3351 	 -115.203
| 35> C 	 -107.742 	 25.3027 	 -116.704
| 36> H 	 -108.546 	 25.5355 	 -117.309
| 37> H 	 -107.825 	 24.2424 	 -116.588
| 38> H 	 -106.79 	 25.4905 	 -117.244
| 39> H 	 -104.734 	 20.6247 	 -109.939
| 40> H 	 -108.089 	 28.1829 	 -110.675
| 41> *
| 42>
| 43>                          ****END OF INPUT****

CARTESIAN COORDINATES (ANGSTROEM)
---------------------------------
  S    -105.143000   23.260000  -110.031000
  C    -105.210000   21.487600  -110.480000
  C    -105.881000   21.322300  -111.664000
  C    -106.442000   22.543200  -112.166000
  C    -106.216000   23.697100  -111.412000
  H    -107.146000   22.588300  -112.983000
  C    -106.073000   19.993900  -112.401000
  H    -107.073000   19.920200  -112.825000
  H    -106.054000   19.287000  -111.588000
  C    -105.048000   19.492700  -113.462000
  H    -105.540000   18.700700  -114.038000
  H    -104.742000   20.267200  -114.195000
  C    -103.861000   18.887900  -112.776000
  H    -103.372000   18.169500  -113.464000
  H    -103.228000   19.711100  -112.538000
  H    -104.155000   18.318300  -111.856000
  S    -106.758000   26.146300  -110.362000
  C    -107.738000   27.327900  -111.238000
  C    -107.804000   26.992100  -112.582000
  C    -107.305000   25.692100  -112.831000
  C    -106.804000   25.071100  -111.669000
  H    -108.144000   27.832100  -113.297000
  C    -107.132000   25.139300  -114.291000
  H    -107.620000   24.174100  -114.206000
  H    -106.099000   25.084000  -114.623000
  C    -107.802000   26.028300  -115.386000
  H    -107.225000   26.961900  -115.570000
  H    -108.803000   26.335100  -115.203000
  C    -107.742000   25.302700  -116.704000
  H    -108.546000   25.535500  -117.309000
  H    -107.825000   24.242400  -116.588000
  H    -106.790000   25.490500  -117.244000
  H    -104.734000   20.624700  -109.939000
  H    -108.089000   28.182900  -110.675000

 Total Charge           Charge          ....    0
 Multiplicity           Mult            ....    1
 Number of Electrons    NEL             ....  134
 Basis Dimension        Dim             ....  322

ORBITAL ENERGIES
----------------

  NO   OCC          E(Eh)            E(eV)
   0   2.0000     -88.968383     -2420.9528
   1   2.0000     -88.965120     -2420.8640
   2   2.0000     -10.342167      -281.4247
   3   2.0000     -10.332985      -281.1748
   4   2.0000     -10.323920      -280.9281
   5   2.0000     -10.319283      -280.8020
   6   2.0000     -10.309078      -280.5243
   7   2.0000     -10.304294      -280.3941
   8   2.0000     -10.303420      -280.3703
   9   2.0000     -10.299125      -280.2534
  10   2.0000     -10.293335      -280.0959
  11   2.0000     -10.292460      -280.0721
  12   2.0000     -10.288495      -279.9642
  13   2.0000     -10.285939      -279.8946
  14   2.0000     -10.276627      -279.6412
  15   2.0000     -10.269182      -279.4386
  16   2.0000      -8.080968      -219.8943
  17   2.0000      -8.080835      -219.8907
  18   2.0000      -6.039805      -164.3514
  19   2.0000      -6.039222      -164.3356
  20   2.0000      -6.035775      -164.2418
  21   2.0000      -6.035357      -164.2304
  22   2.0000      -6.031902      -164.1364
  23   2.0000      -6.031129      -164.1154
  24   2.0000      -1.004975       -27.3468
  25   2.0000      -0.976566       -26.5737
  26   2.0000      -0.911768       -24.8105
  27   2.0000      -0.909667       -24.7533
  28   2.0000      -0.867045       -23.5935
  29   2.0000      -0.853135       -23.2150
  30   2.0000      -0.840932       -22.8829
  31   2.0000      -0.812894       -22.1200
  32   2.0000      -0.779391       -21.2083
  33   2.0000      -0.772243       -21.0138
  34   2.0000      -0.707563       -19.2538
  35   2.0000      -0.698384       -19.0040
  36   2.0000      -0.692372       -18.8404
  37   2.0000      -0.652965       -17.7681
  38   2.0000      -0.631448       -17.1826
  39   2.0000      -0.618320       -16.8253
  40   2.0000      -0.600068       -16.3287
  41   2.0000      -0.575595       -15.6627
  42   2.0000      -0.570622       -15.5274
  43   2.0000      -0.548295       -14.9199
  44   2.0000      -0.540070       -14.6960
  45   2.0000      -0.530091       -14.4245
  46   2.0000      -0.517316       -14.0769
  47   2.0000      -0.510435       -13.8896
  48   2.0000      -0.502345       -13.6695
  49   2.0000      -0.495504       -13.4833
  50   2.0000      -0.484072       -13.1723
  51   2.0000      -0.479659       -13.0522
  52   2.0000      -0.474269       -12.9055
  53   2.0000      -0.469122       -12.7655
  54   2.0000      -0.455204       -12.3867
  55   2.0000      -0.449263       -12.2251
  56   2.0000      -0.440611       -11.9896
  57   2.0000      -0.433862       -11.8060
  58   2.0000      -0.431966       -11.7544
  59   2.0000      -0.424447       -11.5498
  60   2.0000      -0.422518       -11.4973
  61   2.0000      -0.417335       -11.3563
  62   2.0000      -0.410916       -11.1816
  63   2.0000      -0.357412        -9.7257
  64   2.0000      -0.334849        -9.1117
  65   2.0000      -0.327079        -8.9003
  66   2.0000      -0.282961        -7.6998
  67   0.0000       0.017249         0.4694
  68   0.0000       0.076684         2.0867
  69   0.0000       0.094261         2.5650
  70   0.0000       0.119722         3.2578
  71   0.0000       0.131684         3.5833

MULLIKEN ATOMIC CHARGES
-----------------------
   0 S :    0.083154
   1 C :   -0.144306
   2 C :   -0.071685
   3 C :   -0.005810
   4 C :   -0.085544
   5 H :   -0.000653
   6 C :    0.053712
   7 H :    0.026830
   8 H :    0.008968
   9 C :   -0.056922
  10 H :    0.025897
  11 H :    0.039939
  12 C :   -0.064279
  13 H :    0.038905
  14 H :    0.040354
  15 H :    0.030470
  16 S :    0.097421
  17 C :   -0.113210
  18 C :   -0.056143
  19 C :   -0.063600
  20 C :   -0.136413
  21 H :    0.062591
  22 C :    0.052175
  23 H :    0.041109
  24 H :    0.054509
  25 C :   -0.103150
  26 H :    0.036285
  27 H :    0.024261
  28 C :   -0.005302
  29 H :    0.012792
  30 H :    0.011963
  31 H :    0.036626
  32 H :    0.066859
  33 H :    0.062197
Sum of atomic charges:    0.0000000

LOEWDIN ATOMIC CHARGES
----------------------
   0 S :    0.343917
   1 C :   -0.183306
   2 C :   -0.064651
   3 C :   -0.071992
   4 C :   -0.165849
   5 H :    0.024660
   6 C :   -0.029439
   7 H :    0.030233
   8 H :    0.026197
   9 C :   -0.040818
  10 H :    0.023915
  11 H :    0.029162
  12 C :   -0.068392
  13 H :    0.029460
  14 H :    0.024327
  15 H :    0.026132
  16 S :    0.426364
  17 C :   -0.181297
  18 C :   -0.082609
  19 C :   -0.065694
  20 C :   -0.209519
  21 H :    0.054550
  22 C :   -0.021100
  23 H :    0.028729
  24 H :    0.038172
  25 C :   -0.044281
  26 H :    0.029957
  27 H :    0.016506
  28 C :   -0.060148
  29 H :    0.017380
  30 H :    0.020155
  31 H :    0.030302
  32 H :    0.043046
  33 H :    0.025932

  Mayer bond orders larger than 0.100000
B(  0-S ,  1-C ) :   1.1003 B(  0-S ,  4-C ) :   1.1210 B(  1-C ,  2-C ) :   1.6545
B(  1-C , 32-H ) :   0.9561 B(  2-C ,  3-C ) :   1.2262 B(  2-C ,  6-C ) :   1.0151
B(  3-C ,  4-C ) :   1.6030 B(  3-C ,  5-H ) :   0.9894 B(  4-C , 20-C ) :   1.0550
B(  6-C ,  7-H ) :   0.9434 B(  6-C ,  8-H ) :   0.9434 B(  6-C ,  9-C ) :   1.0641
B(  9-C , 10-H ) :   0.9557 B(  9-C , 11-H ) :   0.9566 B(  9-C , 12-C ) :   1.0776
B( 12-C , 13-H ) :   0.9735 B( 12-C , 14-H ) :   0.9783 B( 12-C , 15-H ) :   0.9753
B( 16-S , 17-C ) :   1.1753 B( 16-S , 20-C ) :   1.1723 B( 17-C , 18-C ) :   1.5486
B( 17-C , 20-C ) :   0.1066 B( 17-C , 33-H ) :   0.9725 B( 18-C , 19-C ) :   1.2960
B( 18-C , 21-H ) :   0.9738 B( 19-C , 20-C ) :   1.5481 B( 19-C , 22-C ) :   0.9991
B( 22-C , 23-H ) :   0.9332 B( 22-C , 24-H ) :   0.9444 B( 22-C , 25-C ) :   1.0932
B( 25-C , 26-H ) :   0.9509 B( 25-C , 27-H ) :   0.9564 B( 25-C , 28-C ) :   1.0836
B( 28-C , 29-H ) :   0.9699 B( 28-C , 30-H ) :   0.9724 B( 28-C , 31-H ) :   0.9748

Dispersion correction           -0.013334345
FINAL SINGLE POINT ENERGY     -1339.856564999304

DIPOLE MOMENT
-------------
                                X             Y             Z
Electronic contribution:      0.56396      15.14920      26.19156
Nuclear contribution   :     -0.77305     -15.31148     -26.92342
                        -----------------------------------------
Total Dipole Moment    :     -0.20909      -0.16228      -0.73186
                        -----------------------------------------
Magnitude (a.u.)       :      0.77825
Magnitude (Debye)      :      1.97815

Rotational constants in cm-1:     0.017483     0.008387     0.005867
Rotational constants in MHz :   524.127085   251.433621   175.883161

                             ****ORCA TERMINATED NORMALLY****
TOTAL RUN TIME: 0 days 0 hours 0 minutes 20 seconds 861 msec
