                         Program Version 4.2.1 -  RELEASE  -
|  1> ! wB97X-D3 SP def2-SVP
|  2> %pal
|  3> nprocs 24
|  4> end
|  5>
|  6> * xyz 0 1
|  7> S 	 33.3604 	 -30.912 	 -114.071
|  8> C 	 32.3506 	 -30.9993 	 -112.626
|  9> C 	 33.1696 	 -31.3587 	 -111.565
| 10> C 	 34.5527 	 -31.3508 	 -111.88
| 11> C 	 34.8407 	 -31.018 	 -113.213
| 12> H 	 35.4269 	 -31.4509 	 -111.135
| 13> C 	 32.6903 	 -31.4806 	 -110.089
| 14> H 	 32.2877 	 -30.5174 	 -110.007
| 15> H 	 33.5336 	 -31.3806 	 -109.365
| 16> C 	 31.7137 	 -32.6139 	 -109.906
| 17> H 	 30.938 	 -32.5125 	 -110.676
| 18> H 	 32.2017 	 -33.5831 	 -110.102
| 19> C 	 31.049 	 -32.751 	 -108.512
| 20> H 	 30.5183 	 -33.7156 	 -108.678
| 21> H 	 31.7689 	 -32.7525 	 -107.722
| 22> H 	 30.3072 	 -31.996 	 -108.304
| 23> S 	 36.3467 	 -31.6361 	 -115.44
| 24> C 	 38.1276 	 -31.3156 	 -115.543
| 25> C 	 38.5296 	 -30.71 	 -114.339
| 26> C 	 37.4242 	 -30.4559 	 -113.456
| 27> C 	 36.1805 	 -30.9788 	 -113.885
| 28> H 	 39.5558 	 -30.4603 	 -114.231
| 29> C 	 37.6838 	 -29.7094 	 -112.124
| 30> H 	 36.5932 	 -29.5033 	 -111.773
| 31> H 	 38.2402 	 -28.8216 	 -112.404
| 32> C 	 38.4278 	 -30.6589 	 -111.082
| 33> H 	 39.3843 	 -30.7811 	 -111.448
| 34> H 	 37.8935 	 -31.6118 	 -111.013
| 35> C 	 38.5743 	 -30.1101 	 -109.654
| 36> H 	 39.1705 	 -29.2262 	 -109.671
| 37> H 	 39.2009 	 -30.7816 	 -109.059
| 38> H 	 37.6494 	 -30.0251 	 -109.104
| 39> H 	 31.2445 	 -30.8895 	 -112.585
| 40> H 	 38.7185 	 -31.5098 	 -116.41
| 41> *
| 42>
| 43>                          ****END OF INPUT****

CARTESIAN COORDINATES (ANGSTROEM)
---------------------------------
  S     33.360400  -30.912000  -114.071000
  C     32.350600  -30.999300  -112.626000
  C     33.169600  -31.358700  -111.565000
  C     34.552700  -31.350800  -111.880000
  C     34.840700  -31.018000  -113.213000
  H     35.426900  -31.450900  -111.135000
  C     32.690300  -31.480600  -110.089000
  H     32.287700  -30.517400  -110.007000
  H     33.533600  -31.380600  -109.365000
  C     31.713700  -32.613900  -109.906000
  H     30.938000  -32.512500  -110.676000
  H     32.201700  -33.583100  -110.102000
  C     31.049000  -32.751000  -108.512000
  H     30.518300  -33.715600  -108.678000
  H     31.768900  -32.752500  -107.722000
  H     30.307200  -31.996000  -108.304000
  S     36.346700  -31.636100  -115.440000
  C     38.127600  -31.315600  -115.543000
  C     38.529600  -30.710000  -114.339000
  C     37.424200  -30.455900  -113.456000
  C     36.180500  -30.978800  -113.885000
  H     39.555800  -30.460300  -114.231000
  C     37.683800  -29.709400  -112.124000
  H     36.593200  -29.503300  -111.773000
  H     38.240200  -28.821600  -112.404000
  C     38.427800  -30.658900  -111.082000
  H     39.384300  -30.781100  -111.448000
  H     37.893500  -31.611800  -111.013000
  C     38.574300  -30.110100  -109.654000
  H     39.170500  -29.226200  -109.671000
  H     39.200900  -30.781600  -109.059000
  H     37.649400  -30.025100  -109.104000
  H     31.244500  -30.889500  -112.585000
  H     38.718500  -31.509800  -116.410000

 Total Charge           Charge          ....    0
 Multiplicity           Mult            ....    1
 Number of Electrons    NEL             ....  134
 Basis Dimension        Dim             ....  322

ORBITAL ENERGIES
----------------

  NO   OCC          E(Eh)            E(eV)
   0   2.0000     -88.968624     -2420.9593
   1   2.0000     -88.965356     -2420.8704
   2   2.0000     -10.336161      -281.2612
   3   2.0000     -10.332683      -281.1666
   4   2.0000     -10.323977      -280.9297
   5   2.0000     -10.321119      -280.8519
   6   2.0000     -10.306419      -280.4519
   7   2.0000     -10.305161      -280.4177
   8   2.0000     -10.301732      -280.3244
   9   2.0000     -10.300060      -280.2789
  10   2.0000     -10.298700      -280.2419
  11   2.0000     -10.290330      -280.0141
  12   2.0000     -10.289850      -280.0011
  13   2.0000     -10.286208      -279.9020
  14   2.0000     -10.279359      -279.7156
  15   2.0000     -10.275033      -279.5979
  16   2.0000      -8.083480      -219.9627
  17   2.0000      -8.080033      -219.8689
  18   2.0000      -6.042023      -164.4118
  19   2.0000      -6.038552      -164.3173
  20   2.0000      -6.037839      -164.2979
  21   2.0000      -6.034423      -164.2050
  22   2.0000      -6.034302      -164.2017
  23   2.0000      -6.030895      -164.1090
  24   2.0000      -1.007029       -27.4026
  25   2.0000      -0.983119       -26.7520
  26   2.0000      -0.912448       -24.8290
  27   2.0000      -0.899712       -24.4824
  28   2.0000      -0.867946       -23.6180
  29   2.0000      -0.847902       -23.0726
  30   2.0000      -0.845631       -23.0108
  31   2.0000      -0.815756       -22.1979
  32   2.0000      -0.782751       -21.2997
  33   2.0000      -0.767075       -20.8732
  34   2.0000      -0.704713       -19.1762
  35   2.0000      -0.701464       -19.0878
  36   2.0000      -0.693857       -18.8808
  37   2.0000      -0.665038       -18.0966
  38   2.0000      -0.636566       -17.3218
  39   2.0000      -0.614556       -16.7229
  40   2.0000      -0.581727       -15.8296
  41   2.0000      -0.574468       -15.6321
  42   2.0000      -0.572058       -15.5665
  43   2.0000      -0.557231       -15.1630
  44   2.0000      -0.538342       -14.6490
  45   2.0000      -0.524411       -14.2700
  46   2.0000      -0.517382       -14.0787
  47   2.0000      -0.510714       -13.8972
  48   2.0000      -0.503606       -13.7038
  49   2.0000      -0.502337       -13.6693
  50   2.0000      -0.497453       -13.5364
  51   2.0000      -0.482492       -13.1293
  52   2.0000      -0.471879       -12.8405
  53   2.0000      -0.468200       -12.7404
  54   2.0000      -0.461956       -12.5705
  55   2.0000      -0.447290       -12.1714
  56   2.0000      -0.442882       -12.0514
  57   2.0000      -0.436710       -11.8835
  58   2.0000      -0.432329       -11.7643
  59   2.0000      -0.421352       -11.4656
  60   2.0000      -0.417027       -11.3479
  61   2.0000      -0.409727       -11.1492
  62   2.0000      -0.408326       -11.1111
  63   2.0000      -0.352776        -9.5995
  64   2.0000      -0.332489        -9.0475
  65   2.0000      -0.327202        -8.9036
  66   2.0000      -0.288600        -7.8532
  67   0.0000       0.023979         0.6525
  68   0.0000       0.073600         2.0028
  69   0.0000       0.104729         2.8498
  70   0.0000       0.122899         3.3443
  71   0.0000       0.125596         3.4176

MULLIKEN ATOMIC CHARGES
-----------------------
   0 S :    0.111180
   1 C :   -0.140152
   2 C :   -0.095532
   3 C :   -0.010679
   4 C :   -0.143399
   5 H :    0.038750
   6 C :    0.084822
   7 H :    0.019585
   8 H :    0.021561
   9 C :   -0.104004
  10 H :    0.024128
  11 H :    0.037130
  12 C :   -0.025156
  13 H :    0.040715
  14 H :    0.031848
  15 H :    0.030012
  16 S :    0.089581
  17 C :   -0.105601
  18 C :   -0.012287
  19 C :   -0.075525
  20 C :   -0.114324
  21 H :    0.017320
  22 C :    0.028372
  23 H :    0.042717
  24 H :    0.036785
  25 C :   -0.060550
  26 H :    0.010325
  27 H :    0.038303
  28 C :   -0.021640
  29 H :    0.021177
  30 H :    0.023557
  31 H :    0.032467
  32 H :    0.070514
  33 H :    0.058001
Sum of atomic charges:   -0.0000000

LOEWDIN ATOMIC CHARGES
----------------------
   0 S :    0.422517
   1 C :   -0.206181
   2 C :   -0.059521
   3 C :   -0.083217
   4 C :   -0.203530
   5 H :    0.043236
   6 C :   -0.035185
   7 H :    0.027051
   8 H :    0.031044
   9 C :   -0.043101
  10 H :    0.024419
  11 H :    0.029340
  12 C :   -0.061279
  13 H :    0.036320
  14 H :    0.020332
  15 H :    0.020962
  16 S :    0.405915
  17 C :   -0.167082
  18 C :   -0.063883
  19 C :   -0.064529
  20 C :   -0.215911
  21 H :    0.028653
  22 C :   -0.034036
  23 H :    0.038099
  24 H :    0.029136
  25 C :   -0.031590
  26 H :    0.012821
  27 H :    0.025889
  28 C :   -0.063664
  29 H :    0.021354
  30 H :    0.027914
  31 H :    0.022133
  32 H :    0.039784
  33 H :    0.025788

  Mayer bond orders larger than 0.100000
B(  0-S ,  1-C ) :   1.1414 B(  0-S ,  4-C ) :   1.1819 B(  1-C ,  2-C ) :   1.5769
B(  1-C ,  4-C ) :   0.1090 B(  1-C , 32-H ) :   0.9666 B(  2-C ,  3-C ) :   1.2901
B(  2-C ,  6-C ) :   0.9877 B(  3-C ,  4-C ) :   1.5210 B(  3-C ,  5-H ) :   0.9785
B(  4-C , 20-C ) :   1.0264 B(  6-C ,  7-H ) :   0.9413 B(  6-C ,  8-H ) :   0.9478
B(  6-C ,  9-C ) :   1.0539 B(  9-C , 10-H ) :   0.9563 B(  9-C , 11-H ) :   0.9608
B(  9-C , 12-C ) :   1.0767 B( 12-C , 13-H ) :   0.9771 B( 12-C , 14-H ) :   0.9756
B( 12-C , 15-H ) :   0.9770 B( 16-S , 17-C ) :   1.1530 B( 16-S , 20-C ) :   1.1574
B( 17-C , 18-C ) :   1.5799 B( 17-C , 20-C ) :   0.1035 B( 17-C , 33-H ) :   0.9752
B( 18-C , 19-C ) :   1.2563 B( 18-C , 21-H ) :   0.9956 B( 19-C , 20-C ) :   1.5635
B( 19-C , 22-C ) :   1.0330 B( 22-C , 23-H ) :   0.9384 B( 22-C , 24-H ) :   0.9382
B( 22-C , 25-C ) :   1.0539 B( 25-C , 26-H ) :   0.9529 B( 25-C , 27-H ) :   0.9567
B( 25-C , 28-C ) :   1.0960 B( 28-C , 29-H ) :   0.9713 B( 28-C , 30-H ) :   0.9711
B( 28-C , 31-H ) :   0.9766

Dispersion correction           -0.013685339
FINAL SINGLE POINT ENERGY     -1339.862149093412

DIPOLE MOMENT
-------------
                                X             Y             Z
Electronic contribution:     -0.16938       0.72765     -30.72814
Nuclear contribution   :      0.38260      -0.64650      31.35374
                        -----------------------------------------
Total Dipole Moment    :      0.21322       0.08115       0.62560
                        -----------------------------------------
Magnitude (a.u.)       :      0.66590
Magnitude (Debye)      :      1.69259

Rotational constants in cm-1:     0.018363     0.008125     0.005975
Rotational constants in MHz :   550.507299   243.583689   179.123592

                             ****ORCA TERMINATED NORMALLY****
TOTAL RUN TIME: 0 days 0 hours 0 minutes 20 seconds 986 msec
