                         Program Version 4.2.1 -  RELEASE  -
|  1> ! wB97X-D3 SP def2-SVP
|  2> %pal
|  3> nprocs 24
|  4> end
|  5>
|  6> * xyz 0 1
|  7> S 	 -45.5418 	 20.5567 	 29.5854
|  8> C 	 -45.9263 	 20.0781 	 28.0137
|  9> C 	 -46.6035 	 21.0553 	 27.2932
| 10> C 	 -46.7482 	 22.2807 	 28.0392
| 11> C 	 -46.1527 	 22.1632 	 29.2811
| 12> H 	 -47.2115 	 23.2383 	 27.7019
| 13> C 	 -47.2034 	 20.9629 	 25.904
| 14> H 	 -46.8929 	 19.958 	 25.6468
| 15> H 	 -46.717 	 21.7157 	 25.3121
| 16> C 	 -48.7473 	 20.9714 	 25.7661
| 17> H 	 -48.955 	 20.4103 	 24.8497
| 18> H 	 -49.0837 	 20.3188 	 26.5397
| 19> C 	 -49.3327 	 22.3915 	 25.8068
| 20> H 	 -48.9359 	 22.9925 	 26.6614
| 21> H 	 -49.1252 	 22.8768 	 24.8773
| 22> H 	 -50.3994 	 22.411 	 25.9064
| 23> S 	 -47.2336 	 22.8602 	 31.7419
| 24> C 	 -46.8393 	 24.3557 	 32.5198
| 25> C 	 -46.06 	 25.0699 	 31.6345
| 26> C 	 -45.7864 	 24.5132 	 30.3688
| 27> C 	 -46.2418 	 23.1838 	 30.3204
| 28> H 	 -45.6337 	 26.0154 	 31.8033
| 29> C 	 -45.0183 	 25.2506 	 29.3227
| 30> H 	 -44.9036 	 24.5268 	 28.4726
| 31> H 	 -43.9727 	 25.4358 	 29.5517
| 32> C 	 -45.6753 	 26.5101 	 28.7164
| 33> H 	 -44.9784 	 27.0534 	 28.0665
| 34> H 	 -45.8097 	 27.311 	 29.4921
| 35> C 	 -47.0314 	 26.2389 	 28.0149
| 36> H 	 -46.9797 	 25.7103 	 27.0218
| 37> H 	 -47.4966 	 27.2455 	 27.8048
| 38> H 	 -47.7692 	 25.6186 	 28.656
| 39> H 	 -45.6849 	 19.1247 	 27.5911
| 40> H 	 -47.025 	 24.7239 	 33.5136
| 41> *
| 42>
| 43>                          ****END OF INPUT****

CARTESIAN COORDINATES (ANGSTROEM)
---------------------------------
  S    -45.541800   20.556700   29.585400
  C    -45.926300   20.078100   28.013700
  C    -46.603500   21.055300   27.293200
  C    -46.748200   22.280700   28.039200
  C    -46.152700   22.163200   29.281100
  H    -47.211500   23.238300   27.701900
  C    -47.203400   20.962900   25.904000
  H    -46.892900   19.958000   25.646800
  H    -46.717000   21.715700   25.312100
  C    -48.747300   20.971400   25.766100
  H    -48.955000   20.410300   24.849700
  H    -49.083700   20.318800   26.539700
  C    -49.332700   22.391500   25.806800
  H    -48.935900   22.992500   26.661400
  H    -49.125200   22.876800   24.877300
  H    -50.399400   22.411000   25.906400
  S    -47.233600   22.860200   31.741900
  C    -46.839300   24.355700   32.519800
  C    -46.060000   25.069900   31.634500
  C    -45.786400   24.513200   30.368800
  C    -46.241800   23.183800   30.320400
  H    -45.633700   26.015400   31.803300
  C    -45.018300   25.250600   29.322700
  H    -44.903600   24.526800   28.472600
  H    -43.972700   25.435800   29.551700
  C    -45.675300   26.510100   28.716400
  H    -44.978400   27.053400   28.066500
  H    -45.809700   27.311000   29.492100
  C    -47.031400   26.238900   28.014900
  H    -46.979700   25.710300   27.021800
  H    -47.496600   27.245500   27.804800
  H    -47.769200   25.618600   28.656000
  H    -45.684900   19.124700   27.591100
  H    -47.025000   24.723900   33.513600

 Total Charge           Charge          ....    0
 Multiplicity           Mult            ....    1
 Number of Electrons    NEL             ....  134
 Basis Dimension        Dim             ....  322

ORBITAL ENERGIES
----------------

  NO   OCC          E(Eh)            E(eV)
   0   2.0000     -88.969465     -2420.9822
   1   2.0000     -88.964059     -2420.8351
   2   2.0000     -10.326964      -281.0110
   3   2.0000     -10.326276      -280.9922
   4   2.0000     -10.313208      -280.6367
   5   2.0000     -10.310874      -280.5731
   6   2.0000     -10.299378      -280.2603
   7   2.0000     -10.298054      -280.2243
   8   2.0000     -10.296508      -280.1822
   9   2.0000     -10.295776      -280.1623
  10   2.0000     -10.293754      -280.1073
  11   2.0000     -10.291904      -280.0569
  12   2.0000     -10.287231      -279.9298
  13   2.0000     -10.286669      -279.9145
  14   2.0000     -10.282307      -279.7958
  15   2.0000     -10.278557      -279.6938
  16   2.0000      -8.085220      -220.0100
  17   2.0000      -8.078623      -219.8305
  18   2.0000      -6.043609      -164.4550
  19   2.0000      -6.039547      -164.3444
  20   2.0000      -6.037232      -164.2814
  21   2.0000      -6.036096      -164.2505
  22   2.0000      -6.032959      -164.1652
  23   2.0000      -6.029474      -164.0703
  24   2.0000      -1.009526       -27.4706
  25   2.0000      -0.987717       -26.8771
  26   2.0000      -0.911488       -24.8029
  27   2.0000      -0.905800       -24.6481
  28   2.0000      -0.870427       -23.6855
  29   2.0000      -0.850067       -23.1315
  30   2.0000      -0.843818       -22.9615
  31   2.0000      -0.813437       -22.1348
  32   2.0000      -0.782076       -21.2814
  33   2.0000      -0.771717       -20.9995
  34   2.0000      -0.707261       -19.2456
  35   2.0000      -0.703126       -19.1330
  36   2.0000      -0.696346       -18.9485
  37   2.0000      -0.657810       -17.8999
  38   2.0000      -0.643978       -17.5235
  39   2.0000      -0.614000       -16.7078
  40   2.0000      -0.595963       -16.2170
  41   2.0000      -0.572609       -15.5815
  42   2.0000      -0.553507       -15.0617
  43   2.0000      -0.546049       -14.8587
  44   2.0000      -0.539331       -14.6759
  45   2.0000      -0.530420       -14.4335
  46   2.0000      -0.519228       -14.1289
  47   2.0000      -0.512851       -13.9554
  48   2.0000      -0.503390       -13.6979
  49   2.0000      -0.499477       -13.5915
  50   2.0000      -0.488747       -13.2995
  51   2.0000      -0.484892       -13.1946
  52   2.0000      -0.471206       -12.8222
  53   2.0000      -0.464195       -12.6314
  54   2.0000      -0.462467       -12.5844
  55   2.0000      -0.445982       -12.1358
  56   2.0000      -0.440357       -11.9827
  57   2.0000      -0.437649       -11.9090
  58   2.0000      -0.432582       -11.7711
  59   2.0000      -0.428354       -11.6561
  60   2.0000      -0.419898       -11.4260
  61   2.0000      -0.412469       -11.2238
  62   2.0000      -0.407864       -11.0985
  63   2.0000      -0.344456        -9.3731
  64   2.0000      -0.328903        -8.9499
  65   2.0000      -0.326078        -8.8730
  66   2.0000      -0.295891        -8.0516
  67   0.0000       0.035092         0.9549
  68   0.0000       0.067291         1.8311
  69   0.0000       0.119065         3.2399
  70   0.0000       0.124609         3.3908
  71   0.0000       0.127741         3.4760

MULLIKEN ATOMIC CHARGES
-----------------------
   0 S :    0.138987
   1 C :   -0.106965
   2 C :   -0.120107
   3 C :    0.028475
   4 C :   -0.178404
   5 H :    0.022787
   6 C :    0.076098
   7 H :    0.000009
   8 H :    0.031258
   9 C :   -0.039608
  10 H :    0.031899
  11 H :    0.020762
  12 C :   -0.039335
  13 H :    0.034373
  14 H :    0.027983
  15 H :    0.030358
  16 S :    0.111433
  17 C :   -0.071482
  18 C :   -0.014517
  19 C :   -0.032959
  20 C :   -0.172095
  21 H :   -0.011836
  22 C :    0.052684
  23 H :    0.023115
  24 H :    0.036901
  25 C :   -0.068696
  26 H :    0.028233
  27 H :    0.027820
  28 C :   -0.116461
  29 H :    0.047740
  30 H :    0.044045
  31 H :    0.065790
  32 H :    0.037094
  33 H :    0.054622
Sum of atomic charges:    0.0000000

LOEWDIN ATOMIC CHARGES
----------------------
   0 S :    0.441864
   1 C :   -0.217339
   2 C :   -0.064059
   3 C :   -0.058718
   4 C :   -0.205924
   5 H :    0.037341
   6 C :   -0.028670
   7 H :    0.026689
   8 H :    0.027220
   9 C :   -0.033621
  10 H :    0.027786
  11 H :    0.022173
  12 C :   -0.065157
  13 H :    0.030201
  14 H :    0.023529
  15 H :    0.024660
  16 S :    0.412756
  17 C :   -0.199917
  18 C :   -0.066241
  19 C :   -0.064115
  20 C :   -0.193506
  21 H :    0.018702
  22 C :   -0.042142
  23 H :    0.036363
  24 H :    0.033696
  25 C :   -0.046189
  26 H :    0.027182
  27 H :    0.024833
  28 C :   -0.084164
  29 H :    0.025969
  30 H :    0.033450
  31 H :    0.036246
  32 H :    0.024553
  33 H :    0.034549

  Mayer bond orders larger than 0.100000
B(  0-S ,  1-C ) :   1.1520 B(  0-S ,  4-C ) :   1.1660 B(  1-C ,  2-C ) :   1.6053
B(  1-C , 32-H ) :   0.9646 B(  2-C ,  3-C ) :   1.2418 B(  2-C ,  6-C ) :   1.0264
B(  3-C ,  4-C ) :   1.5665 B(  3-C ,  5-H ) :   0.9750 B(  4-C , 20-C ) :   1.0208
B(  6-C ,  7-H ) :   0.9319 B(  6-C ,  8-H ) :   0.9402 B(  6-C ,  9-C ) :   1.0680
B(  9-C , 10-H ) :   0.9591 B(  9-C , 11-H ) :   0.9535 B(  9-C , 12-C ) :   1.0696
B( 12-C , 13-H ) :   0.9732 B( 12-C , 14-H ) :   0.9749 B( 12-C , 15-H ) :   0.9714
B( 16-S , 17-C ) :   1.1440 B( 16-S , 20-C ) :   1.1675 B( 17-C , 18-C ) :   1.5718
B( 17-C , 20-C ) :   0.1071 B( 17-C , 33-H ) :   0.9723 B( 18-C , 19-C ) :   1.2829
B( 18-C , 21-H ) :   0.9886 B( 19-C , 20-C ) :   1.5516 B( 19-C , 22-C ) :   1.0529
B( 22-C , 23-H ) :   0.9296 B( 22-C , 24-H ) :   0.9360 B( 22-C , 25-C ) :   1.0662
B( 25-C , 26-H ) :   0.9528 B( 25-C , 27-H ) :   0.9573 B( 25-C , 28-C ) :   1.0667
B( 28-C , 29-H ) :   0.9682 B( 28-C , 30-H ) :   0.9705 B( 28-C , 31-H ) :   0.9694

Dispersion correction           -0.015504116
FINAL SINGLE POINT ENERGY     -1339.882700319399

DIPOLE MOMENT
-------------
                                X             Y             Z
Electronic contribution:      7.76173     -13.91651      22.31159
Nuclear contribution   :     -7.78417      14.24130     -22.84250
                        -----------------------------------------
Total Dipole Moment    :     -0.02244       0.32479      -0.53092
                        -----------------------------------------
Magnitude (a.u.)       :      0.62279
Magnitude (Debye)      :      1.58299

Rotational constants in cm-1:     0.017633     0.009885     0.007746
Rotational constants in MHz :   528.631265   296.349023   232.229338

                             ****ORCA TERMINATED NORMALLY****
TOTAL RUN TIME: 0 days 0 hours 0 minutes 21 seconds 483 msec
