                         Program Version 4.2.1 -  RELEASE  -
|  1> ! wB97X-D3 SP def2-SVP
|  2> %pal
|  3> nprocs 24
|  4> end
|  5>
|  6> * xyz 0 1
|  7> S 	 -111.258 	 50.0706 	 -76.0744
|  8> C 	 -112.425 	 49.9636 	 -77.3323
|  9> C 	 -113.599 	 50.663 	 -77.1276
| 10> C 	 -113.548 	 51.0934 	 -75.7542
| 11> C 	 -112.413 	 50.7168 	 -75.0388
| 12> H 	 -114.365 	 51.5886 	 -75.2
| 13> C 	 -114.642 	 51.0534 	 -78.094
| 14> H 	 -114.04 	 51.2379 	 -79.0388
| 15> H 	 -114.961 	 52.0187 	 -77.8048
| 16> C 	 -115.816 	 50.0587 	 -78.2854
| 17> H 	 -115.478 	 49.1279 	 -78.6289
| 18> H 	 -116.146 	 49.7321 	 -77.2642
| 19> C 	 -116.982 	 50.6769 	 -79.0777
| 20> H 	 -117.086 	 51.6537 	 -78.632
| 21> H 	 -116.808 	 50.8577 	 -80.1208
| 22> H 	 -117.84 	 50.0547 	 -78.9658
| 23> S 	 -111.201 	 49.5453 	 -72.9737
| 24> C 	 -111.343 	 50.1935 	 -71.3822
| 25> C 	 -112.122 	 51.291 	 -71.3444
| 26> C 	 -112.51 	 51.8266 	 -72.6304
| 27> C 	 -112.111 	 50.8678 	 -73.6393
| 28> H 	 -112.547 	 51.7255 	 -70.4209
| 29> C 	 -113.366 	 52.9844 	 -72.756
| 30> H 	 -114.036 	 53.0006 	 -71.8672
| 31> H 	 -113.975 	 52.9369 	 -73.6829
| 32> C 	 -112.699 	 54.3641 	 -72.6867
| 33> H 	 -111.962 	 54.4792 	 -73.4998
| 34> H 	 -112.162 	 54.3754 	 -71.7825
| 35> C 	 -113.625 	 55.5382 	 -72.6146
| 36> H 	 -113.046 	 56.4402 	 -72.4046
| 37> H 	 -114.397 	 55.4864 	 -71.8693
| 38> H 	 -114.162 	 55.6812 	 -73.5733
| 39> H 	 -112.307 	 49.4136 	 -78.2955
| 40> H 	 -110.954 	 49.7098 	 -70.5269
| 41> *
| 42>
| 43>                          ****END OF INPUT****

CARTESIAN COORDINATES (ANGSTROEM)
---------------------------------
  S    -111.258000   50.070600  -76.074400
  C    -112.425000   49.963600  -77.332300
  C    -113.599000   50.663000  -77.127600
  C    -113.548000   51.093400  -75.754200
  C    -112.413000   50.716800  -75.038800
  H    -114.365000   51.588600  -75.200000
  C    -114.642000   51.053400  -78.094000
  H    -114.040000   51.237900  -79.038800
  H    -114.961000   52.018700  -77.804800
  C    -115.816000   50.058700  -78.285400
  H    -115.478000   49.127900  -78.628900
  H    -116.146000   49.732100  -77.264200
  C    -116.982000   50.676900  -79.077700
  H    -117.086000   51.653700  -78.632000
  H    -116.808000   50.857700  -80.120800
  H    -117.840000   50.054700  -78.965800
  S    -111.201000   49.545300  -72.973700
  C    -111.343000   50.193500  -71.382200
  C    -112.122000   51.291000  -71.344400
  C    -112.510000   51.826600  -72.630400
  C    -112.111000   50.867800  -73.639300
  H    -112.547000   51.725500  -70.420900
  C    -113.366000   52.984400  -72.756000
  H    -114.036000   53.000600  -71.867200
  H    -113.975000   52.936900  -73.682900
  C    -112.699000   54.364100  -72.686700
  H    -111.962000   54.479200  -73.499800
  H    -112.162000   54.375400  -71.782500
  C    -113.625000   55.538200  -72.614600
  H    -113.046000   56.440200  -72.404600
  H    -114.397000   55.486400  -71.869300
  H    -114.162000   55.681200  -73.573300
  H    -112.307000   49.413600  -78.295500
  H    -110.954000   49.709800  -70.526900

 Total Charge           Charge          ....    0
 Multiplicity           Mult            ....    1
 Number of Electrons    NEL             ....  134
 Basis Dimension        Dim             ....  322

ORBITAL ENERGIES
----------------

  NO   OCC          E(Eh)            E(eV)
   0   2.0000     -88.965943     -2420.8864
   1   2.0000     -88.965317     -2420.8694
   2   2.0000     -10.328479      -281.0522
   3   2.0000     -10.319560      -280.8095
   4   2.0000     -10.308881      -280.5189
   5   2.0000     -10.307885      -280.4918
   6   2.0000     -10.304504      -280.3998
   7   2.0000     -10.297998      -280.2228
   8   2.0000     -10.293607      -280.1033
   9   2.0000     -10.292297      -280.0676
  10   2.0000     -10.291714      -280.0518
  11   2.0000     -10.291522      -280.0465
  12   2.0000     -10.288484      -279.9639
  13   2.0000     -10.279553      -279.7209
  14   2.0000     -10.276383      -279.6346
  15   2.0000     -10.276023      -279.6248
  16   2.0000      -8.082479      -219.9354
  17   2.0000      -8.080794      -219.8896
  18   2.0000      -6.040807      -164.3787
  19   2.0000      -6.039239      -164.3361
  20   2.0000      -6.036839      -164.2707
  21   2.0000      -6.035156      -164.2249
  22   2.0000      -6.033219      -164.1722
  23   2.0000      -6.031608      -164.1284
  24   2.0000      -1.015657       -27.6374
  25   2.0000      -0.988752       -26.9053
  26   2.0000      -0.919912       -25.0321
  27   2.0000      -0.916178       -24.9305
  28   2.0000      -0.873216       -23.7614
  29   2.0000      -0.858106       -23.3503
  30   2.0000      -0.849236       -23.1089
  31   2.0000      -0.812870       -22.1193
  32   2.0000      -0.786447       -21.4003
  33   2.0000      -0.770986       -20.9796
  34   2.0000      -0.713872       -19.4254
  35   2.0000      -0.704844       -19.1798
  36   2.0000      -0.691521       -18.8173
  37   2.0000      -0.663385       -18.0516
  38   2.0000      -0.633273       -17.2322
  39   2.0000      -0.619202       -16.8494
  40   2.0000      -0.601534       -16.3686
  41   2.0000      -0.574253       -15.6262
  42   2.0000      -0.569659       -15.5012
  43   2.0000      -0.549574       -14.9547
  44   2.0000      -0.535269       -14.5654
  45   2.0000      -0.526044       -14.3144
  46   2.0000      -0.522229       -14.2106
  47   2.0000      -0.512461       -13.9448
  48   2.0000      -0.508672       -13.8417
  49   2.0000      -0.499823       -13.6009
  50   2.0000      -0.492094       -13.3906
  51   2.0000      -0.483171       -13.1478
  52   2.0000      -0.470319       -12.7980
  53   2.0000      -0.462573       -12.5873
  54   2.0000      -0.458881       -12.4868
  55   2.0000      -0.452950       -12.3254
  56   2.0000      -0.447771       -12.1845
  57   2.0000      -0.444992       -12.1088
  58   2.0000      -0.436628       -11.8813
  59   2.0000      -0.431480       -11.7412
  60   2.0000      -0.426536       -11.6066
  61   2.0000      -0.415471       -11.3056
  62   2.0000      -0.412896       -11.2355
  63   2.0000      -0.348972        -9.4960
  64   2.0000      -0.329283        -8.9602
  65   2.0000      -0.327303        -8.9064
  66   2.0000      -0.280011        -7.6195
  67   0.0000       0.024651         0.6708
  68   0.0000       0.083859         2.2819
  69   0.0000       0.102113         2.7786
  70   0.0000       0.106562         2.8997
  71   0.0000       0.145223         3.9517

MULLIKEN ATOMIC CHARGES
-----------------------
   0 S :    0.135864
   1 C :   -0.133891
   2 C :   -0.099204
   3 C :   -0.014772
   4 C :   -0.144057
   5 H :    0.015914
   6 C :    0.069880
   7 H :    0.035799
   8 H :    0.008357
   9 C :   -0.056153
  10 H :    0.008122
  11 H :    0.026615
  12 C :   -0.003374
  13 H :    0.020730
  14 H :    0.030458
  15 H :    0.036237
  16 S :    0.106991
  17 C :   -0.060499
  18 C :   -0.044510
  19 C :   -0.008225
  20 C :   -0.154814
  21 H :    0.026429
  22 C :    0.028224
  23 H :    0.022033
  24 H :    0.019913
  25 C :   -0.056251
  26 H :    0.035572
  27 H :    0.007131
  28 C :   -0.031588
  29 H :    0.036680
  30 H :    0.018290
  31 H :    0.027877
  32 H :    0.048843
  33 H :    0.041380
Sum of atomic charges:    0.0000000

LOEWDIN ATOMIC CHARGES
----------------------
   0 S :    0.446055
   1 C :   -0.215746
   2 C :   -0.063576
   3 C :   -0.072790
   4 C :   -0.225172
   5 H :    0.027256
   6 C :   -0.033343
   7 H :    0.041318
   8 H :    0.025340
   9 C :   -0.034492
  10 H :    0.013938
  11 H :    0.030650
  12 C :   -0.056903
  13 H :    0.025595
  14 H :    0.023905
  15 H :    0.025797
  16 S :    0.423272
  17 C :   -0.192209
  18 C :   -0.069237
  19 C :   -0.055179
  20 C :   -0.199126
  21 H :    0.034278
  22 C :   -0.041037
  23 H :    0.036875
  24 H :    0.030269
  25 C :   -0.037201
  26 H :    0.028626
  27 H :    0.016225
  28 C :   -0.064167
  29 H :    0.031051
  30 H :    0.019481
  31 H :    0.026107
  32 H :    0.031603
  33 H :    0.022538

  Mayer bond orders larger than 0.100000
B(  0-S ,  1-C ) :   1.1499 B(  0-S ,  4-C ) :   1.1683 B(  1-C ,  2-C ) :   1.6090
B(  1-C , 32-H ) :   0.9570 B(  2-C ,  3-C ) :   1.2536 B(  2-C ,  6-C ) :   1.0184
B(  3-C ,  4-C ) :   1.5635 B(  3-C ,  5-H ) :   0.9820 B(  4-C , 20-C ) :   1.0629
B(  6-C ,  7-H ) :   0.9366 B(  6-C ,  8-H ) :   0.9365 B(  6-C ,  9-C ) :   1.0523
B(  9-C , 10-H ) :   0.9534 B(  9-C , 11-H ) :   0.9563 B(  9-C , 12-C ) :   1.0716
B( 12-C , 13-H ) :   0.9749 B( 12-C , 14-H ) :   0.9762 B( 12-C , 15-H ) :   0.9748
B( 16-S , 17-C ) :   1.1438 B( 16-S , 20-C ) :   1.1640 B( 17-C , 18-C ) :   1.6121
B( 17-C , 33-H ) :   0.9726 B( 18-C , 19-C ) :   1.2513 B( 18-C , 21-H ) :   0.9782
B( 19-C , 20-C ) :   1.5273 B( 19-C , 22-C ) :   1.0725 B( 22-C , 23-H ) :   0.9262
B( 22-C , 24-H ) :   0.9295 B( 22-C , 25-C ) :   1.0628 B( 25-C , 26-H ) :   0.9507
B( 25-C , 27-H ) :   0.9521 B( 25-C , 28-C ) :   1.0948 B( 28-C , 29-H ) :   0.9721
B( 28-C , 30-H ) :   0.9706 B( 28-C , 31-H ) :   0.9725

Dispersion correction           -0.013174812
FINAL SINGLE POINT ENERGY     -1339.869939599489

DIPOLE MOMENT
-------------
                                X             Y             Z
Electronic contribution:     22.35705     -17.72730       7.01418
Nuclear contribution   :    -22.91997      18.05200      -6.99831
                        -----------------------------------------
Total Dipole Moment    :     -0.56292       0.32470       0.01587
                        -----------------------------------------
Magnitude (a.u.)       :      0.65004
Magnitude (Debye)      :      1.65228

Rotational constants in cm-1:     0.017220     0.008129     0.006185
Rotational constants in MHz :   516.255961   243.708223   185.432005

                             ****ORCA TERMINATED NORMALLY****
TOTAL RUN TIME: 0 days 0 hours 0 minutes 21 seconds 41 msec
