                         Program Version 4.2.1 -  RELEASE  -
|  1> ! wB97X-D3 SP def2-SVP
|  2> %pal
|  3> nprocs 24
|  4> end
|  5>
|  6> * xyz 0 1
|  7> S 	 -97.8541 	 3.86217 	 -121.034
|  8> C 	 -98.4889 	 3.04851 	 -122.409
|  9> C 	 -99.8136 	 3.36985 	 -122.58
| 10> C 	 -100.372 	 4.15972 	 -121.506
| 11> C 	 -99.4342 	 4.58138 	 -120.611
| 12> H 	 -101.388 	 4.44831 	 -121.423
| 13> C 	 -100.682 	 2.7148 	 -123.662
| 14> H 	 -100.022 	 2.44465 	 -124.459
| 15> H 	 -101.361 	 3.32024 	 -124.185
| 16> C 	 -101.495 	 1.51852 	 -123.162
| 17> H 	 -102.272 	 1.7307 	 -122.336
| 18> H 	 -102.157 	 1.22084 	 -123.945
| 19> C 	 -100.536 	 0.297119 	 -122.919
| 20> H 	 -100.113 	 -0.172208 	 -123.817
| 21> H 	 -99.7423 	 0.461744 	 -122.157
| 22> H 	 -101.1 	 -0.471335 	 -122.457
| 23> S 	 -101.335 	 5.39656 	 -118.779
| 24> C 	 -100.864 	 6.52013 	 -117.491
| 25> C 	 -99.4963 	 6.77726 	 -117.663
| 26> C 	 -98.8215 	 6.18977 	 -118.732
| 27> C 	 -99.6967 	 5.41997 	 -119.488
| 28> H 	 -98.9739 	 7.40158 	 -116.952
| 29> C 	 -97.3287 	 6.3685 	 -119.009
| 30> H 	 -96.9868 	 7.4046 	 -118.676
| 31> H 	 -97.153 	 6.35259 	 -120.097
| 32> C 	 -96.348 	 5.41115 	 -118.344
| 33> H 	 -96.3854 	 4.51021 	 -118.953
| 34> H 	 -96.8124 	 5.07792 	 -117.376
| 35> C 	 -94.9064 	 5.88221 	 -118.159
| 36> H 	 -94.6501 	 6.6549 	 -118.909
| 37> H 	 -94.2926 	 5.03574 	 -118.256
| 38> H 	 -94.7083 	 6.20346 	 -117.093
| 39> H 	 -97.8948 	 2.35314 	 -123.041
| 40> H 	 -101.487 	 6.81605 	 -116.654
| 41> *
| 42>
| 43>                          ****END OF INPUT****

CARTESIAN COORDINATES (ANGSTROEM)
---------------------------------
  S    -97.854100    3.862170  -121.034000
  C    -98.488900    3.048510  -122.409000
  C    -99.813600    3.369850  -122.580000
  C    -100.372000    4.159720  -121.506000
  C    -99.434200    4.581380  -120.611000
  H    -101.388000    4.448310  -121.423000
  C    -100.682000    2.714800  -123.662000
  H    -100.022000    2.444650  -124.459000
  H    -101.361000    3.320240  -124.185000
  C    -101.495000    1.518520  -123.162000
  H    -102.272000    1.730700  -122.336000
  H    -102.157000    1.220840  -123.945000
  C    -100.536000    0.297119  -122.919000
  H    -100.113000   -0.172208  -123.817000
  H    -99.742300    0.461744  -122.157000
  H    -101.100000   -0.471335  -122.457000
  S    -101.335000    5.396560  -118.779000
  C    -100.864000    6.520130  -117.491000
  C    -99.496300    6.777260  -117.663000
  C    -98.821500    6.189770  -118.732000
  C    -99.696700    5.419970  -119.488000
  H    -98.973900    7.401580  -116.952000
  C    -97.328700    6.368500  -119.009000
  H    -96.986800    7.404600  -118.676000
  H    -97.153000    6.352590  -120.097000
  C    -96.348000    5.411150  -118.344000
  H    -96.385400    4.510210  -118.953000
  H    -96.812400    5.077920  -117.376000
  C    -94.906400    5.882210  -118.159000
  H    -94.650100    6.654900  -118.909000
  H    -94.292600    5.035740  -118.256000
  H    -94.708300    6.203460  -117.093000
  H    -97.894800    2.353140  -123.041000
  H    -101.487000    6.816050  -116.654000

 Total Charge           Charge          ....    0
 Multiplicity           Mult            ....    1
 Number of Electrons    NEL             ....  134
 Basis Dimension        Dim             ....  322

ORBITAL ENERGIES
----------------

  NO   OCC          E(Eh)            E(eV)
   0   2.0000     -88.968522     -2420.9566
   1   2.0000     -88.967670     -2420.9334
   2   2.0000     -10.329519      -281.0805
   3   2.0000     -10.329268      -281.0737
   4   2.0000     -10.323467      -280.9158
   5   2.0000     -10.316290      -280.7205
   6   2.0000     -10.301817      -280.3267
   7   2.0000     -10.301485      -280.3177
   8   2.0000     -10.296430      -280.1801
   9   2.0000     -10.293591      -280.1028
  10   2.0000     -10.292897      -280.0840
  11   2.0000     -10.290303      -280.0134
  12   2.0000     -10.284534      -279.8564
  13   2.0000     -10.281805      -279.7821
  14   2.0000     -10.279315      -279.7144
  15   2.0000     -10.275397      -279.6078
  16   2.0000      -8.082080      -219.9246
  17   2.0000      -8.081654      -219.9130
  18   2.0000      -6.040677      -164.3752
  19   2.0000      -6.040361      -164.3666
  20   2.0000      -6.036792      -164.2695
  21   2.0000      -6.036213      -164.2537
  22   2.0000      -6.032779      -164.1603
  23   2.0000      -6.032304      -164.1473
  24   2.0000      -1.008022       -27.4297
  25   2.0000      -0.983337       -26.7580
  26   2.0000      -0.908631       -24.7251
  27   2.0000      -0.905682       -24.6449
  28   2.0000      -0.874466       -23.7954
  29   2.0000      -0.853149       -23.2154
  30   2.0000      -0.840590       -22.8736
  31   2.0000      -0.810066       -22.0430
  32   2.0000      -0.783817       -21.3287
  33   2.0000      -0.775795       -21.1104
  34   2.0000      -0.711914       -19.3722
  35   2.0000      -0.693909       -18.8822
  36   2.0000      -0.688374       -18.7316
  37   2.0000      -0.671892       -18.2831
  38   2.0000      -0.639278       -17.3956
  39   2.0000      -0.615788       -16.7564
  40   2.0000      -0.600201       -16.3323
  41   2.0000      -0.568359       -15.4658
  42   2.0000      -0.559205       -15.2167
  43   2.0000      -0.543752       -14.7962
  44   2.0000      -0.535279       -14.5657
  45   2.0000      -0.530107       -14.4249
  46   2.0000      -0.519646       -14.1403
  47   2.0000      -0.511797       -13.9267
  48   2.0000      -0.505914       -13.7666
  49   2.0000      -0.501090       -13.6353
  50   2.0000      -0.490439       -13.3455
  51   2.0000      -0.480436       -13.0733
  52   2.0000      -0.469185       -12.7672
  53   2.0000      -0.465122       -12.6566
  54   2.0000      -0.460829       -12.5398
  55   2.0000      -0.447257       -12.1705
  56   2.0000      -0.445507       -12.1229
  57   2.0000      -0.434256       -11.8167
  58   2.0000      -0.428497       -11.6600
  59   2.0000      -0.420213       -11.4346
  60   2.0000      -0.417503       -11.3608
  61   2.0000      -0.412928       -11.2363
  62   2.0000      -0.400527       -10.8989
  63   2.0000      -0.365583        -9.9480
  64   2.0000      -0.334979        -9.1153
  65   2.0000      -0.328533        -8.9398
  66   2.0000      -0.281627        -7.6635
  67   0.0000       0.017854         0.4858
  68   0.0000       0.082647         2.2489
  69   0.0000       0.106683         2.9030
  70   0.0000       0.113952         3.1008
  71   0.0000       0.134563         3.6616

MULLIKEN ATOMIC CHARGES
-----------------------
   0 S :    0.082128
   1 C :   -0.115874
   2 C :   -0.073132
   3 C :   -0.009295
   4 C :   -0.092417
   5 H :    0.005470
   6 C :    0.103855
   7 H :    0.003260
   8 H :    0.007737
   9 C :   -0.084034
  10 H :    0.047112
  11 H :    0.019582
  12 C :   -0.064138
  13 H :    0.034537
  14 H :    0.045510
  15 H :    0.015165
  16 S :    0.087948
  17 C :   -0.092292
  18 C :   -0.031625
  19 C :   -0.038147
  20 C :   -0.126449
  21 H :    0.009441
  22 C :    0.015301
  23 H :    0.027071
  24 H :    0.036430
  25 C :   -0.083482
  26 H :    0.025438
  27 H :    0.031277
  28 C :   -0.027862
  29 H :    0.043164
  30 H :    0.023064
  31 H :    0.040821
  32 H :    0.067181
  33 H :    0.067253
Sum of atomic charges:   -0.0000000

LOEWDIN ATOMIC CHARGES
----------------------
   0 S :    0.419447
   1 C :   -0.208357
   2 C :   -0.058592
   3 C :   -0.061288
   4 C :   -0.173110
   5 H :    0.022567
   6 C :   -0.030914
   7 H :    0.027109
   8 H :    0.022384
   9 C :   -0.040302
  10 H :    0.035590
  11 H :    0.020433
  12 C :   -0.073299
  13 H :    0.026711
  14 H :    0.029478
  15 H :    0.019621
  16 S :    0.389488
  17 C :   -0.184892
  18 C :   -0.064081
  19 C :   -0.064387
  20 C :   -0.173301
  21 H :    0.027343
  22 C :   -0.044171
  23 H :    0.034589
  24 H :    0.023975
  25 C :   -0.054734
  26 H :    0.006925
  27 H :    0.028393
  28 C :   -0.065543
  29 H :    0.030457
  30 H :    0.022755
  31 H :    0.035013
  32 H :    0.039589
  33 H :    0.035104

  Mayer bond orders larger than 0.100000
B(  0-S ,  1-C ) :   1.1300 B(  0-S ,  4-C ) :   1.1159 B(  1-C ,  2-C ) :   1.6207
B(  1-C , 32-H ) :   0.9613 B(  2-C ,  3-C ) :   1.2249 B(  2-C ,  6-C ) :   1.0369
B(  3-C ,  4-C ) :   1.5569 B(  3-C ,  5-H ) :   1.0014 B(  4-C , 20-C ) :   1.1235
B(  6-C ,  7-H ) :   0.9363 B(  6-C ,  8-H ) :   0.9371 B(  6-C ,  9-C ) :   1.0738
B(  9-C , 10-H ) :   0.9581 B(  9-C , 11-H ) :   0.9513 B(  9-C , 12-C ) :   1.0689
B( 12-C , 13-H ) :   0.9757 B( 12-C , 14-H ) :   0.9761 B( 12-C , 15-H ) :   0.9716
B( 16-S , 17-C ) :   1.1357 B( 16-S , 20-C ) :   1.1423 B( 17-C , 18-C ) :   1.5768
B( 17-C , 20-C ) :   0.1071 B( 17-C , 33-H ) :   0.9727 B( 18-C , 19-C ) :   1.2814
B( 18-C , 21-H ) :   0.9844 B( 19-C , 20-C ) :   1.5379 B( 19-C , 22-C ) :   1.0487
B( 22-C , 23-H ) :   0.9367 B( 22-C , 24-H ) :   0.9247 B( 22-C , 25-C ) :   1.0588
B( 25-C , 26-H ) :   0.9493 B( 25-C , 27-H ) :   0.9554 B( 25-C , 28-C ) :   1.0749
B( 28-C , 29-H ) :   0.9761 B( 28-C , 30-H ) :   0.9729 B( 28-C , 31-H ) :   0.9748

Dispersion correction           -0.014352781
FINAL SINGLE POINT ENERGY     -1339.877792028348

DIPOLE MOMENT
-------------
                                X             Y             Z
Electronic contribution:     -8.33093       8.66059       5.07083
Nuclear contribution   :      8.35681      -8.85113      -5.16755
                        -----------------------------------------
Total Dipole Moment    :      0.02588      -0.19054      -0.09673
                        -----------------------------------------
Magnitude (a.u.)       :      0.21524
Magnitude (Debye)      :      0.54711

Rotational constants in cm-1:     0.020730     0.008640     0.006498
Rotational constants in MHz :   621.484475   259.016823   194.793807

                             ****ORCA TERMINATED NORMALLY****
TOTAL RUN TIME: 0 days 0 hours 0 minutes 21 seconds 374 msec
