                         Program Version 4.2.1 -  RELEASE  -
|  1> ! wB97X-D3 SP def2-SVP
|  2> %pal
|  3> nprocs 24
|  4> end
|  5>
|  6> * xyz 0 1
|  7> S 	 18.9651 	 -16.1402 	 -121.247
|  8> C 	 18.0795 	 -14.6444 	 -121.72
|  9> C 	 16.7322 	 -14.8066 	 -121.411
| 10> C 	 16.3588 	 -16.0743 	 -120.897
| 11> C 	 17.4555 	 -16.8559 	 -120.602
| 12> H 	 15.3274 	 -16.3986 	 -120.775
| 13> C 	 15.7276 	 -13.701 	 -121.752
| 14> H 	 16.1502 	 -12.6873 	 -121.497
| 15> H 	 14.8866 	 -13.9009 	 -121.066
| 16> C 	 15.2393 	 -13.8592 	 -123.199
| 17> H 	 16.0704 	 -13.8207 	 -123.888
| 18> H 	 14.9878 	 -14.9063 	 -123.246
| 19> C 	 14.2029 	 -12.9446 	 -123.767
| 20> H 	 13.719 	 -13.4968 	 -124.502
| 21> H 	 13.5087 	 -12.6003 	 -123.098
| 22> H 	 14.6902 	 -12.1497 	 -124.236
| 23> S 	 18.3134 	 -19.2772 	 -121.48
| 24> C 	 17.737 	 -20.7933 	 -120.784
| 25> C 	 16.8178 	 -20.4887 	 -119.808
| 26> C 	 16.5964 	 -19.1231 	 -119.598
| 27> C 	 17.3838 	 -18.3104 	 -120.377
| 28> H 	 16.487 	 -21.3084 	 -119.179
| 29> C 	 15.6446 	 -18.6857 	 -118.478
| 30> H 	 14.6598 	 -19.1823 	 -118.808
| 31> H 	 15.5401 	 -17.6526 	 -118.496
| 32> C 	 16.096 	 -19.2645 	 -117.111
| 33> H 	 16.9232 	 -18.6294 	 -116.774
| 34> H 	 16.3571 	 -20.3257 	 -117.223
| 35> C 	 14.8916 	 -19.187 	 -116.199
| 36> H 	 14.2986 	 -18.3105 	 -116.169
| 37> H 	 15.2369 	 -19.2976 	 -115.161
| 38> H 	 14.1905 	 -20.0512 	 -116.242
| 39> H 	 18.5419 	 -13.7831 	 -122.092
| 40> H 	 18.0642 	 -21.7695 	 -121.108
| 41> *
| 42>
| 43>                          ****END OF INPUT****

CARTESIAN COORDINATES (ANGSTROEM)
---------------------------------
  S     18.965100  -16.140200  -121.247000
  C     18.079500  -14.644400  -121.720000
  C     16.732200  -14.806600  -121.411000
  C     16.358800  -16.074300  -120.897000
  C     17.455500  -16.855900  -120.602000
  H     15.327400  -16.398600  -120.775000
  C     15.727600  -13.701000  -121.752000
  H     16.150200  -12.687300  -121.497000
  H     14.886600  -13.900900  -121.066000
  C     15.239300  -13.859200  -123.199000
  H     16.070400  -13.820700  -123.888000
  H     14.987800  -14.906300  -123.246000
  C     14.202900  -12.944600  -123.767000
  H     13.719000  -13.496800  -124.502000
  H     13.508700  -12.600300  -123.098000
  H     14.690200  -12.149700  -124.236000
  S     18.313400  -19.277200  -121.480000
  C     17.737000  -20.793300  -120.784000
  C     16.817800  -20.488700  -119.808000
  C     16.596400  -19.123100  -119.598000
  C     17.383800  -18.310400  -120.377000
  H     16.487000  -21.308400  -119.179000
  C     15.644600  -18.685700  -118.478000
  H     14.659800  -19.182300  -118.808000
  H     15.540100  -17.652600  -118.496000
  C     16.096000  -19.264500  -117.111000
  H     16.923200  -18.629400  -116.774000
  H     16.357100  -20.325700  -117.223000
  C     14.891600  -19.187000  -116.199000
  H     14.298600  -18.310500  -116.169000
  H     15.236900  -19.297600  -115.161000
  H     14.190500  -20.051200  -116.242000
  H     18.541900  -13.783100  -122.092000
  H     18.064200  -21.769500  -121.108000

 Total Charge           Charge          ....    0
 Multiplicity           Mult            ....    1
 Number of Electrons    NEL             ....  134
 Basis Dimension        Dim             ....  322

ORBITAL ENERGIES
----------------

  NO   OCC          E(Eh)            E(eV)
   0   2.0000     -88.967843     -2420.9381
   1   2.0000     -88.958425     -2420.6818
   2   2.0000     -10.335606      -281.2461
   3   2.0000     -10.323580      -280.9189
   4   2.0000     -10.316349      -280.7221
   5   2.0000     -10.314695      -280.6771
   6   2.0000     -10.302993      -280.3587
   7   2.0000     -10.298671      -280.2411
   8   2.0000     -10.296035      -280.1693
   9   2.0000     -10.295295      -280.1492
  10   2.0000     -10.291249      -280.0391
  11   2.0000     -10.289823      -280.0003
  12   2.0000     -10.288150      -279.9548
  13   2.0000     -10.278110      -279.6816
  14   2.0000     -10.274370      -279.5798
  15   2.0000     -10.259093      -279.1641
  16   2.0000      -8.081044      -219.8964
  17   2.0000      -8.073420      -219.6889
  18   2.0000      -6.039716      -164.3490
  19   2.0000      -6.035811      -164.2428
  20   2.0000      -6.031966      -164.1381
  21   2.0000      -6.031668      -164.1300
  22   2.0000      -6.027767      -164.0239
  23   2.0000      -6.024214      -163.9272
  24   2.0000      -1.006370       -27.3847
  25   2.0000      -0.981166       -26.6989
  26   2.0000      -0.913731       -24.8639
  27   2.0000      -0.909358       -24.7449
  28   2.0000      -0.870935       -23.6994
  29   2.0000      -0.853150       -23.2154
  30   2.0000      -0.845549       -23.0086
  31   2.0000      -0.818797       -22.2806
  32   2.0000      -0.780625       -21.2419
  33   2.0000      -0.770871       -20.9765
  34   2.0000      -0.705697       -19.2030
  35   2.0000      -0.702448       -19.1146
  36   2.0000      -0.699555       -19.0359
  37   2.0000      -0.661004       -17.9868
  38   2.0000      -0.642510       -17.4836
  39   2.0000      -0.621392       -16.9089
  40   2.0000      -0.598348       -16.2819
  41   2.0000      -0.568523       -15.4703
  42   2.0000      -0.563368       -15.3300
  43   2.0000      -0.560036       -15.2393
  44   2.0000      -0.533390       -14.5143
  45   2.0000      -0.529638       -14.4122
  46   2.0000      -0.521662       -14.1951
  47   2.0000      -0.513859       -13.9828
  48   2.0000      -0.508371       -13.8335
  49   2.0000      -0.502174       -13.6649
  50   2.0000      -0.496023       -13.4975
  51   2.0000      -0.478207       -13.0127
  52   2.0000      -0.470182       -12.7943
  53   2.0000      -0.465332       -12.6623
  54   2.0000      -0.461563       -12.5598
  55   2.0000      -0.450905       -12.2697
  56   2.0000      -0.446594       -12.1524
  57   2.0000      -0.437139       -11.8952
  58   2.0000      -0.431897       -11.7525
  59   2.0000      -0.426744       -11.6123
  60   2.0000      -0.419468       -11.4143
  61   2.0000      -0.409042       -11.1306
  62   2.0000      -0.403089       -10.9686
  63   2.0000      -0.352779        -9.5996
  64   2.0000      -0.330903        -9.0043
  65   2.0000      -0.325783        -8.8650
  66   2.0000      -0.288733        -7.8568
  67   0.0000       0.024954         0.6790
  68   0.0000       0.073929         2.0117
  69   0.0000       0.104512         2.8439
  70   0.0000       0.121073         3.2946
  71   0.0000       0.139019         3.7829

MULLIKEN ATOMIC CHARGES
-----------------------
   0 S :    0.082754
   1 C :   -0.099007
   2 C :   -0.108062
   3 C :    0.026528
   4 C :   -0.116328
   5 H :    0.031541
   6 C :    0.053216
   7 H :    0.036387
   8 H :    0.019413
   9 C :   -0.101381
  10 H :    0.013834
  11 H :    0.012304
  12 C :    0.083647
  13 H :    0.013060
  14 H :    0.006330
  15 H :    0.016395
  16 S :    0.083783
  17 C :   -0.098625
  18 C :   -0.044410
  19 C :   -0.050069
  20 C :   -0.139325
  21 H :    0.021930
  22 C :    0.066829
  23 H :    0.040245
  24 H :    0.004467
  25 C :   -0.056347
  26 H :    0.047119
  27 H :    0.037419
  28 C :   -0.047580
  29 H :    0.025417
  30 H :    0.018132
  31 H :    0.031006
  32 H :    0.034602
  33 H :    0.054775
Sum of atomic charges:   -0.0000000

LOEWDIN ATOMIC CHARGES
----------------------
   0 S :    0.369078
   1 C :   -0.169180
   2 C :   -0.058491
   3 C :   -0.059542
   4 C :   -0.175265
   5 H :    0.036755
   6 C :   -0.032868
   7 H :    0.031223
   8 H :    0.027531
   9 C :   -0.043970
  10 H :    0.023062
  11 H :    0.021968
  12 C :   -0.045683
  13 H :    0.026474
  14 H :    0.014060
  15 H :    0.022792
  16 S :    0.397870
  17 C :   -0.177849
  18 C :   -0.076298
  19 C :   -0.071039
  20 C :   -0.199873
  21 H :    0.031126
  22 C :   -0.023178
  23 H :    0.040001
  24 H :    0.014241
  25 C :   -0.032178
  26 H :    0.032500
  27 H :    0.029262
  28 C :   -0.073510
  29 H :    0.018304
  30 H :    0.026124
  31 H :    0.029633
  32 H :    0.018392
  33 H :    0.028527

  Mayer bond orders larger than 0.100000
B(  0-S ,  1-C ) :   1.1167 B(  0-S ,  4-C ) :   1.1473 B(  1-C ,  2-C ) :   1.6033
B(  1-C , 32-H ) :   0.9803 B(  2-C ,  3-C ) :   1.2570 B(  2-C ,  6-C ) :   1.0224
B(  3-C ,  4-C ) :   1.5597 B(  3-C ,  5-H ) :   0.9828 B(  4-C , 20-C ) :   1.0208
B(  6-C ,  7-H ) :   0.9460 B(  6-C ,  8-H ) :   0.9362 B(  6-C ,  9-C ) :   1.0607
B(  9-C , 10-H ) :   0.9561 B(  9-C , 11-H ) :   0.9554 B(  9-C , 12-C ) :   1.0759
B( 12-C , 13-H ) :   0.9659 B( 12-C , 14-H ) :   0.9722 B( 12-C , 15-H ) :   0.9719
B( 16-S , 17-C ) :   1.1513 B( 16-S , 20-C ) :   1.1418 B( 17-C , 18-C ) :   1.5997
B( 17-C , 33-H ) :   0.9727 B( 18-C , 19-C ) :   1.2490 B( 18-C , 21-H ) :   0.9883
B( 19-C , 20-C ) :   1.6146 B( 19-C , 22-C ) :   1.0262 B( 22-C , 23-H ) :   0.9407
B( 22-C , 24-H ) :   0.9340 B( 22-C , 25-C ) :   1.0644 B( 25-C , 26-H ) :   0.9554
B( 25-C , 27-H ) :   0.9559 B( 25-C , 28-C ) :   1.0798 B( 28-C , 29-H ) :   0.9752
B( 28-C , 30-H ) :   0.9698 B( 28-C , 31-H ) :   0.9739

Dispersion correction           -0.013381411
FINAL SINGLE POINT ENERGY     -1339.863318296554

DIPOLE MOMENT
-------------
                                X             Y             Z
Electronic contribution:     22.17907      -8.55698      -7.35855
Nuclear contribution   :    -22.80907       8.67802       7.45919
                        -----------------------------------------
Total Dipole Moment    :     -0.63000       0.12104       0.10064
                        -----------------------------------------
Magnitude (a.u.)       :      0.64937
Magnitude (Debye)      :      1.65057

Rotational constants in cm-1:     0.018796     0.007543     0.006288
Rotational constants in MHz :   563.503773   226.144250   188.515375

                             ****ORCA TERMINATED NORMALLY****
TOTAL RUN TIME: 0 days 0 hours 0 minutes 19 seconds 745 msec
