                         Program Version 4.2.1 -  RELEASE  -
|  1> ! wB97X-D3 SP def2-SVP
|  2> %pal
|  3> nprocs 24
|  4> end
|  5>
|  6> * xyz 0 1
|  7> S 	 -76.0007 	 9.59722 	 -105.573
|  8> C 	 -77.7084 	 9.14667 	 -105.688
|  9> C 	 -78.2751 	 9.39493 	 -106.891
| 10> C 	 -77.327 	 9.85251 	 -107.778
| 11> C 	 -76.0808 	 10.1525 	 -107.261
| 12> H 	 -77.6035 	 10.0316 	 -108.778
| 13> C 	 -79.7221 	 9.00432 	 -107.213
| 14> H 	 -80.3285 	 9.70625 	 -106.663
| 15> H 	 -79.9548 	 8.12681 	 -106.649
| 16> C 	 -80.056 	 8.86179 	 -108.719
| 17> H 	 -81.1643 	 8.72823 	 -108.733
| 18> H 	 -79.8732 	 9.7797 	 -109.314
| 19> C 	 -79.4531 	 7.6841 	 -109.445
| 20> H 	 -79.7105 	 6.78536 	 -108.847
| 21> H 	 -79.7239 	 7.60802 	 -110.495
| 22> H 	 -78.3575 	 7.79959 	 -109.425
| 23> S 	 -73.5601 	 9.67546 	 -108.333
| 24> C 	 -72.7446 	 11.0519 	 -109.094
| 25> C 	 -73.5765 	 12.1416 	 -109.156
| 26> C 	 -74.8415 	 11.8776 	 -108.667
| 27> C 	 -74.9556 	 10.6418 	 -108.054
| 28> H 	 -73.2254 	 13.1103 	 -109.599
| 29> C 	 -75.8618 	 12.9719 	 -108.528
| 30> H 	 -75.2057 	 13.9393 	 -108.457
| 31> H 	 -76.3124 	 13.0128 	 -107.465
| 32> C 	 -76.9742 	 12.8728 	 -109.637
| 33> H 	 -77.7787 	 13.6214 	 -109.508
| 34> H 	 -77.5243 	 11.9047 	 -109.442
| 35> C 	 -76.4844 	 12.7397 	 -111.1
| 36> H 	 -76.0664 	 13.6594 	 -111.476
| 37> H 	 -77.2898 	 12.502 	 -111.755
| 38> H 	 -75.8065 	 11.9054 	 -111.158
| 39> H 	 -78.2233 	 8.57488 	 -104.929
| 40> H 	 -71.737 	 11.0939 	 -109.54
| 41> *
| 42>
| 43>                          ****END OF INPUT****

CARTESIAN COORDINATES (ANGSTROEM)
---------------------------------
  S    -76.000700    9.597220  -105.573000
  C    -77.708400    9.146670  -105.688000
  C    -78.275100    9.394930  -106.891000
  C    -77.327000    9.852510  -107.778000
  C    -76.080800   10.152500  -107.261000
  H    -77.603500   10.031600  -108.778000
  C    -79.722100    9.004320  -107.213000
  H    -80.328500    9.706250  -106.663000
  H    -79.954800    8.126810  -106.649000
  C    -80.056000    8.861790  -108.719000
  H    -81.164300    8.728230  -108.733000
  H    -79.873200    9.779700  -109.314000
  C    -79.453100    7.684100  -109.445000
  H    -79.710500    6.785360  -108.847000
  H    -79.723900    7.608020  -110.495000
  H    -78.357500    7.799590  -109.425000
  S    -73.560100    9.675460  -108.333000
  C    -72.744600   11.051900  -109.094000
  C    -73.576500   12.141600  -109.156000
  C    -74.841500   11.877600  -108.667000
  C    -74.955600   10.641800  -108.054000
  H    -73.225400   13.110300  -109.599000
  C    -75.861800   12.971900  -108.528000
  H    -75.205700   13.939300  -108.457000
  H    -76.312400   13.012800  -107.465000
  C    -76.974200   12.872800  -109.637000
  H    -77.778700   13.621400  -109.508000
  H    -77.524300   11.904700  -109.442000
  C    -76.484400   12.739700  -111.100000
  H    -76.066400   13.659400  -111.476000
  H    -77.289800   12.502000  -111.755000
  H    -75.806500   11.905400  -111.158000
  H    -78.223300    8.574880  -104.929000
  H    -71.737000   11.093900  -109.540000

 Total Charge           Charge          ....    0
 Multiplicity           Mult            ....    1
 Number of Electrons    NEL             ....  134
 Basis Dimension        Dim             ....  322

ORBITAL ENERGIES
----------------

  NO   OCC          E(Eh)            E(eV)
   0   2.0000     -88.968987     -2420.9692
   1   2.0000     -88.967620     -2420.9320
   2   2.0000     -10.328685      -281.0578
   3   2.0000     -10.320894      -280.8458
   4   2.0000     -10.317152      -280.7440
   5   2.0000     -10.308965      -280.5212
   6   2.0000     -10.301602      -280.3209
   7   2.0000     -10.296057      -280.1700
   8   2.0000     -10.295486      -280.1544
   9   2.0000     -10.293465      -280.0994
  10   2.0000     -10.292758      -280.0802
  11   2.0000     -10.291325      -280.0412
  12   2.0000     -10.290874      -280.0289
  13   2.0000     -10.285496      -279.8826
  14   2.0000     -10.281040      -279.7613
  15   2.0000     -10.271200      -279.4936
  16   2.0000      -8.082700      -219.9414
  17   2.0000      -8.082300      -219.9306
  18   2.0000      -6.041201      -164.3894
  19   2.0000      -6.040767      -164.3776
  20   2.0000      -6.037455      -164.2875
  21   2.0000      -6.036763      -164.2687
  22   2.0000      -6.033442      -164.1783
  23   2.0000      -6.033159      -164.1706
  24   2.0000      -1.009701       -27.4753
  25   2.0000      -0.989296       -26.9201
  26   2.0000      -0.912949       -24.8426
  27   2.0000      -0.899480       -24.4761
  28   2.0000      -0.871278       -23.7087
  29   2.0000      -0.848903       -23.0998
  30   2.0000      -0.847207       -23.0537
  31   2.0000      -0.818338       -22.2681
  32   2.0000      -0.785926       -21.3861
  33   2.0000      -0.768963       -20.9245
  34   2.0000      -0.712454       -19.3869
  35   2.0000      -0.694924       -18.9098
  36   2.0000      -0.686536       -18.6816
  37   2.0000      -0.658445       -17.9172
  38   2.0000      -0.639107       -17.3910
  39   2.0000      -0.629936       -17.1414
  40   2.0000      -0.585337       -15.9278
  41   2.0000      -0.569415       -15.4946
  42   2.0000      -0.558363       -15.1938
  43   2.0000      -0.547650       -14.9023
  44   2.0000      -0.538803       -14.6616
  45   2.0000      -0.533640       -14.5211
  46   2.0000      -0.515436       -14.0257
  47   2.0000      -0.511562       -13.9203
  48   2.0000      -0.494143       -13.4463
  49   2.0000      -0.493292       -13.4232
  50   2.0000      -0.486373       -13.2349
  51   2.0000      -0.480274       -13.0689
  52   2.0000      -0.475619       -12.9423
  53   2.0000      -0.465627       -12.6704
  54   2.0000      -0.460020       -12.5178
  55   2.0000      -0.450483       -12.2583
  56   2.0000      -0.445269       -12.1164
  57   2.0000      -0.440791       -11.9945
  58   2.0000      -0.432497       -11.7688
  59   2.0000      -0.429887       -11.6978
  60   2.0000      -0.422181       -11.4881
  61   2.0000      -0.411229       -11.1901
  62   2.0000      -0.401056       -10.9133
  63   2.0000      -0.343239        -9.3400
  64   2.0000      -0.334156        -9.0928
  65   2.0000      -0.328124        -8.9287
  66   2.0000      -0.295367        -8.0374
  67   0.0000       0.030155         0.8206
  68   0.0000       0.065117         1.7719
  69   0.0000       0.117542         3.1985
  70   0.0000       0.123806         3.3689
  71   0.0000       0.130190         3.5427

MULLIKEN ATOMIC CHARGES
-----------------------
   0 S :    0.119014
   1 C :   -0.143082
   2 C :   -0.080787
   3 C :    0.034901
   4 C :   -0.151697
   5 H :    0.000776
   6 C :    0.117393
   7 H :    0.032039
   8 H :    0.009375
   9 C :   -0.111715
  10 H :    0.033267
  11 H :    0.037778
  12 C :   -0.040571
  13 H :    0.034132
  14 H :    0.044124
  15 H :    0.033104
  16 S :    0.125593
  17 C :   -0.108271
  18 C :   -0.050778
  19 C :   -0.026828
  20 C :   -0.175677
  21 H :    0.036177
  22 C :    0.007917
  23 H :    0.035165
  24 H :    0.052299
  25 C :   -0.078085
  26 H :    0.031609
  27 H :    0.014485
  28 C :   -0.023671
  29 H :    0.029359
  30 H :    0.021924
  31 H :    0.040766
  32 H :    0.038127
  33 H :    0.061839
Sum of atomic charges:    0.0000000

LOEWDIN ATOMIC CHARGES
----------------------
   0 S :    0.390694
   1 C :   -0.185088
   2 C :   -0.069639
   3 C :   -0.053400
   4 C :   -0.187175
   5 H :    0.017954
   6 C :   -0.025022
   7 H :    0.037175
   8 H :    0.028890
   9 C :   -0.051071
  10 H :    0.030678
  11 H :    0.024992
  12 C :   -0.066782
  13 H :    0.029871
  14 H :    0.029165
  15 H :    0.026199
  16 S :    0.416469
  17 C :   -0.188238
  18 C :   -0.076610
  19 C :   -0.070485
  20 C :   -0.211079
  21 H :    0.041952
  22 C :   -0.044254
  23 H :    0.036009
  24 H :    0.042564
  25 C :   -0.044597
  26 H :    0.023328
  27 H :    0.027575
  28 C :   -0.061726
  29 H :    0.021477
  30 H :    0.023483
  31 H :    0.026445
  32 H :    0.023720
  33 H :    0.036527

  Mayer bond orders larger than 0.100000
B(  0-S ,  1-C ) :   1.1444 B(  0-S ,  4-C ) :   1.1375 B(  1-C ,  2-C ) :   1.6116
B(  1-C ,  4-C ) :   0.1021 B(  1-C , 32-H ) :   0.9633 B(  2-C ,  3-C ) :   1.3034
B(  2-C ,  6-C ) :   0.9875 B(  3-C ,  4-C ) :   1.5546 B(  3-C ,  5-H ) :   0.9742
B(  4-C , 20-C ) :   1.0413 B(  6-C ,  7-H ) :   0.9283 B(  6-C ,  8-H ) :   0.9365
B(  6-C ,  9-C ) :   1.0780 B(  9-C , 10-H ) :   0.9502 B(  9-C , 11-H ) :   0.9506
B(  9-C , 12-C ) :   1.0771 B( 12-C , 13-H ) :   0.9717 B( 12-C , 14-H ) :   0.9720
B( 12-C , 15-H ) :   0.9744 B( 16-S , 17-C ) :   1.1505 B( 16-S , 20-C ) :   1.1592
B( 17-C , 18-C ) :   1.6008 B( 17-C , 20-C ) :   0.1025 B( 17-C , 33-H ) :   0.9624
B( 18-C , 19-C ) :   1.2780 B( 18-C , 21-H ) :   0.9791 B( 19-C , 20-C ) :   1.5657
B( 19-C , 22-C ) :   1.0199 B( 22-C , 23-H ) :   0.9542 B( 22-C , 24-H ) :   0.9393
B( 22-C , 25-C ) :   1.0395 B( 25-C , 26-H ) :   0.9564 B( 25-C , 27-H ) :   0.9520
B( 25-C , 28-C ) :   1.0787 B( 28-C , 29-H ) :   0.9770 B( 28-C , 30-H ) :   0.9719
B( 28-C , 31-H ) :   0.9688

Dispersion correction           -0.015785722
FINAL SINGLE POINT ENERGY     -1339.875256453795

DIPOLE MOMENT
-------------
                                X             Y             Z
Electronic contribution:     20.93435      -5.05741      15.90713
Nuclear contribution   :    -21.47746       5.16157     -16.22050
                        -----------------------------------------
Total Dipole Moment    :     -0.54311       0.10416      -0.31337
                        -----------------------------------------
Magnitude (a.u.)       :      0.63563
Magnitude (Debye)      :      1.61563

Rotational constants in cm-1:     0.018016     0.010048     0.007987
Rotational constants in MHz :   540.103822   301.218269   239.433010

                             ****ORCA TERMINATED NORMALLY****
TOTAL RUN TIME: 0 days 0 hours 0 minutes 23 seconds 29 msec
