                         Program Version 4.2.1 -  RELEASE  -
|  1> ! wB97X-D3 SP def2-SVP
|  2> %pal
|  3> nprocs 24
|  4> end
|  5>
|  6> * xyz 0 1
|  7> S 	 -59.0627 	 2.29458 	 -31.9992
|  8> C 	 -59.094 	 1.73779 	 -33.6334
|  9> C 	 -57.8958 	 1.1152 	 -33.948
| 10> C 	 -56.9512 	 1.20424 	 -32.8084
| 11> C 	 -57.4366 	 1.80944 	 -31.6679
| 12> H 	 -55.9274 	 0.818415 	 -32.7843
| 13> C 	 -57.6092 	 0.369285 	 -35.2412
| 14> H 	 -58.4636 	 0.240534 	 -35.9501
| 15> H 	 -57.3686 	 -0.658729 	 -34.8829
| 16> C 	 -56.3911 	 0.829115 	 -36.0395
| 17> H 	 -56.7978 	 1.1812 	 -37.0771
| 18> H 	 -56.0474 	 1.68325 	 -35.5463
| 19> C 	 -55.2388 	 -0.197448 	 -36.3018
| 20> H 	 -54.4237 	 0.260253 	 -36.9401
| 21> H 	 -54.8366 	 -0.69489 	 -35.3418
| 22> H 	 -55.6318 	 -1.06863 	 -36.8963
| 23> S 	 -56.4565 	 4.14534 	 -30.502
| 24> C 	 -55.1777 	 4.00897 	 -29.3131
| 25> C 	 -54.9346 	 2.68679 	 -28.9789
| 26> C 	 -55.8286 	 1.75753 	 -29.6704
| 27> C 	 -56.5737 	 2.4072 	 -30.6755
| 28> H 	 -54.2104 	 2.44122 	 -28.198
| 29> C 	 -55.7447 	 0.276714 	 -29.4305
| 30> H 	 -56.4698 	 -0.268627 	 -29.981
| 31> H 	 -55.9201 	 0.0553618 	 -28.3639
| 32> C 	 -54.4027 	 -0.288172 	 -29.7674
| 33> H 	 -53.5684 	 0.217701 	 -29.3597
| 34> H 	 -54.2435 	 -0.126319 	 -30.8536
| 35> C 	 -54.3443 	 -1.8106 	 -29.5311
| 36> H 	 -54.4444 	 -2.00251 	 -28.4454
| 37> H 	 -53.378 	 -2.28639 	 -29.7554
| 38> H 	 -55.1593 	 -2.32475 	 -29.997
| 39> H 	 -59.9265 	 1.9035 	 -34.2823
| 40> H 	 -54.7231 	 4.87711 	 -28.8576
| 41> *
| 42>
| 43>                          ****END OF INPUT****

CARTESIAN COORDINATES (ANGSTROEM)
---------------------------------
  S    -59.062700    2.294580  -31.999200
  C    -59.094000    1.737790  -33.633400
  C    -57.895800    1.115200  -33.948000
  C    -56.951200    1.204240  -32.808400
  C    -57.436600    1.809440  -31.667900
  H    -55.927400    0.818415  -32.784300
  C    -57.609200    0.369285  -35.241200
  H    -58.463600    0.240534  -35.950100
  H    -57.368600   -0.658729  -34.882900
  C    -56.391100    0.829115  -36.039500
  H    -56.797800    1.181200  -37.077100
  H    -56.047400    1.683250  -35.546300
  C    -55.238800   -0.197448  -36.301800
  H    -54.423700    0.260253  -36.940100
  H    -54.836600   -0.694890  -35.341800
  H    -55.631800   -1.068630  -36.896300
  S    -56.456500    4.145340  -30.502000
  C    -55.177700    4.008970  -29.313100
  C    -54.934600    2.686790  -28.978900
  C    -55.828600    1.757530  -29.670400
  C    -56.573700    2.407200  -30.675500
  H    -54.210400    2.441220  -28.198000
  C    -55.744700    0.276714  -29.430500
  H    -56.469800   -0.268627  -29.981000
  H    -55.920100    0.055362  -28.363900
  C    -54.402700   -0.288172  -29.767400
  H    -53.568400    0.217701  -29.359700
  H    -54.243500   -0.126319  -30.853600
  C    -54.344300   -1.810600  -29.531100
  H    -54.444400   -2.002510  -28.445400
  H    -53.378000   -2.286390  -29.755400
  H    -55.159300   -2.324750  -29.997000
  H    -59.926500    1.903500  -34.282300
  H    -54.723100    4.877110  -28.857600

 Total Charge           Charge          ....    0
 Multiplicity           Mult            ....    1
 Number of Electrons    NEL             ....  134
 Basis Dimension        Dim             ....  322

ORBITAL ENERGIES
----------------

  NO   OCC          E(Eh)            E(eV)
   0   2.0000     -88.964773     -2420.8545
   1   2.0000     -88.962423     -2420.7906
   2   2.0000     -10.328981      -281.0659
   3   2.0000     -10.326518      -280.9988
   4   2.0000     -10.319310      -280.8027
   5   2.0000     -10.316401      -280.7235
   6   2.0000     -10.310883      -280.5734
   7   2.0000     -10.307229      -280.4740
   8   2.0000     -10.301219      -280.3104
   9   2.0000     -10.298841      -280.2457
  10   2.0000     -10.298354      -280.2325
  11   2.0000     -10.296838      -280.1912
  12   2.0000     -10.290622      -280.0221
  13   2.0000     -10.286479      -279.9093
  14   2.0000     -10.281884      -279.7843
  15   2.0000     -10.278858      -279.7020
  16   2.0000      -8.079523      -219.8550
  17   2.0000      -8.078177      -219.8184
  18   2.0000      -6.038063      -164.3041
  19   2.0000      -6.036663      -164.2660
  20   2.0000      -6.034031      -164.1943
  21   2.0000      -6.032371      -164.1492
  22   2.0000      -6.030233      -164.0910
  23   2.0000      -6.029040      -164.0585
  24   2.0000      -1.007682       -27.4204
  25   2.0000      -0.982706       -26.7408
  26   2.0000      -0.916824       -24.9480
  27   2.0000      -0.908946       -24.7337
  28   2.0000      -0.872659       -23.7463
  29   2.0000      -0.846774       -23.0419
  30   2.0000      -0.838585       -22.8191
  31   2.0000      -0.815154       -22.1815
  32   2.0000      -0.780116       -21.2280
  33   2.0000      -0.771139       -20.9838
  34   2.0000      -0.706138       -19.2150
  35   2.0000      -0.699686       -19.0394
  36   2.0000      -0.694317       -18.8933
  37   2.0000      -0.657726       -17.8976
  38   2.0000      -0.646948       -17.6044
  39   2.0000      -0.619192       -16.8491
  40   2.0000      -0.603277       -16.4160
  41   2.0000      -0.570580       -15.5263
  42   2.0000      -0.565656       -15.3923
  43   2.0000      -0.547141       -14.8885
  44   2.0000      -0.528411       -14.3788
  45   2.0000      -0.522359       -14.2141
  46   2.0000      -0.520087       -14.1523
  47   2.0000      -0.512870       -13.9559
  48   2.0000      -0.507001       -13.7962
  49   2.0000      -0.498732       -13.5712
  50   2.0000      -0.493694       -13.4341
  51   2.0000      -0.480088       -13.0639
  52   2.0000      -0.473937       -12.8965
  53   2.0000      -0.461876       -12.5683
  54   2.0000      -0.460625       -12.5343
  55   2.0000      -0.450531       -12.2596
  56   2.0000      -0.444139       -12.0856
  57   2.0000      -0.441779       -12.0214
  58   2.0000      -0.430547       -11.7158
  59   2.0000      -0.425434       -11.5766
  60   2.0000      -0.414265       -11.2727
  61   2.0000      -0.413111       -11.2413
  62   2.0000      -0.411270       -11.1912
  63   2.0000      -0.345869        -9.4116
  64   2.0000      -0.327477        -8.9111
  65   2.0000      -0.321613        -8.7515
  66   2.0000      -0.300104        -8.1663
  67   0.0000       0.034232         0.9315
  68   0.0000       0.065076         1.7708
  69   0.0000       0.111857         3.0438
  70   0.0000       0.119633         3.2554
  71   0.0000       0.130994         3.5645

MULLIKEN ATOMIC CHARGES
-----------------------
   0 S :    0.097391
   1 C :   -0.118833
   2 C :   -0.081470
   3 C :    0.016560
   4 C :   -0.150643
   5 H :    0.023092
   6 C :    0.041766
   7 H :    0.036088
   8 H :    0.038840
   9 C :   -0.078003
  10 H :    0.039337
  11 H :    0.028117
  12 C :   -0.108657
  13 H :    0.056031
  14 H :    0.047292
  15 H :    0.039077
  16 S :    0.114864
  17 C :   -0.098438
  18 C :   -0.029899
  19 C :   -0.048548
  20 C :   -0.145364
  21 H :    0.029891
  22 C :    0.100535
  23 H :    0.012595
  24 H :    0.027090
  25 C :   -0.088676
  26 H :    0.017975
  27 H :    0.020446
  28 C :   -0.035776
  29 H :    0.020387
  30 H :    0.037349
  31 H :    0.028160
  32 H :    0.050297
  33 H :    0.061125
Sum of atomic charges:   -0.0000000

LOEWDIN ATOMIC CHARGES
----------------------
   0 S :    0.416961
   1 C :   -0.193523
   2 C :   -0.065112
   3 C :   -0.054036
   4 C :   -0.215203
   5 H :    0.031103
   6 C :   -0.041639
   7 H :    0.036017
   8 H :    0.038486
   9 C :   -0.049049
  10 H :    0.035935
  11 H :    0.015049
  12 C :   -0.082087
  13 H :    0.035697
  14 H :    0.030481
  15 H :    0.027266
  16 S :    0.405252
  17 C :   -0.181412
  18 C :   -0.072764
  19 C :   -0.047013
  20 C :   -0.201077
  21 H :    0.033994
  22 C :   -0.030635
  23 H :    0.025651
  24 H :    0.034699
  25 C :   -0.040420
  26 H :    0.016210
  27 H :    0.023746
  28 C :   -0.065438
  29 H :    0.024976
  30 H :    0.028688
  31 H :    0.021950
  32 H :    0.027754
  33 H :    0.029492

  Mayer bond orders larger than 0.100000
B(  0-S ,  1-C ) :   1.1525 B(  0-S ,  4-C ) :   1.1458 B(  1-C ,  2-C ) :   1.5936
B(  1-C , 32-H ) :   0.9763 B(  2-C ,  3-C ) :   1.2301 B(  2-C ,  6-C ) :   1.0326
B(  3-C ,  4-C ) :   1.5770 B(  3-C ,  5-H ) :   0.9861 B(  4-C , 20-C ) :   1.0435
B(  6-C ,  7-H ) :   0.9514 B(  6-C ,  8-H ) :   0.9480 B(  6-C ,  9-C ) :   1.0278
B(  9-C , 10-H ) :   0.9584 B(  9-C , 11-H ) :   0.9694 B(  9-C , 12-C ) :   1.0715
B( 12-C , 13-H ) :   0.9732 B( 12-C , 14-H ) :   0.9735 B( 12-C , 15-H ) :   0.9755
B( 16-S , 17-C ) :   1.1539 B( 16-S , 20-C ) :   1.1340 B( 17-C , 18-C ) :   1.6171
B( 17-C , 33-H ) :   0.9692 B( 18-C , 19-C ) :   1.2203 B( 18-C , 21-H ) :   0.9869
B( 19-C , 20-C ) :   1.5932 B( 19-C , 22-C ) :   1.0657 B( 22-C , 23-H ) :   0.9271
B( 22-C , 24-H ) :   0.9268 B( 22-C , 25-C ) :   1.0620 B( 25-C , 26-H ) :   0.9548
B( 25-C , 27-H ) :   0.9493 B( 25-C , 28-C ) :   1.0831 B( 28-C , 29-H ) :   0.9728
B( 28-C , 30-H ) :   0.9739 B( 28-C , 31-H ) :   0.9738

Dispersion correction           -0.013931757
FINAL SINGLE POINT ENERGY     -1339.876530156280

DIPOLE MOMENT
-------------
                                X             Y             Z
Electronic contribution:    -15.84332      22.79453      10.40894
Nuclear contribution   :     16.23142     -23.20374     -10.61354
                        -----------------------------------------
Total Dipole Moment    :      0.38810      -0.40922      -0.20461
                        -----------------------------------------
Magnitude (a.u.)       :      0.59995
Magnitude (Debye)      :      1.52496

Rotational constants in cm-1:     0.015487     0.009175     0.007046
Rotational constants in MHz :   464.299428   275.066541   211.238476

                             ****ORCA TERMINATED NORMALLY****
TOTAL RUN TIME: 0 days 0 hours 0 minutes 21 seconds 180 msec
