                         Program Version 4.2.1 -  RELEASE  -
|  1> ! wB97X-D3 SP def2-SVP
|  2> %pal
|  3> nprocs 24
|  4> end
|  5>
|  6> * xyz 0 1
|  7> S 	 -35.2261 	 7.53551 	 15.9839
|  8> C 	 -34.6267 	 8.55192 	 14.6744
|  9> C 	 -34.6971 	 9.88517 	 14.9536
| 10> C 	 -35.037 	 10.1704 	 16.2859
| 11> C 	 -35.2343 	 8.96718 	 17.0395
| 12> H 	 -35.061 	 11.146 	 16.7742
| 13> C 	 -34.4133 	 10.9508 	 13.9213
| 14> H 	 -35.436 	 11.0338 	 13.6717
| 15> H 	 -33.8911 	 10.6759 	 13.0635
| 16> C 	 -33.7978 	 12.292 	 14.4319
| 17> H 	 -33.8434 	 13.0101 	 13.6638
| 18> H 	 -34.5079 	 12.5923 	 15.2355
| 19> C 	 -32.4299 	 12.1483 	 14.9865
| 20> H 	 -31.8825 	 13.1413 	 15.0133
| 21> H 	 -32.434 	 11.7774 	 15.9787
| 22> H 	 -31.8981 	 11.4049 	 14.4359
| 23> S 	 -33.4552 	 8.60675 	 19.064
| 24> C 	 -33.8435 	 9.15565 	 20.7087
| 25> C 	 -35.1941 	 9.49852 	 20.7774
| 26> C 	 -35.7897 	 9.58412 	 19.4787
| 27> C 	 -35.0393 	 8.95943 	 18.5011
| 28> H 	 -35.7214 	 9.84924 	 21.6332
| 29> C 	 -37.1631 	 10.1704 	 19.281
| 30> H 	 -37.8517 	 9.81466 	 20.0882
| 31> H 	 -37.5856 	 9.72363 	 18.4041
| 32> C 	 -37.0815 	 11.7641 	 19.3524
| 33> H 	 -36.2934 	 12.1175 	 18.6554
| 34> H 	 -36.7477 	 12.011 	 20.3735
| 35> C 	 -38.3397 	 12.4015 	 18.8485
| 36> H 	 -39.1449 	 12.001 	 19.5219
| 37> H 	 -38.6462 	 12.1538 	 17.8506
| 38> H 	 -38.2315 	 13.4876 	 18.8693
| 39> H 	 -34.3887 	 8.15687 	 13.7527
| 40> H 	 -33.2243 	 9.55991 	 21.4026
| 41> *
| 42>
| 43>                          ****END OF INPUT****

CARTESIAN COORDINATES (ANGSTROEM)
---------------------------------
  S    -35.226100    7.535510   15.983900
  C    -34.626700    8.551920   14.674400
  C    -34.697100    9.885170   14.953600
  C    -35.037000   10.170400   16.285900
  C    -35.234300    8.967180   17.039500
  H    -35.061000   11.146000   16.774200
  C    -34.413300   10.950800   13.921300
  H    -35.436000   11.033800   13.671700
  H    -33.891100   10.675900   13.063500
  C    -33.797800   12.292000   14.431900
  H    -33.843400   13.010100   13.663800
  H    -34.507900   12.592300   15.235500
  C    -32.429900   12.148300   14.986500
  H    -31.882500   13.141300   15.013300
  H    -32.434000   11.777400   15.978700
  H    -31.898100   11.404900   14.435900
  S    -33.455200    8.606750   19.064000
  C    -33.843500    9.155650   20.708700
  C    -35.194100    9.498520   20.777400
  C    -35.789700    9.584120   19.478700
  C    -35.039300    8.959430   18.501100
  H    -35.721400    9.849240   21.633200
  C    -37.163100   10.170400   19.281000
  H    -37.851700    9.814660   20.088200
  H    -37.585600    9.723630   18.404100
  C    -37.081500   11.764100   19.352400
  H    -36.293400   12.117500   18.655400
  H    -36.747700   12.011000   20.373500
  C    -38.339700   12.401500   18.848500
  H    -39.144900   12.001000   19.521900
  H    -38.646200   12.153800   17.850600
  H    -38.231500   13.487600   18.869300
  H    -34.388700    8.156870   13.752700
  H    -33.224300    9.559910   21.402600

 Total Charge           Charge          ....    0
 Multiplicity           Mult            ....    1
 Number of Electrons    NEL             ....  134
 Basis Dimension        Dim             ....  322

ORBITAL ENERGIES
----------------

  NO   OCC          E(Eh)            E(eV)
   0   2.0000     -88.968242     -2420.9489
   1   2.0000     -88.963726     -2420.8261
   2   2.0000     -10.334792      -281.2240
   3   2.0000     -10.321254      -280.8556
   4   2.0000     -10.312002      -280.6038
   5   2.0000     -10.304621      -280.4030
   6   2.0000     -10.299950      -280.2759
   7   2.0000     -10.299293      -280.2580
   8   2.0000     -10.297025      -280.1963
   9   2.0000     -10.294133      -280.1176
  10   2.0000     -10.292586      -280.0755
  11   2.0000     -10.291856      -280.0556
  12   2.0000     -10.284294      -279.8499
  13   2.0000     -10.284181      -279.8468
  14   2.0000     -10.279418      -279.7172
  15   2.0000     -10.271692      -279.5069
  16   2.0000      -8.082157      -219.9267
  17   2.0000      -8.078506      -219.8273
  18   2.0000      -6.040589      -164.3728
  19   2.0000      -6.037128      -164.2786
  20   2.0000      -6.036888      -164.2721
  21   2.0000      -6.032957      -164.1651
  22   2.0000      -6.032897      -164.1635
  23   2.0000      -6.029233      -164.0638
  24   2.0000      -1.004672       -27.3385
  25   2.0000      -0.983104       -26.7516
  26   2.0000      -0.916570       -24.9411
  27   2.0000      -0.906345       -24.6629
  28   2.0000      -0.869866       -23.6703
  29   2.0000      -0.852155       -23.1883
  30   2.0000      -0.850626       -23.1467
  31   2.0000      -0.816051       -22.2059
  32   2.0000      -0.784025       -21.3344
  33   2.0000      -0.768237       -20.9048
  34   2.0000      -0.709464       -19.3055
  35   2.0000      -0.699057       -19.0223
  36   2.0000      -0.696951       -18.9650
  37   2.0000      -0.666379       -18.1331
  38   2.0000      -0.641438       -17.4544
  39   2.0000      -0.622907       -16.9502
  40   2.0000      -0.593027       -16.1371
  41   2.0000      -0.571387       -15.5482
  42   2.0000      -0.562512       -15.3067
  43   2.0000      -0.557525       -15.1710
  44   2.0000      -0.542581       -14.7644
  45   2.0000      -0.530999       -14.4492
  46   2.0000      -0.522691       -14.2231
  47   2.0000      -0.518037       -14.0965
  48   2.0000      -0.504897       -13.7389
  49   2.0000      -0.493317       -13.4238
  50   2.0000      -0.492266       -13.3952
  51   2.0000      -0.486479       -13.2378
  52   2.0000      -0.481043       -13.0898
  53   2.0000      -0.467876       -12.7316
  54   2.0000      -0.459449       -12.5023
  55   2.0000      -0.448894       -12.2150
  56   2.0000      -0.442860       -12.0508
  57   2.0000      -0.437305       -11.8997
  58   2.0000      -0.432475       -11.7682
  59   2.0000      -0.420865       -11.4523
  60   2.0000      -0.420051       -11.4302
  61   2.0000      -0.412746       -11.2314
  62   2.0000      -0.409760       -11.1501
  63   2.0000      -0.341999        -9.3063
  64   2.0000      -0.327208        -8.9038
  65   2.0000      -0.319229        -8.6867
  66   2.0000      -0.292685        -7.9644
  67   0.0000       0.032446         0.8829
  68   0.0000       0.048613         1.3228
  69   0.0000       0.111808         3.0424
  70   0.0000       0.122458         3.3323
  71   0.0000       0.127477         3.4688

MULLIKEN ATOMIC CHARGES
-----------------------
   0 S :    0.112368
   1 C :   -0.112354
   2 C :   -0.064774
   3 C :    0.029756
   4 C :   -0.187281
   5 H :    0.021816
   6 C :    0.076542
   7 H :    0.035825
   8 H :    0.010490
   9 C :   -0.067968
  10 H :    0.019980
  11 H :    0.022392
  12 C :   -0.018468
  13 H :    0.044325
  14 H :    0.023752
  15 H :    0.021514
  16 S :    0.110141
  17 C :   -0.060565
  18 C :   -0.006561
  19 C :   -0.089429
  20 C :   -0.123306
  21 H :    0.010215
  22 C :    0.045719
  23 H :    0.030985
  24 H :    0.022838
  25 C :   -0.094472
  26 H :    0.028379
  27 H :    0.035083
  28 C :   -0.022389
  29 H :    0.029274
  30 H :    0.030195
  31 H :    0.038569
  32 H :    0.011636
  33 H :    0.035774
Sum of atomic charges:   -0.0000000

LOEWDIN ATOMIC CHARGES
----------------------
   0 S :    0.390093
   1 C :   -0.185541
   2 C :   -0.058687
   3 C :   -0.055319
   4 C :   -0.188853
   5 H :    0.031860
   6 C :   -0.023236
   7 H :    0.038522
   8 H :    0.018777
   9 C :   -0.038022
  10 H :    0.018423
  11 H :    0.023540
  12 C :   -0.064035
  13 H :    0.036541
  14 H :    0.022782
  15 H :    0.022712
  16 S :    0.417069
  17 C :   -0.172225
  18 C :   -0.056578
  19 C :   -0.059033
  20 C :   -0.216308
  21 H :    0.024585
  22 C :   -0.032461
  23 H :    0.033681
  24 H :    0.025229
  25 C :   -0.037831
  26 H :    0.021876
  27 H :    0.026152
  28 C :   -0.067033
  29 H :    0.029578
  30 H :    0.023784
  31 H :    0.027537
  32 H :    0.008810
  33 H :    0.013611

  Mayer bond orders larger than 0.100000
B(  0-S ,  1-C ) :   1.1266 B(  0-S ,  4-C ) :   1.1653 B(  1-C ,  2-C ) :   1.6081
B(  1-C , 32-H ) :   0.9801 B(  2-C ,  3-C ) :   1.2580 B(  2-C ,  6-C ) :   0.9802
B(  3-C ,  4-C ) :   1.5403 B(  3-C ,  5-H ) :   0.9832 B(  4-C , 20-C ) :   1.0146
B(  6-C ,  7-H ) :   0.9317 B(  6-C ,  8-H ) :   0.9498 B(  6-C ,  9-C ) :   1.0863
B(  9-C , 10-H ) :   0.9547 B(  9-C , 11-H ) :   0.9498 B(  9-C , 12-C ) :   1.0795
B( 12-C , 13-H ) :   0.9729 B( 12-C , 14-H ) :   0.9679 B( 12-C , 15-H ) :   0.9736
B( 16-S , 17-C ) :   1.1598 B( 16-S , 20-C ) :   1.1374 B( 17-C , 18-C ) :   1.5804
B( 17-C , 33-H ) :   0.9755 B( 18-C , 19-C ) :   1.2670 B( 18-C , 21-H ) :   0.9840
B( 19-C , 20-C ) :   1.5992 B( 19-C , 22-C ) :   1.0528 B( 22-C , 23-H ) :   0.9389
B( 22-C , 24-H ) :   0.9420 B( 22-C , 25-C ) :   1.0325 B( 25-C , 26-H ) :   0.9579
B( 25-C , 27-H ) :   0.9550 B( 25-C , 28-C ) :   1.0852 B( 28-C , 29-H ) :   0.9696
B( 28-C , 30-H ) :   0.9741 B( 28-C , 31-H ) :   0.9727

Dispersion correction           -0.015065216
FINAL SINGLE POINT ENERGY     -1339.838695789640

DIPOLE MOMENT
-------------
                                X             Y             Z
Electronic contribution:      6.46484     -24.56168       4.27910
Nuclear contribution   :     -6.62021      25.38331      -4.43988
                        -----------------------------------------
Total Dipole Moment    :     -0.15538       0.82163      -0.16078
                        -----------------------------------------
Magnitude (a.u.)       :      0.85151
Magnitude (Debye)      :      2.16436

Rotational constants in cm-1:     0.015828     0.009845     0.008314
Rotational constants in MHz :   474.509693   295.153878   249.240223

                             ****ORCA TERMINATED NORMALLY****
TOTAL RUN TIME: 0 days 0 hours 0 minutes 22 seconds 621 msec
