                         Program Version 4.2.1 -  RELEASE  -
|  1> ! wB97X-D3 SP def2-SVP
|  2> %pal
|  3> nprocs 24
|  4> end
|  5>
|  6> * xyz 0 1
|  7> S 	 -134.376 	 4.71741 	 7.93187
|  8> C 	 -133.293 	 5.77328 	 7.13283
|  9> C 	 -132.004 	 5.41773 	 7.37254
| 10> C 	 -131.909 	 4.40473 	 8.39147
| 11> C 	 -133.091 	 3.95553 	 8.89234
| 12> H 	 -130.936 	 4.0493 	 8.68979
| 13> C 	 -130.677 	 5.7926 	 6.61033
| 14> H 	 -129.759 	 5.9348 	 7.20651
| 15> H 	 -130.836 	 6.80479 	 6.26005
| 16> C 	 -130.188 	 4.82788 	 5.49726
| 17> H 	 -129.681 	 3.92013 	 5.92264
| 18> H 	 -131.057 	 4.5446 	 4.84377
| 19> C 	 -129.075 	 5.40246 	 4.56745
| 20> H 	 -129.535 	 5.88254 	 3.77797
| 21> H 	 -128.431 	 6.09152 	 5.12148
| 22> H 	 -128.549 	 4.53099 	 4.28518
| 23> S 	 -134.397 	 3.37447 	 11.2093
| 24> C 	 -134.432 	 1.70063 	 11.7396
| 25> C 	 -133.778 	 0.923314 	 10.8507
| 26> C 	 -133.15 	 1.61682 	 9.78899
| 27> C 	 -133.46 	 2.93333 	 9.8318
| 28> H 	 -133.728 	 -0.147747 	 11.0448
| 29> C 	 -132.367 	 0.943704 	 8.58869
| 30> H 	 -131.482 	 1.56014 	 8.24567
| 31> H 	 -133.073 	 0.920547 	 7.81117
| 32> C 	 -131.615 	 -0.377315 	 8.90728
| 33> H 	 -131.162 	 -0.760154 	 8.00186
| 34> H 	 -132.356 	 -1.14492 	 8.99577
| 35> C 	 -130.579 	 -0.424902 	 10.1077
| 36> H 	 -129.904 	 0.42513 	 10.1962
| 37> H 	 -129.882 	 -1.23424 	 9.92801
| 38> H 	 -131.169 	 -0.727184 	 10.99
| 39> H 	 -133.498 	 6.39453 	 6.29482
| 40> H 	 -134.995 	 1.31313 	 12.5862
| 41> *
| 42>
| 43>                          ****END OF INPUT****

CARTESIAN COORDINATES (ANGSTROEM)
---------------------------------
  S    -134.376000    4.717410    7.931870
  C    -133.293000    5.773280    7.132830
  C    -132.004000    5.417730    7.372540
  C    -131.909000    4.404730    8.391470
  C    -133.091000    3.955530    8.892340
  H    -130.936000    4.049300    8.689790
  C    -130.677000    5.792600    6.610330
  H    -129.759000    5.934800    7.206510
  H    -130.836000    6.804790    6.260050
  C    -130.188000    4.827880    5.497260
  H    -129.681000    3.920130    5.922640
  H    -131.057000    4.544600    4.843770
  C    -129.075000    5.402460    4.567450
  H    -129.535000    5.882540    3.777970
  H    -128.431000    6.091520    5.121480
  H    -128.549000    4.530990    4.285180
  S    -134.397000    3.374470   11.209300
  C    -134.432000    1.700630   11.739600
  C    -133.778000    0.923314   10.850700
  C    -133.150000    1.616820    9.788990
  C    -133.460000    2.933330    9.831800
  H    -133.728000   -0.147747   11.044800
  C    -132.367000    0.943704    8.588690
  H    -131.482000    1.560140    8.245670
  H    -133.073000    0.920547    7.811170
  C    -131.615000   -0.377315    8.907280
  H    -131.162000   -0.760154    8.001860
  H    -132.356000   -1.144920    8.995770
  C    -130.579000   -0.424902   10.107700
  H    -129.904000    0.425130   10.196200
  H    -129.882000   -1.234240    9.928010
  H    -131.169000   -0.727184   10.990000
  H    -133.498000    6.394530    6.294820
  H    -134.995000    1.313130   12.586200

 Total Charge           Charge          ....    0
 Multiplicity           Mult            ....    1
 Number of Electrons    NEL             ....  134
 Basis Dimension        Dim             ....  322

ORBITAL ENERGIES
----------------

  NO   OCC          E(Eh)            E(eV)
   0   2.0000     -88.963556     -2420.8214
   1   2.0000     -88.960170     -2420.7293
   2   2.0000     -10.324809      -280.9523
   3   2.0000     -10.317243      -280.7465
   4   2.0000     -10.313935      -280.6564
   5   2.0000     -10.307520      -280.4819
   6   2.0000     -10.300888      -280.3014
   7   2.0000     -10.299177      -280.2549
   8   2.0000     -10.297613      -280.2123
   9   2.0000     -10.297536      -280.2102
  10   2.0000     -10.294533      -280.1285
  11   2.0000     -10.289835      -280.0006
  12   2.0000     -10.288586      -279.9667
  13   2.0000     -10.288565      -279.9661
  14   2.0000     -10.285005      -279.8692
  15   2.0000     -10.272379      -279.5256
  16   2.0000      -8.078885      -219.8376
  17   2.0000      -8.075525      -219.7462
  18   2.0000      -6.037337      -164.2843
  19   2.0000      -6.034046      -164.1947
  20   2.0000      -6.033351      -164.1758
  21   2.0000      -6.030018      -164.0851
  22   2.0000      -6.029605      -164.0739
  23   2.0000      -6.026139      -163.9796
  24   2.0000      -1.013071       -27.5671
  25   2.0000      -0.989439       -26.9240
  26   2.0000      -0.903397       -24.5827
  27   2.0000      -0.898675       -24.4542
  28   2.0000      -0.876022       -23.8378
  29   2.0000      -0.847414       -23.0593
  30   2.0000      -0.842852       -22.9352
  31   2.0000      -0.818311       -22.2674
  32   2.0000      -0.786434       -21.4000
  33   2.0000      -0.776861       -21.1395
  34   2.0000      -0.708667       -19.2838
  35   2.0000      -0.699492       -19.0342
  36   2.0000      -0.690319       -18.7845
  37   2.0000      -0.656696       -17.8696
  38   2.0000      -0.640951       -17.4412
  39   2.0000      -0.622319       -16.9342
  40   2.0000      -0.595787       -16.2122
  41   2.0000      -0.575197       -15.6519
  42   2.0000      -0.561605       -15.2821
  43   2.0000      -0.557634       -15.1740
  44   2.0000      -0.536468       -14.5980
  45   2.0000      -0.528660       -14.3856
  46   2.0000      -0.519340       -14.1320
  47   2.0000      -0.505268       -13.7491
  48   2.0000      -0.501259       -13.6399
  49   2.0000      -0.498469       -13.5640
  50   2.0000      -0.491098       -13.3635
  51   2.0000      -0.477673       -12.9981
  52   2.0000      -0.475763       -12.9462
  53   2.0000      -0.465024       -12.6539
  54   2.0000      -0.463448       -12.6111
  55   2.0000      -0.447428       -12.1751
  56   2.0000      -0.443221       -12.0607
  57   2.0000      -0.438852       -11.9418
  58   2.0000      -0.432016       -11.7557
  59   2.0000      -0.421210       -11.4617
  60   2.0000      -0.416296       -11.3280
  61   2.0000      -0.409354       -11.1391
  62   2.0000      -0.405766       -11.0414
  63   2.0000      -0.344934        -9.3861
  64   2.0000      -0.333528        -9.0758
  65   2.0000      -0.325192        -8.8489
  66   2.0000      -0.302233        -8.2242
  67   0.0000       0.039230         1.0675
  68   0.0000       0.069468         1.8903
  69   0.0000       0.117044         3.1849
  70   0.0000       0.126683         3.4472
  71   0.0000       0.131239         3.5712

MULLIKEN ATOMIC CHARGES
-----------------------
   0 S :    0.097359
   1 C :   -0.083274
   2 C :   -0.109447
   3 C :    0.048581
   4 C :   -0.146251
   5 H :    0.000622
   6 C :    0.046359
   7 H :    0.025222
   8 H :    0.015347
   9 C :   -0.123562
  10 H :    0.034731
  11 H :    0.040008
  12 C :   -0.005918
  13 H :    0.025884
  14 H :    0.027887
  15 H :    0.028644
  16 S :    0.122398
  17 C :   -0.089700
  18 C :   -0.054036
  19 C :   -0.002861
  20 C :   -0.181908
  21 H :    0.019357
  22 C :    0.079504
  23 H :    0.036807
  24 H :    0.036946
  25 C :   -0.085160
  26 H :    0.018148
  27 H :    0.008989
  28 C :   -0.035092
  29 H :    0.040962
  30 H :    0.025183
  31 H :    0.044789
  32 H :    0.036501
  33 H :    0.056979
Sum of atomic charges:   -0.0000000

LOEWDIN ATOMIC CHARGES
----------------------
   0 S :    0.406214
   1 C :   -0.203739
   2 C :   -0.066688
   3 C :   -0.055965
   4 C :   -0.182241
   5 H :    0.026223
   6 C :   -0.039977
   7 H :    0.031157
   8 H :    0.024490
   9 C :   -0.043402
  10 H :    0.025077
  11 H :    0.026942
  12 C :   -0.051238
  13 H :    0.015334
  14 H :    0.024900
  15 H :    0.024506
  16 S :    0.416462
  17 C :   -0.182347
  18 C :   -0.075023
  19 C :   -0.053784
  20 C :   -0.216711
  21 H :    0.032098
  22 C :   -0.022120
  23 H :    0.037844
  24 H :    0.028725
  25 C :   -0.048998
  26 H :    0.023794
  27 H :    0.015535
  28 C :   -0.064538
  29 H :    0.028046
  30 H :    0.027687
  31 H :    0.031836
  32 H :    0.026454
  33 H :    0.033447

  Mayer bond orders larger than 0.100000
B(  0-S ,  1-C ) :   1.1407 B(  0-S ,  4-C ) :   1.1420 B(  1-C ,  2-C ) :   1.6393
B(  1-C , 32-H ) :   0.9637 B(  2-C ,  3-C ) :   1.2383 B(  2-C ,  6-C ) :   1.0171
B(  3-C ,  4-C ) :   1.5942 B(  3-C ,  5-H ) :   1.0058 B(  4-C , 20-C ) :   1.0166
B(  6-C ,  7-H ) :   0.9427 B(  6-C ,  8-H ) :   0.9463 B(  6-C ,  9-C ) :   1.0549
B(  9-C , 10-H ) :   0.9654 B(  9-C , 11-H ) :   0.9604 B(  9-C , 12-C ) :   1.0642
B( 12-C , 13-H ) :   0.9800 B( 12-C , 14-H ) :   0.9761 B( 12-C , 15-H ) :   0.9799
B( 16-S , 17-C ) :   1.1403 B( 16-S , 20-C ) :   1.1566 B( 17-C , 18-C ) :   1.6325
B( 17-C , 33-H ) :   0.9663 B( 18-C , 19-C ) :   1.2318 B( 18-C , 21-H ) :   0.9854
B( 19-C , 20-C ) :   1.6242 B( 19-C , 22-C ) :   1.0119 B( 22-C , 23-H ) :   0.9423
B( 22-C , 24-H ) :   0.9395 B( 22-C , 25-C ) :   1.0704 B( 25-C , 26-H ) :   0.9576
B( 25-C , 27-H ) :   0.9501 B( 25-C , 28-C ) :   1.0612 B( 28-C , 29-H ) :   0.9782
B( 28-C , 30-H ) :   0.9743 B( 28-C , 31-H ) :   0.9770

Dispersion correction           -0.014158828
FINAL SINGLE POINT ENERGY     -1339.858816884530

DIPOLE MOMENT
-------------
                                X             Y             Z
Electronic contribution:    -25.04011       9.67188      14.83059
Nuclear contribution   :     25.62627     -10.19700     -15.23322
                        -----------------------------------------
Total Dipole Moment    :      0.58616      -0.52512      -0.40263
                        -----------------------------------------
Magnitude (a.u.)       :      0.88399
Magnitude (Debye)      :      2.24693

Rotational constants in cm-1:     0.018417     0.008603     0.006345
Rotational constants in MHz :   552.139868   257.920044   190.207816

                             ****ORCA TERMINATED NORMALLY****
TOTAL RUN TIME: 0 days 0 hours 0 minutes 21 seconds 186 msec
