                         Program Version 4.2.1 -  RELEASE  -
|  1> ! wB97X-D3 SP def2-SVP
|  2> %pal
|  3> nprocs 24
|  4> end
|  5>
|  6> * xyz 0 1
|  7> S 	 -121.376 	 60.346 	 -40.1338
|  8> C 	 -122.071 	 58.8304 	 -40.6694
|  9> C 	 -121.88 	 57.8238 	 -39.7566
| 10> C 	 -121.262 	 58.2248 	 -38.5553
| 11> C 	 -120.906 	 59.5612 	 -38.63
| 12> H 	 -120.874 	 57.5572 	 -37.747
| 13> C 	 -122.453 	 56.4402 	 -39.971
| 14> H 	 -121.703 	 55.6786 	 -39.8459
| 15> H 	 -122.67 	 56.3479 	 -41.0303
| 16> C 	 -123.777 	 56.016 	 -39.2959
| 17> H 	 -123.901 	 54.9951 	 -39.6576
| 18> H 	 -123.742 	 55.9392 	 -38.2047
| 19> C 	 -125.042 	 56.7828 	 -39.5902
| 20> H 	 -125.307 	 56.6926 	 -40.6257
| 21> H 	 -125.781 	 56.3816 	 -38.9788
| 22> H 	 -124.924 	 57.8575 	 -39.3235
| 23> S 	 -118.248 	 60.3404 	 -38.0623
| 24> C 	 -118.006 	 61.0587 	 -36.485
| 25> C 	 -119.08 	 60.9068 	 -35.6011
| 26> C 	 -120.23 	 60.379 	 -36.253
| 27> C 	 -120.005 	 60.1613 	 -37.6197
| 28> H 	 -118.927 	 61.1079 	 -34.5986
| 29> C 	 -121.686 	 60.2869 	 -35.7142
| 30> H 	 -122.408 	 59.8873 	 -36.4688
| 31> H 	 -122.027 	 61.2544 	 -35.3514
| 32> C 	 -121.798 	 59.3537 	 -34.5091
| 33> H 	 -122.818 	 59.4521 	 -34.0733
| 34> H 	 -121.136 	 59.7342 	 -33.7576
| 35> C 	 -121.457 	 57.9292 	 -34.7973
| 36> H 	 -122.263 	 57.3396 	 -35.2791
| 37> H 	 -121.312 	 57.444 	 -33.9001
| 38> H 	 -120.515 	 57.8599 	 -35.2715
| 39> H 	 -122.415 	 58.6212 	 -41.6165
| 40> H 	 -117.113 	 61.3782 	 -35.9416
| 41> *
| 42>
| 43>                          ****END OF INPUT****

CARTESIAN COORDINATES (ANGSTROEM)
---------------------------------
  S    -121.376000   60.346000  -40.133800
  C    -122.071000   58.830400  -40.669400
  C    -121.880000   57.823800  -39.756600
  C    -121.262000   58.224800  -38.555300
  C    -120.906000   59.561200  -38.630000
  H    -120.874000   57.557200  -37.747000
  C    -122.453000   56.440200  -39.971000
  H    -121.703000   55.678600  -39.845900
  H    -122.670000   56.347900  -41.030300
  C    -123.777000   56.016000  -39.295900
  H    -123.901000   54.995100  -39.657600
  H    -123.742000   55.939200  -38.204700
  C    -125.042000   56.782800  -39.590200
  H    -125.307000   56.692600  -40.625700
  H    -125.781000   56.381600  -38.978800
  H    -124.924000   57.857500  -39.323500
  S    -118.248000   60.340400  -38.062300
  C    -118.006000   61.058700  -36.485000
  C    -119.080000   60.906800  -35.601100
  C    -120.230000   60.379000  -36.253000
  C    -120.005000   60.161300  -37.619700
  H    -118.927000   61.107900  -34.598600
  C    -121.686000   60.286900  -35.714200
  H    -122.408000   59.887300  -36.468800
  H    -122.027000   61.254400  -35.351400
  C    -121.798000   59.353700  -34.509100
  H    -122.818000   59.452100  -34.073300
  H    -121.136000   59.734200  -33.757600
  C    -121.457000   57.929200  -34.797300
  H    -122.263000   57.339600  -35.279100
  H    -121.312000   57.444000  -33.900100
  H    -120.515000   57.859900  -35.271500
  H    -122.415000   58.621200  -41.616500
  H    -117.113000   61.378200  -35.941600

 Total Charge           Charge          ....    0
 Multiplicity           Mult            ....    1
 Number of Electrons    NEL             ....  134
 Basis Dimension        Dim             ....  322

ORBITAL ENERGIES
----------------

  NO   OCC          E(Eh)            E(eV)
   0   2.0000     -88.970165     -2421.0013
   1   2.0000     -88.969815     -2420.9918
   2   2.0000     -10.329030      -281.0672
   3   2.0000     -10.328848      -281.0622
   4   2.0000     -10.317882      -280.7638
   5   2.0000     -10.307109      -280.4707
   6   2.0000     -10.306774      -280.4616
   7   2.0000     -10.295629      -280.1583
   8   2.0000     -10.294717      -280.1335
   9   2.0000     -10.290898      -280.0296
  10   2.0000     -10.290823      -280.0275
  11   2.0000     -10.288122      -279.9540
  12   2.0000     -10.284712      -279.8612
  13   2.0000     -10.279848      -279.7289
  14   2.0000     -10.269199      -279.4391
  15   2.0000     -10.264302      -279.3059
  16   2.0000      -8.084477      -219.9898
  17   2.0000      -8.083130      -219.9532
  18   2.0000      -6.042857      -164.4345
  19   2.0000      -6.041620      -164.4008
  20   2.0000      -6.039144      -164.3335
  21   2.0000      -6.038110      -164.3053
  22   2.0000      -6.035303      -164.2289
  23   2.0000      -6.033706      -164.1855
  24   2.0000      -1.002060       -27.2674
  25   2.0000      -0.978815       -26.6349
  26   2.0000      -0.910482       -24.7755
  27   2.0000      -0.909941       -24.7607
  28   2.0000      -0.866355       -23.5747
  29   2.0000      -0.853103       -23.2141
  30   2.0000      -0.847828       -23.0706
  31   2.0000      -0.814997       -22.1772
  32   2.0000      -0.788239       -21.4491
  33   2.0000      -0.775787       -21.1102
  34   2.0000      -0.706489       -19.2245
  35   2.0000      -0.692896       -18.8547
  36   2.0000      -0.689167       -18.7532
  37   2.0000      -0.652848       -17.7649
  38   2.0000      -0.640204       -17.4208
  39   2.0000      -0.617816       -16.8116
  40   2.0000      -0.591844       -16.1049
  41   2.0000      -0.569866       -15.5068
  42   2.0000      -0.556778       -15.1507
  43   2.0000      -0.552685       -15.0393
  44   2.0000      -0.548973       -14.9383
  45   2.0000      -0.540695       -14.7131
  46   2.0000      -0.516589       -14.0571
  47   2.0000      -0.512866       -13.9558
  48   2.0000      -0.494997       -13.4696
  49   2.0000      -0.488000       -13.2791
  50   2.0000      -0.485876       -13.2214
  51   2.0000      -0.477057       -12.9814
  52   2.0000      -0.470821       -12.8117
  53   2.0000      -0.464961       -12.6522
  54   2.0000      -0.459684       -12.5086
  55   2.0000      -0.450346       -12.2545
  56   2.0000      -0.447848       -12.1866
  57   2.0000      -0.442085       -12.0298
  58   2.0000      -0.436356       -11.8738
  59   2.0000      -0.417509       -11.3610
  60   2.0000      -0.416689       -11.3387
  61   2.0000      -0.414702       -11.2846
  62   2.0000      -0.413405       -11.2493
  63   2.0000      -0.340476        -9.2648
  64   2.0000      -0.332188        -9.0393
  65   2.0000      -0.324570        -8.8320
  66   2.0000      -0.299609        -8.1528
  67   0.0000       0.032244         0.8774
  68   0.0000       0.057577         1.5668
  69   0.0000       0.106125         2.8878
  70   0.0000       0.119041         3.2393
  71   0.0000       0.127216         3.4617

MULLIKEN ATOMIC CHARGES
-----------------------
   0 S :    0.123499
   1 C :   -0.078185
   2 C :   -0.092710
   3 C :    0.030439
   4 C :   -0.186336
   5 H :    0.042533
   6 C :    0.082555
   7 H :    0.022287
   8 H :   -0.000815
   9 C :   -0.084859
  10 H :    0.023209
  11 H :    0.023516
  12 C :   -0.019336
  13 H :    0.021811
  14 H :    0.020613
  15 H :    0.043549
  16 S :    0.115678
  17 C :   -0.072100
  18 C :   -0.044333
  19 C :   -0.009751
  20 C :   -0.174887
  21 H :   -0.005335
  22 C :    0.073730
  23 H :    0.043425
  24 H :    0.032923
  25 C :   -0.105159
  26 H :    0.029078
  27 H :    0.013326
  28 C :   -0.002369
  29 H :    0.034387
  30 H :    0.003485
  31 H :    0.030972
  32 H :    0.012661
  33 H :    0.052499
Sum of atomic charges:    0.0000000

LOEWDIN ATOMIC CHARGES
----------------------
   0 S :    0.407698
   1 C :   -0.185088
   2 C :   -0.065421
   3 C :   -0.059028
   4 C :   -0.195410
   5 H :    0.046048
   6 C :   -0.034209
   7 H :    0.029345
   8 H :    0.027432
   9 C :   -0.040015
  10 H :    0.026001
  11 H :    0.019930
  12 C :   -0.058271
  13 H :    0.019781
  14 H :    0.020103
  15 H :    0.032173
  16 S :    0.381286
  17 C :   -0.187631
  18 C :   -0.066691
  19 C :   -0.050320
  20 C :   -0.178304
  21 H :    0.018750
  22 C :   -0.026253
  23 H :    0.035523
  24 H :    0.030478
  25 C :   -0.043901
  26 H :    0.027187
  27 H :    0.016041
  28 C :   -0.062547
  29 H :    0.029825
  30 H :    0.018273
  31 H :    0.021501
  32 H :    0.011584
  33 H :    0.034129

  Mayer bond orders larger than 0.100000
B(  0-S ,  1-C ) :   1.1283 B(  0-S ,  4-C ) :   1.1582 B(  1-C ,  2-C ) :   1.6215
B(  1-C , 32-H ) :   0.9709 B(  2-C ,  3-C ) :   1.2400 B(  2-C ,  6-C ) :   1.0372
B(  3-C ,  4-C ) :   1.5671 B(  3-C ,  5-H ) :   0.9831 B(  4-C , 20-C ) :   1.0271
B(  6-C ,  7-H ) :   0.9338 B(  6-C ,  8-H ) :   0.9336 B(  6-C ,  9-C ) :   1.0669
B(  9-C , 10-H ) :   0.9501 B(  9-C , 11-H ) :   0.9592 B(  9-C , 12-C ) :   1.0889
B( 12-C , 13-H ) :   0.9742 B( 12-C , 14-H ) :   0.9704 B( 12-C , 15-H ) :   0.9724
B( 16-S , 17-C ) :   1.1436 B( 16-S , 20-C ) :   1.1247 B( 17-C , 18-C ) :   1.6440
B( 17-C , 33-H ) :   0.9578 B( 18-C , 19-C ) :   1.2166 B( 18-C , 21-H ) :   0.9970
B( 19-C , 20-C ) :   1.6070 B( 19-C , 22-C ) :   1.0278 B( 22-C , 23-H ) :   0.9385
B( 22-C , 24-H ) :   0.9427 B( 22-C , 25-C ) :   1.0707 B( 25-C , 26-H ) :   0.9533
B( 25-C , 27-H ) :   0.9569 B( 25-C , 28-C ) :   1.0931 B( 28-C , 29-H ) :   0.9712
B( 28-C , 30-H ) :   0.9609 B( 28-C , 31-H ) :   0.9635

Dispersion correction           -0.015500471
FINAL SINGLE POINT ENERGY     -1339.864558598457

DIPOLE MOMENT
-------------
                                X             Y             Z
Electronic contribution:     19.39047      17.85963     -11.45081
Nuclear contribution   :    -19.63179     -18.39088      11.85145
                        -----------------------------------------
Total Dipole Moment    :     -0.24132      -0.53126       0.40064
                        -----------------------------------------
Magnitude (a.u.)       :      0.70780
Magnitude (Debye)      :      1.79908

Rotational constants in cm-1:     0.019513     0.009445     0.007279
Rotational constants in MHz :   584.993862   283.152755   218.231125

                             ****ORCA TERMINATED NORMALLY****
TOTAL RUN TIME: 0 days 0 hours 0 minutes 22 seconds 646 msec
