                         Program Version 4.2.1 -  RELEASE  -
|  1> ! wB97X-D3 SP def2-SVP
|  2> %pal
|  3> nprocs 24
|  4> end
|  5>
|  6> * xyz 0 1
|  7> S 	 -87.6455 	 -36.4065 	 -59.9997
|  8> C 	 -87.468 	 -37.4655 	 -61.4457
|  9> C 	 -87.8409 	 -38.738 	 -61.1492
| 10> C 	 -88.3427 	 -38.9267 	 -59.8343
| 11> C 	 -88.371 	 -37.7637 	 -59.0911
| 12> H 	 -88.662 	 -39.8451 	 -59.358
| 13> C 	 -87.5565 	 -39.9306 	 -62.0744
| 14> H 	 -86.8347 	 -39.5827 	 -62.8257
| 15> H 	 -88.5693 	 -40.0334 	 -62.6184
| 16> C 	 -87.0369 	 -41.2275 	 -61.5048
| 17> H 	 -85.9708 	 -41.0655 	 -61.2927
| 18> H 	 -87.5089 	 -41.2676 	 -60.5489
| 19> C 	 -87.147 	 -42.5514 	 -62.19
| 20> H 	 -86.2885 	 -42.7104 	 -62.8595
| 21> H 	 -87.0343 	 -43.2937 	 -61.4312
| 22> H 	 -88.0379 	 -42.7026 	 -62.7889
| 23> S 	 -88.3625 	 -38.8883 	 -56.5322
| 24> C 	 -88.6735 	 -37.9051 	 -55.1096
| 25> C 	 -89.2336 	 -36.7635 	 -55.541
| 26> C 	 -89.4257 	 -36.6093 	 -56.9678
| 27> C 	 -88.8484 	 -37.6495 	 -57.6856
| 28> H 	 -89.372 	 -36.0028 	 -54.8177
| 29> C 	 -90.1257 	 -35.3406 	 -57.5146
| 30> H 	 -89.8765 	 -35.1677 	 -58.5853
| 31> H 	 -89.6184 	 -34.5017 	 -57.053
| 32> C 	 -91.6724 	 -35.3754 	 -57.3945
| 33> H 	 -91.9336 	 -34.409 	 -57.6428
| 34> H 	 -91.9497 	 -35.2859 	 -56.345
| 35> C 	 -92.4581 	 -36.4133 	 -58.1758
| 36> H 	 -92.4628 	 -37.3935 	 -57.7029
| 37> H 	 -92.0913 	 -36.5262 	 -59.1896
| 38> H 	 -93.4563 	 -36.2095 	 -58.334
| 39> H 	 -86.8359 	 -37.2589 	 -62.2777
| 40> H 	 -88.3436 	 -38.1031 	 -54.0629
| 41> *
| 42>
| 43>                          ****END OF INPUT****

CARTESIAN COORDINATES (ANGSTROEM)
---------------------------------
  S    -87.645500  -36.406500  -59.999700
  C    -87.468000  -37.465500  -61.445700
  C    -87.840900  -38.738000  -61.149200
  C    -88.342700  -38.926700  -59.834300
  C    -88.371000  -37.763700  -59.091100
  H    -88.662000  -39.845100  -59.358000
  C    -87.556500  -39.930600  -62.074400
  H    -86.834700  -39.582700  -62.825700
  H    -88.569300  -40.033400  -62.618400
  C    -87.036900  -41.227500  -61.504800
  H    -85.970800  -41.065500  -61.292700
  H    -87.508900  -41.267600  -60.548900
  C    -87.147000  -42.551400  -62.190000
  H    -86.288500  -42.710400  -62.859500
  H    -87.034300  -43.293700  -61.431200
  H    -88.037900  -42.702600  -62.788900
  S    -88.362500  -38.888300  -56.532200
  C    -88.673500  -37.905100  -55.109600
  C    -89.233600  -36.763500  -55.541000
  C    -89.425700  -36.609300  -56.967800
  C    -88.848400  -37.649500  -57.685600
  H    -89.372000  -36.002800  -54.817700
  C    -90.125700  -35.340600  -57.514600
  H    -89.876500  -35.167700  -58.585300
  H    -89.618400  -34.501700  -57.053000
  C    -91.672400  -35.375400  -57.394500
  H    -91.933600  -34.409000  -57.642800
  H    -91.949700  -35.285900  -56.345000
  C    -92.458100  -36.413300  -58.175800
  H    -92.462800  -37.393500  -57.702900
  H    -92.091300  -36.526200  -59.189600
  H    -93.456300  -36.209500  -58.334000
  H    -86.835900  -37.258900  -62.277700
  H    -88.343600  -38.103100  -54.062900

 Total Charge           Charge          ....    0
 Multiplicity           Mult            ....    1
 Number of Electrons    NEL             ....  134
 Basis Dimension        Dim             ....  322

ORBITAL ENERGIES
----------------

  NO   OCC          E(Eh)            E(eV)
   0   2.0000     -88.969370     -2420.9796
   1   2.0000     -88.959232     -2420.7038
   2   2.0000     -10.338728      -281.3311
   3   2.0000     -10.331536      -281.1354
   4   2.0000     -10.318855      -280.7903
   5   2.0000     -10.312458      -280.6163
   6   2.0000     -10.306114      -280.4436
   7   2.0000     -10.302159      -280.3360
   8   2.0000     -10.296829      -280.1910
   9   2.0000     -10.294120      -280.1172
  10   2.0000     -10.293374      -280.0969
  11   2.0000     -10.288071      -279.9526
  12   2.0000     -10.281002      -279.7603
  13   2.0000     -10.279270      -279.7131
  14   2.0000     -10.276718      -279.6437
  15   2.0000     -10.266800      -279.3738
  16   2.0000      -8.082244      -219.9291
  17   2.0000      -8.074105      -219.7076
  18   2.0000      -6.041036      -164.3850
  19   2.0000      -6.037110      -164.2781
  20   2.0000      -6.032869      -164.1627
  21   2.0000      -6.032709      -164.1584
  22   2.0000      -6.028572      -164.0458
  23   2.0000      -6.024579      -163.9371
  24   2.0000      -1.002641       -27.2832
  25   2.0000      -0.982806       -26.7435
  26   2.0000      -0.912866       -24.8404
  27   2.0000      -0.902894       -24.5690
  28   2.0000      -0.873134       -23.7592
  29   2.0000      -0.849712       -23.1218
  30   2.0000      -0.841763       -22.9055
  31   2.0000      -0.819576       -22.3018
  32   2.0000      -0.786398       -21.3990
  33   2.0000      -0.777558       -21.1584
  34   2.0000      -0.714422       -19.4404
  35   2.0000      -0.701418       -19.0866
  36   2.0000      -0.689404       -18.7596
  37   2.0000      -0.661448       -17.9989
  38   2.0000      -0.631857       -17.1937
  39   2.0000      -0.620289       -16.8789
  40   2.0000      -0.592493       -16.1226
  41   2.0000      -0.569871       -15.5070
  42   2.0000      -0.564204       -15.3528
  43   2.0000      -0.553740       -15.0680
  44   2.0000      -0.536332       -14.5943
  45   2.0000      -0.530217       -14.4279
  46   2.0000      -0.517901       -14.0928
  47   2.0000      -0.509946       -13.8763
  48   2.0000      -0.506238       -13.7754
  49   2.0000      -0.498192       -13.5565
  50   2.0000      -0.490765       -13.3544
  51   2.0000      -0.480444       -13.0735
  52   2.0000      -0.478235       -13.0134
  53   2.0000      -0.466465       -12.6932
  54   2.0000      -0.456452       -12.4207
  55   2.0000      -0.453047       -12.3280
  56   2.0000      -0.449978       -12.2445
  57   2.0000      -0.433717       -11.8020
  58   2.0000      -0.430640       -11.7183
  59   2.0000      -0.419303       -11.4098
  60   2.0000      -0.413347       -11.2477
  61   2.0000      -0.408313       -11.1108
  62   2.0000      -0.401947       -10.9375
  63   2.0000      -0.355250        -9.6669
  64   2.0000      -0.330972        -9.0062
  65   2.0000      -0.324993        -8.8435
  66   2.0000      -0.291980        -7.9452
  67   0.0000       0.024760         0.6738
  68   0.0000       0.068431         1.8621
  69   0.0000       0.106168         2.8890
  70   0.0000       0.118553         3.2260
  71   0.0000       0.133038         3.6201

MULLIKEN ATOMIC CHARGES
-----------------------
   0 S :    0.098809
   1 C :   -0.122249
   2 C :   -0.069599
   3 C :   -0.011985
   4 C :   -0.102336
   5 H :    0.024207
   6 C :    0.048442
   7 H :    0.016947
   8 H :    0.049408
   9 C :   -0.083047
  10 H :    0.031067
  11 H :    0.012679
  12 C :   -0.011220
  13 H :    0.028763
  14 H :    0.028941
  15 H :    0.032275
  16 S :    0.066946
  17 C :   -0.095614
  18 C :   -0.025341
  19 C :   -0.067770
  20 C :   -0.133676
  21 H :    0.006940
  22 C :    0.044255
  23 H :    0.019113
  24 H :    0.025854
  25 C :   -0.018205
  26 H :   -0.003439
  27 H :    0.011635
  28 C :    0.002326
  29 H :    0.037809
  30 H :    0.024506
  31 H :    0.011612
  32 H :    0.043679
  33 H :    0.078270
Sum of atomic charges:   -0.0000000

LOEWDIN ATOMIC CHARGES
----------------------
   0 S :    0.376287
   1 C :   -0.186086
   2 C :   -0.058327
   3 C :   -0.072873
   4 C :   -0.163127
   5 H :    0.030266
   6 C :   -0.035878
   7 H :    0.025267
   8 H :    0.042037
   9 C :   -0.051835
  10 H :    0.032882
  11 H :    0.018040
  12 C :   -0.058222
  13 H :    0.028027
  14 H :    0.029243
  15 H :    0.025001
  16 S :    0.383076
  17 C :   -0.184644
  18 C :   -0.073002
  19 C :   -0.059602
  20 C :   -0.191583
  21 H :    0.024566
  22 C :   -0.031539
  23 H :    0.023718
  24 H :    0.031531
  25 C :   -0.037743
  26 H :    0.016111
  27 H :    0.023970
  28 C :   -0.058115
  29 H :    0.031082
  30 H :    0.029992
  31 H :    0.018885
  32 H :    0.025760
  33 H :    0.046834

  Mayer bond orders larger than 0.100000
B(  0-S ,  1-C ) :   1.1067 B(  0-S ,  4-C ) :   1.1367 B(  1-C ,  2-C ) :   1.6545
B(  1-C , 32-H ) :   0.9637 B(  2-C ,  3-C ) :   1.2145 B(  2-C ,  6-C ) :   1.0105
B(  3-C ,  4-C ) :   1.5860 B(  3-C ,  5-H ) :   0.9901 B(  4-C , 20-C ) :   1.0518
B(  6-C ,  7-H ) :   0.9488 B(  6-C ,  8-H ) :   0.9302 B(  6-C ,  9-C ) :   1.0618
B(  9-C , 10-H ) :   0.9484 B(  9-C , 11-H ) :   0.9572 B(  9-C , 12-C ) :   1.0911
B( 12-C , 13-H ) :   0.9754 B( 12-C , 14-H ) :   0.9700 B( 12-C , 15-H ) :   0.9753
B( 16-S , 17-C ) :   1.1306 B( 16-S , 20-C ) :   1.1250 B( 17-C , 18-C ) :   1.6433
B( 17-C , 33-H ) :   0.9622 B( 18-C , 19-C ) :   1.2123 B( 18-C , 21-H ) :   0.9941
B( 19-C , 20-C ) :   1.5986 B( 19-C , 22-C ) :   1.0341 B( 22-C , 23-H ) :   0.9356
B( 22-C , 24-H ) :   0.9373 B( 22-C , 25-C ) :   1.0755 B( 25-C , 26-H ) :   0.9464
B( 25-C , 27-H ) :   0.9506 B( 25-C , 28-C ) :   1.0700 B( 28-C , 29-H ) :   0.9734
B( 28-C , 30-H ) :   0.9719 B( 28-C , 31-H ) :   0.9709

Dispersion correction           -0.014010299
FINAL SINGLE POINT ENERGY     -1339.859028606531

DIPOLE MOMENT
-------------
                                X             Y             Z
Electronic contribution:      8.27283       7.40144      10.19666
Nuclear contribution   :     -8.27992      -7.41278     -10.19735
                        -----------------------------------------
Total Dipole Moment    :     -0.00709      -0.01134      -0.00069
                        -----------------------------------------
Magnitude (a.u.)       :      0.01339
Magnitude (Debye)      :      0.03403

Rotational constants in cm-1:     0.020797     0.007651     0.006704
Rotational constants in MHz :   623.488423   229.359035   200.994747

                             ****ORCA TERMINATED NORMALLY****
TOTAL RUN TIME: 0 days 0 hours 0 minutes 21 seconds 272 msec
