                         Program Version 4.2.1 -  RELEASE  -
|  1> ! wB97X-D3 SP def2-SVP
|  2> %pal
|  3> nprocs 24
|  4> end
|  5>
|  6> * xyz 0 1
|  7> S 	 -61.3581 	 3.34521 	 -14.6465
|  8> C 	 -59.8386 	 3.79532 	 -13.7873
|  9> C 	 -58.7665 	 3.94311 	 -14.6698
| 10> C 	 -59.2778 	 3.74694 	 -15.9946
| 11> C 	 -60.5891 	 3.31101 	 -16.1334
| 12> H 	 -58.7115 	 3.76005 	 -16.9505
| 13> C 	 -57.2816 	 4.39952 	 -14.4174
| 14> H 	 -57.1201 	 5.12202 	 -15.1971
| 15> H 	 -56.511 	 3.64751 	 -14.566
| 16> C 	 -57.1103 	 5.093 	 -13.0734
| 17> H 	 -57.3278 	 4.36601 	 -12.3761
| 18> H 	 -56.1173 	 5.25536 	 -12.908
| 19> C 	 -57.9444 	 6.32905 	 -12.6396
| 20> H 	 -58.994 	 6.25572 	 -12.97
| 21> H 	 -57.9005 	 6.42733 	 -11.5554
| 22> H 	 -57.5582 	 7.27638 	 -13.0642
| 23> S 	 -62.0391 	 4.23292 	 -18.4205
| 24> C 	 -62.5072 	 3.06088 	 -19.5917
| 25> C 	 -62.1238 	 1.79181 	 -19.2796
| 26> C 	 -61.453 	 1.70948 	 -17.9893
| 27> C 	 -61.3103 	 2.94183 	 -17.3773
| 28> H 	 -62.2663 	 1.07603 	 -20.0411
| 29> C 	 -60.8093 	 0.457564 	 -17.5671
| 30> H 	 -60.2638 	 0.598843 	 -16.6603
| 31> H 	 -60.0222 	 0.199715 	 -18.2973
| 32> C 	 -61.8204 	 -0.803656 	 -17.4593
| 33> H 	 -62.4183 	 -1.01955 	 -18.3816
| 34> H 	 -62.6556 	 -0.590174 	 -16.749
| 35> C 	 -61.1818 	 -2.02116 	 -16.9011
| 36> H 	 -60.5281 	 -1.81692 	 -16.0753
| 37> H 	 -60.6899 	 -2.55007 	 -17.6691
| 38> H 	 -61.9811 	 -2.6134 	 -16.5584
| 39> H 	 -59.77 	 3.8722 	 -12.7132
| 40> H 	 -62.9524 	 3.20681 	 -20.5542
| 41> *
| 42>
| 43>                          ****END OF INPUT****

CARTESIAN COORDINATES (ANGSTROEM)
---------------------------------
  S    -61.358100    3.345210  -14.646500
  C    -59.838600    3.795320  -13.787300
  C    -58.766500    3.943110  -14.669800
  C    -59.277800    3.746940  -15.994600
  C    -60.589100    3.311010  -16.133400
  H    -58.711500    3.760050  -16.950500
  C    -57.281600    4.399520  -14.417400
  H    -57.120100    5.122020  -15.197100
  H    -56.511000    3.647510  -14.566000
  C    -57.110300    5.093000  -13.073400
  H    -57.327800    4.366010  -12.376100
  H    -56.117300    5.255360  -12.908000
  C    -57.944400    6.329050  -12.639600
  H    -58.994000    6.255720  -12.970000
  H    -57.900500    6.427330  -11.555400
  H    -57.558200    7.276380  -13.064200
  S    -62.039100    4.232920  -18.420500
  C    -62.507200    3.060880  -19.591700
  C    -62.123800    1.791810  -19.279600
  C    -61.453000    1.709480  -17.989300
  C    -61.310300    2.941830  -17.377300
  H    -62.266300    1.076030  -20.041100
  C    -60.809300    0.457564  -17.567100
  H    -60.263800    0.598843  -16.660300
  H    -60.022200    0.199715  -18.297300
  C    -61.820400   -0.803656  -17.459300
  H    -62.418300   -1.019550  -18.381600
  H    -62.655600   -0.590174  -16.749000
  C    -61.181800   -2.021160  -16.901100
  H    -60.528100   -1.816920  -16.075300
  H    -60.689900   -2.550070  -17.669100
  H    -61.981100   -2.613400  -16.558400
  H    -59.770000    3.872200  -12.713200
  H    -62.952400    3.206810  -20.554200

 Total Charge           Charge          ....    0
 Multiplicity           Mult            ....    1
 Number of Electrons    NEL             ....  134
 Basis Dimension        Dim             ....  322

ORBITAL ENERGIES
----------------

  NO   OCC          E(Eh)            E(eV)
   0   2.0000     -88.965302     -2420.8689
   1   2.0000     -88.962604     -2420.7955
   2   2.0000     -10.329424      -281.0779
   3   2.0000     -10.324026      -280.9310
   4   2.0000     -10.319690      -280.8130
   5   2.0000     -10.311685      -280.5952
   6   2.0000     -10.310129      -280.5529
   7   2.0000     -10.304526      -280.4004
   8   2.0000     -10.299697      -280.2690
   9   2.0000     -10.293134      -280.0904
  10   2.0000     -10.290319      -280.0138
  11   2.0000     -10.289918      -280.0029
  12   2.0000     -10.286759      -279.9169
  13   2.0000     -10.280586      -279.7490
  14   2.0000     -10.273705      -279.5617
  15   2.0000     -10.263350      -279.2799
  16   2.0000      -8.080583      -219.8838
  17   2.0000      -8.077009      -219.7866
  18   2.0000      -6.039034      -164.3305
  19   2.0000      -6.035637      -164.2380
  20   2.0000      -6.034912      -164.2183
  21   2.0000      -6.031621      -164.1288
  22   2.0000      -6.031454      -164.1242
  23   2.0000      -6.027597      -164.0192
  24   2.0000      -1.003806       -27.3149
  25   2.0000      -0.982063       -26.7233
  26   2.0000      -0.913565       -24.8594
  27   2.0000      -0.905604       -24.6427
  28   2.0000      -0.867014       -23.5926
  29   2.0000      -0.855590       -23.2818
  30   2.0000      -0.842736       -22.9320
  31   2.0000      -0.809346       -22.0234
  32   2.0000      -0.791875       -21.5480
  33   2.0000      -0.772734       -21.0272
  34   2.0000      -0.710344       -19.3295
  35   2.0000      -0.698748       -19.0139
  36   2.0000      -0.694838       -18.9075
  37   2.0000      -0.652808       -17.7638
  38   2.0000      -0.641135       -17.4462
  39   2.0000      -0.607654       -16.5351
  40   2.0000      -0.594264       -16.1708
  41   2.0000      -0.580089       -15.7850
  42   2.0000      -0.559019       -15.2117
  43   2.0000      -0.553119       -15.0511
  44   2.0000      -0.542693       -14.7674
  45   2.0000      -0.529676       -14.4132
  46   2.0000      -0.519760       -14.1434
  47   2.0000      -0.510878       -13.9017
  48   2.0000      -0.504190       -13.7197
  49   2.0000      -0.496524       -13.5111
  50   2.0000      -0.486591       -13.2408
  51   2.0000      -0.477021       -12.9804
  52   2.0000      -0.468980       -12.7616
  53   2.0000      -0.466713       -12.6999
  54   2.0000      -0.459999       -12.5172
  55   2.0000      -0.448396       -12.2015
  56   2.0000      -0.446168       -12.1408
  57   2.0000      -0.437086       -11.8937
  58   2.0000      -0.434900       -11.8342
  59   2.0000      -0.425544       -11.5797
  60   2.0000      -0.418146       -11.3783
  61   2.0000      -0.415394       -11.3034
  62   2.0000      -0.410408       -11.1678
  63   2.0000      -0.333932        -9.0867
  64   2.0000      -0.325480        -8.8568
  65   2.0000      -0.320646        -8.7252
  66   2.0000      -0.312920        -8.5150
  67   0.0000       0.048234         1.3125
  68   0.0000       0.057585         1.5670
  69   0.0000       0.113343         3.0842
  70   0.0000       0.119953         3.2641
  71   0.0000       0.127183         3.4608

MULLIKEN ATOMIC CHARGES
-----------------------
   0 S :    0.123775
   1 C :   -0.152265
   2 C :   -0.080752
   3 C :    0.017482
   4 C :   -0.197680
   5 H :    0.018972
   6 C :    0.105877
   7 H :    0.024334
   8 H :    0.045284
   9 C :   -0.042114
  10 H :    0.001780
  11 H :    0.000491
  12 C :   -0.064515
  13 H :    0.044880
  14 H :    0.034958
  15 H :    0.032986
  16 S :    0.108025
  17 C :   -0.072802
  18 C :   -0.033465
  19 C :    0.018241
  20 C :   -0.175886
  21 H :    0.005211
  22 C :    0.077738
  23 H :    0.017592
  24 H :    0.038770
  25 C :   -0.147550
  26 H :    0.034074
  27 H :    0.029755
  28 C :    0.025253
  29 H :    0.027315
  30 H :    0.019869
  31 H :    0.018028
  32 H :    0.050681
  33 H :    0.045660
Sum of atomic charges:    0.0000000

LOEWDIN ATOMIC CHARGES
----------------------
   0 S :    0.427506
   1 C :   -0.186255
   2 C :   -0.057736
   3 C :   -0.071606
   4 C :   -0.230034
   5 H :    0.033703
   6 C :   -0.016476
   7 H :    0.030340
   8 H :    0.037277
   9 C :   -0.040944
  10 H :    0.015113
  11 H :    0.015449
  12 C :   -0.064422
  13 H :    0.028346
  14 H :    0.028260
  15 H :    0.025552
  16 S :    0.385364
  17 C :   -0.182674
  18 C :   -0.072215
  19 C :   -0.044393
  20 C :   -0.192664
  21 H :    0.025305
  22 C :   -0.030413
  23 H :    0.026222
  24 H :    0.038342
  25 C :   -0.043871
  26 H :    0.026255
  27 H :    0.026756
  28 C :   -0.057761
  29 H :    0.025607
  30 H :    0.018631
  31 H :    0.024686
  32 H :    0.023171
  33 H :    0.029581

  Mayer bond orders larger than 0.100000
B(  0-S ,  1-C ) :   1.1499 B(  0-S ,  4-C ) :   1.1714 B(  1-C ,  2-C ) :   1.6023
B(  1-C , 32-H ) :   0.9667 B(  2-C ,  3-C ) :   1.2478 B(  2-C ,  6-C ) :   0.9847
B(  3-C ,  4-C ) :   1.5952 B(  3-C ,  5-H ) :   0.9854 B(  4-C , 20-C ) :   0.9982
B(  6-C ,  7-H ) :   0.9450 B(  6-C ,  8-H ) :   0.9393 B(  6-C ,  9-C ) :   1.0852
B(  9-C , 10-H ) :   0.9482 B(  9-C , 11-H ) :   0.9467 B(  9-C , 12-C ) :   1.0745
B( 12-C , 13-H ) :   0.9735 B( 12-C , 14-H ) :   0.9750 B( 12-C , 15-H ) :   0.9766
B( 16-S , 17-C ) :   1.1489 B( 16-S , 20-C ) :   1.1086 B( 17-C , 18-C ) :   1.6701
B( 17-C , 33-H ) :   0.9606 B( 18-C , 19-C ) :   1.1806 B( 18-C , 21-H ) :   0.9946
B( 19-C , 20-C ) :   1.6364 B( 19-C , 22-C ) :   1.0753 B( 22-C , 23-H ) :   0.9272
B( 22-C , 24-H ) :   0.9346 B( 22-C , 25-C ) :   1.0327 B( 25-C , 26-H ) :   0.9566
B( 25-C , 27-H ) :   0.9635 B( 25-C , 28-C ) :   1.0952 B( 28-C , 29-H ) :   0.9696
B( 28-C , 30-H ) :   0.9716 B( 28-C , 31-H ) :   0.9711

Dispersion correction           -0.013914448
FINAL SINGLE POINT ENERGY     -1339.862205669801

DIPOLE MOMENT
-------------
                                X             Y             Z
Electronic contribution:    -13.89935       9.67229      -8.83586
Nuclear contribution   :     14.45072     -10.05185       8.75781
                        -----------------------------------------
Total Dipole Moment    :      0.55137      -0.37956      -0.07805
                        -----------------------------------------
Magnitude (a.u.)       :      0.67392
Magnitude (Debye)      :      1.71296

Rotational constants in cm-1:     0.021015     0.007347     0.006155
Rotational constants in MHz :   630.027218   220.257407   184.531932

                             ****ORCA TERMINATED NORMALLY****
TOTAL RUN TIME: 0 days 0 hours 0 minutes 20 seconds 709 msec
