                         Program Version 4.2.1 -  RELEASE  -
|  1> ! wB97X-D3 SP def2-SVP
|  2> %pal
|  3> nprocs 24
|  4> end
|  5>
|  6> * xyz 0 1
|  7> S 	 -121.115 	 63.5166 	 -37.2481
|  8> C 	 -121.408 	 64.9969 	 -36.2609
|  9> C 	 -120.218 	 65.3928 	 -35.6431
| 10> C 	 -119.083 	 64.6646 	 -36.0793
| 11> C 	 -119.417 	 63.6387 	 -36.9549
| 12> H 	 -118.057 	 64.9145 	 -35.8461
| 13> C 	 -120.145 	 66.4708 	 -34.6635
| 14> H 	 -119.909 	 66.1828 	 -33.6647
| 15> H 	 -121.213 	 66.9249 	 -34.5985
| 16> C 	 -119.223 	 67.6195 	 -35.0893
| 17> H 	 -119.259 	 68.4817 	 -34.3965
| 18> H 	 -118.213 	 67.174 	 -35.0482
| 19> C 	 -119.334 	 68.1809 	 -36.4844
| 20> H 	 -119.556 	 67.4722 	 -37.2374
| 21> H 	 -120.261 	 68.7864 	 -36.4762
| 22> H 	 -118.468 	 68.8029 	 -36.809
| 23> S 	 -118.191 	 63.0466 	 -39.3036
| 24> C 	 -116.958 	 61.8725 	 -39.3771
| 25> C 	 -116.595 	 61.4131 	 -38.1473
| 26> C 	 -117.519 	 61.862 	 -37.1416
| 27> C 	 -118.474 	 62.7379 	 -37.6418
| 28> H 	 -115.673 	 60.8245 	 -38.0342
| 29> C 	 -117.42 	 61.3633 	 -35.736
| 30> H 	 -118.148 	 60.5355 	 -35.6046
| 31> H 	 -117.76 	 62.1772 	 -35.0825
| 32> C 	 -116.089 	 60.9046 	 -35.2601
| 33> H 	 -115.346 	 61.735 	 -35.4116
| 34> H 	 -115.76 	 59.9729 	 -35.7939
| 35> C 	 -116.102 	 60.415 	 -33.796
| 36> H 	 -116.76 	 59.5377 	 -33.6942
| 37> H 	 -116.338 	 61.0998 	 -33.0422
| 38> H 	 -115.094 	 60.1297 	 -33.5185
| 39> H 	 -122.447 	 65.3378 	 -36.1335
| 40> H 	 -116.286 	 61.6551 	 -40.2474
| 41> *
| 42>
| 43>                          ****END OF INPUT****

CARTESIAN COORDINATES (ANGSTROEM)
---------------------------------
  S    -121.115000   63.516600  -37.248100
  C    -121.408000   64.996900  -36.260900
  C    -120.218000   65.392800  -35.643100
  C    -119.083000   64.664600  -36.079300
  C    -119.417000   63.638700  -36.954900
  H    -118.057000   64.914500  -35.846100
  C    -120.145000   66.470800  -34.663500
  H    -119.909000   66.182800  -33.664700
  H    -121.213000   66.924900  -34.598500
  C    -119.223000   67.619500  -35.089300
  H    -119.259000   68.481700  -34.396500
  H    -118.213000   67.174000  -35.048200
  C    -119.334000   68.180900  -36.484400
  H    -119.556000   67.472200  -37.237400
  H    -120.261000   68.786400  -36.476200
  H    -118.468000   68.802900  -36.809000
  S    -118.191000   63.046600  -39.303600
  C    -116.958000   61.872500  -39.377100
  C    -116.595000   61.413100  -38.147300
  C    -117.519000   61.862000  -37.141600
  C    -118.474000   62.737900  -37.641800
  H    -115.673000   60.824500  -38.034200
  C    -117.420000   61.363300  -35.736000
  H    -118.148000   60.535500  -35.604600
  H    -117.760000   62.177200  -35.082500
  C    -116.089000   60.904600  -35.260100
  H    -115.346000   61.735000  -35.411600
  H    -115.760000   59.972900  -35.793900
  C    -116.102000   60.415000  -33.796000
  H    -116.760000   59.537700  -33.694200
  H    -116.338000   61.099800  -33.042200
  H    -115.094000   60.129700  -33.518500
  H    -122.447000   65.337800  -36.133500
  H    -116.286000   61.655100  -40.247400

 Total Charge           Charge          ....    0
 Multiplicity           Mult            ....    1
 Number of Electrons    NEL             ....  134
 Basis Dimension        Dim             ....  322

ORBITAL ENERGIES
----------------

  NO   OCC          E(Eh)            E(eV)
   0   2.0000     -88.965848     -2420.8838
   1   2.0000     -88.963194     -2420.8116
   2   2.0000     -10.330732      -281.1135
   3   2.0000     -10.321518      -280.8628
   4   2.0000     -10.319922      -280.8194
   5   2.0000     -10.312350      -280.6133
   6   2.0000     -10.302424      -280.3432
   7   2.0000     -10.301154      -280.3086
   8   2.0000     -10.294583      -280.1298
   9   2.0000     -10.293537      -280.1014
  10   2.0000     -10.291764      -280.0531
  11   2.0000     -10.290052      -280.0066
  12   2.0000     -10.286310      -279.9047
  13   2.0000     -10.285602      -279.8854
  14   2.0000     -10.274581      -279.5856
  15   2.0000     -10.271467      -279.5008
  16   2.0000      -8.080362      -219.8778
  17   2.0000      -8.079478      -219.8538
  18   2.0000      -6.038735      -164.3223
  19   2.0000      -6.037815      -164.2973
  20   2.0000      -6.034902      -164.2180
  21   2.0000      -6.033727      -164.1861
  22   2.0000      -6.031280      -164.1195
  23   2.0000      -6.030370      -164.0947
  24   2.0000      -1.011596       -27.5269
  25   2.0000      -0.987316       -26.8662
  26   2.0000      -0.918148       -24.9841
  27   2.0000      -0.915262       -24.9055
  28   2.0000      -0.867204       -23.5978
  29   2.0000      -0.851412       -23.1681
  30   2.0000      -0.845917       -23.0186
  31   2.0000      -0.816367       -22.2145
  32   2.0000      -0.785633       -21.3782
  33   2.0000      -0.772840       -21.0300
  34   2.0000      -0.706078       -19.2134
  35   2.0000      -0.696052       -18.9405
  36   2.0000      -0.688452       -18.7337
  37   2.0000      -0.647382       -17.6162
  38   2.0000      -0.639590       -17.4041
  39   2.0000      -0.625544       -17.0219
  40   2.0000      -0.598212       -16.2782
  41   2.0000      -0.575972       -15.6730
  42   2.0000      -0.568305       -15.4644
  43   2.0000      -0.554247       -15.0818
  44   2.0000      -0.545640       -14.8476
  45   2.0000      -0.523216       -14.2374
  46   2.0000      -0.520710       -14.1692
  47   2.0000      -0.511702       -13.9241
  48   2.0000      -0.500603       -13.6221
  49   2.0000      -0.497609       -13.5406
  50   2.0000      -0.487598       -13.2682
  51   2.0000      -0.476022       -12.9532
  52   2.0000      -0.469513       -12.7761
  53   2.0000      -0.465804       -12.6752
  54   2.0000      -0.454668       -12.3721
  55   2.0000      -0.451710       -12.2917
  56   2.0000      -0.449365       -12.2278
  57   2.0000      -0.442906       -12.0521
  58   2.0000      -0.430162       -11.7053
  59   2.0000      -0.424171       -11.5423
  60   2.0000      -0.421153       -11.4602
  61   2.0000      -0.416913       -11.3448
  62   2.0000      -0.399040       -10.8584
  63   2.0000      -0.338791        -9.2190
  64   2.0000      -0.330102        -8.9825
  65   2.0000      -0.324773        -8.8375
  66   2.0000      -0.302762        -8.2386
  67   0.0000       0.038122         1.0373
  68   0.0000       0.063696         1.7332
  69   0.0000       0.111592         3.0366
  70   0.0000       0.123207         3.3526
  71   0.0000       0.130054         3.5389

MULLIKEN ATOMIC CHARGES
-----------------------
   0 S :    0.106361
   1 C :   -0.145569
   2 C :   -0.086234
   3 C :    0.056094
   4 C :   -0.187914
   5 H :    0.017499
   6 C :    0.090922
   7 H :    0.037306
   8 H :    0.019354
   9 C :   -0.115090
  10 H :    0.038267
  11 H :    0.022800
  12 C :   -0.050554
  13 H :    0.033247
  14 H :    0.018762
  15 H :    0.048186
  16 S :    0.127598
  17 C :   -0.088649
  18 C :   -0.072294
  19 C :   -0.035334
  20 C :   -0.148533
  21 H :    0.032932
  22 C :    0.089336
  23 H :    0.039677
  24 H :    0.017877
  25 C :   -0.132399
  26 H :    0.038499
  27 H :    0.039418
  28 C :   -0.013140
  29 H :    0.031557
  30 H :    0.016688
  31 H :    0.022148
  32 H :    0.064980
  33 H :    0.066199
Sum of atomic charges:   -0.0000000

LOEWDIN ATOMIC CHARGES
----------------------
   0 S :    0.398284
   1 C :   -0.186111
   2 C :   -0.064030
   3 C :   -0.061434
   4 C :   -0.196818
   5 H :    0.033148
   6 C :   -0.032374
   7 H :    0.031103
   8 H :    0.035103
   9 C :   -0.047495
  10 H :    0.027936
  11 H :    0.019001
  12 C :   -0.070258
  13 H :    0.020145
  14 H :    0.025808
  15 H :    0.034428
  16 S :    0.444801
  17 C :   -0.207332
  18 C :   -0.081903
  19 C :   -0.053624
  20 C :   -0.225573
  21 H :    0.037500
  22 C :   -0.042381
  23 H :    0.039363
  24 H :    0.031481
  25 C :   -0.047527
  26 H :    0.028212
  27 H :    0.029312
  28 C :   -0.059965
  29 H :    0.028411
  30 H :    0.014365
  31 H :    0.026462
  32 H :    0.031632
  33 H :    0.040330

  Mayer bond orders larger than 0.100000
B(  0-S ,  1-C ) :   1.1292 B(  0-S ,  4-C ) :   1.1820 B(  1-C ,  2-C ) :   1.5870
B(  1-C ,  4-C ) :   0.1009 B(  1-C , 32-H ) :   0.9695 B(  2-C ,  3-C ) :   1.2306
B(  2-C ,  6-C ) :   1.0358 B(  3-C ,  4-C ) :   1.5730 B(  3-C ,  5-H ) :   0.9956
B(  4-C , 20-C ) :   0.9917 B(  6-C ,  7-H ) :   0.9373 B(  6-C ,  8-H ) :   0.9395
B(  6-C ,  9-C ) :   1.0595 B(  9-C , 10-H ) :   0.9587 B(  9-C , 11-H ) :   0.9549
B(  9-C , 12-C ) :   1.0781 B( 12-C , 13-H ) :   0.9696 B( 12-C , 14-H ) :   0.9731
B( 12-C , 15-H ) :   0.9739 B( 16-S , 17-C ) :   1.1766 B( 16-S , 20-C ) :   1.1625
B( 17-C , 18-C ) :   1.6056 B( 17-C , 33-H ) :   0.9537 B( 18-C , 19-C ) :   1.2502
B( 18-C , 21-H ) :   0.9870 B( 19-C , 20-C ) :   1.5879 B( 19-C , 22-C ) :   1.0429
B( 22-C , 23-H ) :   0.9220 B( 22-C , 24-H ) :   0.9251 B( 22-C , 25-C ) :   1.0937
B( 25-C , 26-H ) :   0.9554 B( 25-C , 27-H ) :   0.9389 B( 25-C , 28-C ) :   1.0871
B( 28-C , 29-H ) :   0.9728 B( 28-C , 30-H ) :   0.9745 B( 28-C , 31-H ) :   0.9716

Dispersion correction           -0.014188570
FINAL SINGLE POINT ENERGY     -1339.883531913912

DIPOLE MOMENT
-------------
                                X             Y             Z
Electronic contribution:    -11.14300      -6.41124     -19.30276
Nuclear contribution   :     11.57283       6.52106      19.79688
                        -----------------------------------------
Total Dipole Moment    :      0.42984       0.10982       0.49412
                        -----------------------------------------
Magnitude (a.u.)       :      0.66406
Magnitude (Debye)      :      1.68790

Rotational constants in cm-1:     0.017644     0.008532     0.007198
Rotational constants in MHz :   528.963656   255.782701   215.787341

                             ****ORCA TERMINATED NORMALLY****
TOTAL RUN TIME: 0 days 0 hours 0 minutes 21 seconds 486 msec
