                         Program Version 4.2.1 -  RELEASE  -
|  1> ! wB97X-D3 SP def2-SVP
|  2> %pal
|  3> nprocs 24
|  4> end
|  5>
|  6> * xyz 0 1
|  7> S 	 -85.1495 	 -38.3023 	 -74.4492
|  8> C 	 -86.2318 	 -38.664 	 -75.7354
|  9> C 	 -86.0089 	 -39.9836 	 -76.1545
| 10> C 	 -84.9777 	 -40.6943 	 -75.4187
| 11> C 	 -84.5694 	 -39.919 	 -74.3436
| 12> H 	 -84.6883 	 -41.7805 	 -75.7295
| 13> C 	 -86.6792 	 -40.5717 	 -77.3854
| 14> H 	 -87.6666 	 -40.1018 	 -77.4171
| 15> H 	 -86.9852 	 -41.6086 	 -77.0725
| 16> C 	 -85.9578 	 -40.5216 	 -78.638
| 17> H 	 -86.6485 	 -40.8958 	 -79.4259
| 18> H 	 -85.6935 	 -39.5176 	 -78.7946
| 19> C 	 -84.7116 	 -41.3813 	 -78.6904
| 20> H 	 -83.9025 	 -40.8053 	 -78.275
| 21> H 	 -84.9102 	 -42.2743 	 -78.1445
| 22> H 	 -84.3867 	 -41.6757 	 -79.6467
| 23> S 	 -81.9821 	 -39.6546 	 -73.1381
| 24> C 	 -81.3909 	 -40.7946 	 -72.0993
| 25> C 	 -82.3157 	 -41.773 	 -71.8681
| 26> C 	 -83.5183 	 -41.6029 	 -72.6121
| 27> C 	 -83.6145 	 -40.347 	 -73.2495
| 28> H 	 -82.1064 	 -42.5956 	 -71.203
| 29> C 	 -84.6026 	 -42.6111 	 -72.5081
| 30> H 	 -85.4612 	 -42.3347 	 -73.0787
| 31> H 	 -84.9435 	 -42.5481 	 -71.4453
| 32> C 	 -84.2438 	 -44.0976 	 -72.7058
| 33> H 	 -85.1489 	 -44.6799 	 -72.4657
| 34> H 	 -83.4421 	 -44.4612 	 -72.0603
| 35> C 	 -83.8711 	 -44.478 	 -74.1504
| 36> H 	 -84.5349 	 -43.9171 	 -74.7567
| 37> H 	 -84.1144 	 -45.5234 	 -74.5107
| 38> H 	 -82.7286 	 -44.3768 	 -74.3147
| 39> H 	 -86.9379 	 -37.952 	 -76.0919
| 40> H 	 -80.4026 	 -40.7092 	 -71.7982
| 41> *
| 42>
| 43>                          ****END OF INPUT****

CARTESIAN COORDINATES (ANGSTROEM)
---------------------------------
  S    -85.149500  -38.302300  -74.449200
  C    -86.231800  -38.664000  -75.735400
  C    -86.008900  -39.983600  -76.154500
  C    -84.977700  -40.694300  -75.418700
  C    -84.569400  -39.919000  -74.343600
  H    -84.688300  -41.780500  -75.729500
  C    -86.679200  -40.571700  -77.385400
  H    -87.666600  -40.101800  -77.417100
  H    -86.985200  -41.608600  -77.072500
  C    -85.957800  -40.521600  -78.638000
  H    -86.648500  -40.895800  -79.425900
  H    -85.693500  -39.517600  -78.794600
  C    -84.711600  -41.381300  -78.690400
  H    -83.902500  -40.805300  -78.275000
  H    -84.910200  -42.274300  -78.144500
  H    -84.386700  -41.675700  -79.646700
  S    -81.982100  -39.654600  -73.138100
  C    -81.390900  -40.794600  -72.099300
  C    -82.315700  -41.773000  -71.868100
  C    -83.518300  -41.602900  -72.612100
  C    -83.614500  -40.347000  -73.249500
  H    -82.106400  -42.595600  -71.203000
  C    -84.602600  -42.611100  -72.508100
  H    -85.461200  -42.334700  -73.078700
  H    -84.943500  -42.548100  -71.445300
  C    -84.243800  -44.097600  -72.705800
  H    -85.148900  -44.679900  -72.465700
  H    -83.442100  -44.461200  -72.060300
  C    -83.871100  -44.478000  -74.150400
  H    -84.534900  -43.917100  -74.756700
  H    -84.114400  -45.523400  -74.510700
  H    -82.728600  -44.376800  -74.314700
  H    -86.937900  -37.952000  -76.091900
  H    -80.402600  -40.709200  -71.798200

 Total Charge           Charge          ....    0
 Multiplicity           Mult            ....    1
 Number of Electrons    NEL             ....  134
 Basis Dimension        Dim             ....  322

ORBITAL ENERGIES
----------------

  NO   OCC          E(Eh)            E(eV)
   0   2.0000     -88.965219     -2420.8667
   1   2.0000     -88.959346     -2420.7069
   2   2.0000     -10.334251      -281.2093
   3   2.0000     -10.328255      -281.0461
   4   2.0000     -10.312285      -280.6115
   5   2.0000     -10.308124      -280.4983
   6   2.0000     -10.304343      -280.3954
   7   2.0000     -10.303946      -280.3846
   8   2.0000     -10.301353      -280.3141
   9   2.0000     -10.290217      -280.0110
  10   2.0000     -10.288964      -279.9769
  11   2.0000     -10.288592      -279.9668
  12   2.0000     -10.285981      -279.8958
  13   2.0000     -10.284261      -279.8490
  14   2.0000     -10.276005      -279.6243
  15   2.0000     -10.265723      -279.3445
  16   2.0000      -8.081021      -219.8958
  17   2.0000      -8.076046      -219.7604
  18   2.0000      -6.039350      -164.3391
  19   2.0000      -6.035343      -164.2300
  20   2.0000      -6.034373      -164.2036
  21   2.0000      -6.031946      -164.1376
  22   2.0000      -6.030091      -164.0871
  23   2.0000      -6.027039      -164.0041
  24   2.0000      -1.009692       -27.4751
  25   2.0000      -0.992492       -27.0071
  26   2.0000      -0.923552       -25.1311
  27   2.0000      -0.912731       -24.8367
  28   2.0000      -0.866732       -23.5850
  29   2.0000      -0.850127       -23.1331
  30   2.0000      -0.844628       -22.9835
  31   2.0000      -0.815147       -22.1813
  32   2.0000      -0.785660       -21.3789
  33   2.0000      -0.775414       -21.1001
  34   2.0000      -0.703774       -19.1507
  35   2.0000      -0.699107       -19.0237
  36   2.0000      -0.694396       -18.8955
  37   2.0000      -0.650978       -17.7140
  38   2.0000      -0.638957       -17.3869
  39   2.0000      -0.620337       -16.8802
  40   2.0000      -0.607395       -16.5280
  41   2.0000      -0.580326       -15.7915
  42   2.0000      -0.554222       -15.0811
  43   2.0000      -0.548753       -14.9323
  44   2.0000      -0.547048       -14.8859
  45   2.0000      -0.542030       -14.7494
  46   2.0000      -0.523018       -14.2320
  47   2.0000      -0.513347       -13.9689
  48   2.0000      -0.504124       -13.7179
  49   2.0000      -0.496580       -13.5126
  50   2.0000      -0.483728       -13.1629
  51   2.0000      -0.482175       -13.1206
  52   2.0000      -0.475754       -12.9459
  53   2.0000      -0.470281       -12.7970
  54   2.0000      -0.463586       -12.6148
  55   2.0000      -0.446123       -12.1396
  56   2.0000      -0.443038       -12.0557
  57   2.0000      -0.439996       -11.9729
  58   2.0000      -0.432302       -11.7635
  59   2.0000      -0.424922       -11.5627
  60   2.0000      -0.413531       -11.2527
  61   2.0000      -0.406223       -11.0539
  62   2.0000      -0.404554       -11.0085
  63   2.0000      -0.345466        -9.4006
  64   2.0000      -0.328630        -8.9425
  65   2.0000      -0.323953        -8.8152
  66   2.0000      -0.295897        -8.0518
  67   0.0000       0.035687         0.9711
  68   0.0000       0.068232         1.8567
  69   0.0000       0.116301         3.1647
  70   0.0000       0.117783         3.2050
  71   0.0000       0.122652         3.3375

MULLIKEN ATOMIC CHARGES
-----------------------
   0 S :    0.116884
   1 C :   -0.107960
   2 C :   -0.152351
   3 C :    0.011086
   4 C :   -0.163663
   5 H :    0.058101
   6 C :    0.032774
   7 H :    0.015457
   8 H :    0.017551
   9 C :   -0.003727
  10 H :    0.032704
  11 H :    0.011433
  12 C :   -0.016503
  13 H :    0.037658
  14 H :    0.011404
  15 H :    0.017422
  16 S :    0.096498
  17 C :   -0.057401
  18 C :   -0.030104
  19 C :   -0.053740
  20 C :   -0.098684
  21 H :    0.014462
  22 C :    0.050036
  23 H :    0.019002
  24 H :    0.045926
  25 C :   -0.082166
  26 H :    0.033168
  27 H :    0.031993
  28 C :   -0.075899
  29 H :    0.011794
  30 H :    0.033754
  31 H :    0.058779
  32 H :    0.045362
  33 H :    0.038951
Sum of atomic charges:    0.0000000

LOEWDIN ATOMIC CHARGES
----------------------
   0 S :    0.434023
   1 C :   -0.208538
   2 C :   -0.064504
   3 C :   -0.076033
   4 C :   -0.203020
   5 H :    0.051484
   6 C :   -0.042465
   7 H :    0.031210
   8 H :    0.028295
   9 C :   -0.038685
  10 H :    0.031374
  11 H :    0.019860
  12 C :   -0.054282
  13 H :    0.028880
  14 H :    0.017492
  15 H :    0.020119
  16 S :    0.438557
  17 C :   -0.192124
  18 C :   -0.081735
  19 C :   -0.049955
  20 C :   -0.209965
  21 H :    0.028943
  22 C :   -0.035544
  23 H :    0.025666
  24 H :    0.046236
  25 C :   -0.042567
  26 H :    0.029738
  27 H :    0.021285
  28 C :   -0.079368
  29 H :    0.013434
  30 H :    0.030823
  31 H :    0.039082
  32 H :    0.024229
  33 H :    0.018052

  Mayer bond orders larger than 0.100000
B(  0-S ,  1-C ) :   1.1453 B(  0-S ,  4-C ) :   1.1891 B(  1-C ,  2-C ) :   1.5802
B(  1-C , 32-H ) :   0.9802 B(  2-C ,  3-C ) :   1.2633 B(  2-C ,  6-C ) :   1.0224
B(  3-C ,  4-C ) :   1.5339 B(  3-C ,  5-H ) :   0.9718 B(  4-C , 20-C ) :   0.9896
B(  6-C ,  7-H ) :   0.9343 B(  6-C ,  8-H ) :   0.9339 B(  6-C ,  9-C ) :   1.0885
B(  9-C , 10-H ) :   0.9461 B(  9-C , 11-H ) :   0.9467 B(  9-C , 12-C ) :   1.0894
B( 12-C , 13-H ) :   0.9704 B( 12-C , 14-H ) :   0.9720 B( 12-C , 15-H ) :   0.9697
B( 16-S , 17-C ) :   1.2199 B( 16-S , 20-C ) :   1.1399 B( 17-C , 18-C ) :   1.5310
B( 17-C , 33-H ) :   0.9798 B( 18-C , 19-C ) :   1.2696 B( 18-C , 21-H ) :   1.0009
B( 19-C , 20-C ) :   1.5554 B( 19-C , 22-C ) :   1.0536 B( 22-C , 23-H ) :   0.9381
B( 22-C , 24-H ) :   0.9314 B( 22-C , 25-C ) :   1.0804 B( 25-C , 26-H ) :   0.9530
B( 25-C , 27-H ) :   0.9582 B( 25-C , 28-C ) :   1.0646 B( 28-C , 29-H ) :   0.9712
B( 28-C , 30-H ) :   0.9726 B( 28-C , 31-H ) :   0.9758

Dispersion correction           -0.015092365
FINAL SINGLE POINT ENERGY     -1339.862651534566

DIPOLE MOMENT
-------------
                                X             Y             Z
Electronic contribution:      7.40407      22.63818      14.04743
Nuclear contribution   :     -7.54963     -23.24942     -14.27640
                        -----------------------------------------
Total Dipole Moment    :     -0.14555      -0.61124      -0.22897
                        -----------------------------------------
Magnitude (a.u.)       :      0.66875
Magnitude (Debye)      :      1.69984

Rotational constants in cm-1:     0.018116     0.009531     0.007482
Rotational constants in MHz :   543.095096   285.742895   224.315911

                             ****ORCA TERMINATED NORMALLY****
TOTAL RUN TIME: 0 days 0 hours 0 minutes 22 seconds 409 msec
