                         Program Version 4.2.1 -  RELEASE  -
|  1> ! wB97X-D3 SP def2-SVP
|  2> %pal
|  3> nprocs 24
|  4> end
|  5>
|  6> * xyz 0 1
|  7> S 	 0.145121 	 -21.5406 	 -114.196
|  8> C 	 0.490153 	 -19.7936 	 -114.1
|  9> C 	 -0.538125 	 -19.1262 	 -113.462
| 10> C 	 -1.55266 	 -20.0689 	 -112.968
| 11> C 	 -1.40191 	 -21.3702 	 -113.479
| 12> H 	 -2.30723 	 -19.8089 	 -112.332
| 13> C 	 -0.572252 	 -17.6462 	 -113.23
| 14> H 	 0.144738 	 -17.2812 	 -113.919
| 15> H 	 -0.226237 	 -17.5077 	 -112.215
| 16> C 	 -1.79341 	 -16.861 	 -113.641
| 17> H 	 -2.6299 	 -17.3738 	 -113.186
| 18> H 	 -1.68187 	 -15.9052 	 -113.1
| 19> C 	 -1.93758 	 -16.5291 	 -115.155
| 20> H 	 -1.50481 	 -17.2441 	 -115.812
| 21> H 	 -3.08255 	 -16.3775 	 -115.332
| 22> H 	 -1.44207 	 -15.6356 	 -115.448
| 23> S 	 -1.84322 	 -23.6668 	 -112.199
| 24> C 	 -3.36207 	 -24.4005 	 -112.251
| 25> C 	 -4.29246 	 -23.6491 	 -112.981
| 26> C 	 -3.70422 	 -22.4954 	 -113.568
| 27> C 	 -2.36084 	 -22.4078 	 -113.211
| 28> H 	 -5.33303 	 -23.9769 	 -113.015
| 29> C 	 -4.44779 	 -21.4747 	 -114.422
| 30> H 	 -3.74011 	 -21.3133 	 -115.258
| 31> H 	 -4.60145 	 -20.4901 	 -113.905
| 32> C 	 -5.85322 	 -21.893 	 -114.974
| 33> H 	 -6.17415 	 -21.0553 	 -115.594
| 34> H 	 -6.60051 	 -22.0746 	 -114.156
| 35> C 	 -5.80979 	 -23.14 	 -115.896
| 36> H 	 -5.82332 	 -24.1845 	 -115.424
| 37> H 	 -4.91908 	 -23.0022 	 -116.539
| 38> H 	 -6.64138 	 -22.8823 	 -116.577
| 39> H 	 1.26207 	 -19.2452 	 -114.582
| 40> H 	 -3.60551 	 -25.2709 	 -111.768
| 41> *
| 42>
| 43>                          ****END OF INPUT****

CARTESIAN COORDINATES (ANGSTROEM)
---------------------------------
  S      0.145121  -21.540600  -114.196000
  C      0.490153  -19.793600  -114.100000
  C     -0.538125  -19.126200  -113.462000
  C     -1.552660  -20.068900  -112.968000
  C     -1.401910  -21.370200  -113.479000
  H     -2.307230  -19.808900  -112.332000
  C     -0.572252  -17.646200  -113.230000
  H      0.144738  -17.281200  -113.919000
  H     -0.226237  -17.507700  -112.215000
  C     -1.793410  -16.861000  -113.641000
  H     -2.629900  -17.373800  -113.186000
  H     -1.681870  -15.905200  -113.100000
  C     -1.937580  -16.529100  -115.155000
  H     -1.504810  -17.244100  -115.812000
  H     -3.082550  -16.377500  -115.332000
  H     -1.442070  -15.635600  -115.448000
  S     -1.843220  -23.666800  -112.199000
  C     -3.362070  -24.400500  -112.251000
  C     -4.292460  -23.649100  -112.981000
  C     -3.704220  -22.495400  -113.568000
  C     -2.360840  -22.407800  -113.211000
  H     -5.333030  -23.976900  -113.015000
  C     -4.447790  -21.474700  -114.422000
  H     -3.740110  -21.313300  -115.258000
  H     -4.601450  -20.490100  -113.905000
  C     -5.853220  -21.893000  -114.974000
  H     -6.174150  -21.055300  -115.594000
  H     -6.600510  -22.074600  -114.156000
  C     -5.809790  -23.140000  -115.896000
  H     -5.823320  -24.184500  -115.424000
  H     -4.919080  -23.002200  -116.539000
  H     -6.641380  -22.882300  -116.577000
  H      1.262070  -19.245200  -114.582000
  H     -3.605510  -25.270900  -111.768000

 Total Charge           Charge          ....    0
 Multiplicity           Mult            ....    1
 Number of Electrons    NEL             ....  134
 Basis Dimension        Dim             ....  322

ORBITAL ENERGIES
----------------

  NO   OCC          E(Eh)            E(eV)
   0   2.0000     -88.965870     -2420.8844
   1   2.0000     -88.965721     -2420.8803
   2   2.0000     -10.325207      -280.9632
   3   2.0000     -10.316044      -280.7138
   4   2.0000     -10.311179      -280.5815
   5   2.0000     -10.305529      -280.4277
   6   2.0000     -10.302367      -280.3416
   7   2.0000     -10.299611      -280.2667
   8   2.0000     -10.295870      -280.1649
   9   2.0000     -10.293398      -280.0976
  10   2.0000     -10.292997      -280.0867
  11   2.0000     -10.288428      -279.9624
  12   2.0000     -10.287909      -279.9482
  13   2.0000     -10.284400      -279.8527
  14   2.0000     -10.284229      -279.8481
  15   2.0000     -10.284029      -279.8427
  16   2.0000      -8.082535      -219.9370
  17   2.0000      -8.080439      -219.8799
  18   2.0000      -6.040636      -164.3741
  19   2.0000      -6.039082      -164.3318
  20   2.0000      -6.036701      -164.2670
  21   2.0000      -6.034942      -164.2191
  22   2.0000      -6.033655      -164.1841
  23   2.0000      -6.031089      -164.1143
  24   2.0000      -1.013540       -27.5798
  25   2.0000      -0.983676       -26.7672
  26   2.0000      -0.917282       -24.9605
  27   2.0000      -0.904712       -24.6185
  28   2.0000      -0.870389       -23.6845
  29   2.0000      -0.850053       -23.1311
  30   2.0000      -0.841593       -22.9009
  31   2.0000      -0.811257       -22.0754
  32   2.0000      -0.784989       -21.3606
  33   2.0000      -0.773618       -21.0512
  34   2.0000      -0.712201       -19.3800
  35   2.0000      -0.695755       -18.9325
  36   2.0000      -0.693723       -18.8772
  37   2.0000      -0.655535       -17.8380
  38   2.0000      -0.638720       -17.3805
  39   2.0000      -0.620508       -16.8849
  40   2.0000      -0.597167       -16.2498
  41   2.0000      -0.569231       -15.4896
  42   2.0000      -0.560079       -15.2405
  43   2.0000      -0.546680       -14.8759
  44   2.0000      -0.540291       -14.7021
  45   2.0000      -0.535112       -14.5611
  46   2.0000      -0.522265       -14.2116
  47   2.0000      -0.516219       -14.0470
  48   2.0000      -0.504656       -13.7324
  49   2.0000      -0.497992       -13.5511
  50   2.0000      -0.490003       -13.3336
  51   2.0000      -0.482324       -13.1247
  52   2.0000      -0.469046       -12.7634
  53   2.0000      -0.467295       -12.7157
  54   2.0000      -0.457885       -12.4597
  55   2.0000      -0.447797       -12.1852
  56   2.0000      -0.444918       -12.1068
  57   2.0000      -0.437737       -11.9114
  58   2.0000      -0.429199       -11.6791
  59   2.0000      -0.424232       -11.5439
  60   2.0000      -0.416461       -11.3325
  61   2.0000      -0.412279       -11.2187
  62   2.0000      -0.410696       -11.1756
  63   2.0000      -0.336926        -9.1682
  64   2.0000      -0.329837        -8.9753
  65   2.0000      -0.323914        -8.8142
  66   2.0000      -0.295715        -8.0468
  67   0.0000       0.036219         0.9856
  68   0.0000       0.068803         1.8722
  69   0.0000       0.120145         3.2693
  70   0.0000       0.122883         3.3438
  71   0.0000       0.130514         3.5515

MULLIKEN ATOMIC CHARGES
-----------------------
   0 S :    0.114714
   1 C :   -0.109112
   2 C :   -0.119089
   3 C :    0.064303
   4 C :   -0.162173
   5 H :   -0.019614
   6 C :    0.080397
   7 H :   -0.006409
   8 H :    0.047479
   9 C :   -0.065503
  10 H :    0.024553
  11 H :    0.032408
  12 C :   -0.051874
  13 H :    0.033378
  14 H :    0.051834
  15 H :    0.025336
  16 S :    0.143436
  17 C :   -0.054360
  18 C :   -0.070390
  19 C :   -0.011241
  20 C :   -0.188514
  21 H :    0.022039
  22 C :    0.049025
  23 H :    0.042797
  24 H :    0.047943
  25 C :   -0.103858
  26 H :    0.034184
  27 H :    0.042278
  28 C :   -0.076933
  29 H :    0.066698
  30 H :    0.029227
  31 H :    0.034916
  32 H :    0.034490
  33 H :    0.017633
Sum of atomic charges:   -0.0000000

LOEWDIN ATOMIC CHARGES
----------------------
   0 S :    0.405698
   1 C :   -0.194790
   2 C :   -0.055543
   3 C :   -0.049298
   4 C :   -0.210618
   5 H :    0.010497
   6 C :   -0.035996
   7 H :    0.024411
   8 H :    0.037779
   9 C :   -0.041579
  10 H :    0.018167
  11 H :    0.031893
  12 C :   -0.066164
  13 H :    0.021162
  14 H :    0.044331
  15 H :    0.021396
  16 S :    0.467602
  17 C :   -0.196371
  18 C :   -0.072600
  19 C :   -0.055167
  20 C :   -0.225971
  21 H :    0.032335
  22 C :   -0.039234
  23 H :    0.037654
  24 H :    0.036842
  25 C :   -0.047208
  26 H :    0.028469
  27 H :    0.026424
  28 C :   -0.081202
  29 H :    0.035940
  30 H :    0.027443
  31 H :    0.031367
  32 H :    0.023008
  33 H :    0.009324

  Mayer bond orders larger than 0.100000
B(  0-S ,  1-C ) :   1.1170 B(  0-S ,  4-C ) :   1.1570 B(  1-C ,  2-C ) :   1.6350
B(  1-C , 32-H ) :   0.9666 B(  2-C ,  3-C ) :   1.2164 B(  2-C ,  6-C ) :   1.0280
B(  3-C ,  4-C ) :   1.5579 B(  3-C ,  5-H ) :   1.0030 B(  4-C , 20-C ) :   1.0349
B(  6-C ,  7-H ) :   0.9343 B(  6-C ,  8-H ) :   0.9329 B(  6-C ,  9-C ) :   1.0732
B(  9-C , 10-H ) :   0.9643 B(  9-C , 11-H ) :   0.9518 B(  9-C , 12-C ) :   1.0624
B( 12-C , 13-H ) :   0.9814 B( 12-C , 14-H ) :   0.9758 B( 12-C , 15-H ) :   0.9734
B( 16-S , 17-C ) :   1.1893 B( 16-S , 20-C ) :   1.1894 B( 17-C , 18-C ) :   1.5627
B( 17-C , 20-C ) :   0.1042 B( 17-C , 33-H ) :   0.9768 B( 18-C , 19-C ) :   1.2762
B( 18-C , 21-H ) :   0.9879 B( 19-C , 20-C ) :   1.5626 B( 19-C , 22-C ) :   1.0236
B( 22-C , 23-H ) :   0.9311 B( 22-C , 24-H ) :   0.9339 B( 22-C , 25-C ) :   1.0877
B( 25-C , 26-H ) :   0.9570 B( 25-C , 27-H ) :   0.9498 B( 25-C , 28-C ) :   1.0643
B( 28-C , 29-H ) :   0.9716 B( 28-C , 30-H ) :   0.9737 B( 28-C , 31-H ) :   0.9770

Dispersion correction           -0.014358998
FINAL SINGLE POINT ENERGY     -1339.860146249594

DIPOLE MOMENT
-------------
                                X             Y             Z
Electronic contribution:     17.15392     -19.01244      11.00118
Nuclear contribution   :    -17.59010      19.58545     -11.01694
                        -----------------------------------------
Total Dipole Moment    :     -0.43618       0.57300      -0.01576
                        -----------------------------------------
Magnitude (a.u.)       :      0.72030
Magnitude (Debye)      :      1.83086

Rotational constants in cm-1:     0.018165     0.009022     0.006860
Rotational constants in MHz :   544.568895   270.466808   205.669810

                             ****ORCA TERMINATED NORMALLY****
TOTAL RUN TIME: 0 days 0 hours 0 minutes 21 seconds 953 msec
