                         Program Version 4.2.1 -  RELEASE  -
|  1> ! wB97X-D3 SP def2-SVP
|  2> %pal
|  3> nprocs 24
|  4> end
|  5>
|  6> * xyz 0 1
|  7> S 	 -66.7115 	 11.6193 	 -69.5497
|  8> C 	 -65.9246 	 13.0225 	 -70.0826
|  9> C 	 -66.5282 	 13.5492 	 -71.1831
| 10> C 	 -67.6054 	 12.7122 	 -71.7039
| 11> C 	 -67.9159 	 11.7369 	 -70.7678
| 12> H 	 -68.2442 	 12.8439 	 -72.6013
| 13> C 	 -66.0566 	 14.7896 	 -71.9647
| 14> H 	 -65.846 	 14.5332 	 -72.9716
| 15> H 	 -65.0952 	 15.0354 	 -71.4703
| 16> C 	 -66.8068 	 16.0274 	 -71.7956
| 17> H 	 -66.8277 	 16.2917 	 -70.6694
| 18> H 	 -66.311 	 16.8961 	 -72.2475
| 19> C 	 -68.194 	 16.0623 	 -72.4044
| 20> H 	 -68.0224 	 16.3501 	 -73.5134
| 21> H 	 -68.6689 	 15.1186 	 -72.3933
| 22> H 	 -68.8905 	 16.7851 	 -71.969
| 23> S 	 -68.8354 	 9.18971 	 -70.0471
| 24> C 	 -70.5631 	 8.83606 	 -70.1575
| 25> C 	 -71.2668 	 9.8893 	 -70.6916
| 26> C 	 -70.429 	 11.003 	 -71.0691
| 27> C 	 -69.0924 	 10.823 	 -70.6912
| 28> H 	 -72.3848 	 9.8909 	 -70.6598
| 29> C 	 -70.927 	 12.2836 	 -71.717
| 30> H 	 -71.731 	 12.0259 	 -72.44
| 31> H 	 -70.169 	 12.8077 	 -72.2261
| 32> C 	 -71.5082 	 13.4597 	 -70.8878
| 33> H 	 -71.3933 	 14.3828 	 -71.4544
| 34> H 	 -70.8079 	 13.6304 	 -70.0806
| 35> C 	 -72.9241 	 13.2876 	 -70.3406
| 36> H 	 -73.2408 	 14.0887 	 -69.7096
| 37> H 	 -73.0164 	 12.3555 	 -69.7765
| 38> H 	 -73.5997 	 13.2549 	 -71.2767
| 39> H 	 -65.0166 	 13.4154 	 -69.7368
| 40> H 	 -71.024 	 7.94784 	 -69.817
| 41> *
| 42>
| 43>                          ****END OF INPUT****

CARTESIAN COORDINATES (ANGSTROEM)
---------------------------------
  S    -66.711500   11.619300  -69.549700
  C    -65.924600   13.022500  -70.082600
  C    -66.528200   13.549200  -71.183100
  C    -67.605400   12.712200  -71.703900
  C    -67.915900   11.736900  -70.767800
  H    -68.244200   12.843900  -72.601300
  C    -66.056600   14.789600  -71.964700
  H    -65.846000   14.533200  -72.971600
  H    -65.095200   15.035400  -71.470300
  C    -66.806800   16.027400  -71.795600
  H    -66.827700   16.291700  -70.669400
  H    -66.311000   16.896100  -72.247500
  C    -68.194000   16.062300  -72.404400
  H    -68.022400   16.350100  -73.513400
  H    -68.668900   15.118600  -72.393300
  H    -68.890500   16.785100  -71.969000
  S    -68.835400    9.189710  -70.047100
  C    -70.563100    8.836060  -70.157500
  C    -71.266800    9.889300  -70.691600
  C    -70.429000   11.003000  -71.069100
  C    -69.092400   10.823000  -70.691200
  H    -72.384800    9.890900  -70.659800
  C    -70.927000   12.283600  -71.717000
  H    -71.731000   12.025900  -72.440000
  H    -70.169000   12.807700  -72.226100
  C    -71.508200   13.459700  -70.887800
  H    -71.393300   14.382800  -71.454400
  H    -70.807900   13.630400  -70.080600
  C    -72.924100   13.287600  -70.340600
  H    -73.240800   14.088700  -69.709600
  H    -73.016400   12.355500  -69.776500
  H    -73.599700   13.254900  -71.276700
  H    -65.016600   13.415400  -69.736800
  H    -71.024000    7.947840  -69.817000

 Total Charge           Charge          ....    0
 Multiplicity           Mult            ....    1
 Number of Electrons    NEL             ....  134
 Basis Dimension        Dim             ....  322

ORBITAL ENERGIES
----------------

  NO   OCC          E(Eh)            E(eV)
   0   2.0000     -88.967815     -2420.9373
   1   2.0000     -88.966996     -2420.9150
   2   2.0000     -10.334367      -281.2124
   3   2.0000     -10.333045      -281.1764
   4   2.0000     -10.318682      -280.7856
   5   2.0000     -10.310134      -280.5530
   6   2.0000     -10.306836      -280.4633
   7   2.0000     -10.303453      -280.3712
   8   2.0000     -10.301986      -280.3313
   9   2.0000     -10.300323      -280.2860
  10   2.0000     -10.290431      -280.0169
  11   2.0000     -10.288371      -279.9608
  12   2.0000     -10.287326      -279.9324
  13   2.0000     -10.283034      -279.8156
  14   2.0000     -10.281431      -279.7719
  15   2.0000     -10.278575      -279.6942
  16   2.0000      -8.083417      -219.9610
  17   2.0000      -8.081904      -219.9198
  18   2.0000      -6.041881      -164.4079
  19   2.0000      -6.040536      -164.3713
  20   2.0000      -6.037630      -164.2923
  21   2.0000      -6.036525      -164.2622
  22   2.0000      -6.034182      -164.1984
  23   2.0000      -6.032562      -164.1543
  24   2.0000      -1.012917       -27.5629
  25   2.0000      -0.985674       -26.8216
  26   2.0000      -0.921211       -25.0674
  27   2.0000      -0.906731       -24.6734
  28   2.0000      -0.871270       -23.7085
  29   2.0000      -0.851781       -23.1781
  30   2.0000      -0.842724       -22.9317
  31   2.0000      -0.819901       -22.3106
  32   2.0000      -0.788908       -21.4673
  33   2.0000      -0.777327       -21.1521
  34   2.0000      -0.707321       -19.2472
  35   2.0000      -0.696065       -18.9409
  36   2.0000      -0.688984       -18.7482
  37   2.0000      -0.662868       -18.0376
  38   2.0000      -0.644457       -17.5366
  39   2.0000      -0.614670       -16.7260
  40   2.0000      -0.594248       -16.1703
  41   2.0000      -0.578421       -15.7396
  42   2.0000      -0.557838       -15.1795
  43   2.0000      -0.552890       -15.0449
  44   2.0000      -0.546339       -14.8666
  45   2.0000      -0.542137       -14.7523
  46   2.0000      -0.516039       -14.0421
  47   2.0000      -0.513382       -13.9698
  48   2.0000      -0.508333       -13.8325
  49   2.0000      -0.497907       -13.5487
  50   2.0000      -0.492714       -13.4074
  51   2.0000      -0.485177       -13.2023
  52   2.0000      -0.474030       -12.8990
  53   2.0000      -0.468845       -12.7579
  54   2.0000      -0.464870       -12.6498
  55   2.0000      -0.448098       -12.1934
  56   2.0000      -0.443293       -12.0626
  57   2.0000      -0.436096       -11.8668
  58   2.0000      -0.432212       -11.7611
  59   2.0000      -0.425122       -11.5681
  60   2.0000      -0.414797       -11.2872
  61   2.0000      -0.409441       -11.1414
  62   2.0000      -0.405487       -11.0339
  63   2.0000      -0.356554        -9.7023
  64   2.0000      -0.335006        -9.1160
  65   2.0000      -0.329538        -8.9672
  66   2.0000      -0.290406        -7.9023
  67   0.0000       0.022949         0.6245
  68   0.0000       0.080831         2.1995
  69   0.0000       0.104796         2.8516
  70   0.0000       0.113581         3.0907
  71   0.0000       0.124932         3.3996

MULLIKEN ATOMIC CHARGES
-----------------------
   0 S :    0.118119
   1 C :   -0.066450
   2 C :   -0.135734
   3 C :    0.003053
   4 C :   -0.136430
   5 H :    0.047415
   6 C :    0.096213
   7 H :    0.025393
   8 H :    0.010576
   9 C :   -0.081634
  10 H :    0.032403
  11 H :    0.032353
  12 C :   -0.052147
  13 H :    0.032255
  14 H :    0.006230
  15 H :    0.040476
  16 S :    0.093773
  17 C :   -0.076168
  18 C :   -0.044806
  19 C :   -0.033556
  20 C :   -0.136608
  21 H :    0.041827
  22 C :    0.089096
  23 H :    0.023211
  24 H :   -0.020387
  25 C :   -0.076717
  26 H :    0.027021
  27 H :    0.020842
  28 C :   -0.053750
  29 H :    0.035836
  30 H :    0.036998
  31 H :    0.033674
  32 H :    0.022686
  33 H :    0.044938
Sum of atomic charges:   -0.0000000

LOEWDIN ATOMIC CHARGES
----------------------
   0 S :    0.439813
   1 C :   -0.208449
   2 C :   -0.057008
   3 C :   -0.074421
   4 C :   -0.194780
   5 H :    0.037048
   6 C :   -0.031640
   7 H :    0.025720
   8 H :    0.036262
   9 C :   -0.053000
  10 H :    0.031051
  11 H :    0.027122
  12 C :   -0.070567
  13 H :    0.034076
  14 H :    0.010262
  15 H :    0.028477
  16 S :    0.383193
  17 C :   -0.171850
  18 C :   -0.073659
  19 C :   -0.055390
  20 C :   -0.186879
  21 H :    0.041448
  22 C :   -0.031202
  23 H :    0.033312
  24 H :    0.020459
  25 C :   -0.041104
  26 H :    0.023836
  27 H :    0.022189
  28 C :   -0.068851
  29 H :    0.023172
  30 H :    0.025339
  31 H :    0.031616
  32 H :    0.021074
  33 H :    0.023329

  Mayer bond orders larger than 0.100000
B(  0-S ,  1-C ) :   1.1343 B(  0-S ,  4-C ) :   1.1754 B(  1-C ,  2-C ) :   1.6449
B(  1-C , 32-H ) :   0.9688 B(  2-C ,  3-C ) :   1.2154 B(  2-C ,  6-C ) :   1.0160
B(  3-C ,  4-C ) :   1.5681 B(  3-C ,  5-H ) :   0.9778 B(  4-C , 20-C ) :   1.0268
B(  6-C ,  7-H ) :   0.9438 B(  6-C ,  8-H ) :   0.9283 B(  6-C ,  9-C ) :   1.0884
B(  9-C , 10-H ) :   0.9487 B(  9-C , 11-H ) :   0.9565 B(  9-C , 12-C ) :   1.0706
B( 12-C , 13-H ) :   0.9743 B( 12-C , 14-H ) :   0.9778 B( 12-C , 15-H ) :   0.9725
B( 16-S , 17-C ) :   1.1398 B( 16-S , 20-C ) :   1.1327 B( 17-C , 18-C ) :   1.6331
B( 17-C , 33-H ) :   0.9715 B( 18-C , 19-C ) :   1.2250 B( 18-C , 21-H ) :   0.9790
B( 19-C , 20-C ) :   1.6090 B( 19-C , 22-C ) :   1.0546 B( 22-C , 23-H ) :   0.9311
B( 22-C , 24-H ) :   0.9295 B( 22-C , 25-C ) :   1.0665 B( 25-C , 26-H ) :   0.9555
B( 25-C , 27-H ) :   0.9493 B( 25-C , 28-C ) :   1.0816 B( 28-C , 29-H ) :   0.9729
B( 28-C , 30-H ) :   0.9754 B( 28-C , 31-H ) :   0.9741

Dispersion correction           -0.015170451
FINAL SINGLE POINT ENERGY     -1339.872504955271

DIPOLE MOMENT
-------------
                                X             Y             Z
Electronic contribution:     12.55724     -26.35367       9.97063
Nuclear contribution   :    -12.77998      26.86635     -10.17608
                        -----------------------------------------
Total Dipole Moment    :     -0.22274       0.51268      -0.20545
                        -----------------------------------------
Magnitude (a.u.)       :      0.59554
Magnitude (Debye)      :      1.51373

Rotational constants in cm-1:     0.017872     0.010298     0.007047
Rotational constants in MHz :   535.779944   308.735762   211.261096

                             ****ORCA TERMINATED NORMALLY****
TOTAL RUN TIME: 0 days 0 hours 0 minutes 22 seconds 636 msec
