                         Program Version 4.2.1 -  RELEASE  -
|  1> ! wB97X-D3 SP def2-SVP
|  2> %pal
|  3> nprocs 24
|  4> end
|  5>
|  6> * xyz 0 1
|  7> S 	 -45.1783 	 -49.393 	 -70.2845
|  8> C 	 -44.4951 	 -47.9967 	 -71.1062
|  9> C 	 -43.119 	 -47.9575 	 -70.7388
| 10> C 	 -42.8336 	 -48.7954 	 -69.609
| 11> C 	 -43.8195 	 -49.6248 	 -69.228
| 12> H 	 -41.9309 	 -48.8461 	 -69.0994
| 13> C 	 -42.0213 	 -47.0141 	 -71.3257
| 14> H 	 -41.9485 	 -47.0543 	 -72.4285
| 15> H 	 -41.0441 	 -47.3873 	 -70.9241
| 16> C 	 -42.1076 	 -45.5201 	 -70.7843
| 17> H 	 -41.2706 	 -44.9421 	 -71.2351
| 18> H 	 -43.0489 	 -45.0855 	 -71.1176
| 19> C 	 -41.8753 	 -45.26 	 -69.2789
| 20> H 	 -40.7797 	 -45.1589 	 -68.9792
| 21> H 	 -42.3331 	 -44.4188 	 -68.9533
| 22> H 	 -42.2238 	 -46.0876 	 -68.6565
| 23> S 	 -42.478 	 -51.6592 	 -67.8188
| 24> C 	 -43.3822 	 -52.3528 	 -66.4847
| 25> C 	 -44.5514 	 -51.7544 	 -66.1657
| 26> C 	 -44.8359 	 -50.6914 	 -67.0288
| 27> C 	 -43.861 	 -50.5744 	 -68.0751
| 28> H 	 -45.1156 	 -52.1301 	 -65.3084
| 29> C 	 -46.1382 	 -49.8594 	 -66.7441
| 30> H 	 -46.0931 	 -49.0591 	 -67.4412
| 31> H 	 -46.0751 	 -49.4554 	 -65.7761
| 32> C 	 -47.5895 	 -50.5579 	 -66.8554
| 33> H 	 -48.3077 	 -49.8115 	 -66.6066
| 34> H 	 -47.5418 	 -51.2286 	 -66.0023
| 35> C 	 -47.8136 	 -51.2574 	 -68.198
| 36> H 	 -47.6653 	 -50.7336 	 -69.192
| 37> H 	 -48.8509 	 -51.6043 	 -68.155
| 38> H 	 -47.1304 	 -52.1305 	 -68.3434
| 39> H 	 -44.9612 	 -47.4635 	 -71.9534
| 40> H 	 -42.9804 	 -53.1624 	 -65.9046
| 41> *
| 42>
| 43>                          ****END OF INPUT****

CARTESIAN COORDINATES (ANGSTROEM)
---------------------------------
  S    -45.178300  -49.393000  -70.284500
  C    -44.495100  -47.996700  -71.106200
  C    -43.119000  -47.957500  -70.738800
  C    -42.833600  -48.795400  -69.609000
  C    -43.819500  -49.624800  -69.228000
  H    -41.930900  -48.846100  -69.099400
  C    -42.021300  -47.014100  -71.325700
  H    -41.948500  -47.054300  -72.428500
  H    -41.044100  -47.387300  -70.924100
  C    -42.107600  -45.520100  -70.784300
  H    -41.270600  -44.942100  -71.235100
  H    -43.048900  -45.085500  -71.117600
  C    -41.875300  -45.260000  -69.278900
  H    -40.779700  -45.158900  -68.979200
  H    -42.333100  -44.418800  -68.953300
  H    -42.223800  -46.087600  -68.656500
  S    -42.478000  -51.659200  -67.818800
  C    -43.382200  -52.352800  -66.484700
  C    -44.551400  -51.754400  -66.165700
  C    -44.835900  -50.691400  -67.028800
  C    -43.861000  -50.574400  -68.075100
  H    -45.115600  -52.130100  -65.308400
  C    -46.138200  -49.859400  -66.744100
  H    -46.093100  -49.059100  -67.441200
  H    -46.075100  -49.455400  -65.776100
  C    -47.589500  -50.557900  -66.855400
  H    -48.307700  -49.811500  -66.606600
  H    -47.541800  -51.228600  -66.002300
  C    -47.813600  -51.257400  -68.198000
  H    -47.665300  -50.733600  -69.192000
  H    -48.850900  -51.604300  -68.155000
  H    -47.130400  -52.130500  -68.343400
  H    -44.961200  -47.463500  -71.953400
  H    -42.980400  -53.162400  -65.904600

 Total Charge           Charge          ....    0
 Multiplicity           Mult            ....    1
 Number of Electrons    NEL             ....  134
 Basis Dimension        Dim             ....  322

ORBITAL ENERGIES
----------------

  NO   OCC          E(Eh)            E(eV)
   0   2.0000     -88.972818     -2421.0735
   1   2.0000     -88.964077     -2420.8356
   2   2.0000     -10.337259      -281.2911
   3   2.0000     -10.326934      -281.0102
   4   2.0000     -10.321697      -280.8677
   5   2.0000     -10.314626      -280.6752
   6   2.0000     -10.311091      -280.5790
   7   2.0000     -10.309388      -280.5327
   8   2.0000     -10.303275      -280.3664
   9   2.0000     -10.291564      -280.0477
  10   2.0000     -10.290220      -280.0111
  11   2.0000     -10.290172      -280.0098
  12   2.0000     -10.286636      -279.9136
  13   2.0000     -10.284287      -279.8497
  14   2.0000     -10.279305      -279.7141
  15   2.0000     -10.271845      -279.5111
  16   2.0000      -8.086891      -220.0555
  17   2.0000      -8.078388      -219.8241
  18   2.0000      -6.045218      -164.4987
  19   2.0000      -6.041743      -164.4042
  20   2.0000      -6.037646      -164.2927
  21   2.0000      -6.036954      -164.2739
  22   2.0000      -6.032788      -164.1605
  23   2.0000      -6.029252      -164.0643
  24   2.0000      -1.004396       -27.3310
  25   2.0000      -0.984509       -26.7898
  26   2.0000      -0.896972       -24.4078
  27   2.0000      -0.896254       -24.3883
  28   2.0000      -0.866188       -23.5702
  29   2.0000      -0.847439       -23.0600
  30   2.0000      -0.841814       -22.9069
  31   2.0000      -0.814256       -22.1570
  32   2.0000      -0.782671       -21.2976
  33   2.0000      -0.768854       -20.9216
  34   2.0000      -0.704820       -19.1791
  35   2.0000      -0.697223       -18.9724
  36   2.0000      -0.689247       -18.7554
  37   2.0000      -0.659605       -17.9488
  38   2.0000      -0.640309       -17.4237
  39   2.0000      -0.613570       -16.6961
  40   2.0000      -0.592487       -16.1224
  41   2.0000      -0.567087       -15.4312
  42   2.0000      -0.547059       -14.8862
  43   2.0000      -0.544377       -14.8132
  44   2.0000      -0.541145       -14.7253
  45   2.0000      -0.535094       -14.5607
  46   2.0000      -0.512499       -13.9458
  47   2.0000      -0.508442       -13.8354
  48   2.0000      -0.502147       -13.6641
  49   2.0000      -0.495107       -13.4726
  50   2.0000      -0.486846       -13.2478
  51   2.0000      -0.474803       -12.9200
  52   2.0000      -0.467475       -12.7206
  53   2.0000      -0.463032       -12.5998
  54   2.0000      -0.460593       -12.5334
  55   2.0000      -0.446668       -12.1545
  56   2.0000      -0.446615       -12.1530
  57   2.0000      -0.441046       -12.0015
  58   2.0000      -0.428015       -11.6469
  59   2.0000      -0.423304       -11.5187
  60   2.0000      -0.417361       -11.3570
  61   2.0000      -0.408607       -11.1188
  62   2.0000      -0.401876       -10.9356
  63   2.0000      -0.348630        -9.4867
  64   2.0000      -0.338262        -9.2046
  65   2.0000      -0.323496        -8.8028
  66   2.0000      -0.292241        -7.9523
  67   0.0000       0.027161         0.7391
  68   0.0000       0.069189         1.8827
  69   0.0000       0.099866         2.7175
  70   0.0000       0.118312         3.2194
  71   0.0000       0.130029         3.5383

MULLIKEN ATOMIC CHARGES
-----------------------
   0 S :    0.099311
   1 C :   -0.131215
   2 C :   -0.093729
   3 C :    0.033923
   4 C :   -0.121055
   5 H :   -0.018714
   6 C :    0.038247
   7 H :    0.046423
   8 H :    0.024582
   9 C :   -0.083598
  10 H :    0.037501
  11 H :    0.031300
  12 C :   -0.040036
  13 H :    0.031332
  14 H :    0.013814
  15 H :    0.031501
  16 S :    0.115586
  17 C :   -0.083287
  18 C :   -0.030072
  19 C :   -0.040240
  20 C :   -0.171849
  21 H :    0.028239
  22 C :    0.075619
  23 H :    0.013117
  24 H :    0.021794
  25 C :   -0.045944
  26 H :    0.033199
  27 H :    0.022633
  28 C :   -0.083673
  29 H :    0.049580
  30 H :    0.035848
  31 H :    0.043780
  32 H :    0.070942
  33 H :    0.045139
Sum of atomic charges:   -0.0000000

LOEWDIN ATOMIC CHARGES
----------------------
   0 S :    0.420039
   1 C :   -0.206437
   2 C :   -0.058325
   3 C :   -0.072224
   4 C :   -0.192785
   5 H :    0.017886
   6 C :   -0.033705
   7 H :    0.034191
   8 H :    0.031887
   9 C :   -0.040657
  10 H :    0.028986
  11 H :    0.019800
  12 C :   -0.065091
  13 H :    0.031506
  14 H :    0.012078
  15 H :    0.026022
  16 S :    0.399100
  17 C :   -0.171233
  18 C :   -0.075404
  19 C :   -0.045024
  20 C :   -0.196413
  21 H :    0.039619
  22 C :   -0.023534
  23 H :    0.015191
  24 H :    0.023900
  25 C :   -0.029391
  26 H :    0.023126
  27 H :    0.021271
  28 C :   -0.082527
  29 H :    0.028993
  30 H :    0.027111
  31 H :    0.032287
  32 H :    0.037281
  33 H :    0.022477

  Mayer bond orders larger than 0.100000
B(  0-S ,  1-C ) :   1.1461 B(  0-S ,  4-C ) :   1.1527 B(  1-C ,  2-C ) :   1.5720
B(  1-C , 32-H ) :   0.9702 B(  2-C ,  3-C ) :   1.2437 B(  2-C ,  6-C ) :   1.0185
B(  3-C ,  4-C ) :   1.5931 B(  3-C ,  5-H ) :   1.0002 B(  4-C , 20-C ) :   1.0154
B(  6-C ,  7-H ) :   0.9488 B(  6-C ,  8-H ) :   0.9474 B(  6-C ,  9-C ) :   1.0598
B(  9-C , 10-H ) :   0.9605 B(  9-C , 11-H ) :   0.9646 B(  9-C , 12-C ) :   1.0652
B( 12-C , 13-H ) :   0.9772 B( 12-C , 14-H ) :   0.9737 B( 12-C , 15-H ) :   0.9763
B( 16-S , 17-C ) :   1.1523 B( 16-S , 20-C ) :   1.1443 B( 17-C , 18-C ) :   1.6301
B( 17-C , 33-H ) :   0.9633 B( 18-C , 19-C ) :   1.2346 B( 18-C , 21-H ) :   0.9900
B( 19-C , 20-C ) :   1.5679 B( 19-C , 22-C ) :   1.0322 B( 22-C , 23-H ) :   0.9324
B( 22-C , 24-H ) :   0.9420 B( 22-C , 25-C ) :   1.0614 B( 25-C , 26-H ) :   0.9585
B( 25-C , 27-H ) :   0.9562 B( 25-C , 28-C ) :   1.0673 B( 28-C , 29-H ) :   0.9740
B( 28-C , 30-H ) :   0.9730 B( 28-C , 31-H ) :   0.9719

Dispersion correction           -0.015028482
FINAL SINGLE POINT ENERGY     -1339.858764187680

DIPOLE MOMENT
-------------
                                X             Y             Z
Electronic contribution:      5.13250     -14.48583      -1.58877
Nuclear contribution   :     -5.13346      14.69262       1.84806
                        -----------------------------------------
Total Dipole Moment    :     -0.00097       0.20679       0.25929
                        -----------------------------------------
Magnitude (a.u.)       :      0.33165
Magnitude (Debye)      :      0.84300

Rotational constants in cm-1:     0.020453     0.008297     0.007009
Rotational constants in MHz :   613.162115   248.726110   210.134247

                             ****ORCA TERMINATED NORMALLY****
TOTAL RUN TIME: 0 days 0 hours 0 minutes 21 seconds 388 msec
