                         Program Version 4.2.1 -  RELEASE  -
|  1> ! wB97X-D3 SP def2-SVP
|  2> %pal
|  3> nprocs 24
|  4> end
|  5>
|  6> * xyz 0 1
|  7> S 	 -56.4342 	 0.950047 	 -18.6249
|  8> C 	 -55.9759 	 0.719973 	 -16.9023
|  9> C 	 -57.1253 	 0.754348 	 -16.1142
| 10> C 	 -58.2908 	 1.04194 	 -16.8243
| 11> C 	 -58.1233 	 1.20167 	 -18.1894
| 12> H 	 -59.2922 	 1.12177 	 -16.3719
| 13> C 	 -57.128 	 0.464438 	 -14.6107
| 14> H 	 -57.8388 	 1.114 	 -13.9949
| 15> H 	 -56.1913 	 0.835961 	 -14.2927
| 16> C 	 -57.2088 	 -1.0092 	 -14.19
| 17> H 	 -58.2686 	 -1.34776 	 -14.5003
| 18> H 	 -56.5738 	 -1.6559 	 -14.8147
| 19> C 	 -57.0022 	 -1.37247 	 -12.7275
| 20> H 	 -57.1666 	 -2.46414 	 -12.629
| 21> H 	 -56.0464 	 -1.11809 	 -12.3531
| 22> H 	 -57.7745 	 -0.948763 	 -12.0685
| 23> S 	 -58.5976 	 1.62785 	 -20.8376
| 24> C 	 -60.1988 	 1.77987 	 -21.4045
| 25> C 	 -61.1311 	 1.62247 	 -20.4009
| 26> C 	 -60.5018 	 1.51084 	 -19.1637
| 27> C 	 -59.1492 	 1.34509 	 -19.1737
| 28> H 	 -62.1684 	 1.84236 	 -20.6895
| 29> C 	 -61.3476 	 1.57529 	 -17.955
| 30> H 	 -62.2053 	 2.11225 	 -18.2114
| 31> H 	 -60.9052 	 2.08253 	 -17.0816
| 32> C 	 -61.8158 	 0.185543 	 -17.4843
| 33> H 	 -62.4215 	 0.45493 	 -16.6145
| 34> H 	 -60.9447 	 -0.518942 	 -17.2358
| 35> C 	 -62.7689 	 -0.384834 	 -18.532
| 36> H 	 -63.3146 	 0.369384 	 -19.0329
| 37> H 	 -63.425 	 -1.11391 	 -18.0328
| 38> H 	 -62.1359 	 -0.964744 	 -19.2481
| 39> H 	 -55.0807 	 0.230502 	 -16.5646
| 40> H 	 -60.5401 	 2.02184 	 -22.4269
| 41> *
| 42>
| 43>                          ****END OF INPUT****

CARTESIAN COORDINATES (ANGSTROEM)
---------------------------------
  S    -56.434200    0.950047  -18.624900
  C    -55.975900    0.719973  -16.902300
  C    -57.125300    0.754348  -16.114200
  C    -58.290800    1.041940  -16.824300
  C    -58.123300    1.201670  -18.189400
  H    -59.292200    1.121770  -16.371900
  C    -57.128000    0.464438  -14.610700
  H    -57.838800    1.114000  -13.994900
  H    -56.191300    0.835961  -14.292700
  C    -57.208800   -1.009200  -14.190000
  H    -58.268600   -1.347760  -14.500300
  H    -56.573800   -1.655900  -14.814700
  C    -57.002200   -1.372470  -12.727500
  H    -57.166600   -2.464140  -12.629000
  H    -56.046400   -1.118090  -12.353100
  H    -57.774500   -0.948763  -12.068500
  S    -58.597600    1.627850  -20.837600
  C    -60.198800    1.779870  -21.404500
  C    -61.131100    1.622470  -20.400900
  C    -60.501800    1.510840  -19.163700
  C    -59.149200    1.345090  -19.173700
  H    -62.168400    1.842360  -20.689500
  C    -61.347600    1.575290  -17.955000
  H    -62.205300    2.112250  -18.211400
  H    -60.905200    2.082530  -17.081600
  C    -61.815800    0.185543  -17.484300
  H    -62.421500    0.454930  -16.614500
  H    -60.944700   -0.518942  -17.235800
  C    -62.768900   -0.384834  -18.532000
  H    -63.314600    0.369384  -19.032900
  H    -63.425000   -1.113910  -18.032800
  H    -62.135900   -0.964744  -19.248100
  H    -55.080700    0.230502  -16.564600
  H    -60.540100    2.021840  -22.426900

 Total Charge           Charge          ....    0
 Multiplicity           Mult            ....    1
 Number of Electrons    NEL             ....  134
 Basis Dimension        Dim             ....  322

ORBITAL ENERGIES
----------------

  NO   OCC          E(Eh)            E(eV)
   0   2.0000     -88.968848     -2420.9654
   1   2.0000     -88.965320     -2420.8694
   2   2.0000     -10.333367      -281.1852
   3   2.0000     -10.325056      -280.9591
   4   2.0000     -10.317574      -280.7555
   5   2.0000     -10.315317      -280.6940
   6   2.0000     -10.302556      -280.3468
   7   2.0000     -10.297764      -280.2164
   8   2.0000     -10.294213      -280.1198
   9   2.0000     -10.293789      -280.1082
  10   2.0000     -10.291529      -280.0467
  11   2.0000     -10.290308      -280.0135
  12   2.0000     -10.290301      -280.0133
  13   2.0000     -10.283517      -279.8287
  14   2.0000     -10.280007      -279.7332
  15   2.0000     -10.275544      -279.6118
  16   2.0000      -8.082428      -219.9340
  17   2.0000      -8.080689      -219.8867
  18   2.0000      -6.041121      -164.3873
  19   2.0000      -6.039160      -164.3339
  20   2.0000      -6.037184      -164.2801
  21   2.0000      -6.035137      -164.2244
  22   2.0000      -6.032972      -164.1655
  23   2.0000      -6.031433      -164.1236
  24   2.0000      -1.015149       -27.6236
  25   2.0000      -0.986692       -26.8492
  26   2.0000      -0.920743       -25.0547
  27   2.0000      -0.909485       -24.7483
  28   2.0000      -0.874120       -23.7860
  29   2.0000      -0.854536       -23.2531
  30   2.0000      -0.844831       -22.9890
  31   2.0000      -0.816631       -22.2217
  32   2.0000      -0.786688       -21.4069
  33   2.0000      -0.774957       -21.0877
  34   2.0000      -0.712779       -19.3957
  35   2.0000      -0.697630       -18.9835
  36   2.0000      -0.690309       -18.7843
  37   2.0000      -0.668034       -18.1781
  38   2.0000      -0.635844       -17.3022
  39   2.0000      -0.622968       -16.9518
  40   2.0000      -0.600377       -16.3371
  41   2.0000      -0.569981       -15.5100
  42   2.0000      -0.561555       -15.2807
  43   2.0000      -0.551862       -15.0169
  44   2.0000      -0.544320       -14.8117
  45   2.0000      -0.529229       -14.4011
  46   2.0000      -0.522687       -14.2230
  47   2.0000      -0.509136       -13.8543
  48   2.0000      -0.504850       -13.7377
  49   2.0000      -0.501560       -13.6481
  50   2.0000      -0.496790       -13.5183
  51   2.0000      -0.481257       -13.0957
  52   2.0000      -0.472847       -12.8668
  53   2.0000      -0.469720       -12.7817
  54   2.0000      -0.462342       -12.5810
  55   2.0000      -0.451201       -12.2778
  56   2.0000      -0.444143       -12.0858
  57   2.0000      -0.433441       -11.7945
  58   2.0000      -0.432897       -11.7797
  59   2.0000      -0.425307       -11.5732
  60   2.0000      -0.416067       -11.3217
  61   2.0000      -0.411900       -11.2084
  62   2.0000      -0.406833       -11.0705
  63   2.0000      -0.364350        -9.9145
  64   2.0000      -0.338913        -9.2223
  65   2.0000      -0.330346        -8.9892
  66   2.0000      -0.277358        -7.5473
  67   0.0000       0.013257         0.3608
  68   0.0000       0.084975         2.3123
  69   0.0000       0.090120         2.4523
  70   0.0000       0.119429         3.2498
  71   0.0000       0.133926         3.6443

MULLIKEN ATOMIC CHARGES
-----------------------
   0 S :    0.089398
   1 C :   -0.104639
   2 C :   -0.090272
   3 C :   -0.032919
   4 C :   -0.073504
   5 H :    0.009753
   6 C :    0.071793
   7 H :    0.034679
   8 H :    0.001891
   9 C :   -0.099095
  10 H :    0.025096
  11 H :    0.027594
  12 C :   -0.025297
  13 H :    0.037657
  14 H :    0.028303
  15 H :    0.029953
  16 S :    0.092256
  17 C :   -0.085334
  18 C :   -0.053701
  19 C :   -0.071891
  20 C :   -0.084700
  21 H :    0.030716
  22 C :    0.038321
  23 H :    0.001338
  24 H :    0.033829
  25 C :   -0.098054
  26 H :    0.028317
  27 H :    0.060813
  28 C :   -0.040565
  29 H :    0.020248
  30 H :    0.035932
  31 H :    0.048772
  32 H :    0.052072
  33 H :    0.061238
Sum of atomic charges:   -0.0000000

LOEWDIN ATOMIC CHARGES
----------------------
   0 S :    0.382051
   1 C :   -0.191604
   2 C :   -0.054614
   3 C :   -0.078663
   4 C :   -0.174417
   5 H :    0.034080
   6 C :   -0.037640
   7 H :    0.037551
   8 H :    0.020949
   9 C :   -0.048561
  10 H :    0.028235
  11 H :    0.023904
  12 C :   -0.064416
  13 H :    0.035029
  14 H :    0.017485
  15 H :    0.026971
  16 S :    0.409641
  17 C :   -0.190896
  18 C :   -0.082269
  19 C :   -0.057290
  20 C :   -0.185800
  21 H :    0.039122
  22 C :   -0.032411
  23 H :    0.020886
  24 H :    0.028142
  25 C :   -0.040146
  26 H :    0.022037
  27 H :    0.034861
  28 C :   -0.064229
  29 H :    0.014320
  30 H :    0.027879
  31 H :    0.034440
  32 H :    0.028134
  33 H :    0.037239

  Mayer bond orders larger than 0.100000
B(  0-S ,  1-C ) :   1.1165 B(  0-S ,  4-C ) :   1.1412 B(  1-C ,  2-C ) :   1.6067
B(  1-C ,  4-C ) :   0.1042 B(  1-C , 32-H ) :   0.9631 B(  2-C ,  3-C ) :   1.2783
B(  2-C ,  6-C ) :   1.0183 B(  3-C ,  4-C ) :   1.5393 B(  3-C ,  5-H ) :   0.9874
B(  4-C , 20-C ) :   1.1176 B(  6-C ,  7-H ) :   0.9443 B(  6-C ,  8-H ) :   0.9331
B(  6-C ,  9-C ) :   1.0571 B(  9-C , 10-H ) :   0.9530 B(  9-C , 11-H ) :   0.9558
B(  9-C , 12-C ) :   1.0860 B( 12-C , 13-H ) :   0.9712 B( 12-C , 14-H ) :   0.9756
B( 12-C , 15-H ) :   0.9727 B( 16-S , 17-C ) :   1.1870 B( 16-S , 20-C ) :   1.1041
B( 17-C , 18-C ) :   1.6030 B( 17-C , 33-H ) :   0.9584 B( 18-C , 19-C ) :   1.2535
B( 18-C , 21-H ) :   0.9857 B( 19-C , 20-C ) :   1.5831 B( 19-C , 22-C ) :   1.0524
B( 22-C , 23-H ) :   0.9255 B( 22-C , 24-H ) :   0.9347 B( 22-C , 25-C ) :   1.0780
B( 25-C , 26-H ) :   0.9578 B( 25-C , 27-H ) :   0.9533 B( 25-C , 28-C ) :   1.0796
B( 28-C , 29-H ) :   0.9727 B( 28-C , 30-H ) :   0.9729 B( 28-C , 31-H ) :   0.9708

Dispersion correction           -0.014353974
FINAL SINGLE POINT ENERGY     -1339.870277782221

DIPOLE MOMENT
-------------
                                X             Y             Z
Electronic contribution:     13.40778      11.31698     -24.61937
Nuclear contribution   :    -14.01434     -11.45755      25.06866
                        -----------------------------------------
Total Dipole Moment    :     -0.60656      -0.14057       0.44928
                        -----------------------------------------
Magnitude (a.u.)       :      0.76781
Magnitude (Debye)      :      1.95163

Rotational constants in cm-1:     0.020370     0.008634     0.006375
Rotational constants in MHz :   610.689884   258.844150   191.120489

                             ****ORCA TERMINATED NORMALLY****
TOTAL RUN TIME: 0 days 0 hours 0 minutes 21 seconds 92 msec
