                         Program Version 4.2.1 -  RELEASE  -
|  1> ! wB97X-D3 SP def2-SVP
|  2> %pal
|  3> nprocs 24
|  4> end
|  5>
|  6> * xyz 0 1
|  7> S 	 -49.7035 	 14.5373 	 25.2534
|  8> C 	 -50.2566 	 12.9317 	 24.9404
|  9> C 	 -49.1944 	 12.0495 	 25.0538
| 10> C 	 -47.9796 	 12.7109 	 25.2691
| 11> C 	 -48.0694 	 14.0745 	 25.4269
| 12> H 	 -46.9996 	 12.2403 	 25.2826
| 13> C 	 -49.2596 	 10.5314 	 25.01
| 14> H 	 -50.2817 	 10.2118 	 24.9959
| 15> H 	 -48.8911 	 10.1866 	 25.9505
| 16> C 	 -48.5332 	 9.82185 	 23.8285
| 17> H 	 -49.0157 	 9.84149 	 22.8526
| 18> H 	 -47.5742 	 10.2189 	 23.8413
| 19> C 	 -48.3024 	 8.29885 	 24.0747
| 20> H 	 -47.7442 	 7.8931 	 23.2828
| 21> H 	 -47.811 	 8.02009 	 25.0816
| 22> H 	 -49.3143 	 7.7495 	 23.9807
| 23> S 	 -47.117 	 15.6169 	 27.4177
| 24> C 	 -45.5731 	 16.4754 	 27.2311
| 25> C 	 -45.1547 	 16.3858 	 25.9243
| 26> C 	 -45.9398 	 15.4129 	 25.1489
| 27> C 	 -47.0692 	 15.0318 	 25.7401
| 28> H 	 -44.2836 	 16.8695 	 25.5679
| 29> C 	 -45.5969 	 15.1839 	 23.6994
| 30> H 	 -45.1713 	 16.1383 	 23.3106
| 31> H 	 -46.5476 	 14.9791 	 23.1589
| 32> C 	 -44.5965 	 14.087 	 23.6015
| 33> H 	 -44.885 	 13.1552 	 24.1384
| 34> H 	 -43.7585 	 14.4297 	 24.2134
| 35> C 	 -44.216 	 13.7275 	 22.1874
| 36> H 	 -45.0789 	 13.4966 	 21.6415
| 37> H 	 -43.4452 	 12.9191 	 22.1455
| 38> H 	 -43.7209 	 14.5279 	 21.6365
| 39> H 	 -51.3289 	 12.6521 	 24.7937
| 40> H 	 -45.0662 	 17.0392 	 28.0827
| 41> *
| 42>
| 43>                          ****END OF INPUT****

CARTESIAN COORDINATES (ANGSTROEM)
---------------------------------
  S    -49.703500   14.537300   25.253400
  C    -50.256600   12.931700   24.940400
  C    -49.194400   12.049500   25.053800
  C    -47.979600   12.710900   25.269100
  C    -48.069400   14.074500   25.426900
  H    -46.999600   12.240300   25.282600
  C    -49.259600   10.531400   25.010000
  H    -50.281700   10.211800   24.995900
  H    -48.891100   10.186600   25.950500
  C    -48.533200    9.821850   23.828500
  H    -49.015700    9.841490   22.852600
  H    -47.574200   10.218900   23.841300
  C    -48.302400    8.298850   24.074700
  H    -47.744200    7.893100   23.282800
  H    -47.811000    8.020090   25.081600
  H    -49.314300    7.749500   23.980700
  S    -47.117000   15.616900   27.417700
  C    -45.573100   16.475400   27.231100
  C    -45.154700   16.385800   25.924300
  C    -45.939800   15.412900   25.148900
  C    -47.069200   15.031800   25.740100
  H    -44.283600   16.869500   25.567900
  C    -45.596900   15.183900   23.699400
  H    -45.171300   16.138300   23.310600
  H    -46.547600   14.979100   23.158900
  C    -44.596500   14.087000   23.601500
  H    -44.885000   13.155200   24.138400
  H    -43.758500   14.429700   24.213400
  C    -44.216000   13.727500   22.187400
  H    -45.078900   13.496600   21.641500
  H    -43.445200   12.919100   22.145500
  H    -43.720900   14.527900   21.636500
  H    -51.328900   12.652100   24.793700
  H    -45.066200   17.039200   28.082700

 Total Charge           Charge          ....    0
 Multiplicity           Mult            ....    1
 Number of Electrons    NEL             ....  134
 Basis Dimension        Dim             ....  322

ORBITAL ENERGIES
----------------

  NO   OCC          E(Eh)            E(eV)
   0   2.0000     -88.964235     -2420.8399
   1   2.0000     -88.958099     -2420.6729
   2   2.0000     -10.326738      -281.0048
   3   2.0000     -10.321904      -280.8733
   4   2.0000     -10.319410      -280.8054
   5   2.0000     -10.315809      -280.7074
   6   2.0000     -10.299540      -280.2647
   7   2.0000     -10.298193      -280.2281
   8   2.0000     -10.295554      -280.1563
   9   2.0000     -10.290821      -280.0275
  10   2.0000     -10.289484      -279.9911
  11   2.0000     -10.289087      -279.9803
  12   2.0000     -10.287332      -279.9325
  13   2.0000     -10.285881      -279.8930
  14   2.0000     -10.283610      -279.8312
  15   2.0000     -10.273859      -279.5659
  16   2.0000      -8.080163      -219.8724
  17   2.0000      -8.072744      -219.6705
  18   2.0000      -6.038491      -164.3157
  19   2.0000      -6.034315      -164.2021
  20   2.0000      -6.031473      -164.1247
  21   2.0000      -6.031221      -164.1179
  22   2.0000      -6.027323      -164.0118
  23   2.0000      -6.023194      -163.8994
  24   2.0000      -1.015371       -27.6296
  25   2.0000      -0.987013       -26.8580
  26   2.0000      -0.916919       -24.9506
  27   2.0000      -0.910224       -24.7684
  28   2.0000      -0.874661       -23.8007
  29   2.0000      -0.851249       -23.1637
  30   2.0000      -0.846372       -23.0309
  31   2.0000      -0.815225       -22.1834
  32   2.0000      -0.782113       -21.2824
  33   2.0000      -0.772759       -21.0278
  34   2.0000      -0.707577       -19.2542
  35   2.0000      -0.698210       -18.9993
  36   2.0000      -0.691411       -18.8142
  37   2.0000      -0.667674       -18.1683
  38   2.0000      -0.645387       -17.5619
  39   2.0000      -0.623384       -16.9631
  40   2.0000      -0.594638       -16.1809
  41   2.0000      -0.570386       -15.5210
  42   2.0000      -0.568609       -15.4726
  43   2.0000      -0.560132       -15.2420
  44   2.0000      -0.531214       -14.4551
  45   2.0000      -0.524204       -14.2643
  46   2.0000      -0.522217       -14.2103
  47   2.0000      -0.518114       -14.0986
  48   2.0000      -0.505762       -13.7625
  49   2.0000      -0.499688       -13.5972
  50   2.0000      -0.496122       -13.5002
  51   2.0000      -0.481747       -13.1090
  52   2.0000      -0.465741       -12.6734
  53   2.0000      -0.464483       -12.6392
  54   2.0000      -0.460288       -12.5251
  55   2.0000      -0.445997       -12.1362
  56   2.0000      -0.444080       -12.0840
  57   2.0000      -0.440185       -11.9781
  58   2.0000      -0.438173       -11.9233
  59   2.0000      -0.419053       -11.4030
  60   2.0000      -0.417177       -11.3520
  61   2.0000      -0.413649       -11.2560
  62   2.0000      -0.410787       -11.1781
  63   2.0000      -0.341392        -9.2898
  64   2.0000      -0.333458        -9.0739
  65   2.0000      -0.324656        -8.8343
  66   2.0000      -0.304330        -8.2812
  67   0.0000       0.043145         1.1740
  68   0.0000       0.061957         1.6859
  69   0.0000       0.116047         3.1578
  70   0.0000       0.125314         3.4100
  71   0.0000       0.129928         3.5355

MULLIKEN ATOMIC CHARGES
-----------------------
   0 S :    0.120611
   1 C :   -0.139380
   2 C :   -0.084420
   3 C :    0.036362
   4 C :   -0.178218
   5 H :    0.009597
   6 C :    0.103174
   7 H :    0.001373
   8 H :    0.023038
   9 C :   -0.047496
  10 H :    0.041788
  11 H :    0.014317
  12 C :   -0.101467
  13 H :    0.028570
  14 H :    0.047543
  15 H :    0.034969
  16 S :    0.082539
  17 C :   -0.114309
  18 C :   -0.001385
  19 C :   -0.054202
  20 C :   -0.131955
  21 H :    0.008730
  22 C :    0.051501
  23 H :    0.029979
  24 H :    0.038656
  25 C :   -0.097192
  26 H :    0.027794
  27 H :    0.015220
  28 C :    0.005371
  29 H :    0.021719
  30 H :    0.034540
  31 H :    0.018349
  32 H :    0.065395
  33 H :    0.088891
Sum of atomic charges:   -0.0000000

LOEWDIN ATOMIC CHARGES
----------------------
   0 S :    0.440775
   1 C :   -0.212000
   2 C :   -0.068761
   3 C :   -0.063058
   4 C :   -0.215913
   5 H :    0.029949
   6 C :   -0.024003
   7 H :    0.023714
   8 H :    0.030766
   9 C :   -0.031372
  10 H :    0.030729
  11 H :    0.012718
  12 C :   -0.073360
  13 H :    0.016522
  14 H :    0.031609
  15 H :    0.029463
  16 S :    0.372839
  17 C :   -0.177738
  18 C :   -0.069392
  19 C :   -0.050454
  20 C :   -0.193717
  21 H :    0.023706
  22 C :   -0.029782
  23 H :    0.035114
  24 H :    0.032628
  25 C :   -0.048583
  26 H :    0.026105
  27 H :    0.023456
  28 C :   -0.063158
  29 H :    0.018971
  30 H :    0.031327
  31 H :    0.023909
  32 H :    0.039613
  33 H :    0.047377

  Mayer bond orders larger than 0.100000
B(  0-S ,  1-C ) :   1.1584 B(  0-S ,  4-C ) :   1.1787 B(  1-C ,  2-C ) :   1.5793
B(  1-C ,  4-C ) :   0.1058 B(  1-C , 32-H ) :   0.9649 B(  2-C ,  3-C ) :   1.2698
B(  2-C ,  6-C ) :   1.0223 B(  3-C ,  4-C ) :   1.5601 B(  3-C ,  5-H ) :   0.9971
B(  4-C , 20-C ) :   1.0014 B(  6-C ,  7-H ) :   0.9369 B(  6-C ,  8-H ) :   0.9408
B(  6-C ,  9-C ) :   1.0605 B(  9-C , 10-H ) :   0.9569 B(  9-C , 11-H ) :   0.9590
B(  9-C , 12-C ) :   1.0819 B( 12-C , 13-H ) :   0.9751 B( 12-C , 14-H ) :   0.9746
B( 12-C , 15-H ) :   0.9762 B( 16-S , 17-C ) :   1.1413 B( 16-S , 20-C ) :   1.1042
B( 17-C , 18-C ) :   1.6387 B( 17-C , 33-H ) :   0.9579 B( 18-C , 19-C ) :   1.1816
B( 18-C , 21-H ) :   0.9907 B( 19-C , 20-C ) :   1.6962 B( 19-C , 22-C ) :   1.0396
B( 22-C , 23-H ) :   0.9396 B( 22-C , 24-H ) :   0.9407 B( 22-C , 25-C ) :   1.0536
B( 25-C , 26-H ) :   0.9525 B( 25-C , 27-H ) :   0.9506 B( 25-C , 28-C ) :   1.0862
B( 28-C , 29-H ) :   0.9705 B( 28-C , 30-H ) :   0.9723 B( 28-C , 31-H ) :   0.9691

Dispersion correction           -0.014006700
FINAL SINGLE POINT ENERGY     -1339.876899896930

DIPOLE MOMENT
-------------
                                X             Y             Z
Electronic contribution:    -11.57522      22.46082      17.14531
Nuclear contribution   :     11.98794     -22.83361     -17.48499
                        -----------------------------------------
Total Dipole Moment    :      0.41272      -0.37279      -0.33968
                        -----------------------------------------
Magnitude (a.u.)       :      0.65168
Magnitude (Debye)      :      1.65645

Rotational constants in cm-1:     0.017119     0.009000     0.006823
Rotational constants in MHz :   513.222509   269.807173   204.563161

                             ****ORCA TERMINATED NORMALLY****
TOTAL RUN TIME: 0 days 0 hours 0 minutes 20 seconds 409 msec
