                         Program Version 4.2.1 -  RELEASE  -
|  1> ! wB97X-D3 SP def2-SVP
|  2> %pal
|  3> nprocs 24
|  4> end
|  5>
|  6> * xyz 0 1
|  7> S 	 -76.7095 	 -1.2817 	 -64.8359
|  8> C 	 -75.6151 	 -0.780466 	 -66.1184
|  9> C 	 -75.5052 	 0.554994 	 -66.1762
| 10> C 	 -76.2941 	 1.24594 	 -65.1921
| 11> C 	 -77.0905 	 0.35256 	 -64.4459
| 12> H 	 -76.3765 	 2.2813 	 -64.9385
| 13> C 	 -74.5985 	 1.17679 	 -67.2619
| 14> H 	 -73.8908 	 0.407624 	 -67.6233
| 15> H 	 -73.9806 	 1.87972 	 -66.7178
| 16> C 	 -75.2418 	 1.94347 	 -68.4378
| 17> H 	 -75.9668 	 1.30327 	 -68.9534
| 18> H 	 -75.6953 	 2.84895 	 -68.059
| 19> C 	 -74.279 	 2.32416 	 -69.5769
| 20> H 	 -74.7249 	 2.57328 	 -70.5264
| 21> H 	 -73.6399 	 3.1263 	 -69.2394
| 22> H 	 -73.7861 	 1.41982 	 -69.8301
| 23> S 	 -76.91 	 1.66394 	 -62.0825
| 24> C 	 -78.3157 	 1.80189 	 -61.0643
| 25> C 	 -79.4299 	 1.18618 	 -61.6128
| 26> C 	 -79.1394 	 0.504108 	 -62.8176
| 27> C 	 -77.8723 	 0.788249 	 -63.2731
| 28> H 	 -80.4532 	 1.30887 	 -61.1685
| 29> C 	 -80.0932 	 -0.375638 	 -63.5924
| 30> H 	 -80.8678 	 -0.733294 	 -62.8456
| 31> H 	 -79.4354 	 -1.25949 	 -63.8292
| 32> C 	 -80.7624 	 0.205154 	 -64.8157
| 33> H 	 -81.1016 	 -0.587989 	 -65.4851
| 34> H 	 -79.8746 	 0.67357 	 -65.3382
| 35> C 	 -81.9512 	 1.15396 	 -64.4992
| 36> H 	 -81.6171 	 1.94723 	 -63.8512
| 37> H 	 -82.8091 	 0.689935 	 -64.1275
| 38> H 	 -82.3375 	 1.59032 	 -65.4344
| 39> H 	 -75.0629 	 -1.55315 	 -66.7014
| 40> H 	 -78.3454 	 2.42888 	 -60.2044
| 41> *
| 42>
| 43>                          ****END OF INPUT****

CARTESIAN COORDINATES (ANGSTROEM)
---------------------------------
  S    -76.709500   -1.281700  -64.835900
  C    -75.615100   -0.780466  -66.118400
  C    -75.505200    0.554994  -66.176200
  C    -76.294100    1.245940  -65.192100
  C    -77.090500    0.352560  -64.445900
  H    -76.376500    2.281300  -64.938500
  C    -74.598500    1.176790  -67.261900
  H    -73.890800    0.407624  -67.623300
  H    -73.980600    1.879720  -66.717800
  C    -75.241800    1.943470  -68.437800
  H    -75.966800    1.303270  -68.953400
  H    -75.695300    2.848950  -68.059000
  C    -74.279000    2.324160  -69.576900
  H    -74.724900    2.573280  -70.526400
  H    -73.639900    3.126300  -69.239400
  H    -73.786100    1.419820  -69.830100
  S    -76.910000    1.663940  -62.082500
  C    -78.315700    1.801890  -61.064300
  C    -79.429900    1.186180  -61.612800
  C    -79.139400    0.504108  -62.817600
  C    -77.872300    0.788249  -63.273100
  H    -80.453200    1.308870  -61.168500
  C    -80.093200   -0.375638  -63.592400
  H    -80.867800   -0.733294  -62.845600
  H    -79.435400   -1.259490  -63.829200
  C    -80.762400    0.205154  -64.815700
  H    -81.101600   -0.587989  -65.485100
  H    -79.874600    0.673570  -65.338200
  C    -81.951200    1.153960  -64.499200
  H    -81.617100    1.947230  -63.851200
  H    -82.809100    0.689935  -64.127500
  H    -82.337500    1.590320  -65.434400
  H    -75.062900   -1.553150  -66.701400
  H    -78.345400    2.428880  -60.204400

 Total Charge           Charge          ....    0
 Multiplicity           Mult            ....    1
 Number of Electrons    NEL             ....  134
 Basis Dimension        Dim             ....  322

ORBITAL ENERGIES
----------------

  NO   OCC          E(Eh)            E(eV)
   0   2.0000     -88.966371     -2420.8980
   1   2.0000     -88.965327     -2420.8696
   2   2.0000     -10.330915      -281.1185
   3   2.0000     -10.324228      -280.9365
   4   2.0000     -10.314401      -280.6691
   5   2.0000     -10.314080      -280.6604
   6   2.0000     -10.303176      -280.3637
   7   2.0000     -10.299753      -280.2705
   8   2.0000     -10.297323      -280.2044
   9   2.0000     -10.297161      -280.2000
  10   2.0000     -10.295213      -280.1470
  11   2.0000     -10.293592      -280.1029
  12   2.0000     -10.287436      -279.9354
  13   2.0000     -10.285866      -279.8926
  14   2.0000     -10.273181      -279.5475
  15   2.0000     -10.273118      -279.5458
  16   2.0000      -8.080938      -219.8935
  17   2.0000      -8.080394      -219.8787
  18   2.0000      -6.039388      -164.3401
  19   2.0000      -6.038788      -164.3238
  20   2.0000      -6.035462      -164.2333
  21   2.0000      -6.034873      -164.2172
  22   2.0000      -6.031773      -164.1329
  23   2.0000      -6.031247      -164.1186
  24   2.0000      -1.008912       -27.4539
  25   2.0000      -0.986695       -26.8493
  26   2.0000      -0.908701       -24.7270
  27   2.0000      -0.907198       -24.6861
  28   2.0000      -0.870752       -23.6944
  29   2.0000      -0.851665       -23.1750
  30   2.0000      -0.845499       -23.0072
  31   2.0000      -0.812389       -22.1062
  32   2.0000      -0.784409       -21.3449
  33   2.0000      -0.774083       -21.0639
  34   2.0000      -0.708573       -19.2813
  35   2.0000      -0.696317       -18.9477
  36   2.0000      -0.685487       -18.6531
  37   2.0000      -0.667386       -18.1605
  38   2.0000      -0.643489       -17.5102
  39   2.0000      -0.608125       -16.5479
  40   2.0000      -0.588001       -16.0003
  41   2.0000      -0.576286       -15.6815
  42   2.0000      -0.561669       -15.2838
  43   2.0000      -0.551709       -15.0128
  44   2.0000      -0.544421       -14.8144
  45   2.0000      -0.519798       -14.1444
  46   2.0000      -0.516192       -14.0463
  47   2.0000      -0.514536       -14.0012
  48   2.0000      -0.505563       -13.7571
  49   2.0000      -0.494267       -13.4497
  50   2.0000      -0.484596       -13.1865
  51   2.0000      -0.479881       -13.0582
  52   2.0000      -0.478204       -13.0126
  53   2.0000      -0.471758       -12.8372
  54   2.0000      -0.457743       -12.4558
  55   2.0000      -0.451190       -12.2775
  56   2.0000      -0.444919       -12.1069
  57   2.0000      -0.437901       -11.9159
  58   2.0000      -0.432233       -11.7616
  59   2.0000      -0.424616       -11.5544
  60   2.0000      -0.418236       -11.3808
  61   2.0000      -0.411538       -11.1985
  62   2.0000      -0.406838       -11.0706
  63   2.0000      -0.342278        -9.3139
  64   2.0000      -0.333277        -9.0689
  65   2.0000      -0.331239        -9.0135
  66   2.0000      -0.296500        -8.0682
  67   0.0000       0.031751         0.8640
  68   0.0000       0.068299         1.8585
  69   0.0000       0.108471         2.9516
  70   0.0000       0.118839         3.2338
  71   0.0000       0.125773         3.4224

MULLIKEN ATOMIC CHARGES
-----------------------
   0 S :    0.104801
   1 C :   -0.160087
   2 C :   -0.033379
   3 C :    0.003274
   4 C :   -0.132447
   5 H :    0.010168
   6 C :    0.064520
   7 H :    0.015319
   8 H :    0.019666
   9 C :   -0.065576
  10 H :    0.029328
  11 H :    0.029722
  12 C :   -0.033831
  13 H :    0.029836
  14 H :    0.035606
  15 H :    0.013879
  16 S :    0.115495
  17 C :   -0.085633
  18 C :   -0.051882
  19 C :   -0.054220
  20 C :   -0.181237
  21 H :    0.038064
  22 C :    0.039849
  23 H :    0.022445
  24 H :    0.036606
  25 C :   -0.058017
  26 H :    0.032164
  27 H :    0.041692
  28 C :   -0.023502
  29 H :    0.034676
  30 H :    0.018266
  31 H :    0.029323
  32 H :    0.067647
  33 H :    0.047464
Sum of atomic charges:   -0.0000000

LOEWDIN ATOMIC CHARGES
----------------------
   0 S :    0.409842
   1 C :   -0.195905
   2 C :   -0.063792
   3 C :   -0.066449
   4 C :   -0.204628
   5 H :    0.026621
   6 C :   -0.029069
   7 H :    0.028879
   8 H :    0.028341
   9 C :   -0.038475
  10 H :    0.025325
  11 H :    0.021190
  12 C :   -0.060898
  13 H :    0.026907
  14 H :    0.023472
  15 H :    0.019899
  16 S :    0.414396
  17 C :   -0.185375
  18 C :   -0.075719
  19 C :   -0.064130
  20 C :   -0.193977
  21 H :    0.041206
  22 C :   -0.042220
  23 H :    0.031061
  24 H :    0.034143
  25 C :   -0.043138
  26 H :    0.025762
  27 H :    0.034653
  28 C :   -0.060738
  29 H :    0.025075
  30 H :    0.017319
  31 H :    0.031247
  32 H :    0.037459
  33 H :    0.021718

  Mayer bond orders larger than 0.100000
B(  0-S ,  1-C ) :   1.1272 B(  0-S ,  4-C ) :   1.1675 B(  1-C ,  2-C ) :   1.6279
B(  1-C , 32-H ) :   0.9658 B(  2-C ,  3-C ) :   1.2108 B(  2-C ,  6-C ) :   1.0163
B(  3-C ,  4-C ) :   1.5461 B(  3-C ,  5-H ) :   1.0093 B(  4-C , 20-C ) :   1.0275
B(  6-C ,  7-H ) :   0.9449 B(  6-C ,  8-H ) :   0.9330 B(  6-C ,  9-C ) :   1.0622
B(  9-C , 10-H ) :   0.9590 B(  9-C , 11-H ) :   0.9565 B(  9-C , 12-C ) :   1.0833
B( 12-C , 13-H ) :   0.9750 B( 12-C , 14-H ) :   0.9784 B( 12-C , 15-H ) :   0.9730
B( 16-S , 17-C ) :   1.1593 B( 16-S , 20-C ) :   1.1464 B( 17-C , 18-C ) :   1.6043
B( 17-C , 20-C ) :   0.1017 B( 17-C , 33-H ) :   0.9688 B( 18-C , 19-C ) :   1.2464
B( 18-C , 21-H ) :   0.9808 B( 19-C , 20-C ) :   1.5969 B( 19-C , 22-C ) :   1.0372
B( 22-C , 23-H ) :   0.9323 B( 22-C , 24-H ) :   0.9258 B( 22-C , 25-C ) :   1.0682
B( 25-C , 26-H ) :   0.9531 B( 25-C , 27-H ) :   0.9548 B( 25-C , 28-C ) :   1.0731
B( 28-C , 29-H ) :   0.9782 B( 28-C , 30-H ) :   0.9735 B( 28-C , 31-H ) :   0.9718

Dispersion correction           -0.014141232
FINAL SINGLE POINT ENERGY     -1339.883559662055

DIPOLE MOMENT
-------------
                                X             Y             Z
Electronic contribution:      6.26120      -6.93562      20.26367
Nuclear contribution   :     -6.37732       7.12245     -20.57568
                        -----------------------------------------
Total Dipole Moment    :     -0.11611       0.18683      -0.31201
                        -----------------------------------------
Magnitude (a.u.)       :      0.38176
Magnitude (Debye)      :      0.97035

Rotational constants in cm-1:     0.020233     0.007461     0.006779
Rotational constants in MHz :   606.558723   223.661026   203.232529

                             ****ORCA TERMINATED NORMALLY****
TOTAL RUN TIME: 0 days 0 hours 0 minutes 21 seconds 251 msec
