                         Program Version 4.2.1 -  RELEASE  -
|  1> ! wB97X-D3 SP def2-SVP
|  2> %pal
|  3> nprocs 24
|  4> end
|  5>
|  6> * xyz 0 1
|  7> S 	 39.8316 	 -25.1124 	 -121.481
|  8> C 	 38.1443 	 -24.6089 	 -121.709
|  9> C 	 37.5625 	 -25.6067 	 -122.538
| 10> C 	 38.4139 	 -26.752 	 -122.758
| 11> C 	 39.7168 	 -26.538 	 -122.379
| 12> H 	 38.1687 	 -27.5884 	 -123.397
| 13> C 	 36.1142 	 -25.6612 	 -122.769
| 14> H 	 35.7711 	 -24.6666 	 -122.451
| 15> H 	 35.7419 	 -26.4065 	 -122.09
| 16> C 	 35.6181 	 -26.0762 	 -124.205
| 17> H 	 35.8802 	 -27.0703 	 -124.582
| 18> H 	 34.4657 	 -25.9834 	 -124.164
| 19> C 	 36.0306 	 -25.0317 	 -125.23
| 20> H 	 37.1002 	 -25.1124 	 -125.405
| 21> H 	 35.3687 	 -25.1412 	 -126.069
| 22> H 	 35.9002 	 -24.0242 	 -124.852
| 23> S 	 41.9839 	 -26.6812 	 -123.877
| 24> C 	 42.8793 	 -28.1873 	 -123.928
| 25> C 	 42.395 	 -29.1053 	 -123.032
| 26> C 	 41.1866 	 -28.71 	 -122.407
| 27> C 	 40.8907 	 -27.3919 	 -122.727
| 28> H 	 42.8578 	 -30.0349 	 -122.804
| 29> C 	 40.4381 	 -29.566 	 -121.394
| 30> H 	 40.0086 	 -28.7941 	 -120.72
| 31> H 	 41.2451 	 -30.06 	 -120.825
| 32> C 	 39.4278 	 -30.6215 	 -121.89
| 33> H 	 38.8114 	 -30.0769 	 -122.627
| 34> H 	 38.7396 	 -30.944 	 -121.091
| 35> C 	 39.9672 	 -31.8145 	 -122.755
| 36> H 	 40.9377 	 -31.5787 	 -123.215
| 37> H 	 39.3014 	 -32.0884 	 -123.587
| 38> H 	 40.0885 	 -32.7535 	 -122.22
| 39> H 	 37.7509 	 -23.6551 	 -121.234
| 40> H 	 43.7674 	 -28.2897 	 -124.452
| 41> *
| 42>
| 43>                          ****END OF INPUT****

CARTESIAN COORDINATES (ANGSTROEM)
---------------------------------
  S     39.831600  -25.112400  -121.481000
  C     38.144300  -24.608900  -121.709000
  C     37.562500  -25.606700  -122.538000
  C     38.413900  -26.752000  -122.758000
  C     39.716800  -26.538000  -122.379000
  H     38.168700  -27.588400  -123.397000
  C     36.114200  -25.661200  -122.769000
  H     35.771100  -24.666600  -122.451000
  H     35.741900  -26.406500  -122.090000
  C     35.618100  -26.076200  -124.205000
  H     35.880200  -27.070300  -124.582000
  H     34.465700  -25.983400  -124.164000
  C     36.030600  -25.031700  -125.230000
  H     37.100200  -25.112400  -125.405000
  H     35.368700  -25.141200  -126.069000
  H     35.900200  -24.024200  -124.852000
  S     41.983900  -26.681200  -123.877000
  C     42.879300  -28.187300  -123.928000
  C     42.395000  -29.105300  -123.032000
  C     41.186600  -28.710000  -122.407000
  C     40.890700  -27.391900  -122.727000
  H     42.857800  -30.034900  -122.804000
  C     40.438100  -29.566000  -121.394000
  H     40.008600  -28.794100  -120.720000
  H     41.245100  -30.060000  -120.825000
  C     39.427800  -30.621500  -121.890000
  H     38.811400  -30.076900  -122.627000
  H     38.739600  -30.944000  -121.091000
  C     39.967200  -31.814500  -122.755000
  H     40.937700  -31.578700  -123.215000
  H     39.301400  -32.088400  -123.587000
  H     40.088500  -32.753500  -122.220000
  H     37.750900  -23.655100  -121.234000
  H     43.767400  -28.289700  -124.452000

 Total Charge           Charge          ....    0
 Multiplicity           Mult            ....    1
 Number of Electrons    NEL             ....  134
 Basis Dimension        Dim             ....  322

ORBITAL ENERGIES
----------------

  NO   OCC          E(Eh)            E(eV)
   0   2.0000     -88.967696     -2420.9341
   1   2.0000     -88.962365     -2420.7890
   2   2.0000     -10.327515      -281.0260
   3   2.0000     -10.327054      -281.0134
   4   2.0000     -10.325317      -280.9662
   5   2.0000     -10.312855      -280.6270
   6   2.0000     -10.304392      -280.3968
   7   2.0000     -10.302187      -280.3368
   8   2.0000     -10.296875      -280.1922
   9   2.0000     -10.294782      -280.1353
  10   2.0000     -10.294044      -280.1152
  11   2.0000     -10.291035      -280.0333
  12   2.0000     -10.290642      -280.0226
  13   2.0000     -10.288439      -279.9627
  14   2.0000     -10.282053      -279.7889
  15   2.0000     -10.268580      -279.4223
  16   2.0000      -8.082676      -219.9408
  17   2.0000      -8.077940      -219.8119
  18   2.0000      -6.041102      -164.3867
  19   2.0000      -6.037175      -164.2799
  20   2.0000      -6.036349      -164.2574
  21   2.0000      -6.033483      -164.1794
  22   2.0000      -6.032051      -164.1405
  23   2.0000      -6.029015      -164.0579
  24   2.0000      -1.009873       -27.4800
  25   2.0000      -0.987389       -26.8682
  26   2.0000      -0.912686       -24.8355
  27   2.0000      -0.903801       -24.5937
  28   2.0000      -0.866698       -23.5840
  29   2.0000      -0.849040       -23.1036
  30   2.0000      -0.845418       -23.0050
  31   2.0000      -0.817094       -22.2343
  32   2.0000      -0.783268       -21.3138
  33   2.0000      -0.769874       -20.9493
  34   2.0000      -0.707499       -19.2520
  35   2.0000      -0.697726       -18.9861
  36   2.0000      -0.687936       -18.7197
  37   2.0000      -0.666211       -18.1285
  38   2.0000      -0.638315       -17.3694
  39   2.0000      -0.618882       -16.8406
  40   2.0000      -0.592335       -16.1182
  41   2.0000      -0.563405       -15.3310
  42   2.0000      -0.553825       -15.0703
  43   2.0000      -0.549065       -14.9408
  44   2.0000      -0.546315       -14.8660
  45   2.0000      -0.542136       -14.7523
  46   2.0000      -0.522599       -14.2206
  47   2.0000      -0.511604       -13.9214
  48   2.0000      -0.500867       -13.6293
  49   2.0000      -0.497804       -13.5459
  50   2.0000      -0.488020       -13.2797
  51   2.0000      -0.480338       -13.0707
  52   2.0000      -0.469924       -12.7873
  53   2.0000      -0.462758       -12.5923
  54   2.0000      -0.456907       -12.4331
  55   2.0000      -0.450234       -12.2515
  56   2.0000      -0.441817       -12.0225
  57   2.0000      -0.440929       -11.9983
  58   2.0000      -0.431292       -11.7360
  59   2.0000      -0.426231       -11.5983
  60   2.0000      -0.421507       -11.4698
  61   2.0000      -0.409351       -11.1390
  62   2.0000      -0.405993       -11.0476
  63   2.0000      -0.342770        -9.3272
  64   2.0000      -0.329369        -8.9626
  65   2.0000      -0.322991        -8.7890
  66   2.0000      -0.302977        -8.2444
  67   0.0000       0.039226         1.0674
  68   0.0000       0.062384         1.6976
  69   0.0000       0.111098         3.0231
  70   0.0000       0.117336         3.1929
  71   0.0000       0.129411         3.5214

MULLIKEN ATOMIC CHARGES
-----------------------
   0 S :    0.103090
   1 C :   -0.162887
   2 C :   -0.100470
   3 C :    0.040076
   4 C :   -0.160391
   5 H :    0.018552
   6 C :    0.062472
   7 H :    0.017020
   8 H :    0.042885
   9 C :   -0.118431
  10 H :    0.041381
  11 H :    0.037854
  12 C :   -0.032378
  13 H :    0.042574
  14 H :    0.032445
  15 H :    0.016037
  16 S :    0.120604
  17 C :   -0.062989
  18 C :   -0.014959
  19 C :   -0.044142
  20 C :   -0.178358
  21 H :    0.009672
  22 C :    0.050486
  23 H :    0.044436
  24 H :    0.027770
  25 C :   -0.048122
  26 H :    0.022379
  27 H :    0.044739
  28 C :   -0.067644
  29 H :    0.026678
  30 H :    0.035650
  31 H :    0.032098
  32 H :    0.089788
  33 H :    0.032084
Sum of atomic charges:    0.0000000

LOEWDIN ATOMIC CHARGES
----------------------
   0 S :    0.421677
   1 C :   -0.213157
   2 C :   -0.064552
   3 C :   -0.072722
   4 C :   -0.216529
   5 H :    0.029205
   6 C :   -0.035551
   7 H :    0.031158
   8 H :    0.035354
   9 C :   -0.044988
  10 H :    0.023198
  11 H :    0.032574
  12 C :   -0.064965
  13 H :    0.026812
  14 H :    0.024035
  15 H :    0.021710
  16 S :    0.417916
  17 C :   -0.171837
  18 C :   -0.064243
  19 C :   -0.058801
  20 C :   -0.200755
  21 H :    0.025832
  22 C :   -0.034967
  23 H :    0.040966
  24 H :    0.031374
  25 C :   -0.043358
  26 H :    0.026241
  27 H :    0.030798
  28 C :   -0.072890
  29 H :    0.026037
  30 H :    0.030089
  31 H :    0.023151
  32 H :    0.047185
  33 H :    0.014002

  Mayer bond orders larger than 0.100000
B(  0-S ,  1-C ) :   1.1379 B(  0-S ,  4-C ) :   1.1896 B(  1-C ,  2-C ) :   1.5549
B(  1-C , 32-H ) :   0.9651 B(  2-C ,  3-C ) :   1.2495 B(  2-C ,  6-C ) :   1.0445
B(  3-C ,  4-C ) :   1.5644 B(  3-C ,  5-H ) :   0.9884 B(  4-C , 20-C ) :   0.9736
B(  6-C ,  7-H ) :   0.9432 B(  6-C ,  8-H ) :   0.9373 B(  6-C ,  9-C ) :   1.0633
B(  9-C , 10-H ) :   0.9576 B(  9-C , 11-H ) :   0.9593 B(  9-C , 12-C ) :   1.0709
B( 12-C , 13-H ) :   0.9736 B( 12-C , 14-H ) :   0.9759 B( 12-C , 15-H ) :   0.9747
B( 16-S , 17-C ) :   1.1525 B( 16-S , 20-C ) :   1.1651 B( 17-C , 18-C ) :   1.6008
B( 17-C , 20-C ) :   0.1025 B( 17-C , 33-H ) :   0.9761 B( 18-C , 19-C ) :   1.2488
B( 18-C , 21-H ) :   0.9859 B( 19-C , 20-C ) :   1.6137 B( 19-C , 22-C ) :   1.0260
B( 22-C , 23-H ) :   0.9344 B( 22-C , 24-H ) :   0.9417 B( 22-C , 25-C ) :   1.0612
B( 25-C , 26-H ) :   0.9595 B( 25-C , 27-H ) :   0.9589 B( 25-C , 28-C ) :   1.0551
B( 28-C , 29-H ) :   0.9759 B( 28-C , 30-H ) :   0.9797 B( 28-C , 31-H ) :   0.9768

Dispersion correction           -0.014650598
FINAL SINGLE POINT ENERGY     -1339.872847937149

DIPOLE MOMENT
-------------
                                X             Y             Z
Electronic contribution:     19.01811      14.12201       4.78626
Nuclear contribution   :    -19.36634     -14.52693      -4.79515
                        -----------------------------------------
Total Dipole Moment    :     -0.34823      -0.40492      -0.00889
                        -----------------------------------------
Magnitude (a.u.)       :      0.53414
Magnitude (Debye)      :      1.35767

Rotational constants in cm-1:     0.018017     0.008734     0.007408
Rotational constants in MHz :   540.129000   261.838159   222.092330

                             ****ORCA TERMINATED NORMALLY****
TOTAL RUN TIME: 0 days 0 hours 0 minutes 21 seconds 807 msec
