                         Program Version 4.2.1 -  RELEASE  -
|  1> ! wB97X-D3 SP def2-SVP
|  2> %pal
|  3> nprocs 24
|  4> end
|  5>
|  6> * xyz 0 1
|  7> S 	 47.7184 	 -35.3064 	 -123.172
|  8> C 	 46.6797 	 -34.4418 	 -124.346
|  9> C 	 45.7071 	 -33.6531 	 -123.776
| 10> C 	 45.7694 	 -33.7961 	 -122.349
| 11> C 	 46.6412 	 -34.8068 	 -121.884
| 12> H 	 45.2015 	 -33.2737 	 -121.604
| 13> C 	 44.525 	 -33.0436 	 -124.481
| 14> H 	 43.5628 	 -33.1103 	 -123.844
| 15> H 	 44.3742 	 -33.5817 	 -125.383
| 16> C 	 44.6913 	 -31.5982 	 -124.805
| 17> H 	 45.654 	 -31.5095 	 -125.379
| 18> H 	 43.8072 	 -31.3992 	 -125.464
| 19> C 	 44.7422 	 -30.5928 	 -123.633
| 20> H 	 45.6352 	 -30.7284 	 -123.058
| 21> H 	 44.5844 	 -29.5844 	 -123.898
| 22> H 	 43.8544 	 -30.8547 	 -123.075
| 23> S 	 48.506 	 -34.6828 	 -119.904
| 24> C 	 48.1969 	 -35.3458 	 -118.31
| 25> C 	 46.8621 	 -35.7397 	 -118.168
| 26> C 	 46.16 	 -35.6357 	 -119.452
| 27> C 	 46.9159 	 -35.1584 	 -120.514
| 28> H 	 46.487 	 -36.0658 	 -117.211
| 29> C 	 44.7623 	 -36.0151 	 -119.596
| 30> H 	 44.5661 	 -36.785 	 -118.871
| 31> H 	 44.5792 	 -36.4322 	 -120.604
| 32> C 	 43.816 	 -34.9015 	 -119.366
| 33> H 	 43.9242 	 -34.1352 	 -120.202
| 34> H 	 44.1797 	 -34.3628 	 -118.528
| 35> C 	 42.374 	 -35.2913 	 -119.295
| 36> H 	 41.7898 	 -34.432 	 -119.181
| 37> H 	 42.2438 	 -35.8249 	 -118.348
| 38> H 	 41.9985 	 -35.9286 	 -120.009
| 39> H 	 46.6023 	 -34.5488 	 -125.42
| 40> H 	 48.8657 	 -35.4047 	 -117.51
| 41> *
| 42>
| 43>                          ****END OF INPUT****

CARTESIAN COORDINATES (ANGSTROEM)
---------------------------------
  S     47.718400  -35.306400  -123.172000
  C     46.679700  -34.441800  -124.346000
  C     45.707100  -33.653100  -123.776000
  C     45.769400  -33.796100  -122.349000
  C     46.641200  -34.806800  -121.884000
  H     45.201500  -33.273700  -121.604000
  C     44.525000  -33.043600  -124.481000
  H     43.562800  -33.110300  -123.844000
  H     44.374200  -33.581700  -125.383000
  C     44.691300  -31.598200  -124.805000
  H     45.654000  -31.509500  -125.379000
  H     43.807200  -31.399200  -125.464000
  C     44.742200  -30.592800  -123.633000
  H     45.635200  -30.728400  -123.058000
  H     44.584400  -29.584400  -123.898000
  H     43.854400  -30.854700  -123.075000
  S     48.506000  -34.682800  -119.904000
  C     48.196900  -35.345800  -118.310000
  C     46.862100  -35.739700  -118.168000
  C     46.160000  -35.635700  -119.452000
  C     46.915900  -35.158400  -120.514000
  H     46.487000  -36.065800  -117.211000
  C     44.762300  -36.015100  -119.596000
  H     44.566100  -36.785000  -118.871000
  H     44.579200  -36.432200  -120.604000
  C     43.816000  -34.901500  -119.366000
  H     43.924200  -34.135200  -120.202000
  H     44.179700  -34.362800  -118.528000
  C     42.374000  -35.291300  -119.295000
  H     41.789800  -34.432000  -119.181000
  H     42.243800  -35.824900  -118.348000
  H     41.998500  -35.928600  -120.009000
  H     46.602300  -34.548800  -125.420000
  H     48.865700  -35.404700  -117.510000

 Total Charge           Charge          ....    0
 Multiplicity           Mult            ....    1
 Number of Electrons    NEL             ....  134
 Basis Dimension        Dim             ....  322

ORBITAL ENERGIES
----------------

  NO   OCC          E(Eh)            E(eV)
   0   2.0000     -88.971283     -2421.0317
   1   2.0000     -88.961806     -2420.7738
   2   2.0000     -10.332253      -281.1549
   3   2.0000     -10.324316      -280.9389
   4   2.0000     -10.317782      -280.7611
   5   2.0000     -10.316753      -280.7331
   6   2.0000     -10.302693      -280.3505
   7   2.0000     -10.301798      -280.3262
   8   2.0000     -10.299207      -280.2557
   9   2.0000     -10.298227      -280.2290
  10   2.0000     -10.296817      -280.1906
  11   2.0000     -10.289970      -280.0043
  12   2.0000     -10.278681      -279.6971
  13   2.0000     -10.277551      -279.6664
  14   2.0000     -10.273369      -279.5526
  15   2.0000     -10.265041      -279.3260
  16   2.0000      -8.085063      -220.0057
  17   2.0000      -8.076334      -219.7682
  18   2.0000      -6.043764      -164.4592
  19   2.0000      -6.039784      -164.3509
  20   2.0000      -6.035572      -164.2363
  21   2.0000      -6.034997      -164.2206
  22   2.0000      -6.030775      -164.1057
  23   2.0000      -6.027035      -164.0040
  24   2.0000      -1.004058       -27.3218
  25   2.0000      -0.980099       -26.6699
  26   2.0000      -0.922864       -25.1124
  27   2.0000      -0.919647       -25.0249
  28   2.0000      -0.871172       -23.7058
  29   2.0000      -0.854312       -23.2470
  30   2.0000      -0.844024       -22.9671
  31   2.0000      -0.815181       -22.1822
  32   2.0000      -0.790938       -21.5225
  33   2.0000      -0.775870       -21.1125
  34   2.0000      -0.709748       -19.3132
  35   2.0000      -0.696417       -18.9505
  36   2.0000      -0.694387       -18.8952
  37   2.0000      -0.667142       -18.1539
  38   2.0000      -0.638412       -17.3721
  39   2.0000      -0.615898       -16.7594
  40   2.0000      -0.599139       -16.3034
  41   2.0000      -0.582234       -15.8434
  42   2.0000      -0.568465       -15.4687
  43   2.0000      -0.552524       -15.0349
  44   2.0000      -0.547042       -14.8858
  45   2.0000      -0.532943       -14.5021
  46   2.0000      -0.519822       -14.1451
  47   2.0000      -0.516781       -14.0623
  48   2.0000      -0.505676       -13.7601
  49   2.0000      -0.499427       -13.5901
  50   2.0000      -0.496763       -13.5176
  51   2.0000      -0.477123       -12.9832
  52   2.0000      -0.474704       -12.9173
  53   2.0000      -0.466951       -12.7064
  54   2.0000      -0.460760       -12.5379
  55   2.0000      -0.452752       -12.3200
  56   2.0000      -0.443888       -12.0788
  57   2.0000      -0.440963       -11.9992
  58   2.0000      -0.438952       -11.9445
  59   2.0000      -0.423105       -11.5133
  60   2.0000      -0.418886       -11.3985
  61   2.0000      -0.412143       -11.2150
  62   2.0000      -0.402625       -10.9560
  63   2.0000      -0.339908        -9.2494
  64   2.0000      -0.332562        -9.0495
  65   2.0000      -0.323066        -8.7911
  66   2.0000      -0.296196        -8.0599
  67   0.0000       0.027720         0.7543
  68   0.0000       0.059224         1.6116
  69   0.0000       0.105572         2.8728
  70   0.0000       0.109752         2.9865
  71   0.0000       0.126072         3.4306

MULLIKEN ATOMIC CHARGES
-----------------------
   0 S :    0.120740
   1 C :   -0.094720
   2 C :   -0.079887
   3 C :    0.037055
   4 C :   -0.172570
   5 H :    0.016477
   6 C :    0.057326
   7 H :    0.042544
   8 H :    0.018107
   9 C :   -0.115437
  10 H :    0.031025
  11 H :    0.034686
  12 C :   -0.008642
  13 H :    0.045516
  14 H :    0.031287
  15 H :    0.010204
  16 S :    0.094589
  17 C :   -0.062646
  18 C :   -0.032053
  19 C :   -0.059149
  20 C :   -0.145133
  21 H :    0.019678
  22 C :    0.086971
  23 H :    0.003412
  24 H :    0.030146
  25 C :   -0.096599
  26 H :    0.012837
  27 H :    0.010696
  28 C :    0.044504
  29 H :    0.018417
  30 H :    0.011697
  31 H :    0.016209
  32 H :    0.037171
  33 H :    0.035543
Sum of atomic charges:   -0.0000000

LOEWDIN ATOMIC CHARGES
----------------------
   0 S :    0.396025
   1 C :   -0.181296
   2 C :   -0.065878
   3 C :   -0.046714
   4 C :   -0.199524
   5 H :    0.022799
   6 C :   -0.031859
   7 H :    0.039442
   8 H :    0.028489
   9 C :   -0.046068
  10 H :    0.024629
  11 H :    0.027495
  12 C :   -0.059211
  13 H :    0.026607
  14 H :    0.023652
  15 H :    0.022466
  16 S :    0.393099
  17 C :   -0.170152
  18 C :   -0.068911
  19 C :   -0.049868
  20 C :   -0.201345
  21 H :    0.031363
  22 C :   -0.037848
  23 H :    0.025436
  24 H :    0.035368
  25 C :   -0.041155
  26 H :    0.023317
  27 H :    0.018659
  28 C :   -0.051357
  29 H :    0.022755
  30 H :    0.027347
  31 H :    0.016403
  32 H :    0.027793
  33 H :    0.018041

  Mayer bond orders larger than 0.100000
B(  0-S ,  1-C ) :   1.1268 B(  0-S ,  4-C ) :   1.1303 B(  1-C ,  2-C ) :   1.6523
B(  1-C , 32-H ) :   0.9542 B(  2-C ,  3-C ) :   1.2118 B(  2-C ,  6-C ) :   1.0109
B(  3-C ,  4-C ) :   1.5880 B(  3-C ,  5-H ) :   0.9841 B(  4-C , 20-C ) :   1.0444
B(  6-C ,  7-H ) :   0.9459 B(  6-C ,  8-H ) :   0.9359 B(  6-C ,  9-C ) :   1.0763
B(  9-C , 10-H ) :   0.9528 B(  9-C , 11-H ) :   0.9554 B(  9-C , 12-C ) :   1.0766
B( 12-C , 13-H ) :   0.9733 B( 12-C , 14-H ) :   0.9743 B( 12-C , 15-H ) :   0.9707
B( 16-S , 17-C ) :   1.1570 B( 16-S , 20-C ) :   1.1172 B( 17-C , 18-C ) :   1.6136
B( 17-C , 33-H ) :   0.9728 B( 18-C , 19-C ) :   1.2136 B( 18-C , 21-H ) :   0.9933
B( 19-C , 20-C ) :   1.6204 B( 19-C , 22-C ) :   1.0768 B( 22-C , 23-H ) :   0.9252
B( 22-C , 24-H ) :   0.9193 B( 22-C , 25-C ) :   1.0769 B( 25-C , 26-H ) :   0.9389
B( 25-C , 27-H ) :   0.9498 B( 25-C , 28-C ) :   1.0916 B( 28-C , 29-H ) :   0.9673
B( 28-C , 30-H ) :   0.9668 B( 28-C , 31-H ) :   0.9709

Dispersion correction           -0.014600737
FINAL SINGLE POINT ENERGY     -1339.859555567381

DIPOLE MOMENT
-------------
                                X             Y             Z
Electronic contribution:     26.22118     -10.91482       1.27166
Nuclear contribution   :    -26.96392      11.10323      -1.17411
                        -----------------------------------------
Total Dipole Moment    :     -0.74273       0.18841       0.09755
                        -----------------------------------------
Magnitude (a.u.)       :      0.77244
Magnitude (Debye)      :      1.96339

Rotational constants in cm-1:     0.017314     0.009393     0.007237
Rotational constants in MHz :   519.068649   281.607461   216.966624

                             ****ORCA TERMINATED NORMALLY****
TOTAL RUN TIME: 0 days 0 hours 0 minutes 22 seconds 204 msec
