                         Program Version 4.2.1 -  RELEASE  -
|  1> ! wB97X-D3 SP def2-SVP
|  2> %pal
|  3> nprocs 24
|  4> end
|  5>
|  6> * xyz 0 1
|  7> S 	 -58.5207 	 19.2655 	 21.725
|  8> C 	 -58.9383 	 19.0404 	 23.3712
|  9> C 	 -57.8863 	 19.0194 	 24.2217
| 10> C 	 -56.663 	 19.4006 	 23.559
| 11> C 	 -56.7862 	 19.6664 	 22.1996
| 12> H 	 -55.7036 	 19.4769 	 24.093
| 13> C 	 -58.0185 	 18.7577 	 25.6928
| 14> H 	 -57.0595 	 18.5365 	 26.1476
| 15> H 	 -58.7105 	 17.9056 	 25.8801
| 16> C 	 -58.6327 	 19.973 	 26.5302
| 17> H 	 -58.0331 	 20.8467 	 26.4449
| 18> H 	 -59.5604 	 20.2531 	 26.0954
| 19> C 	 -58.7179 	 19.5782 	 28.0313
| 20> H 	 -59.0973 	 18.6062 	 28.2715
| 21> H 	 -57.7934 	 19.6029 	 28.6181
| 22> H 	 -59.4526 	 20.2092 	 28.6257
| 23> S 	 -55.6519 	 18.66 	 19.867
| 24> C 	 -54.1193 	 19.2586 	 19.3596
| 25> C 	 -53.6528 	 20.2085 	 20.2457
| 26> C 	 -54.4483 	 20.357 	 21.3946
| 27> C 	 -55.6939 	 19.7429 	 21.2607
| 28> H 	 -52.8813 	 20.9308 	 20.0768
| 29> C 	 -54.2316 	 21.4009 	 22.4203
| 30> H 	 -55.1477 	 21.7711 	 22.7639
| 31> H 	 -53.7321 	 22.1984 	 21.8224
| 32> C 	 -53.2262 	 20.9875 	 23.5581
| 33> H 	 -53.6362 	 20.04 	 23.9974
| 34> H 	 -53.1467 	 21.7549 	 24.3264
| 35> C 	 -51.7697 	 20.7941 	 23.0899
| 36> H 	 -51.7381 	 20.0039 	 22.3222
| 37> H 	 -51.1562 	 20.4803 	 23.9571
| 38> H 	 -51.2395 	 21.6438 	 22.6702
| 39> H 	 -59.9082 	 18.8742 	 23.7682
| 40> H 	 -53.6297 	 18.9555 	 18.4634
| 41> *
| 42>
| 43>                          ****END OF INPUT****

CARTESIAN COORDINATES (ANGSTROEM)
---------------------------------
  S    -58.520700   19.265500   21.725000
  C    -58.938300   19.040400   23.371200
  C    -57.886300   19.019400   24.221700
  C    -56.663000   19.400600   23.559000
  C    -56.786200   19.666400   22.199600
  H    -55.703600   19.476900   24.093000
  C    -58.018500   18.757700   25.692800
  H    -57.059500   18.536500   26.147600
  H    -58.710500   17.905600   25.880100
  C    -58.632700   19.973000   26.530200
  H    -58.033100   20.846700   26.444900
  H    -59.560400   20.253100   26.095400
  C    -58.717900   19.578200   28.031300
  H    -59.097300   18.606200   28.271500
  H    -57.793400   19.602900   28.618100
  H    -59.452600   20.209200   28.625700
  S    -55.651900   18.660000   19.867000
  C    -54.119300   19.258600   19.359600
  C    -53.652800   20.208500   20.245700
  C    -54.448300   20.357000   21.394600
  C    -55.693900   19.742900   21.260700
  H    -52.881300   20.930800   20.076800
  C    -54.231600   21.400900   22.420300
  H    -55.147700   21.771100   22.763900
  H    -53.732100   22.198400   21.822400
  C    -53.226200   20.987500   23.558100
  H    -53.636200   20.040000   23.997400
  H    -53.146700   21.754900   24.326400
  C    -51.769700   20.794100   23.089900
  H    -51.738100   20.003900   22.322200
  H    -51.156200   20.480300   23.957100
  H    -51.239500   21.643800   22.670200
  H    -59.908200   18.874200   23.768200
  H    -53.629700   18.955500   18.463400

 Total Charge           Charge          ....    0
 Multiplicity           Mult            ....    1
 Number of Electrons    NEL             ....  134
 Basis Dimension        Dim             ....  322

ORBITAL ENERGIES
----------------

  NO   OCC          E(Eh)            E(eV)
   0   2.0000     -88.968746     -2420.9627
   1   2.0000     -88.964802     -2420.8553
   2   2.0000     -10.336805      -281.2788
   3   2.0000     -10.325768      -280.9784
   4   2.0000     -10.314243      -280.6648
   5   2.0000     -10.309814      -280.5443
   6   2.0000     -10.302377      -280.3419
   7   2.0000     -10.298312      -280.2313
   8   2.0000     -10.298018      -280.2233
   9   2.0000     -10.294807      -280.1359
  10   2.0000     -10.294131      -280.1175
  11   2.0000     -10.291000      -280.0324
  12   2.0000     -10.289798      -279.9996
  13   2.0000     -10.286789      -279.9178
  14   2.0000     -10.284061      -279.8435
  15   2.0000     -10.280384      -279.7435
  16   2.0000      -8.082726      -219.9422
  17   2.0000      -8.079793      -219.8623
  18   2.0000      -6.041392      -164.3946
  19   2.0000      -6.038246      -164.3090
  20   2.0000      -6.037474      -164.2880
  21   2.0000      -6.034183      -164.1985
  22   2.0000      -6.033221      -164.1723
  23   2.0000      -6.030683      -164.1032
  24   2.0000      -1.007791       -27.4234
  25   2.0000      -0.986844       -26.8534
  26   2.0000      -0.909627       -24.7522
  27   2.0000      -0.906215       -24.6594
  28   2.0000      -0.873555       -23.7706
  29   2.0000      -0.851755       -23.1774
  30   2.0000      -0.846385       -23.0313
  31   2.0000      -0.814967       -22.1764
  32   2.0000      -0.782137       -21.2830
  33   2.0000      -0.768867       -20.9219
  34   2.0000      -0.713178       -19.4066
  35   2.0000      -0.710369       -19.3301
  36   2.0000      -0.695523       -18.9261
  37   2.0000      -0.668582       -18.1930
  38   2.0000      -0.639856       -17.4114
  39   2.0000      -0.617710       -16.8087
  40   2.0000      -0.596381       -16.2283
  41   2.0000      -0.571754       -15.5582
  42   2.0000      -0.558385       -15.1944
  43   2.0000      -0.554510       -15.0890
  44   2.0000      -0.547894       -14.9090
  45   2.0000      -0.516812       -14.0632
  46   2.0000      -0.512893       -13.9565
  47   2.0000      -0.507338       -13.8054
  48   2.0000      -0.505756       -13.7623
  49   2.0000      -0.496207       -13.5025
  50   2.0000      -0.495650       -13.4873
  51   2.0000      -0.483630       -13.1602
  52   2.0000      -0.474187       -12.9033
  53   2.0000      -0.467506       -12.7215
  54   2.0000      -0.462905       -12.5963
  55   2.0000      -0.452932       -12.3249
  56   2.0000      -0.445756       -12.1296
  57   2.0000      -0.433218       -11.7885
  58   2.0000      -0.430529       -11.7153
  59   2.0000      -0.428220       -11.6525
  60   2.0000      -0.424593       -11.5538
  61   2.0000      -0.422075       -11.4853
  62   2.0000      -0.414062       -11.2672
  63   2.0000      -0.359800        -9.7907
  64   2.0000      -0.330176        -8.9845
  65   2.0000      -0.327775        -8.9192
  66   2.0000      -0.283785        -7.7222
  67   0.0000       0.021217         0.5773
  68   0.0000       0.067721         1.8428
  69   0.0000       0.107359         2.9214
  70   0.0000       0.120728         3.2852
  71   0.0000       0.128090         3.4855

MULLIKEN ATOMIC CHARGES
-----------------------
   0 S :    0.102628
   1 C :   -0.087696
   2 C :   -0.077673
   3 C :    0.027907
   4 C :   -0.140534
   5 H :    0.008291
   6 C :    0.030205
   7 H :    0.022369
   8 H :    0.037993
   9 C :   -0.023784
  10 H :    0.025688
  11 H :    0.017062
  12 C :   -0.071074
  13 H :    0.015427
  14 H :    0.034712
  15 H :    0.034637
  16 S :    0.105000
  17 C :   -0.081429
  18 C :   -0.004917
  19 C :   -0.069089
  20 C :   -0.133155
  21 H :    0.013972
  22 C :    0.052310
  23 H :    0.022195
  24 H :    0.022266
  25 C :   -0.068640
  26 H :    0.042431
  27 H :    0.032475
  28 C :   -0.079787
  29 H :    0.038059
  30 H :    0.039177
  31 H :    0.031535
  32 H :    0.030418
  33 H :    0.051019
Sum of atomic charges:    0.0000000

LOEWDIN ATOMIC CHARGES
----------------------
   0 S :    0.382332
   1 C :   -0.189992
   2 C :   -0.073123
   3 C :   -0.047660
   4 C :   -0.173183
   5 H :    0.032799
   6 C :   -0.029685
   7 H :    0.027772
   8 H :    0.035091
   9 C :   -0.026501
  10 H :    0.022259
  11 H :    0.017476
  12 C :   -0.078373
  13 H :    0.018650
  14 H :    0.027379
  15 H :    0.033677
  16 S :    0.412714
  17 C :   -0.189537
  18 C :   -0.069910
  19 C :   -0.064684
  20 C :   -0.191307
  21 H :    0.028296
  22 C :   -0.028354
  23 H :    0.022211
  24 H :    0.034834
  25 C :   -0.036561
  26 H :    0.024633
  27 H :    0.022949
  28 C :   -0.073036
  29 H :    0.025028
  30 H :    0.031435
  31 H :    0.022605
  32 H :    0.024185
  33 H :    0.025580

  Mayer bond orders larger than 0.100000
B(  0-S ,  1-C ) :   1.1397 B(  0-S ,  4-C ) :   1.1135 B(  1-C ,  2-C ) :   1.6243
B(  1-C , 32-H ) :   0.9636 B(  2-C ,  3-C ) :   1.2546 B(  2-C ,  6-C ) :   1.0367
B(  3-C ,  4-C ) :   1.5546 B(  3-C ,  5-H ) :   0.9806 B(  4-C , 20-C ) :   1.0828
B(  6-C ,  7-H ) :   0.9435 B(  6-C ,  8-H ) :   0.9423 B(  6-C ,  9-C ) :   1.0555
B(  9-C , 10-H ) :   0.9573 B(  9-C , 11-H ) :   0.9603 B(  9-C , 12-C ) :   1.0658
B( 12-C , 13-H ) :   0.9762 B( 12-C , 14-H ) :   0.9773 B( 12-C , 15-H ) :   0.9746
B( 16-S , 17-C ) :   1.1675 B( 16-S , 20-C ) :   1.1391 B( 17-C , 18-C ) :   1.5677
B( 17-C , 20-C ) :   0.1013 B( 17-C , 33-H ) :   0.9726 B( 18-C , 19-C ) :   1.2804
B( 18-C , 21-H ) :   0.9822 B( 19-C , 20-C ) :   1.5623 B( 19-C , 22-C ) :   1.0419
B( 22-C , 23-H ) :   0.9436 B( 22-C , 24-H ) :   0.9421 B( 22-C , 25-C ) :   1.0483
B( 25-C , 26-H ) :   0.9506 B( 25-C , 27-H ) :   0.9580 B( 25-C , 28-C ) :   1.0788
B( 28-C , 29-H ) :   0.9724 B( 28-C , 30-H ) :   0.9721 B( 28-C , 31-H ) :   0.9753

Dispersion correction           -0.014252995
FINAL SINGLE POINT ENERGY     -1339.875418603567

DIPOLE MOMENT
-------------
                                X             Y             Z
Electronic contribution:     -9.07115      -7.64084     -27.81684
Nuclear contribution   :      9.31102       7.81385      28.44624
                        -----------------------------------------
Total Dipole Moment    :      0.23987       0.17300       0.62941
                        -----------------------------------------
Magnitude (a.u.)       :      0.69543
Magnitude (Debye)      :      1.76764

Rotational constants in cm-1:     0.019448     0.008376     0.006162
Rotational constants in MHz :   583.021527   251.107140   184.745896

                             ****ORCA TERMINATED NORMALLY****
TOTAL RUN TIME: 0 days 0 hours 0 minutes 21 seconds 539 msec
