                         Program Version 4.2.1 -  RELEASE  -
|  1> ! wB97X-D3 SP def2-SVP
|  2> %pal
|  3> nprocs 24
|  4> end
|  5>
|  6> * xyz 0 1
|  7> S 	 -125.073 	 63.1788 	 -56.974
|  8> C 	 -125.553 	 63.8136 	 -58.531
|  9> C 	 -126.102 	 62.7965 	 -59.3214
| 10> C 	 -126.452 	 61.6455 	 -58.5666
| 11> C 	 -126.099 	 61.7337 	 -57.2175
| 12> H 	 -126.828 	 60.7381 	 -58.9821
| 13> C 	 -126.459 	 62.9077 	 -60.7755
| 14> H 	 -125.783 	 62.3119 	 -61.3107
| 15> H 	 -126.164 	 63.9491 	 -61.0767
| 16> C 	 -127.935 	 62.6963 	 -61.1179
| 17> H 	 -128.027 	 62.4049 	 -62.1273
| 18> H 	 -128.343 	 61.9045 	 -60.4437
| 19> C 	 -128.805 	 63.9241 	 -60.7598
| 20> H 	 -128.396 	 64.8895 	 -61.1065
| 21> H 	 -129.84 	 63.6995 	 -61.0863
| 22> H 	 -129.098 	 64.0042 	 -59.6982
| 23> S 	 -125.992 	 61.2344 	 -54.5138
| 24> C 	 -126.539 	 59.6737 	 -53.7869
| 25> C 	 -127.298 	 59.0768 	 -54.7559
| 26> C 	 -127.2 	 59.6508 	 -56.0809
| 27> C 	 -126.444 	 60.788 	 -56.1685
| 28> H 	 -127.718 	 58.1241 	 -54.5201
| 29> C 	 -127.948 	 58.9468 	 -57.2023
| 30> H 	 -128.32 	 57.9816 	 -56.8263
| 31> H 	 -127.184 	 58.7191 	 -57.8906
| 32> C 	 -129.127 	 59.7213 	 -57.7308
| 33> H 	 -128.942 	 60.7678 	 -57.9808
| 34> H 	 -129.878 	 59.7379 	 -57.0039
| 35> C 	 -129.626 	 59.032 	 -58.9828
| 36> H 	 -130.001 	 58.0726 	 -58.6399
| 37> H 	 -128.863 	 58.9096 	 -59.6863
| 38> H 	 -130.503 	 59.598 	 -59.4512
| 39> H 	 -125.105 	 64.7305 	 -58.922
| 40> H 	 -126.438 	 59.3821 	 -52.7287
| 41> *
| 42>
| 43>                          ****END OF INPUT****

CARTESIAN COORDINATES (ANGSTROEM)
---------------------------------
  S    -125.073000   63.178800  -56.974000
  C    -125.553000   63.813600  -58.531000
  C    -126.102000   62.796500  -59.321400
  C    -126.452000   61.645500  -58.566600
  C    -126.099000   61.733700  -57.217500
  H    -126.828000   60.738100  -58.982100
  C    -126.459000   62.907700  -60.775500
  H    -125.783000   62.311900  -61.310700
  H    -126.164000   63.949100  -61.076700
  C    -127.935000   62.696300  -61.117900
  H    -128.027000   62.404900  -62.127300
  H    -128.343000   61.904500  -60.443700
  C    -128.805000   63.924100  -60.759800
  H    -128.396000   64.889500  -61.106500
  H    -129.840000   63.699500  -61.086300
  H    -129.098000   64.004200  -59.698200
  S    -125.992000   61.234400  -54.513800
  C    -126.539000   59.673700  -53.786900
  C    -127.298000   59.076800  -54.755900
  C    -127.200000   59.650800  -56.080900
  C    -126.444000   60.788000  -56.168500
  H    -127.718000   58.124100  -54.520100
  C    -127.948000   58.946800  -57.202300
  H    -128.320000   57.981600  -56.826300
  H    -127.184000   58.719100  -57.890600
  C    -129.127000   59.721300  -57.730800
  H    -128.942000   60.767800  -57.980800
  H    -129.878000   59.737900  -57.003900
  C    -129.626000   59.032000  -58.982800
  H    -130.001000   58.072600  -58.639900
  H    -128.863000   58.909600  -59.686300
  H    -130.503000   59.598000  -59.451200
  H    -125.105000   64.730500  -58.922000
  H    -126.438000   59.382100  -52.728700

 Total Charge           Charge          ....    0
 Multiplicity           Mult            ....    1
 Number of Electrons    NEL             ....  134
 Basis Dimension        Dim             ....  322

ORBITAL ENERGIES
----------------

  NO   OCC          E(Eh)            E(eV)
   0   2.0000     -88.968552     -2420.9574
   1   2.0000     -88.957658     -2420.6610
   2   2.0000     -10.338680      -281.3298
   3   2.0000     -10.331371      -281.1309
   4   2.0000     -10.324161      -280.9347
   5   2.0000     -10.316845      -280.7356
   6   2.0000     -10.303201      -280.3644
   7   2.0000     -10.302940      -280.3572
   8   2.0000     -10.294706      -280.1332
   9   2.0000     -10.293698      -280.1058
  10   2.0000     -10.289904      -280.0025
  11   2.0000     -10.289706      -279.9971
  12   2.0000     -10.289184      -279.9829
  13   2.0000     -10.281793      -279.7818
  14   2.0000     -10.277904      -279.6760
  15   2.0000     -10.277486      -279.6646
  16   2.0000      -8.082471      -219.9352
  17   2.0000      -8.071731      -219.6430
  18   2.0000      -6.041136      -164.3877
  19   2.0000      -6.037220      -164.2811
  20   2.0000      -6.032978      -164.1657
  21   2.0000      -6.030606      -164.1011
  22   2.0000      -6.026353      -163.9854
  23   2.0000      -6.022099      -163.8696
  24   2.0000      -1.004301       -27.3284
  25   2.0000      -0.981807       -26.7163
  26   2.0000      -0.919111       -25.0103
  27   2.0000      -0.913001       -24.8440
  28   2.0000      -0.871487       -23.7144
  29   2.0000      -0.851688       -23.1756
  30   2.0000      -0.843341       -22.9485
  31   2.0000      -0.818200       -22.2643
  32   2.0000      -0.779015       -21.1981
  33   2.0000      -0.771061       -20.9816
  34   2.0000      -0.713404       -19.4127
  35   2.0000      -0.704495       -19.1703
  36   2.0000      -0.694818       -18.9070
  37   2.0000      -0.666963       -18.1490
  38   2.0000      -0.638664       -17.3789
  39   2.0000      -0.627449       -17.0738
  40   2.0000      -0.592934       -16.1346
  41   2.0000      -0.577721       -15.7206
  42   2.0000      -0.568657       -15.4739
  43   2.0000      -0.557391       -15.1674
  44   2.0000      -0.539196       -14.6723
  45   2.0000      -0.531398       -14.4601
  46   2.0000      -0.522301       -14.2125
  47   2.0000      -0.517075       -14.0703
  48   2.0000      -0.503298       -13.6954
  49   2.0000      -0.499577       -13.5942
  50   2.0000      -0.488800       -13.3009
  51   2.0000      -0.486671       -13.2430
  52   2.0000      -0.473484       -12.8842
  53   2.0000      -0.467287       -12.7155
  54   2.0000      -0.455601       -12.3975
  55   2.0000      -0.447058       -12.1651
  56   2.0000      -0.445038       -12.1101
  57   2.0000      -0.439538       -11.9604
  58   2.0000      -0.431583       -11.7440
  59   2.0000      -0.423748       -11.5308
  60   2.0000      -0.421356       -11.4657
  61   2.0000      -0.413816       -11.2605
  62   2.0000      -0.400841       -10.9074
  63   2.0000      -0.366174        -9.9641
  64   2.0000      -0.331385        -9.0174
  65   2.0000      -0.323141        -8.7931
  66   2.0000      -0.282117        -7.6768
  67   0.0000       0.010411         0.2833
  68   0.0000       0.085334         2.3220
  69   0.0000       0.090771         2.4700
  70   0.0000       0.114715         3.1216
  71   0.0000       0.125327         3.4103

MULLIKEN ATOMIC CHARGES
-----------------------
   0 S :    0.111768
   1 C :   -0.121403
   2 C :   -0.100362
   3 C :   -0.021593
   4 C :   -0.095584
   5 H :    0.005673
   6 C :    0.093284
   7 H :    0.023744
   8 H :    0.008501
   9 C :   -0.054470
  10 H :    0.027574
  11 H :    0.032198
  12 C :   -0.072484
  13 H :    0.042135
  14 H :    0.026995
  15 H :    0.038256
  16 S :    0.052242
  17 C :   -0.102174
  18 C :   -0.008824
  19 C :   -0.103652
  20 C :   -0.078992
  21 H :    0.013271
  22 C :    0.060183
  23 H :    0.012107
  24 H :    0.025337
  25 C :   -0.054277
  26 H :    0.037392
  27 H :    0.011947
  28 C :   -0.023461
  29 H :    0.020174
  30 H :    0.018464
  31 H :    0.041646
  32 H :    0.058254
  33 H :    0.076129
Sum of atomic charges:    0.0000000

LOEWDIN ATOMIC CHARGES
----------------------
   0 S :    0.392365
   1 C :   -0.201175
   2 C :   -0.058020
   3 C :   -0.064460
   4 C :   -0.169247
   5 H :    0.026221
   6 C :   -0.031905
   7 H :    0.025803
   8 H :    0.031301
   9 C :   -0.036887
  10 H :    0.019257
  11 H :    0.030988
  12 C :   -0.073965
  13 H :    0.024523
  14 H :    0.030874
  15 H :    0.031871
  16 S :    0.358234
  17 C :   -0.164807
  18 C :   -0.072585
  19 C :   -0.060930
  20 C :   -0.178417
  21 H :    0.026516
  22 C :   -0.027169
  23 H :    0.032289
  24 H :    0.023269
  25 C :   -0.037940
  26 H :    0.022820
  27 H :    0.019491
  28 C :   -0.057399
  29 H :    0.022944
  30 H :    0.011748
  31 H :    0.033237
  32 H :    0.030151
  33 H :    0.041001

  Mayer bond orders larger than 0.100000
B(  0-S ,  1-C ) :   1.1326 B(  0-S ,  4-C ) :   1.1429 B(  1-C ,  2-C ) :   1.5894
B(  1-C ,  4-C ) :   0.1022 B(  1-C , 32-H ) :   0.9618 B(  2-C ,  3-C ) :   1.2532
B(  2-C ,  6-C ) :   1.0303 B(  3-C ,  4-C ) :   1.5462 B(  3-C ,  5-H ) :   0.9908
B(  4-C , 20-C ) :   1.1131 B(  6-C ,  7-H ) :   0.9292 B(  6-C ,  8-H ) :   0.9404
B(  6-C ,  9-C ) :   1.0673 B(  9-C , 10-H ) :   0.9557 B(  9-C , 11-H ) :   0.9561
B(  9-C , 12-C ) :   1.0720 B( 12-C , 13-H ) :   0.9769 B( 12-C , 14-H ) :   0.9693
B( 12-C , 15-H ) :   0.9734 B( 16-S , 17-C ) :   1.1292 B( 16-S , 20-C ) :   1.1052
B( 17-C , 18-C ) :   1.6237 B( 17-C , 33-H ) :   0.9668 B( 18-C , 19-C ) :   1.2367
B( 18-C , 21-H ) :   0.9858 B( 19-C , 20-C ) :   1.6053 B( 19-C , 22-C ) :   1.0291
B( 22-C , 23-H ) :   0.9280 B( 22-C , 24-H ) :   0.9380 B( 22-C , 25-C ) :   1.0636
B( 25-C , 26-H ) :   0.9582 B( 25-C , 27-H ) :   0.9439 B( 25-C , 28-C ) :   1.0839
B( 28-C , 29-H ) :   0.9708 B( 28-C , 30-H ) :   0.9751 B( 28-C , 31-H ) :   0.9716

Dispersion correction           -0.015290181
FINAL SINGLE POINT ENERGY     -1339.862776573529

DIPOLE MOMENT
-------------
                                X             Y             Z
Electronic contribution:     20.02111       5.08607      23.61548
Nuclear contribution   :    -20.42666      -5.53648     -24.13696
                        -----------------------------------------
Total Dipole Moment    :     -0.40555      -0.45041      -0.52148
                        -----------------------------------------
Magnitude (a.u.)       :      0.79955
Magnitude (Debye)      :      2.03229

Rotational constants in cm-1:     0.018512     0.010422     0.007122
Rotational constants in MHz :   554.983847   312.457223   213.507762

                             ****ORCA TERMINATED NORMALLY****
TOTAL RUN TIME: 0 days 0 hours 0 minutes 21 seconds 754 msec
