                         Program Version 4.2.1 -  RELEASE  -
|  1> ! wB97X-D3 SP def2-SVP
|  2> %pal
|  3> nprocs 24
|  4> end
|  5>
|  6> * xyz 0 1
|  7> S 	 -100.924 	 15.6583 	 -125.34
|  8> C 	 -101.655 	 16.6005 	 -123.99
|  9> C 	 -101.56 	 15.9325 	 -122.793
| 10> C 	 -101.064 	 14.5683 	 -122.955
| 11> C 	 -100.667 	 14.2742 	 -124.225
| 12> H 	 -100.952 	 13.8653 	 -122.213
| 13> C 	 -101.817 	 16.4984 	 -121.382
| 14> H 	 -101.764 	 15.7436 	 -120.601
| 15> H 	 -102.818 	 16.9457 	 -121.338
| 16> C 	 -100.882 	 17.5366 	 -120.876
| 17> H 	 -100.76 	 18.3926 	 -121.575
| 18> H 	 -101.157 	 17.9985 	 -119.905
| 19> C 	 -99.5297 	 16.9261 	 -120.665
| 20> H 	 -98.8678 	 17.7017 	 -120.243
| 21> H 	 -99.6173 	 16.1379 	 -119.898
| 22> H 	 -99.0824 	 16.3621 	 -121.402
| 23> S 	 -98.3157 	 12.9647 	 -124.581
| 24> C 	 -98.353 	 11.3004 	 -125.221
| 25> C 	 -99.6204 	 10.8521 	 -125.478
| 26> C 	 -100.607 	 11.8146 	 -125.183
| 27> C 	 -100.039 	 13.0559 	 -124.716
| 28> H 	 -99.8311 	 9.83864 	 -125.912
| 29> C 	 -102.106 	 11.4485 	 -125.44
| 30> H 	 -102.112 	 10.7932 	 -126.322
| 31> H 	 -102.635 	 12.3301 	 -125.648
| 32> C 	 -102.729 	 10.6656 	 -124.215
| 33> H 	 -102.215 	 9.87997 	 -123.863
| 34> H 	 -103.663 	 10.2568 	 -124.54
| 35> C 	 -102.97 	 11.5793 	 -122.948
| 36> H 	 -103.694 	 12.3457 	 -123.289
| 37> H 	 -102.001 	 11.9186 	 -122.536
| 38> H 	 -103.347 	 11.034 	 -122.071
| 39> H 	 -102.098 	 17.5806 	 -124.064
| 40> H 	 -97.5331 	 10.6435 	 -125.348
| 41> *
| 42>
| 43>                          ****END OF INPUT****

CARTESIAN COORDINATES (ANGSTROEM)
---------------------------------
  S    -100.924000   15.658300  -125.340000
  C    -101.655000   16.600500  -123.990000
  C    -101.560000   15.932500  -122.793000
  C    -101.064000   14.568300  -122.955000
  C    -100.667000   14.274200  -124.225000
  H    -100.952000   13.865300  -122.213000
  C    -101.817000   16.498400  -121.382000
  H    -101.764000   15.743600  -120.601000
  H    -102.818000   16.945700  -121.338000
  C    -100.882000   17.536600  -120.876000
  H    -100.760000   18.392600  -121.575000
  H    -101.157000   17.998500  -119.905000
  C    -99.529700   16.926100  -120.665000
  H    -98.867800   17.701700  -120.243000
  H    -99.617300   16.137900  -119.898000
  H    -99.082400   16.362100  -121.402000
  S    -98.315700   12.964700  -124.581000
  C    -98.353000   11.300400  -125.221000
  C    -99.620400   10.852100  -125.478000
  C    -100.607000   11.814600  -125.183000
  C    -100.039000   13.055900  -124.716000
  H    -99.831100    9.838640  -125.912000
  C    -102.106000   11.448500  -125.440000
  H    -102.112000   10.793200  -126.322000
  H    -102.635000   12.330100  -125.648000
  C    -102.729000   10.665600  -124.215000
  H    -102.215000    9.879970  -123.863000
  H    -103.663000   10.256800  -124.540000
  C    -102.970000   11.579300  -122.948000
  H    -103.694000   12.345700  -123.289000
  H    -102.001000   11.918600  -122.536000
  H    -103.347000   11.034000  -122.071000
  H    -102.098000   17.580600  -124.064000
  H    -97.533100   10.643500  -125.348000

 Total Charge           Charge          ....    0
 Multiplicity           Mult            ....    1
 Number of Electrons    NEL             ....  134
 Basis Dimension        Dim             ....  322

ORBITAL ENERGIES
----------------

  NO   OCC          E(Eh)            E(eV)
   0   2.0000     -88.970540     -2421.0115
   1   2.0000     -88.964923     -2420.8586
   2   2.0000     -10.329351      -281.0759
   3   2.0000     -10.328249      -281.0459
   4   2.0000     -10.318151      -280.7712
   5   2.0000     -10.315478      -280.6984
   6   2.0000     -10.308394      -280.5057
   7   2.0000     -10.306266      -280.4478
   8   2.0000     -10.295748      -280.1615
   9   2.0000     -10.294574      -280.1296
  10   2.0000     -10.291411      -280.0435
  11   2.0000     -10.291226      -280.0385
  12   2.0000     -10.283794      -279.8363
  13   2.0000     -10.279742      -279.7260
  14   2.0000     -10.279342      -279.7151
  15   2.0000     -10.265183      -279.3298
  16   2.0000      -8.084718      -219.9964
  17   2.0000      -8.078239      -219.8201
  18   2.0000      -6.043183      -164.4434
  19   2.0000      -6.039294      -164.3376
  20   2.0000      -6.036997      -164.2750
  21   2.0000      -6.035570      -164.2362
  22   2.0000      -6.033021      -164.1668
  23   2.0000      -6.028740      -164.0504
  24   2.0000      -0.999857       -27.2075
  25   2.0000      -0.976393       -26.5690
  26   2.0000      -0.918710       -24.9994
  27   2.0000      -0.898991       -24.4628
  28   2.0000      -0.870706       -23.6931
  29   2.0000      -0.843917       -22.9642
  30   2.0000      -0.840646       -22.8751
  31   2.0000      -0.814309       -22.1585
  32   2.0000      -0.782742       -21.2995
  33   2.0000      -0.769062       -20.9272
  34   2.0000      -0.708442       -19.2777
  35   2.0000      -0.700198       -19.0534
  36   2.0000      -0.695211       -18.9177
  37   2.0000      -0.655382       -17.8339
  38   2.0000      -0.645111       -17.5544
  39   2.0000      -0.613851       -16.7037
  40   2.0000      -0.595662       -16.2088
  41   2.0000      -0.575329       -15.6555
  42   2.0000      -0.557400       -15.1676
  43   2.0000      -0.547401       -14.8955
  44   2.0000      -0.544120       -14.8063
  45   2.0000      -0.536160       -14.5896
  46   2.0000      -0.517801       -14.0901
  47   2.0000      -0.511871       -13.9287
  48   2.0000      -0.499221       -13.5845
  49   2.0000      -0.491632       -13.3780
  50   2.0000      -0.486752       -13.2452
  51   2.0000      -0.477320       -12.9885
  52   2.0000      -0.466762       -12.7012
  53   2.0000      -0.461008       -12.5447
  54   2.0000      -0.457425       -12.4472
  55   2.0000      -0.450177       -12.2499
  56   2.0000      -0.441364       -12.0101
  57   2.0000      -0.438122       -11.9219
  58   2.0000      -0.431071       -11.7300
  59   2.0000      -0.421365       -11.4659
  60   2.0000      -0.420693       -11.4476
  61   2.0000      -0.415044       -11.2939
  62   2.0000      -0.409928       -11.1547
  63   2.0000      -0.341820        -9.3014
  64   2.0000      -0.329756        -8.9731
  65   2.0000      -0.317834        -8.6487
  66   2.0000      -0.307062        -8.3556
  67   0.0000       0.044591         1.2134
  68   0.0000       0.046920         1.2768
  69   0.0000       0.108330         2.9478
  70   0.0000       0.114560         3.1173
  71   0.0000       0.122293         3.3278

MULLIKEN ATOMIC CHARGES
-----------------------
   0 S :    0.098402
   1 C :   -0.114776
   2 C :   -0.083269
   3 C :    0.095677
   4 C :   -0.174698
   5 H :   -0.018874
   6 C :    0.075311
   7 H :    0.014866
   8 H :    0.030803
   9 C :   -0.064041
  10 H :    0.026398
  11 H :    0.032432
  12 C :   -0.044326
  13 H :    0.034921
  14 H :    0.002352
  15 H :    0.025531
  16 S :    0.128647
  17 C :   -0.075349
  18 C :   -0.054520
  19 C :   -0.031789
  20 C :   -0.201112
  21 H :    0.039548
  22 C :    0.100553
  23 H :    0.029015
  24 H :    0.018837
  25 C :   -0.017678
  26 H :   -0.003495
  27 H :    0.019474
  28 C :   -0.084558
  29 H :    0.050032
  30 H :    0.032253
  31 H :    0.030257
  32 H :    0.044699
  33 H :    0.038477
Sum of atomic charges:    0.0000000

LOEWDIN ATOMIC CHARGES
----------------------
   0 S :    0.362674
   1 C :   -0.175203
   2 C :   -0.056817
   3 C :   -0.041434
   4 C :   -0.183954
   5 H :    0.016017
   6 C :   -0.033220
   7 H :    0.028351
   8 H :    0.032827
   9 C :   -0.045214
  10 H :    0.021998
  11 H :    0.030302
  12 C :   -0.064707
  13 H :    0.029495
  14 H :    0.022071
  15 H :    0.014441
  16 S :    0.416445
  17 C :   -0.173891
  18 C :   -0.077791
  19 C :   -0.047029
  20 C :   -0.223130
  21 H :    0.042867
  22 C :   -0.013919
  23 H :    0.033217
  24 H :    0.022792
  25 C :   -0.024385
  26 H :    0.004833
  27 H :    0.019944
  28 C :   -0.067839
  29 H :    0.030408
  30 H :    0.024568
  31 H :    0.025378
  32 H :    0.028194
  33 H :    0.021710

  Mayer bond orders larger than 0.100000
B(  0-S ,  1-C ) :   1.1154 B(  0-S ,  4-C ) :   1.1204 B(  1-C ,  2-C ) :   1.6629
B(  1-C , 32-H ) :   0.9671 B(  2-C ,  3-C ) :   1.1855 B(  2-C ,  6-C ) :   1.0175
B(  3-C ,  4-C ) :   1.6417 B(  3-C ,  5-H ) :   1.0031 B(  4-C , 20-C ) :   1.0119
B(  6-C ,  7-H ) :   0.9469 B(  6-C ,  8-H ) :   0.9329 B(  6-C ,  9-C ) :   1.0831
B(  9-C , 10-H ) :   0.9517 B(  9-C , 11-H ) :   0.9514 B(  9-C , 12-C ) :   1.0759
B( 12-C , 13-H ) :   0.9718 B( 12-C , 14-H ) :   0.9678 B( 12-C , 15-H ) :   0.9779
B( 16-S , 17-C ) :   1.1516 B( 16-S , 20-C ) :   1.1656 B( 17-C , 18-C ) :   1.6121
B( 17-C , 20-C ) :   0.1074 B( 17-C , 33-H ) :   0.9682 B( 18-C , 19-C ) :   1.2739
B( 18-C , 21-H ) :   0.9747 B( 19-C , 20-C ) :   1.5600 B( 19-C , 22-C ) :   1.0305
B( 22-C , 23-H ) :   0.9413 B( 22-C , 24-H ) :   0.9387 B( 22-C , 25-C ) :   1.0587
B( 25-C , 26-H ) :   0.9592 B( 25-C , 27-H ) :   0.9578 B( 25-C , 28-C ) :   1.0751
B( 28-C , 29-H ) :   0.9789 B( 28-C , 30-H ) :   0.9727 B( 28-C , 31-H ) :   0.9717

Dispersion correction           -0.015650919
FINAL SINGLE POINT ENERGY     -1339.859806402189

DIPOLE MOMENT
-------------
                                X             Y             Z
Electronic contribution:     11.41655       0.60688     -17.51811
Nuclear contribution   :    -11.70198      -0.92390      17.90267
                        -----------------------------------------
Total Dipole Moment    :     -0.28543      -0.31702       0.38456
                        -----------------------------------------
Magnitude (a.u.)       :      0.57433
Magnitude (Debye)      :      1.45984

Rotational constants in cm-1:     0.020200     0.008716     0.007789
Rotational constants in MHz :   605.593166   261.295749   233.507849

                             ****ORCA TERMINATED NORMALLY****
TOTAL RUN TIME: 0 days 0 hours 0 minutes 22 seconds 441 msec
