                         Program Version 4.2.1 -  RELEASE  -
|  1> ! wB97X-D3 SP def2-SVP
|  2> %pal
|  3> nprocs 24
|  4> end
|  5>
|  6> * xyz 0 1
|  7> S 	 -52.4167 	 -51.3685 	 -77.9398
|  8> C 	 -51.5669 	 -51.2294 	 -79.4709
|  9> C 	 -52.0029 	 -50.0277 	 -80.0703
| 10> C 	 -52.8535 	 -49.2201 	 -79.225
| 11> C 	 -53.1779 	 -49.8112 	 -78.0075
| 12> H 	 -53.1149 	 -48.1553 	 -79.5209
| 13> C 	 -51.6272 	 -49.6213 	 -81.4846
| 14> H 	 -52.3715 	 -48.8736 	 -81.7936
| 15> H 	 -51.6808 	 -50.3926 	 -82.2592
| 16> C 	 -50.2564 	 -48.948 	 -81.7339
| 17> H 	 -50.1801 	 -48.6319 	 -82.781
| 18> H 	 -50.113 	 -48.0058 	 -81.1208
| 19> C 	 -48.9887 	 -49.7928 	 -81.4027
| 20> H 	 -48.9576 	 -50.6734 	 -81.9914
| 21> H 	 -48.003 	 -49.3142 	 -81.5855
| 22> H 	 -48.8548 	 -49.9124 	 -80.3705
| 23> S 	 -52.5602 	 -49.1572 	 -75.442
| 24> C 	 -53.8515 	 -48.7752 	 -74.2953
| 25> C 	 -54.8721 	 -48.2387 	 -75.0568
| 26> C 	 -54.9243 	 -48.6636 	 -76.4385
| 27> C 	 -53.7332 	 -49.2153 	 -76.7902
| 28> H 	 -55.6365 	 -47.5936 	 -74.6158
| 29> C 	 -56.0705 	 -48.395 	 -77.3813
| 30> H 	 -56.1221 	 -49.3708 	 -77.9733
| 31> H 	 -55.8175 	 -47.6382 	 -78.0963
| 32> C 	 -57.4561 	 -48.0726 	 -76.8036
| 33> H 	 -57.3874 	 -47.1942 	 -76.1421
| 34> H 	 -57.6998 	 -48.9336 	 -76.1173
| 35> C 	 -58.4973 	 -47.8662 	 -77.9053
| 36> H 	 -59.1748 	 -47.1473 	 -77.572
| 37> H 	 -58.889 	 -48.731 	 -78.2774
| 38> H 	 -58.1084 	 -47.3126 	 -78.7762
| 39> H 	 -51.1282 	 -52.0222 	 -80.0348
| 40> H 	 -53.6442 	 -48.4365 	 -73.2847
| 41> *
| 42>
| 43>                          ****END OF INPUT****

CARTESIAN COORDINATES (ANGSTROEM)
---------------------------------
  S    -52.416700  -51.368500  -77.939800
  C    -51.566900  -51.229400  -79.470900
  C    -52.002900  -50.027700  -80.070300
  C    -52.853500  -49.220100  -79.225000
  C    -53.177900  -49.811200  -78.007500
  H    -53.114900  -48.155300  -79.520900
  C    -51.627200  -49.621300  -81.484600
  H    -52.371500  -48.873600  -81.793600
  H    -51.680800  -50.392600  -82.259200
  C    -50.256400  -48.948000  -81.733900
  H    -50.180100  -48.631900  -82.781000
  H    -50.113000  -48.005800  -81.120800
  C    -48.988700  -49.792800  -81.402700
  H    -48.957600  -50.673400  -81.991400
  H    -48.003000  -49.314200  -81.585500
  H    -48.854800  -49.912400  -80.370500
  S    -52.560200  -49.157200  -75.442000
  C    -53.851500  -48.775200  -74.295300
  C    -54.872100  -48.238700  -75.056800
  C    -54.924300  -48.663600  -76.438500
  C    -53.733200  -49.215300  -76.790200
  H    -55.636500  -47.593600  -74.615800
  C    -56.070500  -48.395000  -77.381300
  H    -56.122100  -49.370800  -77.973300
  H    -55.817500  -47.638200  -78.096300
  C    -57.456100  -48.072600  -76.803600
  H    -57.387400  -47.194200  -76.142100
  H    -57.699800  -48.933600  -76.117300
  C    -58.497300  -47.866200  -77.905300
  H    -59.174800  -47.147300  -77.572000
  H    -58.889000  -48.731000  -78.277400
  H    -58.108400  -47.312600  -78.776200
  H    -51.128200  -52.022200  -80.034800
  H    -53.644200  -48.436500  -73.284700

 Total Charge           Charge          ....    0
 Multiplicity           Mult            ....    1
 Number of Electrons    NEL             ....  134
 Basis Dimension        Dim             ....  322

ORBITAL ENERGIES
----------------

  NO   OCC          E(Eh)            E(eV)
   0   2.0000     -88.965351     -2420.8703
   1   2.0000     -88.958807     -2420.6922
   2   2.0000     -10.332952      -281.1739
   3   2.0000     -10.327887      -281.0361
   4   2.0000     -10.317658      -280.7577
   5   2.0000     -10.316822      -280.7350
   6   2.0000     -10.307468      -280.4805
   7   2.0000     -10.305178      -280.4181
   8   2.0000     -10.303304      -280.3672
   9   2.0000     -10.297599      -280.2119
  10   2.0000     -10.295966      -280.1675
  11   2.0000     -10.294558      -280.1292
  12   2.0000     -10.293713      -280.1062
  13   2.0000     -10.292753      -280.0800
  14   2.0000     -10.270435      -279.4727
  15   2.0000     -10.269859      -279.4571
  16   2.0000      -8.080049      -219.8693
  17   2.0000      -8.073124      -219.6809
  18   2.0000      -6.038537      -164.3169
  19   2.0000      -6.034310      -164.2019
  20   2.0000      -6.031848      -164.1349
  21   2.0000      -6.031004      -164.1120
  22   2.0000      -6.027993      -164.0300
  23   2.0000      -6.023325      -163.9030
  24   2.0000      -1.005973       -27.3739
  25   2.0000      -0.982094       -26.7241
  26   2.0000      -0.910340       -24.7716
  27   2.0000      -0.905543       -24.6411
  28   2.0000      -0.867264       -23.5994
  29   2.0000      -0.852136       -23.1878
  30   2.0000      -0.841126       -22.8882
  31   2.0000      -0.812155       -22.0999
  32   2.0000      -0.784570       -21.3492
  33   2.0000      -0.778959       -21.1966
  34   2.0000      -0.708469       -19.2784
  35   2.0000      -0.701042       -19.0763
  36   2.0000      -0.694743       -18.9049
  37   2.0000      -0.652984       -17.7686
  38   2.0000      -0.638215       -17.3667
  39   2.0000      -0.616137       -16.7659
  40   2.0000      -0.596899       -16.2425
  41   2.0000      -0.576356       -15.6834
  42   2.0000      -0.567966       -15.4551
  43   2.0000      -0.548442       -14.9239
  44   2.0000      -0.539396       -14.6777
  45   2.0000      -0.528802       -14.3894
  46   2.0000      -0.518913       -14.1203
  47   2.0000      -0.508856       -13.8467
  48   2.0000      -0.504430       -13.7262
  49   2.0000      -0.497515       -13.5381
  50   2.0000      -0.488402       -13.2901
  51   2.0000      -0.487056       -13.2535
  52   2.0000      -0.473637       -12.8883
  53   2.0000      -0.461109       -12.5474
  54   2.0000      -0.459017       -12.4905
  55   2.0000      -0.448743       -12.2109
  56   2.0000      -0.442134       -12.0311
  57   2.0000      -0.429598       -11.6900
  58   2.0000      -0.426120       -11.5953
  59   2.0000      -0.423290       -11.5183
  60   2.0000      -0.419473       -11.4144
  61   2.0000      -0.417338       -11.3564
  62   2.0000      -0.406203       -11.0534
  63   2.0000      -0.343237        -9.3400
  64   2.0000      -0.331161        -9.0114
  65   2.0000      -0.314719        -8.5639
  66   2.0000      -0.302090        -8.2203
  67   0.0000       0.024629         0.6702
  68   0.0000       0.057513         1.5650
  69   0.0000       0.101941         2.7740
  70   0.0000       0.112634         3.0649
  71   0.0000       0.139000         3.7824

MULLIKEN ATOMIC CHARGES
-----------------------
   0 S :    0.116588
   1 C :   -0.091635
   2 C :   -0.122077
   3 C :    0.031273
   4 C :   -0.164306
   5 H :    0.038913
   6 C :    0.055984
   7 H :    0.023209
   8 H :    0.031058
   9 C :   -0.092880
  10 H :    0.033702
  11 H :    0.031147
  12 C :   -0.046642
  13 H :    0.020933
  14 H :    0.023698
  15 H :    0.029122
  16 S :    0.089761
  17 C :   -0.078820
  18 C :   -0.061183
  19 C :   -0.018611
  20 C :   -0.153160
  21 H :    0.026333
  22 C :    0.033360
  23 H :    0.046571
  24 H :    0.032034
  25 C :   -0.124251
  26 H :    0.033056
  27 H :    0.042779
  28 C :    0.039761
  29 H :    0.015827
  30 H :    0.024623
  31 H :    0.012215
  32 H :    0.054730
  33 H :    0.066889
Sum of atomic charges:   -0.0000000

LOEWDIN ATOMIC CHARGES
----------------------
   0 S :    0.425622
   1 C :   -0.193735
   2 C :   -0.065354
   3 C :   -0.067224
   4 C :   -0.210634
   5 H :    0.041995
   6 C :   -0.038987
   7 H :    0.034244
   8 H :    0.031532
   9 C :   -0.041750
  10 H :    0.024155
  11 H :    0.027347
  12 C :   -0.073141
  13 H :    0.015869
  14 H :    0.032789
  15 H :    0.020150
  16 S :    0.378363
  17 C :   -0.185436
  18 C :   -0.064279
  19 C :   -0.061355
  20 C :   -0.179712
  21 H :    0.028345
  22 C :   -0.039171
  23 H :    0.045656
  24 H :    0.026745
  25 C :   -0.044235
  26 H :    0.021725
  27 H :    0.032693
  28 C :   -0.052149
  29 H :    0.023928
  30 H :    0.016057
  31 H :    0.030427
  32 H :    0.029119
  33 H :    0.030400

  Mayer bond orders larger than 0.100000
B(  0-S ,  1-C ) :   1.1503 B(  0-S ,  4-C ) :   1.1777 B(  1-C ,  2-C ) :   1.5680
B(  1-C ,  4-C ) :   0.1027 B(  1-C , 32-H ) :   0.9704 B(  2-C ,  3-C ) :   1.2850
B(  2-C ,  6-C ) :   1.0245 B(  3-C ,  4-C ) :   1.5373 B(  3-C ,  5-H ) :   0.9778
B(  4-C , 20-C ) :   1.0140 B(  6-C ,  7-H ) :   0.9388 B(  6-C ,  8-H ) :   0.9466
B(  6-C ,  9-C ) :   1.0711 B(  9-C , 10-H ) :   0.9571 B(  9-C , 11-H ) :   0.9565
B(  9-C , 12-C ) :   1.0794 B( 12-C , 13-H ) :   0.9768 B( 12-C , 14-H ) :   0.9702
B( 12-C , 15-H ) :   0.9725 B( 16-S , 17-C ) :   1.1271 B( 16-S , 20-C ) :   1.1446
B( 17-C , 18-C ) :   1.6324 B( 17-C , 33-H ) :   0.9604 B( 18-C , 19-C ) :   1.2181
B( 18-C , 21-H ) :   0.9750 B( 19-C , 20-C ) :   1.6349 B( 19-C , 22-C ) :   1.0332
B( 22-C , 23-H ) :   0.9318 B( 22-C , 24-H ) :   0.9318 B( 22-C , 25-C ) :   1.0744
B( 25-C , 26-H ) :   0.9519 B( 25-C , 27-H ) :   0.9575 B( 25-C , 28-C ) :   1.0800
B( 28-C , 29-H ) :   0.9697 B( 28-C , 30-H ) :   0.9760 B( 28-C , 31-H ) :   0.9673

Dispersion correction           -0.013549933
FINAL SINGLE POINT ENERGY     -1339.851330662134

DIPOLE MOMENT
-------------
                                X             Y             Z
Electronic contribution:      6.76337      -9.69637      17.88194
Nuclear contribution   :     -7.08880      10.21662     -18.37503
                        -----------------------------------------
Total Dipole Moment    :     -0.32543       0.52025      -0.49309
                        -----------------------------------------
Magnitude (a.u.)       :      0.78722
Magnitude (Debye)      :      2.00095

Rotational constants in cm-1:     0.020595     0.007310     0.006074
Rotational constants in MHz :   617.431087   219.162965   182.099658

                             ****ORCA TERMINATED NORMALLY****
TOTAL RUN TIME: 0 days 0 hours 0 minutes 20 seconds 612 msec
