                         Program Version 4.2.1 -  RELEASE  -
|  1> ! wB97X-D3 SP def2-SVP
|  2> %pal
|  3> nprocs 24
|  4> end
|  5>
|  6> * xyz 0 1
|  7> S 	 -18.3751 	 -29.3817 	 -93.7346
|  8> C 	 -17.0797 	 -30.2182 	 -93.0239
|  9> C 	 -16.989 	 -31.5585 	 -93.4222
| 10> C 	 -17.9137 	 -31.8187 	 -94.4452
| 11> C 	 -18.6883 	 -30.7244 	 -94.7717
| 12> H 	 -17.8878 	 -32.7528 	 -94.9548
| 13> C 	 -16.197 	 -32.6679 	 -92.7464
| 14> H 	 -16.8873 	 -33.4726 	 -92.5034
| 15> H 	 -15.8525 	 -32.2064 	 -91.8293
| 16> C 	 -14.9317 	 -33.2855 	 -93.4278
| 17> H 	 -14.5078 	 -34.2389 	 -93.0189
| 18> H 	 -15.3629 	 -33.6286 	 -94.4238
| 19> C 	 -13.7489 	 -32.3409 	 -93.6508
| 20> H 	 -14.1183 	 -31.8092 	 -94.511
| 21> H 	 -13.5918 	 -31.6386 	 -92.799
| 22> H 	 -12.8117 	 -32.9039 	 -93.8625
| 23> S 	 -21.4323 	 -30.4867 	 -95.1744
| 24> C 	 -21.9608 	 -30.6154 	 -96.8287
| 25> C 	 -20.9621 	 -30.8886 	 -97.7312
| 26> C 	 -19.7114 	 -31.0323 	 -97.1263
| 27> C 	 -19.7856 	 -30.8321 	 -95.7148
| 28> H 	 -21.1678 	 -30.8515 	 -98.7953
| 29> C 	 -18.4638 	 -31.2885 	 -97.954
| 30> H 	 -18.5808 	 -32.1532 	 -98.5532
| 31> H 	 -17.4803 	 -31.5328 	 -97.3755
| 32> C 	 -18.0553 	 -30.1125 	 -98.8395
| 33> H 	 -17.8303 	 -29.1515 	 -98.2338
| 34> H 	 -18.9423 	 -29.739 	 -99.4392
| 35> C 	 -16.8297 	 -30.4305 	 -99.6841
| 36> H 	 -15.921 	 -30.659 	 -99.1451
| 37> H 	 -16.6163 	 -29.6875 	 -100.427
| 38> H 	 -17.0732 	 -31.3436 	 -100.203
| 39> H 	 -16.5577 	 -29.7639 	 -92.1977
| 40> H 	 -22.9217 	 -30.2832 	 -97.2261
| 41> *
| 42>
| 43>                          ****END OF INPUT****

CARTESIAN COORDINATES (ANGSTROEM)
---------------------------------
  S    -18.375100  -29.381700  -93.734600
  C    -17.079700  -30.218200  -93.023900
  C    -16.989000  -31.558500  -93.422200
  C    -17.913700  -31.818700  -94.445200
  C    -18.688300  -30.724400  -94.771700
  H    -17.887800  -32.752800  -94.954800
  C    -16.197000  -32.667900  -92.746400
  H    -16.887300  -33.472600  -92.503400
  H    -15.852500  -32.206400  -91.829300
  C    -14.931700  -33.285500  -93.427800
  H    -14.507800  -34.238900  -93.018900
  H    -15.362900  -33.628600  -94.423800
  C    -13.748900  -32.340900  -93.650800
  H    -14.118300  -31.809200  -94.511000
  H    -13.591800  -31.638600  -92.799000
  H    -12.811700  -32.903900  -93.862500
  S    -21.432300  -30.486700  -95.174400
  C    -21.960800  -30.615400  -96.828700
  C    -20.962100  -30.888600  -97.731200
  C    -19.711400  -31.032300  -97.126300
  C    -19.785600  -30.832100  -95.714800
  H    -21.167800  -30.851500  -98.795300
  C    -18.463800  -31.288500  -97.954000
  H    -18.580800  -32.153200  -98.553200
  H    -17.480300  -31.532800  -97.375500
  C    -18.055300  -30.112500  -98.839500
  H    -17.830300  -29.151500  -98.233800
  H    -18.942300  -29.739000  -99.439200
  C    -16.829700  -30.430500  -99.684100
  H    -15.921000  -30.659000  -99.145100
  H    -16.616300  -29.687500  -100.427000
  H    -17.073200  -31.343600  -100.203000
  H    -16.557700  -29.763900  -92.197700
  H    -22.921700  -30.283200  -97.226100

 Total Charge           Charge          ....    0
 Multiplicity           Mult            ....    1
 Number of Electrons    NEL             ....  134
 Basis Dimension        Dim             ....  322

ORBITAL ENERGIES
----------------

  NO   OCC          E(Eh)            E(eV)
   0   2.0000     -88.971027     -2421.0247
   1   2.0000     -88.969960     -2420.9957
   2   2.0000     -10.327235      -281.0184
   3   2.0000     -10.322816      -280.8981
   4   2.0000     -10.313034      -280.6319
   5   2.0000     -10.312086      -280.6061
   6   2.0000     -10.304118      -280.3893
   7   2.0000     -10.299559      -280.2652
   8   2.0000     -10.294981      -280.1407
   9   2.0000     -10.294941      -280.1396
  10   2.0000     -10.294676      -280.1324
  11   2.0000     -10.293090      -280.0892
  12   2.0000     -10.289352      -279.9875
  13   2.0000     -10.286633      -279.9135
  14   2.0000     -10.279392      -279.7165
  15   2.0000     -10.273090      -279.5450
  16   2.0000      -8.086952      -220.0571
  17   2.0000      -8.084291      -219.9847
  18   2.0000      -6.045154      -164.4970
  19   2.0000      -6.042683      -164.4298
  20   2.0000      -6.041321      -164.3927
  21   2.0000      -6.038943      -164.3280
  22   2.0000      -6.037943      -164.3008
  23   2.0000      -6.035134      -164.2244
  24   2.0000      -1.011708       -27.5300
  25   2.0000      -0.987249       -26.8644
  26   2.0000      -0.909199       -24.7406
  27   2.0000      -0.907309       -24.6891
  28   2.0000      -0.868704       -23.6386
  29   2.0000      -0.856920       -23.3180
  30   2.0000      -0.851482       -23.1700
  31   2.0000      -0.811135       -22.0721
  32   2.0000      -0.784044       -21.3349
  33   2.0000      -0.768613       -20.9150
  34   2.0000      -0.703928       -19.1549
  35   2.0000      -0.690731       -18.7957
  36   2.0000      -0.690297       -18.7839
  37   2.0000      -0.656483       -17.8638
  38   2.0000      -0.642584       -17.4856
  39   2.0000      -0.624666       -16.9980
  40   2.0000      -0.600477       -16.3398
  41   2.0000      -0.564496       -15.3607
  42   2.0000      -0.555701       -15.1214
  43   2.0000      -0.549302       -14.9473
  44   2.0000      -0.544081       -14.8052
  45   2.0000      -0.524724       -14.2785
  46   2.0000      -0.514817       -14.0089
  47   2.0000      -0.509752       -13.8711
  48   2.0000      -0.500690       -13.6245
  49   2.0000      -0.492968       -13.4143
  50   2.0000      -0.489180       -13.3113
  51   2.0000      -0.479195       -13.0396
  52   2.0000      -0.473662       -12.8890
  53   2.0000      -0.466537       -12.6951
  54   2.0000      -0.463558       -12.6141
  55   2.0000      -0.451046       -12.2736
  56   2.0000      -0.447175       -12.1683
  57   2.0000      -0.442488       -12.0407
  58   2.0000      -0.433715       -11.8020
  59   2.0000      -0.431402       -11.7390
  60   2.0000      -0.424523       -11.5518
  61   2.0000      -0.401805       -10.9337
  62   2.0000      -0.399914       -10.8822
  63   2.0000      -0.344470        -9.3735
  64   2.0000      -0.335927        -9.1410
  65   2.0000      -0.329021        -8.9531
  66   2.0000      -0.289369        -7.8741
  67   0.0000       0.031888         0.8677
  68   0.0000       0.065529         1.7831
  69   0.0000       0.115404         3.1403
  70   0.0000       0.120051         3.2668
  71   0.0000       0.129220         3.5163

MULLIKEN ATOMIC CHARGES
-----------------------
   0 S :    0.138213
   1 C :   -0.129475
   2 C :   -0.089466
   3 C :    0.032477
   4 C :   -0.148189
   5 H :    0.006597
   6 C :    0.082398
   7 H :    0.043322
   8 H :    0.009792
   9 C :   -0.114693
  10 H :    0.036447
  11 H :    0.021420
  12 C :   -0.058329
  13 H :    0.041176
  14 H :    0.037910
  15 H :    0.046308
  16 S :    0.121045
  17 C :   -0.092077
  18 C :   -0.047931
  19 C :    0.014387
  20 C :   -0.183755
  21 H :    0.022173
  22 C :    0.050090
  23 H :    0.018647
  24 H :    0.036712
  25 C :   -0.136699
  26 H :    0.041720
  27 H :    0.030627
  28 C :   -0.007119
  29 H :    0.032011
  30 H :    0.033836
  31 H :    0.011504
  32 H :    0.044935
  33 H :    0.053985
Sum of atomic charges:   -0.0000000

LOEWDIN ATOMIC CHARGES
----------------------
   0 S :    0.447785
   1 C :   -0.211153
   2 C :   -0.068060
   3 C :   -0.051085
   4 C :   -0.212290
   5 H :    0.027749
   6 C :   -0.028758
   7 H :    0.037795
   8 H :    0.024933
   9 C :   -0.052516
  10 H :    0.025718
  11 H :    0.022150
  12 C :   -0.072370
  13 H :    0.028541
  14 H :    0.027052
  15 H :    0.032150
  16 S :    0.406965
  17 C :   -0.194389
  18 C :   -0.071254
  19 C :   -0.050737
  20 C :   -0.194254
  21 H :    0.034168
  22 C :   -0.038574
  23 H :    0.023254
  24 H :    0.041380
  25 C :   -0.051463
  26 H :    0.031967
  27 H :    0.023822
  28 C :   -0.064807
  29 H :    0.025808
  30 H :    0.026191
  31 H :    0.021844
  32 H :    0.022083
  33 H :    0.030359

  Mayer bond orders larger than 0.100000
B(  0-S ,  1-C ) :   1.1759 B(  0-S ,  4-C ) :   1.1669 B(  1-C ,  2-C ) :   1.5605
B(  1-C , 32-H ) :   0.9661 B(  2-C ,  3-C ) :   1.2920 B(  2-C ,  6-C ) :   1.0179
B(  3-C ,  4-C ) :   1.5281 B(  3-C ,  5-H ) :   1.0000 B(  4-C , 20-C ) :   1.0514
B(  6-C ,  7-H ) :   0.9450 B(  6-C ,  8-H ) :   0.9394 B(  6-C ,  9-C ) :   1.0550
B(  9-C , 10-H ) :   0.9623 B(  9-C , 11-H ) :   0.9623 B(  9-C , 12-C ) :   1.0555
B( 12-C , 13-H ) :   0.9796 B( 12-C , 14-H ) :   0.9777 B( 12-C , 15-H ) :   0.9757
B( 16-S , 17-C ) :   1.1532 B( 16-S , 20-C ) :   1.1499 B( 17-C , 18-C ) :   1.6164
B( 17-C , 20-C ) :   0.1007 B( 17-C , 33-H ) :   0.9589 B( 18-C , 19-C ) :   1.2645
B( 18-C , 21-H ) :   0.9864 B( 19-C , 20-C ) :   1.5703 B( 19-C , 22-C ) :   1.0363
B( 22-C , 23-H ) :   0.9336 B( 22-C , 24-H ) :   0.9366 B( 22-C , 25-C ) :   1.0557
B( 25-C , 26-H ) :   0.9525 B( 25-C , 27-H ) :   0.9553 B( 25-C , 28-C ) :   1.0790
B( 28-C , 29-H ) :   0.9730 B( 28-C , 30-H ) :   0.9722 B( 28-C , 31-H ) :   0.9699

Dispersion correction           -0.014064148
FINAL SINGLE POINT ENERGY     -1339.872836232975

DIPOLE MOMENT
-------------
                                X             Y             Z
Electronic contribution:    -24.73837       9.91308      11.54389
Nuclear contribution   :     25.07390     -10.12013     -11.79380
                        -----------------------------------------
Total Dipole Moment    :      0.33553      -0.20705      -0.24991
                        -----------------------------------------
Magnitude (a.u.)       :      0.46680
Magnitude (Debye)      :      1.18651

Rotational constants in cm-1:     0.017391     0.008872     0.006797
Rotational constants in MHz :   521.373595   265.968201   203.779360

                             ****ORCA TERMINATED NORMALLY****
TOTAL RUN TIME: 0 days 0 hours 0 minutes 21 seconds 497 msec
