                         Program Version 4.2.1 -  RELEASE  -
|  1> ! wB97X-D3 SP def2-SVP
|  2> %pal
|  3> nprocs 24
|  4> end
|  5>
|  6> * xyz 0 1
|  7> S 	 -119.859 	 24.2173 	 -17.0457
|  8> C 	 -119.242 	 23.6317 	 -18.593
|  9> C 	 -118.444 	 24.5855 	 -19.3229
| 10> C 	 -118.209 	 25.7166 	 -18.4829
| 11> C 	 -118.895 	 25.7025 	 -17.3079
| 12> H 	 -117.631 	 26.5281 	 -18.6433
| 13> C 	 -117.747 	 24.2517 	 -20.6319
| 14> H 	 -117.526 	 25.239 	 -21.0448
| 15> H 	 -118.523 	 23.7138 	 -21.225
| 16> C 	 -116.496 	 23.4394 	 -20.4486
| 17> H 	 -116.053 	 23.5487 	 -21.4505
| 18> H 	 -115.837 	 23.8824 	 -19.6787
| 19> C 	 -116.834 	 21.9134 	 -20.2287
| 20> H 	 -117.664 	 21.5844 	 -20.7725
| 21> H 	 -115.943 	 21.4205 	 -20.5183
| 22> H 	 -117.062 	 21.685 	 -19.158
| 23> S 	 -118.751 	 26.0076 	 -14.5884
| 24> C 	 -118.639 	 27.591 	 -13.8895
| 25> C 	 -118.56 	 28.557 	 -14.846
| 26> C 	 -118.524 	 28.0173 	 -16.1982
| 27> C 	 -118.75 	 26.6571 	 -16.2155
| 28> H 	 -118.505 	 29.606 	 -14.6072
| 29> C 	 -118.675 	 28.9545 	 -17.4199
| 30> H 	 -118.497 	 28.3674 	 -18.3325
| 31> H 	 -117.861 	 29.6383 	 -17.3146
| 32> C 	 -120.025 	 29.6999 	 -17.6184
| 33> H 	 -120.133 	 30.0062 	 -18.6765
| 34> H 	 -119.97 	 30.6228 	 -17.0671
| 35> C 	 -121.249 	 28.9464 	 -17.1017
| 36> H 	 -121.255 	 27.9609 	 -17.5927
| 37> H 	 -122.161 	 29.3819 	 -17.4309
| 38> H 	 -121.239 	 28.8652 	 -15.9712
| 39> H 	 -119.502 	 22.673 	 -18.9004
| 40> H 	 -118.795 	 27.8173 	 -12.8417
| 41> *
| 42>
| 43>                          ****END OF INPUT****

CARTESIAN COORDINATES (ANGSTROEM)
---------------------------------
  S    -119.859000   24.217300  -17.045700
  C    -119.242000   23.631700  -18.593000
  C    -118.444000   24.585500  -19.322900
  C    -118.209000   25.716600  -18.482900
  C    -118.895000   25.702500  -17.307900
  H    -117.631000   26.528100  -18.643300
  C    -117.747000   24.251700  -20.631900
  H    -117.526000   25.239000  -21.044800
  H    -118.523000   23.713800  -21.225000
  C    -116.496000   23.439400  -20.448600
  H    -116.053000   23.548700  -21.450500
  H    -115.837000   23.882400  -19.678700
  C    -116.834000   21.913400  -20.228700
  H    -117.664000   21.584400  -20.772500
  H    -115.943000   21.420500  -20.518300
  H    -117.062000   21.685000  -19.158000
  S    -118.751000   26.007600  -14.588400
  C    -118.639000   27.591000  -13.889500
  C    -118.560000   28.557000  -14.846000
  C    -118.524000   28.017300  -16.198200
  C    -118.750000   26.657100  -16.215500
  H    -118.505000   29.606000  -14.607200
  C    -118.675000   28.954500  -17.419900
  H    -118.497000   28.367400  -18.332500
  H    -117.861000   29.638300  -17.314600
  C    -120.025000   29.699900  -17.618400
  H    -120.133000   30.006200  -18.676500
  H    -119.970000   30.622800  -17.067100
  C    -121.249000   28.946400  -17.101700
  H    -121.255000   27.960900  -17.592700
  H    -122.161000   29.381900  -17.430900
  H    -121.239000   28.865200  -15.971200
  H    -119.502000   22.673000  -18.900400
  H    -118.795000   27.817300  -12.841700

 Total Charge           Charge          ....    0
 Multiplicity           Mult            ....    1
 Number of Electrons    NEL             ....  134
 Basis Dimension        Dim             ....  322

ORBITAL ENERGIES
----------------

  NO   OCC          E(Eh)            E(eV)
   0   2.0000     -88.968636     -2420.9597
   1   2.0000     -88.961706     -2420.7711
   2   2.0000     -10.327715      -281.0314
   3   2.0000     -10.324365      -280.9403
   4   2.0000     -10.315016      -280.6859
   5   2.0000     -10.312894      -280.6281
   6   2.0000     -10.307249      -280.4745
   7   2.0000     -10.301160      -280.3088
   8   2.0000     -10.294627      -280.1311
   9   2.0000     -10.292637      -280.0769
  10   2.0000     -10.292116      -280.0627
  11   2.0000     -10.290391      -280.0158
  12   2.0000     -10.286972      -279.9227
  13   2.0000     -10.284147      -279.8459
  14   2.0000     -10.276647      -279.6418
  15   2.0000     -10.271748      -279.5085
  16   2.0000      -8.082411      -219.9336
  17   2.0000      -8.076995      -219.7862
  18   2.0000      -6.040780      -164.3780
  19   2.0000      -6.037197      -164.2805
  20   2.0000      -6.035615      -164.2374
  21   2.0000      -6.033243      -164.1729
  22   2.0000      -6.031432      -164.1236
  23   2.0000      -6.027583      -164.0189
  24   2.0000      -1.004720       -27.3398
  25   2.0000      -0.978760       -26.6334
  26   2.0000      -0.914815       -24.8934
  27   2.0000      -0.902599       -24.5610
  28   2.0000      -0.866274       -23.5725
  29   2.0000      -0.853204       -23.2169
  30   2.0000      -0.839739       -22.8504
  31   2.0000      -0.813686       -22.1415
  32   2.0000      -0.783960       -21.3326
  33   2.0000      -0.773425       -21.0460
  34   2.0000      -0.707057       -19.2400
  35   2.0000      -0.697013       -18.9667
  36   2.0000      -0.689329       -18.7576
  37   2.0000      -0.661997       -18.0139
  38   2.0000      -0.647675       -17.6241
  39   2.0000      -0.621121       -16.9016
  40   2.0000      -0.588638       -16.0176
  41   2.0000      -0.567046       -15.4301
  42   2.0000      -0.556195       -15.1348
  43   2.0000      -0.551447       -15.0056
  44   2.0000      -0.545151       -14.8343
  45   2.0000      -0.537455       -14.6249
  46   2.0000      -0.524041       -14.2599
  47   2.0000      -0.503853       -13.7105
  48   2.0000      -0.499013       -13.5788
  49   2.0000      -0.488070       -13.2811
  50   2.0000      -0.485648       -13.2151
  51   2.0000      -0.479513       -13.0482
  52   2.0000      -0.471107       -12.8195
  53   2.0000      -0.464991       -12.6531
  54   2.0000      -0.458832       -12.4854
  55   2.0000      -0.452232       -12.3059
  56   2.0000      -0.445483       -12.1222
  57   2.0000      -0.439767       -11.9667
  58   2.0000      -0.436468       -11.8769
  59   2.0000      -0.426308       -11.6004
  60   2.0000      -0.413964       -11.2645
  61   2.0000      -0.410934       -11.1821
  62   2.0000      -0.408042       -11.1034
  63   2.0000      -0.354898        -9.6573
  64   2.0000      -0.332340        -9.0434
  65   2.0000      -0.328485        -8.9385
  66   2.0000      -0.282848        -7.6967
  67   0.0000       0.023574         0.6415
  68   0.0000       0.076544         2.0829
  69   0.0000       0.100036         2.7221
  70   0.0000       0.116859         3.1799
  71   0.0000       0.143829         3.9138

MULLIKEN ATOMIC CHARGES
-----------------------
   0 S :    0.105327
   1 C :   -0.116230
   2 C :   -0.079146
   3 C :    0.042064
   4 C :   -0.127390
   5 H :   -0.028911
   6 C :    0.046267
   7 H :    0.022918
   8 H :    0.040324
   9 C :   -0.065457
  10 H :    0.034835
  11 H :    0.046318
  12 C :   -0.033328
  13 H :    0.016344
  14 H :    0.033289
  15 H :    0.047651
  16 S :    0.094698
  17 C :   -0.080672
  18 C :   -0.035402
  19 C :   -0.081917
  20 C :   -0.134102
  21 H :    0.015935
  22 C :    0.071731
  23 H :    0.015760
  24 H :    0.021496
  25 C :   -0.074390
  26 H :    0.034031
  27 H :    0.016377
  28 C :   -0.035169
  29 H :    0.032079
  30 H :    0.022334
  31 H :    0.050699
  32 H :    0.022684
  33 H :    0.058951
Sum of atomic charges:   -0.0000000

LOEWDIN ATOMIC CHARGES
----------------------
   0 S :    0.381881
   1 C :   -0.182756
   2 C :   -0.050711
   3 C :   -0.051471
   4 C :   -0.172833
   5 H :    0.012481
   6 C :   -0.036952
   7 H :    0.029265
   8 H :    0.037044
   9 C :   -0.035361
  10 H :    0.027490
  11 H :    0.032351
  12 C :   -0.058019
  13 H :    0.014530
  14 H :    0.024003
  15 H :    0.032972
  16 S :    0.400696
  17 C :   -0.190558
  18 C :   -0.067847
  19 C :   -0.066599
  20 C :   -0.190623
  21 H :    0.029631
  22 C :   -0.030919
  23 H :    0.027053
  24 H :    0.026857
  25 C :   -0.041507
  26 H :    0.029158
  27 H :    0.017027
  28 C :   -0.066973
  29 H :    0.028745
  30 H :    0.019190
  31 H :    0.035891
  32 H :    0.005386
  33 H :    0.031476

  Mayer bond orders larger than 0.100000
B(  0-S ,  1-C ) :   1.1472 B(  0-S ,  4-C ) :   1.1260 B(  1-C ,  2-C ) :   1.5774
B(  1-C , 32-H ) :   0.9753 B(  2-C ,  3-C ) :   1.2254 B(  2-C ,  6-C ) :   1.0261
B(  3-C ,  4-C ) :   1.6023 B(  3-C ,  5-H ) :   0.9985 B(  4-C , 20-C ) :   1.0520
B(  6-C ,  7-H ) :   0.9363 B(  6-C ,  8-H ) :   0.9388 B(  6-C ,  9-C ) :   1.0721
B(  9-C , 10-H ) :   0.9566 B(  9-C , 11-H ) :   0.9539 B(  9-C , 12-C ) :   1.0689
B( 12-C , 13-H ) :   0.9770 B( 12-C , 14-H ) :   0.9748 B( 12-C , 15-H ) :   0.9720
B( 16-S , 17-C ) :   1.1358 B( 16-S , 20-C ) :   1.1374 B( 17-C , 18-C ) :   1.6322
B( 17-C , 33-H ) :   0.9667 B( 18-C , 19-C ) :   1.2154 B( 18-C , 21-H ) :   0.9931
B( 19-C , 20-C ) :   1.6056 B( 19-C , 22-C ) :   1.0558 B( 22-C , 23-H ) :   0.9383
B( 22-C , 24-H ) :   0.9330 B( 22-C , 25-C ) :   1.0585 B( 25-C , 26-H ) :   0.9573
B( 25-C , 27-H ) :   0.9523 B( 25-C , 28-C ) :   1.0962 B( 28-C , 29-H ) :   0.9750
B( 28-C , 30-H ) :   0.9717 B( 28-C , 31-H ) :   0.9647

Dispersion correction           -0.015363433
FINAL SINGLE POINT ENERGY     -1339.873443694680

DIPOLE MOMENT
-------------
                                X             Y             Z
Electronic contribution:     -3.35840      -4.61093      18.32388
Nuclear contribution   :      3.54887       4.87098     -18.80527
                        -----------------------------------------
Total Dipole Moment    :      0.19047       0.26005      -0.48139
                        -----------------------------------------
Magnitude (a.u.)       :      0.57934
Magnitude (Debye)      :      1.47257

Rotational constants in cm-1:     0.023155     0.008100     0.007115
Rotational constants in MHz :   694.171722   242.819090   213.312926

                             ****ORCA TERMINATED NORMALLY****
TOTAL RUN TIME: 0 days 0 hours 0 minutes 22 seconds 411 msec
