                         Program Version 4.2.1 -  RELEASE  -
|  1> ! wB97X-D3 SP def2-SVP
|  2> %pal
|  3> nprocs 24
|  4> end
|  5>
|  6> * xyz 0 1
|  7> S 	 4.15942 	 -24.0127 	 -110.038
|  8> C 	 4.07893 	 -22.565 	 -108.995
|  9> C 	 3.41845 	 -21.5293 	 -109.616
| 10> C 	 2.83445 	 -21.9897 	 -110.821
| 11> C 	 3.22117 	 -23.2639 	 -111.233
| 12> H 	 2.36232 	 -21.324 	 -111.533
| 13> C 	 3.32861 	 -20.1645 	 -109.085
| 14> H 	 2.95837 	 -19.5353 	 -109.83
| 15> H 	 4.34441 	 -19.7034 	 -108.949
| 16> C 	 2.49849 	 -20.0419 	 -107.803
| 17> H 	 2.42735 	 -20.8611 	 -107.157
| 18> H 	 2.96653 	 -19.1512 	 -107.273
| 19> C 	 0.999113 	 -19.5591 	 -108.036
| 20> H 	 0.567819 	 -19.3453 	 -107.098
| 21> H 	 0.889151 	 -18.6077 	 -108.571
| 22> H 	 0.322127 	 -20.2785 	 -108.524
| 23> S 	 2.35219 	 -25.6051 	 -112.227
| 24> C 	 2.26718 	 -25.9012 	 -113.932
| 25> C 	 2.66935 	 -24.767 	 -114.654
| 26> C 	 2.96971 	 -23.6609 	 -113.802
| 27> C 	 2.90602 	 -23.9974 	 -112.47
| 28> H 	 2.66279 	 -24.7754 	 -115.712
| 29> C 	 3.45647 	 -22.33 	 -114.355
| 30> H 	 3.66907 	 -21.6276 	 -113.604
| 31> H 	 2.65609 	 -21.8831 	 -114.839
| 32> C 	 4.71257 	 -22.3266 	 -115.254
| 33> H 	 4.73792 	 -21.3752 	 -115.808
| 34> H 	 4.5636 	 -23.0209 	 -116.069
| 35> C 	 6.0234 	 -22.4704 	 -114.487
| 36> H 	 6.76581 	 -22.3769 	 -115.282
| 37> H 	 6.14071 	 -23.4875 	 -114.03
| 38> H 	 6.19588 	 -21.7144 	 -113.724
| 39> H 	 4.57605 	 -22.5276 	 -108.013
| 40> H 	 1.84634 	 -26.8085 	 -114.389
| 41> *
| 42>
| 43>                          ****END OF INPUT****

CARTESIAN COORDINATES (ANGSTROEM)
---------------------------------
  S      4.159420  -24.012700  -110.038000
  C      4.078930  -22.565000  -108.995000
  C      3.418450  -21.529300  -109.616000
  C      2.834450  -21.989700  -110.821000
  C      3.221170  -23.263900  -111.233000
  H      2.362320  -21.324000  -111.533000
  C      3.328610  -20.164500  -109.085000
  H      2.958370  -19.535300  -109.830000
  H      4.344410  -19.703400  -108.949000
  C      2.498490  -20.041900  -107.803000
  H      2.427350  -20.861100  -107.157000
  H      2.966530  -19.151200  -107.273000
  C      0.999113  -19.559100  -108.036000
  H      0.567819  -19.345300  -107.098000
  H      0.889151  -18.607700  -108.571000
  H      0.322127  -20.278500  -108.524000
  S      2.352190  -25.605100  -112.227000
  C      2.267180  -25.901200  -113.932000
  C      2.669350  -24.767000  -114.654000
  C      2.969710  -23.660900  -113.802000
  C      2.906020  -23.997400  -112.470000
  H      2.662790  -24.775400  -115.712000
  C      3.456470  -22.330000  -114.355000
  H      3.669070  -21.627600  -113.604000
  H      2.656090  -21.883100  -114.839000
  C      4.712570  -22.326600  -115.254000
  H      4.737920  -21.375200  -115.808000
  H      4.563600  -23.020900  -116.069000
  C      6.023400  -22.470400  -114.487000
  H      6.765810  -22.376900  -115.282000
  H      6.140710  -23.487500  -114.030000
  H      6.195880  -21.714400  -113.724000
  H      4.576050  -22.527600  -108.013000
  H      1.846340  -26.808500  -114.389000

 Total Charge           Charge          ....    0
 Multiplicity           Mult            ....    1
 Number of Electrons    NEL             ....  134
 Basis Dimension        Dim             ....  322

ORBITAL ENERGIES
----------------

  NO   OCC          E(Eh)            E(eV)
   0   2.0000     -88.965422     -2420.8722
   1   2.0000     -88.965023     -2420.8613
   2   2.0000     -10.326072      -280.9867
   3   2.0000     -10.322917      -280.9008
   4   2.0000     -10.318723      -280.7867
   5   2.0000     -10.312196      -280.6091
   6   2.0000     -10.301851      -280.3276
   7   2.0000     -10.296149      -280.1725
   8   2.0000     -10.293851      -280.1099
   9   2.0000     -10.292418      -280.0709
  10   2.0000     -10.288878      -279.9746
  11   2.0000     -10.288609      -279.9673
  12   2.0000     -10.285133      -279.8727
  13   2.0000     -10.278458      -279.6911
  14   2.0000     -10.276624      -279.6412
  15   2.0000     -10.276229      -279.6304
  16   2.0000      -8.080657      -219.8859
  17   2.0000      -8.080536      -219.8826
  18   2.0000      -6.039056      -164.3311
  19   2.0000      -6.038934      -164.3278
  20   2.0000      -6.034914      -164.2183
  21   2.0000      -6.034882      -164.2175
  22   2.0000      -6.031596      -164.1281
  23   2.0000      -6.031500      -164.1255
  24   2.0000      -1.011975       -27.5372
  25   2.0000      -0.987260       -26.8647
  26   2.0000      -0.915548       -24.9133
  27   2.0000      -0.908449       -24.7201
  28   2.0000      -0.864901       -23.5352
  29   2.0000      -0.850359       -23.1394
  30   2.0000      -0.842500       -22.9256
  31   2.0000      -0.811246       -22.0751
  32   2.0000      -0.787310       -21.4238
  33   2.0000      -0.776547       -21.1309
  34   2.0000      -0.709437       -19.3047
  35   2.0000      -0.702131       -19.1060
  36   2.0000      -0.692031       -18.8311
  37   2.0000      -0.662963       -18.0402
  38   2.0000      -0.638824       -17.3833
  39   2.0000      -0.618329       -16.8256
  40   2.0000      -0.600870       -16.3505
  41   2.0000      -0.576365       -15.6837
  42   2.0000      -0.554594       -15.0913
  43   2.0000      -0.544635       -14.8203
  44   2.0000      -0.540543       -14.7089
  45   2.0000      -0.528068       -14.3695
  46   2.0000      -0.520013       -14.1503
  47   2.0000      -0.515326       -14.0227
  48   2.0000      -0.499035       -13.5794
  49   2.0000      -0.495418       -13.4810
  50   2.0000      -0.492422       -13.3995
  51   2.0000      -0.476536       -12.9672
  52   2.0000      -0.468703       -12.7541
  53   2.0000      -0.464990       -12.6530
  54   2.0000      -0.463894       -12.6232
  55   2.0000      -0.447404       -12.1745
  56   2.0000      -0.446135       -12.1400
  57   2.0000      -0.439838       -11.9686
  58   2.0000      -0.435167       -11.8415
  59   2.0000      -0.425075       -11.5669
  60   2.0000      -0.421448       -11.4682
  61   2.0000      -0.413651       -11.2560
  62   2.0000      -0.409312       -11.1379
  63   2.0000      -0.342896        -9.3307
  64   2.0000      -0.333718        -9.0809
  65   2.0000      -0.328925        -8.9505
  66   2.0000      -0.290334        -7.9004
  67   0.0000       0.034394         0.9359
  68   0.0000       0.071860         1.9554
  69   0.0000       0.109427         2.9777
  70   0.0000       0.121532         3.3070
  71   0.0000       0.138240         3.7617

MULLIKEN ATOMIC CHARGES
-----------------------
   0 S :    0.113250
   1 C :   -0.146704
   2 C :   -0.094774
   3 C :    0.047993
   4 C :   -0.158273
   5 H :    0.005506
   6 C :    0.111205
   7 H :   -0.007555
   8 H :    0.042616
   9 C :   -0.074441
  10 H :    0.034168
  11 H :    0.034714
  12 C :   -0.066008
  13 H :    0.019466
  14 H :    0.024841
  15 H :    0.041382
  16 S :    0.115965
  17 C :   -0.106881
  18 C :   -0.033851
  19 C :   -0.024982
  20 C :   -0.160005
  21 H :    0.006801
  22 C :    0.128185
  23 H :   -0.010023
  24 H :    0.007447
  25 C :   -0.085836
  26 H :    0.020326
  27 H :    0.018528
  28 C :   -0.044256
  29 H :    0.030256
  30 H :    0.049546
  31 H :    0.038840
  32 H :    0.054943
  33 H :    0.067612
Sum of atomic charges:    0.0000000

LOEWDIN ATOMIC CHARGES
----------------------
   0 S :    0.420280
   1 C :   -0.193214
   2 C :   -0.063739
   3 C :   -0.073713
   4 C :   -0.209406
   5 H :    0.025971
   6 C :   -0.034332
   7 H :    0.023094
   8 H :    0.042660
   9 C :   -0.028150
  10 H :    0.018129
  11 H :    0.033879
  12 C :   -0.068941
  13 H :    0.018515
  14 H :    0.023078
  15 H :    0.026240
  16 S :    0.430103
  17 C :   -0.195917
  18 C :   -0.063791
  19 C :   -0.054433
  20 C :   -0.210453
  21 H :    0.024401
  22 C :   -0.027432
  23 H :    0.021102
  24 H :    0.023969
  25 C :   -0.039095
  26 H :    0.026378
  27 H :    0.018128
  28 C :   -0.064445
  29 H :    0.027556
  30 H :    0.033425
  31 H :    0.026087
  32 H :    0.029802
  33 H :    0.034262

  Mayer bond orders larger than 0.100000
B(  0-S ,  1-C ) :   1.1390 B(  0-S ,  4-C ) :   1.1860 B(  1-C ,  2-C ) :   1.5830
B(  1-C ,  4-C ) :   0.1037 B(  1-C , 32-H ) :   0.9688 B(  2-C ,  3-C ) :   1.2736
B(  2-C ,  6-C ) :   1.0340 B(  3-C ,  4-C ) :   1.5504 B(  3-C ,  5-H ) :   0.9854
B(  4-C , 20-C ) :   1.0018 B(  6-C ,  7-H ) :   0.9283 B(  6-C ,  8-H ) :   0.9389
B(  6-C ,  9-C ) :   1.0462 B(  9-C , 10-H ) :   0.9695 B(  9-C , 11-H ) :   0.9567
B(  9-C , 12-C ) :   1.0798 B( 12-C , 13-H ) :   0.9757 B( 12-C , 14-H ) :   0.9760
B( 12-C , 15-H ) :   0.9778 B( 16-S , 17-C ) :   1.1658 B( 16-S , 20-C ) :   1.1627
B( 17-C , 18-C ) :   1.5832 B( 17-C , 20-C ) :   0.1001 B( 17-C , 33-H ) :   0.9675
B( 18-C , 19-C ) :   1.2463 B( 18-C , 21-H ) :   0.9979 B( 19-C , 20-C ) :   1.5895
B( 19-C , 22-C ) :   1.0421 B( 22-C , 23-H ) :   0.9271 B( 22-C , 24-H ) :   0.9189
B( 22-C , 25-C ) :   1.0828 B( 25-C , 26-H ) :   0.9501 B( 25-C , 27-H ) :   0.9558
B( 25-C , 28-C ) :   1.0745 B( 28-C , 29-H ) :   0.9731 B( 28-C , 30-H ) :   0.9767
B( 28-C , 31-H ) :   0.9734

Dispersion correction           -0.014205968
FINAL SINGLE POINT ENERGY     -1339.878310635552

DIPOLE MOMENT
-------------
                                X             Y             Z
Electronic contribution:     -1.92154     -23.55717       1.45647
Nuclear contribution   :      1.94182      24.17959      -1.70883
                        -----------------------------------------
Total Dipole Moment    :      0.02028       0.62243      -0.25236
                        -----------------------------------------
Magnitude (a.u.)       :      0.67195
Magnitude (Debye)      :      1.70795

Rotational constants in cm-1:     0.020554     0.007959     0.006978
Rotational constants in MHz :   616.192440   238.610379   209.207034

                             ****ORCA TERMINATED NORMALLY****
TOTAL RUN TIME: 0 days 0 hours 0 minutes 21 seconds 527 msec
