                         Program Version 4.2.1 -  RELEASE  -
|  1> ! wB97X-D3 SP def2-SVP
|  2> %pal
|  3> nprocs 24
|  4> end
|  5>
|  6> * xyz 0 1
|  7> S 	 21.7691 	 -24.312 	 -120.741
|  8> C 	 21.9734 	 -25.9516 	 -121.325
|  9> C 	 23.3102 	 -26.4055 	 -121.213
| 10> C 	 24.0856 	 -25.3822 	 -120.554
| 11> C 	 23.4248 	 -24.2159 	 -120.261
| 12> H 	 25.0915 	 -25.5336 	 -120.173
| 13> C 	 23.8672 	 -27.7701 	 -121.747
| 14> H 	 23.3699 	 -28.5505 	 -121.055
| 15> H 	 24.886 	 -27.8248 	 -121.415
| 16> C 	 23.6848 	 -28.0622 	 -123.282
| 17> H 	 22.619 	 -28.1307 	 -123.682
| 18> H 	 24.2742 	 -27.256 	 -123.855
| 19> C 	 24.3823 	 -29.3899 	 -123.775
| 20> H 	 25.387 	 -29.5133 	 -123.346
| 21> H 	 23.8964 	 -30.3473 	 -123.465
| 22> H 	 24.3375 	 -29.3268 	 -124.856
| 23> S 	 24.5641 	 -21.7445 	 -120.503
| 24> C 	 25.1617 	 -20.8568 	 -119.156
| 25> C 	 24.9425 	 -21.5242 	 -117.977
| 26> C 	 24.2375 	 -22.761 	 -118.234
| 27> C 	 23.9993 	 -23.0832 	 -119.582
| 28> H 	 25.2165 	 -21.0884 	 -117.04
| 29> C 	 23.7729 	 -23.7342 	 -117.158
| 30> H 	 24.5002 	 -23.7285 	 -116.325
| 31> H 	 23.9206 	 -24.6653 	 -117.684
| 32> C 	 22.3753 	 -23.48 	 -116.677
| 33> H 	 21.7912 	 -23.5458 	 -117.6
| 34> H 	 22.1909 	 -22.5099 	 -116.217
| 35> C 	 22.0813 	 -24.6233 	 -115.692
| 36> H 	 21.0308 	 -24.6999 	 -115.525
| 37> H 	 22.6472 	 -24.4372 	 -114.758
| 38> H 	 22.3575 	 -25.5744 	 -116.183
| 39> H 	 21.221 	 -26.6026 	 -121.829
| 40> H 	 25.526 	 -19.8193 	 -119.241
| 41> *
| 42>
| 43>                          ****END OF INPUT****

CARTESIAN COORDINATES (ANGSTROEM)
---------------------------------
  S     21.769100  -24.312000  -120.741000
  C     21.973400  -25.951600  -121.325000
  C     23.310200  -26.405500  -121.213000
  C     24.085600  -25.382200  -120.554000
  C     23.424800  -24.215900  -120.261000
  H     25.091500  -25.533600  -120.173000
  C     23.867200  -27.770100  -121.747000
  H     23.369900  -28.550500  -121.055000
  H     24.886000  -27.824800  -121.415000
  C     23.684800  -28.062200  -123.282000
  H     22.619000  -28.130700  -123.682000
  H     24.274200  -27.256000  -123.855000
  C     24.382300  -29.389900  -123.775000
  H     25.387000  -29.513300  -123.346000
  H     23.896400  -30.347300  -123.465000
  H     24.337500  -29.326800  -124.856000
  S     24.564100  -21.744500  -120.503000
  C     25.161700  -20.856800  -119.156000
  C     24.942500  -21.524200  -117.977000
  C     24.237500  -22.761000  -118.234000
  C     23.999300  -23.083200  -119.582000
  H     25.216500  -21.088400  -117.040000
  C     23.772900  -23.734200  -117.158000
  H     24.500200  -23.728500  -116.325000
  H     23.920600  -24.665300  -117.684000
  C     22.375300  -23.480000  -116.677000
  H     21.791200  -23.545800  -117.600000
  H     22.190900  -22.509900  -116.217000
  C     22.081300  -24.623300  -115.692000
  H     21.030800  -24.699900  -115.525000
  H     22.647200  -24.437200  -114.758000
  H     22.357500  -25.574400  -116.183000
  H     21.221000  -26.602600  -121.829000
  H     25.526000  -19.819300  -119.241000

 Total Charge           Charge          ....    0
 Multiplicity           Mult            ....    1
 Number of Electrons    NEL             ....  134
 Basis Dimension        Dim             ....  322

ORBITAL ENERGIES
----------------

  NO   OCC          E(Eh)            E(eV)
   0   2.0000     -88.972627     -2421.0683
   1   2.0000     -88.958616     -2420.6870
   2   2.0000     -10.326562      -281.0000
   3   2.0000     -10.321652      -280.8664
   4   2.0000     -10.319701      -280.8134
   5   2.0000     -10.315486      -280.6987
   6   2.0000     -10.310340      -280.5586
   7   2.0000     -10.310262      -280.5565
   8   2.0000     -10.309974      -280.5486
   9   2.0000     -10.301598      -280.3207
  10   2.0000     -10.296451      -280.1807
  11   2.0000     -10.292279      -280.0671
  12   2.0000     -10.286695      -279.9152
  13   2.0000     -10.279793      -279.7274
  14   2.0000     -10.277558      -279.6666
  15   2.0000     -10.272741      -279.5355
  16   2.0000      -8.086971      -220.0577
  17   2.0000      -8.074641      -219.7222
  18   2.0000      -6.045450      -164.5051
  19   2.0000      -6.041436      -164.3958
  20   2.0000      -6.037875      -164.2989
  21   2.0000      -6.033012      -164.1666
  22   2.0000      -6.028740      -164.0503
  23   2.0000      -6.025688      -163.9673
  24   2.0000      -1.009359       -27.4660
  25   2.0000      -0.985229       -26.8095
  26   2.0000      -0.911206       -24.7952
  27   2.0000      -0.900269       -24.4976
  28   2.0000      -0.869820       -23.6690
  29   2.0000      -0.848579       -23.0910
  30   2.0000      -0.843085       -22.9415
  31   2.0000      -0.814419       -22.1615
  32   2.0000      -0.780170       -21.2295
  33   2.0000      -0.761819       -20.7301
  34   2.0000      -0.701794       -19.0968
  35   2.0000      -0.698060       -18.9952
  36   2.0000      -0.690323       -18.7846
  37   2.0000      -0.658345       -17.9145
  38   2.0000      -0.640616       -17.4321
  39   2.0000      -0.614260       -16.7149
  40   2.0000      -0.589425       -16.0391
  41   2.0000      -0.572798       -15.5866
  42   2.0000      -0.566693       -15.4205
  43   2.0000      -0.552039       -15.0218
  44   2.0000      -0.531879       -14.4732
  45   2.0000      -0.522696       -14.2233
  46   2.0000      -0.516055       -14.0426
  47   2.0000      -0.513307       -13.9678
  48   2.0000      -0.505253       -13.7486
  49   2.0000      -0.495192       -13.4749
  50   2.0000      -0.492517       -13.4021
  51   2.0000      -0.472917       -12.8687
  52   2.0000      -0.468197       -12.7403
  53   2.0000      -0.460442       -12.5293
  54   2.0000      -0.457889       -12.4598
  55   2.0000      -0.445925       -12.1342
  56   2.0000      -0.442646       -12.0450
  57   2.0000      -0.440891       -11.9973
  58   2.0000      -0.437449       -11.9036
  59   2.0000      -0.422876       -11.5070
  60   2.0000      -0.419612       -11.4182
  61   2.0000      -0.412640       -11.2285
  62   2.0000      -0.401284       -10.9195
  63   2.0000      -0.336487        -9.1563
  64   2.0000      -0.329552        -8.9676
  65   2.0000      -0.319224        -8.6865
  66   2.0000      -0.309529        -8.4227
  67   0.0000       0.045141         1.2284
  68   0.0000       0.055962         1.5228
  69   0.0000       0.117476         3.1967
  70   0.0000       0.122941         3.3454
  71   0.0000       0.130161         3.5419

MULLIKEN ATOMIC CHARGES
-----------------------
   0 S :    0.143049
   1 C :   -0.136063
   2 C :   -0.112844
   3 C :    0.057030
   4 C :   -0.188875
   5 H :    0.016254
   6 C :    0.073376
   7 H :    0.050779
   8 H :    0.013222
   9 C :   -0.117350
  10 H :    0.054757
  11 H :    0.056227
  12 C :   -0.072558
  13 H :    0.034277
  14 H :    0.033961
  15 H :    0.044664
  16 S :    0.109557
  17 C :   -0.107327
  18 C :   -0.011037
  19 C :   -0.061834
  20 C :   -0.167917
  21 H :    0.010523
  22 C :    0.047438
  23 H :    0.012309
  24 H :    0.021277
  25 C :   -0.051688
  26 H :    0.016327
  27 H :    0.030486
  28 C :   -0.019820
  29 H :    0.024893
  30 H :    0.038997
  31 H :    0.026794
  32 H :    0.060784
  33 H :    0.070330
Sum of atomic charges:   -0.0000000

LOEWDIN ATOMIC CHARGES
----------------------
   0 S :    0.430057
   1 C :   -0.205792
   2 C :   -0.065080
   3 C :   -0.057153
   4 C :   -0.219683
   5 H :    0.032217
   6 C :   -0.039150
   7 H :    0.043719
   8 H :    0.026302
   9 C :   -0.047994
  10 H :    0.033904
  11 H :    0.038586
  12 C :   -0.073725
  13 H :    0.024940
  14 H :    0.025320
  15 H :    0.027894
  16 S :    0.432157
  17 C :   -0.194993
  18 C :   -0.077026
  19 C :   -0.047454
  20 C :   -0.228855
  21 H :    0.030223
  22 C :   -0.036459
  23 H :    0.024278
  24 H :    0.029525
  25 C :   -0.038625
  26 H :    0.020452
  27 H :    0.023918
  28 C :   -0.060353
  29 H :    0.018569
  30 H :    0.028954
  31 H :    0.028340
  32 H :    0.036742
  33 H :    0.036244

  Mayer bond orders larger than 0.100000
B(  0-S ,  1-C ) :   1.1566 B(  0-S ,  4-C ) :   1.1517 B(  1-C ,  2-C ) :   1.5969
B(  1-C , 32-H ) :   0.9626 B(  2-C ,  3-C ) :   1.2613 B(  2-C ,  6-C ) :   1.0086
B(  3-C ,  4-C ) :   1.5857 B(  3-C ,  5-H ) :   0.9860 B(  4-C , 20-C ) :   1.0160
B(  6-C ,  7-H ) :   0.9396 B(  6-C ,  8-H ) :   0.9428 B(  6-C ,  9-C ) :   1.0470
B(  9-C , 10-H ) :   0.9577 B(  9-C , 11-H ) :   0.9589 B(  9-C , 12-C ) :   1.0693
B( 12-C , 13-H ) :   0.9758 B( 12-C , 14-H ) :   0.9766 B( 12-C , 15-H ) :   0.9781
B( 16-S , 17-C ) :   1.1921 B( 16-S , 20-C ) :   1.1492 B( 17-C , 18-C ) :   1.5666
B( 17-C , 33-H ) :   0.9620 B( 18-C , 19-C ) :   1.2608 B( 18-C , 21-H ) :   1.0030
B( 19-C , 20-C ) :   1.5779 B( 19-C , 22-C ) :   1.0326 B( 22-C , 23-H ) :   0.9357
B( 22-C , 24-H ) :   0.9298 B( 22-C , 25-C ) :   1.0717 B( 25-C , 26-H ) :   0.9454
B( 25-C , 27-H ) :   0.9562 B( 25-C , 28-C ) :   1.0843 B( 28-C , 29-H ) :   0.9736
B( 28-C , 30-H ) :   0.9741 B( 28-C , 31-H ) :   0.9724

Dispersion correction           -0.014151435
FINAL SINGLE POINT ENERGY     -1339.876697812671

DIPOLE MOMENT
-------------
                                X             Y             Z
Electronic contribution:     -0.55203      21.83314      -4.86130
Nuclear contribution   :      0.70010     -22.28849       5.00435
                        -----------------------------------------
Total Dipole Moment    :      0.14807      -0.45535       0.14306
                        -----------------------------------------
Magnitude (a.u.)       :      0.49973
Magnitude (Debye)      :      1.27022

Rotational constants in cm-1:     0.020639     0.007373     0.006325
Rotational constants in MHz :   618.742413   221.050284   189.606447

                             ****ORCA TERMINATED NORMALLY****
TOTAL RUN TIME: 0 days 0 hours 0 minutes 21 seconds 86 msec
