                         Program Version 4.2.1 -  RELEASE  -
|  1> ! wB97X-D3 SP def2-SVP
|  2> %pal
|  3> nprocs 24
|  4> end
|  5>
|  6> * xyz 0 1
|  7> S 	 42.0229 	 -20.0664 	 -114.025
|  8> C 	 42.2472 	 -19.2789 	 -112.528
|  9> C 	 41.861 	 -20.071 	 -111.509
| 10> C 	 41.4832 	 -21.397 	 -111.922
| 11> C 	 41.7557 	 -21.6111 	 -113.266
| 12> H 	 41.1937 	 -22.2406 	 -111.317
| 13> C 	 42.031 	 -19.6487 	 -110.07
| 14> H 	 41.8169 	 -18.5299 	 -110.041
| 15> H 	 43.0417 	 -19.7309 	 -109.864
| 16> C 	 41.3393 	 -20.4451 	 -108.995
| 17> H 	 40.3056 	 -20.5681 	 -109.147
| 18> H 	 41.6107 	 -21.5166 	 -109.066
| 19> C 	 41.7184 	 -19.9856 	 -107.579
| 20> H 	 41.0686 	 -20.5893 	 -106.975
| 21> H 	 42.7748 	 -20.206 	 -107.324
| 22> H 	 41.5119 	 -18.8891 	 -107.559
| 23> S 	 42.1567 	 -23.0436 	 -115.649
| 24> C 	 41.2305 	 -24.4669 	 -115.985
| 25> C 	 40.4305 	 -24.8024 	 -114.881
| 26> C 	 40.3882 	 -23.7705 	 -113.88
| 27> C 	 41.3944 	 -22.8338 	 -114.08
| 28> H 	 39.8921 	 -25.713 	 -114.917
| 29> C 	 39.3736 	 -23.8744 	 -112.704
| 30> H 	 39.9277 	 -23.7763 	 -111.792
| 31> H 	 38.9944 	 -24.9412 	 -112.714
| 32> C 	 38.2393 	 -22.8785 	 -112.824
| 33> H 	 37.1993 	 -23.2256 	 -113.196
| 34> H 	 38.5612 	 -22.0706 	 -113.463
| 35> C 	 37.9516 	 -22.2976 	 -111.393
| 36> H 	 37.2522 	 -21.4713 	 -111.484
| 37> H 	 38.9387 	 -21.91 	 -111.041
| 38> H 	 37.6151 	 -23.1109 	 -110.689
| 39> H 	 42.6381 	 -18.3231 	 -112.352
| 40> H 	 41.3879 	 -25.0751 	 -116.849
| 41> *
| 42>
| 43>                          ****END OF INPUT****

CARTESIAN COORDINATES (ANGSTROEM)
---------------------------------
  S     42.022900  -20.066400  -114.025000
  C     42.247200  -19.278900  -112.528000
  C     41.861000  -20.071000  -111.509000
  C     41.483200  -21.397000  -111.922000
  C     41.755700  -21.611100  -113.266000
  H     41.193700  -22.240600  -111.317000
  C     42.031000  -19.648700  -110.070000
  H     41.816900  -18.529900  -110.041000
  H     43.041700  -19.730900  -109.864000
  C     41.339300  -20.445100  -108.995000
  H     40.305600  -20.568100  -109.147000
  H     41.610700  -21.516600  -109.066000
  C     41.718400  -19.985600  -107.579000
  H     41.068600  -20.589300  -106.975000
  H     42.774800  -20.206000  -107.324000
  H     41.511900  -18.889100  -107.559000
  S     42.156700  -23.043600  -115.649000
  C     41.230500  -24.466900  -115.985000
  C     40.430500  -24.802400  -114.881000
  C     40.388200  -23.770500  -113.880000
  C     41.394400  -22.833800  -114.080000
  H     39.892100  -25.713000  -114.917000
  C     39.373600  -23.874400  -112.704000
  H     39.927700  -23.776300  -111.792000
  H     38.994400  -24.941200  -112.714000
  C     38.239300  -22.878500  -112.824000
  H     37.199300  -23.225600  -113.196000
  H     38.561200  -22.070600  -113.463000
  C     37.951600  -22.297600  -111.393000
  H     37.252200  -21.471300  -111.484000
  H     38.938700  -21.910000  -111.041000
  H     37.615100  -23.110900  -110.689000
  H     42.638100  -18.323100  -112.352000
  H     41.387900  -25.075100  -116.849000

 Total Charge           Charge          ....    0
 Multiplicity           Mult            ....    1
 Number of Electrons    NEL             ....  134
 Basis Dimension        Dim             ....  322

ORBITAL ENERGIES
----------------

  NO   OCC          E(Eh)            E(eV)
   0   2.0000     -88.967100     -2420.9179
   1   2.0000     -88.963452     -2420.8186
   2   2.0000     -10.333009      -281.1755
   3   2.0000     -10.332026      -281.1487
   4   2.0000     -10.317558      -280.7550
   5   2.0000     -10.308134      -280.4986
   6   2.0000     -10.300845      -280.3002
   7   2.0000     -10.298756      -280.2434
   8   2.0000     -10.296265      -280.1756
   9   2.0000     -10.295080      -280.1434
  10   2.0000     -10.294885      -280.1381
  11   2.0000     -10.290306      -280.0135
  12   2.0000     -10.287679      -279.9420
  13   2.0000     -10.284089      -279.8443
  14   2.0000     -10.283345      -279.8241
  15   2.0000     -10.282798      -279.8092
  16   2.0000      -8.081945      -219.9209
  17   2.0000      -8.079117      -219.8439
  18   2.0000      -6.040400      -164.3676
  19   2.0000      -6.037662      -164.2931
  20   2.0000      -6.036354      -164.2575
  21   2.0000      -6.033537      -164.1809
  22   2.0000      -6.032850      -164.1622
  23   2.0000      -6.029733      -164.0774
  24   2.0000      -1.009874       -27.4801
  25   2.0000      -0.988589       -26.9009
  26   2.0000      -0.916969       -24.9520
  27   2.0000      -0.908560       -24.7232
  28   2.0000      -0.869548       -23.6616
  29   2.0000      -0.850110       -23.1327
  30   2.0000      -0.844769       -22.9873
  31   2.0000      -0.817742       -22.2519
  32   2.0000      -0.779178       -21.2025
  33   2.0000      -0.771012       -20.9803
  34   2.0000      -0.712244       -19.3811
  35   2.0000      -0.693686       -18.8762
  36   2.0000      -0.688315       -18.7300
  37   2.0000      -0.664989       -18.0953
  38   2.0000      -0.643548       -17.5118
  39   2.0000      -0.621347       -16.9077
  40   2.0000      -0.595447       -16.2029
  41   2.0000      -0.575794       -15.6681
  42   2.0000      -0.568223       -15.4621
  43   2.0000      -0.559752       -15.2316
  44   2.0000      -0.533649       -14.5213
  45   2.0000      -0.524070       -14.2607
  46   2.0000      -0.513386       -13.9699
  47   2.0000      -0.510994       -13.9049
  48   2.0000      -0.507786       -13.8176
  49   2.0000      -0.500780       -13.6269
  50   2.0000      -0.497673       -13.5424
  51   2.0000      -0.482100       -13.1186
  52   2.0000      -0.475813       -12.9475
  53   2.0000      -0.467447       -12.7199
  54   2.0000      -0.457797       -12.4573
  55   2.0000      -0.452003       -12.2996
  56   2.0000      -0.444559       -12.0971
  57   2.0000      -0.440881       -11.9970
  58   2.0000      -0.437772       -11.9124
  59   2.0000      -0.422959       -11.5093
  60   2.0000      -0.415137       -11.2964
  61   2.0000      -0.409967       -11.1558
  62   2.0000      -0.405272       -11.0280
  63   2.0000      -0.352315        -9.5870
  64   2.0000      -0.332173        -9.0389
  65   2.0000      -0.327667        -8.9163
  66   2.0000      -0.290992        -7.9183
  67   0.0000       0.023650         0.6436
  68   0.0000       0.078759         2.1432
  69   0.0000       0.110734         3.0132
  70   0.0000       0.117196         3.1891
  71   0.0000       0.134478         3.6593

MULLIKEN ATOMIC CHARGES
-----------------------
   0 S :    0.108194
   1 C :   -0.092714
   2 C :   -0.062247
   3 C :   -0.030788
   4 C :   -0.083137
   5 H :    0.006423
   6 C :    0.071192
   7 H :    0.031273
   8 H :    0.021025
   9 C :   -0.111725
  10 H :    0.022541
  11 H :    0.020924
  12 C :   -0.025222
  13 H :    0.031245
  14 H :    0.043465
  15 H :    0.040946
  16 S :    0.107761
  17 C :   -0.093742
  18 C :   -0.018663
  19 C :   -0.083789
  20 C :   -0.155836
  21 H :    0.009774
  22 C :    0.068871
  23 H :    0.028297
  24 H :    0.031405
  25 C :   -0.075373
  26 H :    0.049253
  27 H :    0.047582
  28 C :   -0.087438
  29 H :    0.038875
  30 H :    0.022910
  31 H :    0.045476
  32 H :    0.017322
  33 H :    0.055923
Sum of atomic charges:   -0.0000000

LOEWDIN ATOMIC CHARGES
----------------------
   0 S :    0.420986
   1 C :   -0.203948
   2 C :   -0.060642
   3 C :   -0.074679
   4 C :   -0.185729
   5 H :    0.024137
   6 C :   -0.033862
   7 H :    0.036454
   8 H :    0.026379
   9 C :   -0.048634
  10 H :    0.015294
  11 H :    0.025639
  12 C :   -0.056763
  13 H :    0.026398
  14 H :    0.029204
  15 H :    0.030090
  16 S :    0.413002
  17 C :   -0.187305
  18 C :   -0.066473
  19 C :   -0.053814
  20 C :   -0.202519
  21 H :    0.024957
  22 C :   -0.028364
  23 H :    0.022533
  24 H :    0.039584
  25 C :   -0.044443
  26 H :    0.034759
  27 H :    0.026370
  28 C :   -0.067415
  29 H :    0.023189
  30 H :    0.020603
  31 H :    0.028518
  32 H :    0.020882
  33 H :    0.025609

  Mayer bond orders larger than 0.100000
B(  0-S ,  1-C ) :   1.1302 B(  0-S ,  4-C ) :   1.1681 B(  1-C ,  2-C ) :   1.6225
B(  1-C , 32-H ) :   0.9776 B(  2-C ,  3-C ) :   1.2325 B(  2-C ,  6-C ) :   1.0136
B(  3-C ,  4-C ) :   1.5660 B(  3-C ,  5-H ) :   0.9935 B(  4-C , 20-C ) :   1.0282
B(  6-C ,  7-H ) :   0.9368 B(  6-C ,  8-H ) :   0.9345 B(  6-C ,  9-C ) :   1.0785
B(  9-C , 10-H ) :   0.9580 B(  9-C , 11-H ) :   0.9352 B(  9-C , 12-C ) :   1.0812
B( 12-C , 13-H ) :   0.9720 B( 12-C , 14-H ) :   0.9752 B( 12-C , 15-H ) :   0.9759
B( 16-S , 17-C ) :   1.1701 B( 16-S , 20-C ) :   1.1437 B( 17-C , 18-C ) :   1.5926
B( 17-C , 33-H ) :   0.9704 B( 18-C , 19-C ) :   1.2555 B( 18-C , 21-H ) :   0.9923
B( 19-C , 20-C ) :   1.5835 B( 19-C , 22-C ) :   1.0282 B( 22-C , 23-H ) :   0.9548
B( 22-C , 24-H ) :   0.9266 B( 22-C , 25-C ) :   1.0334 B( 25-C , 26-H ) :   0.9563
B( 25-C , 27-H ) :   0.9663 B( 25-C , 28-C ) :   1.0698 B( 28-C , 29-H ) :   0.9736
B( 28-C , 30-H ) :   0.9767 B( 28-C , 31-H ) :   0.9730

Dispersion correction           -0.015057819
FINAL SINGLE POINT ENERGY     -1339.866302828829

DIPOLE MOMENT
-------------
                                X             Y             Z
Electronic contribution:     13.09260      -1.34369     -28.88015
Nuclear contribution   :    -13.37566       1.12083      29.41792
                        -----------------------------------------
Total Dipole Moment    :     -0.28306      -0.22285       0.53778
                        -----------------------------------------
Magnitude (a.u.)       :      0.64729
Magnitude (Debye)      :      1.64529

Rotational constants in cm-1:     0.020280     0.008962     0.006975
Rotational constants in MHz :   607.965929   268.675161   209.116144

                             ****ORCA TERMINATED NORMALLY****
TOTAL RUN TIME: 0 days 0 hours 0 minutes 22 seconds 702 msec
