                         Program Version 4.2.1 -  RELEASE  -
|  1> ! wB97X-D3 SP def2-SVP
|  2> %pal
|  3> nprocs 24
|  4> end
|  5>
|  6> * xyz 0 1
|  7> S 	 -57.97 	 14.62 	 -84.8989
|  8> C 	 -58.9963 	 14.9781 	 -86.2608
|  9> C 	 -58.9529 	 16.3569 	 -86.53
| 10> C 	 -58.1241 	 17.041 	 -85.6235
| 11> C 	 -57.3496 	 16.2695 	 -84.6881
| 12> H 	 -58.0512 	 18.136 	 -85.5468
| 13> C 	 -59.7355 	 17.1086 	 -87.6689
| 14> H 	 -60.2159 	 17.9847 	 -87.2866
| 15> H 	 -60.4257 	 16.3418 	 -88.0639
| 16> C 	 -58.916 	 17.6255 	 -88.8606
| 17> H 	 -58.4124 	 16.6767 	 -89.3033
| 18> H 	 -59.551 	 17.8868 	 -89.7239
| 19> C 	 -57.845 	 18.7356 	 -88.5888
| 20> H 	 -58.0681 	 19.5329 	 -87.8317
| 21> H 	 -56.8768 	 18.3711 	 -88.3175
| 22> H 	 -57.7747 	 19.2415 	 -89.5716
| 23> S 	 -56.6541 	 16.0365 	 -82.0735
| 24> C 	 -55.7472 	 17.2257 	 -81.1804
| 25> C 	 -55.1637 	 18.0035 	 -82.1695
| 26> C 	 -55.583 	 17.8178 	 -83.5204
| 27> C 	 -56.4529 	 16.7491 	 -83.6002
| 28> H 	 -54.4948 	 18.7693 	 -81.9552
| 29> C 	 -54.9634 	 18.6133 	 -84.6663
| 30> H 	 -54.4217 	 19.5206 	 -84.1921
| 31> H 	 -55.78 	 18.9126 	 -85.3069
| 32> C 	 -53.9507 	 17.8779 	 -85.4504
| 33> H 	 -54.4091 	 16.9923 	 -85.7668
| 34> H 	 -53.1501 	 17.4897 	 -84.8724
| 35> C 	 -53.4577 	 18.6937 	 -86.6135
| 36> H 	 -53.4897 	 19.8023 	 -86.4083
| 37> H 	 -54.2195 	 18.6514 	 -87.3589
| 38> H 	 -52.43 	 18.3923 	 -86.9483
| 39> H 	 -59.575 	 14.2485 	 -86.7553
| 40> H 	 -55.6112 	 17.3439 	 -80.1008
| 41> *
| 42>
| 43>                          ****END OF INPUT****

CARTESIAN COORDINATES (ANGSTROEM)
---------------------------------
  S    -57.970000   14.620000  -84.898900
  C    -58.996300   14.978100  -86.260800
  C    -58.952900   16.356900  -86.530000
  C    -58.124100   17.041000  -85.623500
  C    -57.349600   16.269500  -84.688100
  H    -58.051200   18.136000  -85.546800
  C    -59.735500   17.108600  -87.668900
  H    -60.215900   17.984700  -87.286600
  H    -60.425700   16.341800  -88.063900
  C    -58.916000   17.625500  -88.860600
  H    -58.412400   16.676700  -89.303300
  H    -59.551000   17.886800  -89.723900
  C    -57.845000   18.735600  -88.588800
  H    -58.068100   19.532900  -87.831700
  H    -56.876800   18.371100  -88.317500
  H    -57.774700   19.241500  -89.571600
  S    -56.654100   16.036500  -82.073500
  C    -55.747200   17.225700  -81.180400
  C    -55.163700   18.003500  -82.169500
  C    -55.583000   17.817800  -83.520400
  C    -56.452900   16.749100  -83.600200
  H    -54.494800   18.769300  -81.955200
  C    -54.963400   18.613300  -84.666300
  H    -54.421700   19.520600  -84.192100
  H    -55.780000   18.912600  -85.306900
  C    -53.950700   17.877900  -85.450400
  H    -54.409100   16.992300  -85.766800
  H    -53.150100   17.489700  -84.872400
  C    -53.457700   18.693700  -86.613500
  H    -53.489700   19.802300  -86.408300
  H    -54.219500   18.651400  -87.358900
  H    -52.430000   18.392300  -86.948300
  H    -59.575000   14.248500  -86.755300
  H    -55.611200   17.343900  -80.100800

 Total Charge           Charge          ....    0
 Multiplicity           Mult            ....    1
 Number of Electrons    NEL             ....  134
 Basis Dimension        Dim             ....  322

ORBITAL ENERGIES
----------------

  NO   OCC          E(Eh)            E(eV)
   0   2.0000     -88.969778     -2420.9907
   1   2.0000     -88.964720     -2420.8531
   2   2.0000     -10.342874      -281.4439
   3   2.0000     -10.331280      -281.1284
   4   2.0000     -10.322137      -280.8796
   5   2.0000     -10.318864      -280.7906
   6   2.0000     -10.307761      -280.4884
   7   2.0000     -10.301913      -280.3293
   8   2.0000     -10.299888      -280.2742
   9   2.0000     -10.298774      -280.2439
  10   2.0000     -10.298638      -280.2402
  11   2.0000     -10.296066      -280.1702
  12   2.0000     -10.289724      -279.9976
  13   2.0000     -10.285971      -279.8955
  14   2.0000     -10.279375      -279.7160
  15   2.0000     -10.269118      -279.4369
  16   2.0000      -8.083699      -219.9686
  17   2.0000      -8.080658      -219.8859
  18   2.0000      -6.042188      -164.4163
  19   2.0000      -6.039182      -164.3345
  20   2.0000      -6.038091      -164.3048
  21   2.0000      -6.034755      -164.2140
  22   2.0000      -6.034738      -164.2136
  23   2.0000      -6.031521      -164.1260
  24   2.0000      -1.012208       -27.5436
  25   2.0000      -0.985917       -26.8282
  26   2.0000      -0.921998       -25.0888
  27   2.0000      -0.903590       -24.5879
  28   2.0000      -0.869079       -23.6488
  29   2.0000      -0.853714       -23.2307
  30   2.0000      -0.840142       -22.8614
  31   2.0000      -0.814870       -22.1737
  32   2.0000      -0.784062       -21.3354
  33   2.0000      -0.774689       -21.0804
  34   2.0000      -0.707371       -19.2485
  35   2.0000      -0.697693       -18.9852
  36   2.0000      -0.695484       -18.9251
  37   2.0000      -0.670381       -18.2420
  38   2.0000      -0.642096       -17.4723
  39   2.0000      -0.616624       -16.7792
  40   2.0000      -0.599216       -16.3055
  41   2.0000      -0.572155       -15.5691
  42   2.0000      -0.570718       -15.5300
  43   2.0000      -0.546546       -14.8723
  44   2.0000      -0.541867       -14.7450
  45   2.0000      -0.533011       -14.5040
  46   2.0000      -0.520664       -14.1680
  47   2.0000      -0.514555       -14.0018
  48   2.0000      -0.505204       -13.7473
  49   2.0000      -0.503472       -13.7002
  50   2.0000      -0.491241       -13.3674
  51   2.0000      -0.481933       -13.1141
  52   2.0000      -0.480818       -13.0837
  53   2.0000      -0.463909       -12.6236
  54   2.0000      -0.461224       -12.5505
  55   2.0000      -0.446915       -12.1612
  56   2.0000      -0.444749       -12.1022
  57   2.0000      -0.435324       -11.8458
  58   2.0000      -0.429897       -11.6981
  59   2.0000      -0.426501       -11.6057
  60   2.0000      -0.413168       -11.2429
  61   2.0000      -0.409986       -11.1563
  62   2.0000      -0.404463       -11.0060
  63   2.0000      -0.356414        -9.6985
  64   2.0000      -0.333211        -9.0671
  65   2.0000      -0.327544        -8.9129
  66   2.0000      -0.288583        -7.8528
  67   0.0000       0.021010         0.5717
  68   0.0000       0.072232         1.9655
  69   0.0000       0.112121         3.0510
  70   0.0000       0.120017         3.2658
  71   0.0000       0.123861         3.3704

MULLIKEN ATOMIC CHARGES
-----------------------
   0 S :    0.104140
   1 C :   -0.114649
   2 C :   -0.080311
   3 C :   -0.001155
   4 C :   -0.137103
   5 H :    0.023238
   6 C :    0.088037
   7 H :    0.032008
   8 H :    0.024882
   9 C :   -0.113056
  10 H :    0.030956
  11 H :    0.039688
  12 C :   -0.065857
  13 H :    0.036893
  14 H :    0.042488
  15 H :    0.038449
  16 S :    0.103955
  17 C :   -0.092195
  18 C :   -0.013325
  19 C :   -0.071982
  20 C :   -0.133440
  21 H :   -0.012340
  22 C :    0.045810
  23 H :    0.030715
  24 H :    0.011561
  25 C :   -0.004273
  26 H :    0.011394
  27 H :    0.009058
  28 C :   -0.038385
  29 H :    0.024465
  30 H :    0.017484
  31 H :    0.050294
  32 H :    0.040579
  33 H :    0.071979
Sum of atomic charges:   -0.0000000

LOEWDIN ATOMIC CHARGES
----------------------
   0 S :    0.409478
   1 C :   -0.193093
   2 C :   -0.066042
   3 C :   -0.071432
   4 C :   -0.193505
   5 H :    0.029374
   6 C :   -0.026335
   7 H :    0.026623
   8 H :    0.033645
   9 C :   -0.051662
  10 H :    0.033198
  11 H :    0.026660
  12 C :   -0.075964
  13 H :    0.027478
  14 H :    0.021227
  15 H :    0.034468
  16 S :    0.438353
  17 C :   -0.194806
  18 C :   -0.064773
  19 C :   -0.063673
  20 C :   -0.212884
  21 H :    0.015321
  22 C :   -0.026480
  23 H :    0.037382
  24 H :    0.026014
  25 C :   -0.042758
  26 H :    0.020670
  27 H :    0.020418
  28 C :   -0.065851
  29 H :    0.028880
  30 H :    0.021370
  31 H :    0.034276
  32 H :    0.022278
  33 H :    0.042145

  Mayer bond orders larger than 0.100000
B(  0-S ,  1-C ) :   1.1667 B(  0-S ,  4-C ) :   1.1644 B(  1-C ,  2-C ) :   1.5493
B(  1-C ,  4-C ) :   0.1184 B(  1-C , 32-H ) :   0.9768 B(  2-C ,  3-C ) :   1.3119
B(  2-C ,  6-C ) :   1.0148 B(  3-C ,  4-C ) :   1.5172 B(  3-C ,  5-H ) :   0.9799
B(  4-C , 20-C ) :   1.0385 B(  6-C ,  7-H ) :   0.9463 B(  6-C ,  8-H ) :   0.9399
B(  6-C ,  9-C ) :   1.0761 B(  9-C , 10-H ) :   0.9506 B(  9-C , 11-H ) :   0.9643
B(  9-C , 12-C ) :   1.0549 B( 12-C , 13-H ) :   0.9767 B( 12-C , 14-H ) :   0.9771
B( 12-C , 15-H ) :   0.9738 B( 16-S , 17-C ) :   1.1617 B( 16-S , 20-C ) :   1.1721
B( 17-C , 18-C ) :   1.5495 B( 17-C , 20-C ) :   0.1012 B( 17-C , 33-H ) :   0.9737
B( 18-C , 19-C ) :   1.3055 B( 18-C , 21-H ) :   0.9915 B( 19-C , 20-C ) :   1.5443
B( 19-C , 22-C ) :   1.0364 B( 22-C , 23-H ) :   0.9295 B( 22-C , 24-H ) :   0.9269
B( 22-C , 25-C ) :   1.0858 B( 25-C , 26-H ) :   0.9472 B( 25-C , 27-H ) :   0.9480
B( 25-C , 28-C ) :   1.0746 B( 28-C , 29-H ) :   0.9700 B( 28-C , 30-H ) :   0.9725
B( 28-C , 31-H ) :   0.9727

Dispersion correction           -0.014771549
FINAL SINGLE POINT ENERGY     -1339.858679605476

DIPOLE MOMENT
-------------
                                X             Y             Z
Electronic contribution:     -6.95158     -18.59260      23.89853
Nuclear contribution   :      7.00469      19.11108     -24.26568
                        -----------------------------------------
Total Dipole Moment    :      0.05311       0.51848      -0.36715
                        -----------------------------------------
Magnitude (a.u.)       :      0.63753
Magnitude (Debye)      :      1.62047

Rotational constants in cm-1:     0.016934     0.010172     0.007118
Rotational constants in MHz :   507.667698   304.947074   213.402196

                             ****ORCA TERMINATED NORMALLY****
TOTAL RUN TIME: 0 days 0 hours 0 minutes 22 seconds 244 msec
