                         Program Version 4.2.1 -  RELEASE  -
|  1> ! wB97X-D3 SP def2-SVP
|  2> %pal
|  3> nprocs 24
|  4> end
|  5>
|  6> * xyz 0 1
|  7> S 	 -58.756 	 -1.90155 	 -31.3541
|  8> C 	 -59.6521 	 -1.6859 	 -29.921
|  9> C 	 -59.549 	 -0.408536 	 -29.474
| 10> C 	 -58.6082 	 0.375819 	 -30.2781
| 11> C 	 -57.8546 	 -0.43454 	 -31.0888
| 12> H 	 -58.2454 	 1.41623 	 -30.1759
| 13> C 	 -60.1588 	 0.157096 	 -28.2103
| 14> H 	 -60.2117 	 1.25303 	 -28.3659
| 15> H 	 -59.6512 	 -0.00439649 	 -27.2066
| 16> C 	 -61.5928 	 -0.30032 	 -27.942
| 17> H 	 -62.4133 	 0.204443 	 -28.4848
| 18> H 	 -61.6159 	 -1.37414 	 -28.2317
| 19> C 	 -62.0214 	 -0.0918634 	 -26.3992
| 20> H 	 -61.2256 	 -0.272889 	 -25.6689
| 21> H 	 -62.32 	 0.914218 	 -26.1496
| 22> H 	 -62.8634 	 -0.721713 	 -26.2631
| 23> S 	 -56.7574 	 -0.614065 	 -33.6413
| 24> C 	 -55.262 	 0.332802 	 -33.9495
| 25> C 	 -54.8798 	 1.05175 	 -32.8709
| 26> C 	 -55.6935 	 0.831632 	 -31.7163
| 27> C 	 -56.7959 	 0.0271583 	 -31.9281
| 28> H 	 -54.0871 	 1.75659 	 -32.9062
| 29> C 	 -55.2158 	 1.44784 	 -30.3349
| 30> H 	 -54.164 	 1.05714 	 -30.2908
| 31> H 	 -55.6343 	 0.885188 	 -29.475
| 32> C 	 -55.1373 	 2.96097 	 -30.1117
| 33> H 	 -54.6999 	 3.17364 	 -29.1326
| 34> H 	 -56.1558 	 3.27023 	 -30.0649
| 35> C 	 -54.3253 	 3.75749 	 -31.2184
| 36> H 	 -55.0053 	 3.7363 	 -32.1047
| 37> H 	 -53.3366 	 3.33641 	 -31.4142
| 38> H 	 -54.2107 	 4.82909 	 -30.8722
| 39> H 	 -60.1619 	 -2.50682 	 -29.4818
| 40> H 	 -54.7326 	 0.296425 	 -34.8942
| 41> *
| 42>
| 43>                          ****END OF INPUT****

CARTESIAN COORDINATES (ANGSTROEM)
---------------------------------
  S    -58.756000   -1.901550  -31.354100
  C    -59.652100   -1.685900  -29.921000
  C    -59.549000   -0.408536  -29.474000
  C    -58.608200    0.375819  -30.278100
  C    -57.854600   -0.434540  -31.088800
  H    -58.245400    1.416230  -30.175900
  C    -60.158800    0.157096  -28.210300
  H    -60.211700    1.253030  -28.365900
  H    -59.651200   -0.004396  -27.206600
  C    -61.592800   -0.300320  -27.942000
  H    -62.413300    0.204443  -28.484800
  H    -61.615900   -1.374140  -28.231700
  C    -62.021400   -0.091863  -26.399200
  H    -61.225600   -0.272889  -25.668900
  H    -62.320000    0.914218  -26.149600
  H    -62.863400   -0.721713  -26.263100
  S    -56.757400   -0.614065  -33.641300
  C    -55.262000    0.332802  -33.949500
  C    -54.879800    1.051750  -32.870900
  C    -55.693500    0.831632  -31.716300
  C    -56.795900    0.027158  -31.928100
  H    -54.087100    1.756590  -32.906200
  C    -55.215800    1.447840  -30.334900
  H    -54.164000    1.057140  -30.290800
  H    -55.634300    0.885188  -29.475000
  C    -55.137300    2.960970  -30.111700
  H    -54.699900    3.173640  -29.132600
  H    -56.155800    3.270230  -30.064900
  C    -54.325300    3.757490  -31.218400
  H    -55.005300    3.736300  -32.104700
  H    -53.336600    3.336410  -31.414200
  H    -54.210700    4.829090  -30.872200
  H    -60.161900   -2.506820  -29.481800
  H    -54.732600    0.296425  -34.894200

 Total Charge           Charge          ....    0
 Multiplicity           Mult            ....    1
 Number of Electrons    NEL             ....  134
 Basis Dimension        Dim             ....  322

ORBITAL ENERGIES
----------------

  NO   OCC          E(Eh)            E(eV)
   0   2.0000     -88.962000     -2420.7791
   1   2.0000     -88.960992     -2420.7517
   2   2.0000     -10.331774      -281.1419
   3   2.0000     -10.325698      -280.9765
   4   2.0000     -10.320515      -280.8355
   5   2.0000     -10.310066      -280.5512
   6   2.0000     -10.309137      -280.5259
   7   2.0000     -10.304768      -280.4070
   8   2.0000     -10.301024      -280.3051
   9   2.0000     -10.298327      -280.2317
  10   2.0000     -10.296577      -280.1841
  11   2.0000     -10.293259      -280.0938
  12   2.0000     -10.293178      -280.0916
  13   2.0000     -10.292664      -280.0776
  14   2.0000     -10.290792      -280.0267
  15   2.0000     -10.278444      -279.6907
  16   2.0000      -8.077349      -219.7958
  17   2.0000      -8.075405      -219.7429
  18   2.0000      -6.035857      -164.2440
  19   2.0000      -6.034179      -164.1983
  20   2.0000      -6.031905      -164.1365
  21   2.0000      -6.030312      -164.0931
  22   2.0000      -6.027715      -164.0225
  23   2.0000      -6.025760      -163.9693
  24   2.0000      -1.012035       -27.5389
  25   2.0000      -0.981440       -26.7063
  26   2.0000      -0.908070       -24.7098
  27   2.0000      -0.900628       -24.5073
  28   2.0000      -0.875537       -23.8246
  29   2.0000      -0.847325       -23.0569
  30   2.0000      -0.837203       -22.7814
  31   2.0000      -0.815980       -22.2039
  32   2.0000      -0.782242       -21.2859
  33   2.0000      -0.773173       -21.0391
  34   2.0000      -0.713095       -19.4043
  35   2.0000      -0.700563       -19.0633
  36   2.0000      -0.690042       -18.7770
  37   2.0000      -0.667495       -18.1635
  38   2.0000      -0.647300       -17.6139
  39   2.0000      -0.610618       -16.6158
  40   2.0000      -0.591935       -16.1074
  41   2.0000      -0.572456       -15.5773
  42   2.0000      -0.557216       -15.1626
  43   2.0000      -0.553067       -15.0497
  44   2.0000      -0.537628       -14.6296
  45   2.0000      -0.526627       -14.3302
  46   2.0000      -0.521684       -14.1957
  47   2.0000      -0.510885       -13.9019
  48   2.0000      -0.506656       -13.7868
  49   2.0000      -0.496558       -13.5120
  50   2.0000      -0.490861       -13.3570
  51   2.0000      -0.479749       -13.0546
  52   2.0000      -0.478858       -13.0304
  53   2.0000      -0.466525       -12.6948
  54   2.0000      -0.460103       -12.5200
  55   2.0000      -0.445713       -12.1285
  56   2.0000      -0.440967       -11.9993
  57   2.0000      -0.438697       -11.9375
  58   2.0000      -0.434415       -11.8210
  59   2.0000      -0.420943       -11.4544
  60   2.0000      -0.417997       -11.3743
  61   2.0000      -0.410989       -11.1836
  62   2.0000      -0.404191       -10.9986
  63   2.0000      -0.359920        -9.7939
  64   2.0000      -0.331955        -9.0330
  65   2.0000      -0.322958        -8.7881
  66   2.0000      -0.289433        -7.8759
  67   0.0000       0.020588         0.5602
  68   0.0000       0.071559         1.9472
  69   0.0000       0.093825         2.5531
  70   0.0000       0.116239         3.1630
  71   0.0000       0.130161         3.5419

MULLIKEN ATOMIC CHARGES
-----------------------
   0 S :    0.096356
   1 C :   -0.112768
   2 C :   -0.054834
   3 C :    0.005415
   4 C :   -0.134516
   5 H :    0.032252
   6 C :    0.059408
   7 H :    0.029176
   8 H :    0.053339
   9 C :   -0.129204
  10 H :    0.043942
  11 H :    0.029760
  12 C :   -0.053304
  13 H :    0.028040
  14 H :    0.028318
  15 H :    0.031801
  16 S :    0.064863
  17 C :   -0.080495
  18 C :   -0.007020
  19 C :   -0.045422
  20 C :   -0.142006
  21 H :    0.004591
  22 C :    0.002565
  23 H :    0.031226
  24 H :    0.037382
  25 C :   -0.032970
  26 H :    0.033348
  27 H :    0.021727
  28 C :   -0.105832
  29 H :    0.057876
  30 H :    0.048325
  31 H :    0.050413
  32 H :    0.049001
  33 H :    0.059249
Sum of atomic charges:   -0.0000000

LOEWDIN ATOMIC CHARGES
----------------------
   0 S :    0.411707
   1 C :   -0.195822
   2 C :   -0.065592
   3 C :   -0.056885
   4 C :   -0.191563
   5 H :    0.037339
   6 C :   -0.045054
   7 H :    0.033674
   8 H :    0.041381
   9 C :   -0.041224
  10 H :    0.028784
  11 H :    0.021129
  12 C :   -0.066440
  13 H :    0.021860
  14 H :    0.022411
  15 H :    0.022694
  16 S :    0.336067
  17 C :   -0.156007
  18 C :   -0.069658
  19 C :   -0.056452
  20 C :   -0.165357
  21 H :    0.027843
  22 C :   -0.042832
  23 H :    0.034621
  24 H :    0.033969
  25 C :   -0.037613
  26 H :    0.026596
  27 H :    0.017852
  28 C :   -0.072933
  29 H :    0.033550
  30 H :    0.022716
  31 H :    0.034906
  32 H :    0.023430
  33 H :    0.030901

  Mayer bond orders larger than 0.100000
B(  0-S ,  1-C ) :   1.1359 B(  0-S ,  4-C ) :   1.1331 B(  1-C ,  2-C ) :   1.6181
B(  1-C , 32-H ) :   0.9753 B(  2-C ,  3-C ) :   1.2004 B(  2-C ,  6-C ) :   1.0187
B(  3-C ,  4-C ) :   1.5828 B(  3-C ,  5-H ) :   0.9907 B(  4-C , 20-C ) :   1.0986
B(  6-C ,  7-H ) :   0.9409 B(  6-C ,  8-H ) :   0.9455 B(  6-C ,  9-C ) :   1.0502
B(  9-C , 10-H ) :   0.9571 B(  9-C , 11-H ) :   0.9645 B(  9-C , 12-C ) :   1.0660
B( 12-C , 13-H ) :   0.9771 B( 12-C , 14-H ) :   0.9786 B( 12-C , 15-H ) :   0.9774
B( 16-S , 17-C ) :   1.1221 B( 16-S , 20-C ) :   1.0899 B( 17-C , 18-C ) :   1.6540
B( 17-C , 33-H ) :   0.9650 B( 18-C , 19-C ) :   1.2050 B( 18-C , 21-H ) :   0.9894
B( 19-C , 20-C ) :   1.6576 B( 19-C , 22-C ) :   1.0100 B( 22-C , 23-H ) :   0.9416
B( 22-C , 24-H ) :   0.9420 B( 22-C , 25-C ) :   1.0653 B( 25-C , 26-H ) :   0.9532
B( 25-C , 27-H ) :   0.9567 B( 25-C , 28-C ) :   1.0746 B( 28-C , 29-H ) :   0.9689
B( 28-C , 30-H ) :   0.9718 B( 28-C , 31-H ) :   0.9721

Dispersion correction           -0.013631606
FINAL SINGLE POINT ENERGY     -1339.854083340451

DIPOLE MOMENT
-------------
                                X             Y             Z
Electronic contribution:      2.64921     -16.96802     -22.40955
Nuclear contribution   :     -2.46088      17.51392      22.97588
                        -----------------------------------------
Total Dipole Moment    :      0.18832       0.54590       0.56633
                        -----------------------------------------
Magnitude (a.u.)       :      0.80883
Magnitude (Debye)      :      2.05588

Rotational constants in cm-1:     0.020850     0.007571     0.005741
Rotational constants in MHz :   625.066868   226.968312   172.104896

                             ****ORCA TERMINATED NORMALLY****
TOTAL RUN TIME: 0 days 0 hours 0 minutes 21 seconds 135 msec
