                         Program Version 4.2.1 -  RELEASE  -
|  1> ! wB97X-D3 SP def2-SVP
|  2> %pal
|  3> nprocs 24
|  4> end
|  5>
|  6> * xyz 0 1
|  7> S 	 -84.0066 	 -46.0682 	 -83.2243
|  8> C 	 -85.4764 	 -45.7848 	 -82.319
|  9> C 	 -86.1163 	 -46.9525 	 -81.9738
| 10> C 	 -85.3009 	 -48.057 	 -82.199
| 11> C 	 -84.1025 	 -47.7578 	 -82.8618
| 12> H 	 -85.6142 	 -49.0991 	 -81.8456
| 13> C 	 -87.5437 	 -47.0467 	 -81.3879
| 14> H 	 -88.0064 	 -48.0373 	 -81.7624
| 15> H 	 -88.2478 	 -46.2956 	 -81.8554
| 16> C 	 -87.4764 	 -47.0845 	 -79.839
| 17> H 	 -87.2954 	 -48.1124 	 -79.5712
| 18> H 	 -86.6932 	 -46.4123 	 -79.4181
| 19> C 	 -88.8586 	 -46.6374 	 -79.2577
| 20> H 	 -88.5355 	 -46.8519 	 -78.2171
| 21> H 	 -89.1884 	 -45.6052 	 -79.4573
| 22> H 	 -89.6143 	 -47.3455 	 -79.5041
| 23> S 	 -81.3864 	 -48.055 	 -82.5667
| 24> C 	 -80.6416 	 -49.6905 	 -82.7581
| 25> C 	 -81.663 	 -50.6378 	 -83.0055
| 26> C 	 -82.9492 	 -50.0694 	 -83.082
| 27> C 	 -82.989 	 -48.6922 	 -82.961
| 28> H 	 -81.4369 	 -51.692 	 -83.2458
| 29> C 	 -84.1315 	 -51.0541 	 -83.3225
| 30> H 	 -83.8908 	 -51.8116 	 -84.0859
| 31> H 	 -84.9639 	 -50.4966 	 -83.8419
| 32> C 	 -84.7276 	 -51.805 	 -82.142
| 33> H 	 -84.6783 	 -51.0763 	 -81.2979
| 34> H 	 -84.0097 	 -52.5762 	 -81.8034
| 35> C 	 -86.1568 	 -52.2962 	 -82.3679
| 36> H 	 -86.9731 	 -51.6228 	 -82.5388
| 37> H 	 -86.5151 	 -52.9917 	 -81.5773
| 38> H 	 -86.0558 	 -52.8969 	 -83.2587
| 39> H 	 -86.0741 	 -44.7869 	 -82.349
| 40> H 	 -79.5939 	 -49.9077 	 -82.7066
| 41> *
| 42>
| 43>                          ****END OF INPUT****

CARTESIAN COORDINATES (ANGSTROEM)
---------------------------------
  S    -84.006600  -46.068200  -83.224300
  C    -85.476400  -45.784800  -82.319000
  C    -86.116300  -46.952500  -81.973800
  C    -85.300900  -48.057000  -82.199000
  C    -84.102500  -47.757800  -82.861800
  H    -85.614200  -49.099100  -81.845600
  C    -87.543700  -47.046700  -81.387900
  H    -88.006400  -48.037300  -81.762400
  H    -88.247800  -46.295600  -81.855400
  C    -87.476400  -47.084500  -79.839000
  H    -87.295400  -48.112400  -79.571200
  H    -86.693200  -46.412300  -79.418100
  C    -88.858600  -46.637400  -79.257700
  H    -88.535500  -46.851900  -78.217100
  H    -89.188400  -45.605200  -79.457300
  H    -89.614300  -47.345500  -79.504100
  S    -81.386400  -48.055000  -82.566700
  C    -80.641600  -49.690500  -82.758100
  C    -81.663000  -50.637800  -83.005500
  C    -82.949200  -50.069400  -83.082000
  C    -82.989000  -48.692200  -82.961000
  H    -81.436900  -51.692000  -83.245800
  C    -84.131500  -51.054100  -83.322500
  H    -83.890800  -51.811600  -84.085900
  H    -84.963900  -50.496600  -83.841900
  C    -84.727600  -51.805000  -82.142000
  H    -84.678300  -51.076300  -81.297900
  H    -84.009700  -52.576200  -81.803400
  C    -86.156800  -52.296200  -82.367900
  H    -86.973100  -51.622800  -82.538800
  H    -86.515100  -52.991700  -81.577300
  H    -86.055800  -52.896900  -83.258700
  H    -86.074100  -44.786900  -82.349000
  H    -79.593900  -49.907700  -82.706600

 Total Charge           Charge          ....    0
 Multiplicity           Mult            ....    1
 Number of Electrons    NEL             ....  134
 Basis Dimension        Dim             ....  322

ORBITAL ENERGIES
----------------

  NO   OCC          E(Eh)            E(eV)
   0   2.0000     -88.972656     -2421.0690
   1   2.0000     -88.967080     -2420.9173
   2   2.0000     -10.331255      -281.1277
   3   2.0000     -10.330880      -281.1175
   4   2.0000     -10.322883      -280.8999
   5   2.0000     -10.317523      -280.7541
   6   2.0000     -10.304722      -280.4057
   7   2.0000     -10.303120      -280.3622
   8   2.0000     -10.298241      -280.2294
   9   2.0000     -10.298020      -280.2234
  10   2.0000     -10.297480      -280.2087
  11   2.0000     -10.295787      -280.1626
  12   2.0000     -10.293393      -280.0975
  13   2.0000     -10.292125      -280.0630
  14   2.0000     -10.282516      -279.8015
  15   2.0000     -10.280915      -279.7579
  16   2.0000      -8.087272      -220.0659
  17   2.0000      -8.080458      -219.8804
  18   2.0000      -6.045742      -164.5130
  19   2.0000      -6.041856      -164.4073
  20   2.0000      -6.039108      -164.3325
  21   2.0000      -6.038024      -164.3030
  22   2.0000      -6.035144      -164.2246
  23   2.0000      -6.031154      -164.1160
  24   2.0000      -1.008136       -27.4328
  25   2.0000      -0.980454       -26.6795
  26   2.0000      -0.909416       -24.7465
  27   2.0000      -0.905948       -24.6521
  28   2.0000      -0.867169       -23.5969
  29   2.0000      -0.852287       -23.1919
  30   2.0000      -0.846284       -23.0286
  31   2.0000      -0.806006       -21.9325
  32   2.0000      -0.780189       -21.2300
  33   2.0000      -0.771024       -20.9806
  34   2.0000      -0.704118       -19.1600
  35   2.0000      -0.695272       -18.9193
  36   2.0000      -0.693120       -18.8607
  37   2.0000      -0.665482       -18.1087
  38   2.0000      -0.629404       -17.1270
  39   2.0000      -0.617445       -16.8015
  40   2.0000      -0.594997       -16.1907
  41   2.0000      -0.570032       -15.5114
  42   2.0000      -0.560489       -15.2517
  43   2.0000      -0.553740       -15.0680
  44   2.0000      -0.532452       -14.4888
  45   2.0000      -0.520165       -14.1544
  46   2.0000      -0.518139       -14.0993
  47   2.0000      -0.508059       -13.8250
  48   2.0000      -0.498979       -13.5779
  49   2.0000      -0.495096       -13.4722
  50   2.0000      -0.492347       -13.3975
  51   2.0000      -0.484491       -13.1837
  52   2.0000      -0.469313       -12.7707
  53   2.0000      -0.466630       -12.6977
  54   2.0000      -0.459525       -12.5043
  55   2.0000      -0.448128       -12.1942
  56   2.0000      -0.447012       -12.1638
  57   2.0000      -0.439091       -11.9483
  58   2.0000      -0.429135       -11.6774
  59   2.0000      -0.424192       -11.5428
  60   2.0000      -0.419654       -11.4194
  61   2.0000      -0.408283       -11.1099
  62   2.0000      -0.406579       -11.0636
  63   2.0000      -0.352029        -9.5792
  64   2.0000      -0.333400        -9.0723
  65   2.0000      -0.332656        -9.0520
  66   2.0000      -0.283742        -7.7210
  67   0.0000       0.019673         0.5353
  68   0.0000       0.074407         2.0247
  69   0.0000       0.099261         2.7010
  70   0.0000       0.114017         3.1026
  71   0.0000       0.124369         3.3843

MULLIKEN ATOMIC CHARGES
-----------------------
   0 S :    0.126313
   1 C :   -0.161182
   2 C :   -0.079628
   3 C :   -0.002186
   4 C :   -0.137592
   5 H :    0.024512
   6 C :    0.007097
   7 H :    0.035112
   8 H :    0.041297
   9 C :   -0.091471
  10 H :    0.033619
  11 H :    0.054390
  12 C :   -0.052225
  13 H :    0.037607
  14 H :    0.053211
  15 H :    0.026253
  16 S :    0.091519
  17 C :   -0.099960
  18 C :   -0.031364
  19 C :   -0.034537
  20 C :   -0.113771
  21 H :    0.033167
  22 C :    0.001320
  23 H :    0.026408
  24 H :    0.030403
  25 C :   -0.066799
  26 H :    0.026845
  27 H :    0.031272
  28 C :   -0.041597
  29 H :    0.035456
  30 H :    0.039554
  31 H :    0.022904
  32 H :    0.077064
  33 H :    0.056988
Sum of atomic charges:   -0.0000000

LOEWDIN ATOMIC CHARGES
----------------------
   0 S :    0.421761
   1 C :   -0.218828
   2 C :   -0.071597
   3 C :   -0.066276
   4 C :   -0.204026
   5 H :    0.042116
   6 C :   -0.041315
   7 H :    0.036315
   8 H :    0.032278
   9 C :   -0.035733
  10 H :    0.024937
  11 H :    0.031374
  12 C :   -0.068071
  13 H :    0.035126
  14 H :    0.028207
  15 H :    0.018393
  16 S :    0.380232
  17 C :   -0.171141
  18 C :   -0.067728
  19 C :   -0.065972
  20 C :   -0.182166
  21 H :    0.037463
  22 C :   -0.040937
  23 H :    0.028125
  24 H :    0.032231
  25 C :   -0.049776
  26 H :    0.019862
  27 H :    0.028761
  28 C :   -0.067943
  29 H :    0.023236
  30 H :    0.033545
  31 H :    0.025649
  32 H :    0.045956
  33 H :    0.025944

  Mayer bond orders larger than 0.100000
B(  0-S ,  1-C ) :   1.1416 B(  0-S ,  4-C ) :   1.1656 B(  1-C ,  2-C ) :   1.5924
B(  1-C , 32-H ) :   0.9494 B(  2-C ,  3-C ) :   1.3042 B(  2-C ,  6-C ) :   1.0093
B(  3-C ,  4-C ) :   1.5176 B(  3-C ,  5-H ) :   0.9720 B(  4-C , 20-C ) :   1.0552
B(  6-C ,  7-H ) :   0.9447 B(  6-C ,  8-H ) :   0.9562 B(  6-C ,  9-C ) :   1.0348
B(  9-C , 10-H ) :   0.9557 B(  9-C , 11-H ) :   0.9674 B(  9-C , 12-C ) :   1.0661
B( 12-C , 13-H ) :   0.9793 B( 12-C , 14-H ) :   0.9798 B( 12-C , 15-H ) :   0.9734
B( 16-S , 17-C ) :   1.1429 B( 16-S , 20-C ) :   1.1326 B( 17-C , 18-C ) :   1.5852
B( 17-C , 20-C ) :   0.1074 B( 17-C , 33-H ) :   0.9729 B( 18-C , 19-C ) :   1.2649
B( 18-C , 21-H ) :   0.9832 B( 19-C , 20-C ) :   1.5998 B( 19-C , 22-C ) :   1.0355
B( 22-C , 23-H ) :   0.9362 B( 22-C , 24-H ) :   0.9429 B( 22-C , 25-C ) :   1.0497
B( 25-C , 26-H ) :   0.9550 B( 25-C , 27-H ) :   0.9483 B( 25-C , 28-C ) :   1.0717
B( 28-C , 29-H ) :   0.9758 B( 28-C , 30-H ) :   0.9727 B( 28-C , 31-H ) :   0.9729

Dispersion correction           -0.014198504
FINAL SINGLE POINT ENERGY     -1339.861912878566

DIPOLE MOMENT
-------------
                                X             Y             Z
Electronic contribution:     26.12094      14.82481     -11.57903
Nuclear contribution   :    -26.70023     -15.32002      11.77367
                        -----------------------------------------
Total Dipole Moment    :     -0.57929      -0.49521       0.19464
                        -----------------------------------------
Magnitude (a.u.)       :      0.78657
Magnitude (Debye)      :      1.99931

Rotational constants in cm-1:     0.017110     0.009173     0.006591
Rotational constants in MHz :   512.946522   274.999096   197.598120

                             ****ORCA TERMINATED NORMALLY****
TOTAL RUN TIME: 0 days 0 hours 0 minutes 20 seconds 574 msec
