                         Program Version 4.2.1 -  RELEASE  -
|  1> ! wB97X-D3 SP def2-SVP
|  2> %pal
|  3> nprocs 24
|  4> end
|  5>
|  6> * xyz 0 1
|  7> S 	 -106.141 	 54.3853 	 -10.2172
|  8> C 	 -105.472 	 55.3847 	 -11.4641
|  9> C 	 -104.66 	 54.6916 	 -12.283
| 10> C 	 -104.519 	 53.2953 	 -11.904
| 11> C 	 -105.439 	 52.9168 	 -10.9069
| 12> H 	 -103.872 	 52.582 	 -12.3417
| 13> C 	 -103.808 	 55.3183 	 -13.3516
| 14> H 	 -103.156 	 54.5458 	 -13.8641
| 15> H 	 -103.058 	 55.9838 	 -12.9093
| 16> C 	 -104.541 	 55.7903 	 -14.5508
| 17> H 	 -105.121 	 55.0086 	 -14.9584
| 18> H 	 -105.208 	 56.583 	 -14.2634
| 19> C 	 -103.612 	 56.3245 	 -15.6478
| 20> H 	 -104.271 	 56.5831 	 -16.4083
| 21> H 	 -102.968 	 57.2372 	 -15.4302
| 22> H 	 -102.94 	 55.494 	 -16.0681
| 23> S 	 -105.603 	 51.628 	 -8.47404
| 24> C 	 -105.265 	 49.9495 	 -8.36404
| 25> C 	 -105.247 	 49.3402 	 -9.58393
| 26> C 	 -105.396 	 50.3269 	 -10.6712
| 27> C 	 -105.469 	 51.6748 	 -10.2102
| 28> H 	 -105.188 	 48.297 	 -9.58094
| 29> C 	 -105.266 	 49.9513 	 -12.1283
| 30> H 	 -105.668 	 50.8612 	 -12.5974
| 31> H 	 -105.972 	 49.0794 	 -12.4211
| 32> C 	 -103.848 	 49.6258 	 -12.6306
| 33> H 	 -103.412 	 48.6482 	 -12.2279
| 34> H 	 -103.121 	 50.3834 	 -12.3159
| 35> C 	 -103.819 	 49.6332 	 -14.1768
| 36> H 	 -102.912 	 49.228 	 -14.5393
| 37> H 	 -104.038 	 50.647 	 -14.5246
| 38> H 	 -104.542 	 48.9048 	 -14.5922
| 39> H 	 -105.472 	 56.4533 	 -11.3406
| 40> H 	 -105.282 	 49.5358 	 -7.3599
| 41> *
| 42>
| 43>                          ****END OF INPUT****

CARTESIAN COORDINATES (ANGSTROEM)
---------------------------------
  S    -106.141000   54.385300  -10.217200
  C    -105.472000   55.384700  -11.464100
  C    -104.660000   54.691600  -12.283000
  C    -104.519000   53.295300  -11.904000
  C    -105.439000   52.916800  -10.906900
  H    -103.872000   52.582000  -12.341700
  C    -103.808000   55.318300  -13.351600
  H    -103.156000   54.545800  -13.864100
  H    -103.058000   55.983800  -12.909300
  C    -104.541000   55.790300  -14.550800
  H    -105.121000   55.008600  -14.958400
  H    -105.208000   56.583000  -14.263400
  C    -103.612000   56.324500  -15.647800
  H    -104.271000   56.583100  -16.408300
  H    -102.968000   57.237200  -15.430200
  H    -102.940000   55.494000  -16.068100
  S    -105.603000   51.628000   -8.474040
  C    -105.265000   49.949500   -8.364040
  C    -105.247000   49.340200   -9.583930
  C    -105.396000   50.326900  -10.671200
  C    -105.469000   51.674800  -10.210200
  H    -105.188000   48.297000   -9.580940
  C    -105.266000   49.951300  -12.128300
  H    -105.668000   50.861200  -12.597400
  H    -105.972000   49.079400  -12.421100
  C    -103.848000   49.625800  -12.630600
  H    -103.412000   48.648200  -12.227900
  H    -103.121000   50.383400  -12.315900
  C    -103.819000   49.633200  -14.176800
  H    -102.912000   49.228000  -14.539300
  H    -104.038000   50.647000  -14.524600
  H    -104.542000   48.904800  -14.592200
  H    -105.472000   56.453300  -11.340600
  H    -105.282000   49.535800   -7.359900

 Total Charge           Charge          ....    0
 Multiplicity           Mult            ....    1
 Number of Electrons    NEL             ....  134
 Basis Dimension        Dim             ....  322

ORBITAL ENERGIES
----------------

  NO   OCC          E(Eh)            E(eV)
   0   2.0000     -88.964497     -2420.8470
   1   2.0000     -88.959964     -2420.7237
   2   2.0000     -10.333641      -281.1927
   3   2.0000     -10.328530      -281.0536
   4   2.0000     -10.315081      -280.6876
   5   2.0000     -10.311282      -280.5843
   6   2.0000     -10.310660      -280.5673
   7   2.0000     -10.300027      -280.2780
   8   2.0000     -10.299374      -280.2602
   9   2.0000     -10.297148      -280.1996
  10   2.0000     -10.294614      -280.1307
  11   2.0000     -10.294157      -280.1183
  12   2.0000     -10.289756      -279.9985
  13   2.0000     -10.283353      -279.8243
  14   2.0000     -10.279930      -279.7311
  15   2.0000     -10.278221      -279.6846
  16   2.0000      -8.079648      -219.8584
  17   2.0000      -8.076088      -219.7615
  18   2.0000      -6.038265      -164.3095
  19   2.0000      -6.034537      -164.2081
  20   2.0000      -6.034132      -164.1971
  21   2.0000      -6.030401      -164.0956
  22   2.0000      -6.030227      -164.0908
  23   2.0000      -6.026824      -163.9982
  24   2.0000      -1.008975       -27.4556
  25   2.0000      -0.986207       -26.8360
  26   2.0000      -0.920668       -25.0526
  27   2.0000      -0.906778       -24.6747
  28   2.0000      -0.878362       -23.9014
  29   2.0000      -0.851676       -23.1753
  30   2.0000      -0.844348       -22.9759
  31   2.0000      -0.818465       -22.2716
  32   2.0000      -0.781690       -21.2709
  33   2.0000      -0.768566       -20.9137
  34   2.0000      -0.707629       -19.2556
  35   2.0000      -0.700904       -19.0726
  36   2.0000      -0.694686       -18.9034
  37   2.0000      -0.665091       -18.0980
  38   2.0000      -0.643076       -17.4990
  39   2.0000      -0.618241       -16.8232
  40   2.0000      -0.595027       -16.1915
  41   2.0000      -0.578995       -15.7553
  42   2.0000      -0.569457       -15.4957
  43   2.0000      -0.560520       -15.2525
  44   2.0000      -0.530775       -14.4431
  45   2.0000      -0.527679       -14.3589
  46   2.0000      -0.522820       -14.2267
  47   2.0000      -0.514186       -13.9917
  48   2.0000      -0.506904       -13.7936
  49   2.0000      -0.503955       -13.7133
  50   2.0000      -0.491450       -13.3730
  51   2.0000      -0.480843       -13.0844
  52   2.0000      -0.467978       -12.7343
  53   2.0000      -0.461877       -12.5683
  54   2.0000      -0.457549       -12.4505
  55   2.0000      -0.452130       -12.3031
  56   2.0000      -0.445538       -12.1237
  57   2.0000      -0.442312       -12.0359
  58   2.0000      -0.433770       -11.8035
  59   2.0000      -0.420559       -11.4440
  60   2.0000      -0.416868       -11.3436
  61   2.0000      -0.414921       -11.2906
  62   2.0000      -0.407346       -11.0844
  63   2.0000      -0.359808        -9.7909
  64   2.0000      -0.331468        -9.0197
  65   2.0000      -0.323971        -8.8157
  66   2.0000      -0.287369        -7.8197
  67   0.0000       0.019304         0.5253
  68   0.0000       0.078871         2.1462
  69   0.0000       0.106883         2.9084
  70   0.0000       0.117204         3.1893
  71   0.0000       0.128988         3.5099

MULLIKEN ATOMIC CHARGES
-----------------------
   0 S :    0.089427
   1 C :   -0.111210
   2 C :   -0.061787
   3 C :    0.033806
   4 C :   -0.131732
   5 H :   -0.011893
   6 C :    0.031420
   7 H :    0.009153
   8 H :    0.041396
   9 C :   -0.046244
  10 H :    0.023263
  11 H :    0.019280
  12 C :   -0.063921
  13 H :    0.021682
  14 H :    0.046725
  15 H :    0.037619
  16 S :    0.093137
  17 C :   -0.100960
  18 C :    0.009146
  19 C :   -0.049535
  20 C :   -0.125728
  21 H :    0.002644
  22 C :    0.011793
  23 H :    0.031683
  24 H :    0.046304
  25 C :   -0.094967
  26 H :    0.037476
  27 H :    0.034707
  28 C :   -0.026613
  29 H :    0.022269
  30 H :    0.036276
  31 H :    0.025427
  32 H :    0.054570
  33 H :    0.065388
Sum of atomic charges:   -0.0000000

LOEWDIN ATOMIC CHARGES
----------------------
   0 S :    0.400884
   1 C :   -0.193748
   2 C :   -0.066089
   3 C :   -0.047302
   4 C :   -0.185978
   5 H :    0.022053
   6 C :   -0.041914
   7 H :    0.032381
   8 H :    0.032601
   9 C :   -0.035500
  10 H :    0.024814
  11 H :    0.018407
  12 C :   -0.068504
  13 H :    0.017640
  14 H :    0.032935
  15 H :    0.030633
  16 S :    0.412614
  17 C :   -0.185065
  18 C :   -0.067787
  19 C :   -0.049803
  20 C :   -0.206846
  21 H :    0.025286
  22 C :   -0.047476
  23 H :    0.031604
  24 H :    0.041598
  25 C :   -0.045644
  26 H :    0.029954
  27 H :    0.020735
  28 C :   -0.062096
  29 H :    0.019466
  30 H :    0.025150
  31 H :    0.026677
  32 H :    0.029262
  33 H :    0.029056

  Mayer bond orders larger than 0.100000
B(  0-S ,  1-C ) :   1.1362 B(  0-S ,  4-C ) :   1.1420 B(  1-C ,  2-C ) :   1.6174
B(  1-C , 32-H ) :   0.9680 B(  2-C ,  3-C ) :   1.2504 B(  2-C ,  6-C ) :   1.0201
B(  3-C ,  4-C ) :   1.5297 B(  3-C ,  5-H ) :   0.9978 B(  4-C , 20-C ) :   1.1063
B(  6-C ,  7-H ) :   0.9437 B(  6-C ,  8-H ) :   0.9430 B(  6-C ,  9-C ) :   1.0640
B(  9-C , 10-H ) :   0.9499 B(  9-C , 11-H ) :   0.9527 B(  9-C , 12-C ) :   1.0911
B( 12-C , 13-H ) :   0.9730 B( 12-C , 14-H ) :   0.9739 B( 12-C , 15-H ) :   0.9706
B( 16-S , 17-C ) :   1.1732 B( 16-S , 20-C ) :   1.1321 B( 17-C , 18-C ) :   1.5957
B( 17-C , 33-H ) :   0.9671 B( 18-C , 19-C ) :   1.2129 B( 18-C , 21-H ) :   1.0104
B( 19-C , 20-C ) :   1.5550 B( 19-C , 22-C ) :   1.0655 B( 22-C , 23-H ) :   0.9335
B( 22-C , 24-H ) :   0.9316 B( 22-C , 25-C ) :   1.0527 B( 25-C , 26-H ) :   0.9518
B( 25-C , 27-H ) :   0.9533 B( 25-C , 28-C ) :   1.0814 B( 28-C , 29-H ) :   0.9730
B( 28-C , 30-H ) :   0.9760 B( 28-C , 31-H ) :   0.9728

Dispersion correction           -0.013977575
FINAL SINGLE POINT ENERGY     -1339.869355096345

DIPOLE MOMENT
-------------
                                X             Y             Z
Electronic contribution:    -12.46402       0.50589      30.17273
Nuclear contribution   :     12.88181      -0.66671     -30.62029
                        -----------------------------------------
Total Dipole Moment    :      0.41779      -0.16083      -0.44757
                        -----------------------------------------
Magnitude (a.u.)       :      0.63303
Magnitude (Debye)      :      1.60904

Rotational constants in cm-1:     0.018842     0.008763     0.006212
Rotational constants in MHz :   564.883289   262.704918   186.233007

                             ****ORCA TERMINATED NORMALLY****
TOTAL RUN TIME: 0 days 0 hours 0 minutes 21 seconds 682 msec
