                         Program Version 4.2.1 -  RELEASE  -
|  1> ! wB97X-D3 SP def2-SVP
|  2> %pal
|  3> nprocs 24
|  4> end
|  5>
|  6> * xyz 0 1
|  7> S 	 -70.9696 	 8.09496 	 -99.3628
|  8> C 	 -69.6342 	 7.58196 	 -100.266
|  9> C 	 -69.8936 	 7.62442 	 -101.646
| 10> C 	 -71.2054 	 8.03433 	 -101.972
| 11> C 	 -71.9585 	 8.29647 	 -100.816
| 12> H 	 -71.6193 	 8.1824 	 -102.931
| 13> C 	 -68.898 	 7.38025 	 -102.765
| 14> H 	 -67.9755 	 7.90309 	 -102.547
| 15> H 	 -69.3261 	 7.98905 	 -103.596
| 16> C 	 -68.6551 	 5.97651 	 -103.246
| 17> H 	 -69.5752 	 5.59716 	 -103.497
| 18> H 	 -68.105 	 6.00485 	 -104.184
| 19> C 	 -67.8892 	 4.99148 	 -102.291
| 20> H 	 -67.753 	 3.97035 	 -102.589
| 21> H 	 -66.9081 	 5.40286 	 -102.073
| 22> H 	 -68.4112 	 4.90166 	 -101.325
| 23> S 	 -73.7762 	 9.89426 	 -99.5015
| 24> C 	 -75.3715 	 9.97183 	 -100.217
| 25> C 	 -75.6125 	 9.06356 	 -101.232
| 26> C 	 -74.3991 	 8.30973 	 -101.534
| 27> C 	 -73.3462 	 8.65084 	 -100.707
| 28> H 	 -76.5728 	 8.90077 	 -101.686
| 29> C 	 -74.4613 	 7.16562 	 -102.514
| 30> H 	 -73.6948 	 7.59432 	 -103.179
| 31> H 	 -75.4193 	 7.26619 	 -103.079
| 32> C 	 -74.2239 	 5.75849 	 -101.968
| 33> H 	 -74.9472 	 5.70293 	 -101.167
| 34> H 	 -73.2306 	 5.70496 	 -101.538
| 35> C 	 -74.454 	 4.59913 	 -102.998
| 36> H 	 -73.6876 	 4.49149 	 -103.726
| 37> H 	 -75.3833 	 4.91817 	 -103.446
| 38> H 	 -74.5511 	 3.61148 	 -102.612
| 39> H 	 -68.6356 	 7.44651 	 -99.9015
| 40> H 	 -76.0804 	 10.7218 	 -99.8752
| 41> *
| 42>
| 43>                          ****END OF INPUT****

CARTESIAN COORDINATES (ANGSTROEM)
---------------------------------
  S    -70.969600    8.094960  -99.362800
  C    -69.634200    7.581960  -100.266000
  C    -69.893600    7.624420  -101.646000
  C    -71.205400    8.034330  -101.972000
  C    -71.958500    8.296470  -100.816000
  H    -71.619300    8.182400  -102.931000
  C    -68.898000    7.380250  -102.765000
  H    -67.975500    7.903090  -102.547000
  H    -69.326100    7.989050  -103.596000
  C    -68.655100    5.976510  -103.246000
  H    -69.575200    5.597160  -103.497000
  H    -68.105000    6.004850  -104.184000
  C    -67.889200    4.991480  -102.291000
  H    -67.753000    3.970350  -102.589000
  H    -66.908100    5.402860  -102.073000
  H    -68.411200    4.901660  -101.325000
  S    -73.776200    9.894260  -99.501500
  C    -75.371500    9.971830  -100.217000
  C    -75.612500    9.063560  -101.232000
  C    -74.399100    8.309730  -101.534000
  C    -73.346200    8.650840  -100.707000
  H    -76.572800    8.900770  -101.686000
  C    -74.461300    7.165620  -102.514000
  H    -73.694800    7.594320  -103.179000
  H    -75.419300    7.266190  -103.079000
  C    -74.223900    5.758490  -101.968000
  H    -74.947200    5.702930  -101.167000
  H    -73.230600    5.704960  -101.538000
  C    -74.454000    4.599130  -102.998000
  H    -73.687600    4.491490  -103.726000
  H    -75.383300    4.918170  -103.446000
  H    -74.551100    3.611480  -102.612000
  H    -68.635600    7.446510  -99.901500
  H    -76.080400   10.721800  -99.875200

 Total Charge           Charge          ....    0
 Multiplicity           Mult            ....    1
 Number of Electrons    NEL             ....  134
 Basis Dimension        Dim             ....  322

ORBITAL ENERGIES
----------------

  NO   OCC          E(Eh)            E(eV)
   0   2.0000     -88.968198     -2420.9478
   1   2.0000     -88.966896     -2420.9123
   2   2.0000     -10.329565      -281.0818
   3   2.0000     -10.324901      -280.9548
   4   2.0000     -10.320769      -280.8424
   5   2.0000     -10.308967      -280.5212
   6   2.0000     -10.305319      -280.4220
   7   2.0000     -10.299079      -280.2522
   8   2.0000     -10.297461      -280.2082
   9   2.0000     -10.295154      -280.1454
  10   2.0000     -10.292024      -280.0602
  11   2.0000     -10.290022      -280.0057
  12   2.0000     -10.286592      -279.9124
  13   2.0000     -10.280667      -279.7512
  14   2.0000     -10.276509      -279.6380
  15   2.0000     -10.274144      -279.5737
  16   2.0000      -8.083457      -219.9620
  17   2.0000      -8.081525      -219.9095
  18   2.0000      -6.041831      -164.4066
  19   2.0000      -6.040071      -164.3587
  20   2.0000      -6.037825      -164.2976
  21   2.0000      -6.036233      -164.2542
  22   2.0000      -6.034418      -164.2049
  23   2.0000      -6.032068      -164.1409
  24   2.0000      -1.006975       -27.4012
  25   2.0000      -0.982780       -26.7428
  26   2.0000      -0.911018       -24.7901
  27   2.0000      -0.909034       -24.7361
  28   2.0000      -0.868919       -23.6445
  29   2.0000      -0.855178       -23.2706
  30   2.0000      -0.848313       -23.0838
  31   2.0000      -0.810450       -22.0535
  32   2.0000      -0.785528       -21.3753
  33   2.0000      -0.772834       -21.0299
  34   2.0000      -0.714301       -19.4371
  35   2.0000      -0.705618       -19.2008
  36   2.0000      -0.691902       -18.8276
  37   2.0000      -0.668993       -18.2042
  38   2.0000      -0.643232       -17.5032
  39   2.0000      -0.618624       -16.8336
  40   2.0000      -0.589675       -16.0459
  41   2.0000      -0.570386       -15.5210
  42   2.0000      -0.564718       -15.3667
  43   2.0000      -0.544209       -14.8087
  44   2.0000      -0.542849       -14.7717
  45   2.0000      -0.520820       -14.1722
  46   2.0000      -0.519006       -14.1229
  47   2.0000      -0.512419       -13.9436
  48   2.0000      -0.503021       -13.6879
  49   2.0000      -0.500039       -13.6068
  50   2.0000      -0.491831       -13.3834
  51   2.0000      -0.486603       -13.2411
  52   2.0000      -0.474459       -12.9107
  53   2.0000      -0.466404       -12.6915
  54   2.0000      -0.456945       -12.4341
  55   2.0000      -0.453047       -12.3280
  56   2.0000      -0.446186       -12.1413
  57   2.0000      -0.440053       -11.9745
  58   2.0000      -0.435942       -11.8626
  59   2.0000      -0.423233       -11.5168
  60   2.0000      -0.421906       -11.4807
  61   2.0000      -0.413043       -11.2395
  62   2.0000      -0.410492       -11.1700
  63   2.0000      -0.354825        -9.6553
  64   2.0000      -0.336044        -9.1442
  65   2.0000      -0.329636        -8.9699
  66   2.0000      -0.279541        -7.6067
  67   0.0000       0.021544         0.5862
  68   0.0000       0.070397         1.9156
  69   0.0000       0.102505         2.7893
  70   0.0000       0.119349         3.2476
  71   0.0000       0.131705         3.5839

MULLIKEN ATOMIC CHARGES
-----------------------
   0 S :    0.115407
   1 C :   -0.090649
   2 C :   -0.115477
   3 C :    0.025361
   4 C :   -0.153491
   5 H :    0.002720
   6 C :    0.040660
   7 H :    0.021558
   8 H :    0.023218
   9 C :    0.004549
  10 H :   -0.002708
  11 H :    0.026153
  12 C :   -0.058747
  13 H :    0.032936
  14 H :    0.021212
  15 H :    0.030818
  16 S :    0.100409
  17 C :   -0.089448
  18 C :   -0.015488
  19 C :   -0.099430
  20 C :   -0.126514
  21 H :    0.017262
  22 C :    0.057585
  23 H :    0.021830
  24 H :    0.016027
  25 C :   -0.038106
  26 H :    0.029342
  27 H :    0.042525
  28 C :   -0.015987
  29 H :    0.025178
  30 H :    0.019560
  31 H :    0.030096
  32 H :    0.041172
  33 H :    0.060464
Sum of atomic charges:   -0.0000000

LOEWDIN ATOMIC CHARGES
----------------------
   0 S :    0.426211
   1 C :   -0.220926
   2 C :   -0.063059
   3 C :   -0.061633
   4 C :   -0.183878
   5 H :    0.024647
   6 C :   -0.033775
   7 H :    0.026311
   8 H :    0.038014
   9 C :   -0.031801
  10 H :    0.011384
  11 H :    0.026969
  12 C :   -0.068065
  13 H :    0.024320
  14 H :    0.021647
  15 H :    0.026499
  16 S :    0.386413
  17 C :   -0.173669
  18 C :   -0.070119
  19 C :   -0.049737
  20 C :   -0.197285
  21 H :    0.031217
  22 C :   -0.039627
  23 H :    0.032757
  24 H :    0.030278
  25 C :   -0.031090
  26 H :    0.026461
  27 H :    0.026696
  28 C :   -0.057676
  29 H :    0.020891
  30 H :    0.023944
  31 H :    0.024425
  32 H :    0.025978
  33 H :    0.027278

  Mayer bond orders larger than 0.100000
B(  0-S ,  1-C ) :   1.1547 B(  0-S ,  4-C ) :   1.1650 B(  1-C ,  2-C ) :   1.5758
B(  1-C ,  4-C ) :   0.1056 B(  1-C , 32-H ) :   0.9686 B(  2-C ,  3-C ) :   1.2818
B(  2-C ,  6-C ) :   1.0141 B(  3-C ,  4-C ) :   1.5287 B(  3-C ,  5-H ) :   0.9972
B(  4-C , 20-C ) :   1.0670 B(  6-C ,  7-H ) :   0.9415 B(  6-C ,  8-H ) :   0.9383
B(  6-C ,  9-C ) :   1.0787 B(  9-C , 10-H ) :   0.9485 B(  9-C , 11-H ) :   0.9519
B(  9-C , 12-C ) :   1.0721 B( 12-C , 13-H ) :   0.9771 B( 12-C , 14-H ) :   0.9763
B( 12-C , 15-H ) :   0.9750 B( 16-S , 17-C ) :   1.1544 B( 16-S , 20-C ) :   1.1090
B( 17-C , 18-C ) :   1.6169 B( 17-C , 33-H ) :   0.9649 B( 18-C , 19-C ) :   1.2176
B( 18-C , 21-H ) :   0.9930 B( 19-C , 20-C ) :   1.6230 B( 19-C , 22-C ) :   1.0223
B( 22-C , 23-H ) :   0.9210 B( 22-C , 24-H ) :   0.9298 B( 22-C , 25-C ) :   1.0554
B( 25-C , 26-H ) :   0.9560 B( 25-C , 27-H ) :   0.9531 B( 25-C , 28-C ) :   1.0747
B( 28-C , 29-H ) :   0.9781 B( 28-C , 30-H ) :   0.9761 B( 28-C , 31-H ) :   0.9766

Dispersion correction           -0.014649417
FINAL SINGLE POINT ENERGY     -1339.876246723240

DIPOLE MOMENT
-------------
                                X             Y             Z
Electronic contribution:     -6.92434      21.29115      19.80025
Nuclear contribution   :      6.83447     -21.50765     -20.35492
                        -----------------------------------------
Total Dipole Moment    :     -0.08987      -0.21650      -0.55466
                        -----------------------------------------
Magnitude (a.u.)       :      0.60216
Magnitude (Debye)      :      1.53058

Rotational constants in cm-1:     0.019229     0.009120     0.006873
Rotational constants in MHz :   576.456855   273.417772   206.047992

                             ****ORCA TERMINATED NORMALLY****
TOTAL RUN TIME: 0 days 0 hours 0 minutes 22 seconds 264 msec
