                         Program Version 4.2.1 -  RELEASE  -
|  1> ! wB97X-D3 SP def2-SVP
|  2> %pal
|  3> nprocs 24
|  4> end
|  5>
|  6> * xyz 0 1
|  7> S 	 -141.295 	 28.7594 	 -11.4717
|  8> C 	 -140.101 	 29.9088 	 -11.3599
|  9> C 	 -140.325 	 30.9643 	 -12.2024
| 10> C 	 -141.561 	 30.9442 	 -12.9444
| 11> C 	 -142.149 	 29.7232 	 -12.7045
| 12> H 	 -141.938 	 31.6372 	 -13.7842
| 13> C 	 -139.241 	 31.9856 	 -12.3922
| 14> H 	 -138.563 	 31.9386 	 -11.5528
| 15> H 	 -139.696 	 32.9768 	 -12.4512
| 16> C 	 -138.476 	 31.7417 	 -13.7075
| 17> H 	 -137.983 	 30.8107 	 -13.5357
| 18> H 	 -139.173 	 31.6305 	 -14.6012
| 19> C 	 -137.49 	 32.9233 	 -13.8741
| 20> H 	 -136.638 	 32.904 	 -13.1888
| 21> H 	 -137.077 	 32.8217 	 -14.8748
| 22> H 	 -137.882 	 33.9063 	 -13.7161
| 23> S 	 -144.786 	 29.762 	 -12.1593
| 24> C 	 -145.923 	 28.7623 	 -13.0691
| 25> C 	 -145.292 	 28.0569 	 -14.0298
| 26> C 	 -143.951 	 28.4521 	 -14.1758
| 27> C 	 -143.503 	 29.2799 	 -13.1535
| 28> H 	 -145.918 	 27.371 	 -14.6309
| 29> C 	 -143.03 	 27.7535 	 -15.1554
| 30> H 	 -142.135 	 28.3609 	 -15.2987
| 31> H 	 -143.476 	 27.8128 	 -16.1324
| 32> C 	 -142.8 	 26.2632 	 -15.0234
| 33> H 	 -143.658 	 25.7261 	 -15.465
| 34> H 	 -142.713 	 25.8866 	 -13.9689
| 35> C 	 -141.474 	 25.9314 	 -15.7045
| 36> H 	 -141.411 	 26.1758 	 -16.7501
| 37> H 	 -141.262 	 24.9043 	 -15.5928
| 38> H 	 -140.712 	 26.4289 	 -15.1445
| 39> H 	 -139.135 	 29.7121 	 -10.9577
| 40> H 	 -146.954 	 28.737 	 -12.8384
| 41> *
| 42>
| 43>                          ****END OF INPUT****

CARTESIAN COORDINATES (ANGSTROEM)
---------------------------------
  S    -141.295000   28.759400  -11.471700
  C    -140.101000   29.908800  -11.359900
  C    -140.325000   30.964300  -12.202400
  C    -141.561000   30.944200  -12.944400
  C    -142.149000   29.723200  -12.704500
  H    -141.938000   31.637200  -13.784200
  C    -139.241000   31.985600  -12.392200
  H    -138.563000   31.938600  -11.552800
  H    -139.696000   32.976800  -12.451200
  C    -138.476000   31.741700  -13.707500
  H    -137.983000   30.810700  -13.535700
  H    -139.173000   31.630500  -14.601200
  C    -137.490000   32.923300  -13.874100
  H    -136.638000   32.904000  -13.188800
  H    -137.077000   32.821700  -14.874800
  H    -137.882000   33.906300  -13.716100
  S    -144.786000   29.762000  -12.159300
  C    -145.923000   28.762300  -13.069100
  C    -145.292000   28.056900  -14.029800
  C    -143.951000   28.452100  -14.175800
  C    -143.503000   29.279900  -13.153500
  H    -145.918000   27.371000  -14.630900
  C    -143.030000   27.753500  -15.155400
  H    -142.135000   28.360900  -15.298700
  H    -143.476000   27.812800  -16.132400
  C    -142.800000   26.263200  -15.023400
  H    -143.658000   25.726100  -15.465000
  H    -142.713000   25.886600  -13.968900
  C    -141.474000   25.931400  -15.704500
  H    -141.411000   26.175800  -16.750100
  H    -141.262000   24.904300  -15.592800
  H    -140.712000   26.428900  -15.144500
  H    -139.135000   29.712100  -10.957700
  H    -146.954000   28.737000  -12.838400

 Total Charge           Charge          ....    0
 Multiplicity           Mult            ....    1
 Number of Electrons    NEL             ....  134
 Basis Dimension        Dim             ....  322

ORBITAL ENERGIES
----------------

  NO   OCC          E(Eh)            E(eV)
   0   2.0000     -88.963308     -2420.8147
   1   2.0000     -88.958964     -2420.6965
   2   2.0000     -10.331871      -281.1445
   3   2.0000     -10.318876      -280.7909
   4   2.0000     -10.308892      -280.5192
   5   2.0000     -10.304916      -280.4110
   6   2.0000     -10.301246      -280.3112
   7   2.0000     -10.297246      -280.2023
   8   2.0000     -10.295285      -280.1489
   9   2.0000     -10.289689      -279.9967
  10   2.0000     -10.289478      -279.9909
  11   2.0000     -10.285361      -279.8789
  12   2.0000     -10.283978      -279.8413
  13   2.0000     -10.280424      -279.7446
  14   2.0000     -10.276242      -279.6308
  15   2.0000     -10.266677      -279.3705
  16   2.0000      -8.079402      -219.8517
  17   2.0000      -8.074886      -219.7288
  18   2.0000      -6.037714      -164.2945
  19   2.0000      -6.033682      -164.1848
  20   2.0000      -6.033279      -164.1739
  21   2.0000      -6.030321      -164.0934
  22   2.0000      -6.029113      -164.0605
  23   2.0000      -6.025800      -163.9703
  24   2.0000      -1.012212       -27.5437
  25   2.0000      -0.992938       -27.0192
  26   2.0000      -0.911997       -24.8167
  27   2.0000      -0.909953       -24.7611
  28   2.0000      -0.873239       -23.7620
  29   2.0000      -0.850525       -23.1440
  30   2.0000      -0.847852       -23.0712
  31   2.0000      -0.820864       -22.3369
  32   2.0000      -0.777165       -21.1477
  33   2.0000      -0.764367       -20.7995
  34   2.0000      -0.704580       -19.1726
  35   2.0000      -0.696378       -18.9494
  36   2.0000      -0.692878       -18.8542
  37   2.0000      -0.657691       -17.8967
  38   2.0000      -0.645325       -17.5602
  39   2.0000      -0.616139       -16.7660
  40   2.0000      -0.598267       -16.2797
  41   2.0000      -0.572596       -15.5811
  42   2.0000      -0.564348       -15.3567
  43   2.0000      -0.558699       -15.2030
  44   2.0000      -0.526416       -14.3245
  45   2.0000      -0.524877       -14.2826
  46   2.0000      -0.516287       -14.0489
  47   2.0000      -0.510031       -13.8786
  48   2.0000      -0.508305       -13.8317
  49   2.0000      -0.494840       -13.4653
  50   2.0000      -0.489874       -13.3301
  51   2.0000      -0.479965       -13.0605
  52   2.0000      -0.469994       -12.7892
  53   2.0000      -0.464773       -12.6471
  54   2.0000      -0.460579       -12.5330
  55   2.0000      -0.451360       -12.2821
  56   2.0000      -0.440076       -11.9751
  57   2.0000      -0.438972       -11.9450
  58   2.0000      -0.435413       -11.8482
  59   2.0000      -0.426541       -11.6068
  60   2.0000      -0.419678       -11.4200
  61   2.0000      -0.409949       -11.1553
  62   2.0000      -0.409677       -11.1479
  63   2.0000      -0.343411        -9.3447
  64   2.0000      -0.333963        -9.0876
  65   2.0000      -0.312363        -8.4998
  66   2.0000      -0.307225        -8.3600
  67   0.0000       0.051552         1.4028
  68   0.0000       0.057482         1.5642
  69   0.0000       0.119922         3.2632
  70   0.0000       0.124456         3.3866
  71   0.0000       0.133632         3.6363

MULLIKEN ATOMIC CHARGES
-----------------------
   0 S :    0.121932
   1 C :   -0.089064
   2 C :   -0.113436
   3 C :    0.025682
   4 C :   -0.177146
   5 H :    0.063239
   6 C :    0.055594
   7 H :    0.017042
   8 H :    0.020348
   9 C :   -0.084720
  10 H :    0.020247
  11 H :    0.043981
  12 C :   -0.022099
  13 H :    0.023805
  14 H :    0.032654
  15 H :    0.024921
  16 S :    0.115069
  17 C :   -0.092923
  18 C :   -0.036660
  19 C :   -0.013639
  20 C :   -0.179396
  21 H :    0.030165
  22 C :    0.068526
  23 H :    0.019866
  24 H :    0.008731
  25 C :   -0.083108
  26 H :    0.029563
  27 H :    0.037615
  28 C :   -0.021640
  29 H :    0.028042
  30 H :    0.016365
  31 H :    0.027777
  32 H :    0.042199
  33 H :    0.040469
Sum of atomic charges:   -0.0000000

LOEWDIN ATOMIC CHARGES
----------------------
   0 S :    0.427514
   1 C :   -0.228450
   2 C :   -0.064134
   3 C :   -0.066365
   4 C :   -0.185695
   5 H :    0.057334
   6 C :   -0.031690
   7 H :    0.025576
   8 H :    0.026211
   9 C :   -0.035781
  10 H :    0.020232
  11 H :    0.030622
  12 C :   -0.066589
  13 H :    0.026007
  14 H :    0.026441
  15 H :    0.021008
  16 S :    0.424377
  17 C :   -0.170556
  18 C :   -0.073909
  19 C :   -0.061821
  20 C :   -0.225325
  21 H :    0.040275
  22 C :   -0.039161
  23 H :    0.028355
  24 H :    0.030901
  25 C :   -0.039917
  26 H :    0.022164
  27 H :    0.027615
  28 C :   -0.055656
  29 H :    0.021728
  30 H :    0.019266
  31 H :    0.025592
  32 H :    0.024465
  33 H :    0.019367

  Mayer bond orders larger than 0.100000
B(  0-S ,  1-C ) :   1.1425 B(  0-S ,  4-C ) :   1.1737 B(  1-C ,  2-C ) :   1.6272
B(  1-C , 32-H ) :   0.9614 B(  2-C ,  3-C ) :   1.2192 B(  2-C ,  6-C ) :   1.0404
B(  3-C ,  4-C ) :   1.6003 B(  3-C ,  5-H ) :   0.9783 B(  4-C , 20-C ) :   0.9702
B(  6-C ,  7-H ) :   0.9455 B(  6-C ,  8-H ) :   0.9369 B(  6-C ,  9-C ) :   1.0552
B(  9-C , 10-H ) :   0.9533 B(  9-C , 11-H ) :   0.9607 B(  9-C , 12-C ) :   1.0727
B( 12-C , 13-H ) :   0.9728 B( 12-C , 14-H ) :   0.9745 B( 12-C , 15-H ) :   0.9767
B( 16-S , 17-C ) :   1.1559 B( 16-S , 20-C ) :   1.1745 B( 17-C , 18-C ) :   1.6153
B( 17-C , 33-H ) :   0.9741 B( 18-C , 19-C ) :   1.2309 B( 18-C , 21-H ) :   0.9898
B( 19-C , 20-C ) :   1.5956 B( 19-C , 22-C ) :   1.0641 B( 22-C , 23-H ) :   0.9424
B( 22-C , 24-H ) :   0.9169 B( 22-C , 25-C ) :   1.0490 B( 25-C , 26-H ) :   0.9501
B( 25-C , 27-H ) :   0.9609 B( 25-C , 28-C ) :   1.0878 B( 28-C , 29-H ) :   0.9747
B( 28-C , 30-H ) :   0.9711 B( 28-C , 31-H ) :   0.9757

Dispersion correction           -0.014052407
FINAL SINGLE POINT ENERGY     -1339.872936924586

DIPOLE MOMENT
-------------
                                X             Y             Z
Electronic contribution:    -19.21621      -0.23048      16.50197
Nuclear contribution   :     19.50408       0.19933     -16.95179
                        -----------------------------------------
Total Dipole Moment    :      0.28787      -0.03115      -0.44982
                        -----------------------------------------
Magnitude (a.u.)       :      0.53495
Magnitude (Debye)      :      1.35974

Rotational constants in cm-1:     0.019320     0.008132     0.006828
Rotational constants in MHz :   579.211709   243.798707   204.683707

                             ****ORCA TERMINATED NORMALLY****
TOTAL RUN TIME: 0 days 0 hours 0 minutes 21 seconds 206 msec
