                         Program Version 4.2.1 -  RELEASE  -
|  1> ! wB97X-D3 SP def2-SVP
|  2> %pal
|  3> nprocs 24
|  4> end
|  5>
|  6> * xyz 0 1
|  7> S 	 -107.048 	 64.7397 	 -74.9518
|  8> C 	 -105.908 	 63.5589 	 -74.4929
|  9> C 	 -106.418 	 62.2967 	 -74.2243
| 10> C 	 -107.811 	 62.2423 	 -74.4161
| 11> C 	 -108.37 	 63.4685 	 -74.7774
| 12> H 	 -108.384 	 61.3392 	 -74.2972
| 13> C 	 -105.593 	 61.1013 	 -73.8287
| 14> H 	 -106.004 	 60.6553 	 -72.9231
| 15> H 	 -104.614 	 61.444 	 -73.5022
| 16> C 	 -105.42 	 60.0726 	 -75.001
| 17> H 	 -105.241 	 59.0166 	 -74.6096
| 18> H 	 -106.353 	 59.9305 	 -75.5796
| 19> C 	 -104.275 	 60.4435 	 -75.8471
| 20> H 	 -103.432 	 60.7853 	 -75.2701
| 21> H 	 -104.002 	 59.6668 	 -76.5208
| 22> H 	 -104.513 	 61.3149 	 -76.4474
| 23> S 	 -110.566 	 64.9822 	 -74.0637
| 24> C 	 -112.122 	 64.5166 	 -74.7887
| 25> C 	 -111.943 	 63.5622 	 -75.8053
| 26> C 	 -110.623 	 63.1204 	 -75.919
| 27> C 	 -109.778 	 63.8165 	 -75.082
| 28> H 	 -112.878 	 63.2548 	 -76.1692
| 29> C 	 -110.387 	 61.8875 	 -76.7815
| 30> H 	 -111.203 	 61.1974 	 -77.0165
| 31> H 	 -109.7 	 61.2091 	 -76.2639
| 32> C 	 -109.799 	 62.1944 	 -78.227
| 33> H 	 -110.483 	 62.8768 	 -78.855
| 34> H 	 -109.784 	 61.3063 	 -78.8467
| 35> C 	 -108.414 	 62.7597 	 -78.2102
| 36> H 	 -108.153 	 62.8151 	 -79.2502
| 37> H 	 -107.703 	 62.1004 	 -77.6234
| 38> H 	 -108.384 	 63.8192 	 -77.9312
| 39> H 	 -104.902 	 63.7537 	 -74.2084
| 40> H 	 -113.042 	 65.0174 	 -74.6699
| 41> *
| 42>
| 43>                          ****END OF INPUT****

CARTESIAN COORDINATES (ANGSTROEM)
---------------------------------
  S    -107.048000   64.739700  -74.951800
  C    -105.908000   63.558900  -74.492900
  C    -106.418000   62.296700  -74.224300
  C    -107.811000   62.242300  -74.416100
  C    -108.370000   63.468500  -74.777400
  H    -108.384000   61.339200  -74.297200
  C    -105.593000   61.101300  -73.828700
  H    -106.004000   60.655300  -72.923100
  H    -104.614000   61.444000  -73.502200
  C    -105.420000   60.072600  -75.001000
  H    -105.241000   59.016600  -74.609600
  H    -106.353000   59.930500  -75.579600
  C    -104.275000   60.443500  -75.847100
  H    -103.432000   60.785300  -75.270100
  H    -104.002000   59.666800  -76.520800
  H    -104.513000   61.314900  -76.447400
  S    -110.566000   64.982200  -74.063700
  C    -112.122000   64.516600  -74.788700
  C    -111.943000   63.562200  -75.805300
  C    -110.623000   63.120400  -75.919000
  C    -109.778000   63.816500  -75.082000
  H    -112.878000   63.254800  -76.169200
  C    -110.387000   61.887500  -76.781500
  H    -111.203000   61.197400  -77.016500
  H    -109.700000   61.209100  -76.263900
  C    -109.799000   62.194400  -78.227000
  H    -110.483000   62.876800  -78.855000
  H    -109.784000   61.306300  -78.846700
  C    -108.414000   62.759700  -78.210200
  H    -108.153000   62.815100  -79.250200
  H    -107.703000   62.100400  -77.623400
  H    -108.384000   63.819200  -77.931200
  H    -104.902000   63.753700  -74.208400
  H    -113.042000   65.017400  -74.669900

 Total Charge           Charge          ....    0
 Multiplicity           Mult            ....    1
 Number of Electrons    NEL             ....  134
 Basis Dimension        Dim             ....  322

ORBITAL ENERGIES
----------------

  NO   OCC          E(Eh)            E(eV)
   0   2.0000     -88.970110     -2420.9998
   1   2.0000     -88.967271     -2420.9225
   2   2.0000     -10.335934      -281.2551
   3   2.0000     -10.327286      -281.0197
   4   2.0000     -10.315723      -280.7051
   5   2.0000     -10.307485      -280.4809
   6   2.0000     -10.304705      -280.4053
   7   2.0000     -10.295684      -280.1598
   8   2.0000     -10.295596      -280.1574
   9   2.0000     -10.295216      -280.1471
  10   2.0000     -10.293345      -280.0962
  11   2.0000     -10.291759      -280.0530
  12   2.0000     -10.289479      -279.9910
  13   2.0000     -10.287553      -279.9385
  14   2.0000     -10.268238      -279.4130
  15   2.0000     -10.267089      -279.3817
  16   2.0000      -8.084392      -219.9875
  17   2.0000      -8.081332      -219.9042
  18   2.0000      -6.042814      -164.4333
  19   2.0000      -6.039774      -164.3506
  20   2.0000      -6.038971      -164.3287
  21   2.0000      -6.036028      -164.2487
  22   2.0000      -6.035257      -164.2277
  23   2.0000      -6.032114      -164.1422
  24   2.0000      -1.003568       -27.3085
  25   2.0000      -0.982971       -26.7480
  26   2.0000      -0.912408       -24.8279
  27   2.0000      -0.901888       -24.5416
  28   2.0000      -0.866775       -23.5862
  29   2.0000      -0.855208       -23.2714
  30   2.0000      -0.850773       -23.1507
  31   2.0000      -0.814640       -22.1675
  32   2.0000      -0.782551       -21.2943
  33   2.0000      -0.769025       -20.9262
  34   2.0000      -0.708463       -19.2783
  35   2.0000      -0.692947       -18.8561
  36   2.0000      -0.684890       -18.6368
  37   2.0000      -0.662841       -18.0368
  38   2.0000      -0.639957       -17.4141
  39   2.0000      -0.626940       -17.0599
  40   2.0000      -0.596316       -16.2266
  41   2.0000      -0.568415       -15.4673
  42   2.0000      -0.558802       -15.2058
  43   2.0000      -0.543894       -14.8001
  44   2.0000      -0.539585       -14.6829
  45   2.0000      -0.533050       -14.5050
  46   2.0000      -0.520378       -14.1602
  47   2.0000      -0.508114       -13.8265
  48   2.0000      -0.503840       -13.7102
  49   2.0000      -0.493901       -13.4397
  50   2.0000      -0.488174       -13.2839
  51   2.0000      -0.476430       -12.9643
  52   2.0000      -0.472652       -12.8615
  53   2.0000      -0.459876       -12.5138
  54   2.0000      -0.458400       -12.4737
  55   2.0000      -0.444367       -12.0919
  56   2.0000      -0.442265       -12.0346
  57   2.0000      -0.436826       -11.8866
  58   2.0000      -0.434418       -11.8211
  59   2.0000      -0.426959       -11.6181
  60   2.0000      -0.419827       -11.4241
  61   2.0000      -0.408640       -11.1197
  62   2.0000      -0.404079       -10.9955
  63   2.0000      -0.344662        -9.3787
  64   2.0000      -0.335058        -9.1174
  65   2.0000      -0.326551        -8.8859
  66   2.0000      -0.292551        -7.9607
  67   0.0000       0.028975         0.7884
  68   0.0000       0.062142         1.6910
  69   0.0000       0.109335         2.9752
  70   0.0000       0.113529         3.0893
  71   0.0000       0.126585         3.4445

MULLIKEN ATOMIC CHARGES
-----------------------
   0 S :    0.107674
   1 C :   -0.083690
   2 C :   -0.122654
   3 C :    0.051316
   4 C :   -0.168041
   5 H :    0.014188
   6 C :    0.076250
   7 H :    0.031117
   8 H :    0.006630
   9 C :   -0.091361
  10 H :    0.030429
  11 H :    0.031354
  12 C :   -0.012467
  13 H :    0.016927
  14 H :    0.030338
  15 H :    0.026150
  16 S :    0.123324
  17 C :   -0.103116
  18 C :   -0.032665
  19 C :    0.038540
  20 C :   -0.155550
  21 H :    0.004544
  22 C :    0.062652
  23 H :    0.027959
  24 H :    0.008744
  25 C :   -0.111041
  26 H :    0.030343
  27 H :    0.020898
  28 C :   -0.031308
  29 H :    0.017674
  30 H :    0.045287
  31 H :    0.035663
  32 H :    0.030542
  33 H :    0.043350
Sum of atomic charges:   -0.0000000

LOEWDIN ATOMIC CHARGES
----------------------
   0 S :    0.389310
   1 C :   -0.207200
   2 C :   -0.069321
   3 C :   -0.052073
   4 C :   -0.161355
   5 H :    0.030992
   6 C :   -0.026578
   7 H :    0.031406
   8 H :    0.025998
   9 C :   -0.044224
  10 H :    0.027458
  11 H :    0.024398
  12 C :   -0.064476
  13 H :    0.022668
  14 H :    0.023641
  15 H :    0.026934
  16 S :    0.411444
  17 C :   -0.173753
  18 C :   -0.057099
  19 C :   -0.053185
  20 C :   -0.209729
  21 H :    0.026752
  22 C :   -0.032405
  23 H :    0.034161
  24 H :    0.026002
  25 C :   -0.044782
  26 H :    0.028994
  27 H :    0.018390
  28 C :   -0.072095
  29 H :    0.023141
  30 H :    0.031648
  31 H :    0.025447
  32 H :    0.020397
  33 H :    0.019095

  Mayer bond orders larger than 0.100000
B(  0-S ,  1-C ) :   1.1496 B(  0-S ,  4-C ) :   1.1349 B(  1-C ,  2-C ) :   1.6186
B(  1-C , 32-H ) :   0.9569 B(  2-C ,  3-C ) :   1.2531 B(  2-C ,  6-C ) :   1.0320
B(  3-C ,  4-C ) :   1.5819 B(  3-C ,  5-H ) :   0.9914 B(  4-C , 20-C ) :   1.0120
B(  6-C ,  7-H ) :   0.9398 B(  6-C ,  8-H ) :   0.9433 B(  6-C ,  9-C ) :   1.0488
B(  9-C , 10-H ) :   0.9554 B(  9-C , 11-H ) :   0.9581 B(  9-C , 12-C ) :   1.0864
B( 12-C , 13-H ) :   0.9712 B( 12-C , 14-H ) :   0.9701 B( 12-C , 15-H ) :   0.9696
B( 16-S , 17-C ) :   1.1518 B( 16-S , 20-C ) :   1.1604 B( 17-C , 18-C ) :   1.6202
B( 17-C , 20-C ) :   0.1080 B( 17-C , 33-H ) :   0.9683 B( 18-C , 19-C ) :   1.2314
B( 18-C , 21-H ) :   0.9998 B( 19-C , 20-C ) :   1.5813 B( 19-C , 22-C ) :   1.0212
B( 22-C , 23-H ) :   0.9470 B( 22-C , 24-H ) :   0.9369 B( 22-C , 25-C ) :   1.0682
B( 25-C , 26-H ) :   0.9523 B( 25-C , 27-H ) :   0.9569 B( 25-C , 28-C ) :   1.0926
B( 28-C , 29-H ) :   0.9677 B( 28-C , 30-H ) :   0.9705 B( 28-C , 31-H ) :   0.9689

Dispersion correction           -0.016179155
FINAL SINGLE POINT ENERGY     -1339.869469018028

DIPOLE MOMENT
-------------
                                X             Y             Z
Electronic contribution:    -12.06937      21.46293      13.41274
Nuclear contribution   :     11.99602     -22.09202     -13.57057
                        -----------------------------------------
Total Dipole Moment    :     -0.07335      -0.62909      -0.15784
                        -----------------------------------------
Magnitude (a.u.)       :      0.65272
Magnitude (Debye)      :      1.65909

Rotational constants in cm-1:     0.021325     0.009214     0.007668
Rotational constants in MHz :   639.315305   276.213963   229.874178

                             ****ORCA TERMINATED NORMALLY****
TOTAL RUN TIME: 0 days 0 hours 0 minutes 23 seconds 260 msec
