                         Program Version 4.2.1 -  RELEASE  -
|  1> ! wB97X-D3 SP def2-SVP
|  2> %pal
|  3> nprocs 24
|  4> end
|  5>
|  6> * xyz 0 1
|  7> S 	 6.02661 	 -27.7018 	 -115.192
|  8> C 	 7.37885 	 -27.0169 	 -114.296
|  9> C 	 6.97702 	 -25.9258 	 -113.525
| 10> C 	 5.66533 	 -25.4991 	 -113.892
| 11> C 	 5.02347 	 -26.3864 	 -114.789
| 12> H 	 5.24502 	 -24.5846 	 -113.639
| 13> C 	 7.78083 	 -25.2258 	 -112.45
| 14> H 	 7.80835 	 -24.2178 	 -112.739
| 15> H 	 8.79662 	 -25.5587 	 -112.478
| 16> C 	 7.47986 	 -25.3724 	 -110.928
| 17> H 	 8.00997 	 -26.2728 	 -110.535
| 18> H 	 7.73922 	 -24.5176 	 -110.358
| 19> C 	 5.95487 	 -25.4456 	 -110.566
| 20> H 	 6.02435 	 -25.5042 	 -109.552
| 21> H 	 5.36632 	 -24.6497 	 -110.852
| 22> H 	 5.57054 	 -26.3541 	 -110.986
| 23> S 	 2.41827 	 -26.2751 	 -114.063
| 24> C 	 1.18351 	 -26.2813 	 -115.338
| 25> C 	 1.71482 	 -26.4891 	 -116.6
| 26> C 	 3.13074 	 -26.4658 	 -116.592
| 27> C 	 3.66597 	 -26.3158 	 -115.332
| 28> H 	 1.04186 	 -26.5087 	 -117.48
| 29> C 	 3.84853 	 -26.9574 	 -117.827
| 30> H 	 4.90532 	 -26.6314 	 -117.736
| 31> H 	 3.31295 	 -26.5434 	 -118.71
| 32> C 	 3.86317 	 -28.4685 	 -118.001
| 33> H 	 2.79158 	 -28.6901 	 -118.211
| 34> H 	 4.0446 	 -29.0676 	 -117.062
| 35> C 	 4.82902 	 -28.9571 	 -119.098
| 36> H 	 5.87821 	 -28.5976 	 -118.957
| 37> H 	 4.54266 	 -28.7831 	 -120.201
| 38> H 	 5.11398 	 -30.0246 	 -118.947
| 39> H 	 8.40109 	 -27.4264 	 -114.245
| 40> H 	 0.187852 	 -26.2366 	 -115.289
| 41> *
| 42>
| 43>                          ****END OF INPUT****

CARTESIAN COORDINATES (ANGSTROEM)
---------------------------------
  S      6.026610  -27.701800  -115.192000
  C      7.378850  -27.016900  -114.296000
  C      6.977020  -25.925800  -113.525000
  C      5.665330  -25.499100  -113.892000
  C      5.023470  -26.386400  -114.789000
  H      5.245020  -24.584600  -113.639000
  C      7.780830  -25.225800  -112.450000
  H      7.808350  -24.217800  -112.739000
  H      8.796620  -25.558700  -112.478000
  C      7.479860  -25.372400  -110.928000
  H      8.009970  -26.272800  -110.535000
  H      7.739220  -24.517600  -110.358000
  C      5.954870  -25.445600  -110.566000
  H      6.024350  -25.504200  -109.552000
  H      5.366320  -24.649700  -110.852000
  H      5.570540  -26.354100  -110.986000
  S      2.418270  -26.275100  -114.063000
  C      1.183510  -26.281300  -115.338000
  C      1.714820  -26.489100  -116.600000
  C      3.130740  -26.465800  -116.592000
  C      3.665970  -26.315800  -115.332000
  H      1.041860  -26.508700  -117.480000
  C      3.848530  -26.957400  -117.827000
  H      4.905320  -26.631400  -117.736000
  H      3.312950  -26.543400  -118.710000
  C      3.863170  -28.468500  -118.001000
  H      2.791580  -28.690100  -118.211000
  H      4.044600  -29.067600  -117.062000
  C      4.829020  -28.957100  -119.098000
  H      5.878210  -28.597600  -118.957000
  H      4.542660  -28.783100  -120.201000
  H      5.113980  -30.024600  -118.947000
  H      8.401090  -27.426400  -114.245000
  H      0.187852  -26.236600  -115.289000

 Total Charge           Charge          ....    0
 Multiplicity           Mult            ....    1
 Number of Electrons    NEL             ....  134
 Basis Dimension        Dim             ....  322

ORBITAL ENERGIES
----------------

  NO   OCC          E(Eh)            E(eV)
   0   2.0000     -88.970330     -2421.0057
   1   2.0000     -88.968684     -2420.9610
   2   2.0000     -10.328951      -281.0651
   3   2.0000     -10.327578      -281.0277
   4   2.0000     -10.316570      -280.7281
   5   2.0000     -10.310255      -280.5563
   6   2.0000     -10.303521      -280.3731
   7   2.0000     -10.300354      -280.2869
   8   2.0000     -10.293826      -280.1092
   9   2.0000     -10.291773      -280.0534
  10   2.0000     -10.291357      -280.0421
  11   2.0000     -10.291246      -280.0391
  12   2.0000     -10.288746      -279.9710
  13   2.0000     -10.288256      -279.9577
  14   2.0000     -10.285113      -279.8722
  15   2.0000     -10.258386      -279.1449
  16   2.0000      -8.084968      -220.0032
  17   2.0000      -8.082236      -219.9288
  18   2.0000      -6.043369      -164.4484
  19   2.0000      -6.040874      -164.3805
  20   2.0000      -6.039429      -164.3412
  21   2.0000      -6.036982      -164.2746
  22   2.0000      -6.035922      -164.2458
  23   2.0000      -6.032864      -164.1626
  24   2.0000      -1.006764       -27.3954
  25   2.0000      -0.982644       -26.7391
  26   2.0000      -0.909361       -24.7450
  27   2.0000      -0.906709       -24.6728
  28   2.0000      -0.868427       -23.6311
  29   2.0000      -0.850751       -23.1501
  30   2.0000      -0.843920       -22.9642
  31   2.0000      -0.813986       -22.1497
  32   2.0000      -0.788924       -21.4677
  33   2.0000      -0.770850       -20.9759
  34   2.0000      -0.706798       -19.2330
  35   2.0000      -0.699667       -19.0389
  36   2.0000      -0.690629       -18.7930
  37   2.0000      -0.667373       -18.1601
  38   2.0000      -0.640923       -17.4404
  39   2.0000      -0.610881       -16.6229
  40   2.0000      -0.591435       -16.0938
  41   2.0000      -0.572368       -15.5749
  42   2.0000      -0.562944       -15.3185
  43   2.0000      -0.559711       -15.2305
  44   2.0000      -0.541903       -14.7459
  45   2.0000      -0.520637       -14.1673
  46   2.0000      -0.517749       -14.0887
  47   2.0000      -0.512228       -13.9384
  48   2.0000      -0.503488       -13.7006
  49   2.0000      -0.493503       -13.4289
  50   2.0000      -0.489358       -13.3161
  51   2.0000      -0.478231       -13.0133
  52   2.0000      -0.476472       -12.9655
  53   2.0000      -0.468421       -12.7464
  54   2.0000      -0.457959       -12.4617
  55   2.0000      -0.447683       -12.1821
  56   2.0000      -0.443316       -12.0632
  57   2.0000      -0.439376       -11.9560
  58   2.0000      -0.426341       -11.6013
  59   2.0000      -0.422987       -11.5101
  60   2.0000      -0.420687       -11.4475
  61   2.0000      -0.409421       -11.1409
  62   2.0000      -0.406793       -11.0694
  63   2.0000      -0.339144        -9.2286
  64   2.0000      -0.334051        -9.0900
  65   2.0000      -0.327191        -8.9033
  66   2.0000      -0.294273        -8.0076
  67   0.0000       0.027800         0.7565
  68   0.0000       0.069179         1.8825
  69   0.0000       0.101839         2.7712
  70   0.0000       0.115616         3.1461
  71   0.0000       0.119177         3.2430

MULLIKEN ATOMIC CHARGES
-----------------------
   0 S :    0.121047
   1 C :   -0.129035
   2 C :   -0.110178
   3 C :    0.048940
   4 C :   -0.159110
   5 H :   -0.011146
   6 C :    0.121315
   7 H :    0.018888
   8 H :    0.004150
   9 C :   -0.101493
  10 H :    0.039201
  11 H :    0.024770
  12 C :   -0.007739
  13 H :    0.010198
  14 H :    0.020748
  15 H :    0.037523
  16 S :    0.115612
  17 C :   -0.020314
  18 C :   -0.076777
  19 C :   -0.007577
  20 C :   -0.156394
  21 H :    0.035215
  22 C :    0.044226
  23 H :    0.028943
  24 H :    0.031335
  25 C :   -0.079086
  26 H :    0.023481
  27 H :    0.040720
  28 C :   -0.075042
  29 H :    0.029115
  30 H :    0.055150
  31 H :    0.032772
  32 H :    0.054455
  33 H :   -0.003914
Sum of atomic charges:    0.0000000

LOEWDIN ATOMIC CHARGES
----------------------
   0 S :    0.439176
   1 C :   -0.205026
   2 C :   -0.057497
   3 C :   -0.056246
   4 C :   -0.212722
   5 H :    0.018694
   6 C :   -0.034010
   7 H :    0.026732
   8 H :    0.028325
   9 C :   -0.027342
  10 H :    0.028894
  11 H :    0.021879
  12 C :   -0.049970
  13 H :    0.014935
  14 H :    0.013532
  15 H :    0.024388
  16 S :    0.394620
  17 C :   -0.157103
  18 C :   -0.069132
  19 C :   -0.059554
  20 C :   -0.189704
  21 H :    0.038501
  22 C :   -0.037435
  23 H :    0.025093
  24 H :    0.034662
  25 C :   -0.051860
  26 H :    0.025481
  27 H :    0.027000
  28 C :   -0.086459
  29 H :    0.029811
  30 H :    0.035143
  31 H :    0.032400
  32 H :    0.032525
  33 H :    0.002271

  Mayer bond orders larger than 0.100000
B(  0-S ,  1-C ) :   1.1415 B(  0-S ,  4-C ) :   1.1776 B(  1-C ,  2-C ) :   1.5991
B(  1-C , 32-H ) :   0.9636 B(  2-C ,  3-C ) :   1.2459 B(  2-C ,  6-C ) :   1.0323
B(  3-C ,  4-C ) :   1.5354 B(  3-C ,  5-H ) :   1.0074 B(  4-C , 20-C ) :   1.0227
B(  6-C ,  7-H ) :   0.9334 B(  6-C ,  8-H ) :   0.9380 B(  6-C ,  9-C ) :   1.0623
B(  9-C , 10-H ) :   0.9627 B(  9-C , 11-H ) :   0.9592 B(  9-C , 12-C ) :   1.0832
B( 12-C , 13-H ) :   0.9754 B( 12-C , 14-H ) :   0.9777 B( 12-C , 15-H ) :   0.9710
B( 16-S , 17-C ) :   1.1390 B( 16-S , 20-C ) :   1.1314 B( 17-C , 18-C ) :   1.6435
B( 17-C , 33-H ) :   0.9743 B( 18-C , 19-C ) :   1.2164 B( 18-C , 21-H ) :   0.9782
B( 19-C , 20-C ) :   1.6087 B( 19-C , 22-C ) :   1.0711 B( 22-C , 23-H ) :   0.9313
B( 22-C , 24-H ) :   0.9310 B( 22-C , 25-C ) :   1.0541 B( 25-C , 26-H ) :   0.9504
B( 25-C , 27-H ) :   0.9549 B( 25-C , 28-C ) :   1.0743 B( 28-C , 29-H ) :   0.9690
B( 28-C , 30-H ) :   0.9748 B( 28-C , 31-H ) :   0.9720

Dispersion correction           -0.015021781
FINAL SINGLE POINT ENERGY     -1339.848060374244

DIPOLE MOMENT
-------------
                                X             Y             Z
Electronic contribution:     -8.62560       0.83074       0.50003
Nuclear contribution   :      8.77079      -0.78110      -0.48416
                        -----------------------------------------
Total Dipole Moment    :      0.14519       0.04964       0.01588
                        -----------------------------------------
Magnitude (a.u.)       :      0.15426
Magnitude (Debye)      :      0.39210

Rotational constants in cm-1:     0.021771     0.008911     0.006691
Rotational constants in MHz :   652.681242   267.152577   200.599685

                             ****ORCA TERMINATED NORMALLY****
TOTAL RUN TIME: 0 days 0 hours 0 minutes 21 seconds 716 msec
