                         Program Version 4.2.1 -  RELEASE  -
|  1> ! wB97X-D3 SP def2-SVP
|  2> %pal
|  3> nprocs 24
|  4> end
|  5>
|  6> * xyz 0 1
|  7> S 	 -106.001 	 16.9699 	 -118.493
|  8> C 	 -105.012 	 15.5296 	 -118.773
|  9> C 	 -103.871 	 15.8488 	 -119.475
| 10> C 	 -103.9 	 17.268 	 -119.89
| 11> C 	 -105.033 	 17.9636 	 -119.534
| 12> H 	 -103.142 	 17.8319 	 -120.478
| 13> C 	 -102.866 	 14.8973 	 -119.819
| 14> H 	 -102.286 	 15.292 	 -120.598
| 15> H 	 -103.32 	 13.9965 	 -120.287
| 16> C 	 -101.98 	 14.4291 	 -118.633
| 17> H 	 -102.728 	 13.8793 	 -117.95
| 18> H 	 -101.237 	 13.7883 	 -119.069
| 19> C 	 -101.196 	 15.5827 	 -118.056
| 20> H 	 -101.811 	 16.429 	 -117.604
| 21> H 	 -100.376 	 15.205 	 -117.418
| 22> H 	 -100.732 	 16.2235 	 -118.76
| 23> S 	 -105.05 	 20.1539 	 -117.984
| 24> C 	 -105.011 	 21.7251 	 -118.772
| 25> C 	 -105.136 	 21.6099 	 -120.11
| 26> C 	 -105.22 	 20.2952 	 -120.546
| 27> C 	 -105.202 	 19.3897 	 -119.542
| 28> H 	 -105.142 	 22.5317 	 -120.746
| 29> C 	 -105.408 	 19.8342 	 -122.013
| 30> H 	 -106.315 	 20.2146 	 -122.519
| 31> H 	 -105.468 	 18.7571 	 -121.984
| 32> C 	 -104.278 	 20.2403 	 -122.931
| 33> H 	 -103.346 	 19.8459 	 -122.555
| 34> H 	 -104.121 	 21.3537 	 -122.925
| 35> C 	 -104.564 	 19.6919 	 -124.345
| 36> H 	 -104.555 	 18.5943 	 -124.426
| 37> H 	 -103.752 	 19.9603 	 -125.075
| 38> H 	 -105.425 	 20.0843 	 -124.829
| 39> H 	 -105.19 	 14.5091 	 -118.395
| 40> H 	 -104.884 	 22.6112 	 -118.161
| 41> *
| 42>
| 43>                          ****END OF INPUT****

CARTESIAN COORDINATES (ANGSTROEM)
---------------------------------
  S    -106.001000   16.969900  -118.493000
  C    -105.012000   15.529600  -118.773000
  C    -103.871000   15.848800  -119.475000
  C    -103.900000   17.268000  -119.890000
  C    -105.033000   17.963600  -119.534000
  H    -103.142000   17.831900  -120.478000
  C    -102.866000   14.897300  -119.819000
  H    -102.286000   15.292000  -120.598000
  H    -103.320000   13.996500  -120.287000
  C    -101.980000   14.429100  -118.633000
  H    -102.728000   13.879300  -117.950000
  H    -101.237000   13.788300  -119.069000
  C    -101.196000   15.582700  -118.056000
  H    -101.811000   16.429000  -117.604000
  H    -100.376000   15.205000  -117.418000
  H    -100.732000   16.223500  -118.760000
  S    -105.050000   20.153900  -117.984000
  C    -105.011000   21.725100  -118.772000
  C    -105.136000   21.609900  -120.110000
  C    -105.220000   20.295200  -120.546000
  C    -105.202000   19.389700  -119.542000
  H    -105.142000   22.531700  -120.746000
  C    -105.408000   19.834200  -122.013000
  H    -106.315000   20.214600  -122.519000
  H    -105.468000   18.757100  -121.984000
  C    -104.278000   20.240300  -122.931000
  H    -103.346000   19.845900  -122.555000
  H    -104.121000   21.353700  -122.925000
  C    -104.564000   19.691900  -124.345000
  H    -104.555000   18.594300  -124.426000
  H    -103.752000   19.960300  -125.075000
  H    -105.425000   20.084300  -124.829000
  H    -105.190000   14.509100  -118.395000
  H    -104.884000   22.611200  -118.161000

 Total Charge           Charge          ....    0
 Multiplicity           Mult            ....    1
 Number of Electrons    NEL             ....  134
 Basis Dimension        Dim             ....  322

ORBITAL ENERGIES
----------------

  NO   OCC          E(Eh)            E(eV)
   0   2.0000     -88.962880     -2420.8030
   1   2.0000     -88.961451     -2420.7641
   2   2.0000     -10.325543      -280.9723
   3   2.0000     -10.319357      -280.8040
   4   2.0000     -10.315846      -280.7084
   5   2.0000     -10.315526      -280.6997
   6   2.0000     -10.300381      -280.2876
   7   2.0000     -10.300032      -280.2781
   8   2.0000     -10.296740      -280.1885
   9   2.0000     -10.293847      -280.1098
  10   2.0000     -10.292864      -280.0831
  11   2.0000     -10.288804      -279.9726
  12   2.0000     -10.288172      -279.9554
  13   2.0000     -10.282023      -279.7881
  14   2.0000     -10.279866      -279.7294
  15   2.0000     -10.277123      -279.6547
  16   2.0000      -8.077693      -219.8052
  17   2.0000      -8.076931      -219.7845
  18   2.0000      -6.036342      -164.2572
  19   2.0000      -6.035363      -164.2306
  20   2.0000      -6.032103      -164.1419
  21   2.0000      -6.031431      -164.1236
  22   2.0000      -6.028371      -164.0403
  23   2.0000      -6.027599      -164.0193
  24   2.0000      -1.014913       -27.6172
  25   2.0000      -0.987408       -26.8687
  26   2.0000      -0.923023       -25.1167
  27   2.0000      -0.909621       -24.7520
  28   2.0000      -0.873887       -23.7797
  29   2.0000      -0.850524       -23.1439
  30   2.0000      -0.843401       -22.9501
  31   2.0000      -0.816182       -22.2094
  32   2.0000      -0.782283       -21.2870
  33   2.0000      -0.772932       -21.0326
  34   2.0000      -0.707873       -19.2622
  35   2.0000      -0.703251       -19.1364
  36   2.0000      -0.699181       -19.0257
  37   2.0000      -0.662249       -18.0207
  38   2.0000      -0.637688       -17.3524
  39   2.0000      -0.610503       -16.6126
  40   2.0000      -0.600114       -16.3299
  41   2.0000      -0.580894       -15.8069
  42   2.0000      -0.567791       -15.4504
  43   2.0000      -0.550248       -14.9730
  44   2.0000      -0.541949       -14.7472
  45   2.0000      -0.522768       -14.2252
  46   2.0000      -0.516437       -14.0530
  47   2.0000      -0.513605       -13.9759
  48   2.0000      -0.505772       -13.7628
  49   2.0000      -0.496096       -13.4995
  50   2.0000      -0.493705       -13.4344
  51   2.0000      -0.477122       -12.9832
  52   2.0000      -0.473533       -12.8855
  53   2.0000      -0.468561       -12.7502
  54   2.0000      -0.459160       -12.4944
  55   2.0000      -0.448931       -12.2160
  56   2.0000      -0.438170       -11.9232
  57   2.0000      -0.434369       -11.8198
  58   2.0000      -0.429158       -11.6780
  59   2.0000      -0.423676       -11.5288
  60   2.0000      -0.421598       -11.4723
  61   2.0000      -0.414751       -11.2859
  62   2.0000      -0.414028       -11.2663
  63   2.0000      -0.347671        -9.4606
  64   2.0000      -0.333025        -9.0621
  65   2.0000      -0.322566        -8.7775
  66   2.0000      -0.299507        -8.1500
  67   0.0000       0.037449         1.0191
  68   0.0000       0.061949         1.6857
  69   0.0000       0.115160         3.1337
  70   0.0000       0.119902         3.2627
  71   0.0000       0.131238         3.5712

MULLIKEN ATOMIC CHARGES
-----------------------
   0 S :    0.094460
   1 C :   -0.117826
   2 C :   -0.090360
   3 C :    0.034115
   4 C :   -0.169296
   5 H :    0.023366
   6 C :    0.045911
   7 H :   -0.000843
   8 H :    0.037038
   9 C :   -0.049511
  10 H :    0.045799
  11 H :    0.028999
  12 C :   -0.066667
  13 H :    0.049011
  14 H :    0.044553
  15 H :    0.008991
  16 S :    0.101376
  17 C :   -0.103284
  18 C :   -0.032775
  19 C :   -0.011890
  20 C :   -0.151455
  21 H :    0.033836
  22 C :    0.075382
  23 H :    0.031286
  24 H :    0.023884
  25 C :   -0.086746
  26 H :    0.017091
  27 H :    0.035184
  28 C :   -0.054865
  29 H :    0.035707
  30 H :    0.028500
  31 H :    0.026806
  32 H :    0.056104
  33 H :    0.058117
Sum of atomic charges:    0.0000000

LOEWDIN ATOMIC CHARGES
----------------------
   0 S :    0.398838
   1 C :   -0.190408
   2 C :   -0.065233
   3 C :   -0.063182
   4 C :   -0.206369
   5 H :    0.034754
   6 C :   -0.043307
   7 H :    0.020795
   8 H :    0.039251
   9 C :   -0.033694
  10 H :    0.033095
  11 H :    0.024311
  12 C :   -0.080197
  13 H :    0.038642
  14 H :    0.031089
  15 H :    0.020213
  16 S :    0.402042
  17 C :   -0.171682
  18 C :   -0.077947
  19 C :   -0.061276
  20 C :   -0.199393
  21 H :    0.042228
  22 C :   -0.025370
  23 H :    0.032975
  24 H :    0.027516
  25 C :   -0.042456
  26 H :    0.018362
  27 H :    0.026507
  28 C :   -0.071380
  29 H :    0.028655
  30 H :    0.030772
  31 H :    0.019374
  32 H :    0.034683
  33 H :    0.027790

  Mayer bond orders larger than 0.100000
B(  0-S ,  1-C ) :   1.1270 B(  0-S ,  4-C ) :   1.1394 B(  1-C ,  2-C ) :   1.6167
B(  1-C , 32-H ) :   0.9654 B(  2-C ,  3-C ) :   1.2068 B(  2-C ,  6-C ) :   1.0487
B(  3-C ,  4-C ) :   1.5943 B(  3-C ,  5-H ) :   0.9846 B(  4-C , 20-C ) :   1.0113
B(  6-C ,  7-H ) :   0.9316 B(  6-C ,  8-H ) :   0.9359 B(  6-C ,  9-C ) :   1.0734
B(  9-C , 10-H ) :   0.9554 B(  9-C , 11-H ) :   0.9527 B(  9-C , 12-C ) :   1.0733
B( 12-C , 13-H ) :   0.9672 B( 12-C , 14-H ) :   0.9746 B( 12-C , 15-H ) :   0.9684
B( 16-S , 17-C ) :   1.1547 B( 16-S , 20-C ) :   1.1416 B( 17-C , 18-C ) :   1.6082
B( 17-C , 33-H ) :   0.9705 B( 18-C , 19-C ) :   1.2323 B( 18-C , 21-H ) :   0.9886
B( 19-C , 20-C ) :   1.6407 B( 19-C , 22-C ) :   1.0258 B( 22-C , 23-H ) :   0.9429
B( 22-C , 24-H ) :   0.9351 B( 22-C , 25-C ) :   1.0573 B( 25-C , 26-H ) :   0.9516
B( 25-C , 27-H ) :   0.9565 B( 25-C , 28-C ) :   1.0834 B( 28-C , 29-H ) :   0.9744
B( 28-C , 30-H ) :   0.9721 B( 28-C , 31-H ) :   0.9746

Dispersion correction           -0.014466138
FINAL SINGLE POINT ENERGY     -1339.873858076095

DIPOLE MOMENT
-------------
                                X             Y             Z
Electronic contribution:    -15.40673       6.80271      17.24119
Nuclear contribution   :     15.93427      -6.83232     -17.71755
                        -----------------------------------------
Total Dipole Moment    :      0.52754      -0.02961      -0.47635
                        -----------------------------------------
Magnitude (a.u.)       :      0.71140
Magnitude (Debye)      :      1.80824

Rotational constants in cm-1:     0.017886     0.008884     0.007270
Rotational constants in MHz :   536.194245   266.343644   217.948383

                             ****ORCA TERMINATED NORMALLY****
TOTAL RUN TIME: 0 days 0 hours 0 minutes 21 seconds 985 msec
