                         Program Version 4.2.1 -  RELEASE  -
|  1> ! wB97X-D3 SP def2-SVP
|  2> %pal
|  3> nprocs 24
|  4> end
|  5>
|  6> * xyz 0 1
|  7> S 	 -94.5536 	 -6.74506 	 -120.31
|  8> C 	 -95.6781 	 -5.55428 	 -120.893
|  9> C 	 -96.5547 	 -5.21239 	 -119.884
| 10> C 	 -96.1338 	 -5.73773 	 -118.573
| 11> C 	 -95.0261 	 -6.58266 	 -118.666
| 12> H 	 -96.4552 	 -5.53724 	 -117.592
| 13> C 	 -97.8304 	 -4.37065 	 -120.091
| 14> H 	 -98.008 	 -4.25249 	 -121.191
| 15> H 	 -97.675 	 -3.34578 	 -119.854
| 16> C 	 -99.1053 	 -4.97077 	 -119.494
| 17> H 	 -98.985 	 -5.02721 	 -118.381
| 18> H 	 -99.9092 	 -4.2541 	 -119.663
| 19> C 	 -99.402 	 -6.40222 	 -119.925
| 20> H 	 -98.7057 	 -7.15857 	 -119.563
| 21> H 	 -100.336 	 -6.66652 	 -119.422
| 22> H 	 -99.5634 	 -6.32247 	 -120.988
| 23> S 	 -92.5477 	 -7.23286 	 -117.657
| 24> C 	 -92.5054 	 -8.35257 	 -116.289
| 25> C 	 -93.8501 	 -8.69461 	 -115.906
| 26> C 	 -94.8243 	 -8.124 	 -116.716
| 27> C 	 -94.3075 	 -7.22126 	 -117.648
| 28> H 	 -94.0283 	 -9.26551 	 -115.006
| 29> C 	 -96.2329 	 -8.43956 	 -116.447
| 30> H 	 -96.6604 	 -7.4875 	 -116.349
| 31> H 	 -96.3233 	 -8.90947 	 -115.504
| 32> C 	 -96.8546 	 -9.20002 	 -117.622
| 33> H 	 -96.656 	 -8.77299 	 -118.624
| 34> H 	 -97.8898 	 -9.15389 	 -117.522
| 35> C 	 -96.5136 	 -10.7431 	 -117.583
| 36> H 	 -97.1091 	 -11.2008 	 -118.343
| 37> H 	 -96.6136 	 -11.0868 	 -116.618
| 38> H 	 -95.4901 	 -10.8059 	 -117.941
| 39> H 	 -95.845 	 -5.17587 	 -121.899
| 40> H 	 -91.6357 	 -8.60876 	 -115.709
| 41> *
| 42>
| 43>                          ****END OF INPUT****

CARTESIAN COORDINATES (ANGSTROEM)
---------------------------------
  S    -94.553600   -6.745060  -120.310000
  C    -95.678100   -5.554280  -120.893000
  C    -96.554700   -5.212390  -119.884000
  C    -96.133800   -5.737730  -118.573000
  C    -95.026100   -6.582660  -118.666000
  H    -96.455200   -5.537240  -117.592000
  C    -97.830400   -4.370650  -120.091000
  H    -98.008000   -4.252490  -121.191000
  H    -97.675000   -3.345780  -119.854000
  C    -99.105300   -4.970770  -119.494000
  H    -98.985000   -5.027210  -118.381000
  H    -99.909200   -4.254100  -119.663000
  C    -99.402000   -6.402220  -119.925000
  H    -98.705700   -7.158570  -119.563000
  H    -100.336000   -6.666520  -119.422000
  H    -99.563400   -6.322470  -120.988000
  S    -92.547700   -7.232860  -117.657000
  C    -92.505400   -8.352570  -116.289000
  C    -93.850100   -8.694610  -115.906000
  C    -94.824300   -8.124000  -116.716000
  C    -94.307500   -7.221260  -117.648000
  H    -94.028300   -9.265510  -115.006000
  C    -96.232900   -8.439560  -116.447000
  H    -96.660400   -7.487500  -116.349000
  H    -96.323300   -8.909470  -115.504000
  C    -96.854600   -9.200020  -117.622000
  H    -96.656000   -8.772990  -118.624000
  H    -97.889800   -9.153890  -117.522000
  C    -96.513600  -10.743100  -117.583000
  H    -97.109100  -11.200800  -118.343000
  H    -96.613600  -11.086800  -116.618000
  H    -95.490100  -10.805900  -117.941000
  H    -95.845000   -5.175870  -121.899000
  H    -91.635700   -8.608760  -115.709000

 Total Charge           Charge          ....    0
 Multiplicity           Mult            ....    1
 Number of Electrons    NEL             ....  134
 Basis Dimension        Dim             ....  322

ORBITAL ENERGIES
----------------

  NO   OCC          E(Eh)            E(eV)
   0   2.0000     -88.972351     -2421.0608
   1   2.0000     -88.963099     -2420.8090
   2   2.0000     -10.325061      -280.9592
   3   2.0000     -10.322870      -280.8996
   4   2.0000     -10.321151      -280.8528
   5   2.0000     -10.311422      -280.5881
   6   2.0000     -10.306325      -280.4494
   7   2.0000     -10.296957      -280.1944
   8   2.0000     -10.295148      -280.1452
   9   2.0000     -10.293303      -280.0950
  10   2.0000     -10.291840      -280.0552
  11   2.0000     -10.288412      -279.9619
  12   2.0000     -10.280714      -279.7525
  13   2.0000     -10.279837      -279.7286
  14   2.0000     -10.274712      -279.5891
  15   2.0000     -10.267010      -279.3795
  16   2.0000      -8.086043      -220.0324
  17   2.0000      -8.078435      -219.8254
  18   2.0000      -6.044488      -164.4789
  19   2.0000      -6.040532      -164.3712
  20   2.0000      -6.037100      -164.2779
  21   2.0000      -6.037021      -164.2757
  22   2.0000      -6.032744      -164.1593
  23   2.0000      -6.029165      -164.0619
  24   2.0000      -1.010620       -27.5004
  25   2.0000      -0.982026       -26.7223
  26   2.0000      -0.915499       -24.9120
  27   2.0000      -0.910522       -24.7766
  28   2.0000      -0.873242       -23.7621
  29   2.0000      -0.852367       -23.1941
  30   2.0000      -0.839457       -22.8428
  31   2.0000      -0.812036       -22.0966
  32   2.0000      -0.788189       -21.4477
  33   2.0000      -0.774654       -21.0794
  34   2.0000      -0.715595       -19.4723
  35   2.0000      -0.696634       -18.9564
  36   2.0000      -0.689533       -18.7631
  37   2.0000      -0.665896       -18.1199
  38   2.0000      -0.643696       -17.5159
  39   2.0000      -0.615887       -16.7591
  40   2.0000      -0.595111       -16.1938
  41   2.0000      -0.567964       -15.4551
  42   2.0000      -0.558961       -15.2101
  43   2.0000      -0.556141       -15.1334
  44   2.0000      -0.547634       -14.9019
  45   2.0000      -0.542622       -14.7655
  46   2.0000      -0.525859       -14.3094
  47   2.0000      -0.508358       -13.8331
  48   2.0000      -0.505439       -13.7537
  49   2.0000      -0.498722       -13.5709
  50   2.0000      -0.494255       -13.4494
  51   2.0000      -0.477593       -12.9960
  52   2.0000      -0.471324       -12.8254
  53   2.0000      -0.465078       -12.6554
  54   2.0000      -0.459461       -12.5026
  55   2.0000      -0.453421       -12.3382
  56   2.0000      -0.444039       -12.0829
  57   2.0000      -0.438956       -11.9446
  58   2.0000      -0.436410       -11.8753
  59   2.0000      -0.423344       -11.5198
  60   2.0000      -0.413872       -11.2620
  61   2.0000      -0.409742       -11.1496
  62   2.0000      -0.407443       -11.0871
  63   2.0000      -0.344051        -9.3621
  64   2.0000      -0.335705        -9.1350
  65   2.0000      -0.324352        -8.8261
  66   2.0000      -0.287158        -7.8140
  67   0.0000       0.021872         0.5952
  68   0.0000       0.070171         1.9095
  69   0.0000       0.111672         3.0387
  70   0.0000       0.114650         3.1198
  71   0.0000       0.133040         3.6202

MULLIKEN ATOMIC CHARGES
-----------------------
   0 S :    0.112898
   1 C :   -0.109843
   2 C :   -0.099072
   3 C :    0.039334
   4 C :   -0.182564
   5 H :   -0.004371
   6 C :    0.078679
   7 H :    0.007170
   8 H :    0.029831
   9 C :   -0.109621
  10 H :    0.026345
  11 H :    0.033061
  12 C :   -0.026265
  13 H :    0.050072
  14 H :    0.025618
  15 H :    0.030470
  16 S :    0.129215
  17 C :   -0.104748
  18 C :   -0.042424
  19 C :   -0.056333
  20 C :   -0.159615
  21 H :    0.018651
  22 C :    0.158330
  23 H :    0.000227
  24 H :    0.003191
  25 C :   -0.108587
  26 H :    0.059996
  27 H :    0.010972
  28 C :    0.002119
  29 H :    0.030049
  30 H :    0.015931
  31 H :    0.033029
  32 H :    0.047653
  33 H :    0.060605
Sum of atomic charges:   -0.0000000

LOEWDIN ATOMIC CHARGES
----------------------
   0 S :    0.417390
   1 C :   -0.208671
   2 C :   -0.055617
   3 C :   -0.065931
   4 C :   -0.200518
   5 H :    0.020275
   6 C :   -0.037354
   7 H :    0.028686
   8 H :    0.027070
   9 C :   -0.045560
  10 H :    0.022419
  11 H :    0.025885
  12 C :   -0.061645
  13 H :    0.030625
  14 H :    0.028507
  15 H :    0.023807
  16 S :    0.415626
  17 C :   -0.181294
  18 C :   -0.069607
  19 C :   -0.046132
  20 C :   -0.215484
  21 H :    0.029715
  22 C :   -0.021747
  23 H :    0.025951
  24 H :    0.025762
  25 C :   -0.029441
  26 H :    0.029941
  27 H :    0.010021
  28 C :   -0.047614
  29 H :    0.024924
  30 H :    0.010751
  31 H :    0.028021
  32 H :    0.033407
  33 H :    0.027833

  Mayer bond orders larger than 0.100000
B(  0-S ,  1-C ) :   1.1232 B(  0-S ,  4-C ) :   1.1479 B(  1-C ,  2-C ) :   1.6380
B(  1-C , 32-H ) :   0.9652 B(  2-C ,  3-C ) :   1.1948 B(  2-C ,  6-C ) :   1.0161
B(  3-C ,  4-C ) :   1.5745 B(  3-C ,  5-H ) :   1.0022 B(  4-C , 20-C ) :   1.0899
B(  6-C ,  7-H ) :   0.9395 B(  6-C ,  8-H ) :   0.9387 B(  6-C ,  9-C ) :   1.0734
B(  9-C , 10-H ) :   0.9528 B(  9-C , 11-H ) :   0.9564 B(  9-C , 12-C ) :   1.0768
B( 12-C , 13-H ) :   0.9679 B( 12-C , 14-H ) :   0.9695 B( 12-C , 15-H ) :   0.9770
B( 16-S , 17-C ) :   1.1809 B( 16-S , 20-C ) :   1.1414 B( 17-C , 18-C ) :   1.5377
B( 17-C , 20-C ) :   0.1199 B( 17-C , 33-H ) :   0.9695 B( 18-C , 19-C ) :   1.3066
B( 18-C , 21-H ) :   0.9886 B( 19-C , 20-C ) :   1.5175 B( 19-C , 22-C ) :   1.0336
B( 22-C , 23-H ) :   0.9151 B( 22-C , 24-H ) :   0.9316 B( 22-C , 25-C ) :   1.0670
B( 25-C , 26-H ) :   0.9552 B( 25-C , 27-H ) :   0.9537 B( 25-C , 28-C ) :   1.0657
B( 28-C , 29-H ) :   0.9751 B( 28-C , 30-H ) :   0.9773 B( 28-C , 31-H ) :   0.9786

Dispersion correction           -0.016283183
FINAL SINGLE POINT ENERGY     -1339.864554085976

DIPOLE MOMENT
-------------
                                X             Y             Z
Electronic contribution:     26.75094       4.87692      -1.59817
Nuclear contribution   :    -27.34743      -4.87278       1.94179
                        -----------------------------------------
Total Dipole Moment    :     -0.59649       0.00414       0.34362
                        -----------------------------------------
Magnitude (a.u.)       :      0.68840
Magnitude (Debye)      :      1.74979

Rotational constants in cm-1:     0.020616     0.009982     0.007839
Rotational constants in MHz :   618.050536   299.251864   234.992414

                             ****ORCA TERMINATED NORMALLY****
TOTAL RUN TIME: 0 days 0 hours 0 minutes 23 seconds 547 msec
