                         Program Version 4.2.1 -  RELEASE  -
|  1> ! wB97X-D3 SP def2-SVP
|  2> %pal
|  3> nprocs 24
|  4> end
|  5>
|  6> * xyz 0 1
|  7> S 	 26.4068 	 -3.3641 	 -108.273
|  8> C 	 27.1807 	 -2.03211 	 -109.057
|  9> C 	 26.4414 	 -1.48853 	 -110.144
| 10> C 	 25.2721 	 -2.24626 	 -110.308
| 11> C 	 25.1195 	 -3.32229 	 -109.462
| 12> H 	 24.4912 	 -2.05752 	 -111.037
| 13> C 	 26.8799 	 -0.387882 	 -111.132
| 14> H 	 27.6975 	 0.224938 	 -110.73
| 15> H 	 25.9721 	 0.25112 	 -111.013
| 16> C 	 27.1176 	 -0.841645 	 -112.633
| 17> H 	 26.2399 	 -1.42061 	 -112.991
| 18> H 	 27.3271 	 0.0401241 	 -113.317
| 19> C 	 28.3015 	 -1.84058 	 -112.747
| 20> H 	 29.2439 	 -1.38947 	 -112.587
| 21> H 	 28.333 	 -2.65805 	 -112.036
| 22> H 	 28.3927 	 -2.25569 	 -113.739
| 23> S 	 23.2377 	 -4.40768 	 -107.91
| 24> C 	 22.153 	 -5.6672 	 -108.389
| 25> C 	 22.3012 	 -5.94143 	 -109.707
| 26> C 	 23.3477 	 -5.12456 	 -110.326
| 27> C 	 23.9406 	 -4.21452 	 -109.434
| 28> H 	 21.776 	 -6.79473 	 -110.168
| 29> C 	 23.6941 	 -5.17611 	 -111.813
| 30> H 	 24.7868 	 -5.30409 	 -111.921
| 31> H 	 23.4987 	 -4.18355 	 -112.199
| 32> C 	 22.9105 	 -6.15416 	 -112.748
| 33> H 	 21.8348 	 -6.20306 	 -112.67
| 34> H 	 23.1701 	 -7.17493 	 -112.439
| 35> C 	 23.206 	 -5.99784 	 -114.229
| 36> H 	 22.5929 	 -6.66696 	 -114.942
| 37> H 	 24.2158 	 -6.32716 	 -114.474
| 38> H 	 22.9992 	 -4.96404 	 -114.459
| 39> H 	 28.0906 	 -1.64569 	 -108.661
| 40> H 	 21.5189 	 -6.23988 	 -107.774
| 41> *
| 42>
| 43>                          ****END OF INPUT****

CARTESIAN COORDINATES (ANGSTROEM)
---------------------------------
  S     26.406800   -3.364100  -108.273000
  C     27.180700   -2.032110  -109.057000
  C     26.441400   -1.488530  -110.144000
  C     25.272100   -2.246260  -110.308000
  C     25.119500   -3.322290  -109.462000
  H     24.491200   -2.057520  -111.037000
  C     26.879900   -0.387882  -111.132000
  H     27.697500    0.224938  -110.730000
  H     25.972100    0.251120  -111.013000
  C     27.117600   -0.841645  -112.633000
  H     26.239900   -1.420610  -112.991000
  H     27.327100    0.040124  -113.317000
  C     28.301500   -1.840580  -112.747000
  H     29.243900   -1.389470  -112.587000
  H     28.333000   -2.658050  -112.036000
  H     28.392700   -2.255690  -113.739000
  S     23.237700   -4.407680  -107.910000
  C     22.153000   -5.667200  -108.389000
  C     22.301200   -5.941430  -109.707000
  C     23.347700   -5.124560  -110.326000
  C     23.940600   -4.214520  -109.434000
  H     21.776000   -6.794730  -110.168000
  C     23.694100   -5.176110  -111.813000
  H     24.786800   -5.304090  -111.921000
  H     23.498700   -4.183550  -112.199000
  C     22.910500   -6.154160  -112.748000
  H     21.834800   -6.203060  -112.670000
  H     23.170100   -7.174930  -112.439000
  C     23.206000   -5.997840  -114.229000
  H     22.592900   -6.666960  -114.942000
  H     24.215800   -6.327160  -114.474000
  H     22.999200   -4.964040  -114.459000
  H     28.090600   -1.645690  -108.661000
  H     21.518900   -6.239880  -107.774000

 Total Charge           Charge          ....    0
 Multiplicity           Mult            ....    1
 Number of Electrons    NEL             ....  134
 Basis Dimension        Dim             ....  322

ORBITAL ENERGIES
----------------

  NO   OCC          E(Eh)            E(eV)
   0   2.0000     -88.971522     -2421.0382
   1   2.0000     -88.960142     -2420.7285
   2   2.0000     -10.330176      -281.0984
   3   2.0000     -10.323209      -280.9088
   4   2.0000     -10.316317      -280.7212
   5   2.0000     -10.308337      -280.5041
   6   2.0000     -10.308223      -280.5010
   7   2.0000     -10.307380      -280.4781
   8   2.0000     -10.304769      -280.4070
   9   2.0000     -10.304196      -280.3914
  10   2.0000     -10.295032      -280.1421
  11   2.0000     -10.294544      -280.1288
  12   2.0000     -10.292265      -280.0668
  13   2.0000     -10.286881      -279.9203
  14   2.0000     -10.283080      -279.8168
  15   2.0000     -10.270537      -279.4755
  16   2.0000      -8.086274      -220.0387
  17   2.0000      -8.076524      -219.7734
  18   2.0000      -6.044596      -164.4818
  19   2.0000      -6.040723      -164.3764
  20   2.0000      -6.037287      -164.2829
  21   2.0000      -6.034936      -164.2190
  22   2.0000      -6.030609      -164.1012
  23   2.0000      -6.027452      -164.0153
  24   2.0000      -1.011226       -27.5169
  25   2.0000      -0.988147       -26.8889
  26   2.0000      -0.905016       -24.6267
  27   2.0000      -0.902947       -24.5704
  28   2.0000      -0.870276       -23.6814
  29   2.0000      -0.853013       -23.2117
  30   2.0000      -0.845710       -23.0129
  31   2.0000      -0.817791       -22.2532
  32   2.0000      -0.781264       -21.2593
  33   2.0000      -0.767759       -20.8918
  34   2.0000      -0.707258       -19.2455
  35   2.0000      -0.701574       -19.0908
  36   2.0000      -0.695547       -18.9268
  37   2.0000      -0.652263       -17.7490
  38   2.0000      -0.642512       -17.4836
  39   2.0000      -0.624673       -16.9982
  40   2.0000      -0.595657       -16.2087
  41   2.0000      -0.567705       -15.4481
  42   2.0000      -0.565845       -15.3974
  43   2.0000      -0.545410       -14.8414
  44   2.0000      -0.537818       -14.6348
  45   2.0000      -0.523217       -14.2375
  46   2.0000      -0.517213       -14.0741
  47   2.0000      -0.513778       -13.9806
  48   2.0000      -0.501590       -13.6489
  49   2.0000      -0.496547       -13.5117
  50   2.0000      -0.483950       -13.1689
  51   2.0000      -0.480889       -13.0856
  52   2.0000      -0.469564       -12.7775
  53   2.0000      -0.464811       -12.6482
  54   2.0000      -0.462695       -12.5906
  55   2.0000      -0.452632       -12.3167
  56   2.0000      -0.449424       -12.2295
  57   2.0000      -0.439670       -11.9640
  58   2.0000      -0.426667       -11.6102
  59   2.0000      -0.423552       -11.5254
  60   2.0000      -0.421301       -11.4642
  61   2.0000      -0.417635       -11.3644
  62   2.0000      -0.414361       -11.2753
  63   2.0000      -0.349708        -9.5160
  64   2.0000      -0.333061        -9.0630
  65   2.0000      -0.324344        -8.8258
  66   2.0000      -0.292610        -7.9623
  67   0.0000       0.032570         0.8863
  68   0.0000       0.071400         1.9429
  69   0.0000       0.119173         3.2429
  70   0.0000       0.125471         3.4142
  71   0.0000       0.131042         3.5658

MULLIKEN ATOMIC CHARGES
-----------------------
   0 S :    0.134224
   1 C :   -0.127919
   2 C :   -0.068238
   3 C :   -0.000107
   4 C :   -0.143524
   5 H :    0.015876
   6 C :    0.053611
   7 H :    0.028741
   8 H :    0.042916
   9 C :   -0.077841
  10 H :    0.040878
  11 H :    0.053317
  12 C :   -0.044465
  13 H :    0.008875
  14 H :    0.037344
  15 H :    0.027965
  16 S :    0.098433
  17 C :   -0.056788
  18 C :   -0.051984
  19 C :   -0.054595
  20 C :   -0.155923
  21 H :    0.033238
  22 C :    0.056771
  23 H :    0.043862
  24 H :    0.022807
  25 C :   -0.083240
  26 H :    0.028260
  27 H :    0.018351
  28 C :   -0.057069
  29 H :    0.039591
  30 H :    0.031350
  31 H :    0.031848
  32 H :    0.038611
  33 H :    0.034824
Sum of atomic charges:    0.0000000

LOEWDIN ATOMIC CHARGES
----------------------
   0 S :    0.423513
   1 C :   -0.198729
   2 C :   -0.063377
   3 C :   -0.061135
   4 C :   -0.202412
   5 H :    0.031647
   6 C :   -0.035794
   7 H :    0.030150
   8 H :    0.040171
   9 C :   -0.038795
  10 H :    0.027844
  11 H :    0.036047
  12 C :   -0.070148
  13 H :    0.016900
  14 H :    0.027091
  15 H :    0.025235
  16 S :    0.437700
  17 C :   -0.189041
  18 C :   -0.077917
  19 C :   -0.056159
  20 C :   -0.221426
  21 H :    0.037784
  22 C :   -0.034095
  23 H :    0.039443
  24 H :    0.026937
  25 C :   -0.049932
  26 H :    0.022459
  27 H :    0.020653
  28 C :   -0.066674
  29 H :    0.036000
  30 H :    0.023063
  31 H :    0.021733
  32 H :    0.018185
  33 H :    0.023077

  Mayer bond orders larger than 0.100000
B(  0-S ,  1-C ) :   1.1719 B(  0-S ,  4-C ) :   1.1514 B(  1-C ,  2-C ) :   1.5522
B(  1-C ,  4-C ) :   0.1013 B(  1-C , 32-H ) :   0.9730 B(  2-C ,  3-C ) :   1.2695
B(  2-C ,  6-C ) :   1.0081 B(  3-C ,  4-C ) :   1.5638 B(  3-C ,  5-H ) :   0.9916
B(  4-C , 20-C ) :   1.0285 B(  6-C ,  7-H ) :   0.9494 B(  6-C ,  8-H ) :   0.9391
B(  6-C ,  9-C ) :   1.0543 B(  9-C , 10-H ) :   0.9587 B(  9-C , 11-H ) :   0.9575
B(  9-C , 12-C ) :   1.0657 B( 12-C , 13-H ) :   0.9742 B( 12-C , 14-H ) :   0.9765
B( 12-C , 15-H ) :   0.9750 B( 16-S , 17-C ) :   1.1617 B( 16-S , 20-C ) :   1.1617
B( 17-C , 18-C ) :   1.6024 B( 17-C , 33-H ) :   0.9683 B( 18-C , 19-C ) :   1.2598
B( 18-C , 21-H ) :   0.9838 B( 19-C , 20-C ) :   1.5804 B( 19-C , 22-C ) :   1.0271
B( 22-C , 23-H ) :   0.9298 B( 22-C , 24-H ) :   0.9430 B( 22-C , 25-C ) :   1.0641
B( 25-C , 26-H ) :   0.9547 B( 25-C , 27-H ) :   0.9501 B( 25-C , 28-C ) :   1.0846
B( 28-C , 29-H ) :   0.9730 B( 28-C , 30-H ) :   0.9761 B( 28-C , 31-H ) :   0.9759

Dispersion correction           -0.014002398
FINAL SINGLE POINT ENERGY     -1339.878168440199

DIPOLE MOMENT
-------------
                                X             Y             Z
Electronic contribution:     -4.31136      -1.26846      30.29851
Nuclear contribution   :      4.39755       1.30361     -30.88678
                        -----------------------------------------
Total Dipole Moment    :      0.08620       0.03516      -0.58827
                        -----------------------------------------
Magnitude (a.u.)       :      0.59559
Magnitude (Debye)      :      1.51387

Rotational constants in cm-1:     0.016171     0.009570     0.006478
Rotational constants in MHz :   484.790957   286.888035   194.201263

                             ****ORCA TERMINATED NORMALLY****
TOTAL RUN TIME: 0 days 0 hours 0 minutes 21 seconds 243 msec
