                         Program Version 4.2.1 -  RELEASE  -
|  1> ! wB97X-D3 SP def2-SVP
|  2> %pal
|  3> nprocs 24
|  4> end
|  5>
|  6> * xyz 0 1
|  7> S 	 -49.8145 	 17.2073 	 26.7755
|  8> C 	 -49.7918 	 17.1656 	 25.0316
|  9> C 	 -48.6574 	 17.7635 	 24.5137
| 10> C 	 -47.8889 	 18.4822 	 25.5353
| 11> C 	 -48.3096 	 18.1586 	 26.8008
| 12> H 	 -47.0005 	 19.042 	 25.3864
| 13> C 	 -48.5026 	 18.0326 	 22.9957
| 14> H 	 -48.9416 	 17.3741 	 22.4087
| 15> H 	 -47.4624 	 17.8645 	 22.7515
| 16> C 	 -49.0557 	 19.3931 	 22.4002
| 17> H 	 -48.7154 	 20.2662 	 23.0295
| 18> H 	 -48.4544 	 19.4983 	 21.5102
| 19> C 	 -50.5298 	 19.4082 	 22.0708
| 20> H 	 -51.125 	 19.0769 	 22.8922
| 21> H 	 -50.9827 	 20.3142 	 21.7368
| 22> H 	 -50.5397 	 18.5963 	 21.2543
| 23> S 	 -47.9768 	 20.328 	 28.3471
| 24> C 	 -47.2016 	 20.2452 	 29.9116
| 25> C 	 -46.6807 	 18.9764 	 30.0944
| 26> C 	 -47.0092 	 18.0418 	 29.0263
| 27> C 	 -47.7377 	 18.6898 	 28.0428
| 28> H 	 -46.1066 	 18.7588 	 31.0098
| 29> C 	 -46.6424 	 16.5531 	 29.1762
| 30> H 	 -45.5578 	 16.6025 	 29.1703
| 31> H 	 -46.9744 	 16.0667 	 28.2638
| 32> C 	 -47.0068 	 15.817 	 30.4609
| 33> H 	 -46.7614 	 16.4484 	 31.2903
| 34> H 	 -46.3838 	 14.9029 	 30.5732
| 35> C 	 -48.4751 	 15.2962 	 30.557
| 36> H 	 -49.166 	 16.0889 	 30.8492
| 37> H 	 -48.5671 	 14.5109 	 31.2707
| 38> H 	 -48.9099 	 14.9232 	 29.5814
| 39> H 	 -50.5152 	 16.6735 	 24.3952
| 40> H 	 -47.0886 	 21.0067 	 30.5982
| 41> *
| 42>
| 43>                          ****END OF INPUT****

CARTESIAN COORDINATES (ANGSTROEM)
---------------------------------
  S    -49.814500   17.207300   26.775500
  C    -49.791800   17.165600   25.031600
  C    -48.657400   17.763500   24.513700
  C    -47.888900   18.482200   25.535300
  C    -48.309600   18.158600   26.800800
  H    -47.000500   19.042000   25.386400
  C    -48.502600   18.032600   22.995700
  H    -48.941600   17.374100   22.408700
  H    -47.462400   17.864500   22.751500
  C    -49.055700   19.393100   22.400200
  H    -48.715400   20.266200   23.029500
  H    -48.454400   19.498300   21.510200
  C    -50.529800   19.408200   22.070800
  H    -51.125000   19.076900   22.892200
  H    -50.982700   20.314200   21.736800
  H    -50.539700   18.596300   21.254300
  S    -47.976800   20.328000   28.347100
  C    -47.201600   20.245200   29.911600
  C    -46.680700   18.976400   30.094400
  C    -47.009200   18.041800   29.026300
  C    -47.737700   18.689800   28.042800
  H    -46.106600   18.758800   31.009800
  C    -46.642400   16.553100   29.176200
  H    -45.557800   16.602500   29.170300
  H    -46.974400   16.066700   28.263800
  C    -47.006800   15.817000   30.460900
  H    -46.761400   16.448400   31.290300
  H    -46.383800   14.902900   30.573200
  C    -48.475100   15.296200   30.557000
  H    -49.166000   16.088900   30.849200
  H    -48.567100   14.510900   31.270700
  H    -48.909900   14.923200   29.581400
  H    -50.515200   16.673500   24.395200
  H    -47.088600   21.006700   30.598200

 Total Charge           Charge          ....    0
 Multiplicity           Mult            ....    1
 Number of Electrons    NEL             ....  134
 Basis Dimension        Dim             ....  322

ORBITAL ENERGIES
----------------

  NO   OCC          E(Eh)            E(eV)
   0   2.0000     -88.966689     -2420.9067
   1   2.0000     -88.963941     -2420.8319
   2   2.0000     -10.329892      -281.0907
   3   2.0000     -10.320302      -280.8297
   4   2.0000     -10.314548      -280.6731
   5   2.0000     -10.310888      -280.5735
   6   2.0000     -10.304804      -280.4080
   7   2.0000     -10.304126      -280.3895
   8   2.0000     -10.295844      -280.1642
   9   2.0000     -10.295528      -280.1556
  10   2.0000     -10.290611      -280.0218
  11   2.0000     -10.289228      -279.9841
  12   2.0000     -10.288650      -279.9684
  13   2.0000     -10.284477      -279.8548
  14   2.0000     -10.279760      -279.7265
  15   2.0000     -10.274766      -279.5906
  16   2.0000      -8.080879      -219.8919
  17   2.0000      -8.079890      -219.8650
  18   2.0000      -6.039467      -164.3423
  19   2.0000      -6.038363      -164.3122
  20   2.0000      -6.035486      -164.2339
  21   2.0000      -6.034130      -164.1970
  22   2.0000      -6.031563      -164.1272
  23   2.0000      -6.030695      -164.1036
  24   2.0000      -1.008411       -27.4403
  25   2.0000      -0.982051       -26.7230
  26   2.0000      -0.906878       -24.6774
  27   2.0000      -0.904482       -24.6122
  28   2.0000      -0.870331       -23.6829
  29   2.0000      -0.846363       -23.0307
  30   2.0000      -0.842701       -22.9311
  31   2.0000      -0.816831       -22.2271
  32   2.0000      -0.784767       -21.3546
  33   2.0000      -0.774324       -21.0704
  34   2.0000      -0.706145       -19.2152
  35   2.0000      -0.699255       -19.0277
  36   2.0000      -0.691564       -18.8184
  37   2.0000      -0.660184       -17.9645
  38   2.0000      -0.643668       -17.5151
  39   2.0000      -0.618991       -16.8436
  40   2.0000      -0.594928       -16.1888
  41   2.0000      -0.567991       -15.4558
  42   2.0000      -0.552062       -15.0224
  43   2.0000      -0.548882       -14.9358
  44   2.0000      -0.540104       -14.6970
  45   2.0000      -0.537561       -14.6278
  46   2.0000      -0.518103       -14.0983
  47   2.0000      -0.510228       -13.8840
  48   2.0000      -0.498482       -13.5644
  49   2.0000      -0.496035       -13.4978
  50   2.0000      -0.492512       -13.4019
  51   2.0000      -0.478468       -13.0198
  52   2.0000      -0.471621       -12.8335
  53   2.0000      -0.460964       -12.5435
  54   2.0000      -0.456361       -12.4182
  55   2.0000      -0.449253       -12.2248
  56   2.0000      -0.443741       -12.0748
  57   2.0000      -0.438873       -11.9423
  58   2.0000      -0.434542       -11.8245
  59   2.0000      -0.430272       -11.7083
  60   2.0000      -0.416357       -11.3297
  61   2.0000      -0.409604       -11.1459
  62   2.0000      -0.408267       -11.1095
  63   2.0000      -0.338212        -9.2032
  64   2.0000      -0.333839        -9.0842
  65   2.0000      -0.320814        -8.7298
  66   2.0000      -0.305904        -8.3241
  67   0.0000       0.047791         1.3005
  68   0.0000       0.060569         1.6482
  69   0.0000       0.110018         2.9937
  70   0.0000       0.117234         3.1901
  71   0.0000       0.132336         3.6011

MULLIKEN ATOMIC CHARGES
-----------------------
   0 S :    0.115974
   1 C :   -0.117797
   2 C :   -0.083889
   3 C :    0.039549
   4 C :   -0.158530
   5 H :    0.012377
   6 C :    0.106525
   7 H :   -0.037725
   8 H :    0.019198
   9 C :   -0.076668
  10 H :    0.030495
  11 H :    0.023563
  12 C :   -0.040791
  13 H :    0.032100
  14 H :    0.039721
  15 H :    0.029766
  16 S :    0.129129
  17 C :   -0.068631
  18 C :   -0.061892
  19 C :   -0.028575
  20 C :   -0.195135
  21 H :    0.030865
  22 C :    0.098776
  23 H :    0.029354
  24 H :    0.024807
  25 C :   -0.062360
  26 H :    0.021087
  27 H :    0.034339
  28 C :   -0.062361
  29 H :    0.036228
  30 H :    0.027366
  31 H :    0.035345
  32 H :    0.051776
  33 H :    0.026015
Sum of atomic charges:    0.0000000

LOEWDIN ATOMIC CHARGES
----------------------
   0 S :    0.392833
   1 C :   -0.195865
   2 C :   -0.060788
   3 C :   -0.050901
   4 C :   -0.185244
   5 H :    0.029302
   6 C :   -0.021629
   7 H :    0.004635
   8 H :    0.031915
   9 C :   -0.038920
  10 H :    0.022973
  11 H :    0.021989
  12 C :   -0.064555
  13 H :    0.021920
  14 H :    0.025401
  15 H :    0.034366
  16 S :    0.440402
  17 C :   -0.180513
  18 C :   -0.070965
  19 C :   -0.056564
  20 C :   -0.230339
  21 H :    0.032811
  22 C :   -0.028905
  23 H :    0.037464
  24 H :    0.027853
  25 C :   -0.038777
  26 H :    0.020026
  27 H :    0.030791
  28 C :   -0.070207
  29 H :    0.025774
  30 H :    0.019566
  31 H :    0.030509
  32 H :    0.029081
  33 H :    0.014559

  Mayer bond orders larger than 0.100000
B(  0-S ,  1-C ) :   1.1311 B(  0-S ,  4-C ) :   1.1319 B(  1-C ,  2-C ) :   1.6368
B(  1-C , 32-H ) :   0.9648 B(  2-C ,  3-C ) :   1.1937 B(  2-C ,  6-C ) :   1.0461
B(  3-C ,  4-C ) :   1.6235 B(  3-C ,  5-H ) :   0.9970 B(  4-C , 20-C ) :   1.0011
B(  6-C ,  7-H ) :   0.9327 B(  6-C ,  8-H ) :   0.9365 B(  6-C ,  9-C ) :   1.0474
B(  9-C , 10-H ) :   0.9578 B(  9-C , 11-H ) :   0.9580 B(  9-C , 12-C ) :   1.0671
B( 12-C , 13-H ) :   0.9764 B( 12-C , 14-H ) :   0.9744 B( 12-C , 15-H ) :   0.9745
B( 16-S , 17-C ) :   1.1492 B( 16-S , 20-C ) :   1.1702 B( 17-C , 18-C ) :   1.6193
B( 17-C , 33-H ) :   0.9798 B( 18-C , 19-C ) :   1.2267 B( 18-C , 21-H ) :   0.9817
B( 19-C , 20-C ) :   1.5953 B( 19-C , 22-C ) :   1.0362 B( 22-C , 23-H ) :   0.9239
B( 22-C , 24-H ) :   0.9362 B( 22-C , 25-C ) :   1.0798 B( 25-C , 26-H ) :   0.9518
B( 25-C , 27-H ) :   0.9561 B( 25-C , 28-C ) :   1.0667 B( 28-C , 29-H ) :   0.9781
B( 28-C , 30-H ) :   0.9773 B( 28-C , 31-H ) :   0.9761

Dispersion correction           -0.014506138
FINAL SINGLE POINT ENERGY     -1339.866973346256

DIPOLE MOMENT
-------------
                                X             Y             Z
Electronic contribution:     -0.27472       8.48366       8.18550
Nuclear contribution   :      0.54157      -8.58073      -8.32323
                        -----------------------------------------
Total Dipole Moment    :      0.26685      -0.09707      -0.13773
                        -----------------------------------------
Magnitude (a.u.)       :      0.31559
Magnitude (Debye)      :      0.80217

Rotational constants in cm-1:     0.023927     0.007602     0.006438
Rotational constants in MHz :   717.303084   227.910916   193.019239

                             ****ORCA TERMINATED NORMALLY****
TOTAL RUN TIME: 0 days 0 hours 0 minutes 20 seconds 20 msec
