                         Program Version 4.2.1 -  RELEASE  -
|  1> ! wB97X-D3 SP def2-SVP
|  2> %pal
|  3> nprocs 24
|  4> end
|  5>
|  6> * xyz 0 1
|  7> S 	 -79.614 	 -6.44961 	 -61.2733
|  8> C 	 -78.8727 	 -7.31932 	 -59.9794
|  9> C 	 -79.4755 	 -6.99598 	 -58.7624
| 10> C 	 -80.545 	 -6.09172 	 -58.9491
| 11> C 	 -80.7799 	 -5.68615 	 -60.2556
| 12> H 	 -81.3097 	 -5.77787 	 -58.2955
| 13> C 	 -79.1926 	 -7.61376 	 -57.3986
| 14> H 	 -78.6358 	 -6.89874 	 -56.8225
| 15> H 	 -78.486 	 -8.36978 	 -57.5407
| 16> C 	 -80.3956 	 -8.35939 	 -56.7546
| 17> H 	 -81.0933 	 -7.48423 	 -56.5991
| 18> H 	 -80.8954 	 -8.99093 	 -57.4446
| 19> C 	 -79.9737 	 -9.11538 	 -55.4688
| 20> H 	 -79.1363 	 -8.62408 	 -54.9968
| 21> H 	 -80.7244 	 -9.20497 	 -54.697
| 22> H 	 -79.8238 	 -10.1092 	 -55.8261
| 23> S 	 -81.0683 	 -3.13022 	 -61.1696
| 24> C 	 -82.7431 	 -2.62369 	 -61.4196
| 25> C 	 -83.653 	 -3.59506 	 -61.2636
| 26> C 	 -82.9996 	 -4.87762 	 -61.0759
| 27> C 	 -81.7052 	 -4.75182 	 -60.7503
| 28> H 	 -84.7327 	 -3.5542 	 -61.2923
| 29> C 	 -83.7604 	 -6.12966 	 -60.8859
| 30> H 	 -84.8126 	 -5.9453 	 -60.7279
| 31> H 	 -83.3961 	 -6.57859 	 -59.8961
| 32> C 	 -83.7082 	 -7.18218 	 -61.9879
| 33> H 	 -82.6823 	 -7.4433 	 -62.1956
| 34> H 	 -84.036 	 -6.70962 	 -62.963
| 35> C 	 -84.4126 	 -8.58861 	 -61.7406
| 36> H 	 -83.9668 	 -9.43257 	 -62.3086
| 37> H 	 -85.4876 	 -8.56719 	 -61.7101
| 38> H 	 -84.2045 	 -8.87562 	 -60.6751
| 39> H 	 -78.1456 	 -8.14458 	 -59.9334
| 40> H 	 -82.9986 	 -1.56052 	 -61.5804
| 41> *
| 42>
| 43>                          ****END OF INPUT****

CARTESIAN COORDINATES (ANGSTROEM)
---------------------------------
  S    -79.614000   -6.449610  -61.273300
  C    -78.872700   -7.319320  -59.979400
  C    -79.475500   -6.995980  -58.762400
  C    -80.545000   -6.091720  -58.949100
  C    -80.779900   -5.686150  -60.255600
  H    -81.309700   -5.777870  -58.295500
  C    -79.192600   -7.613760  -57.398600
  H    -78.635800   -6.898740  -56.822500
  H    -78.486000   -8.369780  -57.540700
  C    -80.395600   -8.359390  -56.754600
  H    -81.093300   -7.484230  -56.599100
  H    -80.895400   -8.990930  -57.444600
  C    -79.973700   -9.115380  -55.468800
  H    -79.136300   -8.624080  -54.996800
  H    -80.724400   -9.204970  -54.697000
  H    -79.823800  -10.109200  -55.826100
  S    -81.068300   -3.130220  -61.169600
  C    -82.743100   -2.623690  -61.419600
  C    -83.653000   -3.595060  -61.263600
  C    -82.999600   -4.877620  -61.075900
  C    -81.705200   -4.751820  -60.750300
  H    -84.732700   -3.554200  -61.292300
  C    -83.760400   -6.129660  -60.885900
  H    -84.812600   -5.945300  -60.727900
  H    -83.396100   -6.578590  -59.896100
  C    -83.708200   -7.182180  -61.987900
  H    -82.682300   -7.443300  -62.195600
  H    -84.036000   -6.709620  -62.963000
  C    -84.412600   -8.588610  -61.740600
  H    -83.966800   -9.432570  -62.308600
  H    -85.487600   -8.567190  -61.710100
  H    -84.204500   -8.875620  -60.675100
  H    -78.145600   -8.144580  -59.933400
  H    -82.998600   -1.560520  -61.580400

 Total Charge           Charge          ....    0
 Multiplicity           Mult            ....    1
 Number of Electrons    NEL             ....  134
 Basis Dimension        Dim             ....  322

ORBITAL ENERGIES
----------------

  NO   OCC          E(Eh)            E(eV)
   0   2.0000     -88.967230     -2420.9214
   1   2.0000     -88.962246     -2420.7858
   2   2.0000     -10.320132      -280.8251
   3   2.0000     -10.318994      -280.7941
   4   2.0000     -10.318834      -280.7898
   5   2.0000     -10.314467      -280.6709
   6   2.0000     -10.299210      -280.2557
   7   2.0000     -10.298468      -280.2356
   8   2.0000     -10.293562      -280.1021
   9   2.0000     -10.291840      -280.0552
  10   2.0000     -10.291126      -280.0358
  11   2.0000     -10.289264      -279.9851
  12   2.0000     -10.287119      -279.9267
  13   2.0000     -10.286782      -279.9176
  14   2.0000     -10.284924      -279.8670
  15   2.0000     -10.278503      -279.6923
  16   2.0000      -8.082136      -219.9261
  17   2.0000      -8.076792      -219.7807
  18   2.0000      -6.040554      -164.3718
  19   2.0000      -6.036361      -164.2577
  20   2.0000      -6.035400      -164.2316
  21   2.0000      -6.033215      -164.1721
  22   2.0000      -6.031631      -164.1290
  23   2.0000      -6.027135      -164.0067
  24   2.0000      -1.013251       -27.5720
  25   2.0000      -0.987552       -26.8727
  26   2.0000      -0.912876       -24.8406
  27   2.0000      -0.904966       -24.6254
  28   2.0000      -0.875958       -23.8360
  29   2.0000      -0.849190       -23.1076
  30   2.0000      -0.845372       -23.0037
  31   2.0000      -0.816951       -22.2304
  32   2.0000      -0.785256       -21.3679
  33   2.0000      -0.772396       -21.0180
  34   2.0000      -0.714898       -19.4534
  35   2.0000      -0.700765       -19.0688
  36   2.0000      -0.691310       -18.8115
  37   2.0000      -0.668155       -18.1814
  38   2.0000      -0.647346       -17.6152
  39   2.0000      -0.616618       -16.7790
  40   2.0000      -0.599797       -16.3213
  41   2.0000      -0.573061       -15.5938
  42   2.0000      -0.561879       -15.2895
  43   2.0000      -0.554031       -15.0759
  44   2.0000      -0.530793       -14.4436
  45   2.0000      -0.523717       -14.2511
  46   2.0000      -0.520486       -14.1631
  47   2.0000      -0.508711       -13.8427
  48   2.0000      -0.500107       -13.6086
  49   2.0000      -0.496788       -13.5183
  50   2.0000      -0.494984       -13.4692
  51   2.0000      -0.487710       -13.2713
  52   2.0000      -0.466015       -12.6809
  53   2.0000      -0.463464       -12.6115
  54   2.0000      -0.462557       -12.5868
  55   2.0000      -0.451519       -12.2865
  56   2.0000      -0.450597       -12.2614
  57   2.0000      -0.442893       -12.0517
  58   2.0000      -0.429276       -11.6812
  59   2.0000      -0.423415       -11.5217
  60   2.0000      -0.421492       -11.4694
  61   2.0000      -0.410114       -11.1598
  62   2.0000      -0.402045       -10.9402
  63   2.0000      -0.336922        -9.1681
  64   2.0000      -0.328849        -8.9484
  65   2.0000      -0.327347        -8.9076
  66   2.0000      -0.306585        -8.3426
  67   0.0000       0.044879         1.2212
  68   0.0000       0.050631         1.3777
  69   0.0000       0.110539         3.0079
  70   0.0000       0.122634         3.3370
  71   0.0000       0.130121         3.5408

MULLIKEN ATOMIC CHARGES
-----------------------
   0 S :    0.134614
   1 C :   -0.103177
   2 C :   -0.126087
   3 C :    0.068593
   4 C :   -0.208519
   5 H :   -0.006221
   6 C :    0.108411
   7 H :    0.038517
   8 H :   -0.018531
   9 C :   -0.101792
  10 H :    0.035572
  11 H :    0.029687
  12 C :   -0.019940
  13 H :    0.036863
  14 H :    0.029736
  15 H :    0.034977
  16 S :    0.103528
  17 C :   -0.079487
  18 C :   -0.009032
  19 C :   -0.008669
  20 C :   -0.184701
  21 H :    0.019724
  22 C :    0.050523
  23 H :    0.009149
  24 H :    0.034764
  25 C :   -0.075803
  26 H :    0.019798
  27 H :    0.031609
  28 C :   -0.057563
  29 H :    0.051407
  30 H :    0.032035
  31 H :    0.016613
  32 H :    0.048476
  33 H :    0.064926
Sum of atomic charges:   -0.0000000

LOEWDIN ATOMIC CHARGES
----------------------
   0 S :    0.436181
   1 C :   -0.215486
   2 C :   -0.064743
   3 C :   -0.057428
   4 C :   -0.211266
   5 H :    0.023312
   6 C :   -0.029246
   7 H :    0.032979
   8 H :    0.015406
   9 C :   -0.034991
  10 H :    0.024200
  11 H :    0.020483
  12 C :   -0.060421
  13 H :    0.027274
  14 H :    0.026700
  15 H :    0.027757
  16 S :    0.371486
  17 C :   -0.168755
  18 C :   -0.066118
  19 C :   -0.048852
  20 C :   -0.188179
  21 H :    0.033517
  22 C :   -0.040140
  23 H :    0.024301
  24 H :    0.039804
  25 C :   -0.043876
  26 H :    0.018023
  27 H :    0.027438
  28 C :   -0.073491
  29 H :    0.035221
  30 H :    0.019728
  31 H :    0.028335
  32 H :    0.037446
  33 H :    0.033400

  Mayer bond orders larger than 0.100000
B(  0-S ,  1-C ) :   1.1542 B(  0-S ,  4-C ) :   1.1589 B(  1-C ,  2-C ) :   1.5990
B(  1-C ,  4-C ) :   0.1082 B(  1-C , 32-H ) :   0.9588 B(  2-C ,  3-C ) :   1.2460
B(  2-C ,  6-C ) :   1.0246 B(  3-C ,  4-C ) :   1.5789 B(  3-C ,  5-H ) :   0.9950
B(  4-C , 20-C ) :   1.0454 B(  6-C ,  7-H ) :   0.9328 B(  6-C ,  8-H ) :   0.9314
B(  6-C ,  9-C ) :   1.0476 B(  9-C , 10-H ) :   0.9599 B(  9-C , 11-H ) :   0.9654
B(  9-C , 12-C ) :   1.0629 B( 12-C , 13-H ) :   0.9772 B( 12-C , 14-H ) :   0.9753
B( 12-C , 15-H ) :   0.9778 B( 16-S , 17-C ) :   1.1279 B( 16-S , 20-C ) :   1.1021
B( 17-C , 18-C ) :   1.6647 B( 17-C , 33-H ) :   0.9597 B( 18-C , 19-C ) :   1.1822
B( 18-C , 21-H ) :   0.9894 B( 19-C , 20-C ) :   1.6693 B( 19-C , 22-C ) :   1.0564
B( 22-C , 23-H ) :   0.9336 B( 22-C , 24-H ) :   0.9255 B( 22-C , 25-C ) :   1.0609
B( 25-C , 26-H ) :   0.9564 B( 25-C , 27-H ) :   0.9531 B( 25-C , 28-C ) :   1.0676
B( 28-C , 29-H ) :   0.9776 B( 28-C , 30-H ) :   0.9777 B( 28-C , 31-H ) :   0.9715

Dispersion correction           -0.014333548
FINAL SINGLE POINT ENERGY     -1339.856861152626

DIPOLE MOMENT
-------------
                                X             Y             Z
Electronic contribution:     10.27137      22.02973     -14.77943
Nuclear contribution   :    -10.66535     -22.43133      15.28131
                        -----------------------------------------
Total Dipole Moment    :     -0.39398      -0.40160       0.50188
                        -----------------------------------------
Magnitude (a.u.)       :      0.75391
Magnitude (Debye)      :      1.91630

Rotational constants in cm-1:     0.017614     0.008530     0.007215
Rotational constants in MHz :   528.047830   255.724989   216.313717

                             ****ORCA TERMINATED NORMALLY****
TOTAL RUN TIME: 0 days 0 hours 0 minutes 20 seconds 446 msec
