                         Program Version 4.2.1 -  RELEASE  -
|  1> ! wB97X-D3 SP def2-SVP
|  2> %pal
|  3> nprocs 24
|  4> end
|  5>
|  6> * xyz 0 1
|  7> S 	 -122.558 	 66.6952 	 -42.2796
|  8> C 	 -123.339 	 68.2433 	 -41.9224
|  9> C 	 -122.545 	 69.2772 	 -42.4013
| 10> C 	 -121.479 	 68.9089 	 -43.214
| 11> C 	 -121.496 	 67.537 	 -43.3562
| 12> H 	 -120.734 	 69.6095 	 -43.7019
| 13> C 	 -122.841 	 70.7244 	 -42.0449
| 14> H 	 -123.717 	 70.9685 	 -42.6037
| 15> H 	 -122.093 	 71.3241 	 -42.5477
| 16> C 	 -122.89 	 71.1721 	 -40.5599
| 17> H 	 -123.646 	 70.6386 	 -39.9843
| 18> H 	 -122.045 	 70.7482 	 -40.0942
| 19> C 	 -122.765 	 72.7206 	 -40.4133
| 20> H 	 -123.103 	 73.0376 	 -39.409
| 21> H 	 -121.732 	 72.9624 	 -40.5631
| 22> H 	 -123.249 	 73.2917 	 -41.1207
| 23> S 	 -119.44 	 65.7835 	 -43.1943
| 24> C 	 -118.42 	 65.4755 	 -44.538
| 25> C 	 -118.858 	 66.1676 	 -45.6604
| 26> C 	 -119.934 	 67.03 	 -45.4066
| 27> C 	 -120.45 	 66.9004 	 -44.1294
| 28> H 	 -118.319 	 66.155 	 -46.5881
| 29> C 	 -120.478 	 67.8791 	 -46.6076
| 30> H 	 -121.35 	 68.4503 	 -46.2773
| 31> H 	 -120.876 	 67.2231 	 -47.4125
| 32> C 	 -119.61 	 68.9473 	 -47.1703
| 33> H 	 -120.077 	 69.2653 	 -48.1126
| 34> H 	 -118.76 	 68.4789 	 -47.4377
| 35> C 	 -119.326 	 70.0981 	 -46.1802
| 36> H 	 -118.85 	 69.7302 	 -45.3414
| 37> H 	 -120.251 	 70.5723 	 -45.896
| 38> H 	 -118.747 	 70.8706 	 -46.6419
| 39> H 	 -124.154 	 68.3296 	 -41.2839
| 40> H 	 -117.474 	 64.8488 	 -44.5252
| 41> *
| 42>
| 43>                          ****END OF INPUT****

CARTESIAN COORDINATES (ANGSTROEM)
---------------------------------
  S    -122.558000   66.695200  -42.279600
  C    -123.339000   68.243300  -41.922400
  C    -122.545000   69.277200  -42.401300
  C    -121.479000   68.908900  -43.214000
  C    -121.496000   67.537000  -43.356200
  H    -120.734000   69.609500  -43.701900
  C    -122.841000   70.724400  -42.044900
  H    -123.717000   70.968500  -42.603700
  H    -122.093000   71.324100  -42.547700
  C    -122.890000   71.172100  -40.559900
  H    -123.646000   70.638600  -39.984300
  H    -122.045000   70.748200  -40.094200
  C    -122.765000   72.720600  -40.413300
  H    -123.103000   73.037600  -39.409000
  H    -121.732000   72.962400  -40.563100
  H    -123.249000   73.291700  -41.120700
  S    -119.440000   65.783500  -43.194300
  C    -118.420000   65.475500  -44.538000
  C    -118.858000   66.167600  -45.660400
  C    -119.934000   67.030000  -45.406600
  C    -120.450000   66.900400  -44.129400
  H    -118.319000   66.155000  -46.588100
  C    -120.478000   67.879100  -46.607600
  H    -121.350000   68.450300  -46.277300
  H    -120.876000   67.223100  -47.412500
  C    -119.610000   68.947300  -47.170300
  H    -120.077000   69.265300  -48.112600
  H    -118.760000   68.478900  -47.437700
  C    -119.326000   70.098100  -46.180200
  H    -118.850000   69.730200  -45.341400
  H    -120.251000   70.572300  -45.896000
  H    -118.747000   70.870600  -46.641900
  H    -124.154000   68.329600  -41.283900
  H    -117.474000   64.848800  -44.525200

 Total Charge           Charge          ....    0
 Multiplicity           Mult            ....    1
 Number of Electrons    NEL             ....  134
 Basis Dimension        Dim             ....  322

ORBITAL ENERGIES
----------------

  NO   OCC          E(Eh)            E(eV)
   0   2.0000     -88.970730     -2421.0166
   1   2.0000     -88.963183     -2420.8113
   2   2.0000     -10.327098      -281.0146
   3   2.0000     -10.325437      -280.9694
   4   2.0000     -10.318392      -280.7777
   5   2.0000     -10.307899      -280.4922
   6   2.0000     -10.301649      -280.3221
   7   2.0000     -10.297027      -280.1964
   8   2.0000     -10.294287      -280.1218
   9   2.0000     -10.289190      -279.9831
  10   2.0000     -10.287658      -279.9414
  11   2.0000     -10.285263      -279.8762
  12   2.0000     -10.285138      -279.8728
  13   2.0000     -10.275844      -279.6199
  14   2.0000     -10.275476      -279.6099
  15   2.0000     -10.270797      -279.4826
  16   2.0000      -8.085271      -220.0114
  17   2.0000      -8.078392      -219.8242
  18   2.0000      -6.043712      -164.4578
  19   2.0000      -6.039968      -164.3559
  20   2.0000      -6.036828      -164.2704
  21   2.0000      -6.035972      -164.2472
  22   2.0000      -6.032720      -164.1586
  23   2.0000      -6.029313      -164.0659
  24   2.0000      -1.011286       -27.5185
  25   2.0000      -0.986943       -26.8561
  26   2.0000      -0.915506       -24.9122
  27   2.0000      -0.908037       -24.7089
  28   2.0000      -0.867732       -23.6122
  29   2.0000      -0.855990       -23.2927
  30   2.0000      -0.847837       -23.0708
  31   2.0000      -0.810419       -22.0526
  32   2.0000      -0.788087       -21.4449
  33   2.0000      -0.773621       -21.0513
  34   2.0000      -0.717287       -19.5184
  35   2.0000      -0.708443       -19.2777
  36   2.0000      -0.693263       -18.8647
  37   2.0000      -0.659441       -17.9443
  38   2.0000      -0.640699       -17.4343
  39   2.0000      -0.617407       -16.8005
  40   2.0000      -0.598870       -16.2961
  41   2.0000      -0.564875       -15.3710
  42   2.0000      -0.557784       -15.1781
  43   2.0000      -0.553777       -15.0690
  44   2.0000      -0.545182       -14.8351
  45   2.0000      -0.525004       -14.2861
  46   2.0000      -0.517976       -14.0948
  47   2.0000      -0.510673       -13.8961
  48   2.0000      -0.506976       -13.7955
  49   2.0000      -0.495824       -13.4921
  50   2.0000      -0.492234       -13.3944
  51   2.0000      -0.481121       -13.0920
  52   2.0000      -0.474706       -12.9174
  53   2.0000      -0.468777       -12.7561
  54   2.0000      -0.465647       -12.6709
  55   2.0000      -0.452464       -12.3122
  56   2.0000      -0.448339       -12.1999
  57   2.0000      -0.439689       -11.9646
  58   2.0000      -0.439215       -11.9517
  59   2.0000      -0.421952       -11.4819
  60   2.0000      -0.418457       -11.3868
  61   2.0000      -0.415616       -11.3095
  62   2.0000      -0.410819       -11.1790
  63   2.0000      -0.344551        -9.3757
  64   2.0000      -0.334409        -9.0997
  65   2.0000      -0.332967        -9.0605
  66   2.0000      -0.286821        -7.8048
  67   0.0000       0.029089         0.7916
  68   0.0000       0.065431         1.7805
  69   0.0000       0.105605         2.8737
  70   0.0000       0.127996         3.4829
  71   0.0000       0.134323         3.6551

MULLIKEN ATOMIC CHARGES
-----------------------
   0 S :    0.117555
   1 C :   -0.099920
   2 C :   -0.083228
   3 C :   -0.001503
   4 C :   -0.125454
   5 H :    0.034276
   6 C :    0.076129
   7 H :    0.030858
   8 H :   -0.004835
   9 C :   -0.047843
  10 H :    0.021659
  11 H :    0.014812
  12 C :   -0.020472
  13 H :    0.039352
  14 H :    0.026490
  15 H :    0.015147
  16 S :    0.100257
  17 C :   -0.110876
  18 C :   -0.037043
  19 C :   -0.033184
  20 C :   -0.173018
  21 H :    0.013780
  22 C :    0.029961
  23 H :    0.009502
  24 H :    0.044463
  25 C :   -0.017739
  26 H :    0.025489
  27 H :   -0.012710
  28 C :   -0.022544
  29 H :    0.038137
  30 H :    0.021826
  31 H :    0.029056
  32 H :    0.021232
  33 H :    0.080387
Sum of atomic charges:    0.0000000

LOEWDIN ATOMIC CHARGES
----------------------
   0 S :    0.411737
   1 C :   -0.187170
   2 C :   -0.057276
   3 C :   -0.067771
   4 C :   -0.196340
   5 H :    0.048112
   6 C :   -0.032909
   7 H :    0.029922
   8 H :    0.023641
   9 C :   -0.037885
  10 H :    0.020535
  11 H :    0.021433
  12 C :   -0.053992
  13 H :    0.032708
  14 H :    0.026551
  15 H :    0.012692
  16 S :    0.409402
  17 C :   -0.207390
  18 C :   -0.077043
  19 C :   -0.064659
  20 C :   -0.185012
  21 H :    0.027710
  22 C :   -0.031318
  23 H :    0.024992
  24 H :    0.037291
  25 C :   -0.031688
  26 H :    0.029661
  27 H :    0.002345
  28 C :   -0.050372
  29 H :    0.017399
  30 H :    0.021551
  31 H :    0.026618
  32 H :    0.011919
  33 H :    0.044606

  Mayer bond orders larger than 0.100000
B(  0-S ,  1-C ) :   1.1200 B(  0-S ,  4-C ) :   1.1770 B(  1-C ,  2-C ) :   1.5777
B(  1-C ,  4-C ) :   0.1010 B(  1-C , 32-H ) :   0.9871 B(  2-C ,  3-C ) :   1.2774
B(  2-C ,  6-C ) :   1.0147 B(  3-C ,  4-C ) :   1.5214 B(  3-C ,  5-H ) :   0.9809
B(  4-C , 20-C ) :   1.0364 B(  6-C ,  7-H ) :   0.9296 B(  6-C ,  8-H ) :   0.9424
B(  6-C ,  9-C ) :   1.0519 B(  9-C , 10-H ) :   0.9590 B(  9-C , 11-H ) :   0.9574
B(  9-C , 12-C ) :   1.0667 B( 12-C , 13-H ) :   0.9759 B( 12-C , 14-H ) :   0.9756
B( 12-C , 15-H ) :   0.9808 B( 16-S , 17-C ) :   1.1680 B( 16-S , 20-C ) :   1.1474
B( 17-C , 18-C ) :   1.5833 B( 17-C , 20-C ) :   0.1047 B( 17-C , 33-H ) :   0.9587
B( 18-C , 19-C ) :   1.2589 B( 18-C , 21-H ) :   0.9908 B( 19-C , 20-C ) :   1.6045
B( 19-C , 22-C ) :   1.0263 B( 22-C , 23-H ) :   0.9377 B( 22-C , 24-H ) :   0.9436
B( 22-C , 25-C ) :   1.0780 B( 25-C , 26-H ) :   0.9489 B( 25-C , 27-H ) :   0.9517
B( 25-C , 28-C ) :   1.0769 B( 28-C , 29-H ) :   0.9715 B( 28-C , 30-H ) :   0.9701
B( 28-C , 31-H ) :   0.9690

Dispersion correction           -0.014510923
FINAL SINGLE POINT ENERGY     -1339.857287200654

DIPOLE MOMENT
-------------
                                X             Y             Z
Electronic contribution:      0.84721     -28.02886       5.08737
Nuclear contribution   :     -0.68097      28.65152      -5.30924
                        -----------------------------------------
Total Dipole Moment    :      0.16624       0.62266      -0.22187
                        -----------------------------------------
Magnitude (a.u.)       :      0.68159
Magnitude (Debye)      :      1.73247

Rotational constants in cm-1:     0.019453     0.008395     0.006615
Rotational constants in MHz :   583.184748   251.685444   198.323390

                             ****ORCA TERMINATED NORMALLY****
TOTAL RUN TIME: 0 days 0 hours 0 minutes 20 seconds 510 msec
