                         Program Version 4.2.1 -  RELEASE  -
|  1> ! wB97X-D3 SP def2-SVP
|  2> %pal
|  3> nprocs 24
|  4> end
|  5>
|  6> * xyz 0 1
|  7> S 	 -64.9322 	 -51.5076 	 -83.6514
|  8> C 	 -63.2835 	 -51.7366 	 -84.1868
|  9> C 	 -62.4172 	 -50.9243 	 -83.5338
| 10> C 	 -63.0887 	 -50.2754 	 -82.4257
| 11> C 	 -64.4675 	 -50.4873 	 -82.3864
| 12> H 	 -62.6843 	 -49.6316 	 -81.752
| 13> C 	 -60.9101 	 -50.8236 	 -83.7221
| 14> H 	 -60.7297 	 -49.7779 	 -83.9846
| 15> H 	 -60.5052 	 -51.5924 	 -84.3908
| 16> C 	 -60.2335 	 -51.077 	 -82.3946
| 17> H 	 -59.16 	 -50.9038 	 -82.5327
| 18> H 	 -60.5143 	 -50.4154 	 -81.6727
| 19> C 	 -60.2376 	 -52.5452 	 -81.9016
| 20> H 	 -59.8179 	 -53.2304 	 -82.6194
| 21> H 	 -59.566 	 -52.6204 	 -81.0781
| 22> H 	 -61.192 	 -52.9395 	 -81.7345
| 23> S 	 -66.3367 	 -48.3611 	 -81.9316
| 24> C 	 -67.3894 	 -48.4287 	 -80.5368
| 25> C 	 -66.8565 	 -49.3512 	 -79.6202
| 26> C 	 -65.7485 	 -50.1197 	 -80.1281
| 27> C 	 -65.3928 	 -49.7885 	 -81.4387
| 28> H 	 -67.2831 	 -49.4926 	 -78.7257
| 29> C 	 -65.2291 	 -51.352 	 -79.3542
| 30> H 	 -64.5853 	 -51.0491 	 -78.5236
| 31> H 	 -64.5435 	 -51.8868 	 -80.0234
| 32> C 	 -66.281 	 -52.4486 	 -78.9038
| 33> H 	 -67.0477 	 -52.1682 	 -78.1355
| 34> H 	 -65.6181 	 -53.1576 	 -78.4337
| 35> C 	 -66.9674 	 -53.1804 	 -80.0385
| 36> H 	 -67.5448 	 -52.4928 	 -80.7361
| 37> H 	 -67.7275 	 -53.863 	 -79.7315
| 38> H 	 -66.2477 	 -53.737 	 -80.6044
| 39> H 	 -62.9929 	 -52.1676 	 -85.1513
| 40> H 	 -68.2743 	 -47.802 	 -80.4189
| 41> *
| 42>
| 43>                          ****END OF INPUT****

CARTESIAN COORDINATES (ANGSTROEM)
---------------------------------
  S    -64.932200  -51.507600  -83.651400
  C    -63.283500  -51.736600  -84.186800
  C    -62.417200  -50.924300  -83.533800
  C    -63.088700  -50.275400  -82.425700
  C    -64.467500  -50.487300  -82.386400
  H    -62.684300  -49.631600  -81.752000
  C    -60.910100  -50.823600  -83.722100
  H    -60.729700  -49.777900  -83.984600
  H    -60.505200  -51.592400  -84.390800
  C    -60.233500  -51.077000  -82.394600
  H    -59.160000  -50.903800  -82.532700
  H    -60.514300  -50.415400  -81.672700
  C    -60.237600  -52.545200  -81.901600
  H    -59.817900  -53.230400  -82.619400
  H    -59.566000  -52.620400  -81.078100
  H    -61.192000  -52.939500  -81.734500
  S    -66.336700  -48.361100  -81.931600
  C    -67.389400  -48.428700  -80.536800
  C    -66.856500  -49.351200  -79.620200
  C    -65.748500  -50.119700  -80.128100
  C    -65.392800  -49.788500  -81.438700
  H    -67.283100  -49.492600  -78.725700
  C    -65.229100  -51.352000  -79.354200
  H    -64.585300  -51.049100  -78.523600
  H    -64.543500  -51.886800  -80.023400
  C    -66.281000  -52.448600  -78.903800
  H    -67.047700  -52.168200  -78.135500
  H    -65.618100  -53.157600  -78.433700
  C    -66.967400  -53.180400  -80.038500
  H    -67.544800  -52.492800  -80.736100
  H    -67.727500  -53.863000  -79.731500
  H    -66.247700  -53.737000  -80.604400
  H    -62.992900  -52.167600  -85.151300
  H    -68.274300  -47.802000  -80.418900

 Total Charge           Charge          ....    0
 Multiplicity           Mult            ....    1
 Number of Electrons    NEL             ....  134
 Basis Dimension        Dim             ....  322

ORBITAL ENERGIES
----------------

  NO   OCC          E(Eh)            E(eV)
   0   2.0000     -88.965954     -2420.8867
   1   2.0000     -88.962958     -2420.8052
   2   2.0000     -10.331221      -281.1268
   3   2.0000     -10.328625      -281.0562
   4   2.0000     -10.323231      -280.9094
   5   2.0000     -10.310194      -280.5547
   6   2.0000     -10.306075      -280.4426
   7   2.0000     -10.299530      -280.2645
   8   2.0000     -10.295883      -280.1652
   9   2.0000     -10.295054      -280.1427
  10   2.0000     -10.289421      -279.9894
  11   2.0000     -10.288855      -279.9740
  12   2.0000     -10.287235      -279.9299
  13   2.0000     -10.278284      -279.6863
  14   2.0000     -10.270810      -279.4830
  15   2.0000     -10.267771      -279.4003
  16   2.0000      -8.081595      -219.9114
  17   2.0000      -8.077252      -219.7932
  18   2.0000      -6.039994      -164.3566
  19   2.0000      -6.035933      -164.2461
  20   2.0000      -6.035798      -164.2424
  21   2.0000      -6.032429      -164.1507
  22   2.0000      -6.031698      -164.1309
  23   2.0000      -6.028117      -164.0334
  24   2.0000      -1.006430       -27.3863
  25   2.0000      -0.981847       -26.7174
  26   2.0000      -0.919290       -25.0151
  27   2.0000      -0.899212       -24.4688
  28   2.0000      -0.866348       -23.5745
  29   2.0000      -0.846092       -23.0233
  30   2.0000      -0.842964       -22.9382
  31   2.0000      -0.812947       -22.1214
  32   2.0000      -0.788922       -21.4676
  33   2.0000      -0.774764       -21.0824
  34   2.0000      -0.709869       -19.3165
  35   2.0000      -0.695909       -18.9366
  36   2.0000      -0.690303       -18.7841
  37   2.0000      -0.658384       -17.9156
  38   2.0000      -0.644589       -17.5402
  39   2.0000      -0.622987       -16.9523
  40   2.0000      -0.595597       -16.2070
  41   2.0000      -0.572150       -15.5690
  42   2.0000      -0.562714       -15.3122
  43   2.0000      -0.549277       -14.9466
  44   2.0000      -0.546015       -14.8578
  45   2.0000      -0.535228       -14.5643
  46   2.0000      -0.521297       -14.1852
  47   2.0000      -0.508913       -13.8482
  48   2.0000      -0.499436       -13.5903
  49   2.0000      -0.493860       -13.4386
  50   2.0000      -0.488059       -13.2808
  51   2.0000      -0.478156       -13.0113
  52   2.0000      -0.470031       -12.7902
  53   2.0000      -0.463874       -12.6226
  54   2.0000      -0.456140       -12.4122
  55   2.0000      -0.447346       -12.1729
  56   2.0000      -0.444624       -12.0988
  57   2.0000      -0.441219       -12.0062
  58   2.0000      -0.432556       -11.7705
  59   2.0000      -0.429975       -11.7002
  60   2.0000      -0.421338       -11.4652
  61   2.0000      -0.409353       -11.1391
  62   2.0000      -0.406495       -11.0613
  63   2.0000      -0.332217        -9.0401
  64   2.0000      -0.325539        -8.8584
  65   2.0000      -0.324605        -8.8329
  66   2.0000      -0.312771        -8.5109
  67   0.0000       0.039497         1.0748
  68   0.0000       0.059735         1.6255
  69   0.0000       0.115756         3.1499
  70   0.0000       0.127588         3.4718
  71   0.0000       0.137125         3.7314

MULLIKEN ATOMIC CHARGES
-----------------------
   0 S :    0.126790
   1 C :   -0.132111
   2 C :   -0.096933
   3 C :    0.059612
   4 C :   -0.167930
   5 H :   -0.031221
   6 C :    0.115709
   7 H :    0.039833
   8 H :    0.024002
   9 C :   -0.088897
  10 H :    0.021149
  11 H :    0.013566
  12 C :   -0.012294
  13 H :    0.011242
  14 H :    0.026244
  15 H :    0.028086
  16 S :    0.102282
  17 C :   -0.108433
  18 C :    0.025204
  19 C :   -0.018916
  20 C :   -0.179861
  21 H :   -0.030967
  22 C :    0.057713
  23 H :    0.038897
  24 H :    0.024053
  25 C :   -0.080636
  26 H :    0.039034
  27 H :    0.025424
  28 C :   -0.048521
  29 H :    0.040635
  30 H :    0.024705
  31 H :    0.025805
  32 H :    0.054707
  33 H :    0.072031
Sum of atomic charges:   -0.0000000

LOEWDIN ATOMIC CHARGES
----------------------
   0 S :    0.435751
   1 C :   -0.208880
   2 C :   -0.060813
   3 C :   -0.050483
   4 C :   -0.214841
   5 H :    0.010584
   6 C :   -0.023109
   7 H :    0.038568
   8 H :    0.032364
   9 C :   -0.033776
  10 H :    0.026946
  11 H :    0.007719
  12 C :   -0.054641
  13 H :    0.023069
  14 H :    0.025133
  15 H :    0.016702
  16 S :    0.392069
  17 C :   -0.179089
  18 C :   -0.057625
  19 C :   -0.052474
  20 C :   -0.198369
  21 H :    0.007640
  22 C :   -0.030651
  23 H :    0.033769
  24 H :    0.031718
  25 C :   -0.043735
  26 H :    0.025441
  27 H :    0.025435
  28 C :   -0.068635
  29 H :    0.032671
  30 H :    0.022513
  31 H :    0.021361
  32 H :    0.033166
  33 H :    0.034504

  Mayer bond orders larger than 0.100000
B(  0-S ,  1-C ) :   1.1389 B(  0-S ,  4-C ) :   1.1738 B(  1-C ,  2-C ) :   1.6395
B(  1-C , 32-H ) :   0.9578 B(  2-C ,  3-C ) :   1.2194 B(  2-C ,  6-C ) :   1.0223
B(  3-C ,  4-C ) :   1.5783 B(  3-C ,  5-H ) :   1.0068 B(  4-C , 20-C ) :   1.0066
B(  6-C ,  7-H ) :   0.9244 B(  6-C ,  8-H ) :   0.9484 B(  6-C ,  9-C ) :   1.0894
B(  9-C , 10-H ) :   0.9524 B(  9-C , 11-H ) :   0.9533 B(  9-C , 12-C ) :   1.0733
B( 12-C , 13-H ) :   0.9699 B( 12-C , 14-H ) :   0.9739 B( 12-C , 15-H ) :   0.9773
B( 16-S , 17-C ) :   1.1668 B( 16-S , 20-C ) :   1.1390 B( 17-C , 18-C ) :   1.5770
B( 17-C , 33-H ) :   0.9701 B( 18-C , 19-C ) :   1.2448 B( 18-C , 21-H ) :   1.0117
B( 19-C , 20-C ) :   1.5927 B( 19-C , 22-C ) :   1.0415 B( 22-C , 23-H ) :   0.9363
B( 22-C , 24-H ) :   0.9363 B( 22-C , 25-C ) :   1.0599 B( 25-C , 26-H ) :   0.9583
B( 25-C , 27-H ) :   0.9533 B( 25-C , 28-C ) :   1.0805 B( 28-C , 29-H ) :   0.9740
B( 28-C , 30-H ) :   0.9724 B( 28-C , 31-H ) :   0.9747

Dispersion correction           -0.015148246
FINAL SINGLE POINT ENERGY     -1339.864384522813

DIPOLE MOMENT
-------------
                                X             Y             Z
Electronic contribution:    -13.96365      15.16679     -10.86594
Nuclear contribution   :     14.35075     -15.34567      11.17041
                        -----------------------------------------
Total Dipole Moment    :      0.38710      -0.17888       0.30447
                        -----------------------------------------
Magnitude (a.u.)       :      0.52397
Magnitude (Debye)      :      1.33183

Rotational constants in cm-1:     0.019624     0.008659     0.007607
Rotational constants in MHz :   588.307197   259.588273   228.042621

                             ****ORCA TERMINATED NORMALLY****
TOTAL RUN TIME: 0 days 0 hours 0 minutes 22 seconds 23 msec
