                         Program Version 4.2.1 -  RELEASE  -
|  1> ! wB97X-D3 SP def2-SVP
|  2> %pal
|  3> nprocs 24
|  4> end
|  5>
|  6> * xyz 0 1
|  7> S 	 -38.725 	 -6.55762 	 19.5379
|  8> C 	 -39.0694 	 -7.29001 	 18.0398
|  9> C 	 -40.4361 	 -7.45136 	 17.8534
| 10> C 	 -41.149 	 -7.02926 	 19.0553
| 11> C 	 -40.3784 	 -6.49337 	 20.0542
| 12> H 	 -42.1896 	 -7.18516 	 19.2675
| 13> C 	 -41.1106 	 -8.0551 	 16.6886
| 14> H 	 -40.5839 	 -7.70112 	 15.7928
| 15> H 	 -42.2092 	 -7.83865 	 16.5677
| 16> C 	 -41.0507 	 -9.61391 	 16.7636
| 17> H 	 -40.0445 	 -9.83821 	 17.1131
| 18> H 	 -41.8746 	 -9.93143 	 17.4551
| 19> C 	 -41.23 	 -10.2553 	 15.3628
| 20> H 	 -40.5215 	 -9.94925 	 14.6846
| 21> H 	 -41.1519 	 -11.3416 	 15.2524
| 22> H 	 -42.146 	 -10.0957 	 14.9204
| 23> S 	 -40.148 	 -6.8745 	 22.7639
| 24> C 	 -41.0729 	 -5.95406 	 23.9392
| 25> C 	 -41.9921 	 -5.15951 	 23.2433
| 26> C 	 -41.8076 	 -5.15697 	 21.7908
| 27> C 	 -40.772 	 -5.97464 	 21.3931
| 28> H 	 -42.7143 	 -4.53621 	 23.8462
| 29> C 	 -42.7824 	 -4.36173 	 20.9413
| 30> H 	 -42.5666 	 -4.55665 	 19.8764
| 31> H 	 -42.517 	 -3.30254 	 21.128
| 32> C 	 -44.3242 	 -4.5368 	 21.1578
| 33> H 	 -44.6007 	 -4.53266 	 22.173
| 34> H 	 -44.7497 	 -5.4437 	 20.726
| 35> C 	 -45.088 	 -3.36332 	 20.6403
| 36> H 	 -44.8543 	 -3.1685 	 19.5601
| 37> H 	 -44.9337 	 -2.40639 	 21.1216
| 38> H 	 -46.1599 	 -3.48351 	 20.7719
| 39> H 	 -38.34 	 -7.57896 	 17.2147
| 40> H 	 -41.0543 	 -6.11204 	 25.0462
| 41> *
| 42>
| 43>                          ****END OF INPUT****

CARTESIAN COORDINATES (ANGSTROEM)
---------------------------------
  S    -38.725000   -6.557620   19.537900
  C    -39.069400   -7.290010   18.039800
  C    -40.436100   -7.451360   17.853400
  C    -41.149000   -7.029260   19.055300
  C    -40.378400   -6.493370   20.054200
  H    -42.189600   -7.185160   19.267500
  C    -41.110600   -8.055100   16.688600
  H    -40.583900   -7.701120   15.792800
  H    -42.209200   -7.838650   16.567700
  C    -41.050700   -9.613910   16.763600
  H    -40.044500   -9.838210   17.113100
  H    -41.874600   -9.931430   17.455100
  C    -41.230000  -10.255300   15.362800
  H    -40.521500   -9.949250   14.684600
  H    -41.151900  -11.341600   15.252400
  H    -42.146000  -10.095700   14.920400
  S    -40.148000   -6.874500   22.763900
  C    -41.072900   -5.954060   23.939200
  C    -41.992100   -5.159510   23.243300
  C    -41.807600   -5.156970   21.790800
  C    -40.772000   -5.974640   21.393100
  H    -42.714300   -4.536210   23.846200
  C    -42.782400   -4.361730   20.941300
  H    -42.566600   -4.556650   19.876400
  H    -42.517000   -3.302540   21.128000
  C    -44.324200   -4.536800   21.157800
  H    -44.600700   -4.532660   22.173000
  H    -44.749700   -5.443700   20.726000
  C    -45.088000   -3.363320   20.640300
  H    -44.854300   -3.168500   19.560100
  H    -44.933700   -2.406390   21.121600
  H    -46.159900   -3.483510   20.771900
  H    -38.340000   -7.578960   17.214700
  H    -41.054300   -6.112040   25.046200

 Total Charge           Charge          ....    0
 Multiplicity           Mult            ....    1
 Number of Electrons    NEL             ....  134
 Basis Dimension        Dim             ....  322

ORBITAL ENERGIES
----------------

  NO   OCC          E(Eh)            E(eV)
   0   2.0000     -88.964831     -2420.8561
   1   2.0000     -88.962736     -2420.7991
   2   2.0000     -10.330889      -281.1178
   3   2.0000     -10.328730      -281.0590
   4   2.0000     -10.325638      -280.9749
   5   2.0000     -10.317660      -280.7578
   6   2.0000     -10.309616      -280.5389
   7   2.0000     -10.303185      -280.3639
   8   2.0000     -10.302129      -280.3352
   9   2.0000     -10.297586      -280.2116
  10   2.0000     -10.294894      -280.1383
  11   2.0000     -10.293157      -280.0911
  12   2.0000     -10.293068      -280.0886
  13   2.0000     -10.285766      -279.8899
  14   2.0000     -10.277060      -279.6530
  15   2.0000     -10.266308      -279.3605
  16   2.0000      -8.080531      -219.8824
  17   2.0000      -8.077496      -219.7998
  18   2.0000      -6.039025      -164.3302
  19   2.0000      -6.036199      -164.2533
  20   2.0000      -6.034708      -164.2128
  21   2.0000      -6.031917      -164.1368
  22   2.0000      -6.031432      -164.1236
  23   2.0000      -6.028106      -164.0331
  24   2.0000      -1.008042       -27.4302
  25   2.0000      -0.985017       -26.8037
  26   2.0000      -0.913004       -24.8441
  27   2.0000      -0.909647       -24.7528
  28   2.0000      -0.867449       -23.6045
  29   2.0000      -0.853482       -23.2244
  30   2.0000      -0.846179       -23.0257
  31   2.0000      -0.815491       -22.1906
  32   2.0000      -0.780962       -21.2511
  33   2.0000      -0.771326       -20.9888
  34   2.0000      -0.706957       -19.2373
  35   2.0000      -0.702990       -19.1293
  36   2.0000      -0.691981       -18.8297
  37   2.0000      -0.657836       -17.9006
  38   2.0000      -0.640289       -17.4231
  39   2.0000      -0.617438       -16.8013
  40   2.0000      -0.595331       -16.1998
  41   2.0000      -0.579645       -15.7730
  42   2.0000      -0.562211       -15.2985
  43   2.0000      -0.557333       -15.1658
  44   2.0000      -0.528915       -14.3925
  45   2.0000      -0.519539       -14.1374
  46   2.0000      -0.516256       -14.0480
  47   2.0000      -0.512825       -13.9547
  48   2.0000      -0.507075       -13.7982
  49   2.0000      -0.500909       -13.6304
  50   2.0000      -0.498243       -13.5579
  51   2.0000      -0.474867       -12.9218
  52   2.0000      -0.471867       -12.8401
  53   2.0000      -0.464879       -12.6500
  54   2.0000      -0.456495       -12.4219
  55   2.0000      -0.448256       -12.1977
  56   2.0000      -0.445473       -12.1219
  57   2.0000      -0.435784       -11.8583
  58   2.0000      -0.430869       -11.7246
  59   2.0000      -0.426107       -11.5950
  60   2.0000      -0.421471       -11.4688
  61   2.0000      -0.420122       -11.4321
  62   2.0000      -0.414223       -11.2716
  63   2.0000      -0.346516        -9.4292
  64   2.0000      -0.325747        -8.8640
  65   2.0000      -0.323578        -8.8050
  66   2.0000      -0.301738        -8.2107
  67   0.0000       0.035754         0.9729
  68   0.0000       0.069591         1.8937
  69   0.0000       0.110550         3.0082
  70   0.0000       0.122135         3.3235
  71   0.0000       0.130413         3.5487

MULLIKEN ATOMIC CHARGES
-----------------------
   0 S :    0.124353
   1 C :   -0.132114
   2 C :   -0.098231
   3 C :    0.042316
   4 C :   -0.175129
   5 H :    0.004638
   6 C :    0.026744
   7 H :    0.027110
   8 H :    0.037344
   9 C :   -0.067287
  10 H :    0.031741
  11 H :    0.045438
  12 C :   -0.005232
  13 H :    0.004257
  14 H :    0.024065
  15 H :    0.004910
  16 S :    0.096454
  17 C :   -0.111908
  18 C :   -0.067009
  19 C :   -0.024902
  20 C :   -0.129582
  21 H :    0.043966
  22 C :    0.044458
  23 H :    0.030197
  24 H :    0.039921
  25 C :   -0.019841
  26 H :    0.013158
  27 H :    0.033979
  28 C :   -0.085755
  29 H :    0.032174
  30 H :    0.024647
  31 H :    0.030752
  32 H :    0.072639
  33 H :    0.081731
Sum of atomic charges:    0.0000000

LOEWDIN ATOMIC CHARGES
----------------------
   0 S :    0.435608
   1 C :   -0.224725
   2 C :   -0.068078
   3 C :   -0.061820
   4 C :   -0.207816
   5 H :    0.027292
   6 C :   -0.039848
   7 H :    0.030722
   8 H :    0.036958
   9 C :   -0.028905
  10 H :    0.022370
  11 H :    0.031616
  12 C :   -0.066271
  13 H :    0.014338
  14 H :    0.030707
  15 H :    0.014262
  16 S :    0.401477
  17 C :   -0.191312
  18 C :   -0.079461
  19 C :   -0.057050
  20 C :   -0.201928
  21 H :    0.038657
  22 C :   -0.032764
  23 H :    0.032439
  24 H :    0.039210
  25 C :   -0.036089
  26 H :    0.017997
  27 H :    0.027830
  28 C :   -0.069911
  29 H :    0.026335
  30 H :    0.021571
  31 H :    0.026701
  32 H :    0.046658
  33 H :    0.043229

  Mayer bond orders larger than 0.100000
B(  0-S ,  1-C ) :   1.1582 B(  0-S ,  4-C ) :   1.1639 B(  1-C ,  2-C ) :   1.5914
B(  1-C , 32-H ) :   0.9566 B(  2-C ,  3-C ) :   1.2418 B(  2-C ,  6-C ) :   1.0441
B(  3-C ,  4-C ) :   1.5857 B(  3-C ,  5-H ) :   0.9975 B(  4-C , 20-C ) :   0.9876
B(  6-C ,  7-H ) :   0.9409 B(  6-C ,  8-H ) :   0.9451 B(  6-C ,  9-C ) :   1.0479
B(  9-C , 10-H ) :   0.9632 B(  9-C , 11-H ) :   0.9588 B(  9-C , 12-C ) :   1.0734
B( 12-C , 13-H ) :   0.9734 B( 12-C , 14-H ) :   0.9716 B( 12-C , 15-H ) :   0.9721
B( 16-S , 17-C ) :   1.1525 B( 16-S , 20-C ) :   1.1440 B( 17-C , 18-C ) :   1.6162
B( 17-C , 33-H ) :   0.9635 B( 18-C , 19-C ) :   1.2177 B( 18-C , 21-H ) :   0.9789
B( 19-C , 20-C ) :   1.6208 B( 19-C , 22-C ) :   1.0423 B( 22-C , 23-H ) :   0.9346
B( 22-C , 24-H ) :   0.9393 B( 22-C , 25-C ) :   1.0553 B( 25-C , 26-H ) :   0.9513
B( 25-C , 27-H ) :   0.9543 B( 25-C , 28-C ) :   1.0884 B( 28-C , 29-H ) :   0.9740
B( 28-C , 30-H ) :   0.9736 B( 28-C , 31-H ) :   0.9716

Dispersion correction           -0.013418464
FINAL SINGLE POINT ENERGY     -1339.872831507043

DIPOLE MOMENT
-------------
                                X             Y             Z
Electronic contribution:     21.41160       1.02730      17.50800
Nuclear contribution   :    -22.10285      -1.04522     -17.75991
                        -----------------------------------------
Total Dipole Moment    :     -0.69124      -0.01793      -0.25191
                        -----------------------------------------
Magnitude (a.u.)       :      0.73593
Magnitude (Debye)      :      1.87059

Rotational constants in cm-1:     0.017932     0.007696     0.006086
Rotational constants in MHz :   537.576514   230.723985   182.454007

                             ****ORCA TERMINATED NORMALLY****
TOTAL RUN TIME: 0 days 0 hours 0 minutes 20 seconds 426 msec
