                         Program Version 4.2.1 -  RELEASE  -
|  1> ! wB97X-D3 SP def2-SVP
|  2> %pal
|  3> nprocs 24
|  4> end
|  5>
|  6> * xyz 0 1
|  7> S 	 -64.0321 	 10.5582 	 20.4209
|  8> C 	 -62.3994 	 11.1484 	 20.614
|  9> C 	 -61.5086 	 10.1338 	 20.8469
| 10> C 	 -62.222 	 8.93219 	 21.1367
| 11> C 	 -63.557 	 8.99995 	 21.0197
| 12> H 	 -61.9134 	 8.00779 	 21.3782
| 13> C 	 -60.0354 	 10.2107 	 20.813
| 14> H 	 -59.6495 	 10.3606 	 19.8284
| 15> H 	 -59.6757 	 9.18636 	 21.0421
| 16> C 	 -59.2597 	 11.0979 	 21.7809
| 17> H 	 -59.4473 	 12.1559 	 21.5105
| 18> H 	 -59.7569 	 11.0011 	 22.7502
| 19> C 	 -57.8078 	 10.5849 	 21.7418
| 20> H 	 -57.2346 	 11.2228 	 22.4153
| 21> H 	 -57.7683 	 9.59603 	 22.1015
| 22> H 	 -57.159 	 10.7488 	 20.8093
| 23> S 	 -64.9004 	 7.65984 	 22.9533
| 24> C 	 -65.6105 	 6.12138 	 22.5276
| 25> C 	 -65.5646 	 5.844 	 21.1915
| 26> C 	 -64.957 	 6.92374 	 20.4631
| 27> C 	 -64.4956 	 7.9585 	 21.3302
| 28> H 	 -66.036 	 4.85787 	 20.8362
| 29> C 	 -64.6616 	 6.93841 	 18.9927
| 30> H 	 -64.23 	 7.86823 	 18.6408
| 31> H 	 -65.5577 	 6.98306 	 18.3425
| 32> C 	 -63.7905 	 5.74593 	 18.5681
| 33> H 	 -64.1308 	 4.80769 	 18.9646
| 34> H 	 -62.8795 	 5.92569 	 19.0619
| 35> C 	 -63.5531 	 5.68469 	 17.0208
| 36> H 	 -63.2352 	 6.60356 	 16.5446
| 37> H 	 -64.4555 	 5.59867 	 16.5132
| 38> H 	 -63.016 	 4.79961 	 16.7674
| 39> H 	 -62.1451 	 12.1929 	 20.4375
| 40> H 	 -66.1986 	 5.45163 	 23.1938
| 41> *
| 42>
| 43>                          ****END OF INPUT****

CARTESIAN COORDINATES (ANGSTROEM)
---------------------------------
  S    -64.032100   10.558200   20.420900
  C    -62.399400   11.148400   20.614000
  C    -61.508600   10.133800   20.846900
  C    -62.222000    8.932190   21.136700
  C    -63.557000    8.999950   21.019700
  H    -61.913400    8.007790   21.378200
  C    -60.035400   10.210700   20.813000
  H    -59.649500   10.360600   19.828400
  H    -59.675700    9.186360   21.042100
  C    -59.259700   11.097900   21.780900
  H    -59.447300   12.155900   21.510500
  H    -59.756900   11.001100   22.750200
  C    -57.807800   10.584900   21.741800
  H    -57.234600   11.222800   22.415300
  H    -57.768300    9.596030   22.101500
  H    -57.159000   10.748800   20.809300
  S    -64.900400    7.659840   22.953300
  C    -65.610500    6.121380   22.527600
  C    -65.564600    5.844000   21.191500
  C    -64.957000    6.923740   20.463100
  C    -64.495600    7.958500   21.330200
  H    -66.036000    4.857870   20.836200
  C    -64.661600    6.938410   18.992700
  H    -64.230000    7.868230   18.640800
  H    -65.557700    6.983060   18.342500
  C    -63.790500    5.745930   18.568100
  H    -64.130800    4.807690   18.964600
  H    -62.879500    5.925690   19.061900
  C    -63.553100    5.684690   17.020800
  H    -63.235200    6.603560   16.544600
  H    -64.455500    5.598670   16.513200
  H    -63.016000    4.799610   16.767400
  H    -62.145100   12.192900   20.437500
  H    -66.198600    5.451630   23.193800

 Total Charge           Charge          ....    0
 Multiplicity           Mult            ....    1
 Number of Electrons    NEL             ....  134
 Basis Dimension        Dim             ....  322

ORBITAL ENERGIES
----------------

  NO   OCC          E(Eh)            E(eV)
   0   2.0000     -88.967722     -2420.9348
   1   2.0000     -88.960253     -2420.7316
   2   2.0000     -10.320319      -280.8301
   3   2.0000     -10.316800      -280.7344
   4   2.0000     -10.316345      -280.7220
   5   2.0000     -10.311143      -280.5805
   6   2.0000     -10.306692      -280.4594
   7   2.0000     -10.300662      -280.2953
   8   2.0000     -10.296566      -280.1838
   9   2.0000     -10.290751      -280.0256
  10   2.0000     -10.285774      -279.8901
  11   2.0000     -10.284243      -279.8485
  12   2.0000     -10.283353      -279.8243
  13   2.0000     -10.279683      -279.7244
  14   2.0000     -10.278646      -279.6962
  15   2.0000     -10.268975      -279.4330
  16   2.0000      -8.083196      -219.9549
  17   2.0000      -8.075596      -219.7481
  18   2.0000      -6.041538      -164.3986
  19   2.0000      -6.037542      -164.2899
  20   2.0000      -6.034144      -164.1974
  21   2.0000      -6.034029      -164.1943
  22   2.0000      -6.030064      -164.0864
  23   2.0000      -6.026367      -163.9858
  24   2.0000      -1.012986       -27.5648
  25   2.0000      -0.988530       -26.8993
  26   2.0000      -0.916883       -24.9497
  27   2.0000      -0.907043       -24.6819
  28   2.0000      -0.874646       -23.8003
  29   2.0000      -0.851272       -23.1643
  30   2.0000      -0.847154       -23.0522
  31   2.0000      -0.818760       -22.2796
  32   2.0000      -0.782684       -21.2979
  33   2.0000      -0.768239       -20.9049
  34   2.0000      -0.710706       -19.3393
  35   2.0000      -0.708468       -19.2784
  36   2.0000      -0.696884       -18.9632
  37   2.0000      -0.655722       -17.8431
  38   2.0000      -0.648193       -17.6382
  39   2.0000      -0.618396       -16.8274
  40   2.0000      -0.599868       -16.3232
  41   2.0000      -0.575809       -15.6686
  42   2.0000      -0.565342       -15.3837
  43   2.0000      -0.552528       -15.0351
  44   2.0000      -0.530390       -14.4326
  45   2.0000      -0.516965       -14.0673
  46   2.0000      -0.514908       -14.0113
  47   2.0000      -0.513649       -13.9771
  48   2.0000      -0.507768       -13.8171
  49   2.0000      -0.498856       -13.5746
  50   2.0000      -0.490832       -13.3562
  51   2.0000      -0.475006       -12.9256
  52   2.0000      -0.471701       -12.8356
  53   2.0000      -0.463224       -12.6050
  54   2.0000      -0.458570       -12.4783
  55   2.0000      -0.452789       -12.3210
  56   2.0000      -0.447948       -12.1893
  57   2.0000      -0.444691       -12.1007
  58   2.0000      -0.428835       -11.6692
  59   2.0000      -0.424672       -11.5559
  60   2.0000      -0.420678       -11.4472
  61   2.0000      -0.416028       -11.3207
  62   2.0000      -0.412421       -11.2226
  63   2.0000      -0.339702        -9.2438
  64   2.0000      -0.330560        -8.9950
  65   2.0000      -0.319963        -8.7066
  66   2.0000      -0.304231        -8.2785
  67   0.0000       0.050594         1.3767
  68   0.0000       0.053804         1.4641
  69   0.0000       0.110375         3.0034
  70   0.0000       0.125404         3.4124
  71   0.0000       0.131179         3.5696

MULLIKEN ATOMIC CHARGES
-----------------------
   0 S :    0.108342
   1 C :   -0.137705
   2 C :   -0.028013
   3 C :    0.094475
   4 C :   -0.196044
   5 H :   -0.050065
   6 C :    0.053680
   7 H :    0.027455
   8 H :    0.005149
   9 C :   -0.069706
  10 H :    0.031780
  11 H :    0.033398
  12 C :   -0.055324
  13 H :    0.024277
  14 H :    0.036350
  15 H :    0.047930
  16 S :    0.137761
  17 C :   -0.113333
  18 C :   -0.065659
  19 C :   -0.004782
  20 C :   -0.174973
  21 H :    0.053481
  22 C :    0.072064
  23 H :    0.010988
  24 H :    0.020599
  25 C :   -0.071493
  26 H :    0.022687
  27 H :    0.016182
  28 C :    0.006726
  29 H :    0.022276
  30 H :   -0.002589
  31 H :    0.031558
  32 H :    0.048423
  33 H :    0.064104
Sum of atomic charges:    0.0000000

LOEWDIN ATOMIC CHARGES
----------------------
   0 S :    0.403721
   1 C :   -0.189001
   2 C :   -0.065006
   3 C :   -0.045197
   4 C :   -0.201612
   5 H :    0.012082
   6 C :   -0.040079
   7 H :    0.028725
   8 H :    0.030358
   9 C :   -0.037436
  10 H :    0.023774
  11 H :    0.027926
  12 C :   -0.068082
  13 H :    0.026066
  14 H :    0.021527
  15 H :    0.039536
  16 S :    0.439095
  17 C :   -0.197978
  18 C :   -0.083140
  19 C :   -0.046775
  20 C :   -0.226624
  21 H :    0.049793
  22 C :   -0.039509
  23 H :    0.026607
  24 H :    0.030625
  25 C :   -0.028330
  26 H :    0.019567
  27 H :    0.018076
  28 C :   -0.062114
  29 H :    0.028158
  30 H :    0.016116
  31 H :    0.025521
  32 H :    0.026529
  33 H :    0.037081

  Mayer bond orders larger than 0.100000
B(  0-S ,  1-C ) :   1.1468 B(  0-S ,  4-C ) :   1.1327 B(  1-C ,  2-C ) :   1.6058
B(  1-C , 32-H ) :   0.9745 B(  2-C ,  3-C ) :   1.2007 B(  2-C ,  6-C ) :   1.0186
B(  3-C ,  4-C ) :   1.6318 B(  3-C ,  5-H ) :   1.0139 B(  4-C , 20-C ) :   1.0003
B(  6-C ,  7-H ) :   0.9296 B(  6-C ,  8-H ) :   0.9448 B(  6-C ,  9-C ) :   1.0608
B(  9-C , 10-H ) :   0.9530 B(  9-C , 11-H ) :   0.9564 B(  9-C , 12-C ) :   1.0785
B( 12-C , 13-H ) :   0.9714 B( 12-C , 14-H ) :   0.9743 B( 12-C , 15-H ) :   0.9733
B( 16-S , 17-C ) :   1.1621 B( 16-S , 20-C ) :   1.1672 B( 17-C , 18-C ) :   1.6252
B( 17-C , 33-H ) :   0.9573 B( 18-C , 19-C ) :   1.2464 B( 18-C , 21-H ) :   0.9748
B( 19-C , 20-C ) :   1.5645 B( 19-C , 22-C ) :   1.0576 B( 22-C , 23-H ) :   0.9245
B( 22-C , 24-H ) :   0.9318 B( 22-C , 25-C ) :   1.0479 B( 25-C , 26-H ) :   0.9617
B( 25-C , 27-H ) :   0.9540 B( 25-C , 28-C ) :   1.0796 B( 28-C , 29-H ) :   0.9716
B( 28-C , 30-H ) :   0.9680 B( 28-C , 31-H ) :   0.9741

Dispersion correction           -0.014080009
FINAL SINGLE POINT ENERGY     -1339.857876544346

DIPOLE MOMENT
-------------
                                X             Y             Z
Electronic contribution:    -20.87698       5.12196      12.64833
Nuclear contribution   :     21.30586      -5.40200     -12.87263
                        -----------------------------------------
Total Dipole Moment    :      0.42888      -0.28005      -0.22430
                        -----------------------------------------
Magnitude (a.u.)       :      0.55917
Magnitude (Debye)      :      1.42130

Rotational constants in cm-1:     0.018141     0.007807     0.006795
Rotational constants in MHz :   543.846740   234.053632   203.694413

                             ****ORCA TERMINATED NORMALLY****
TOTAL RUN TIME: 0 days 0 hours 0 minutes 21 seconds 256 msec
