                         Program Version 4.2.1 -  RELEASE  -
|  1> ! wB97X-D3 SP def2-SVP
|  2> %pal
|  3> nprocs 24
|  4> end
|  5>
|  6> * xyz 0 1
|  7> S 	 19.2964 	 -7.33426 	 -118.293
|  8> C 	 19.0769 	 -7.97134 	 -116.736
|  9> C 	 17.7532 	 -7.87842 	 -116.317
| 10> C 	 16.9116 	 -7.26528 	 -117.295
| 11> C 	 17.6055 	 -6.75822 	 -118.38
| 12> H 	 15.8232 	 -7.12168 	 -117.222
| 13> C 	 17.1528 	 -8.50982 	 -115.063
| 14> H 	 17.2875 	 -9.53497 	 -115.122
| 15> H 	 16.0805 	 -8.39254 	 -115.191
| 16> C 	 17.7142 	 -7.90129 	 -113.759
| 17> H 	 17.8535 	 -6.79221 	 -113.849
| 18> H 	 17.0272 	 -8.1464 	 -113.018
| 19> C 	 19.1146 	 -8.52527 	 -113.46
| 20> H 	 19.0344 	 -9.50203 	 -113.909
| 21> H 	 19.9592 	 -7.97714 	 -113.836
| 22> H 	 19.1907 	 -8.74079 	 -112.436
| 23> S 	 18.4231 	 -4.82779 	 -120.134
| 24> C 	 17.3982 	 -4.18469 	 -121.36
| 25> C 	 16.2319 	 -4.86185 	 -121.41
| 26> C 	 16.0372 	 -5.79398 	 -120.262
| 27> C 	 17.1531 	 -5.89124 	 -119.498
| 28> H 	 15.5133 	 -4.59225 	 -122.182
| 29> C 	 14.6755 	 -6.4988 	 -120.044
| 30> H 	 14.7986 	 -7.36611 	 -119.374
| 31> H 	 14.3669 	 -6.94416 	 -121.002
| 32> C 	 13.505 	 -5.59747 	 -119.584
| 33> H 	 13.2844 	 -4.7766 	 -120.301
| 34> H 	 13.8202 	 -5.09755 	 -118.681
| 35> C 	 12.1567 	 -6.32305 	 -119.333
| 36> H 	 11.8191 	 -6.80547 	 -120.242
| 37> H 	 11.304 	 -5.6026 	 -119.174
| 38> H 	 12.2133 	 -7.06288 	 -118.463
| 39> H 	 19.7923 	 -8.51611 	 -116.233
| 40> H 	 17.8797 	 -3.43614 	 -121.999
| 41> *
| 42>
| 43>                          ****END OF INPUT****

CARTESIAN COORDINATES (ANGSTROEM)
---------------------------------
  S     19.296400   -7.334260  -118.293000
  C     19.076900   -7.971340  -116.736000
  C     17.753200   -7.878420  -116.317000
  C     16.911600   -7.265280  -117.295000
  C     17.605500   -6.758220  -118.380000
  H     15.823200   -7.121680  -117.222000
  C     17.152800   -8.509820  -115.063000
  H     17.287500   -9.534970  -115.122000
  H     16.080500   -8.392540  -115.191000
  C     17.714200   -7.901290  -113.759000
  H     17.853500   -6.792210  -113.849000
  H     17.027200   -8.146400  -113.018000
  C     19.114600   -8.525270  -113.460000
  H     19.034400   -9.502030  -113.909000
  H     19.959200   -7.977140  -113.836000
  H     19.190700   -8.740790  -112.436000
  S     18.423100   -4.827790  -120.134000
  C     17.398200   -4.184690  -121.360000
  C     16.231900   -4.861850  -121.410000
  C     16.037200   -5.793980  -120.262000
  C     17.153100   -5.891240  -119.498000
  H     15.513300   -4.592250  -122.182000
  C     14.675500   -6.498800  -120.044000
  H     14.798600   -7.366110  -119.374000
  H     14.366900   -6.944160  -121.002000
  C     13.505000   -5.597470  -119.584000
  H     13.284400   -4.776600  -120.301000
  H     13.820200   -5.097550  -118.681000
  C     12.156700   -6.323050  -119.333000
  H     11.819100   -6.805470  -120.242000
  H     11.304000   -5.602600  -119.174000
  H     12.213300   -7.062880  -118.463000
  H     19.792300   -8.516110  -116.233000
  H     17.879700   -3.436140  -121.999000

 Total Charge           Charge          ....    0
 Multiplicity           Mult            ....    1
 Number of Electrons    NEL             ....  134
 Basis Dimension        Dim             ....  322

ORBITAL ENERGIES
----------------

  NO   OCC          E(Eh)            E(eV)
   0   2.0000     -88.966205     -2420.8935
   1   2.0000     -88.955771     -2420.6096
   2   2.0000     -10.334147      -281.2064
   3   2.0000     -10.330306      -281.1019
   4   2.0000     -10.315992      -280.7124
   5   2.0000     -10.311144      -280.5805
   6   2.0000     -10.304808      -280.4081
   7   2.0000     -10.299825      -280.2725
   8   2.0000     -10.298854      -280.2461
   9   2.0000     -10.298384      -280.2333
  10   2.0000     -10.295666      -280.1593
  11   2.0000     -10.291319      -280.0410
  12   2.0000     -10.290203      -280.0106
  13   2.0000     -10.285779      -279.8903
  14   2.0000     -10.284548      -279.8568
  15   2.0000     -10.272140      -279.5192
  16   2.0000      -8.081091      -219.8977
  17   2.0000      -8.071672      -219.6414
  18   2.0000      -6.039585      -164.3455
  19   2.0000      -6.035530      -164.2351
  20   2.0000      -6.031904      -164.1364
  21   2.0000      -6.030256      -164.0916
  22   2.0000      -6.026043      -163.9770
  23   2.0000      -6.022231      -163.8732
  24   2.0000      -1.005962       -27.3736
  25   2.0000      -0.985911       -26.8280
  26   2.0000      -0.911694       -24.8084
  27   2.0000      -0.903231       -24.5782
  28   2.0000      -0.869158       -23.6510
  29   2.0000      -0.851566       -23.1723
  30   2.0000      -0.842796       -22.9337
  31   2.0000      -0.814672       -22.1683
  32   2.0000      -0.781488       -21.2654
  33   2.0000      -0.775429       -21.1005
  34   2.0000      -0.706342       -19.2205
  35   2.0000      -0.701161       -19.0796
  36   2.0000      -0.693409       -18.8686
  37   2.0000      -0.665045       -18.0968
  38   2.0000      -0.642810       -17.4918
  39   2.0000      -0.618600       -16.8330
  40   2.0000      -0.598044       -16.2736
  41   2.0000      -0.576223       -15.6798
  42   2.0000      -0.562849       -15.3159
  43   2.0000      -0.545768       -14.8511
  44   2.0000      -0.541515       -14.7354
  45   2.0000      -0.521358       -14.1869
  46   2.0000      -0.520414       -14.1612
  47   2.0000      -0.510523       -13.8920
  48   2.0000      -0.502304       -13.6684
  49   2.0000      -0.501051       -13.6343
  50   2.0000      -0.487743       -13.2722
  51   2.0000      -0.486997       -13.2519
  52   2.0000      -0.470243       -12.7960
  53   2.0000      -0.466290       -12.6884
  54   2.0000      -0.464564       -12.6414
  55   2.0000      -0.448806       -12.2126
  56   2.0000      -0.445465       -12.1217
  57   2.0000      -0.433983       -11.8093
  58   2.0000      -0.430673       -11.7192
  59   2.0000      -0.423025       -11.5111
  60   2.0000      -0.420098       -11.4314
  61   2.0000      -0.416952       -11.3458
  62   2.0000      -0.411446       -11.1960
  63   2.0000      -0.361540        -9.8380
  64   2.0000      -0.330073        -8.9817
  65   2.0000      -0.325410        -8.8549
  66   2.0000      -0.289295        -7.8721
  67   0.0000       0.029966         0.8154
  68   0.0000       0.074359         2.0234
  69   0.0000       0.109843         2.9890
  70   0.0000       0.122410         3.3310
  71   0.0000       0.127055         3.4573

MULLIKEN ATOMIC CHARGES
-----------------------
   0 S :    0.118931
   1 C :   -0.086356
   2 C :   -0.113154
   3 C :    0.003406
   4 C :   -0.133098
   5 H :    0.021336
   6 C :    0.073872
   7 H :    0.022297
   8 H :    0.008053
   9 C :   -0.057815
  10 H :    0.049198
  11 H :    0.019675
  12 C :   -0.029362
  13 H :    0.009973
  14 H :    0.050657
  15 H :    0.021561
  16 S :    0.064786
  17 C :   -0.092679
  18 C :   -0.020747
  19 C :   -0.055268
  20 C :   -0.123783
  21 H :    0.026432
  22 C :    0.057079
  23 H :    0.023859
  24 H :    0.023023
  25 C :   -0.073941
  26 H :    0.032520
  27 H :    0.028162
  28 C :   -0.075586
  29 H :    0.026897
  30 H :    0.041708
  31 H :    0.047269
  32 H :    0.019049
  33 H :    0.072044
Sum of atomic charges:   -0.0000000

LOEWDIN ATOMIC CHARGES
----------------------
   0 S :    0.417683
   1 C :   -0.205486
   2 C :   -0.058920
   3 C :   -0.070675
   4 C :   -0.179314
   5 H :    0.033547
   6 C :   -0.026756
   7 H :    0.019881
   8 H :    0.026786
   9 C :   -0.028561
  10 H :    0.034282
  11 H :    0.015031
  12 C :   -0.059694
  13 H :    0.021640
  14 H :    0.025675
  15 H :    0.021690
  16 S :    0.386432
  17 C :   -0.183779
  18 C :   -0.073463
  19 C :   -0.055371
  20 C :   -0.182663
  21 H :    0.032971
  22 C :   -0.032836
  23 H :    0.029015
  24 H :    0.031796
  25 C :   -0.044700
  26 H :    0.027902
  27 H :    0.020902
  28 C :   -0.075070
  29 H :    0.021380
  30 H :    0.034129
  31 H :    0.031160
  32 H :    0.011898
  33 H :    0.033489

  Mayer bond orders larger than 0.100000
B(  0-S ,  1-C ) :   1.1486 B(  0-S ,  4-C ) :   1.1568 B(  1-C ,  2-C ) :   1.5902
B(  1-C ,  4-C ) :   0.1001 B(  1-C , 32-H ) :   0.9718 B(  2-C ,  3-C ) :   1.2742
B(  2-C ,  6-C ) :   1.0104 B(  3-C ,  4-C ) :   1.5692 B(  3-C ,  5-H ) :   0.9859
B(  4-C , 20-C ) :   1.0365 B(  6-C ,  7-H ) :   0.9398 B(  6-C ,  8-H ) :   0.9399
B(  6-C ,  9-C ) :   1.0690 B(  9-C , 10-H ) :   0.9613 B(  9-C , 11-H ) :   0.9575
B(  9-C , 12-C ) :   1.0689 B( 12-C , 13-H ) :   0.9763 B( 12-C , 14-H ) :   0.9743
B( 12-C , 15-H ) :   0.9699 B( 16-S , 17-C ) :   1.1458 B( 16-S , 20-C ) :   1.1191
B( 17-C , 18-C ) :   1.6358 B( 17-C , 33-H ) :   0.9688 B( 18-C , 19-C ) :   1.1800
B( 18-C , 21-H ) :   0.9925 B( 19-C , 20-C ) :   1.6578 B( 19-C , 22-C ) :   1.0451
B( 22-C , 23-H ) :   0.9402 B( 22-C , 24-H ) :   0.9311 B( 22-C , 25-C ) :   1.0552
B( 25-C , 26-H ) :   0.9544 B( 25-C , 27-H ) :   0.9560 B( 25-C , 28-C ) :   1.0817
B( 28-C , 29-H ) :   0.9735 B( 28-C , 30-H ) :   0.9735 B( 28-C , 31-H ) :   0.9753

Dispersion correction           -0.013760334
FINAL SINGLE POINT ENERGY     -1339.875401257182

DIPOLE MOMENT
-------------
                                X             Y             Z
Electronic contribution:     19.57860       7.43160     -15.76969
Nuclear contribution   :    -20.16756      -7.62853      15.94537
                        -----------------------------------------
Total Dipole Moment    :     -0.58896      -0.19693       0.17568
                        -----------------------------------------
Magnitude (a.u.)       :      0.64538
Magnitude (Debye)      :      1.64042

Rotational constants in cm-1:     0.019017     0.008109     0.006004
Rotational constants in MHz :   570.110853   243.099805   180.005513

                             ****ORCA TERMINATED NORMALLY****
TOTAL RUN TIME: 0 days 0 hours 0 minutes 21 seconds 20 msec
