                         Program Version 4.2.1 -  RELEASE  -
|  1> ! wB97X-D3 SP def2-SVP
|  2> %pal
|  3> nprocs 24
|  4> end
|  5>
|  6> * xyz 0 1
|  7> S 	 -138.943 	 6.87217 	 -9.33605
|  8> C 	 -137.91 	 7.93135 	 -10.2602
|  9> C 	 -136.915 	 8.53249 	 -9.46141
| 10> C 	 -136.982 	 8.1533 	 -8.11456
| 11> C 	 -138.037 	 7.28221 	 -7.87132
| 12> H 	 -136.253 	 8.43571 	 -7.3971
| 13> C 	 -135.997 	 9.54307 	 -9.99594
| 14> H 	 -135.944 	 9.37446 	 -11.0992
| 15> H 	 -135.031 	 9.2743 	 -9.52077
| 16> C 	 -136.307 	 11.0012 	 -9.68634
| 17> H 	 -137.195 	 11.1934 	 -10.2001
| 18> H 	 -136.678 	 11.0467 	 -8.6021
| 19> C 	 -135.271 	 12.061 	 -10.1114
| 20> H 	 -135.568 	 13.1039 	 -9.78187
| 21> H 	 -134.321 	 11.9481 	 -9.58889
| 22> H 	 -135.069 	 12.1142 	 -11.2292
| 23> S 	 -140.316 	 6.69386 	 -6.39167
| 24> C 	 -140.177 	 6.30851 	 -4.67411
| 25> C 	 -138.859 	 6.22628 	 -4.36433
| 26> C 	 -137.933 	 6.48771 	 -5.42034
| 27> C 	 -138.582 	 6.85327 	 -6.60863
| 28> H 	 -138.773 	 6.12489 	 -3.28836
| 29> C 	 -136.393 	 6.44705 	 -5.168
| 30> H 	 -136.01 	 6.54479 	 -6.1491
| 31> H 	 -136.073 	 5.51919 	 -4.67116
| 32> C 	 -135.969 	 7.59845 	 -4.23211
| 33> H 	 -136.611 	 7.62295 	 -3.25841
| 34> H 	 -136.188 	 8.5328 	 -4.79032
| 35> C 	 -134.557 	 7.61923 	 -3.66384
| 36> H 	 -134.572 	 8.51645 	 -3.17558
| 37> H 	 -133.914 	 7.58146 	 -4.43918
| 38> H 	 -134.416 	 6.90977 	 -2.90868
| 39> H 	 -137.969 	 8.11716 	 -11.328
| 40> H 	 -141.111 	 6.2786 	 -4.07689
| 41> *
| 42>
| 43>                          ****END OF INPUT****

CARTESIAN COORDINATES (ANGSTROEM)
---------------------------------
  S    -138.943000    6.872170   -9.336050
  C    -137.910000    7.931350  -10.260200
  C    -136.915000    8.532490   -9.461410
  C    -136.982000    8.153300   -8.114560
  C    -138.037000    7.282210   -7.871320
  H    -136.253000    8.435710   -7.397100
  C    -135.997000    9.543070   -9.995940
  H    -135.944000    9.374460  -11.099200
  H    -135.031000    9.274300   -9.520770
  C    -136.307000   11.001200   -9.686340
  H    -137.195000   11.193400  -10.200100
  H    -136.678000   11.046700   -8.602100
  C    -135.271000   12.061000  -10.111400
  H    -135.568000   13.103900   -9.781870
  H    -134.321000   11.948100   -9.588890
  H    -135.069000   12.114200  -11.229200
  S    -140.316000    6.693860   -6.391670
  C    -140.177000    6.308510   -4.674110
  C    -138.859000    6.226280   -4.364330
  C    -137.933000    6.487710   -5.420340
  C    -138.582000    6.853270   -6.608630
  H    -138.773000    6.124890   -3.288360
  C    -136.393000    6.447050   -5.168000
  H    -136.010000    6.544790   -6.149100
  H    -136.073000    5.519190   -4.671160
  C    -135.969000    7.598450   -4.232110
  H    -136.611000    7.622950   -3.258410
  H    -136.188000    8.532800   -4.790320
  C    -134.557000    7.619230   -3.663840
  H    -134.572000    8.516450   -3.175580
  H    -133.914000    7.581460   -4.439180
  H    -134.416000    6.909770   -2.908680
  H    -137.969000    8.117160  -11.328000
  H    -141.111000    6.278600   -4.076890

 Total Charge           Charge          ....    0
 Multiplicity           Mult            ....    1
 Number of Electrons    NEL             ....  134
 Basis Dimension        Dim             ....  322

ORBITAL ENERGIES
----------------

  NO   OCC          E(Eh)            E(eV)
   0   2.0000     -88.971113     -2421.0271
   1   2.0000     -88.959214     -2420.7033
   2   2.0000     -10.334203      -281.2080
   3   2.0000     -10.329261      -281.0735
   4   2.0000     -10.318109      -280.7700
   5   2.0000     -10.314587      -280.6742
   6   2.0000     -10.307131      -280.4713
   7   2.0000     -10.297874      -280.2194
   8   2.0000     -10.294971      -280.1404
   9   2.0000     -10.292863      -280.0830
  10   2.0000     -10.292725      -280.0793
  11   2.0000     -10.292044      -280.0607
  12   2.0000     -10.291891      -280.0566
  13   2.0000     -10.291366      -280.0423
  14   2.0000     -10.288613      -279.9674
  15   2.0000     -10.259349      -279.1711
  16   2.0000      -8.085360      -220.0138
  17   2.0000      -8.074179      -219.7096
  18   2.0000      -6.043797      -164.4601
  19   2.0000      -6.039944      -164.3552
  20   2.0000      -6.036220      -164.2539
  21   2.0000      -6.032748      -164.1594
  22   2.0000      -6.028615      -164.0470
  23   2.0000      -6.024889      -163.9456
  24   2.0000      -1.007716       -27.4213
  25   2.0000      -0.983900       -26.7733
  26   2.0000      -0.916122       -24.9290
  27   2.0000      -0.908358       -24.7177
  28   2.0000      -0.870977       -23.7005
  29   2.0000      -0.857711       -23.3395
  30   2.0000      -0.848240       -23.0818
  31   2.0000      -0.819348       -22.2956
  32   2.0000      -0.787087       -21.4177
  33   2.0000      -0.770817       -20.9750
  34   2.0000      -0.710124       -19.3235
  35   2.0000      -0.700906       -19.0726
  36   2.0000      -0.690205       -18.7814
  37   2.0000      -0.658686       -17.9237
  38   2.0000      -0.636373       -17.3166
  39   2.0000      -0.628206       -17.0944
  40   2.0000      -0.594569       -16.1790
  41   2.0000      -0.572160       -15.5693
  42   2.0000      -0.567878       -15.4528
  43   2.0000      -0.557566       -15.1721
  44   2.0000      -0.545744       -14.8505
  45   2.0000      -0.525455       -14.2984
  46   2.0000      -0.519147       -14.1267
  47   2.0000      -0.511929       -13.9303
  48   2.0000      -0.506176       -13.7738
  49   2.0000      -0.501504       -13.6466
  50   2.0000      -0.499454       -13.5908
  51   2.0000      -0.476878       -12.9765
  52   2.0000      -0.475038       -12.9264
  53   2.0000      -0.468126       -12.7384
  54   2.0000      -0.460779       -12.5384
  55   2.0000      -0.454057       -12.3555
  56   2.0000      -0.441521       -12.0144
  57   2.0000      -0.434470       -11.8225
  58   2.0000      -0.430084       -11.7032
  59   2.0000      -0.426761       -11.6127
  60   2.0000      -0.420305       -11.4371
  61   2.0000      -0.414779       -11.2867
  62   2.0000      -0.405482       -11.0337
  63   2.0000      -0.357499        -9.7280
  64   2.0000      -0.335477        -9.1288
  65   2.0000      -0.326894        -8.8952
  66   2.0000      -0.282334        -7.6827
  67   0.0000       0.020883         0.5683
  68   0.0000       0.075985         2.0677
  69   0.0000       0.104301         2.8382
  70   0.0000       0.120214         3.2712
  71   0.0000       0.130769         3.5584

MULLIKEN ATOMIC CHARGES
-----------------------
   0 S :    0.119783
   1 C :   -0.119484
   2 C :   -0.101464
   3 C :    0.033053
   4 C :   -0.147019
   5 H :   -0.001198
   6 C :    0.051723
   7 H :    0.024165
   8 H :    0.020564
   9 C :   -0.045711
  10 H :    0.006772
  11 H :    0.034140
  12 C :   -0.065382
  13 H :    0.040580
  14 H :    0.030254
  15 H :    0.049031
  16 S :    0.077515
  17 C :   -0.133401
  18 C :   -0.024700
  19 C :   -0.047768
  20 C :   -0.122562
  21 H :    0.024156
  22 C :    0.131900
  23 H :    0.013384
  24 H :    0.028614
  25 C :   -0.195223
  26 H :    0.035496
  27 H :    0.029917
  28 C :    0.091159
  29 H :    0.009565
  30 H :    0.007353
  31 H :    0.018323
  32 H :    0.046466
  33 H :    0.079999
Sum of atomic charges:    0.0000000

LOEWDIN ATOMIC CHARGES
----------------------
   0 S :    0.409817
   1 C :   -0.205437
   2 C :   -0.063097
   3 C :   -0.059534
   4 C :   -0.174486
   5 H :    0.027406
   6 C :   -0.038235
   7 H :    0.033201
   8 H :    0.030574
   9 C :   -0.047019
  10 H :    0.016626
  11 H :    0.034725
  12 C :   -0.074941
  13 H :    0.035097
  14 H :    0.022533
  15 H :    0.034890
  16 S :    0.381259
  17 C :   -0.181546
  18 C :   -0.077482
  19 C :   -0.054927
  20 C :   -0.197459
  21 H :    0.035001
  22 C :   -0.026066
  23 H :    0.020792
  24 H :    0.033005
  25 C :   -0.044680
  26 H :    0.030966
  27 H :    0.020898
  28 C :   -0.042403
  29 H :    0.023201
  30 H :    0.009524
  31 H :    0.020950
  32 H :    0.027568
  33 H :    0.039279

  Mayer bond orders larger than 0.100000
B(  0-S ,  1-C ) :   1.1363 B(  0-S ,  4-C ) :   1.1603 B(  1-C ,  2-C ) :   1.5821
B(  1-C , 32-H ) :   0.9653 B(  2-C ,  3-C ) :   1.2764 B(  2-C ,  6-C ) :   1.0447
B(  3-C ,  4-C ) :   1.5248 B(  3-C ,  5-H ) :   0.9921 B(  4-C , 20-C ) :   1.0754
B(  6-C ,  7-H ) :   0.9349 B(  6-C ,  8-H ) :   0.9284 B(  6-C ,  9-C ) :   1.0614
B(  9-C , 10-H ) :   0.9472 B(  9-C , 11-H ) :   0.9533 B(  9-C , 12-C ) :   1.0732
B( 12-C , 13-H ) :   0.9729 B( 12-C , 14-H ) :   0.9762 B( 12-C , 15-H ) :   0.9734
B( 16-S , 17-C ) :   1.1385 B( 16-S , 20-C ) :   1.1393 B( 17-C , 18-C ) :   1.6237
B( 17-C , 33-H ) :   0.9659 B( 18-C , 19-C ) :   1.2090 B( 18-C , 21-H ) :   0.9907
B( 19-C , 20-C ) :   1.5806 B( 19-C , 22-C ) :   1.0411 B( 22-C , 23-H ) :   0.9251
B( 22-C , 24-H ) :   0.9362 B( 22-C , 25-C ) :   1.0602 B( 25-C , 26-H ) :   0.9597
B( 25-C , 27-H ) :   0.9554 B( 25-C , 28-C ) :   1.0752 B( 28-C , 29-H ) :   0.9662
B( 28-C , 30-H ) :   0.9711 B( 28-C , 31-H ) :   0.9705

Dispersion correction           -0.013696946
FINAL SINGLE POINT ENERGY     -1339.860247660545

DIPOLE MOMENT
-------------
                                X             Y             Z
Electronic contribution:    -24.97046     -17.26028      -5.21497
Nuclear contribution   :     25.45868      17.67220       5.52125
                        -----------------------------------------
Total Dipole Moment    :      0.48823       0.41192       0.30628
                        -----------------------------------------
Magnitude (a.u.)       :      0.70841
Magnitude (Debye)      :      1.80064

Rotational constants in cm-1:     0.016432     0.008933     0.006397
Rotational constants in MHz :   492.626461   267.792390   191.787010

                             ****ORCA TERMINATED NORMALLY****
TOTAL RUN TIME: 0 days 0 hours 0 minutes 20 seconds 263 msec
