                         Program Version 4.2.1 -  RELEASE  -
|  1> ! wB97X-D3 SP def2-SVP
|  2> %pal
|  3> nprocs 24
|  4> end
|  5>
|  6> * xyz 0 1
|  7> S 	 -101.957 	 -0.630792 	 -104.841
|  8> C 	 -102.018 	 -1.71434 	 -106.172
|  9> C 	 -101.874 	 -3.05531 	 -105.818
| 10> C 	 -101.681 	 -3.14561 	 -104.419
| 11> C 	 -101.55 	 -1.9191 	 -103.709
| 12> H 	 -101.523 	 -4.00781 	 -103.775
| 13> C 	 -101.922 	 -4.25013 	 -106.747
| 14> H 	 -102.498 	 -3.9316 	 -107.628
| 15> H 	 -102.364 	 -5.14869 	 -106.309
| 16> C 	 -100.489 	 -4.69343 	 -107.267
| 17> H 	 -100.086 	 -3.93043 	 -107.931
| 18> H 	 -99.7233 	 -4.55692 	 -106.437
| 19> C 	 -100.589 	 -6.12127 	 -107.919
| 20> H 	 -100.896 	 -6.87533 	 -107.117
| 21> H 	 -101.247 	 -6.12478 	 -108.786
| 22> H 	 -99.6185 	 -6.41966 	 -108.307
| 23> S 	 -100.081 	 -2.72486 	 -101.571
| 24> C 	 -100.398 	 -2.10592 	 -99.9841
| 25> C 	 -101.313 	 -1.08542 	 -99.9903
| 26> C 	 -101.848 	 -0.933318 	 -101.298
| 27> C 	 -101.273 	 -1.70808 	 -102.287
| 28> H 	 -101.628 	 -0.425601 	 -99.1212
| 29> C 	 -102.844 	 0.195314 	 -101.582
| 30> H 	 -103.219 	 0.104424 	 -102.554
| 31> H 	 -102.262 	 1.10345 	 -101.435
| 32> C 	 -104.118 	 0.313428 	 -100.662
| 33> H 	 -104.86 	 1.11136 	 -100.992
| 34> H 	 -103.717 	 0.612486 	 -99.6952
| 35> C 	 -104.969 	 -1.01055 	 -100.684
| 36> H 	 -104.255 	 -1.74949 	 -100.272
| 37> H 	 -105.243 	 -1.22515 	 -101.689
| 38> H 	 -105.846 	 -0.858952 	 -100.121
| 39> H 	 -102.102 	 -1.34973 	 -107.189
| 40> H 	 -99.7945 	 -2.28233 	 -99.1301
| 41> *
| 42>
| 43>                          ****END OF INPUT****

CARTESIAN COORDINATES (ANGSTROEM)
---------------------------------
  S    -101.957000   -0.630792  -104.841000
  C    -102.018000   -1.714340  -106.172000
  C    -101.874000   -3.055310  -105.818000
  C    -101.681000   -3.145610  -104.419000
  C    -101.550000   -1.919100  -103.709000
  H    -101.523000   -4.007810  -103.775000
  C    -101.922000   -4.250130  -106.747000
  H    -102.498000   -3.931600  -107.628000
  H    -102.364000   -5.148690  -106.309000
  C    -100.489000   -4.693430  -107.267000
  H    -100.086000   -3.930430  -107.931000
  H    -99.723300   -4.556920  -106.437000
  C    -100.589000   -6.121270  -107.919000
  H    -100.896000   -6.875330  -107.117000
  H    -101.247000   -6.124780  -108.786000
  H    -99.618500   -6.419660  -108.307000
  S    -100.081000   -2.724860  -101.571000
  C    -100.398000   -2.105920  -99.984100
  C    -101.313000   -1.085420  -99.990300
  C    -101.848000   -0.933318  -101.298000
  C    -101.273000   -1.708080  -102.287000
  H    -101.628000   -0.425601  -99.121200
  C    -102.844000    0.195314  -101.582000
  H    -103.219000    0.104424  -102.554000
  H    -102.262000    1.103450  -101.435000
  C    -104.118000    0.313428  -100.662000
  H    -104.860000    1.111360  -100.992000
  H    -103.717000    0.612486  -99.695200
  C    -104.969000   -1.010550  -100.684000
  H    -104.255000   -1.749490  -100.272000
  H    -105.243000   -1.225150  -101.689000
  H    -105.846000   -0.858952  -100.121000
  H    -102.102000   -1.349730  -107.189000
  H    -99.794500   -2.282330  -99.130100

 Total Charge           Charge          ....    0
 Multiplicity           Mult            ....    1
 Number of Electrons    NEL             ....  134
 Basis Dimension        Dim             ....  322

ORBITAL ENERGIES
----------------

  NO   OCC          E(Eh)            E(eV)
   0   2.0000     -88.968723     -2420.9620
   1   2.0000     -88.967848     -2420.9382
   2   2.0000     -10.334245      -281.2091
   3   2.0000     -10.326825      -281.0072
   4   2.0000     -10.315657      -280.7033
   5   2.0000     -10.314503      -280.6719
   6   2.0000     -10.304551      -280.4011
   7   2.0000     -10.301246      -280.3111
   8   2.0000     -10.299443      -280.2621
   9   2.0000     -10.297501      -280.2093
  10   2.0000     -10.296650      -280.1861
  11   2.0000     -10.295360      -280.1510
  12   2.0000     -10.290706      -280.0243
  13   2.0000     -10.289318      -279.9866
  14   2.0000     -10.284360      -279.8517
  15   2.0000     -10.269545      -279.4485
  16   2.0000      -8.083229      -219.9558
  17   2.0000      -8.083169      -219.9542
  18   2.0000      -6.041725      -164.4037
  19   2.0000      -6.041597      -164.4002
  20   2.0000      -6.037578      -164.2908
  21   2.0000      -6.037558      -164.2903
  22   2.0000      -6.034205      -164.1991
  23   2.0000      -6.034034      -164.1944
  24   2.0000      -1.011412       -27.5219
  25   2.0000      -0.988888       -26.9090
  26   2.0000      -0.904058       -24.6007
  27   2.0000      -0.901631       -24.5346
  28   2.0000      -0.871248       -23.7079
  29   2.0000      -0.848925       -23.1004
  30   2.0000      -0.841924       -22.9099
  31   2.0000      -0.813284       -22.1306
  32   2.0000      -0.780026       -21.2256
  33   2.0000      -0.770208       -20.9584
  34   2.0000      -0.704058       -19.1584
  35   2.0000      -0.700267       -19.0552
  36   2.0000      -0.691400       -18.8140
  37   2.0000      -0.664744       -18.0886
  38   2.0000      -0.640567       -17.4307
  39   2.0000      -0.613229       -16.6868
  40   2.0000      -0.595788       -16.2122
  41   2.0000      -0.574240       -15.6259
  42   2.0000      -0.554209       -15.0808
  43   2.0000      -0.552919       -15.0457
  44   2.0000      -0.543573       -14.7914
  45   2.0000      -0.518198       -14.1009
  46   2.0000      -0.516107       -14.0440
  47   2.0000      -0.508791       -13.8449
  48   2.0000      -0.505011       -13.7421
  49   2.0000      -0.496609       -13.5134
  50   2.0000      -0.489944       -13.3321
  51   2.0000      -0.478004       -13.0071
  52   2.0000      -0.469022       -12.7627
  53   2.0000      -0.467273       -12.7152
  54   2.0000      -0.463794       -12.6205
  55   2.0000      -0.448424       -12.2022
  56   2.0000      -0.447060       -12.1651
  57   2.0000      -0.437500       -11.9050
  58   2.0000      -0.433095       -11.7851
  59   2.0000      -0.428417       -11.6578
  60   2.0000      -0.417018       -11.3476
  61   2.0000      -0.414238       -11.2720
  62   2.0000      -0.400763       -10.9053
  63   2.0000      -0.354871        -9.6565
  64   2.0000      -0.333834        -9.0841
  65   2.0000      -0.329927        -8.9778
  66   2.0000      -0.286472        -7.7953
  67   0.0000       0.027238         0.7412
  68   0.0000       0.072784         1.9805
  69   0.0000       0.110519         3.0074
  70   0.0000       0.118743         3.2312
  71   0.0000       0.134945         3.6721

MULLIKEN ATOMIC CHARGES
-----------------------
   0 S :    0.115440
   1 C :   -0.123331
   2 C :   -0.064097
   3 C :    0.017004
   4 C :   -0.173037
   5 H :    0.011713
   6 C :    0.066644
   7 H :    0.029064
   8 H :    0.032292
   9 C :   -0.105937
  10 H :    0.021808
  11 H :    0.039032
  12 C :   -0.054664
  13 H :    0.051966
  14 H :    0.039414
  15 H :    0.034286
  16 S :    0.109211
  17 C :   -0.071227
  18 C :   -0.049539
  19 C :   -0.079522
  20 C :   -0.133567
  21 H :    0.050119
  22 C :    0.077573
  23 H :    0.004763
  24 H :    0.045524
  25 C :   -0.131224
  26 H :    0.040136
  27 H :    0.020821
  28 C :   -0.024297
  29 H :    0.049018
  30 H :    0.028642
  31 H :    0.029635
  32 H :    0.048891
  33 H :    0.047449
Sum of atomic charges:    0.0000000

LOEWDIN ATOMIC CHARGES
----------------------
   0 S :    0.428361
   1 C :   -0.205625
   2 C :   -0.067239
   3 C :   -0.064509
   4 C :   -0.195596
   5 H :    0.026298
   6 C :   -0.029505
   7 H :    0.032497
   8 H :    0.031630
   9 C :   -0.047287
  10 H :    0.020123
  11 H :    0.029742
  12 C :   -0.069529
  13 H :    0.035776
  14 H :    0.026487
  15 H :    0.025424
  16 S :    0.433268
  17 C :   -0.184726
  18 C :   -0.076521
  19 C :   -0.063769
  20 C :   -0.210758
  21 H :    0.046889
  22 C :   -0.030747
  23 H :    0.006683
  24 H :    0.036021
  25 C :   -0.042246
  26 H :    0.029829
  27 H :    0.011909
  28 C :   -0.056788
  29 H :    0.032015
  30 H :    0.022367
  31 H :    0.018496
  32 H :    0.026953
  33 H :    0.024078

  Mayer bond orders larger than 0.100000
B(  0-S ,  1-C ) :   1.1706 B(  0-S ,  4-C ) :   1.1563 B(  1-C ,  2-C ) :   1.5687
B(  1-C ,  4-C ) :   0.1052 B(  1-C , 32-H ) :   0.9669 B(  2-C ,  3-C ) :   1.2636
B(  2-C ,  6-C ) :   1.0315 B(  3-C ,  4-C ) :   1.5491 B(  3-C ,  5-H ) :   0.9883
B(  4-C , 20-C ) :   1.0356 B(  6-C ,  7-H ) :   0.9376 B(  6-C ,  8-H ) :   0.9506
B(  6-C ,  9-C ) :   1.0403 B(  9-C , 10-H ) :   0.9551 B(  9-C , 11-H ) :   0.9634
B(  9-C , 12-C ) :   1.0654 B( 12-C , 13-H ) :   0.9758 B( 12-C , 14-H ) :   0.9747
B( 12-C , 15-H ) :   0.9750 B( 16-S , 17-C ) :   1.1711 B( 16-S , 20-C ) :   1.1418
B( 17-C , 18-C ) :   1.5879 B( 17-C , 33-H ) :   0.9673 B( 18-C , 19-C ) :   1.2580
B( 18-C , 21-H ) :   0.9782 B( 19-C , 20-C ) :   1.5847 B( 19-C , 22-C ) :   1.0304
B( 22-C , 23-H ) :   0.9333 B( 22-C , 24-H ) :   0.9436 B( 22-C , 25-C ) :   1.0648
B( 25-C , 26-H ) :   0.9606 B( 25-C , 27-H ) :   0.9590 B( 25-C , 28-C ) :   1.0642
B( 28-C , 29-H ) :   0.9747 B( 28-C , 30-H ) :   0.9769 B( 28-C , 31-H ) :   0.9771

Dispersion correction           -0.014052001
FINAL SINGLE POINT ENERGY     -1339.878502226160

DIPOLE MOMENT
-------------
                                X             Y             Z
Electronic contribution:      9.35539       7.41241       6.35120
Nuclear contribution   :     -9.43303      -7.46165      -6.43390
                        -----------------------------------------
Total Dipole Moment    :     -0.07764      -0.04924      -0.08270
                        -----------------------------------------
Magnitude (a.u.)       :      0.12366
Magnitude (Debye)      :      0.31431

Rotational constants in cm-1:     0.023220     0.007286     0.006252
Rotational constants in MHz :   696.124375   218.417565   187.418531

                             ****ORCA TERMINATED NORMALLY****
TOTAL RUN TIME: 0 days 0 hours 0 minutes 22 seconds 4 msec
