                         Program Version 4.2.1 -  RELEASE  -
|  1> ! wB97X-D3 SP def2-SVP
|  2> %pal
|  3> nprocs 24
|  4> end
|  5>
|  6> * xyz 0 1
|  7> S 	 -71.8416 	 4.32242 	 16.7971
|  8> C 	 -70.6512 	 3.29615 	 16.1586
|  9> C 	 -70.6865 	 2.001 	 16.707
| 10> C 	 -71.7979 	 1.83682 	 17.6307
| 11> C 	 -72.6153 	 3.00404 	 17.6001
| 12> H 	 -71.9971 	 0.916978 	 18.1653
| 13> C 	 -69.8231 	 0.839431 	 16.3133
| 14> H 	 -70.1112 	 0.572232 	 15.3166
| 15> H 	 -70.1112 	 -0.0114236 	 16.9146
| 16> C 	 -68.2818 	 1.03646 	 16.3635
| 17> H 	 -67.7233 	 0.126583 	 16.0848
| 18> H 	 -67.9851 	 1.72879 	 15.5451
| 19> C 	 -67.6899 	 1.53998 	 17.656
| 20> H 	 -68.2714 	 2.38635 	 17.9748
| 21> H 	 -67.8973 	 0.753499 	 18.4004
| 22> H 	 -66.5975 	 1.63432 	 17.7418
| 23> S 	 -75.0018 	 4.10674 	 17.4219
| 24> C 	 -76.0779 	 4.28058 	 18.7508
| 25> C 	 -75.6242 	 3.47998 	 19.8266
| 26> C 	 -74.3968 	 2.79343 	 19.4948
| 27> C 	 -73.8672 	 3.17504 	 18.2662
| 28> H 	 -76.1644 	 3.41247 	 20.8123
| 29> C 	 -73.7853 	 1.85919 	 20.4656
| 30> H 	 -73.4084 	 1.00066 	 20.0734
| 31> H 	 -74.5962 	 1.43153 	 21.0393
| 32> C 	 -72.8178 	 2.54491 	 21.4287
| 33> H 	 -73.2258 	 3.53976 	 21.8234
| 34> H 	 -71.8857 	 2.7805 	 20.857
| 35> C 	 -72.5977 	 1.67851 	 22.7232
| 36> H 	 -72.3689 	 0.704768 	 22.4258
| 37> H 	 -73.5365 	 1.72476 	 23.2486
| 38> H 	 -71.768 	 2.16395 	 23.2784
| 39> H 	 -69.952 	 3.48061 	 15.392
| 40> H 	 -77.1491 	 4.63992 	 18.5278
| 41> *
| 42>
| 43>                          ****END OF INPUT****

CARTESIAN COORDINATES (ANGSTROEM)
---------------------------------
  S    -71.841600    4.322420   16.797100
  C    -70.651200    3.296150   16.158600
  C    -70.686500    2.001000   16.707000
  C    -71.797900    1.836820   17.630700
  C    -72.615300    3.004040   17.600100
  H    -71.997100    0.916978   18.165300
  C    -69.823100    0.839431   16.313300
  H    -70.111200    0.572232   15.316600
  H    -70.111200   -0.011424   16.914600
  C    -68.281800    1.036460   16.363500
  H    -67.723300    0.126583   16.084800
  H    -67.985100    1.728790   15.545100
  C    -67.689900    1.539980   17.656000
  H    -68.271400    2.386350   17.974800
  H    -67.897300    0.753499   18.400400
  H    -66.597500    1.634320   17.741800
  S    -75.001800    4.106740   17.421900
  C    -76.077900    4.280580   18.750800
  C    -75.624200    3.479980   19.826600
  C    -74.396800    2.793430   19.494800
  C    -73.867200    3.175040   18.266200
  H    -76.164400    3.412470   20.812300
  C    -73.785300    1.859190   20.465600
  H    -73.408400    1.000660   20.073400
  H    -74.596200    1.431530   21.039300
  C    -72.817800    2.544910   21.428700
  H    -73.225800    3.539760   21.823400
  H    -71.885700    2.780500   20.857000
  C    -72.597700    1.678510   22.723200
  H    -72.368900    0.704768   22.425800
  H    -73.536500    1.724760   23.248600
  H    -71.768000    2.163950   23.278400
  H    -69.952000    3.480610   15.392000
  H    -77.149100    4.639920   18.527800

 Total Charge           Charge          ....    0
 Multiplicity           Mult            ....    1
 Number of Electrons    NEL             ....  134
 Basis Dimension        Dim             ....  322

ORBITAL ENERGIES
----------------

  NO   OCC          E(Eh)            E(eV)
   0   2.0000     -88.973437     -2421.0903
   1   2.0000     -88.961315     -2420.7604
   2   2.0000     -10.331272      -281.1282
   3   2.0000     -10.322513      -280.8899
   4   2.0000     -10.319823      -280.8167
   5   2.0000     -10.305483      -280.4264
   6   2.0000     -10.304615      -280.4028
   7   2.0000     -10.302616      -280.3484
   8   2.0000     -10.302299      -280.3398
   9   2.0000     -10.299486      -280.2633
  10   2.0000     -10.291508      -280.0462
  11   2.0000     -10.290412      -280.0163
  12   2.0000     -10.288841      -279.9736
  13   2.0000     -10.278684      -279.6972
  14   2.0000     -10.275733      -279.6169
  15   2.0000     -10.272553      -279.5304
  16   2.0000      -8.088769      -220.1066
  17   2.0000      -8.077917      -219.8113
  18   2.0000      -6.047202      -164.5527
  19   2.0000      -6.043122      -164.4417
  20   2.0000      -6.039628      -164.3466
  21   2.0000      -6.036211      -164.2537
  22   2.0000      -6.031861      -164.1353
  23   2.0000      -6.029074      -164.0595
  24   2.0000      -1.015817       -27.6418
  25   2.0000      -0.988198       -26.8902
  26   2.0000      -0.914640       -24.8886
  27   2.0000      -0.911467       -24.8023
  28   2.0000      -0.869721       -23.6663
  29   2.0000      -0.854137       -23.2422
  30   2.0000      -0.846896       -23.0452
  31   2.0000      -0.809801       -22.0358
  32   2.0000      -0.783698       -21.3255
  33   2.0000      -0.773019       -21.0349
  34   2.0000      -0.703887       -19.1537
  35   2.0000      -0.700152       -19.0521
  36   2.0000      -0.690689       -18.7946
  37   2.0000      -0.666661       -18.1408
  38   2.0000      -0.637204       -17.3392
  39   2.0000      -0.615467       -16.7477
  40   2.0000      -0.597227       -16.2514
  41   2.0000      -0.571042       -15.5388
  42   2.0000      -0.560132       -15.2420
  43   2.0000      -0.555692       -15.1212
  44   2.0000      -0.544613       -14.8197
  45   2.0000      -0.530083       -14.4243
  46   2.0000      -0.516756       -14.0616
  47   2.0000      -0.505919       -13.7667
  48   2.0000      -0.503786       -13.7087
  49   2.0000      -0.502269       -13.6674
  50   2.0000      -0.496550       -13.5118
  51   2.0000      -0.478244       -13.0137
  52   2.0000      -0.475033       -12.9263
  53   2.0000      -0.464160       -12.6304
  54   2.0000      -0.459210       -12.4957
  55   2.0000      -0.451065       -12.2741
  56   2.0000      -0.444752       -12.1023
  57   2.0000      -0.441271       -12.0076
  58   2.0000      -0.435103       -11.8398
  59   2.0000      -0.423304       -11.5187
  60   2.0000      -0.416251       -11.3268
  61   2.0000      -0.415165       -11.2972
  62   2.0000      -0.406406       -11.0589
  63   2.0000      -0.352084        -9.5807
  64   2.0000      -0.330556        -8.9949
  65   2.0000      -0.325863        -8.8672
  66   2.0000      -0.281797        -7.6681
  67   0.0000       0.022552         0.6137
  68   0.0000       0.073346         1.9958
  69   0.0000       0.108936         2.9643
  70   0.0000       0.114619         3.1189
  71   0.0000       0.132303         3.6001

MULLIKEN ATOMIC CHARGES
-----------------------
   0 S :    0.155817
   1 C :   -0.088761
   2 C :   -0.135573
   3 C :    0.013169
   4 C :   -0.137041
   5 H :    0.013952
   6 C :    0.103887
   7 H :    0.036700
   8 H :    0.009733
   9 C :   -0.096940
  10 H :    0.025843
  11 H :    0.023028
  12 C :   -0.041193
  13 H :    0.040361
  14 H :    0.012362
  15 H :    0.042686
  16 S :    0.105188
  17 C :   -0.131808
  18 C :   -0.059050
  19 C :   -0.047009
  20 C :   -0.149715
  21 H :    0.044822
  22 C :    0.113752
  23 H :   -0.010551
  24 H :   -0.004413
  25 C :   -0.124977
  26 H :    0.036899
  27 H :    0.044260
  28 C :   -0.018124
  29 H :    0.018982
  30 H :    0.033978
  31 H :    0.046427
  32 H :    0.025973
  33 H :    0.097335
Sum of atomic charges:    0.0000000

LOEWDIN ATOMIC CHARGES
----------------------
   0 S :    0.455445
   1 C :   -0.223814
   2 C :   -0.057381
   3 C :   -0.063662
   4 C :   -0.202582
   5 H :    0.029045
   6 C :   -0.029269
   7 H :    0.037175
   8 H :    0.027233
   9 C :   -0.047745
  10 H :    0.025340
  11 H :    0.020228
  12 C :   -0.071631
  13 H :    0.024330
  14 H :    0.024263
  15 H :    0.031030
  16 S :    0.446390
  17 C :   -0.223253
  18 C :   -0.074001
  19 C :   -0.054382
  20 C :   -0.220917
  21 H :    0.041548
  22 C :   -0.035124
  23 H :    0.013392
  24 H :    0.030125
  25 C :   -0.038410
  26 H :    0.029103
  27 H :    0.026393
  28 C :   -0.056773
  29 H :    0.012319
  30 H :    0.024235
  31 H :    0.033290
  32 H :    0.020107
  33 H :    0.047951

  Mayer bond orders larger than 0.100000
B(  0-S ,  1-C ) :   1.1438 B(  0-S ,  4-C ) :   1.1828 B(  1-C ,  2-C ) :   1.5723
B(  1-C , 32-H ) :   0.9721 B(  2-C ,  3-C ) :   1.2724 B(  2-C ,  6-C ) :   1.0237
B(  3-C ,  4-C ) :   1.5005 B(  3-C ,  5-H ) :   0.9957 B(  4-C , 20-C ) :   1.0815
B(  6-C ,  7-H ) :   0.9339 B(  6-C ,  8-H ) :   0.9401 B(  6-C ,  9-C ) :   1.0692
B(  9-C , 10-H ) :   0.9557 B(  9-C , 11-H ) :   0.9539 B(  9-C , 12-C ) :   1.0782
B( 12-C , 13-H ) :   0.9715 B( 12-C , 14-H ) :   0.9713 B( 12-C , 15-H ) :   0.9732
B( 16-S , 17-C ) :   1.1848 B( 16-S , 20-C ) :   1.1696 B( 17-C , 18-C ) :   1.5365
B( 17-C , 20-C ) :   0.1042 B( 17-C , 33-H ) :   0.9566 B( 18-C , 19-C ) :   1.2977
B( 18-C , 21-H ) :   0.9807 B( 19-C , 20-C ) :   1.5215 B( 19-C , 22-C ) :   1.0579
B( 22-C , 23-H ) :   0.9246 B( 22-C , 24-H ) :   0.9211 B( 22-C , 25-C ) :   1.0507
B( 25-C , 26-H ) :   0.9620 B( 25-C , 27-H ) :   0.9565 B( 25-C , 28-C ) :   1.0627
B( 28-C , 29-H ) :   0.9771 B( 28-C , 30-H ) :   0.9784 B( 28-C , 31-H ) :   0.9758

Dispersion correction           -0.014368213
FINAL SINGLE POINT ENERGY     -1339.864728701598

DIPOLE MOMENT
-------------
                                X             Y             Z
Electronic contribution:    -18.08068      16.08035     -14.78210
Nuclear contribution   :     18.19143     -16.62551      15.00678
                        -----------------------------------------
Total Dipole Moment    :      0.11074      -0.54516       0.22468
                        -----------------------------------------
Magnitude (a.u.)       :      0.59996
Magnitude (Debye)      :      1.52496

Rotational constants in cm-1:     0.019086     0.008926     0.006629
Rotational constants in MHz :   572.196487   267.608561   198.743113

                             ****ORCA TERMINATED NORMALLY****
TOTAL RUN TIME: 0 days 0 hours 0 minutes 20 seconds 508 msec
