                         Program Version 4.2.1 -  RELEASE  -
|  1> ! wB97X-D3 SP def2-SVP
|  2> %pal
|  3> nprocs 24
|  4> end
|  5>
|  6> * xyz 0 1
|  7> S 	 -146.685 	 30.8377 	 -14.8425
|  8> C 	 -145.893 	 30.5528 	 -16.3697
|  9> C 	 -145.109 	 29.4141 	 -16.3148
| 10> C 	 -145.14 	 28.7616 	 -15.0154
| 11> C 	 -145.98 	 29.3774 	 -14.1131
| 12> H 	 -144.608 	 27.867 	 -14.7117
| 13> C 	 -144.235 	 28.938 	 -17.4057
| 14> H 	 -143.182 	 28.988 	 -17.151
| 15> H 	 -144.446 	 29.5997 	 -18.2697
| 16> C 	 -144.545 	 27.4858 	 -17.8771
| 17> H 	 -144.612 	 26.7427 	 -17.1026
| 18> H 	 -145.544 	 27.5594 	 -18.3942
| 19> C 	 -143.484 	 27.0835 	 -18.9539
| 20> H 	 -143.902 	 26.1765 	 -19.4218
| 21> H 	 -143.349 	 27.8362 	 -19.6954
| 22> H 	 -142.505 	 26.8547 	 -18.4797
| 23> S 	 -147.068 	 27.3414 	 -12.639
| 24> C 	 -147.252 	 27.3854 	 -10.9556
| 25> C 	 -146.889 	 28.6158 	 -10.4678
| 26> C 	 -146.331 	 29.4774 	 -11.4935
| 27> C 	 -146.364 	 28.9215 	 -12.7882
| 28> H 	 -146.956 	 28.8548 	 -9.45355
| 29> C 	 -145.627 	 30.7664 	 -11.1638
| 30> H 	 -145.097 	 31.1075 	 -12.1044
| 31> H 	 -144.785 	 30.4838 	 -10.4891
| 32> C 	 -146.501 	 31.9382 	 -10.6761
| 33> H 	 -145.781 	 32.7909 	 -10.5702
| 34> H 	 -146.954 	 31.7326 	 -9.67812
| 35> C 	 -147.717 	 32.2976 	 -11.5925
| 36> H 	 -147.288 	 32.8162 	 -12.4221
| 37> H 	 -148.409 	 32.9584 	 -11.1101
| 38> H 	 -148.298 	 31.4636 	 -12.0596
| 39> H 	 -145.91 	 31.2597 	 -17.2665
| 40> H 	 -147.806 	 26.7346 	 -10.3644
| 41> *
| 42>
| 43>                          ****END OF INPUT****

CARTESIAN COORDINATES (ANGSTROEM)
---------------------------------
  S    -146.685000   30.837700  -14.842500
  C    -145.893000   30.552800  -16.369700
  C    -145.109000   29.414100  -16.314800
  C    -145.140000   28.761600  -15.015400
  C    -145.980000   29.377400  -14.113100
  H    -144.608000   27.867000  -14.711700
  C    -144.235000   28.938000  -17.405700
  H    -143.182000   28.988000  -17.151000
  H    -144.446000   29.599700  -18.269700
  C    -144.545000   27.485800  -17.877100
  H    -144.612000   26.742700  -17.102600
  H    -145.544000   27.559400  -18.394200
  C    -143.484000   27.083500  -18.953900
  H    -143.902000   26.176500  -19.421800
  H    -143.349000   27.836200  -19.695400
  H    -142.505000   26.854700  -18.479700
  S    -147.068000   27.341400  -12.639000
  C    -147.252000   27.385400  -10.955600
  C    -146.889000   28.615800  -10.467800
  C    -146.331000   29.477400  -11.493500
  C    -146.364000   28.921500  -12.788200
  H    -146.956000   28.854800   -9.453550
  C    -145.627000   30.766400  -11.163800
  H    -145.097000   31.107500  -12.104400
  H    -144.785000   30.483800  -10.489100
  C    -146.501000   31.938200  -10.676100
  H    -145.781000   32.790900  -10.570200
  H    -146.954000   31.732600   -9.678120
  C    -147.717000   32.297600  -11.592500
  H    -147.288000   32.816200  -12.422100
  H    -148.409000   32.958400  -11.110100
  H    -148.298000   31.463600  -12.059600
  H    -145.910000   31.259700  -17.266500
  H    -147.806000   26.734600  -10.364400

 Total Charge           Charge          ....    0
 Multiplicity           Mult            ....    1
 Number of Electrons    NEL             ....  134
 Basis Dimension        Dim             ....  322

ORBITAL ENERGIES
----------------

  NO   OCC          E(Eh)            E(eV)
   0   2.0000     -88.966082     -2420.8902
   1   2.0000     -88.962939     -2420.8046
   2   2.0000     -10.333575      -281.1909
   3   2.0000     -10.326636      -281.0021
   4   2.0000     -10.320850      -280.8446
   5   2.0000     -10.309632      -280.5393
   6   2.0000     -10.304305      -280.3944
   7   2.0000     -10.300985      -280.3041
   8   2.0000     -10.297472      -280.2085
   9   2.0000     -10.293090      -280.0892
  10   2.0000     -10.292853      -280.0828
  11   2.0000     -10.290832      -280.0278
  12   2.0000     -10.290792      -280.0267
  13   2.0000     -10.289238      -279.9844
  14   2.0000     -10.280482      -279.7461
  15   2.0000     -10.271391      -279.4988
  16   2.0000      -8.080117      -219.8712
  17   2.0000      -8.078872      -219.8373
  18   2.0000      -6.038788      -164.3238
  19   2.0000      -6.037291      -164.2830
  20   2.0000      -6.034633      -164.2107
  21   2.0000      -6.032964      -164.1653
  22   2.0000      -6.030815      -164.1068
  23   2.0000      -6.029877      -164.0813
  24   2.0000      -1.008072       -27.4310
  25   2.0000      -0.985757       -26.8238
  26   2.0000      -0.911056       -24.7911
  27   2.0000      -0.901903       -24.5420
  28   2.0000      -0.872963       -23.7545
  29   2.0000      -0.845776       -23.0147
  30   2.0000      -0.841136       -22.8885
  31   2.0000      -0.818053       -22.2604
  32   2.0000      -0.779916       -21.2226
  33   2.0000      -0.766279       -20.8515
  34   2.0000      -0.710270       -19.3274
  35   2.0000      -0.696166       -18.9436
  36   2.0000      -0.688680       -18.7399
  37   2.0000      -0.660404       -17.9705
  38   2.0000      -0.638205       -17.3665
  39   2.0000      -0.619586       -16.8598
  40   2.0000      -0.593818       -16.1586
  41   2.0000      -0.574237       -15.6258
  42   2.0000      -0.565161       -15.3788
  43   2.0000      -0.548193       -14.9171
  44   2.0000      -0.536352       -14.5949
  45   2.0000      -0.522761       -14.2250
  46   2.0000      -0.519132       -14.1263
  47   2.0000      -0.507349       -13.8057
  48   2.0000      -0.506918       -13.7939
  49   2.0000      -0.501694       -13.6518
  50   2.0000      -0.488094       -13.2817
  51   2.0000      -0.479109       -13.0372
  52   2.0000      -0.471264       -12.8237
  53   2.0000      -0.463477       -12.6119
  54   2.0000      -0.454806       -12.3759
  55   2.0000      -0.444135       -12.0855
  56   2.0000      -0.443548       -12.0695
  57   2.0000      -0.440056       -11.9745
  58   2.0000      -0.437912       -11.9162
  59   2.0000      -0.424691       -11.5564
  60   2.0000      -0.416508       -11.3338
  61   2.0000      -0.409648       -11.1471
  62   2.0000      -0.402461       -10.9515
  63   2.0000      -0.346734        -9.4351
  64   2.0000      -0.330081        -8.9820
  65   2.0000      -0.323838        -8.8121
  66   2.0000      -0.298834        -8.1317
  67   0.0000       0.034005         0.9253
  68   0.0000       0.068812         1.8725
  69   0.0000       0.107190         2.9168
  70   0.0000       0.119753         3.2586
  71   0.0000       0.130678         3.5559

MULLIKEN ATOMIC CHARGES
-----------------------
   0 S :    0.107303
   1 C :   -0.140231
   2 C :   -0.076671
   3 C :    0.032311
   4 C :   -0.147790
   5 H :    0.018035
   6 C :    0.054832
   7 H :    0.037406
   8 H :    0.017034
   9 C :   -0.120796
  10 H :    0.037708
  11 H :    0.038412
  12 C :   -0.040375
  13 H :    0.037980
  14 H :    0.026288
  15 H :    0.038941
  16 S :    0.117025
  17 C :   -0.051827
  18 C :   -0.023824
  19 C :   -0.044458
  20 C :   -0.166552
  21 H :   -0.000668
  22 C :    0.018113
  23 H :    0.030781
  24 H :    0.047321
  25 C :   -0.084542
  26 H :    0.042970
  27 H :    0.032149
  28 C :   -0.055962
  29 H :    0.021798
  30 H :    0.031626
  31 H :    0.050876
  32 H :    0.076129
  33 H :    0.038657
Sum of atomic charges:   -0.0000000

LOEWDIN ATOMIC CHARGES
----------------------
   0 S :    0.402637
   1 C :   -0.211534
   2 C :   -0.067714
   3 C :   -0.057770
   4 C :   -0.185639
   5 H :    0.032837
   6 C :   -0.036830
   7 H :    0.030047
   8 H :    0.032311
   9 C :   -0.036656
  10 H :    0.018356
  11 H :    0.030501
  12 C :   -0.063988
  13 H :    0.029501
  14 H :    0.018525
  15 H :    0.027390
  16 S :    0.441229
  17 C :   -0.192302
  18 C :   -0.064965
  19 C :   -0.055393
  20 C :   -0.215289
  21 H :    0.021308
  22 C :   -0.045797
  23 H :    0.032540
  24 H :    0.039194
  25 C :   -0.042723
  26 H :    0.031515
  27 H :    0.020705
  28 C :   -0.071504
  29 H :    0.017430
  30 H :    0.023305
  31 H :    0.030996
  32 H :    0.046517
  33 H :    0.021258

  Mayer bond orders larger than 0.100000
B(  0-S ,  1-C ) :   1.1272 B(  0-S ,  4-C ) :   1.1336 B(  1-C ,  2-C ) :   1.6316
B(  1-C , 32-H ) :   0.9538 B(  2-C ,  3-C ) :   1.2024 B(  2-C ,  6-C ) :   1.0439
B(  3-C ,  4-C ) :   1.5981 B(  3-C ,  5-H ) :   0.9945 B(  4-C , 20-C ) :   1.0390
B(  6-C ,  7-H ) :   0.9417 B(  6-C ,  8-H ) :   0.9378 B(  6-C ,  9-C ) :   1.0508
B(  9-C , 10-H ) :   0.9630 B(  9-C , 11-H ) :   0.9571 B(  9-C , 12-C ) :   1.0777
B( 12-C , 13-H ) :   0.9760 B( 12-C , 14-H ) :   0.9740 B( 12-C , 15-H ) :   0.9760
B( 16-S , 17-C ) :   1.1802 B( 16-S , 20-C ) :   1.1530 B( 17-C , 18-C ) :   1.5792
B( 17-C , 33-H ) :   0.9714 B( 18-C , 19-C ) :   1.2597 B( 18-C , 21-H ) :   1.0016
B( 19-C , 20-C ) :   1.5491 B( 19-C , 22-C ) :   1.0465 B( 22-C , 23-H ) :   0.9368
B( 22-C , 24-H ) :   0.9397 B( 22-C , 25-C ) :   1.0583 B( 25-C , 26-H ) :   0.9588
B( 25-C , 27-H ) :   0.9616 B( 25-C , 28-C ) :   1.0598 B( 28-C , 29-H ) :   0.9749
B( 28-C , 30-H ) :   0.9760 B( 28-C , 31-H ) :   0.9734

Dispersion correction           -0.014776329
FINAL SINGLE POINT ENERGY     -1339.890939129973

DIPOLE MOMENT
-------------
                                X             Y             Z
Electronic contribution:     -8.62412      -4.10498       7.62960
Nuclear contribution   :      8.91811       4.11358      -7.65861
                        -----------------------------------------
Total Dipole Moment    :      0.29399       0.00860      -0.02901
                        -----------------------------------------
Magnitude (a.u.)       :      0.29554
Magnitude (Debye)      :      0.75121

Rotational constants in cm-1:     0.023387     0.007813     0.006367
Rotational constants in MHz :   701.111273   234.234566   190.870947

                             ****ORCA TERMINATED NORMALLY****
TOTAL RUN TIME: 0 days 0 hours 0 minutes 21 seconds 341 msec
