                         Program Version 4.2.1 -  RELEASE  -
|  1> ! wB97X-D3 SP def2-SVP
|  2> %pal
|  3> nprocs 24
|  4> end
|  5>
|  6> * xyz 0 1
|  7> S 	 -84.8465 	 3.14666 	 -112.916
|  8> C 	 -84.2987 	 4.79038 	 -112.752
|  9> C 	 -84.4691 	 5.45569 	 -113.954
| 10> C 	 -85.0039 	 4.57965 	 -115.011
| 11> C 	 -85.231 	 3.30848 	 -114.6
| 12> H 	 -85.2038 	 4.97969 	 -115.959
| 13> C 	 -84.0291 	 6.91727 	 -114.292
| 14> H 	 -84.1742 	 7.37335 	 -113.331
| 15> H 	 -84.8207 	 7.36283 	 -114.945
| 16> C 	 -82.6494 	 7.04094 	 -114.932
| 17> H 	 -82.5004 	 8.06694 	 -114.756
| 18> H 	 -81.9521 	 6.33924 	 -114.403
| 19> C 	 -82.6773 	 6.95372 	 -116.455
| 20> H 	 -83.0725 	 7.86282 	 -116.907
| 21> H 	 -81.6733 	 6.69361 	 -116.853
| 22> H 	 -83.4315 	 6.19785 	 -116.802
| 23> S 	 -86.6142 	 1.05402 	 -114.341
| 24> C 	 -87.0595 	 0.187823 	 -115.707
| 25> C 	 -86.5713 	 0.665916 	 -116.837
| 26> C 	 -85.7185 	 1.78071 	 -116.599
| 27> C 	 -85.7954 	 2.18632 	 -115.3
| 28> H 	 -86.5257 	 0.114009 	 -117.795
| 29> C 	 -84.9698 	 2.42671 	 -117.733
| 30> H 	 -84.2918 	 1.60552 	 -118.138
| 31> H 	 -84.2962 	 3.11333 	 -117.349
| 32> C 	 -85.7527 	 3.19387 	 -118.82
| 33> H 	 -86.1628 	 4.17039 	 -118.493
| 34> H 	 -86.5706 	 2.54894 	 -119.06
| 35> C 	 -85.0307 	 3.45949 	 -120.131
| 36> H 	 -84.2053 	 4.26285 	 -119.988
| 37> H 	 -85.6936 	 3.81312 	 -120.862
| 38> H 	 -84.7464 	 2.5155 	 -120.525
| 39> H 	 -83.7115 	 5.17021 	 -111.955
| 40> H 	 -87.6116 	 -0.771172 	 -115.603
| 41> *
| 42>
| 43>                          ****END OF INPUT****

CARTESIAN COORDINATES (ANGSTROEM)
---------------------------------
  S    -84.846500    3.146660  -112.916000
  C    -84.298700    4.790380  -112.752000
  C    -84.469100    5.455690  -113.954000
  C    -85.003900    4.579650  -115.011000
  C    -85.231000    3.308480  -114.600000
  H    -85.203800    4.979690  -115.959000
  C    -84.029100    6.917270  -114.292000
  H    -84.174200    7.373350  -113.331000
  H    -84.820700    7.362830  -114.945000
  C    -82.649400    7.040940  -114.932000
  H    -82.500400    8.066940  -114.756000
  H    -81.952100    6.339240  -114.403000
  C    -82.677300    6.953720  -116.455000
  H    -83.072500    7.862820  -116.907000
  H    -81.673300    6.693610  -116.853000
  H    -83.431500    6.197850  -116.802000
  S    -86.614200    1.054020  -114.341000
  C    -87.059500    0.187823  -115.707000
  C    -86.571300    0.665916  -116.837000
  C    -85.718500    1.780710  -116.599000
  C    -85.795400    2.186320  -115.300000
  H    -86.525700    0.114009  -117.795000
  C    -84.969800    2.426710  -117.733000
  H    -84.291800    1.605520  -118.138000
  H    -84.296200    3.113330  -117.349000
  C    -85.752700    3.193870  -118.820000
  H    -86.162800    4.170390  -118.493000
  H    -86.570600    2.548940  -119.060000
  C    -85.030700    3.459490  -120.131000
  H    -84.205300    4.262850  -119.988000
  H    -85.693600    3.813120  -120.862000
  H    -84.746400    2.515500  -120.525000
  H    -83.711500    5.170210  -111.955000
  H    -87.611600   -0.771172  -115.603000

 Total Charge           Charge          ....    0
 Multiplicity           Mult            ....    1
 Number of Electrons    NEL             ....  134
 Basis Dimension        Dim             ....  322

ORBITAL ENERGIES
----------------

  NO   OCC          E(Eh)            E(eV)
   0   2.0000     -88.961413     -2420.7631
   1   2.0000     -88.961103     -2420.7547
   2   2.0000     -10.325016      -280.9580
   3   2.0000     -10.316649      -280.7303
   4   2.0000     -10.310042      -280.5505
   5   2.0000     -10.308012      -280.4953
   6   2.0000     -10.301888      -280.3286
   7   2.0000     -10.295912      -280.1660
   8   2.0000     -10.294121      -280.1173
   9   2.0000     -10.288708      -279.9700
  10   2.0000     -10.287375      -279.9337
  11   2.0000     -10.287249      -279.9303
  12   2.0000     -10.285959      -279.8952
  13   2.0000     -10.285846      -279.8921
  14   2.0000     -10.285798      -279.8908
  15   2.0000     -10.278531      -279.6930
  16   2.0000      -8.079301      -219.8490
  17   2.0000      -8.076622      -219.7760
  18   2.0000      -6.037598      -164.2914
  19   2.0000      -6.035316      -164.2293
  20   2.0000      -6.033476      -164.1792
  21   2.0000      -6.031002      -164.1119
  22   2.0000      -6.029969      -164.0838
  23   2.0000      -6.027159      -164.0073
  24   2.0000      -1.025600       -27.9080
  25   2.0000      -0.990654       -26.9571
  26   2.0000      -0.914064       -24.8729
  27   2.0000      -0.912185       -24.8218
  28   2.0000      -0.877407       -23.8755
  29   2.0000      -0.860905       -23.4264
  30   2.0000      -0.840679       -22.8760
  31   2.0000      -0.820809       -22.3353
  32   2.0000      -0.786474       -21.4010
  33   2.0000      -0.774330       -21.0706
  34   2.0000      -0.704897       -19.1812
  35   2.0000      -0.700610       -19.0646
  36   2.0000      -0.694547       -18.8996
  37   2.0000      -0.665650       -18.1133
  38   2.0000      -0.638089       -17.3633
  39   2.0000      -0.624620       -16.9968
  40   2.0000      -0.604624       -16.4526
  41   2.0000      -0.575625       -15.6635
  42   2.0000      -0.567683       -15.4474
  43   2.0000      -0.547267       -14.8919
  44   2.0000      -0.540375       -14.7044
  45   2.0000      -0.528383       -14.3780
  46   2.0000      -0.523614       -14.2483
  47   2.0000      -0.515986       -14.0407
  48   2.0000      -0.507213       -13.8020
  49   2.0000      -0.502220       -13.6661
  50   2.0000      -0.487340       -13.2612
  51   2.0000      -0.486070       -13.2266
  52   2.0000      -0.471501       -12.8302
  53   2.0000      -0.464645       -12.6436
  54   2.0000      -0.464268       -12.6334
  55   2.0000      -0.454646       -12.3715
  56   2.0000      -0.443940       -12.0802
  57   2.0000      -0.439014       -11.9462
  58   2.0000      -0.438801       -11.9404
  59   2.0000      -0.425776       -11.5860
  60   2.0000      -0.415878       -11.3166
  61   2.0000      -0.413060       -11.2399
  62   2.0000      -0.400627       -10.9016
  63   2.0000      -0.364282        -9.9126
  64   2.0000      -0.335167        -9.1204
  65   2.0000      -0.324008        -8.8167
  66   2.0000      -0.288687        -7.8556
  67   0.0000       0.032068         0.8726
  68   0.0000       0.084713         2.3052
  69   0.0000       0.108921         2.9639
  70   0.0000       0.119744         3.2584
  71   0.0000       0.124016         3.3746

MULLIKEN ATOMIC CHARGES
-----------------------
   0 S :    0.084311
   1 C :   -0.103147
   2 C :   -0.132543
   3 C :    0.018348
   4 C :   -0.092346
   5 H :   -0.020227
   6 C :    0.022820
   7 H :    0.020271
   8 H :    0.029402
   9 C :   -0.008363
  10 H :    0.024698
  11 H :    0.048772
  12 C :   -0.067316
  13 H :    0.029979
  14 H :    0.049380
  15 H :    0.020256
  16 S :    0.110897
  17 C :   -0.083743
  18 C :   -0.024237
  19 C :   -0.084763
  20 C :   -0.117570
  21 H :    0.028709
  22 C :    0.078690
  23 H :    0.035636
  24 H :   -0.008717
  25 C :   -0.068196
  26 H :    0.033608
  27 H :    0.012162
  28 C :   -0.026610
  29 H :    0.046856
  30 H :    0.020834
  31 H :    0.016580
  32 H :    0.040223
  33 H :    0.065343
Sum of atomic charges:   -0.0000000

LOEWDIN ATOMIC CHARGES
----------------------
   0 S :    0.400084
   1 C :   -0.204956
   2 C :   -0.055562
   3 C :   -0.068118
   4 C :   -0.184657
   5 H :    0.016207
   6 C :   -0.033198
   7 H :    0.026030
   8 H :    0.033273
   9 C :   -0.040831
  10 H :    0.024698
  11 H :    0.034512
  12 C :   -0.068140
  13 H :    0.025500
  14 H :    0.032991
  15 H :    0.023087
  16 S :    0.448617
  17 C :   -0.202116
  18 C :   -0.080867
  19 C :   -0.057549
  20 C :   -0.211280
  21 H :    0.038792
  22 C :   -0.034061
  23 H :    0.042347
  24 H :    0.015891
  25 C :   -0.038808
  26 H :    0.025738
  27 H :    0.017730
  28 C :   -0.061152
  29 H :    0.035283
  30 H :    0.020561
  31 H :    0.019549
  32 H :    0.024652
  33 H :    0.035754

  Mayer bond orders larger than 0.100000
B(  0-S ,  1-C ) :   1.1208 B(  0-S ,  4-C ) :   1.1415 B(  1-C ,  2-C ) :   1.6384
B(  1-C , 32-H ) :   0.9727 B(  2-C ,  3-C ) :   1.2206 B(  2-C ,  6-C ) :   1.0158
B(  3-C ,  4-C ) :   1.5787 B(  3-C ,  5-H ) :   1.0064 B(  4-C , 20-C ) :   1.0509
B(  6-C ,  7-H ) :   0.9438 B(  6-C ,  8-H ) :   0.9428 B(  6-C ,  9-C ) :   1.0476
B(  9-C , 10-H ) :   0.9541 B(  9-C , 11-H ) :   0.9581 B(  9-C , 12-C ) :   1.0731
B( 12-C , 13-H ) :   0.9724 B( 12-C , 14-H ) :   0.9733 B( 12-C , 15-H ) :   0.9769
B( 16-S , 17-C ) :   1.1714 B( 16-S , 20-C ) :   1.1443 B( 17-C , 18-C ) :   1.6155
B( 17-C , 33-H ) :   0.9595 B( 18-C , 19-C ) :   1.2422 B( 18-C , 21-H ) :   0.9823
B( 19-C , 20-C ) :   1.6041 B( 19-C , 22-C ) :   1.0612 B( 22-C , 23-H ) :   0.9290
B( 22-C , 24-H ) :   0.9218 B( 22-C , 25-C ) :   1.0557 B( 25-C , 26-H ) :   0.9539
B( 25-C , 27-H ) :   0.9545 B( 25-C , 28-C ) :   1.0944 B( 28-C , 29-H ) :   0.9743
B( 28-C , 30-H ) :   0.9698 B( 28-C , 31-H ) :   0.9718

Dispersion correction           -0.014340357
FINAL SINGLE POINT ENERGY     -1339.863927089543

DIPOLE MOMENT
-------------
                                X             Y             Z
Electronic contribution:    -10.49544     -18.64520      24.17156
Nuclear contribution   :     10.73304      18.95898     -24.75111
                        -----------------------------------------
Total Dipole Moment    :      0.23759       0.31377      -0.57956
                        -----------------------------------------
Magnitude (a.u.)       :      0.70057
Magnitude (Debye)      :      1.78070

Rotational constants in cm-1:     0.016216     0.010670     0.006662
Rotational constants in MHz :   486.157987   319.872278   199.729701

                             ****ORCA TERMINATED NORMALLY****
TOTAL RUN TIME: 0 days 0 hours 0 minutes 22 seconds 168 msec
