                         Program Version 4.2.1 -  RELEASE  -
|  1> ! wB97X-D3 SP def2-SVP
|  2> %pal
|  3> nprocs 24
|  4> end
|  5>
|  6> * xyz 0 1
|  7> S 	 38.9298 	 -4.12218 	 -113.986
|  8> C 	 38.8205 	 -5.73977 	 -113.207
|  9> C 	 37.6341 	 -6.36052 	 -113.533
| 10> C 	 36.8106 	 -5.50291 	 -114.38
| 11> C 	 37.3438 	 -4.23551 	 -114.592
| 12> H 	 35.8019 	 -5.6271 	 -114.759
| 13> C 	 37.2096 	 -7.73737 	 -113.009
| 14> H 	 38.0285 	 -8.34257 	 -112.643
| 15> H 	 37.035 	 -8.28876 	 -113.884
| 16> C 	 36.0236 	 -7.76811 	 -112.031
| 17> H 	 36.3011 	 -7.21267 	 -111.117
| 18> H 	 35.1547 	 -7.3187 	 -112.504
| 19> C 	 35.6061 	 -9.17559 	 -111.608
| 20> H 	 36.5585 	 -9.71782 	 -111.444
| 21> H 	 35.1585 	 -9.22889 	 -110.554
| 22> H 	 35.0981 	 -9.74767 	 -112.403
| 23> S 	 36.9906 	 -1.46009 	 -114.401
| 24> C 	 36.0617 	 -0.581116 	 -115.697
| 25> C 	 35.5865 	 -1.4822 	 -116.594
| 26> C 	 35.8902 	 -2.81816 	 -116.306
| 27> C 	 36.7216 	 -3.04106 	 -115.155
| 28> H 	 34.9151 	 -1.09965 	 -117.379
| 29> C 	 35.1265 	 -3.91873 	 -117.071
| 30> H 	 35.5895 	 -4.80801 	 -116.634
| 31> H 	 35.2034 	 -4.12138 	 -118.194
| 32> C 	 33.5636 	 -3.93074 	 -116.737
| 33> H 	 33.0349 	 -4.60235 	 -117.439
| 34> H 	 33.1239 	 -2.92018 	 -116.816
| 35> C 	 33.2159 	 -4.37345 	 -115.348
| 36> H 	 32.2172 	 -4.04541 	 -114.978
| 37> H 	 33.9044 	 -3.91602 	 -114.574
| 38> H 	 33.2762 	 -5.43859 	 -115.333
| 39> H 	 39.5083 	 -6.15567 	 -112.524
| 40> H 	 35.8338 	 0.516098 	 -115.64
| 41> *
| 42>
| 43>                          ****END OF INPUT****

CARTESIAN COORDINATES (ANGSTROEM)
---------------------------------
  S     38.929800   -4.122180  -113.986000
  C     38.820500   -5.739770  -113.207000
  C     37.634100   -6.360520  -113.533000
  C     36.810600   -5.502910  -114.380000
  C     37.343800   -4.235510  -114.592000
  H     35.801900   -5.627100  -114.759000
  C     37.209600   -7.737370  -113.009000
  H     38.028500   -8.342570  -112.643000
  H     37.035000   -8.288760  -113.884000
  C     36.023600   -7.768110  -112.031000
  H     36.301100   -7.212670  -111.117000
  H     35.154700   -7.318700  -112.504000
  C     35.606100   -9.175590  -111.608000
  H     36.558500   -9.717820  -111.444000
  H     35.158500   -9.228890  -110.554000
  H     35.098100   -9.747670  -112.403000
  S     36.990600   -1.460090  -114.401000
  C     36.061700   -0.581116  -115.697000
  C     35.586500   -1.482200  -116.594000
  C     35.890200   -2.818160  -116.306000
  C     36.721600   -3.041060  -115.155000
  H     34.915100   -1.099650  -117.379000
  C     35.126500   -3.918730  -117.071000
  H     35.589500   -4.808010  -116.634000
  H     35.203400   -4.121380  -118.194000
  C     33.563600   -3.930740  -116.737000
  H     33.034900   -4.602350  -117.439000
  H     33.123900   -2.920180  -116.816000
  C     33.215900   -4.373450  -115.348000
  H     32.217200   -4.045410  -114.978000
  H     33.904400   -3.916020  -114.574000
  H     33.276200   -5.438590  -115.333000
  H     39.508300   -6.155670  -112.524000
  H     35.833800    0.516098  -115.640000

 Total Charge           Charge          ....    0
 Multiplicity           Mult            ....    1
 Number of Electrons    NEL             ....  134
 Basis Dimension        Dim             ....  322

ORBITAL ENERGIES
----------------

  NO   OCC          E(Eh)            E(eV)
   0   2.0000     -88.968379     -2420.9527
   1   2.0000     -88.966144     -2420.8918
   2   2.0000     -10.340592      -281.3818
   3   2.0000     -10.332170      -281.1526
   4   2.0000     -10.327337      -281.0211
   5   2.0000     -10.314638      -280.6756
   6   2.0000     -10.311417      -280.5879
   7   2.0000     -10.310343      -280.5587
   8   2.0000     -10.301462      -280.3170
   9   2.0000     -10.298407      -280.2339
  10   2.0000     -10.295284      -280.1489
  11   2.0000     -10.291567      -280.0478
  12   2.0000     -10.290962      -280.0313
  13   2.0000     -10.289599      -279.9942
  14   2.0000     -10.287376      -279.9337
  15   2.0000     -10.276711      -279.6435
  16   2.0000      -8.081611      -219.9118
  17   2.0000      -8.081104      -219.8980
  18   2.0000      -6.040256      -164.3637
  19   2.0000      -6.039649      -164.3472
  20   2.0000      -6.036241      -164.2545
  21   2.0000      -6.035598      -164.2370
  22   2.0000      -6.032370      -164.1491
  23   2.0000      -6.031758      -164.1325
  24   2.0000      -1.005490       -27.3608
  25   2.0000      -0.980325       -26.6760
  26   2.0000      -0.914421       -24.8827
  27   2.0000      -0.901501       -24.5311
  28   2.0000      -0.874010       -23.7830
  29   2.0000      -0.846269       -23.0282
  30   2.0000      -0.843489       -22.9525
  31   2.0000      -0.817392       -22.2424
  32   2.0000      -0.783734       -21.3265
  33   2.0000      -0.767741       -20.8913
  34   2.0000      -0.708909       -19.2904
  35   2.0000      -0.698683       -19.0121
  36   2.0000      -0.692027       -18.8310
  37   2.0000      -0.654594       -17.8124
  38   2.0000      -0.645659       -17.5693
  39   2.0000      -0.617582       -16.8053
  40   2.0000      -0.596175       -16.2228
  41   2.0000      -0.571511       -15.5516
  42   2.0000      -0.566971       -15.4281
  43   2.0000      -0.549362       -14.9489
  44   2.0000      -0.538727       -14.6595
  45   2.0000      -0.527515       -14.3544
  46   2.0000      -0.518954       -14.1215
  47   2.0000      -0.512321       -13.9410
  48   2.0000      -0.508319       -13.8321
  49   2.0000      -0.503569       -13.7028
  50   2.0000      -0.489417       -13.3177
  51   2.0000      -0.474253       -12.9051
  52   2.0000      -0.465329       -12.6623
  53   2.0000      -0.460042       -12.5184
  54   2.0000      -0.457671       -12.4539
  55   2.0000      -0.449788       -12.2393
  56   2.0000      -0.441313       -12.0088
  57   2.0000      -0.434306       -11.8181
  58   2.0000      -0.428788       -11.6679
  59   2.0000      -0.424517       -11.5517
  60   2.0000      -0.417027       -11.3479
  61   2.0000      -0.411639       -11.2013
  62   2.0000      -0.411542       -11.1986
  63   2.0000      -0.354848        -9.6559
  64   2.0000      -0.334481        -9.1017
  65   2.0000      -0.329553        -8.9676
  66   2.0000      -0.289525        -7.8784
  67   0.0000       0.018956         0.5158
  68   0.0000       0.073904         2.0110
  69   0.0000       0.108192         2.9440
  70   0.0000       0.114386         3.1126
  71   0.0000       0.129510         3.5241

MULLIKEN ATOMIC CHARGES
-----------------------
   0 S :    0.105412
   1 C :   -0.110453
   2 C :   -0.074744
   3 C :    0.033608
   4 C :   -0.151474
   5 H :   -0.003376
   6 C :    0.085536
   7 H :    0.004951
   8 H :    0.012554
   9 C :   -0.057078
  10 H :    0.038218
  11 H :    0.034878
  12 C :   -0.079746
  13 H :    0.016254
  14 H :    0.053651
  15 H :    0.044639
  16 S :    0.088351
  17 C :   -0.128271
  18 C :   -0.013255
  19 C :   -0.025739
  20 C :   -0.138636
  21 H :    0.037961
  22 C :    0.024321
  23 H :    0.009371
  24 H :    0.052940
  25 C :   -0.081914
  26 H :    0.033837
  27 H :    0.033496
  28 C :   -0.081766
  29 H :    0.036389
  30 H :    0.052386
  31 H :    0.032259
  32 H :    0.032428
  33 H :    0.083013
Sum of atomic charges:   -0.0000000

LOEWDIN ATOMIC CHARGES
----------------------
   0 S :    0.407195
   1 C :   -0.179089
   2 C :   -0.049695
   3 C :   -0.070486
   4 C :   -0.202272
   5 H :    0.026170
   6 C :   -0.033621
   7 H :    0.028050
   8 H :    0.027335
   9 C :   -0.040284
  10 H :    0.030747
  11 H :    0.024163
  12 C :   -0.079251
  13 H :    0.023096
  14 H :    0.039799
  15 H :    0.028003
  16 S :    0.373067
  17 C :   -0.169349
  18 C :   -0.074712
  19 C :   -0.058817
  20 C :   -0.192620
  21 H :    0.041998
  22 C :   -0.041452
  23 H :    0.025520
  24 H :    0.041405
  25 C :   -0.043813
  26 H :    0.025766
  27 H :    0.023723
  28 C :   -0.075909
  29 H :    0.030283
  30 H :    0.033918
  31 H :    0.016375
  32 H :    0.021320
  33 H :    0.043439

  Mayer bond orders larger than 0.100000
B(  0-S ,  1-C ) :   1.1137 B(  0-S ,  4-C ) :   1.1582 B(  1-C ,  2-C ) :   1.6385
B(  1-C , 32-H ) :   0.9753 B(  2-C ,  3-C ) :   1.2069 B(  2-C ,  6-C ) :   1.0211
B(  3-C ,  4-C ) :   1.5828 B(  3-C ,  5-H ) :   0.9812 B(  4-C , 20-C ) :   1.0533
B(  6-C ,  7-H ) :   0.9364 B(  6-C ,  8-H ) :   0.9303 B(  6-C ,  9-C ) :   1.0605
B(  9-C , 10-H ) :   0.9559 B(  9-C , 11-H ) :   0.9572 B(  9-C , 12-C ) :   1.0794
B( 12-C , 13-H ) :   0.9716 B( 12-C , 14-H ) :   0.9735 B( 12-C , 15-H ) :   0.9749
B( 16-S , 17-C ) :   1.1367 B( 16-S , 20-C ) :   1.1440 B( 17-C , 18-C ) :   1.6040
B( 17-C , 20-C ) :   0.1085 B( 17-C , 33-H ) :   0.9607 B( 18-C , 19-C ) :   1.2633
B( 18-C , 21-H ) :   0.9844 B( 19-C , 20-C ) :   1.5408 B( 19-C , 22-C ) :   1.0345
B( 22-C , 23-H ) :   0.9392 B( 22-C , 24-H ) :   0.9465 B( 22-C , 25-C ) :   1.0442
B( 25-C , 26-H ) :   0.9584 B( 25-C , 27-H ) :   0.9620 B( 25-C , 28-C ) :   1.0798
B( 28-C , 29-H ) :   0.9706 B( 28-C , 30-H ) :   0.9703 B( 28-C , 31-H ) :   0.9705

Dispersion correction           -0.014673670
FINAL SINGLE POINT ENERGY     -1339.862043475786

DIPOLE MOMENT
-------------
                                X             Y             Z
Electronic contribution:     19.95282      22.46814      -2.42934
Nuclear contribution   :    -20.53229     -22.84886       2.39063
                        -----------------------------------------
Total Dipole Moment    :     -0.57947      -0.38072      -0.03871
                        -----------------------------------------
Magnitude (a.u.)       :      0.69443
Magnitude (Debye)      :      1.76510

Rotational constants in cm-1:     0.019390     0.008694     0.006649
Rotational constants in MHz :   581.288640   260.649632   199.321641

                             ****ORCA TERMINATED NORMALLY****
TOTAL RUN TIME: 0 days 0 hours 0 minutes 21 seconds 873 msec
