                         Program Version 4.2.1 -  RELEASE  -
|  1> ! wB97X-D3 SP def2-SVP
|  2> %pal
|  3> nprocs 24
|  4> end
|  5>
|  6> * xyz 0 1
|  7> S 	 -115.784 	 36.3619 	 -118.098
|  8> C 	 -115.151 	 34.7649 	 -118.094
|  9> C 	 -114.332 	 34.5826 	 -117.04
| 10> C 	 -114.314 	 35.7239 	 -116.135
| 11> C 	 -115.196 	 36.719 	 -116.535
| 12> H 	 -113.698 	 35.8722 	 -115.251
| 13> C 	 -113.435 	 33.4063 	 -116.836
| 14> H 	 -112.558 	 33.6095 	 -117.423
| 15> H 	 -113.897 	 32.523 	 -117.282
| 16> C 	 -112.835 	 33.1461 	 -115.47
| 17> H 	 -112.241 	 34.0325 	 -115.063
| 18> H 	 -113.779 	 32.9654 	 -114.91
| 19> C 	 -112.093 	 31.8238 	 -115.35
| 20> H 	 -111.268 	 31.8519 	 -116.089
| 21> H 	 -111.548 	 31.6336 	 -114.423
| 22> H 	 -112.701 	 30.9769 	 -115.734
| 23> S 	 -115.182 	 39.4568 	 -116.926
| 24> C 	 -115.83 	 40.4508 	 -115.651
| 25> C 	 -116.326 	 39.7521 	 -114.521
| 26> C 	 -116.186 	 38.344 	 -114.693
| 27> C 	 -115.508 	 38.0244 	 -115.898
| 28> H 	 -116.788 	 40.1998 	 -113.658
| 29> C 	 -116.714 	 37.446 	 -113.651
| 30> H 	 -116.509 	 38.0269 	 -112.787
| 31> H 	 -116.179 	 36.5324 	 -113.674
| 32> C 	 -118.219 	 37.0019 	 -113.692
| 33> H 	 -118.296 	 36.3432 	 -114.491
| 34> H 	 -118.774 	 37.8689 	 -113.886
| 35> C 	 -118.78 	 36.3453 	 -112.391
| 36> H 	 -119.801 	 35.9202 	 -112.409
| 37> H 	 -118.692 	 37.1469 	 -111.628
| 38> H 	 -118.194 	 35.5756 	 -112.012
| 39> H 	 -115.362 	 34.1133 	 -118.918
| 40> H 	 -115.835 	 41.5139 	 -115.779
| 41> *
| 42>
| 43>                          ****END OF INPUT****

CARTESIAN COORDINATES (ANGSTROEM)
---------------------------------
  S    -115.784000   36.361900  -118.098000
  C    -115.151000   34.764900  -118.094000
  C    -114.332000   34.582600  -117.040000
  C    -114.314000   35.723900  -116.135000
  C    -115.196000   36.719000  -116.535000
  H    -113.698000   35.872200  -115.251000
  C    -113.435000   33.406300  -116.836000
  H    -112.558000   33.609500  -117.423000
  H    -113.897000   32.523000  -117.282000
  C    -112.835000   33.146100  -115.470000
  H    -112.241000   34.032500  -115.063000
  H    -113.779000   32.965400  -114.910000
  C    -112.093000   31.823800  -115.350000
  H    -111.268000   31.851900  -116.089000
  H    -111.548000   31.633600  -114.423000
  H    -112.701000   30.976900  -115.734000
  S    -115.182000   39.456800  -116.926000
  C    -115.830000   40.450800  -115.651000
  C    -116.326000   39.752100  -114.521000
  C    -116.186000   38.344000  -114.693000
  C    -115.508000   38.024400  -115.898000
  H    -116.788000   40.199800  -113.658000
  C    -116.714000   37.446000  -113.651000
  H    -116.509000   38.026900  -112.787000
  H    -116.179000   36.532400  -113.674000
  C    -118.219000   37.001900  -113.692000
  H    -118.296000   36.343200  -114.491000
  H    -118.774000   37.868900  -113.886000
  C    -118.780000   36.345300  -112.391000
  H    -119.801000   35.920200  -112.409000
  H    -118.692000   37.146900  -111.628000
  H    -118.194000   35.575600  -112.012000
  H    -115.362000   34.113300  -118.918000
  H    -115.835000   41.513900  -115.779000

 Total Charge           Charge          ....    0
 Multiplicity           Mult            ....    1
 Number of Electrons    NEL             ....  134
 Basis Dimension        Dim             ....  322

ORBITAL ENERGIES
----------------

  NO   OCC          E(Eh)            E(eV)
   0   2.0000     -88.970587     -2421.0128
   1   2.0000     -88.958858     -2420.6936
   2   2.0000     -10.331513      -281.1348
   3   2.0000     -10.326012      -280.9851
   4   2.0000     -10.321339      -280.8579
   5   2.0000     -10.305941      -280.4389
   6   2.0000     -10.304991      -280.4131
   7   2.0000     -10.299213      -280.2558
   8   2.0000     -10.297872      -280.2193
   9   2.0000     -10.293388      -280.0973
  10   2.0000     -10.292779      -280.0808
  11   2.0000     -10.286860      -279.9197
  12   2.0000     -10.283894      -279.8390
  13   2.0000     -10.283113      -279.8177
  14   2.0000     -10.279271      -279.7132
  15   2.0000     -10.277871      -279.6751
  16   2.0000      -8.084704      -219.9960
  17   2.0000      -8.075386      -219.7424
  18   2.0000      -6.043076      -164.4405
  19   2.0000      -6.039394      -164.3403
  20   2.0000      -6.035561      -164.2360
  21   2.0000      -6.033764      -164.1871
  22   2.0000      -6.029655      -164.0753
  23   2.0000      -6.026159      -163.9801
  24   2.0000      -1.008277       -27.4366
  25   2.0000      -0.982852       -26.7448
  26   2.0000      -0.917921       -24.9779
  27   2.0000      -0.909712       -24.7545
  28   2.0000      -0.868030       -23.6203
  29   2.0000      -0.854803       -23.2604
  30   2.0000      -0.844029       -22.9672
  31   2.0000      -0.811818       -22.0907
  32   2.0000      -0.784717       -21.3532
  33   2.0000      -0.772127       -21.0106
  34   2.0000      -0.713870       -19.4254
  35   2.0000      -0.700121       -19.0513
  36   2.0000      -0.685447       -18.6520
  37   2.0000      -0.663722       -18.0608
  38   2.0000      -0.645501       -17.5650
  39   2.0000      -0.618073       -16.8186
  40   2.0000      -0.597250       -16.2520
  41   2.0000      -0.577181       -15.7059
  42   2.0000      -0.571619       -15.5545
  43   2.0000      -0.561727       -15.2854
  44   2.0000      -0.525724       -14.3057
  45   2.0000      -0.520879       -14.1738
  46   2.0000      -0.514296       -13.9947
  47   2.0000      -0.512664       -13.9503
  48   2.0000      -0.502865       -13.6837
  49   2.0000      -0.498330       -13.5602
  50   2.0000      -0.493697       -13.4342
  51   2.0000      -0.478739       -13.0271
  52   2.0000      -0.470733       -12.8093
  53   2.0000      -0.468629       -12.7521
  54   2.0000      -0.458837       -12.4856
  55   2.0000      -0.455203       -12.3867
  56   2.0000      -0.451524       -12.2866
  57   2.0000      -0.441512       -12.0142
  58   2.0000      -0.434196       -11.8151
  59   2.0000      -0.425375       -11.5750
  60   2.0000      -0.423184       -11.5154
  61   2.0000      -0.421198       -11.4614
  62   2.0000      -0.399728       -10.8772
  63   2.0000      -0.339321        -9.2334
  64   2.0000      -0.333369        -9.0714
  65   2.0000      -0.323350        -8.7988
  66   2.0000      -0.291475        -7.9314
  67   0.0000       0.034250         0.9320
  68   0.0000       0.062908         1.7118
  69   0.0000       0.106722         2.9041
  70   0.0000       0.121240         3.2991
  71   0.0000       0.127833         3.4785

MULLIKEN ATOMIC CHARGES
-----------------------
   0 S :    0.102760
   1 C :   -0.134413
   2 C :   -0.057351
   3 C :    0.022127
   4 C :   -0.153261
   5 H :    0.016890
   6 C :    0.060698
   7 H :    0.029286
   8 H :    0.022347
   9 C :   -0.123629
  10 H :    0.057198
  11 H :    0.033849
  12 C :   -0.030044
  13 H :    0.009859
  14 H :    0.044688
  15 H :    0.034712
  16 S :    0.111988
  17 C :   -0.085961
  18 C :   -0.030114
  19 C :   -0.031991
  20 C :   -0.177801
  21 H :    0.019461
  22 C :    0.084633
  23 H :    0.010177
  24 H :    0.012126
  25 C :   -0.014449
  26 H :    0.020579
  27 H :    0.012883
  28 C :   -0.045851
  29 H :    0.047393
  30 H :    0.023108
  31 H :    0.013110
  32 H :    0.041815
  33 H :    0.053178
Sum of atomic charges:   -0.0000000

LOEWDIN ATOMIC CHARGES
----------------------
   0 S :    0.427057
   1 C :   -0.204696
   2 C :   -0.062692
   3 C :   -0.071326
   4 C :   -0.208892
   5 H :    0.032144
   6 C :   -0.038518
   7 H :    0.031949
   8 H :    0.031854
   9 C :   -0.054306
  10 H :    0.034233
  11 H :    0.027663
  12 C :   -0.071190
  13 H :    0.021758
  14 H :    0.030373
  15 H :    0.031108
  16 S :    0.401016
  17 C :   -0.177278
  18 C :   -0.068713
  19 C :   -0.045926
  20 C :   -0.194034
  21 H :    0.031501
  22 C :   -0.026289
  23 H :    0.026584
  24 H :    0.027360
  25 C :   -0.018937
  26 H :    0.016562
  27 H :    0.015413
  28 C :   -0.064373
  29 H :    0.033907
  30 H :    0.027520
  31 H :    0.013565
  32 H :    0.025583
  33 H :    0.020019

  Mayer bond orders larger than 0.100000
B(  0-S ,  1-C ) :   1.1360 B(  0-S ,  4-C ) :   1.1784 B(  1-C ,  2-C ) :   1.6088
B(  1-C , 32-H ) :   0.9817 B(  2-C ,  3-C ) :   1.2256 B(  2-C ,  6-C ) :   1.0259
B(  3-C ,  4-C ) :   1.5714 B(  3-C ,  5-H ) :   0.9947 B(  4-C , 20-C ) :   1.0086
B(  6-C ,  7-H ) :   0.9195 B(  6-C ,  8-H ) :   0.9427 B(  6-C ,  9-C ) :   1.0668
B(  9-C , 10-H ) :   0.9414 B(  9-C , 11-H ) :   0.9605 B(  9-C , 12-C ) :   1.0865
B( 12-C , 13-H ) :   0.9694 B( 12-C , 14-H ) :   0.9724 B( 12-C , 15-H ) :   0.9705
B( 16-S , 17-C ) :   1.1734 B( 16-S , 20-C ) :   1.1419 B( 17-C , 18-C ) :   1.5765
B( 17-C , 20-C ) :   0.1056 B( 17-C , 33-H ) :   0.9700 B( 18-C , 19-C ) :   1.2536
B( 18-C , 21-H ) :   0.9891 B( 19-C , 20-C ) :   1.5804 B( 19-C , 22-C ) :   1.0542
B( 22-C , 23-H ) :   0.9298 B( 22-C , 24-H ) :   0.9230 B( 22-C , 25-C ) :   1.0616
B( 25-C , 26-H ) :   0.9563 B( 25-C , 27-H ) :   0.9598 B( 25-C , 28-C ) :   1.0736
B( 28-C , 29-H ) :   0.9756 B( 28-C , 30-H ) :   0.9765 B( 28-C , 31-H ) :   0.9768

Dispersion correction           -0.013366931
FINAL SINGLE POINT ENERGY     -1339.863673613388

DIPOLE MOMENT
-------------
                                X             Y             Z
Electronic contribution:     -0.65874      20.71921     -19.39492
Nuclear contribution   :      0.75283     -21.01914      19.76774
                        -----------------------------------------
Total Dipole Moment    :      0.09409      -0.29994       0.37282
                        -----------------------------------------
Magnitude (a.u.)       :      0.48765
Magnitude (Debye)      :      1.23952

Rotational constants in cm-1:     0.016769     0.008185     0.006537
Rotational constants in MHz :   502.736798   245.383410   195.984401

                             ****ORCA TERMINATED NORMALLY****
TOTAL RUN TIME: 0 days 0 hours 0 minutes 20 seconds 952 msec
