                         Program Version 4.2.1 -  RELEASE  -
|  1> ! wB97X-D3 SP def2-SVP
|  2> %pal
|  3> nprocs 24
|  4> end
|  5>
|  6> * xyz 0 1
|  7> S 	 -58.3732 	 -2.69537 	 -19.3723
|  8> C 	 -59.3507 	 -1.72232 	 -18.3149
|  9> C 	 -60.0128 	 -2.46152 	 -17.3763
| 10> C 	 -59.7934 	 -3.87092 	 -17.538
| 11> C 	 -58.929 	 -4.13471 	 -18.5766
| 12> H 	 -60.1731 	 -4.56405 	 -16.8807
| 13> C 	 -60.8548 	 -1.82756 	 -16.2525
| 14> H 	 -61.4713 	 -2.65387 	 -15.8243
| 15> H 	 -61.492 	 -1.00795 	 -16.5184
| 16> C 	 -59.9522 	 -1.27125 	 -15.0986
| 17> H 	 -59.1415 	 -2.02313 	 -14.8519
| 18> H 	 -59.4323 	 -0.453069 	 -15.567
| 19> C 	 -60.6688 	 -0.88351 	 -13.8599
| 20> H 	 -59.8834 	 -0.596137 	 -13.2095
| 21> H 	 -61.3306 	 -0.020338 	 -14.0946
| 22> H 	 -61.1833 	 -1.74399 	 -13.3375
| 23> S 	 -58.1307 	 -6.52974 	 -17.4849
| 24> C 	 -57.3456 	 -7.77864 	 -18.4211
| 25> C 	 -56.9728 	 -7.33486 	 -19.6509
| 26> C 	 -57.5736 	 -6.01742 	 -19.9208
| 27> C 	 -58.2678 	 -5.42755 	 -18.8487
| 28> H 	 -56.4067 	 -7.94487 	 -20.3459
| 29> C 	 -57.4261 	 -5.37888 	 -21.3146
| 30> H 	 -57.942 	 -4.45793 	 -21.3021
| 31> H 	 -57.9175 	 -6.01238 	 -22.0297
| 32> C 	 -55.9852 	 -4.99593 	 -21.6409
| 33> H 	 -55.9147 	 -4.97125 	 -22.7105
| 34> H 	 -55.4125 	 -5.78961 	 -21.25
| 35> C 	 -55.5224 	 -3.63975 	 -20.9
| 36> H 	 -56.1889 	 -2.7862 	 -21.1406
| 37> H 	 -54.4649 	 -3.2906 	 -20.9789
| 38> H 	 -55.6479 	 -3.66126 	 -19.7792
| 39> H 	 -59.249 	 -0.665788 	 -18.27
| 40> H 	 -56.9951 	 -8.7462 	 -18.0648
| 41> *
| 42>
| 43>                          ****END OF INPUT****

CARTESIAN COORDINATES (ANGSTROEM)
---------------------------------
  S    -58.373200   -2.695370  -19.372300
  C    -59.350700   -1.722320  -18.314900
  C    -60.012800   -2.461520  -17.376300
  C    -59.793400   -3.870920  -17.538000
  C    -58.929000   -4.134710  -18.576600
  H    -60.173100   -4.564050  -16.880700
  C    -60.854800   -1.827560  -16.252500
  H    -61.471300   -2.653870  -15.824300
  H    -61.492000   -1.007950  -16.518400
  C    -59.952200   -1.271250  -15.098600
  H    -59.141500   -2.023130  -14.851900
  H    -59.432300   -0.453069  -15.567000
  C    -60.668800   -0.883510  -13.859900
  H    -59.883400   -0.596137  -13.209500
  H    -61.330600   -0.020338  -14.094600
  H    -61.183300   -1.743990  -13.337500
  S    -58.130700   -6.529740  -17.484900
  C    -57.345600   -7.778640  -18.421100
  C    -56.972800   -7.334860  -19.650900
  C    -57.573600   -6.017420  -19.920800
  C    -58.267800   -5.427550  -18.848700
  H    -56.406700   -7.944870  -20.345900
  C    -57.426100   -5.378880  -21.314600
  H    -57.942000   -4.457930  -21.302100
  H    -57.917500   -6.012380  -22.029700
  C    -55.985200   -4.995930  -21.640900
  H    -55.914700   -4.971250  -22.710500
  H    -55.412500   -5.789610  -21.250000
  C    -55.522400   -3.639750  -20.900000
  H    -56.188900   -2.786200  -21.140600
  H    -54.464900   -3.290600  -20.978900
  H    -55.647900   -3.661260  -19.779200
  H    -59.249000   -0.665788  -18.270000
  H    -56.995100   -8.746200  -18.064800

 Total Charge           Charge          ....    0
 Multiplicity           Mult            ....    1
 Number of Electrons    NEL             ....  134
 Basis Dimension        Dim             ....  322

ORBITAL ENERGIES
----------------

  NO   OCC          E(Eh)            E(eV)
   0   2.0000     -88.968781     -2420.9636
   1   2.0000     -88.962270     -2420.7864
   2   2.0000     -10.335114      -281.2327
   3   2.0000     -10.331949      -281.1466
   4   2.0000     -10.317284      -280.7476
   5   2.0000     -10.308353      -280.5046
   6   2.0000     -10.307903      -280.4923
   7   2.0000     -10.302210      -280.3374
   8   2.0000     -10.296695      -280.1873
   9   2.0000     -10.294657      -280.1319
  10   2.0000     -10.291946      -280.0581
  11   2.0000     -10.285991      -279.8961
  12   2.0000     -10.285854      -279.8923
  13   2.0000     -10.284861      -279.8653
  14   2.0000     -10.282304      -279.7957
  15   2.0000     -10.280728      -279.7528
  16   2.0000      -8.083455      -219.9620
  17   2.0000      -8.076989      -219.7860
  18   2.0000      -6.041930      -164.4093
  19   2.0000      -6.037960      -164.3012
  20   2.0000      -6.035702      -164.2398
  21   2.0000      -6.034235      -164.1999
  22   2.0000      -6.031486      -164.1251
  23   2.0000      -6.027550      -164.0180
  24   2.0000      -1.008809       -27.4511
  25   2.0000      -0.984507       -26.7898
  26   2.0000      -0.912338       -24.8260
  27   2.0000      -0.904764       -24.6199
  28   2.0000      -0.873172       -23.7602
  29   2.0000      -0.856265       -23.3002
  30   2.0000      -0.830807       -22.6074
  31   2.0000      -0.818375       -22.2691
  32   2.0000      -0.782946       -21.3050
  33   2.0000      -0.767603       -20.8876
  34   2.0000      -0.710890       -19.3443
  35   2.0000      -0.694890       -18.9089
  36   2.0000      -0.691455       -18.8154
  37   2.0000      -0.663260       -18.0482
  38   2.0000      -0.643920       -17.5219
  39   2.0000      -0.621878       -16.9222
  40   2.0000      -0.598583       -16.2883
  41   2.0000      -0.572102       -15.5677
  42   2.0000      -0.568092       -15.4586
  43   2.0000      -0.551614       -15.0102
  44   2.0000      -0.533668       -14.5218
  45   2.0000      -0.526704       -14.3324
  46   2.0000      -0.515347       -14.0233
  47   2.0000      -0.512342       -13.9415
  48   2.0000      -0.505208       -13.7474
  49   2.0000      -0.499592       -13.5946
  50   2.0000      -0.488024       -13.2798
  51   2.0000      -0.475074       -12.9274
  52   2.0000      -0.469269       -12.7695
  53   2.0000      -0.468333       -12.7440
  54   2.0000      -0.459277       -12.4976
  55   2.0000      -0.455433       -12.3930
  56   2.0000      -0.444906       -12.1065
  57   2.0000      -0.437825       -11.9138
  58   2.0000      -0.431928       -11.7534
  59   2.0000      -0.425156       -11.5691
  60   2.0000      -0.418702       -11.3935
  61   2.0000      -0.409220       -11.1354
  62   2.0000      -0.403572       -10.9818
  63   2.0000      -0.360565        -9.8115
  64   2.0000      -0.333969        -9.0878
  65   2.0000      -0.326419        -8.8823
  66   2.0000      -0.287641        -7.8271
  67   0.0000       0.023970         0.6523
  68   0.0000       0.082019         2.2318
  69   0.0000       0.108973         2.9653
  70   0.0000       0.118929         3.2362
  71   0.0000       0.129016         3.5107

MULLIKEN ATOMIC CHARGES
-----------------------
   0 S :    0.092786
   1 C :   -0.101937
   2 C :   -0.077651
   3 C :    0.020515
   4 C :   -0.079011
   5 H :   -0.014505
   6 C :    0.063967
   7 H :    0.020882
   8 H :    0.028479
   9 C :   -0.128449
  10 H :    0.035693
  11 H :    0.018740
  12 C :   -0.015600
  13 H :    0.029984
  14 H :    0.038071
  15 H :    0.043939
  16 S :    0.077590
  17 C :   -0.074617
  18 C :   -0.023565
  19 C :   -0.124573
  20 C :   -0.106099
  21 H :    0.028290
  22 C :    0.072978
  23 H :   -0.003879
  24 H :    0.036358
  25 C :   -0.008251
  26 H :    0.031008
  27 H :    0.015563
  28 C :   -0.112505
  29 H :    0.035221
  30 H :    0.045864
  31 H :    0.040060
  32 H :    0.037675
  33 H :    0.056980
Sum of atomic charges:    0.0000000

LOEWDIN ATOMIC CHARGES
----------------------
   0 S :    0.444606
   1 C :   -0.197605
   2 C :   -0.053783
   3 C :   -0.058421
   4 C :   -0.184122
   5 H :    0.016102
   6 C :   -0.029598
   7 H :    0.029345
   8 H :    0.026214
   9 C :   -0.046957
  10 H :    0.028288
  11 H :    0.017739
  12 C :   -0.067898
  13 H :    0.026312
  14 H :    0.030101
  15 H :    0.033955
  16 S :    0.397624
  17 C :   -0.181583
  18 C :   -0.073256
  19 C :   -0.058007
  20 C :   -0.193975
  21 H :    0.033612
  22 C :   -0.031101
  23 H :    0.009199
  24 H :    0.031073
  25 C :   -0.024949
  26 H :    0.023079
  27 H :    0.015245
  28 C :   -0.088102
  29 H :    0.016501
  30 H :    0.030338
  31 H :    0.026455
  32 H :    0.020289
  33 H :    0.033278

  Mayer bond orders larger than 0.100000
B(  0-S ,  1-C ) :   1.1315 B(  0-S ,  4-C ) :   1.1573 B(  1-C ,  2-C ) :   1.6232
B(  1-C , 32-H ) :   0.9701 B(  2-C ,  3-C ) :   1.2485 B(  2-C ,  6-C ) :   1.0232
B(  3-C ,  4-C ) :   1.5410 B(  3-C ,  5-H ) :   1.0073 B(  4-C , 20-C ) :   1.0644
B(  6-C ,  7-H ) :   0.9438 B(  6-C ,  8-H ) :   0.9466 B(  6-C ,  9-C ) :   1.0489
B(  9-C , 10-H ) :   0.9572 B(  9-C , 11-H ) :   0.9544 B(  9-C , 12-C ) :   1.0942
B( 12-C , 13-H ) :   0.9688 B( 12-C , 14-H ) :   0.9682 B( 12-C , 15-H ) :   0.9707
B( 16-S , 17-C ) :   1.1486 B( 16-S , 20-C ) :   1.1171 B( 17-C , 18-C ) :   1.6378
B( 17-C , 33-H ) :   0.9626 B( 18-C , 19-C ) :   1.2169 B( 18-C , 21-H ) :   0.9858
B( 19-C , 20-C ) :   1.6011 B( 19-C , 22-C ) :   1.0444 B( 22-C , 23-H ) :   0.9342
B( 22-C , 24-H ) :   0.9365 B( 22-C , 25-C ) :   1.0570 B( 25-C , 26-H ) :   0.9579
B( 25-C , 27-H ) :   0.9627 B( 25-C , 28-C ) :   1.0531 B( 28-C , 29-H ) :   0.9742
B( 28-C , 30-H ) :   0.9767 B( 28-C , 31-H ) :   0.9732

Dispersion correction           -0.014559847
FINAL SINGLE POINT ENERGY     -1339.873810630694

DIPOLE MOMENT
-------------
                                X             Y             Z
Electronic contribution:     -0.93720     -12.36639      -4.45768
Nuclear contribution   :      1.03499      12.51279       4.60757
                        -----------------------------------------
Total Dipole Moment    :      0.09780       0.14640       0.14990
                        -----------------------------------------
Magnitude (a.u.)       :      0.23123
Magnitude (Debye)      :      0.58773

Rotational constants in cm-1:     0.023810     0.007923     0.006389
Rotational constants in MHz :   713.797341   237.513169   191.532245

                             ****ORCA TERMINATED NORMALLY****
TOTAL RUN TIME: 0 days 0 hours 0 minutes 21 seconds 505 msec
