                         Program Version 4.2.1 -  RELEASE  -
|  1> ! wB97X-D3 SP def2-SVP
|  2> %pal
|  3> nprocs 24
|  4> end
|  5>
|  6> * xyz 0 1
|  7> S 	 -110.119 	 52.557 	 -89.8458
|  8> C 	 -108.387 	 52.3797 	 -89.9526
|  9> C 	 -107.796 	 53.6292 	 -89.8377
| 10> C 	 -108.755 	 54.7265 	 -89.846
| 11> C 	 -110.017 	 54.2905 	 -89.9351
| 12> H 	 -108.405 	 55.794 	 -89.7293
| 13> C 	 -106.333 	 53.8426 	 -89.5926
| 14> H 	 -105.906 	 53.396 	 -88.7098
| 15> H 	 -106.196 	 54.9042 	 -89.3622
| 16> C 	 -105.351 	 53.4915 	 -90.7447
| 17> H 	 -105.7 	 53.9656 	 -91.6718
| 18> H 	 -104.355 	 53.8024 	 -90.6796
| 19> C 	 -105.361 	 52.018 	 -90.9807
| 20> H 	 -106.31 	 51.6256 	 -91.3346
| 21> H 	 -104.673 	 51.7612 	 -91.8384
| 22> H 	 -105.012 	 51.4034 	 -90.1669
| 23> S 	 -112.417 	 54.7389 	 -91.1166
| 24> C 	 -113.455 	 56.0322 	 -90.5316
| 25> C 	 -112.83 	 56.7659 	 -89.5503
| 26> C 	 -111.534 	 56.2368 	 -89.1617
| 27> C 	 -111.209 	 55.1172 	 -89.9323
| 28> H 	 -113.371 	 57.5532 	 -89.0576
| 29> C 	 -110.728 	 56.8608 	 -87.9645
| 30> H 	 -111.132 	 57.791 	 -87.5659
| 31> H 	 -109.794 	 57.1679 	 -88.2955
| 32> C 	 -110.553 	 55.9571 	 -86.7247
| 33> H 	 -109.986 	 55.069 	 -87.0761
| 34> H 	 -111.444 	 55.4992 	 -86.3908
| 35> C 	 -109.62 	 56.4964 	 -85.5892
| 36> H 	 -110.127 	 57.0154 	 -84.7899
| 37> H 	 -108.976 	 57.2455 	 -85.8871
| 38> H 	 -109.075 	 55.6891 	 -85.1242
| 39> H 	 -107.944 	 51.4947 	 -89.6474
| 40> H 	 -114.429 	 56.312 	 -90.8906
| 41> *
| 42>
| 43>                          ****END OF INPUT****

CARTESIAN COORDINATES (ANGSTROEM)
---------------------------------
  S    -110.119000   52.557000  -89.845800
  C    -108.387000   52.379700  -89.952600
  C    -107.796000   53.629200  -89.837700
  C    -108.755000   54.726500  -89.846000
  C    -110.017000   54.290500  -89.935100
  H    -108.405000   55.794000  -89.729300
  C    -106.333000   53.842600  -89.592600
  H    -105.906000   53.396000  -88.709800
  H    -106.196000   54.904200  -89.362200
  C    -105.351000   53.491500  -90.744700
  H    -105.700000   53.965600  -91.671800
  H    -104.355000   53.802400  -90.679600
  C    -105.361000   52.018000  -90.980700
  H    -106.310000   51.625600  -91.334600
  H    -104.673000   51.761200  -91.838400
  H    -105.012000   51.403400  -90.166900
  S    -112.417000   54.738900  -91.116600
  C    -113.455000   56.032200  -90.531600
  C    -112.830000   56.765900  -89.550300
  C    -111.534000   56.236800  -89.161700
  C    -111.209000   55.117200  -89.932300
  H    -113.371000   57.553200  -89.057600
  C    -110.728000   56.860800  -87.964500
  H    -111.132000   57.791000  -87.565900
  H    -109.794000   57.167900  -88.295500
  C    -110.553000   55.957100  -86.724700
  H    -109.986000   55.069000  -87.076100
  H    -111.444000   55.499200  -86.390800
  C    -109.620000   56.496400  -85.589200
  H    -110.127000   57.015400  -84.789900
  H    -108.976000   57.245500  -85.887100
  H    -109.075000   55.689100  -85.124200
  H    -107.944000   51.494700  -89.647400
  H    -114.429000   56.312000  -90.890600

 Total Charge           Charge          ....    0
 Multiplicity           Mult            ....    1
 Number of Electrons    NEL             ....  134
 Basis Dimension        Dim             ....  322

ORBITAL ENERGIES
----------------

  NO   OCC          E(Eh)            E(eV)
   0   2.0000     -88.967635     -2420.9324
   1   2.0000     -88.964807     -2420.8555
   2   2.0000     -10.327804      -281.0338
   3   2.0000     -10.326715      -281.0042
   4   2.0000     -10.315724      -280.7051
   5   2.0000     -10.311643      -280.5941
   6   2.0000     -10.309272      -280.5295
   7   2.0000     -10.305345      -280.4227
   8   2.0000     -10.298311      -280.2313
   9   2.0000     -10.294272      -280.1214
  10   2.0000     -10.293278      -280.0943
  11   2.0000     -10.289962      -280.0041
  12   2.0000     -10.282632      -279.8046
  13   2.0000     -10.280459      -279.7455
  14   2.0000     -10.271701      -279.5072
  15   2.0000     -10.271352      -279.4977
  16   2.0000      -8.082464      -219.9350
  17   2.0000      -8.080128      -219.8714
  18   2.0000      -6.041000      -164.3840
  19   2.0000      -6.038662      -164.3203
  20   2.0000      -6.036927      -164.2731
  21   2.0000      -6.034619      -164.2103
  22   2.0000      -6.033207      -164.1719
  23   2.0000      -6.030745      -164.1049
  24   2.0000      -1.011460       -27.5232
  25   2.0000      -0.985013       -26.8036
  26   2.0000      -0.914930       -24.8965
  27   2.0000      -0.901742       -24.5376
  28   2.0000      -0.872494       -23.7418
  29   2.0000      -0.852363       -23.1940
  30   2.0000      -0.844751       -22.9868
  31   2.0000      -0.817532       -22.2462
  32   2.0000      -0.785419       -21.3723
  33   2.0000      -0.776879       -21.1399
  34   2.0000      -0.711952       -19.3732
  35   2.0000      -0.701762       -19.0959
  36   2.0000      -0.696476       -18.9521
  37   2.0000      -0.663435       -18.0530
  38   2.0000      -0.644329       -17.5331
  39   2.0000      -0.623205       -16.9583
  40   2.0000      -0.596787       -16.2394
  41   2.0000      -0.574655       -15.6371
  42   2.0000      -0.556679       -15.1480
  43   2.0000      -0.548135       -14.9155
  44   2.0000      -0.541405       -14.7324
  45   2.0000      -0.526404       -14.3242
  46   2.0000      -0.513739       -13.9796
  47   2.0000      -0.509953       -13.8765
  48   2.0000      -0.507714       -13.8156
  49   2.0000      -0.497722       -13.5437
  50   2.0000      -0.493235       -13.4216
  51   2.0000      -0.488405       -13.2902
  52   2.0000      -0.476032       -12.9535
  53   2.0000      -0.464517       -12.6401
  54   2.0000      -0.459717       -12.5095
  55   2.0000      -0.450121       -12.2484
  56   2.0000      -0.445008       -12.1093
  57   2.0000      -0.440289       -11.9809
  58   2.0000      -0.428215       -11.6523
  59   2.0000      -0.425152       -11.5690
  60   2.0000      -0.420976       -11.4554
  61   2.0000      -0.413971       -11.2647
  62   2.0000      -0.403107       -10.9691
  63   2.0000      -0.353530        -9.6200
  64   2.0000      -0.332931        -9.0595
  65   2.0000      -0.329090        -8.9550
  66   2.0000      -0.295716        -8.0468
  67   0.0000       0.029396         0.7999
  68   0.0000       0.069851         1.9007
  69   0.0000       0.104809         2.8520
  70   0.0000       0.114948         3.1279
  71   0.0000       0.136829         3.7233

MULLIKEN ATOMIC CHARGES
-----------------------
   0 S :    0.107316
   1 C :   -0.077385
   2 C :   -0.123559
   3 C :    0.007980
   4 C :   -0.121881
   5 H :    0.038289
   6 C :    0.058687
   7 H :    0.028020
   8 H :    0.006479
   9 C :   -0.020188
  10 H :    0.022481
  11 H :    0.018141
  12 C :   -0.087167
  13 H :    0.037471
  14 H :    0.027477
  15 H :    0.022825
  16 S :    0.118869
  17 C :   -0.082980
  18 C :   -0.037622
  19 C :   -0.023605
  20 C :   -0.169752
  21 H :    0.016480
  22 C :    0.123664
  23 H :    0.012176
  24 H :   -0.005219
  25 C :   -0.088199
  26 H :    0.032269
  27 H :    0.022022
  28 C :   -0.015020
  29 H :    0.020403
  30 H :    0.004864
  31 H :    0.035233
  32 H :    0.041974
  33 H :    0.049457
Sum of atomic charges:    0.0000000

LOEWDIN ATOMIC CHARGES
----------------------
   0 S :    0.411428
   1 C :   -0.192331
   2 C :   -0.053326
   3 C :   -0.066713
   4 C :   -0.196885
   5 H :    0.044131
   6 C :   -0.035345
   7 H :    0.028709
   8 H :    0.027673
   9 C :   -0.034973
  10 H :    0.028112
  11 H :    0.018214
  12 C :   -0.073036
  13 H :    0.023331
  14 H :    0.030865
  15 H :    0.017661
  16 S :    0.414710
  17 C :   -0.185576
  18 C :   -0.066197
  19 C :   -0.049667
  20 C :   -0.201626
  21 H :    0.030055
  22 C :   -0.022713
  23 H :    0.028593
  24 H :    0.015702
  25 C :   -0.039251
  26 H :    0.028924
  27 H :    0.018584
  28 C :   -0.061045
  29 H :    0.023473
  30 H :    0.014780
  31 H :    0.029750
  32 H :    0.015363
  33 H :    0.028624

  Mayer bond orders larger than 0.100000
B(  0-S ,  1-C ) :   1.1258 B(  0-S ,  4-C ) :   1.1604 B(  1-C ,  2-C ) :   1.6208
B(  1-C , 32-H ) :   0.9638 B(  2-C ,  3-C ) :   1.2414 B(  2-C ,  6-C ) :   1.0244
B(  3-C ,  4-C ) :   1.5863 B(  3-C ,  5-H ) :   0.9872 B(  4-C , 20-C ) :   1.0244
B(  6-C ,  7-H ) :   0.9447 B(  6-C ,  8-H ) :   0.9369 B(  6-C ,  9-C ) :   1.0667
B(  9-C , 10-H ) :   0.9489 B(  9-C , 11-H ) :   0.9573 B(  9-C , 12-C ) :   1.0938
B( 12-C , 13-H ) :   0.9651 B( 12-C , 14-H ) :   0.9683 B( 12-C , 15-H ) :   0.9748
B( 16-S , 17-C ) :   1.1369 B( 16-S , 20-C ) :   1.1564 B( 17-C , 18-C ) :   1.6330
B( 17-C , 33-H ) :   0.9680 B( 18-C , 19-C ) :   1.2362 B( 18-C , 21-H ) :   0.9886
B( 19-C , 20-C ) :   1.5947 B( 19-C , 22-C ) :   1.0314 B( 22-C , 23-H ) :   0.9405
B( 22-C , 24-H ) :   0.9263 B( 22-C , 25-C ) :   1.0617 B( 25-C , 26-H ) :   0.9602
B( 25-C , 27-H ) :   0.9606 B( 25-C , 28-C ) :   1.0654 B( 28-C , 29-H ) :   0.9740
B( 28-C , 30-H ) :   0.9732 B( 28-C , 31-H ) :   0.9790

Dispersion correction           -0.014563241
FINAL SINGLE POINT ENERGY     -1339.867666098953

DIPOLE MOMENT
-------------
                                X             Y             Z
Electronic contribution:    -22.25971      -5.05876     -12.79067
Nuclear contribution   :     22.66790       5.45917      13.26696
                        -----------------------------------------
Total Dipole Moment    :      0.40819       0.40041       0.47628
                        -----------------------------------------
Magnitude (a.u.)       :      0.74418
Magnitude (Debye)      :      1.89155

Rotational constants in cm-1:     0.019474     0.008656     0.006792
Rotational constants in MHz :   583.808646   259.498750   203.633710

                             ****ORCA TERMINATED NORMALLY****
TOTAL RUN TIME: 0 days 0 hours 0 minutes 21 seconds 862 msec
