                         Program Version 4.2.1 -  RELEASE  -
|  1> ! wB97X-D3 SP def2-SVP
|  2> %pal
|  3> nprocs 24
|  4> end
|  5>
|  6> * xyz 0 1
|  7> S 	 -116.681 	 34.0484 	 -17.068
|  8> C 	 -115.958 	 32.7491 	 -17.9927
|  9> C 	 -116.031 	 31.4293 	 -17.4133
| 10> C 	 -116.884 	 31.4759 	 -16.2438
| 11> C 	 -117.436 	 32.7351 	 -16.0305
| 12> H 	 -117.252 	 30.6095 	 -15.6749
| 13> C 	 -115.418 	 30.1749 	 -18.0203
| 14> H 	 -114.595 	 29.8168 	 -17.357
| 15> H 	 -114.804 	 30.4332 	 -18.9078
| 16> C 	 -116.387 	 29.0224 	 -18.4398
| 17> H 	 -116.78 	 28.4642 	 -17.6371
| 18> H 	 -117.215 	 29.3754 	 -18.9808
| 19> C 	 -115.619 	 28.1462 	 -19.5456
| 20> H 	 -114.841 	 27.578 	 -18.9234
| 21> H 	 -116.29 	 27.3023 	 -19.7986
| 22> H 	 -115.106 	 28.5601 	 -20.3929
| 23> S 	 -117.91 	 32.8016 	 -13.262
| 24> C 	 -119.473 	 33.197 	 -12.6523
| 25> C 	 -120.367 	 33.3489 	 -13.689
| 26> C 	 -119.746 	 33.2998 	 -14.9841
| 27> C 	 -118.363 	 33.1501 	 -14.9638
| 28> H 	 -121.447 	 33.3732 	 -13.4413
| 29> C 	 -120.599 	 33.3794 	 -16.2023
| 30> H 	 -121.591 	 33.0524 	 -15.8807
| 31> H 	 -120.311 	 32.6125 	 -16.9378
| 32> C 	 -120.606 	 34.7263 	 -16.7997
| 33> H 	 -119.717 	 35.0088 	 -17.4023
| 34> H 	 -120.812 	 35.4518 	 -16.0151
| 35> C 	 -121.729 	 34.9173 	 -17.7957
| 36> H 	 -122.583 	 34.3375 	 -17.4061
| 37> H 	 -121.348 	 34.4753 	 -18.6914
| 38> H 	 -122.002 	 35.9993 	 -17.9263
| 39> H 	 -115.277 	 32.8 	 -18.8742
| 40> H 	 -119.986 	 33.0682 	 -11.6804
| 41> *
| 42>
| 43>                          ****END OF INPUT****

CARTESIAN COORDINATES (ANGSTROEM)
---------------------------------
  S    -116.681000   34.048400  -17.068000
  C    -115.958000   32.749100  -17.992700
  C    -116.031000   31.429300  -17.413300
  C    -116.884000   31.475900  -16.243800
  C    -117.436000   32.735100  -16.030500
  H    -117.252000   30.609500  -15.674900
  C    -115.418000   30.174900  -18.020300
  H    -114.595000   29.816800  -17.357000
  H    -114.804000   30.433200  -18.907800
  C    -116.387000   29.022400  -18.439800
  H    -116.780000   28.464200  -17.637100
  H    -117.215000   29.375400  -18.980800
  C    -115.619000   28.146200  -19.545600
  H    -114.841000   27.578000  -18.923400
  H    -116.290000   27.302300  -19.798600
  H    -115.106000   28.560100  -20.392900
  S    -117.910000   32.801600  -13.262000
  C    -119.473000   33.197000  -12.652300
  C    -120.367000   33.348900  -13.689000
  C    -119.746000   33.299800  -14.984100
  C    -118.363000   33.150100  -14.963800
  H    -121.447000   33.373200  -13.441300
  C    -120.599000   33.379400  -16.202300
  H    -121.591000   33.052400  -15.880700
  H    -120.311000   32.612500  -16.937800
  C    -120.606000   34.726300  -16.799700
  H    -119.717000   35.008800  -17.402300
  H    -120.812000   35.451800  -16.015100
  C    -121.729000   34.917300  -17.795700
  H    -122.583000   34.337500  -17.406100
  H    -121.348000   34.475300  -18.691400
  H    -122.002000   35.999300  -17.926300
  H    -115.277000   32.800000  -18.874200
  H    -119.986000   33.068200  -11.680400

 Total Charge           Charge          ....    0
 Multiplicity           Mult            ....    1
 Number of Electrons    NEL             ....  134
 Basis Dimension        Dim             ....  322

ORBITAL ENERGIES
----------------

  NO   OCC          E(Eh)            E(eV)
   0   2.0000     -88.973890     -2421.1026
   1   2.0000     -88.964384     -2420.8440
   2   2.0000     -10.338232      -281.3176
   3   2.0000     -10.326381      -280.9951
   4   2.0000     -10.322206      -280.8815
   5   2.0000     -10.317080      -280.7420
   6   2.0000     -10.310511      -280.5633
   7   2.0000     -10.305155      -280.4175
   8   2.0000     -10.302582      -280.3475
   9   2.0000     -10.302474      -280.3446
  10   2.0000     -10.292731      -280.0794
  11   2.0000     -10.291195      -280.0376
  12   2.0000     -10.289883      -280.0020
  13   2.0000     -10.283783      -279.8360
  14   2.0000     -10.274149      -279.5738
  15   2.0000     -10.271315      -279.4967
  16   2.0000      -8.086607      -220.0478
  17   2.0000      -8.078558      -219.8287
  18   2.0000      -6.045011      -164.4931
  19   2.0000      -6.041699      -164.4030
  20   2.0000      -6.037276      -164.2826
  21   2.0000      -6.037220      -164.2811
  22   2.0000      -6.033089      -164.1687
  23   2.0000      -6.029215      -164.0633
  24   2.0000      -0.998860       -27.1804
  25   2.0000      -0.974383       -26.5143
  26   2.0000      -0.919070       -25.0092
  27   2.0000      -0.903425       -24.5835
  28   2.0000      -0.864125       -23.5140
  29   2.0000      -0.849917       -23.1274
  30   2.0000      -0.846826       -23.0433
  31   2.0000      -0.810837       -22.0640
  32   2.0000      -0.777922       -21.1683
  33   2.0000      -0.762283       -20.7428
  34   2.0000      -0.714348       -19.4384
  35   2.0000      -0.695939       -18.9375
  36   2.0000      -0.684135       -18.6163
  37   2.0000      -0.656269       -17.8580
  38   2.0000      -0.633413       -17.2360
  39   2.0000      -0.617086       -16.7918
  40   2.0000      -0.593195       -16.1416
  41   2.0000      -0.572512       -15.5788
  42   2.0000      -0.566925       -15.4268
  43   2.0000      -0.560113       -15.2415
  44   2.0000      -0.525621       -14.3029
  45   2.0000      -0.521382       -14.1875
  46   2.0000      -0.510690       -13.8966
  47   2.0000      -0.508679       -13.8419
  48   2.0000      -0.503041       -13.6884
  49   2.0000      -0.492662       -13.4060
  50   2.0000      -0.488422       -13.2906
  51   2.0000      -0.481150       -13.0927
  52   2.0000      -0.472690       -12.8625
  53   2.0000      -0.459824       -12.5124
  54   2.0000      -0.455404       -12.3922
  55   2.0000      -0.446290       -12.1442
  56   2.0000      -0.440538       -11.9876
  57   2.0000      -0.434459       -11.8222
  58   2.0000      -0.432740       -11.7755
  59   2.0000      -0.428004       -11.6466
  60   2.0000      -0.413278       -11.2459
  61   2.0000      -0.411872       -11.2076
  62   2.0000      -0.407822       -11.0974
  63   2.0000      -0.342079        -9.3084
  64   2.0000      -0.327178        -8.9030
  65   2.0000      -0.323970        -8.8157
  66   2.0000      -0.297752        -8.1022
  67   0.0000       0.029435         0.8010
  68   0.0000       0.054074         1.4714
  69   0.0000       0.095556         2.6002
  70   0.0000       0.108248         2.9456
  71   0.0000       0.134111         3.6494

MULLIKEN ATOMIC CHARGES
-----------------------
   0 S :    0.119171
   1 C :   -0.102436
   2 C :   -0.116374
   3 C :    0.037586
   4 C :   -0.181286
   5 H :    0.034562
   6 C :    0.037533
   7 H :    0.045552
   8 H :    0.013727
   9 C :   -0.026444
  10 H :    0.030109
  11 H :    0.028581
  12 C :   -0.111635
  13 H :    0.028501
  14 H :    0.037701
  15 H :    0.055777
  16 S :    0.100457
  17 C :   -0.074819
  18 C :   -0.076133
  19 C :   -0.043382
  20 C :   -0.143512
  21 H :    0.033944
  22 C :    0.089032
  23 H :    0.006468
  24 H :    0.029491
  25 C :   -0.075188
  26 H :    0.037252
  27 H :    0.021324
  28 C :   -0.043214
  29 H :    0.019194
  30 H :    0.025004
  31 H :    0.045318
  32 H :    0.052514
  33 H :    0.065625
Sum of atomic charges:   -0.0000000

LOEWDIN ATOMIC CHARGES
----------------------
   0 S :    0.383809
   1 C :   -0.207220
   2 C :   -0.063139
   3 C :   -0.053602
   4 C :   -0.168310
   5 H :    0.039189
   6 C :   -0.041295
   7 H :    0.039418
   8 H :    0.032464
   9 C :   -0.025727
  10 H :    0.020175
  11 H :    0.019638
  12 C :   -0.074874
  13 H :    0.030088
  14 H :    0.028581
  15 H :    0.024650
  16 S :    0.402738
  17 C :   -0.201963
  18 C :   -0.087154
  19 C :   -0.042775
  20 C :   -0.206141
  21 H :    0.036630
  22 C :   -0.035556
  23 H :    0.028148
  24 H :    0.034049
  25 C :   -0.047225
  26 H :    0.026357
  27 H :    0.022520
  28 C :   -0.062968
  29 H :    0.020435
  30 H :    0.019887
  31 H :    0.031831
  32 H :    0.032122
  33 H :    0.045221

  Mayer bond orders larger than 0.100000
B(  0-S ,  1-C ) :   1.1412 B(  0-S ,  4-C ) :   1.1164 B(  1-C ,  2-C ) :   1.6311
B(  1-C , 32-H ) :   0.9527 B(  2-C ,  3-C ) :   1.2125 B(  2-C ,  6-C ) :   1.0376
B(  3-C ,  4-C ) :   1.6242 B(  3-C ,  5-H ) :   0.9837 B(  4-C , 20-C ) :   1.0304
B(  6-C ,  7-H ) :   0.9335 B(  6-C ,  8-H ) :   0.9437 B(  6-C ,  9-C ) :   1.0437
B(  9-C , 10-H ) :   0.9566 B(  9-C , 11-H ) :   0.9635 B(  9-C , 12-C ) :   1.0694
B( 12-C , 13-H ) :   0.9777 B( 12-C , 14-H ) :   0.9756 B( 12-C , 15-H ) :   0.9791
B( 16-S , 17-C ) :   1.1711 B( 16-S , 20-C ) :   1.1106 B( 17-C , 18-C ) :   1.6125
B( 17-C , 33-H ) :   0.9544 B( 18-C , 19-C ) :   1.2648 B( 18-C , 21-H ) :   0.9815
B( 19-C , 20-C ) :   1.5760 B( 19-C , 22-C ) :   1.0508 B( 22-C , 23-H ) :   0.9274
B( 22-C , 24-H ) :   0.9153 B( 22-C , 25-C ) :   1.0895 B( 25-C , 26-H ) :   0.9485
B( 25-C , 27-H ) :   0.9534 B( 25-C , 28-C ) :   1.0796 B( 28-C , 29-H ) :   0.9750
B( 28-C , 30-H ) :   0.9781 B( 28-C , 31-H ) :   0.9760

Dispersion correction           -0.013971245
FINAL SINGLE POINT ENERGY     -1339.843397741678

DIPOLE MOMENT
-------------
                                X             Y             Z
Electronic contribution:      7.58018      11.83716      18.74230
Nuclear contribution   :     -7.89102     -12.45593     -19.00727
                        -----------------------------------------
Total Dipole Moment    :     -0.31084      -0.61877      -0.26498
                        -----------------------------------------
Magnitude (a.u.)       :      0.74143
Magnitude (Debye)      :      1.88456

Rotational constants in cm-1:     0.018068     0.007715     0.006730
Rotational constants in MHz :   541.667250   231.290973   201.764989

                             ****ORCA TERMINATED NORMALLY****
TOTAL RUN TIME: 0 days 0 hours 0 minutes 20 seconds 980 msec
