                         Program Version 4.2.1 -  RELEASE  -
|  1> ! wB97X-D3 SP def2-SVP
|  2> %pal
|  3> nprocs 24
|  4> end
|  5>
|  6> * xyz 0 1
|  7> S 	 -80.9041 	 -15.346 	 -49.8064
|  8> C 	 -82.3122 	 -16.1642 	 -50.4333
|  9> C 	 -82.7768 	 -15.5692 	 -51.6089
| 10> C 	 -81.9475 	 -14.4784 	 -51.9859
| 11> C 	 -80.7522 	 -14.3918 	 -51.3094
| 12> H 	 -81.9684 	 -14.1504 	 -52.9776
| 13> C 	 -83.8914 	 -16.0452 	 -52.3949
| 14> H 	 -84.7851 	 -15.472 	 -52.1845
| 15> H 	 -84.1994 	 -16.9876 	 -52.0109
| 16> C 	 -83.5723 	 -16.2856 	 -53.8995
| 17> H 	 -84.5562 	 -16.4429 	 -54.4415
| 18> H 	 -83.3027 	 -15.3325 	 -54.3801
| 19> C 	 -82.6955 	 -17.5047 	 -54.3097
| 20> H 	 -83.1705 	 -18.447 	 -53.9776
| 21> H 	 -82.6516 	 -17.5688 	 -55.3747
| 22> H 	 -81.6586 	 -17.483 	 -53.9688
| 23> S 	 -78.8279 	 -13.6873 	 -53.1952
| 24> C 	 -77.7573 	 -12.3702 	 -52.7148
| 25> C 	 -77.7445 	 -12.1223 	 -51.3394
| 26> C 	 -78.8013 	 -12.8161 	 -50.7095
| 27> C 	 -79.5344 	 -13.6022 	 -51.5693
| 28> H 	 -76.9925 	 -11.4761 	 -50.8409
| 29> C 	 -79.0765 	 -12.6963 	 -49.2152
| 30> H 	 -78.8014 	 -13.6543 	 -48.8141
| 31> H 	 -80.1341 	 -12.6254 	 -49.0727
| 32> C 	 -78.3792 	 -11.5156 	 -48.4227
| 33> H 	 -78.835 	 -10.646 	 -48.9431
| 34> H 	 -77.2963 	 -11.5813 	 -48.5661
| 35> C 	 -78.7671 	 -11.5406 	 -46.8717
| 36> H 	 -79.7814 	 -11.8458 	 -46.4817
| 37> H 	 -78.6132 	 -10.6374 	 -46.3263
| 38> H 	 -78.0949 	 -12.2733 	 -46.3749
| 39> H 	 -82.787 	 -16.9173 	 -49.8206
| 40> H 	 -76.995 	 -11.9633 	 -53.3187
| 41> *
| 42>
| 43>                          ****END OF INPUT****

CARTESIAN COORDINATES (ANGSTROEM)
---------------------------------
  S    -80.904100  -15.346000  -49.806400
  C    -82.312200  -16.164200  -50.433300
  C    -82.776800  -15.569200  -51.608900
  C    -81.947500  -14.478400  -51.985900
  C    -80.752200  -14.391800  -51.309400
  H    -81.968400  -14.150400  -52.977600
  C    -83.891400  -16.045200  -52.394900
  H    -84.785100  -15.472000  -52.184500
  H    -84.199400  -16.987600  -52.010900
  C    -83.572300  -16.285600  -53.899500
  H    -84.556200  -16.442900  -54.441500
  H    -83.302700  -15.332500  -54.380100
  C    -82.695500  -17.504700  -54.309700
  H    -83.170500  -18.447000  -53.977600
  H    -82.651600  -17.568800  -55.374700
  H    -81.658600  -17.483000  -53.968800
  S    -78.827900  -13.687300  -53.195200
  C    -77.757300  -12.370200  -52.714800
  C    -77.744500  -12.122300  -51.339400
  C    -78.801300  -12.816100  -50.709500
  C    -79.534400  -13.602200  -51.569300
  H    -76.992500  -11.476100  -50.840900
  C    -79.076500  -12.696300  -49.215200
  H    -78.801400  -13.654300  -48.814100
  H    -80.134100  -12.625400  -49.072700
  C    -78.379200  -11.515600  -48.422700
  H    -78.835000  -10.646000  -48.943100
  H    -77.296300  -11.581300  -48.566100
  C    -78.767100  -11.540600  -46.871700
  H    -79.781400  -11.845800  -46.481700
  H    -78.613200  -10.637400  -46.326300
  H    -78.094900  -12.273300  -46.374900
  H    -82.787000  -16.917300  -49.820600
  H    -76.995000  -11.963300  -53.318700

 Total Charge           Charge          ....    0
 Multiplicity           Mult            ....    1
 Number of Electrons    NEL             ....  134
 Basis Dimension        Dim             ....  322

ORBITAL ENERGIES
----------------

  NO   OCC          E(Eh)            E(eV)
   0   2.0000     -88.971199     -2421.0294
   1   2.0000     -88.959996     -2420.7246
   2   2.0000     -10.332009      -281.1483
   3   2.0000     -10.325683      -280.9761
   4   2.0000     -10.316869      -280.7363
   5   2.0000     -10.311581      -280.5924
   6   2.0000     -10.303062      -280.3606
   7   2.0000     -10.301040      -280.3055
   8   2.0000     -10.297825      -280.2181
   9   2.0000     -10.295666      -280.1593
  10   2.0000     -10.295618      -280.1580
  11   2.0000     -10.288311      -279.9592
  12   2.0000     -10.287192      -279.9287
  13   2.0000     -10.284724      -279.8616
  14   2.0000     -10.284510      -279.8557
  15   2.0000     -10.280209      -279.7387
  16   2.0000      -8.084972      -220.0033
  17   2.0000      -8.074309      -219.7131
  18   2.0000      -6.043396      -164.4492
  19   2.0000      -6.039928      -164.3548
  20   2.0000      -6.035582      -164.2365
  21   2.0000      -6.032786      -164.1605
  22   2.0000      -6.028836      -164.0530
  23   2.0000      -6.025179      -163.9535
  24   2.0000      -1.003200       -27.2985
  25   2.0000      -0.982629       -26.7387
  26   2.0000      -0.910480       -24.7754
  27   2.0000      -0.900016       -24.4907
  28   2.0000      -0.863651       -23.5011
  29   2.0000      -0.847944       -23.0737
  30   2.0000      -0.842140       -22.9158
  31   2.0000      -0.817248       -22.2385
  32   2.0000      -0.783367       -21.3165
  33   2.0000      -0.770600       -20.9691
  34   2.0000      -0.711405       -19.3583
  35   2.0000      -0.709057       -19.2944
  36   2.0000      -0.687856       -18.7175
  37   2.0000      -0.660248       -17.9663
  38   2.0000      -0.636316       -17.3150
  39   2.0000      -0.623821       -16.9750
  40   2.0000      -0.595371       -16.2009
  41   2.0000      -0.567752       -15.4493
  42   2.0000      -0.561983       -15.2923
  43   2.0000      -0.553611       -15.0645
  44   2.0000      -0.529790       -14.4163
  45   2.0000      -0.519641       -14.1401
  46   2.0000      -0.512856       -13.9555
  47   2.0000      -0.508732       -13.8433
  48   2.0000      -0.502821       -13.6825
  49   2.0000      -0.492178       -13.3928
  50   2.0000      -0.481167       -13.0932
  51   2.0000      -0.478123       -13.0104
  52   2.0000      -0.470267       -12.7966
  53   2.0000      -0.469227       -12.7683
  54   2.0000      -0.460639       -12.5346
  55   2.0000      -0.454794       -12.3756
  56   2.0000      -0.445794       -12.1307
  57   2.0000      -0.438436       -11.9305
  58   2.0000      -0.432621       -11.7722
  59   2.0000      -0.422328       -11.4921
  60   2.0000      -0.422061       -11.4849
  61   2.0000      -0.415820       -11.3150
  62   2.0000      -0.406981       -11.0745
  63   2.0000      -0.344037        -9.3617
  64   2.0000      -0.335966        -9.1421
  65   2.0000      -0.325359        -8.8535
  66   2.0000      -0.286150        -7.7865
  67   0.0000       0.024527         0.6674
  68   0.0000       0.067498         1.8367
  69   0.0000       0.102052         2.7770
  70   0.0000       0.114338         3.1113
  71   0.0000       0.129845         3.5333

MULLIKEN ATOMIC CHARGES
-----------------------
   0 S :    0.071809
   1 C :   -0.105070
   2 C :   -0.124195
   3 C :    0.099439
   4 C :   -0.199071
   5 H :   -0.005292
   6 C :    0.127444
   7 H :    0.036199
   8 H :   -0.009540
   9 C :   -0.130295
  10 H :    0.026619
  11 H :    0.031453
  12 C :   -0.027794
  13 H :    0.031700
  14 H :    0.028864
  15 H :    0.045117
  16 S :    0.117990
  17 C :   -0.063326
  18 C :   -0.071747
  19 C :   -0.036138
  20 C :   -0.135687
  21 H :    0.036827
  22 C :    0.044158
  23 H :    0.037223
  24 H :    0.034013
  25 C :   -0.080401
  26 H :    0.047995
  27 H :    0.049514
  28 C :   -0.063740
  29 H :    0.040282
  30 H :    0.029512
  31 H :    0.031218
  32 H :    0.047389
  33 H :    0.037531
Sum of atomic charges:   -0.0000000

LOEWDIN ATOMIC CHARGES
----------------------
   0 S :    0.390483
   1 C :   -0.193906
   2 C :   -0.064723
   3 C :   -0.064567
   4 C :   -0.165904
   5 H :    0.018613
   6 C :   -0.036792
   7 H :    0.038836
   8 H :    0.026687
   9 C :   -0.045917
  10 H :    0.031268
  11 H :    0.020748
  12 C :   -0.062594
  13 H :    0.028957
  14 H :    0.025489
  15 H :    0.027443
  16 S :    0.398038
  17 C :   -0.171843
  18 C :   -0.072259
  19 C :   -0.054606
  20 C :   -0.196116
  21 H :    0.040126
  22 C :   -0.037238
  23 H :    0.023603
  24 H :    0.025895
  25 C :   -0.033994
  26 H :    0.030854
  27 H :    0.025490
  28 C :   -0.078632
  29 H :    0.034300
  30 H :    0.021495
  31 H :    0.029608
  32 H :    0.023700
  33 H :    0.017459

  Mayer bond orders larger than 0.100000
B(  0-S ,  1-C ) :   1.1387 B(  0-S ,  4-C ) :   1.1418 B(  1-C ,  2-C ) :   1.5959
B(  1-C , 32-H ) :   0.9698 B(  2-C ,  3-C ) :   1.2442 B(  2-C ,  6-C ) :   1.0493
B(  3-C ,  4-C ) :   1.6058 B(  3-C ,  5-H ) :   0.9719 B(  4-C , 20-C ) :   1.0293
B(  6-C ,  7-H ) :   0.9220 B(  6-C ,  8-H ) :   0.9290 B(  6-C ,  9-C ) :   1.0650
B(  9-C , 10-H ) :   0.9510 B(  9-C , 11-H ) :   0.9587 B(  9-C , 12-C ) :   1.0699
B( 12-C , 13-H ) :   0.9725 B( 12-C , 14-H ) :   0.9732 B( 12-C , 15-H ) :   0.9773
B( 16-S , 17-C ) :   1.1564 B( 16-S , 20-C ) :   1.1289 B( 17-C , 18-C ) :   1.6025
B( 17-C , 20-C ) :   0.1013 B( 17-C , 33-H ) :   0.9651 B( 18-C , 19-C ) :   1.2605
B( 18-C , 21-H ) :   0.9790 B( 19-C , 20-C ) :   1.6039 B( 19-C , 22-C ) :   1.0190
B( 22-C , 23-H ) :   0.9291 B( 22-C , 24-H ) :   0.9310 B( 22-C , 25-C ) :   1.0657
B( 25-C , 26-H ) :   0.9628 B( 25-C , 27-H ) :   0.9517 B( 25-C , 28-C ) :   1.0593
B( 28-C , 29-H ) :   0.9794 B( 28-C , 30-H ) :   0.9785 B( 28-C , 31-H ) :   0.9764

Dispersion correction           -0.014068601
FINAL SINGLE POINT ENERGY     -1339.860745133463

DIPOLE MOMENT
-------------
                                X             Y             Z
Electronic contribution:      6.76450      -0.09232      -4.48609
Nuclear contribution   :     -6.84962       0.09575       4.54340
                        -----------------------------------------
Total Dipole Moment    :     -0.08511       0.00342       0.05731
                        -----------------------------------------
Magnitude (a.u.)       :      0.10267
Magnitude (Debye)      :      0.26096

Rotational constants in cm-1:     0.021915     0.008119     0.006279
Rotational constants in MHz :   656.997447   243.398087   188.233746

                             ****ORCA TERMINATED NORMALLY****
TOTAL RUN TIME: 0 days 0 hours 0 minutes 21 seconds 99 msec
