                         Program Version 4.2.1 -  RELEASE  -
|  1> ! wB97X-D3 SP def2-SVP
|  2> %pal
|  3> nprocs 24
|  4> end
|  5>
|  6> * xyz 0 1
|  7> S 	 -105.805 	 48.1184 	 -99.797
|  8> C 	 -106.524 	 49.6036 	 -100.323
|  9> C 	 -105.696 	 50.1053 	 -101.326
| 10> C 	 -104.423 	 49.4598 	 -101.342
| 11> C 	 -104.26 	 48.3869 	 -100.449
| 12> H 	 -103.686 	 49.6736 	 -102.125
| 13> C 	 -106.085 	 51.2102 	 -102.253
| 14> H 	 -107.029 	 51.5898 	 -101.897
| 15> H 	 -106.354 	 50.7613 	 -103.161
| 16> C 	 -105.172 	 52.4054 	 -102.37
| 17> H 	 -104.391 	 52.1104 	 -102.997
| 18> H 	 -105.628 	 53.1978 	 -102.941
| 19> C 	 -104.582 	 52.8586 	 -101.041
| 20> H 	 -103.834 	 53.5573 	 -101.298
| 21> H 	 -105.326 	 53.4136 	 -100.492
| 22> H 	 -104.089 	 52.1964 	 -100.369
| 23> S 	 -103.49 	 45.8749 	 -99.8776
| 24> C 	 -101.827 	 45.4238 	 -99.8139
| 25> C 	 -101.019 	 46.4542 	 -100.296
| 26> C 	 -101.759 	 47.6924 	 -100.379
| 27> C 	 -103.136 	 47.5278 	 -100.238
| 28> H 	 -99.9977 	 46.2892 	 -100.659
| 29> C 	 -101.105 	 49.0323 	 -100.848
| 30> H 	 -101.812 	 49.7262 	 -100.435
| 31> H 	 -101.022 	 49.1549 	 -101.876
| 32> C 	 -99.7494 	 49.3688 	 -100.265
| 33> H 	 -99.3158 	 50.2895 	 -100.63
| 34> H 	 -99.0342 	 48.675 	 -100.693
| 35> C 	 -99.7095 	 49.4113 	 -98.7517
| 36> H 	 -100.528 	 48.7989 	 -98.2933
| 37> H 	 -99.7655 	 50.3919 	 -98.3516
| 38> H 	 -98.7687 	 48.965 	 -98.3621
| 39> H 	 -107.49 	 49.9255 	 -100.027
| 40> H 	 -101.475 	 44.3646 	 -99.7551
| 41> *
| 42>
| 43>                          ****END OF INPUT****

CARTESIAN COORDINATES (ANGSTROEM)
---------------------------------
  S    -105.805000   48.118400  -99.797000
  C    -106.524000   49.603600  -100.323000
  C    -105.696000   50.105300  -101.326000
  C    -104.423000   49.459800  -101.342000
  C    -104.260000   48.386900  -100.449000
  H    -103.686000   49.673600  -102.125000
  C    -106.085000   51.210200  -102.253000
  H    -107.029000   51.589800  -101.897000
  H    -106.354000   50.761300  -103.161000
  C    -105.172000   52.405400  -102.370000
  H    -104.391000   52.110400  -102.997000
  H    -105.628000   53.197800  -102.941000
  C    -104.582000   52.858600  -101.041000
  H    -103.834000   53.557300  -101.298000
  H    -105.326000   53.413600  -100.492000
  H    -104.089000   52.196400  -100.369000
  S    -103.490000   45.874900  -99.877600
  C    -101.827000   45.423800  -99.813900
  C    -101.019000   46.454200  -100.296000
  C    -101.759000   47.692400  -100.379000
  C    -103.136000   47.527800  -100.238000
  H    -99.997700   46.289200  -100.659000
  C    -101.105000   49.032300  -100.848000
  H    -101.812000   49.726200  -100.435000
  H    -101.022000   49.154900  -101.876000
  C    -99.749400   49.368800  -100.265000
  H    -99.315800   50.289500  -100.630000
  H    -99.034200   48.675000  -100.693000
  C    -99.709500   49.411300  -98.751700
  H    -100.528000   48.798900  -98.293300
  H    -99.765500   50.391900  -98.351600
  H    -98.768700   48.965000  -98.362100
  H    -107.490000   49.925500  -100.027000
  H    -101.475000   44.364600  -99.755100

 Total Charge           Charge          ....    0
 Multiplicity           Mult            ....    1
 Number of Electrons    NEL             ....  134
 Basis Dimension        Dim             ....  322

ORBITAL ENERGIES
----------------

  NO   OCC          E(Eh)            E(eV)
   0   2.0000     -88.966367     -2420.8979
   1   2.0000     -88.961922     -2420.7770
   2   2.0000     -10.330192      -281.0988
   3   2.0000     -10.329007      -281.0666
   4   2.0000     -10.320820      -280.8438
   5   2.0000     -10.313029      -280.6318
   6   2.0000     -10.308654      -280.5127
   7   2.0000     -10.300571      -280.2928
   8   2.0000     -10.299968      -280.2764
   9   2.0000     -10.294025      -280.1147
  10   2.0000     -10.284499      -279.8554
  11   2.0000     -10.280478      -279.7460
  12   2.0000     -10.279165      -279.7103
  13   2.0000     -10.278835      -279.7013
  14   2.0000     -10.270822      -279.4833
  15   2.0000     -10.266001      -279.3521
  16   2.0000      -8.082071      -219.9243
  17   2.0000      -8.078025      -219.8142
  18   2.0000      -6.040588      -164.3728
  19   2.0000      -6.036546      -164.2628
  20   2.0000      -6.036451      -164.2602
  21   2.0000      -6.032748      -164.1594
  22   2.0000      -6.032252      -164.1459
  23   2.0000      -6.028774      -164.0513
  24   2.0000      -1.016484       -27.6599
  25   2.0000      -0.990876       -26.9631
  26   2.0000      -0.920680       -25.0530
  27   2.0000      -0.911135       -24.7932
  28   2.0000      -0.876043       -23.8383
  29   2.0000      -0.849025       -23.1032
  30   2.0000      -0.840283       -22.8653
  31   2.0000      -0.816152       -22.2086
  32   2.0000      -0.789226       -21.4759
  33   2.0000      -0.778693       -21.1893
  34   2.0000      -0.716587       -19.4993
  35   2.0000      -0.700832       -19.0706
  36   2.0000      -0.697354       -18.9760
  37   2.0000      -0.657013       -17.8782
  38   2.0000      -0.638633       -17.3781
  39   2.0000      -0.624909       -17.0046
  40   2.0000      -0.592780       -16.1304
  41   2.0000      -0.568784       -15.4774
  42   2.0000      -0.563502       -15.3337
  43   2.0000      -0.561803       -15.2874
  44   2.0000      -0.546722       -14.8771
  45   2.0000      -0.541378       -14.7316
  46   2.0000      -0.518406       -14.1065
  47   2.0000      -0.514011       -13.9870
  48   2.0000      -0.511515       -13.9190
  49   2.0000      -0.499531       -13.5929
  50   2.0000      -0.497326       -13.5329
  51   2.0000      -0.478355       -13.0167
  52   2.0000      -0.475379       -12.9357
  53   2.0000      -0.461756       -12.5650
  54   2.0000      -0.456704       -12.4276
  55   2.0000      -0.451773       -12.2934
  56   2.0000      -0.445353       -12.1187
  57   2.0000      -0.442126       -12.0309
  58   2.0000      -0.434263       -11.8169
  59   2.0000      -0.426238       -11.5985
  60   2.0000      -0.413264       -11.2455
  61   2.0000      -0.408292       -11.1102
  62   2.0000      -0.399319       -10.8660
  63   2.0000      -0.360664        -9.8142
  64   2.0000      -0.331011        -9.0073
  65   2.0000      -0.322916        -8.7870
  66   2.0000      -0.284488        -7.7413
  67   0.0000       0.018248         0.4965
  68   0.0000       0.078556         2.1376
  69   0.0000       0.097130         2.6430
  70   0.0000       0.128087         3.4854
  71   0.0000       0.133817         3.6413

MULLIKEN ATOMIC CHARGES
-----------------------
   0 S :    0.096914
   1 C :   -0.105951
   2 C :   -0.128437
   3 C :   -0.011823
   4 C :   -0.122110
   5 H :    0.019942
   6 C :    0.134526
   7 H :   -0.006565
   8 H :    0.023306
   9 C :   -0.051192
  10 H :    0.005115
  11 H :    0.024391
  12 C :   -0.018066
  13 H :    0.013232
  14 H :    0.021460
  15 H :    0.041609
  16 S :    0.104203
  17 C :   -0.099841
  18 C :   -0.049436
  19 C :   -0.096879
  20 C :   -0.110176
  21 H :    0.037815
  22 C :    0.094247
  23 H :    0.022996
  24 H :    0.030310
  25 C :   -0.057847
  26 H :    0.017541
  27 H :    0.011030
  28 C :   -0.065257
  29 H :    0.049516
  30 H :    0.028806
  31 H :    0.029183
  32 H :    0.040254
  33 H :    0.077184
Sum of atomic charges:   -0.0000000

LOEWDIN ATOMIC CHARGES
----------------------
   0 S :    0.431693
   1 C :   -0.194904
   2 C :   -0.058943
   3 C :   -0.075459
   4 C :   -0.210594
   5 H :    0.030751
   6 C :   -0.030231
   7 H :    0.026068
   8 H :    0.028968
   9 C :   -0.035740
  10 H :    0.013155
  11 H :    0.028537
  12 C :   -0.058200
  13 H :    0.023295
  14 H :    0.023894
  15 H :    0.025868
  16 S :    0.426821
  17 C :   -0.203407
  18 C :   -0.070703
  19 C :   -0.057174
  20 C :   -0.200743
  21 H :    0.036786
  22 C :   -0.024160
  23 H :    0.029107
  24 H :    0.022178
  25 C :   -0.047701
  26 H :    0.025471
  27 H :    0.017771
  28 C :   -0.069767
  29 H :    0.033539
  30 H :    0.020129
  31 H :    0.030590
  32 H :    0.023400
  33 H :    0.039702

  Mayer bond orders larger than 0.100000
B(  0-S ,  1-C ) :   1.1542 B(  0-S ,  4-C ) :   1.1790 B(  1-C ,  2-C ) :   1.5415
B(  1-C ,  4-C ) :   0.1086 B(  1-C , 32-H ) :   0.9804 B(  2-C ,  3-C ) :   1.2867
B(  2-C ,  6-C ) :   1.0302 B(  3-C ,  4-C ) :   1.4854 B(  3-C ,  5-H ) :   0.9949
B(  4-C , 20-C ) :   1.0905 B(  6-C ,  7-H ) :   0.9295 B(  6-C ,  8-H ) :   0.9267
B(  6-C ,  9-C ) :   1.0734 B(  9-C , 10-H ) :   0.9493 B(  9-C , 11-H ) :   0.9520
B(  9-C , 12-C ) :   1.0861 B( 12-C , 13-H ) :   0.9694 B( 12-C , 14-H ) :   0.9761
B( 12-C , 15-H ) :   0.9690 B( 16-S , 17-C ) :   1.1677 B( 16-S , 20-C ) :   1.1480
B( 17-C , 18-C ) :   1.5918 B( 17-C , 33-H ) :   0.9610 B( 18-C , 19-C ) :   1.2452
B( 18-C , 21-H ) :   0.9866 B( 19-C , 20-C ) :   1.5806 B( 19-C , 22-C ) :   1.0195
B( 22-C , 23-H ) :   0.9326 B( 22-C , 24-H ) :   0.9375 B( 22-C , 25-C ) :   1.0879
B( 25-C , 26-H ) :   0.9526 B( 25-C , 27-H ) :   0.9527 B( 25-C , 28-C ) :   1.0655
B( 28-C , 29-H ) :   0.9785 B( 28-C , 30-H ) :   0.9780 B( 28-C , 31-H ) :   0.9742

Dispersion correction           -0.014695724
FINAL SINGLE POINT ENERGY     -1339.858679682134

DIPOLE MOMENT
-------------
                                X             Y             Z
Electronic contribution:    -13.24581     -24.28178       4.79954
Nuclear contribution   :     13.53119      24.72482      -5.38553
                        -----------------------------------------
Total Dipole Moment    :      0.28538       0.44303      -0.58599
                        -----------------------------------------
Magnitude (a.u.)       :      0.78810
Magnitude (Debye)      :      2.00320

Rotational constants in cm-1:     0.018634     0.009688     0.006958
Rotational constants in MHz :   558.647692   290.432202   208.600996

                             ****ORCA TERMINATED NORMALLY****
TOTAL RUN TIME: 0 days 0 hours 0 minutes 23 seconds 486 msec
