                         Program Version 4.2.1 -  RELEASE  -
|  1> ! wB97X-D3 SP def2-SVP
|  2> %pal
|  3> nprocs 24
|  4> end
|  5>
|  6> * xyz 0 1
|  7> S 	 -105.04 	 58.8445 	 -3.65735
|  8> C 	 -104.696 	 60.5127 	 -3.49837
|  9> C 	 -104.886 	 61.1758 	 -4.65209
| 10> C 	 -105.507 	 60.4465 	 -5.64997
| 11> C 	 -105.596 	 59.1141 	 -5.29137
| 12> H 	 -105.845 	 60.7815 	 -6.61133
| 13> C 	 -104.635 	 62.6416 	 -4.86434
| 14> H 	 -104.06 	 63.0449 	 -4.02306
| 15> H 	 -105.608 	 63.1839 	 -4.94925
| 16> C 	 -103.822 	 63.0429 	 -6.0604
| 17> H 	 -102.763 	 62.6529 	 -6.02594
| 18> H 	 -104.156 	 62.6872 	 -7.02716
| 19> C 	 -103.58 	 64.5278 	 -5.93376
| 20> H 	 -103.092 	 64.8377 	 -6.91625
| 21> H 	 -104.524 	 65.0449 	 -5.83443
| 22> H 	 -102.948 	 64.9341 	 -5.11754
| 23> S 	 -105.073 	 57.1054 	 -7.08609
| 24> C 	 -106.343 	 56.1593 	 -7.81541
| 25> C 	 -107.558 	 56.584 	 -7.33729
| 26> C 	 -107.476 	 57.6261 	 -6.36585
| 27> C 	 -106.173 	 58.1052 	 -6.2089
| 28> H 	 -108.459 	 56.0046 	 -7.65023
| 29> C 	 -108.635 	 58.1921 	 -5.5055
| 30> H 	 -108.272 	 58.3407 	 -4.44137
| 31> H 	 -109.367 	 57.4609 	 -5.33459
| 32> C 	 -109.295 	 59.5219 	 -5.8477
| 33> H 	 -109.846 	 59.4522 	 -6.80781
| 34> H 	 -108.588 	 60.311 	 -5.98879
| 35> C 	 -110.437 	 59.8245 	 -4.97234
| 36> H 	 -109.995 	 60.0351 	 -3.946
| 37> H 	 -111.254 	 59.0948 	 -4.88634
| 38> H 	 -110.971 	 60.7864 	 -5.20471
| 39> H 	 -104.264 	 60.9743 	 -2.61585
| 40> H 	 -106.185 	 55.2722 	 -8.49297
| 41> *
| 42>
| 43>                          ****END OF INPUT****

CARTESIAN COORDINATES (ANGSTROEM)
---------------------------------
  S    -105.040000   58.844500   -3.657350
  C    -104.696000   60.512700   -3.498370
  C    -104.886000   61.175800   -4.652090
  C    -105.507000   60.446500   -5.649970
  C    -105.596000   59.114100   -5.291370
  H    -105.845000   60.781500   -6.611330
  C    -104.635000   62.641600   -4.864340
  H    -104.060000   63.044900   -4.023060
  H    -105.608000   63.183900   -4.949250
  C    -103.822000   63.042900   -6.060400
  H    -102.763000   62.652900   -6.025940
  H    -104.156000   62.687200   -7.027160
  C    -103.580000   64.527800   -5.933760
  H    -103.092000   64.837700   -6.916250
  H    -104.524000   65.044900   -5.834430
  H    -102.948000   64.934100   -5.117540
  S    -105.073000   57.105400   -7.086090
  C    -106.343000   56.159300   -7.815410
  C    -107.558000   56.584000   -7.337290
  C    -107.476000   57.626100   -6.365850
  C    -106.173000   58.105200   -6.208900
  H    -108.459000   56.004600   -7.650230
  C    -108.635000   58.192100   -5.505500
  H    -108.272000   58.340700   -4.441370
  H    -109.367000   57.460900   -5.334590
  C    -109.295000   59.521900   -5.847700
  H    -109.846000   59.452200   -6.807810
  H    -108.588000   60.311000   -5.988790
  C    -110.437000   59.824500   -4.972340
  H    -109.995000   60.035100   -3.946000
  H    -111.254000   59.094800   -4.886340
  H    -110.971000   60.786400   -5.204710
  H    -104.264000   60.974300   -2.615850
  H    -106.185000   55.272200   -8.492970

 Total Charge           Charge          ....    0
 Multiplicity           Mult            ....    1
 Number of Electrons    NEL             ....  134
 Basis Dimension        Dim             ....  322

ORBITAL ENERGIES
----------------

  NO   OCC          E(Eh)            E(eV)
   0   2.0000     -88.969996     -2420.9967
   1   2.0000     -88.962053     -2420.7805
   2   2.0000     -10.328040      -281.0403
   3   2.0000     -10.323378      -280.9134
   4   2.0000     -10.319290      -280.8022
   5   2.0000     -10.307689      -280.4865
   6   2.0000     -10.306291      -280.4484
   7   2.0000     -10.296411      -280.1796
   8   2.0000     -10.289997      -280.0051
   9   2.0000     -10.289408      -279.9890
  10   2.0000     -10.288922      -279.9758
  11   2.0000     -10.288427      -279.9623
  12   2.0000     -10.285910      -279.8938
  13   2.0000     -10.281868      -279.7838
  14   2.0000     -10.280386      -279.7435
  15   2.0000     -10.278287      -279.6864
  16   2.0000      -8.085148      -220.0081
  17   2.0000      -8.077412      -219.7976
  18   2.0000      -6.043508      -164.4522
  19   2.0000      -6.039625      -164.3465
  20   2.0000      -6.036012      -164.2482
  21   2.0000      -6.035733      -164.2407
  22   2.0000      -6.031701      -164.1309
  23   2.0000      -6.028450      -164.0425
  24   2.0000      -1.013853       -27.5883
  25   2.0000      -0.991570       -26.9820
  26   2.0000      -0.920297       -25.0425
  27   2.0000      -0.910864       -24.7859
  28   2.0000      -0.871211       -23.7069
  29   2.0000      -0.857571       -23.3357
  30   2.0000      -0.848924       -23.1004
  31   2.0000      -0.816042       -22.2056
  32   2.0000      -0.776442       -21.1281
  33   2.0000      -0.767154       -20.8753
  34   2.0000      -0.706322       -19.2200
  35   2.0000      -0.695085       -18.9142
  36   2.0000      -0.689237       -18.7551
  37   2.0000      -0.654277       -17.8038
  38   2.0000      -0.647780       -17.6270
  39   2.0000      -0.625103       -17.0099
  40   2.0000      -0.595466       -16.2034
  41   2.0000      -0.575252       -15.6534
  42   2.0000      -0.566259       -15.4087
  43   2.0000      -0.563301       -15.3282
  44   2.0000      -0.524379       -14.2691
  45   2.0000      -0.518607       -14.1120
  46   2.0000      -0.515582       -14.0297
  47   2.0000      -0.512128       -13.9357
  48   2.0000      -0.510342       -13.8871
  49   2.0000      -0.497549       -13.5390
  50   2.0000      -0.495934       -13.4951
  51   2.0000      -0.480468       -13.0742
  52   2.0000      -0.476517       -12.9667
  53   2.0000      -0.465104       -12.6561
  54   2.0000      -0.455765       -12.4020
  55   2.0000      -0.451373       -12.2825
  56   2.0000      -0.446950       -12.1621
  57   2.0000      -0.439250       -11.9526
  58   2.0000      -0.431052       -11.7295
  59   2.0000      -0.425368       -11.5749
  60   2.0000      -0.419859       -11.4249
  61   2.0000      -0.403777       -10.9873
  62   2.0000      -0.394953       -10.7472
  63   2.0000      -0.339353        -9.2343
  64   2.0000      -0.331504        -9.0207
  65   2.0000      -0.320083        -8.7099
  66   2.0000      -0.312946        -8.5157
  67   0.0000       0.049810         1.3554
  68   0.0000       0.053149         1.4463
  69   0.0000       0.118654         3.2287
  70   0.0000       0.128862         3.5065
  71   0.0000       0.130634         3.5547

MULLIKEN ATOMIC CHARGES
-----------------------
   0 S :    0.138089
   1 C :   -0.132883
   2 C :   -0.021295
   3 C :    0.031682
   4 C :   -0.157631
   5 H :    0.014676
   6 C :    0.050582
   7 H :    0.009981
   8 H :    0.042931
   9 C :   -0.087088
  10 H :    0.031630
  11 H :    0.031694
  12 C :   -0.069242
  13 H :    0.038180
  14 H :    0.017638
  15 H :    0.045919
  16 S :    0.109830
  17 C :   -0.125068
  18 C :   -0.049473
  19 C :    0.003702
  20 C :   -0.194690
  21 H :    0.033345
  22 C :    0.063935
  23 H :    0.023520
  24 H :   -0.003256
  25 C :   -0.023314
  26 H :    0.017396
  27 H :    0.023347
  28 C :   -0.088769
  29 H :    0.025819
  30 H :    0.039170
  31 H :    0.035689
  32 H :    0.043363
  33 H :    0.080592
Sum of atomic charges:    0.0000000

LOEWDIN ATOMIC CHARGES
----------------------
   0 S :    0.429554
   1 C :   -0.206325
   2 C :   -0.074719
   3 C :   -0.048617
   4 C :   -0.198987
   5 H :    0.031902
   6 C :   -0.033991
   7 H :    0.029916
   8 H :    0.036627
   9 C :   -0.049432
  10 H :    0.032806
  11 H :    0.020488
  12 C :   -0.070454
  13 H :    0.033498
  14 H :    0.016875
  15 H :    0.029676
  16 S :    0.421616
  17 C :   -0.201698
  18 C :   -0.082506
  19 C :   -0.055722
  20 C :   -0.209795
  21 H :    0.039872
  22 C :   -0.031407
  23 H :    0.035992
  24 H :    0.020156
  25 C :   -0.046821
  26 H :    0.025979
  27 H :    0.021254
  28 C :   -0.073517
  29 H :    0.025199
  30 H :    0.026115
  31 H :    0.031223
  32 H :    0.030552
  33 H :    0.044693

  Mayer bond orders larger than 0.100000
B(  0-S ,  1-C ) :   1.1386 B(  0-S ,  4-C ) :   1.1620 B(  1-C ,  2-C ) :   1.6176
B(  1-C , 32-H ) :   0.9644 B(  2-C ,  3-C ) :   1.2413 B(  2-C ,  6-C ) :   1.0255
B(  3-C ,  4-C ) :   1.5693 B(  3-C ,  5-H ) :   0.9971 B(  4-C , 20-C ) :   1.0098
B(  6-C ,  7-H ) :   0.9412 B(  6-C ,  8-H ) :   0.9362 B(  6-C ,  9-C ) :   1.0674
B(  9-C , 10-H ) :   0.9489 B(  9-C , 11-H ) :   0.9551 B(  9-C , 12-C ) :   1.0799
B( 12-C , 13-H ) :   0.9721 B( 12-C , 14-H ) :   0.9712 B( 12-C , 15-H ) :   0.9745
B( 16-S , 17-C ) :   1.1670 B( 16-S , 20-C ) :   1.1694 B( 17-C , 18-C ) :   1.5936
B( 17-C , 20-C ) :   0.1025 B( 17-C , 33-H ) :   0.9608 B( 18-C , 19-C ) :   1.2597
B( 18-C , 21-H ) :   0.9854 B( 19-C , 20-C ) :   1.5795 B( 19-C , 22-C ) :   1.0327
B( 22-C , 23-H ) :   0.9292 B( 22-C , 24-H ) :   0.9342 B( 22-C , 25-C ) :   1.0715
B( 25-C , 26-H ) :   0.9477 B( 25-C , 27-H ) :   0.9498 B( 25-C , 28-C ) :   1.0859
B( 28-C , 29-H ) :   0.9709 B( 28-C , 30-H ) :   0.9727 B( 28-C , 31-H ) :   0.9701

Dispersion correction           -0.014093656
FINAL SINGLE POINT ENERGY     -1339.873279732790

DIPOLE MOMENT
-------------
                                X             Y             Z
Electronic contribution:     10.74660     -23.50761       0.59839
Nuclear contribution   :    -10.99243      23.85096      -0.63726
                        -----------------------------------------
Total Dipole Moment    :     -0.24583       0.34335      -0.03887
                        -----------------------------------------
Magnitude (a.u.)       :      0.42406
Magnitude (Debye)      :      1.07788

Rotational constants in cm-1:     0.017352     0.008420     0.007222
Rotational constants in MHz :   520.191443   252.436221   216.510532

                             ****ORCA TERMINATED NORMALLY****
TOTAL RUN TIME: 0 days 0 hours 0 minutes 21 seconds 548 msec
