                         Program Version 4.2.1 -  RELEASE  -
|  1> ! wB97X-D3 SP def2-SVP
|  2> %pal
|  3> nprocs 24
|  4> end
|  5>
|  6> * xyz 0 1
|  7> S 	 -108.554 	 51.2124 	 -69.5075
|  8> C 	 -109.018 	 50.3366 	 -70.9031
|  9> C 	 -107.858 	 49.8562 	 -71.5281
| 10> C 	 -106.66 	 50.2204 	 -70.8395
| 11> C 	 -106.848 	 50.9251 	 -69.6883
| 12> H 	 -105.73 	 49.8853 	 -71.105
| 13> C 	 -107.904 	 49.1056 	 -72.854
| 14> H 	 -108.407 	 49.7445 	 -73.5868
| 15> H 	 -108.45 	 48.1738 	 -72.7163
| 16> C 	 -106.529 	 48.6914 	 -73.4072
| 17> H 	 -105.849 	 49.5558 	 -73.5892
| 18> H 	 -105.973 	 48.1833 	 -72.5535
| 19> C 	 -106.662 	 47.9858 	 -74.7636
| 20> H 	 -107.227 	 48.6085 	 -75.3956
| 21> H 	 -105.708 	 47.6095 	 -75.2067
| 22> H 	 -107.318 	 47.0942 	 -74.6684
| 23> S 	 -104.799 	 50.4755 	 -67.9953
| 24> C 	 -103.867 	 51.8995 	 -67.4699
| 25> C 	 -104.332 	 53.085 	 -67.9235
| 26> C 	 -105.449 	 52.9306 	 -68.7929
| 27> C 	 -105.806 	 51.5628 	 -68.9288
| 28> H 	 -103.858 	 53.9577 	 -67.629
| 29> C 	 -106.082 	 54.134 	 -69.4286
| 30> H 	 -105.79 	 55.0156 	 -68.721
| 31> H 	 -107.146 	 53.8962 	 -69.2627
| 32> C 	 -105.631 	 54.3212 	 -70.8591
| 33> H 	 -105.84 	 53.4286 	 -71.493
| 34> H 	 -104.585 	 54.4589 	 -70.8958
| 35> C 	 -106.256 	 55.6109 	 -71.5246
| 36> H 	 -107.355 	 55.5677 	 -71.2636
| 37> H 	 -106.178 	 55.4446 	 -72.5955
| 38> H 	 -105.658 	 56.5106 	 -71.4152
| 39> H 	 -110.004 	 50.1264 	 -71.3054
| 40> H 	 -102.992 	 51.7072 	 -66.764
| 41> *
| 42>
| 43>                          ****END OF INPUT****

CARTESIAN COORDINATES (ANGSTROEM)
---------------------------------
  S    -108.554000   51.212400  -69.507500
  C    -109.018000   50.336600  -70.903100
  C    -107.858000   49.856200  -71.528100
  C    -106.660000   50.220400  -70.839500
  C    -106.848000   50.925100  -69.688300
  H    -105.730000   49.885300  -71.105000
  C    -107.904000   49.105600  -72.854000
  H    -108.407000   49.744500  -73.586800
  H    -108.450000   48.173800  -72.716300
  C    -106.529000   48.691400  -73.407200
  H    -105.849000   49.555800  -73.589200
  H    -105.973000   48.183300  -72.553500
  C    -106.662000   47.985800  -74.763600
  H    -107.227000   48.608500  -75.395600
  H    -105.708000   47.609500  -75.206700
  H    -107.318000   47.094200  -74.668400
  S    -104.799000   50.475500  -67.995300
  C    -103.867000   51.899500  -67.469900
  C    -104.332000   53.085000  -67.923500
  C    -105.449000   52.930600  -68.792900
  C    -105.806000   51.562800  -68.928800
  H    -103.858000   53.957700  -67.629000
  C    -106.082000   54.134000  -69.428600
  H    -105.790000   55.015600  -68.721000
  H    -107.146000   53.896200  -69.262700
  C    -105.631000   54.321200  -70.859100
  H    -105.840000   53.428600  -71.493000
  H    -104.585000   54.458900  -70.895800
  C    -106.256000   55.610900  -71.524600
  H    -107.355000   55.567700  -71.263600
  H    -106.178000   55.444600  -72.595500
  H    -105.658000   56.510600  -71.415200
  H    -110.004000   50.126400  -71.305400
  H    -102.992000   51.707200  -66.764000

 Total Charge           Charge          ....    0
 Multiplicity           Mult            ....    1
 Number of Electrons    NEL             ....  134
 Basis Dimension        Dim             ....  322

ORBITAL ENERGIES
----------------

  NO   OCC          E(Eh)            E(eV)
   0   2.0000     -88.966375     -2420.8981
   1   2.0000     -88.965336     -2420.8699
   2   2.0000     -10.325014      -280.9579
   3   2.0000     -10.322193      -280.8811
   4   2.0000     -10.319550      -280.8092
   5   2.0000     -10.312498      -280.6173
   6   2.0000     -10.303596      -280.3751
   7   2.0000     -10.299905      -280.2747
   8   2.0000     -10.295741      -280.1614
   9   2.0000     -10.293558      -280.1019
  10   2.0000     -10.293305      -280.0951
  11   2.0000     -10.286614      -279.9130
  12   2.0000     -10.284396      -279.8526
  13   2.0000     -10.284181      -279.8468
  14   2.0000     -10.282022      -279.7881
  15   2.0000     -10.279686      -279.7245
  16   2.0000      -8.081279      -219.9028
  17   2.0000      -8.079764      -219.8616
  18   2.0000      -6.039737      -164.3496
  19   2.0000      -6.038091      -164.3048
  20   2.0000      -6.035492      -164.2341
  21   2.0000      -6.034471      -164.2063
  22   2.0000      -6.032346      -164.1485
  23   2.0000      -6.030591      -164.1007
  24   2.0000      -1.008882       -27.4531
  25   2.0000      -0.984360       -26.7858
  26   2.0000      -0.911112       -24.7926
  27   2.0000      -0.906884       -24.6776
  28   2.0000      -0.875569       -23.8254
  29   2.0000      -0.848670       -23.0935
  30   2.0000      -0.844893       -22.9907
  31   2.0000      -0.817577       -22.2474
  32   2.0000      -0.779955       -21.2236
  33   2.0000      -0.763920       -20.7873
  34   2.0000      -0.712473       -19.3874
  35   2.0000      -0.696658       -18.9570
  36   2.0000      -0.683191       -18.5906
  37   2.0000      -0.664759       -18.0890
  38   2.0000      -0.642119       -17.4729
  39   2.0000      -0.622042       -16.9266
  40   2.0000      -0.591625       -16.0989
  41   2.0000      -0.570940       -15.5361
  42   2.0000      -0.568600       -15.4724
  43   2.0000      -0.560666       -15.2565
  44   2.0000      -0.528869       -14.3912
  45   2.0000      -0.525140       -14.2898
  46   2.0000      -0.516797       -14.0628
  47   2.0000      -0.508828       -13.8459
  48   2.0000      -0.504646       -13.7321
  49   2.0000      -0.500457       -13.6181
  50   2.0000      -0.487797       -13.2736
  51   2.0000      -0.477283       -12.9875
  52   2.0000      -0.474353       -12.9078
  53   2.0000      -0.463274       -12.6063
  54   2.0000      -0.454556       -12.3691
  55   2.0000      -0.453550       -12.3417
  56   2.0000      -0.448665       -12.2088
  57   2.0000      -0.437695       -11.9103
  58   2.0000      -0.430381       -11.7113
  59   2.0000      -0.421583       -11.4719
  60   2.0000      -0.414991       -11.2925
  61   2.0000      -0.412529       -11.2255
  62   2.0000      -0.408353       -11.1118
  63   2.0000      -0.341509        -9.2929
  64   2.0000      -0.336503        -9.1567
  65   2.0000      -0.321544        -8.7497
  66   2.0000      -0.295502        -8.0410
  67   0.0000       0.036965         1.0059
  68   0.0000       0.064197         1.7469
  69   0.0000       0.106052         2.8858
  70   0.0000       0.125641         3.4189
  71   0.0000       0.136358         3.7105

MULLIKEN ATOMIC CHARGES
-----------------------
   0 S :    0.123232
   1 C :   -0.117294
   2 C :   -0.110087
   3 C :    0.065549
   4 C :   -0.133685
   5 H :   -0.030953
   6 C :    0.059908
   7 H :    0.038940
   8 H :    0.038558
   9 C :   -0.145998
  10 H :    0.034777
  11 H :    0.041815
  12 C :   -0.004735
  13 H :    0.017901
  14 H :    0.048746
  15 H :    0.019445
  16 S :    0.105780
  17 C :   -0.119985
  18 C :    0.000715
  19 C :   -0.035327
  20 C :   -0.201773
  21 H :   -0.008440
  22 C :    0.066306
  23 H :    0.037322
  24 H :    0.030536
  25 C :   -0.069092
  26 H :    0.045593
  27 H :    0.013669
  28 C :   -0.048177
  29 H :    0.049620
  30 H :    0.022415
  31 H :    0.041445
  32 H :    0.046583
  33 H :    0.076690
Sum of atomic charges:    0.0000000

LOEWDIN ATOMIC CHARGES
----------------------
   0 S :    0.435325
   1 C :   -0.214941
   2 C :   -0.064480
   3 C :   -0.055816
   4 C :   -0.211004
   5 H :    0.013707
   6 C :   -0.034250
   7 H :    0.032597
   8 H :    0.034161
   9 C :   -0.055210
  10 H :    0.024222
  11 H :    0.027893
  12 C :   -0.063712
  13 H :    0.019607
  14 H :    0.033925
  15 H :    0.025493
  16 S :    0.395132
  17 C :   -0.176894
  18 C :   -0.067334
  19 C :   -0.046980
  20 C :   -0.203925
  21 H :    0.023752
  22 C :   -0.041709
  23 H :    0.042085
  24 H :    0.029468
  25 C :   -0.038542
  26 H :    0.033510
  27 H :    0.018253
  28 C :   -0.073142
  29 H :    0.036039
  30 H :    0.025106
  31 H :    0.026168
  32 H :    0.033918
  33 H :    0.037579

  Mayer bond orders larger than 0.100000
B(  0-S ,  1-C ) :   1.1620 B(  0-S ,  4-C ) :   1.1576 B(  1-C ,  2-C ) :   1.5734
B(  1-C , 32-H ) :   0.9759 B(  2-C ,  3-C ) :   1.2901 B(  2-C ,  6-C ) :   1.0039
B(  3-C ,  4-C ) :   1.5315 B(  3-C ,  5-H ) :   1.0060 B(  4-C , 20-C ) :   1.0226
B(  6-C ,  7-H ) :   0.9412 B(  6-C ,  8-H ) :   0.9358 B(  6-C ,  9-C ) :   1.0895
B(  9-C , 10-H ) :   0.9513 B(  9-C , 11-H ) :   0.9493 B(  9-C , 12-C ) :   1.0711
B( 12-C , 13-H ) :   0.9702 B( 12-C , 14-H ) :   0.9727 B( 12-C , 15-H ) :   0.9731
B( 16-S , 17-C ) :   1.1458 B( 16-S , 20-C ) :   1.1525 B( 17-C , 18-C ) :   1.6233
B( 17-C , 33-H ) :   0.9568 B( 18-C , 19-C ) :   1.2285 B( 18-C , 21-H ) :   1.0036
B( 19-C , 20-C ) :   1.5869 B( 19-C , 22-C ) :   1.0264 B( 22-C , 23-H ) :   0.9365
B( 22-C , 24-H ) :   0.9203 B( 22-C , 25-C ) :   1.0703 B( 25-C , 26-H ) :   0.9573
B( 25-C , 27-H ) :   0.9521 B( 25-C , 28-C ) :   1.0770 B( 28-C , 29-H ) :   0.9747
B( 28-C , 30-H ) :   0.9744 B( 28-C , 31-H ) :   0.9771

Dispersion correction           -0.014221711
FINAL SINGLE POINT ENERGY     -1339.869173483781

DIPOLE MOMENT
-------------
                                X             Y             Z
Electronic contribution:     -1.45059      -4.70828      24.01543
Nuclear contribution   :      1.62940       4.84871     -24.51776
                        -----------------------------------------
Total Dipole Moment    :      0.17881       0.14043      -0.50232
                        -----------------------------------------
Magnitude (a.u.)       :      0.55138
Magnitude (Debye)      :      1.40150

Rotational constants in cm-1:     0.017025     0.008410     0.007451
Rotational constants in MHz :   510.410487   252.128848   223.364665

                             ****ORCA TERMINATED NORMALLY****
TOTAL RUN TIME: 0 days 0 hours 0 minutes 20 seconds 394 msec
