                         Program Version 4.2.1 -  RELEASE  -
|  1> ! wB97X-D3 SP def2-SVP
|  2> %pal
|  3> nprocs 24
|  4> end
|  5>
|  6> * xyz 0 1
|  7> S 	 -56.9224 	 4.12539 	 -32.0926
|  8> C 	 -57.4439 	 4.05866 	 -33.7807
|  9> C 	 -56.8621 	 5.1078 	 -34.4687
| 10> C 	 -55.9748 	 5.92965 	 -33.7251
| 11> C 	 -55.7935 	 5.45042 	 -32.4029
| 12> H 	 -55.4792 	 6.76291 	 -34.0522
| 13> C 	 -57.0875 	 5.32984 	 -35.9495
| 14> H 	 -56.8876 	 6.38689 	 -36.1405
| 15> H 	 -58.1683 	 5.0321 	 -36.2686
| 16> C 	 -56.0455 	 4.66244 	 -36.7789
| 17> H 	 -55.0699 	 4.91581 	 -36.5609
| 18> H 	 -56.0162 	 3.58967 	 -36.6326
| 19> C 	 -56.2039 	 4.86926 	 -38.293
| 20> H 	 -55.1943 	 4.96665 	 -38.7181
| 21> H 	 -56.7307 	 4.07102 	 -38.7863
| 22> H 	 -56.7803 	 5.77726 	 -38.5789
| 23> S 	 -53.8556 	 4.5795 	 -30.7655
| 24> C 	 -52.7268 	 5.74242 	 -30.1768
| 25> C 	 -53.0958 	 7.0609 	 -30.3395
| 26> C 	 -54.2482 	 7.14506 	 -31.2212
| 27> C 	 -54.7507 	 5.85834 	 -31.4533
| 28> H 	 -52.5115 	 7.92409 	 -30.0077
| 29> C 	 -54.8611 	 8.45504 	 -31.6594
| 30> H 	 -54.8768 	 9.16016 	 -30.7991
| 31> H 	 -55.9027 	 8.31808 	 -31.9603
| 32> C 	 -54.0487 	 9.22024 	 -32.7894
| 33> H 	 -54.0186 	 8.5924 	 -33.6186
| 34> H 	 -52.9913 	 9.36367 	 -32.525
| 35> C 	 -54.5708 	 10.5963 	 -33.2692
| 36> H 	 -55.6785 	 10.5786 	 -33.2614
| 37> H 	 -54.3364 	 10.6736 	 -34.3051
| 38> H 	 -54.0192 	 11.4429 	 -32.8716
| 39> H 	 -58.2135 	 3.53738 	 -34.2604
| 40> H 	 -51.8446 	 5.40882 	 -29.7183
| 41> *
| 42>
| 43>                          ****END OF INPUT****

CARTESIAN COORDINATES (ANGSTROEM)
---------------------------------
  S    -56.922400    4.125390  -32.092600
  C    -57.443900    4.058660  -33.780700
  C    -56.862100    5.107800  -34.468700
  C    -55.974800    5.929650  -33.725100
  C    -55.793500    5.450420  -32.402900
  H    -55.479200    6.762910  -34.052200
  C    -57.087500    5.329840  -35.949500
  H    -56.887600    6.386890  -36.140500
  H    -58.168300    5.032100  -36.268600
  C    -56.045500    4.662440  -36.778900
  H    -55.069900    4.915810  -36.560900
  H    -56.016200    3.589670  -36.632600
  C    -56.203900    4.869260  -38.293000
  H    -55.194300    4.966650  -38.718100
  H    -56.730700    4.071020  -38.786300
  H    -56.780300    5.777260  -38.578900
  S    -53.855600    4.579500  -30.765500
  C    -52.726800    5.742420  -30.176800
  C    -53.095800    7.060900  -30.339500
  C    -54.248200    7.145060  -31.221200
  C    -54.750700    5.858340  -31.453300
  H    -52.511500    7.924090  -30.007700
  C    -54.861100    8.455040  -31.659400
  H    -54.876800    9.160160  -30.799100
  H    -55.902700    8.318080  -31.960300
  C    -54.048700    9.220240  -32.789400
  H    -54.018600    8.592400  -33.618600
  H    -52.991300    9.363670  -32.525000
  C    -54.570800   10.596300  -33.269200
  H    -55.678500   10.578600  -33.261400
  H    -54.336400   10.673600  -34.305100
  H    -54.019200   11.442900  -32.871600
  H    -58.213500    3.537380  -34.260400
  H    -51.844600    5.408820  -29.718300

 Total Charge           Charge          ....    0
 Multiplicity           Mult            ....    1
 Number of Electrons    NEL             ....  134
 Basis Dimension        Dim             ....  322

ORBITAL ENERGIES
----------------

  NO   OCC          E(Eh)            E(eV)
   0   2.0000     -88.969427     -2420.9812
   1   2.0000     -88.967951     -2420.9410
   2   2.0000     -10.334750      -281.2229
   3   2.0000     -10.325298      -280.9657
   4   2.0000     -10.313228      -280.6372
   5   2.0000     -10.307948      -280.4935
   6   2.0000     -10.307558      -280.4829
   7   2.0000     -10.299538      -280.2647
   8   2.0000     -10.299529      -280.2644
   9   2.0000     -10.297059      -280.1972
  10   2.0000     -10.295836      -280.1639
  11   2.0000     -10.289667      -279.9961
  12   2.0000     -10.287131      -279.9271
  13   2.0000     -10.280127      -279.7365
  14   2.0000     -10.275860      -279.6204
  15   2.0000     -10.273145      -279.5465
  16   2.0000      -8.085601      -220.0204
  17   2.0000      -8.081612      -219.9118
  18   2.0000      -6.043872      -164.4621
  19   2.0000      -6.040213      -164.3626
  20   2.0000      -6.040055      -164.3583
  21   2.0000      -6.036351      -164.2575
  22   2.0000      -6.036225      -164.2540
  23   2.0000      -6.032386      -164.1496
  24   2.0000      -1.009992       -27.4833
  25   2.0000      -0.982973       -26.7480
  26   2.0000      -0.915590       -24.9145
  27   2.0000      -0.905546       -24.6411
  28   2.0000      -0.868978       -23.6461
  29   2.0000      -0.857342       -23.3295
  30   2.0000      -0.845669       -23.0118
  31   2.0000      -0.814888       -22.1742
  32   2.0000      -0.783859       -21.3299
  33   2.0000      -0.770725       -20.9725
  34   2.0000      -0.707083       -19.2407
  35   2.0000      -0.699377       -19.0310
  36   2.0000      -0.697858       -18.9897
  37   2.0000      -0.667820       -18.1723
  38   2.0000      -0.641213       -17.4483
  39   2.0000      -0.619442       -16.8559
  40   2.0000      -0.601217       -16.3600
  41   2.0000      -0.572543       -15.5797
  42   2.0000      -0.565960       -15.4006
  43   2.0000      -0.558689       -15.2027
  44   2.0000      -0.528978       -14.3942
  45   2.0000      -0.523677       -14.2500
  46   2.0000      -0.518683       -14.1141
  47   2.0000      -0.512330       -13.9412
  48   2.0000      -0.505990       -13.7687
  49   2.0000      -0.498482       -13.5644
  50   2.0000      -0.493524       -13.4295
  51   2.0000      -0.477365       -12.9898
  52   2.0000      -0.472436       -12.8556
  53   2.0000      -0.469056       -12.7637
  54   2.0000      -0.460015       -12.5176
  55   2.0000      -0.454604       -12.3704
  56   2.0000      -0.443718       -12.0742
  57   2.0000      -0.442061       -12.0291
  58   2.0000      -0.433971       -11.8090
  59   2.0000      -0.430659       -11.7188
  60   2.0000      -0.418137       -11.3781
  61   2.0000      -0.418059       -11.3760
  62   2.0000      -0.408295       -11.1103
  63   2.0000      -0.351889        -9.5754
  64   2.0000      -0.332448        -9.0464
  65   2.0000      -0.329289        -8.9604
  66   2.0000      -0.284478        -7.7411
  67   0.0000       0.027809         0.7567
  68   0.0000       0.070100         1.9075
  69   0.0000       0.109593         2.9822
  70   0.0000       0.121106         3.2955
  71   0.0000       0.123790         3.3685

MULLIKEN ATOMIC CHARGES
-----------------------
   0 S :    0.103582
   1 C :   -0.078437
   2 C :   -0.102256
   3 C :    0.081650
   4 C :   -0.152314
   5 H :   -0.048686
   6 C :    0.044065
   7 H :    0.018121
   8 H :    0.045168
   9 C :   -0.033404
  10 H :    0.002383
  11 H :    0.015429
  12 C :   -0.059303
  13 H :    0.034480
  14 H :    0.032545
  15 H :    0.026323
  16 S :    0.132501
  17 C :   -0.085880
  18 C :   -0.003749
  19 C :   -0.054920
  20 C :   -0.135638
  21 H :    0.027194
  22 C :    0.043969
  23 H :    0.035234
  24 H :    0.033719
  25 C :   -0.085172
  26 H :    0.011000
  27 H :    0.023838
  28 C :   -0.021881
  29 H :    0.036116
  30 H :    0.014183
  31 H :    0.040046
  32 H :    0.022660
  33 H :    0.037434
Sum of atomic charges:   -0.0000000

LOEWDIN ATOMIC CHARGES
----------------------
   0 S :    0.391021
   1 C :   -0.198349
   2 C :   -0.057400
   3 C :   -0.057668
   4 C :   -0.177568
   5 H :    0.012189
   6 C :   -0.034722
   7 H :    0.030053
   8 H :    0.039190
   9 C :   -0.042208
  10 H :    0.014936
  11 H :    0.023985
  12 C :   -0.067548
  13 H :    0.029650
  14 H :    0.021968
  15 H :    0.025187
  16 S :    0.442411
  17 C :   -0.181432
  18 C :   -0.062203
  19 C :   -0.052876
  20 C :   -0.215591
  21 H :    0.036025
  22 C :   -0.033860
  23 H :    0.036031
  24 H :    0.030586
  25 C :   -0.039189
  26 H :    0.009286
  27 H :    0.025515
  28 C :   -0.068300
  29 H :    0.031471
  30 H :    0.025270
  31 H :    0.028398
  32 H :    0.021319
  33 H :    0.014426

  Mayer bond orders larger than 0.100000
B(  0-S ,  1-C ) :   1.1117 B(  0-S ,  4-C ) :   1.1666 B(  1-C ,  2-C ) :   1.6078
B(  1-C ,  4-C ) :   0.1005 B(  1-C , 32-H ) :   0.9720 B(  2-C ,  3-C ) :   1.2573
B(  2-C ,  6-C ) :   1.0357 B(  3-C ,  4-C ) :   1.5293 B(  3-C ,  5-H ) :   1.0065
B(  4-C , 20-C ) :   1.0316 B(  6-C ,  7-H ) :   0.9300 B(  6-C ,  8-H ) :   0.9444
B(  6-C ,  9-C ) :   1.0743 B(  9-C , 10-H ) :   0.9578 B(  9-C , 11-H ) :   0.9495
B(  9-C , 12-C ) :   1.0697 B( 12-C , 13-H ) :   0.9791 B( 12-C , 14-H ) :   0.9789
B( 12-C , 15-H ) :   0.9755 B( 16-S , 17-C ) :   1.1676 B( 16-S , 20-C ) :   1.1551
B( 17-C , 18-C ) :   1.5976 B( 17-C , 33-H ) :   0.9757 B( 18-C , 19-C ) :   1.2334
B( 18-C , 21-H ) :   0.9876 B( 19-C , 20-C ) :   1.5875 B( 19-C , 22-C ) :   1.0553
B( 22-C , 23-H ) :   0.9400 B( 22-C , 24-H ) :   0.9339 B( 22-C , 25-C ) :   1.0479
B( 25-C , 26-H ) :   0.9615 B( 25-C , 27-H ) :   0.9551 B( 25-C , 28-C ) :   1.0829
B( 28-C , 29-H ) :   0.9725 B( 28-C , 30-H ) :   0.9725 B( 28-C , 31-H ) :   0.9774

Dispersion correction           -0.013875824
FINAL SINGLE POINT ENERGY     -1339.863283995577

DIPOLE MOMENT
-------------
                                X             Y             Z
Electronic contribution:     -0.27334     -18.35875      24.75037
Nuclear contribution   :      0.58805      18.87118     -25.20132
                        -----------------------------------------
Total Dipole Moment    :      0.31471       0.51243      -0.45095
                        -----------------------------------------
Magnitude (a.u.)       :      0.75165
Magnitude (Debye)      :      1.91056

Rotational constants in cm-1:     0.015975     0.009069     0.006725
Rotational constants in MHz :   478.927535   271.873517   201.595700

                             ****ORCA TERMINATED NORMALLY****
TOTAL RUN TIME: 0 days 0 hours 0 minutes 21 seconds 357 msec
