                         Program Version 4.2.1 -  RELEASE  -
|  1> ! wB97X-D3 SP def2-SVP
|  2> %pal
|  3> nprocs 24
|  4> end
|  5>
|  6> * xyz 0 1
|  7> S 	 -48.7343 	 -5.76454 	 -17.674
|  8> C 	 -50.1489 	 -6.29724 	 -16.9054
|  9> C 	 -51.3178 	 -5.46843 	 -16.9861
| 10> C 	 -50.896 	 -4.29406 	 -17.7353
| 11> C 	 -49.5679 	 -4.23306 	 -17.9561
| 12> H 	 -51.5012 	 -3.46402 	 -17.9873
| 13> C 	 -52.7549 	 -5.72489 	 -16.6977
| 14> H 	 -53.1967 	 -4.96624 	 -16.0459
| 15> H 	 -52.8366 	 -6.67216 	 -16.2264
| 16> C 	 -53.6495 	 -5.9037 	 -17.88
| 17> H 	 -54.7019 	 -5.83298 	 -17.6091
| 18> H 	 -53.4493 	 -5.22033 	 -18.7121
| 19> C 	 -53.6504 	 -7.35854 	 -18.3275
| 20> H 	 -54.1905 	 -7.94221 	 -17.5521
| 21> H 	 -54.1783 	 -7.43089 	 -19.2438
| 22> H 	 -52.6144 	 -7.82327 	 -18.3545
| 23> S 	 -47.9506 	 -3.42793 	 -19.9802
| 24> C 	 -47.8824 	 -1.66338 	 -20.3276
| 25> C 	 -48.2425 	 -0.936878 	 -19.1895
| 26> C 	 -49.0333 	 -1.71089 	 -18.2932
| 27> C 	 -48.9238 	 -3.08 	 -18.5796
| 28> H 	 -47.9899 	 0.0697233 	 -19.126
| 29> C 	 -49.7971 	 -1.13805 	 -17.0434
| 30> H 	 -50.8483 	 -1.56671 	 -16.9004
| 31> H 	 -50.0071 	 -0.104599 	 -17.3569
| 32> C 	 -49.0704 	 -1.31246 	 -15.7399
| 33> H 	 -48.0505 	 -0.840809 	 -15.6594
| 34> H 	 -49.0137 	 -2.36531 	 -15.7326
| 35> C 	 -49.9469 	 -0.875083 	 -14.5446
| 36> H 	 -50.7763 	 -1.6595 	 -14.3759
| 37> H 	 -50.395 	 0.0986941 	 -14.7239
| 38> H 	 -49.2833 	 -0.88591 	 -13.6728
| 39> H 	 -50.3929 	 -7.34787 	 -16.5701
| 40> H 	 -47.1914 	 -1.27844 	 -21.0872
| 41> *
| 42>
| 43>                          ****END OF INPUT****

CARTESIAN COORDINATES (ANGSTROEM)
---------------------------------
  S    -48.734300   -5.764540  -17.674000
  C    -50.148900   -6.297240  -16.905400
  C    -51.317800   -5.468430  -16.986100
  C    -50.896000   -4.294060  -17.735300
  C    -49.567900   -4.233060  -17.956100
  H    -51.501200   -3.464020  -17.987300
  C    -52.754900   -5.724890  -16.697700
  H    -53.196700   -4.966240  -16.045900
  H    -52.836600   -6.672160  -16.226400
  C    -53.649500   -5.903700  -17.880000
  H    -54.701900   -5.832980  -17.609100
  H    -53.449300   -5.220330  -18.712100
  C    -53.650400   -7.358540  -18.327500
  H    -54.190500   -7.942210  -17.552100
  H    -54.178300   -7.430890  -19.243800
  H    -52.614400   -7.823270  -18.354500
  S    -47.950600   -3.427930  -19.980200
  C    -47.882400   -1.663380  -20.327600
  C    -48.242500   -0.936878  -19.189500
  C    -49.033300   -1.710890  -18.293200
  C    -48.923800   -3.080000  -18.579600
  H    -47.989900    0.069723  -19.126000
  C    -49.797100   -1.138050  -17.043400
  H    -50.848300   -1.566710  -16.900400
  H    -50.007100   -0.104599  -17.356900
  C    -49.070400   -1.312460  -15.739900
  H    -48.050500   -0.840809  -15.659400
  H    -49.013700   -2.365310  -15.732600
  C    -49.946900   -0.875083  -14.544600
  H    -50.776300   -1.659500  -14.375900
  H    -50.395000    0.098694  -14.723900
  H    -49.283300   -0.885910  -13.672800
  H    -50.392900   -7.347870  -16.570100
  H    -47.191400   -1.278440  -21.087200

 Total Charge           Charge          ....    0
 Multiplicity           Mult            ....    1
 Number of Electrons    NEL             ....  134
 Basis Dimension        Dim             ....  322

ORBITAL ENERGIES
----------------

  NO   OCC          E(Eh)            E(eV)
   0   2.0000     -88.974397     -2421.1164
   1   2.0000     -88.964794     -2420.8551
   2   2.0000     -10.325584      -280.9734
   3   2.0000     -10.323439      -280.9151
   4   2.0000     -10.320245      -280.8281
   5   2.0000     -10.320060      -280.8231
   6   2.0000     -10.307061      -280.4694
   7   2.0000     -10.306817      -280.4627
   8   2.0000     -10.298785      -280.2442
   9   2.0000     -10.296739      -280.1885
  10   2.0000     -10.288944      -279.9764
  11   2.0000     -10.287602      -279.9399
  12   2.0000     -10.283580      -279.8304
  13   2.0000     -10.283229      -279.8209
  14   2.0000     -10.281555      -279.7753
  15   2.0000     -10.278273      -279.6860
  16   2.0000      -8.089546      -220.1277
  17   2.0000      -8.079198      -219.8462
  18   2.0000      -6.047957      -164.5733
  19   2.0000      -6.044346      -164.4750
  20   2.0000      -6.040050      -164.3581
  21   2.0000      -6.037649      -164.2928
  22   2.0000      -6.034007      -164.1937
  23   2.0000      -6.029796      -164.0791
  24   2.0000      -1.008194       -27.4343
  25   2.0000      -0.981652       -26.7121
  26   2.0000      -0.925644       -25.1881
  27   2.0000      -0.907479       -24.6937
  28   2.0000      -0.869293       -23.6547
  29   2.0000      -0.857598       -23.3364
  30   2.0000      -0.844570       -22.9819
  31   2.0000      -0.811292       -22.0764
  32   2.0000      -0.780636       -21.2422
  33   2.0000      -0.766271       -20.8513
  34   2.0000      -0.703837       -19.1524
  35   2.0000      -0.692666       -18.8484
  36   2.0000      -0.683461       -18.5979
  37   2.0000      -0.666021       -18.1233
  38   2.0000      -0.639851       -17.4112
  39   2.0000      -0.627782       -17.0828
  40   2.0000      -0.592339       -16.1184
  41   2.0000      -0.573381       -15.6025
  42   2.0000      -0.565821       -15.3968
  43   2.0000      -0.557496       -15.1702
  44   2.0000      -0.544217       -14.8089
  45   2.0000      -0.525874       -14.3098
  46   2.0000      -0.517650       -14.0860
  47   2.0000      -0.504804       -13.7364
  48   2.0000      -0.494949       -13.4683
  49   2.0000      -0.493118       -13.4184
  50   2.0000      -0.490055       -13.3351
  51   2.0000      -0.481001       -13.0887
  52   2.0000      -0.464541       -12.6408
  53   2.0000      -0.460498       -12.5308
  54   2.0000      -0.457190       -12.4408
  55   2.0000      -0.451554       -12.2874
  56   2.0000      -0.446251       -12.1431
  57   2.0000      -0.441137       -12.0039
  58   2.0000      -0.435141       -11.8408
  59   2.0000      -0.427814       -11.6414
  60   2.0000      -0.418491       -11.3877
  61   2.0000      -0.414080       -11.2677
  62   2.0000      -0.410744       -11.1769
  63   2.0000      -0.351186        -9.5562
  64   2.0000      -0.334130        -9.0921
  65   2.0000      -0.324665        -8.8346
  66   2.0000      -0.286191        -7.7877
  67   0.0000       0.025661         0.6983
  68   0.0000       0.061559         1.6751
  69   0.0000       0.101368         2.7584
  70   0.0000       0.109166         2.9706
  71   0.0000       0.128776         3.5042

MULLIKEN ATOMIC CHARGES
-----------------------
   0 S :    0.137818
   1 C :   -0.105801
   2 C :   -0.114783
   3 C :    0.015203
   4 C :   -0.138312
   5 H :    0.008496
   6 C :    0.105654
   7 H :    0.035690
   8 H :   -0.005561
   9 C :   -0.078532
  10 H :    0.026901
  11 H :    0.039989
  12 C :   -0.078002
  13 H :    0.028349
  14 H :    0.033084
  15 H :    0.039496
  16 S :    0.088072
  17 C :   -0.107474
  18 C :   -0.012566
  19 C :   -0.044606
  20 C :   -0.148782
  21 H :    0.005158
  22 C :    0.027464
  23 H :    0.031133
  24 H :    0.016074
  25 C :   -0.055661
  26 H :    0.042696
  27 H :    0.029325
  28 C :   -0.062576
  29 H :    0.043356
  30 H :    0.035857
  31 H :    0.039611
  32 H :    0.056827
  33 H :    0.066400
Sum of atomic charges:    0.0000000

LOEWDIN ATOMIC CHARGES
----------------------
   0 S :    0.420431
   1 C :   -0.225254
   2 C :   -0.056411
   3 C :   -0.051444
   4 C :   -0.194779
   5 H :    0.024563
   6 C :   -0.034830
   7 H :    0.035668
   8 H :    0.026392
   9 C :   -0.041629
  10 H :    0.029110
  11 H :    0.023222
  12 C :   -0.065019
  13 H :    0.024093
  14 H :    0.020761
  15 H :    0.026859
  16 S :    0.384124
  17 C :   -0.180037
  18 C :   -0.050306
  19 C :   -0.058948
  20 C :   -0.192069
  21 H :    0.023291
  22 C :   -0.035494
  23 H :    0.036567
  24 H :    0.022417
  25 C :   -0.044658
  26 H :    0.030602
  27 H :    0.024398
  28 C :   -0.067235
  29 H :    0.034049
  30 H :    0.021492
  31 H :    0.027696
  32 H :    0.034495
  33 H :    0.027880

  Mayer bond orders larger than 0.100000
B(  0-S ,  1-C ) :   1.1516 B(  0-S ,  4-C ) :   1.1184 B(  1-C ,  2-C ) :   1.6194
B(  1-C , 32-H ) :   0.9463 B(  2-C ,  3-C ) :   1.2097 B(  2-C ,  6-C ) :   1.0540
B(  3-C ,  4-C ) :   1.6176 B(  3-C ,  5-H ) :   0.9914 B(  4-C , 20-C ) :   1.0368
B(  6-C ,  7-H ) :   0.9282 B(  6-C ,  8-H ) :   0.9290 B(  6-C ,  9-C ) :   1.0720
B(  9-C , 10-H ) :   0.9520 B(  9-C , 11-H ) :   0.9586 B(  9-C , 12-C ) :   1.0752
B( 12-C , 13-H ) :   0.9733 B( 12-C , 14-H ) :   0.9731 B( 12-C , 15-H ) :   0.9777
B( 16-S , 17-C ) :   1.1360 B( 16-S , 20-C ) :   1.1520 B( 17-C , 18-C ) :   1.6189
B( 17-C , 20-C ) :   0.1104 B( 17-C , 33-H ) :   0.9617 B( 18-C , 19-C ) :   1.2395
B( 18-C , 21-H ) :   0.9923 B( 19-C , 20-C ) :   1.5864 B( 19-C , 22-C ) :   1.0304
B( 22-C , 23-H ) :   0.9400 B( 22-C , 24-H ) :   0.9291 B( 22-C , 25-C ) :   1.0580
B( 25-C , 26-H ) :   0.9557 B( 25-C , 27-H ) :   0.9540 B( 25-C , 28-C ) :   1.0801
B( 28-C , 29-H ) :   0.9728 B( 28-C , 30-H ) :   0.9767 B( 28-C , 31-H ) :   0.9752

Dispersion correction           -0.014559173
FINAL SINGLE POINT ENERGY     -1339.846803410285

DIPOLE MOMENT
-------------
                                X             Y             Z
Electronic contribution:     20.78316      -3.38913     -13.55484
Nuclear contribution   :    -21.24406       3.64830      13.78776
                        -----------------------------------------
Total Dipole Moment    :     -0.46090       0.25917       0.23292
                        -----------------------------------------
Magnitude (a.u.)       :      0.57780
Magnitude (Debye)      :      1.46864

Rotational constants in cm-1:     0.017755     0.009084     0.007374
Rotational constants in MHz :   532.271096   272.337509   221.061823

                             ****ORCA TERMINATED NORMALLY****
TOTAL RUN TIME: 0 days 0 hours 0 minutes 22 seconds 127 msec
