                         Program Version 4.2.1 -  RELEASE  -
|  1> ! wB97X-D3 SP def2-SVP
|  2> %pal
|  3> nprocs 24
|  4> end
|  5>
|  6> * xyz 0 1
|  7> S 	 -117.752 	 17.9303 	 -112.857
|  8> C 	 -119.274 	 18.368 	 -113.663
|  9> C 	 -119.506 	 17.5358 	 -114.752
| 10> C 	 -118.328 	 16.8103 	 -115.132
| 11> C 	 -117.294 	 16.933 	 -114.285
| 12> H 	 -118.161 	 16.1923 	 -116.009
| 13> C 	 -120.695 	 17.5463 	 -115.654
| 14> H 	 -121.542 	 17.5934 	 -114.942
| 15> H 	 -120.794 	 16.6101 	 -116.24
| 16> C 	 -120.917 	 18.7791 	 -116.625
| 17> H 	 -121.711 	 18.5646 	 -117.395
| 18> H 	 -121.336 	 19.5779 	 -115.988
| 19> C 	 -119.713 	 19.2732 	 -117.407
| 20> H 	 -118.867 	 19.6504 	 -116.721
| 21> H 	 -119.244 	 18.4639 	 -118.024
| 22> H 	 -119.989 	 20.1632 	 -118.027
| 23> S 	 -115.507 	 15.2808 	 -113.176
| 24> C 	 -113.96 	 14.9902 	 -113.856
| 25> C 	 -113.938 	 15.5065 	 -115.173
| 26> C 	 -115.097 	 16.3145 	 -115.485
| 27> C 	 -115.995 	 16.3117 	 -114.453
| 28> H 	 -113.016 	 15.3735 	 -115.737
| 29> C 	 -115.27 	 17.0175 	 -116.824
| 30> H 	 -114.59 	 17.8744 	 -116.882
| 31> H 	 -116.28 	 17.4014 	 -116.981
| 32> C 	 -114.988 	 16.0404 	 -118.048
| 33> H 	 -115.569 	 15.1369 	 -117.815
| 34> H 	 -113.925 	 15.7051 	 -118.116
| 35> C 	 -115.592 	 16.4816 	 -119.362
| 36> H 	 -114.833 	 17.0291 	 -119.908
| 37> H 	 -116.542 	 17.0698 	 -119.25
| 38> H 	 -115.869 	 15.6582 	 -119.975
| 39> H 	 -119.99 	 19.0483 	 -113.154
| 40> H 	 -113.199 	 14.3261 	 -113.489
| 41> *
| 42>
| 43>                          ****END OF INPUT****

CARTESIAN COORDINATES (ANGSTROEM)
---------------------------------
  S    -117.752000   17.930300  -112.857000
  C    -119.274000   18.368000  -113.663000
  C    -119.506000   17.535800  -114.752000
  C    -118.328000   16.810300  -115.132000
  C    -117.294000   16.933000  -114.285000
  H    -118.161000   16.192300  -116.009000
  C    -120.695000   17.546300  -115.654000
  H    -121.542000   17.593400  -114.942000
  H    -120.794000   16.610100  -116.240000
  C    -120.917000   18.779100  -116.625000
  H    -121.711000   18.564600  -117.395000
  H    -121.336000   19.577900  -115.988000
  C    -119.713000   19.273200  -117.407000
  H    -118.867000   19.650400  -116.721000
  H    -119.244000   18.463900  -118.024000
  H    -119.989000   20.163200  -118.027000
  S    -115.507000   15.280800  -113.176000
  C    -113.960000   14.990200  -113.856000
  C    -113.938000   15.506500  -115.173000
  C    -115.097000   16.314500  -115.485000
  C    -115.995000   16.311700  -114.453000
  H    -113.016000   15.373500  -115.737000
  C    -115.270000   17.017500  -116.824000
  H    -114.590000   17.874400  -116.882000
  H    -116.280000   17.401400  -116.981000
  C    -114.988000   16.040400  -118.048000
  H    -115.569000   15.136900  -117.815000
  H    -113.925000   15.705100  -118.116000
  C    -115.592000   16.481600  -119.362000
  H    -114.833000   17.029100  -119.908000
  H    -116.542000   17.069800  -119.250000
  H    -115.869000   15.658200  -119.975000
  H    -119.990000   19.048300  -113.154000
  H    -113.199000   14.326100  -113.489000

 Total Charge           Charge          ....    0
 Multiplicity           Mult            ....    1
 Number of Electrons    NEL             ....  134
 Basis Dimension        Dim             ....  322

ORBITAL ENERGIES
----------------

  NO   OCC          E(Eh)            E(eV)
   0   2.0000     -88.964944     -2420.8592
   1   2.0000     -88.963168     -2420.8109
   2   2.0000     -10.326598      -281.0010
   3   2.0000     -10.322950      -280.9017
   4   2.0000     -10.319954      -280.8202
   5   2.0000     -10.315508      -280.6992
   6   2.0000     -10.305277      -280.4209
   7   2.0000     -10.304738      -280.4062
   8   2.0000     -10.297369      -280.2057
   9   2.0000     -10.297174      -280.2004
  10   2.0000     -10.296095      -280.1710
  11   2.0000     -10.295747      -280.1615
  12   2.0000     -10.291082      -280.0346
  13   2.0000     -10.290766      -280.0260
  14   2.0000     -10.288013      -279.9511
  15   2.0000     -10.277828      -279.6739
  16   2.0000      -8.079256      -219.8477
  17   2.0000      -8.078716      -219.8330
  18   2.0000      -6.037654      -164.2929
  19   2.0000      -6.037334      -164.2842
  20   2.0000      -6.033536      -164.1809
  21   2.0000      -6.033462      -164.1789
  22   2.0000      -6.030156      -164.0889
  23   2.0000      -6.029235      -164.0638
  24   2.0000      -1.010485       -27.4967
  25   2.0000      -0.983868       -26.7724
  26   2.0000      -0.905742       -24.6465
  27   2.0000      -0.905056       -24.6278
  28   2.0000      -0.869623       -23.6637
  29   2.0000      -0.853044       -23.2125
  30   2.0000      -0.844571       -22.9820
  31   2.0000      -0.815435       -22.1891
  32   2.0000      -0.780598       -21.2412
  33   2.0000      -0.769903       -20.9501
  34   2.0000      -0.700038       -19.0490
  35   2.0000      -0.698493       -19.0070
  36   2.0000      -0.693414       -18.8688
  37   2.0000      -0.659182       -17.9373
  38   2.0000      -0.641375       -17.4527
  39   2.0000      -0.613872       -16.7043
  40   2.0000      -0.593872       -16.1601
  41   2.0000      -0.569378       -15.4936
  42   2.0000      -0.566565       -15.4170
  43   2.0000      -0.546007       -14.8576
  44   2.0000      -0.539648       -14.6846
  45   2.0000      -0.522185       -14.2094
  46   2.0000      -0.518983       -14.1223
  47   2.0000      -0.513567       -13.9749
  48   2.0000      -0.504919       -13.7395
  49   2.0000      -0.499149       -13.5825
  50   2.0000      -0.488424       -13.2907
  51   2.0000      -0.479484       -13.0474
  52   2.0000      -0.471165       -12.8210
  53   2.0000      -0.468076       -12.7370
  54   2.0000      -0.460568       -12.5327
  55   2.0000      -0.450107       -12.2480
  56   2.0000      -0.438380       -11.9289
  57   2.0000      -0.434187       -11.8148
  58   2.0000      -0.430073       -11.7029
  59   2.0000      -0.422196       -11.4885
  60   2.0000      -0.419564       -11.4169
  61   2.0000      -0.412227       -11.2173
  62   2.0000      -0.410863       -11.1801
  63   2.0000      -0.347454        -9.4547
  64   2.0000      -0.329576        -8.9682
  65   2.0000      -0.327086        -8.9005
  66   2.0000      -0.295717        -8.0469
  67   0.0000       0.032977         0.8974
  68   0.0000       0.062634         1.7044
  69   0.0000       0.105683         2.8758
  70   0.0000       0.118464         3.2236
  71   0.0000       0.123997         3.3741

MULLIKEN ATOMIC CHARGES
-----------------------
   0 S :    0.100145
   1 C :   -0.144730
   2 C :   -0.057611
   3 C :    0.021478
   4 C :   -0.137253
   5 H :    0.016377
   6 C :    0.043895
   7 H :    0.032093
   8 H :    0.035609
   9 C :   -0.078939
  10 H :    0.040397
  11 H :    0.028953
  12 C :   -0.100781
  13 H :    0.052461
  14 H :    0.038876
  15 H :    0.047199
  16 S :    0.117394
  17 C :   -0.089897
  18 C :   -0.066023
  19 C :   -0.020242
  20 C :   -0.178364
  21 H :    0.025912
  22 C :    0.097046
  23 H :    0.040432
  24 H :    0.010848
  25 C :   -0.135379
  26 H :    0.029762
  27 H :    0.043474
  28 C :   -0.032233
  29 H :    0.032328
  30 H :    0.035592
  31 H :    0.026444
  32 H :    0.067412
  33 H :    0.057325
Sum of atomic charges:   -0.0000000

LOEWDIN ATOMIC CHARGES
----------------------
   0 S :    0.367611
   1 C :   -0.185505
   2 C :   -0.065198
   3 C :   -0.059851
   4 C :   -0.176909
   5 H :    0.034568
   6 C :   -0.040182
   7 H :    0.036746
   8 H :    0.033053
   9 C :   -0.046657
  10 H :    0.031396
  11 H :    0.023753
  12 C :   -0.084399
  13 H :    0.034195
  14 H :    0.024951
  15 H :    0.032436
  16 S :    0.438065
  17 C :   -0.199561
  18 C :   -0.071445
  19 C :   -0.058271
  20 C :   -0.211597
  21 H :    0.030758
  22 C :   -0.025900
  23 H :    0.032835
  24 H :    0.025769
  25 C :   -0.047280
  26 H :    0.024716
  27 H :    0.027046
  28 C :   -0.067855
  29 H :    0.024569
  30 H :    0.031365
  31 H :    0.022924
  32 H :    0.034708
  33 H :    0.029147

  Mayer bond orders larger than 0.100000
B(  0-S ,  1-C ) :   1.1282 B(  0-S ,  4-C ) :   1.1167 B(  1-C ,  2-C ) :   1.6118
B(  1-C , 32-H ) :   0.9681 B(  2-C ,  3-C ) :   1.1865 B(  2-C ,  6-C ) :   1.0373
B(  3-C ,  4-C ) :   1.6322 B(  3-C ,  5-H ) :   0.9944 B(  4-C , 20-C ) :   1.0247
B(  6-C ,  7-H ) :   0.9379 B(  6-C ,  8-H ) :   0.9463 B(  6-C ,  9-C ) :   1.0592
B(  9-C , 10-H ) :   0.9565 B(  9-C , 11-H ) :   0.9558 B(  9-C , 12-C ) :   1.0832
B( 12-C , 13-H ) :   0.9677 B( 12-C , 14-H ) :   0.9744 B( 12-C , 15-H ) :   0.9714
B( 16-S , 17-C ) :   1.1671 B( 16-S , 20-C ) :   1.1651 B( 17-C , 18-C ) :   1.5965
B( 17-C , 33-H ) :   0.9701 B( 18-C , 19-C ) :   1.2305 B( 18-C , 21-H ) :   0.9884
B( 19-C , 20-C ) :   1.6030 B( 19-C , 22-C ) :   1.0510 B( 22-C , 23-H ) :   0.9289
B( 22-C , 24-H ) :   0.9375 B( 22-C , 25-C ) :   1.0492 B( 25-C , 26-H ) :   0.9642
B( 25-C , 27-H ) :   0.9534 B( 25-C , 28-C ) :   1.0861 B( 28-C , 29-H ) :   0.9747
B( 28-C , 30-H ) :   0.9706 B( 28-C , 31-H ) :   0.9759

Dispersion correction           -0.014880570
FINAL SINGLE POINT ENERGY     -1339.880891232780

DIPOLE MOMENT
-------------
                                X             Y             Z
Electronic contribution:      7.61053      -6.55149      29.48554
Nuclear contribution   :     -7.77762       6.53071     -30.17289
                        -----------------------------------------
Total Dipole Moment    :     -0.16709      -0.02078      -0.68735
                        -----------------------------------------
Magnitude (a.u.)       :      0.70767
Magnitude (Debye)      :      1.79876

Rotational constants in cm-1:     0.016707     0.010316     0.006854
Rotational constants in MHz :   500.870098   309.255543   205.479271

                             ****ORCA TERMINATED NORMALLY****
TOTAL RUN TIME: 0 days 0 hours 0 minutes 21 seconds 951 msec
