                         Program Version 4.2.1 -  RELEASE  -
|  1> ! wB97X-D3 SP def2-SVP
|  2> %pal
|  3> nprocs 24
|  4> end
|  5>
|  6> * xyz 0 1
|  7> S 	 -109.405 	 52.4339 	 -70.0785
|  8> C 	 -110.213 	 52.3104 	 -71.5987
|  9> C 	 -109.356 	 52.8124 	 -72.5698
| 10> C 	 -108.056 	 53.0745 	 -72.0538
| 11> C 	 -107.867 	 52.6855 	 -70.7911
| 12> H 	 -107.203 	 53.3544 	 -72.5699
| 13> C 	 -109.658 	 53.0853 	 -74.0506
| 14> H 	 -110.007 	 54.091 	 -73.8566
| 15> H 	 -110.494 	 52.47 	 -74.2499
| 16> C 	 -108.624 	 52.9786 	 -75.1521
| 17> H 	 -107.697 	 53.5367 	 -74.8495
| 18> H 	 -108.194 	 52.0163 	 -75.3951
| 19> C 	 -109.046 	 53.6543 	 -76.4399
| 20> H 	 -108.512 	 53.3062 	 -77.2986
| 21> H 	 -110.094 	 53.3575 	 -76.6771
| 22> H 	 -109.002 	 54.7636 	 -76.3967
| 23> S 	 -106.338 	 51.3749 	 -68.8775
| 24> C 	 -104.714 	 51.8907 	 -68.5461
| 25> C 	 -104.353 	 52.9723 	 -69.3455
| 26> C 	 -105.409 	 53.394 	 -70.2075
| 27> C 	 -106.587 	 52.6391 	 -70.0307
| 28> H 	 -103.456 	 53.5158 	 -69.3573
| 29> C 	 -105.329 	 54.7055 	 -70.9864
| 30> H 	 -105.657 	 54.459 	 -71.9973
| 31> H 	 -104.252 	 55.0104 	 -71.0096
| 32> C 	 -106.207 	 55.7779 	 -70.3193
| 33> H 	 -105.951 	 56.039 	 -69.3198
| 34> H 	 -107.208 	 55.3684 	 -70.2445
| 35> C 	 -106.078 	 57.0841 	 -71.114
| 36> H 	 -106.536 	 57.0666 	 -72.1422
| 37> H 	 -105.079 	 57.4708 	 -71.1467
| 38> H 	 -106.854 	 57.8017 	 -70.6736
| 39> H 	 -111.294 	 52.1921 	 -71.8979
| 40> H 	 -104.025 	 51.3971 	 -67.8484
| 41> *
| 42>
| 43>                          ****END OF INPUT****

CARTESIAN COORDINATES (ANGSTROEM)
---------------------------------
  S    -109.405000   52.433900  -70.078500
  C    -110.213000   52.310400  -71.598700
  C    -109.356000   52.812400  -72.569800
  C    -108.056000   53.074500  -72.053800
  C    -107.867000   52.685500  -70.791100
  H    -107.203000   53.354400  -72.569900
  C    -109.658000   53.085300  -74.050600
  H    -110.007000   54.091000  -73.856600
  H    -110.494000   52.470000  -74.249900
  C    -108.624000   52.978600  -75.152100
  H    -107.697000   53.536700  -74.849500
  H    -108.194000   52.016300  -75.395100
  C    -109.046000   53.654300  -76.439900
  H    -108.512000   53.306200  -77.298600
  H    -110.094000   53.357500  -76.677100
  H    -109.002000   54.763600  -76.396700
  S    -106.338000   51.374900  -68.877500
  C    -104.714000   51.890700  -68.546100
  C    -104.353000   52.972300  -69.345500
  C    -105.409000   53.394000  -70.207500
  C    -106.587000   52.639100  -70.030700
  H    -103.456000   53.515800  -69.357300
  C    -105.329000   54.705500  -70.986400
  H    -105.657000   54.459000  -71.997300
  H    -104.252000   55.010400  -71.009600
  C    -106.207000   55.777900  -70.319300
  H    -105.951000   56.039000  -69.319800
  H    -107.208000   55.368400  -70.244500
  C    -106.078000   57.084100  -71.114000
  H    -106.536000   57.066600  -72.142200
  H    -105.079000   57.470800  -71.146700
  H    -106.854000   57.801700  -70.673600
  H    -111.294000   52.192100  -71.897900
  H    -104.025000   51.397100  -67.848400

 Total Charge           Charge          ....    0
 Multiplicity           Mult            ....    1
 Number of Electrons    NEL             ....  134
 Basis Dimension        Dim             ....  322

ORBITAL ENERGIES
----------------

  NO   OCC          E(Eh)            E(eV)
   0   2.0000     -88.969937     -2420.9951
   1   2.0000     -88.962716     -2420.7986
   2   2.0000     -10.328672      -281.0574
   3   2.0000     -10.324631      -280.9475
   4   2.0000     -10.320869      -280.8451
   5   2.0000     -10.312695      -280.6227
   6   2.0000     -10.301679      -280.3229
   7   2.0000     -10.301174      -280.3092
   8   2.0000     -10.296386      -280.1789
   9   2.0000     -10.292091      -280.0620
  10   2.0000     -10.291458      -280.0448
  11   2.0000     -10.291377      -280.0426
  12   2.0000     -10.282889      -279.8116
  13   2.0000     -10.282584      -279.8033
  14   2.0000     -10.281104      -279.7631
  15   2.0000     -10.278049      -279.6799
  16   2.0000      -8.084814      -219.9990
  17   2.0000      -8.078354      -219.8232
  18   2.0000      -6.043203      -164.4439
  19   2.0000      -6.039138      -164.3333
  20   2.0000      -6.036958      -164.2740
  21   2.0000      -6.035864      -164.2442
  22   2.0000      -6.032847      -164.1621
  23   2.0000      -6.028825      -164.0527
  24   2.0000      -1.014718       -27.6119
  25   2.0000      -0.990498       -26.9528
  26   2.0000      -0.915693       -24.9173
  27   2.0000      -0.910438       -24.7743
  28   2.0000      -0.871172       -23.7058
  29   2.0000      -0.853511       -23.2252
  30   2.0000      -0.848528       -23.0896
  31   2.0000      -0.818738       -22.2790
  32   2.0000      -0.781666       -21.2702
  33   2.0000      -0.768289       -20.9062
  34   2.0000      -0.710857       -19.3434
  35   2.0000      -0.701934       -19.1006
  36   2.0000      -0.689238       -18.7551
  37   2.0000      -0.667496       -18.1635
  38   2.0000      -0.640033       -17.4162
  39   2.0000      -0.624771       -17.0009
  40   2.0000      -0.594066       -16.1654
  41   2.0000      -0.571574       -15.5533
  42   2.0000      -0.569122       -15.4866
  43   2.0000      -0.566595       -15.4178
  44   2.0000      -0.531687       -14.4679
  45   2.0000      -0.524663       -14.2768
  46   2.0000      -0.514580       -14.0024
  47   2.0000      -0.507950       -13.8220
  48   2.0000      -0.504026       -13.7152
  49   2.0000      -0.502842       -13.6830
  50   2.0000      -0.497469       -13.5368
  51   2.0000      -0.490029       -13.3344
  52   2.0000      -0.470012       -12.7897
  53   2.0000      -0.467064       -12.7095
  54   2.0000      -0.462048       -12.5730
  55   2.0000      -0.454928       -12.3792
  56   2.0000      -0.448560       -12.2059
  57   2.0000      -0.440820       -11.9953
  58   2.0000      -0.428694       -11.6654
  59   2.0000      -0.421177       -11.4608
  60   2.0000      -0.415334       -11.3018
  61   2.0000      -0.412666       -11.2292
  62   2.0000      -0.409090       -11.1319
  63   2.0000      -0.354400        -9.6437
  64   2.0000      -0.332640        -9.0516
  65   2.0000      -0.324057        -8.8180
  66   2.0000      -0.288316        -7.8455
  67   0.0000       0.025596         0.6965
  68   0.0000       0.081677         2.2226
  69   0.0000       0.116374         3.1667
  70   0.0000       0.120731         3.2852
  71   0.0000       0.137730         3.7478

MULLIKEN ATOMIC CHARGES
-----------------------
   0 S :    0.106131
   1 C :   -0.123016
   2 C :   -0.129639
   3 C :    0.022121
   4 C :   -0.110793
   5 H :   -0.037715
   6 C :    0.101014
   7 H :    0.043282
   8 H :    0.010150
   9 C :   -0.062631
  10 H :    0.028478
  11 H :    0.033765
  12 C :   -0.059153
  13 H :    0.027074
  14 H :    0.023979
  15 H :    0.041604
  16 S :    0.127289
  17 C :   -0.093787
  18 C :    0.000301
  19 C :   -0.070837
  20 C :   -0.159872
  21 H :   -0.005812
  22 C :    0.054098
  23 H :    0.023805
  24 H :    0.021293
  25 C :   -0.037740
  26 H :    0.023596
  27 H :    0.036494
  28 C :   -0.068537
  29 H :    0.028844
  30 H :    0.041440
  31 H :    0.035554
  32 H :    0.061698
  33 H :    0.067523
Sum of atomic charges:   -0.0000000

LOEWDIN ATOMIC CHARGES
----------------------
   0 S :    0.418835
   1 C :   -0.233152
   2 C :   -0.054806
   3 C :   -0.075521
   4 C :   -0.191375
   5 H :    0.013691
   6 C :   -0.030895
   7 H :    0.043808
   8 H :    0.024318
   9 C :   -0.047733
  10 H :    0.028223
  11 H :    0.027664
  12 C :   -0.064938
  13 H :    0.023570
  14 H :    0.025632
  15 H :    0.028374
  16 S :    0.435509
  17 C :   -0.194355
  18 C :   -0.065983
  19 C :   -0.056021
  20 C :   -0.213267
  21 H :    0.022779
  22 C :   -0.029256
  23 H :    0.026816
  24 H :    0.030674
  25 C :   -0.034324
  26 H :    0.023839
  27 H :    0.028077
  28 C :   -0.074659
  29 H :    0.027153
  30 H :    0.021692
  31 H :    0.034796
  32 H :    0.045801
  33 H :    0.035033

  Mayer bond orders larger than 0.100000
B(  0-S ,  1-C ) :   1.1179 B(  0-S ,  4-C ) :   1.1575 B(  1-C ,  2-C ) :   1.6216
B(  1-C , 32-H ) :   0.9605 B(  2-C ,  3-C ) :   1.2349 B(  2-C ,  6-C ) :   0.9888
B(  3-C ,  4-C ) :   1.5926 B(  3-C ,  5-H ) :   1.0057 B(  4-C , 20-C ) :   1.0251
B(  6-C ,  7-H ) :   0.9351 B(  6-C ,  8-H ) :   0.9371 B(  6-C ,  9-C ) :   1.0637
B(  9-C , 10-H ) :   0.9476 B(  9-C , 11-H ) :   0.9582 B(  9-C , 12-C ) :   1.0854
B( 12-C , 13-H ) :   0.9728 B( 12-C , 14-H ) :   0.9741 B( 12-C , 15-H ) :   0.9774
B( 16-S , 17-C ) :   1.1745 B( 16-S , 20-C ) :   1.1632 B( 17-C , 18-C ) :   1.5453
B( 17-C , 20-C ) :   0.1049 B( 17-C , 33-H ) :   0.9670 B( 18-C , 19-C ) :   1.3108
B( 18-C , 21-H ) :   0.9930 B( 19-C , 20-C ) :   1.5377 B( 19-C , 22-C ) :   1.0425
B( 22-C , 23-H ) :   0.9312 B( 22-C , 24-H ) :   0.9345 B( 22-C , 25-C ) :   1.0644
B( 25-C , 26-H ) :   0.9536 B( 25-C , 27-H ) :   0.9524 B( 25-C , 28-C ) :   1.0834
B( 28-C , 29-H ) :   0.9729 B( 28-C , 30-H ) :   0.9752 B( 28-C , 31-H ) :   0.9717

Dispersion correction           -0.014302512
FINAL SINGLE POINT ENERGY     -1339.859884325354

DIPOLE MOMENT
-------------
                                X             Y             Z
Electronic contribution:     -1.56712     -18.84515      23.86279
Nuclear contribution   :      1.82822      19.29056     -24.39830
                        -----------------------------------------
Total Dipole Moment    :      0.26109       0.44540      -0.53551
                        -----------------------------------------
Magnitude (a.u.)       :      0.74386
Magnitude (Debye)      :      1.89073

Rotational constants in cm-1:     0.017554     0.008951     0.007192
Rotational constants in MHz :   526.245312   268.333578   215.623737

                             ****ORCA TERMINATED NORMALLY****
TOTAL RUN TIME: 0 days 0 hours 0 minutes 20 seconds 973 msec
