                         Program Version 4.2.1 -  RELEASE  -
|  1> ! wB97X-D3 SP def2-SVP
|  2> %pal
|  3> nprocs 24
|  4> end
|  5>
|  6> * xyz 0 1
|  7> S 	 -39.4697 	 -8.08385 	 8.20459
|  8> C 	 -40.5377 	 -9.34764 	 8.64595
|  9> C 	 -40.2307 	 -10.5907 	 8.10578
| 10> C 	 -39.1646 	 -10.4472 	 7.13442
| 11> C 	 -38.6126 	 -9.12442 	 7.03985
| 12> H 	 -38.6679 	 -11.219 	 6.49359
| 13> C 	 -41.062 	 -11.8596 	 8.27386
| 14> H 	 -41.2588 	 -12.0162 	 9.29413
| 15> H 	 -40.4887 	 -12.7377 	 7.96654
| 16> C 	 -42.3831 	 -11.8479 	 7.50105
| 17> H 	 -42.8611 	 -10.8538 	 7.67671
| 18> H 	 -42.201 	 -11.9153 	 6.4144
| 19> C 	 -43.3241 	 -12.9888 	 7.92004
| 20> H 	 -44.26 	 -12.6642 	 7.55559
| 21> H 	 -43.0024 	 -13.9243 	 7.50256
| 22> H 	 -43.5073 	 -13.098 	 8.96081
| 23> S 	 -35.9182 	 -8.71267 	 7.2972
| 24> C 	 -34.9516 	 -8.26206 	 5.94164
| 25> C 	 -35.7018 	 -8.24907 	 4.78246
| 26> C 	 -37.1015 	 -8.55578 	 5.02969
| 27> C 	 -37.3725 	 -8.79408 	 6.36218
| 28> H 	 -35.3286 	 -8.12589 	 3.79487
| 29> C 	 -38.1193 	 -8.42447 	 3.87408
| 30> H 	 -39.0448 	 -8.87078 	 4.27905
| 31> H 	 -37.5933 	 -9.11597 	 3.15478
| 32> C 	 -38.1745 	 -6.96692 	 3.42452
| 33> H 	 -37.2922 	 -6.71905 	 2.9727
| 34> H 	 -38.1626 	 -6.47083 	 4.43669
| 35> C 	 -39.4476 	 -6.58375 	 2.68908
| 36> H 	 -39.6841 	 -7.23282 	 1.81802
| 37> H 	 -39.4784 	 -5.64575 	 2.29954
| 38> H 	 -40.3575 	 -6.53191 	 3.29244
| 39> H 	 -41.2885 	 -9.17449 	 9.41789
| 40> H 	 -33.8866 	 -8.09246 	 5.95966
| 41> *
| 42>
| 43>                          ****END OF INPUT****

CARTESIAN COORDINATES (ANGSTROEM)
---------------------------------
  S    -39.469700   -8.083850    8.204590
  C    -40.537700   -9.347640    8.645950
  C    -40.230700  -10.590700    8.105780
  C    -39.164600  -10.447200    7.134420
  C    -38.612600   -9.124420    7.039850
  H    -38.667900  -11.219000    6.493590
  C    -41.062000  -11.859600    8.273860
  H    -41.258800  -12.016200    9.294130
  H    -40.488700  -12.737700    7.966540
  C    -42.383100  -11.847900    7.501050
  H    -42.861100  -10.853800    7.676710
  H    -42.201000  -11.915300    6.414400
  C    -43.324100  -12.988800    7.920040
  H    -44.260000  -12.664200    7.555590
  H    -43.002400  -13.924300    7.502560
  H    -43.507300  -13.098000    8.960810
  S    -35.918200   -8.712670    7.297200
  C    -34.951600   -8.262060    5.941640
  C    -35.701800   -8.249070    4.782460
  C    -37.101500   -8.555780    5.029690
  C    -37.372500   -8.794080    6.362180
  H    -35.328600   -8.125890    3.794870
  C    -38.119300   -8.424470    3.874080
  H    -39.044800   -8.870780    4.279050
  H    -37.593300   -9.115970    3.154780
  C    -38.174500   -6.966920    3.424520
  H    -37.292200   -6.719050    2.972700
  H    -38.162600   -6.470830    4.436690
  C    -39.447600   -6.583750    2.689080
  H    -39.684100   -7.232820    1.818020
  H    -39.478400   -5.645750    2.299540
  H    -40.357500   -6.531910    3.292440
  H    -41.288500   -9.174490    9.417890
  H    -33.886600   -8.092460    5.959660

 Total Charge           Charge          ....    0
 Multiplicity           Mult            ....    1
 Number of Electrons    NEL             ....  134
 Basis Dimension        Dim             ....  322

ORBITAL ENERGIES
----------------

  NO   OCC          E(Eh)            E(eV)
   0   2.0000     -88.968259     -2420.9494
   1   2.0000     -88.961214     -2420.7577
   2   2.0000     -10.331126      -281.1242
   3   2.0000     -10.319793      -280.8158
   4   2.0000     -10.315807      -280.7074
   5   2.0000     -10.315659      -280.7034
   6   2.0000     -10.305653      -280.4311
   7   2.0000     -10.304671      -280.4043
   8   2.0000     -10.299155      -280.2543
   9   2.0000     -10.292857      -280.0829
  10   2.0000     -10.290561      -280.0204
  11   2.0000     -10.289157      -279.9822
  12   2.0000     -10.287848      -279.9466
  13   2.0000     -10.282081      -279.7896
  14   2.0000     -10.271141      -279.4920
  15   2.0000     -10.269366      -279.4437
  16   2.0000      -8.082904      -219.9470
  17   2.0000      -8.076895      -219.7835
  18   2.0000      -6.041248      -164.3907
  19   2.0000      -6.037301      -164.2833
  20   2.0000      -6.035428      -164.2324
  21   2.0000      -6.033970      -164.1927
  22   2.0000      -6.031194      -164.1171
  23   2.0000      -6.027636      -164.0203
  24   2.0000      -1.003701       -27.3121
  25   2.0000      -0.981943       -26.7200
  26   2.0000      -0.910999       -24.7896
  27   2.0000      -0.909282       -24.7428
  28   2.0000      -0.869025       -23.6474
  29   2.0000      -0.848898       -23.0997
  30   2.0000      -0.846347       -23.0303
  31   2.0000      -0.809918       -22.0390
  32   2.0000      -0.783542       -21.3213
  33   2.0000      -0.772200       -21.0126
  34   2.0000      -0.706527       -19.2256
  35   2.0000      -0.699379       -19.0311
  36   2.0000      -0.694661       -18.9027
  37   2.0000      -0.661542       -18.0015
  38   2.0000      -0.644332       -17.5332
  39   2.0000      -0.609145       -16.5757
  40   2.0000      -0.589919       -16.0525
  41   2.0000      -0.573710       -15.6114
  42   2.0000      -0.564422       -15.3587
  43   2.0000      -0.558541       -15.1987
  44   2.0000      -0.525934       -14.3114
  45   2.0000      -0.523491       -14.2449
  46   2.0000      -0.519498       -14.1362
  47   2.0000      -0.511881       -13.9290
  48   2.0000      -0.505412       -13.7530
  49   2.0000      -0.496960       -13.5230
  50   2.0000      -0.494573       -13.4580
  51   2.0000      -0.475716       -12.9449
  52   2.0000      -0.473625       -12.8880
  53   2.0000      -0.467316       -12.7163
  54   2.0000      -0.459768       -12.5109
  55   2.0000      -0.445066       -12.1109
  56   2.0000      -0.441996       -12.0273
  57   2.0000      -0.436737       -11.8842
  58   2.0000      -0.434024       -11.8104
  59   2.0000      -0.425838       -11.5876
  60   2.0000      -0.423335       -11.5195
  61   2.0000      -0.419706       -11.4208
  62   2.0000      -0.401694       -10.9307
  63   2.0000      -0.336692        -9.1618
  64   2.0000      -0.324497        -8.8300
  65   2.0000      -0.324279        -8.8241
  66   2.0000      -0.303751        -8.2655
  67   0.0000       0.040552         1.1035
  68   0.0000       0.059019         1.6060
  69   0.0000       0.121317         3.3012
  70   0.0000       0.121983         3.3193
  71   0.0000       0.131279         3.5723

MULLIKEN ATOMIC CHARGES
-----------------------
   0 S :    0.124815
   1 C :   -0.129514
   2 C :   -0.077525
   3 C :    0.027212
   4 C :   -0.199429
   5 H :    0.035845
   6 C :    0.096172
   7 H :    0.008848
   8 H :    0.018386
   9 C :   -0.110711
  10 H :    0.028899
  11 H :    0.035478
  12 C :    0.002016
  13 H :    0.020242
  14 H :    0.033485
  15 H :    0.018876
  16 S :    0.119508
  17 C :   -0.083576
  18 C :   -0.024967
  19 C :   -0.093861
  20 C :   -0.180547
  21 H :    0.007411
  22 C :    0.074724
  23 H :    0.035227
  24 H :    0.035492
  25 C :   -0.045445
  26 H :    0.008275
  27 H :    0.045101
  28 C :   -0.000803
  29 H :    0.027076
  30 H :    0.001094
  31 H :    0.026937
  32 H :    0.057589
  33 H :    0.057672
Sum of atomic charges:   -0.0000000

LOEWDIN ATOMIC CHARGES
----------------------
   0 S :    0.417393
   1 C :   -0.203800
   2 C :   -0.066726
   3 C :   -0.053479
   4 C :   -0.208707
   5 H :    0.039773
   6 C :   -0.031251
   7 H :    0.022092
   8 H :    0.030677
   9 C :   -0.037555
  10 H :    0.024410
  11 H :    0.027971
  12 C :   -0.057632
  13 H :    0.025429
  14 H :    0.024330
  15 H :    0.020214
  16 S :    0.424309
  17 C :   -0.187511
  18 C :   -0.074401
  19 C :   -0.054050
  20 C :   -0.225802
  21 H :    0.023924
  22 C :   -0.029263
  23 H :    0.032335
  24 H :    0.034831
  25 C :   -0.034479
  26 H :    0.011053
  27 H :    0.039241
  28 C :   -0.065573
  29 H :    0.029297
  30 H :    0.012799
  31 H :    0.031367
  32 H :    0.028748
  33 H :    0.030034

  Mayer bond orders larger than 0.100000
B(  0-S ,  1-C ) :   1.1748 B(  0-S ,  4-C ) :   1.1473 B(  1-C ,  2-C ) :   1.5760
B(  1-C ,  4-C ) :   0.1009 B(  1-C , 32-H ) :   0.9647 B(  2-C ,  3-C ) :   1.2593
B(  2-C ,  6-C ) :   1.0361 B(  3-C ,  4-C ) :   1.5616 B(  3-C ,  5-H ) :   0.9820
B(  4-C , 20-C ) :   1.0364 B(  6-C ,  7-H ) :   0.9359 B(  6-C ,  8-H ) :   0.9384
B(  6-C ,  9-C ) :   1.0639 B(  9-C , 10-H ) :   0.9609 B(  9-C , 11-H ) :   0.9544
B(  9-C , 12-C ) :   1.0772 B( 12-C , 13-H ) :   0.9712 B( 12-C , 14-H ) :   0.9760
B( 12-C , 15-H ) :   0.9746 B( 16-S , 17-C ) :   1.1671 B( 16-S , 20-C ) :   1.1407
B( 17-C , 18-C ) :   1.5944 B( 17-C , 33-H ) :   0.9690 B( 18-C , 19-C ) :   1.2425
B( 18-C , 21-H ) :   0.9926 B( 19-C , 20-C ) :   1.6154 B( 19-C , 22-C ) :   1.0244
B( 22-C , 23-H ) :   0.9389 B( 22-C , 24-H ) :   0.9287 B( 22-C , 25-C ) :   1.0471
B( 25-C , 26-H ) :   0.9532 B( 25-C , 27-H ) :   0.9584 B( 25-C , 28-C ) :   1.0877
B( 28-C , 29-H ) :   0.9717 B( 28-C , 30-H ) :   0.9692 B( 28-C , 31-H ) :   0.9717

Dispersion correction           -0.013753416
FINAL SINGLE POINT ENERGY     -1339.871554456855

DIPOLE MOMENT
-------------
                                X             Y             Z
Electronic contribution:     19.51213       8.28048      13.64978
Nuclear contribution   :    -19.79901      -8.55118     -13.94533
                        -----------------------------------------
Total Dipole Moment    :     -0.28689      -0.27071      -0.29555
                        -----------------------------------------
Magnitude (a.u.)       :      0.49289
Magnitude (Debye)      :      1.25282

Rotational constants in cm-1:     0.019380     0.007436     0.006328
Rotational constants in MHz :   580.989259   222.926181   189.694245

                             ****ORCA TERMINATED NORMALLY****
TOTAL RUN TIME: 0 days 0 hours 0 minutes 20 seconds 806 msec
