                         Program Version 4.2.1 -  RELEASE  -
|  1> ! wB97X-D3 SP def2-SVP
|  2> %pal
|  3> nprocs 24
|  4> end
|  5>
|  6> * xyz 0 1
|  7> S 	 -39.3911 	 -12.5434 	 8.59616
|  8> C 	 -40.4493 	 -12.8326 	 9.9291
|  9> C 	 -41.6443 	 -12.1823 	 9.67118
| 10> C 	 -41.6694 	 -11.4669 	 8.4851
| 11> C 	 -40.4836 	 -11.3994 	 7.85926
| 12> H 	 -42.4468 	 -11.0458 	 7.96627
| 13> C 	 -42.8854 	 -12.345 	 10.5176
| 14> H 	 -42.5882 	 -13.0245 	 11.2605
| 15> H 	 -43.6996 	 -12.7038 	 9.97384
| 16> C 	 -43.1893 	 -11.0728 	 11.307
| 17> H 	 -43.7941 	 -11.341 	 12.1859
| 18> H 	 -42.2752 	 -10.6191 	 11.6971
| 19> C 	 -43.9944 	 -10.0478 	 10.518
| 20> H 	 -43.3846 	 -9.68747 	 9.66653
| 21> H 	 -44.8389 	 -10.5329 	 10.0565
| 22> H 	 -44.2444 	 -9.1257 	 11.0175
| 23> S 	 -39.7424 	 -11.6668 	 5.15068
| 24> C 	 -40.3042 	 -10.5037 	 4.01876
| 25> C 	 -40.7027 	 -9.33869 	 4.65535
| 26> C 	 -40.6737 	 -9.49926 	 6.09246
| 27> C 	 -40.2124 	 -10.7476 	 6.56595
| 28> H 	 -40.9885 	 -8.49049 	 4.0739
| 29> C 	 -41.136 	 -8.3213 	 6.92746
| 30> H 	 -41.9742 	 -8.62667 	 7.64714
| 31> H 	 -41.4875 	 -7.56407 	 6.26854
| 32> C 	 -40.0327 	 -7.82018 	 7.84072
| 33> H 	 -39.3453 	 -7.25793 	 7.23322
| 34> H 	 -39.4359 	 -8.63901 	 8.2726
| 35> C 	 -40.5938 	 -6.98145 	 8.98674
| 36> H 	 -41.3955 	 -7.47933 	 9.51374
| 37> H 	 -41.0267 	 -6.03583 	 8.7282
| 38> H 	 -39.821 	 -6.74991 	 9.68712
| 39> H 	 -40.2972 	 -13.6115 	 10.6464
| 40> H 	 -40.4119 	 -10.7689 	 2.97664
| 41> *
| 42>
| 43>                          ****END OF INPUT****

CARTESIAN COORDINATES (ANGSTROEM)
---------------------------------
  S    -39.391100  -12.543400    8.596160
  C    -40.449300  -12.832600    9.929100
  C    -41.644300  -12.182300    9.671180
  C    -41.669400  -11.466900    8.485100
  C    -40.483600  -11.399400    7.859260
  H    -42.446800  -11.045800    7.966270
  C    -42.885400  -12.345000   10.517600
  H    -42.588200  -13.024500   11.260500
  H    -43.699600  -12.703800    9.973840
  C    -43.189300  -11.072800   11.307000
  H    -43.794100  -11.341000   12.185900
  H    -42.275200  -10.619100   11.697100
  C    -43.994400  -10.047800   10.518000
  H    -43.384600   -9.687470    9.666530
  H    -44.838900  -10.532900   10.056500
  H    -44.244400   -9.125700   11.017500
  S    -39.742400  -11.666800    5.150680
  C    -40.304200  -10.503700    4.018760
  C    -40.702700   -9.338690    4.655350
  C    -40.673700   -9.499260    6.092460
  C    -40.212400  -10.747600    6.565950
  H    -40.988500   -8.490490    4.073900
  C    -41.136000   -8.321300    6.927460
  H    -41.974200   -8.626670    7.647140
  H    -41.487500   -7.564070    6.268540
  C    -40.032700   -7.820180    7.840720
  H    -39.345300   -7.257930    7.233220
  H    -39.435900   -8.639010    8.272600
  C    -40.593800   -6.981450    8.986740
  H    -41.395500   -7.479330    9.513740
  H    -41.026700   -6.035830    8.728200
  H    -39.821000   -6.749910    9.687120
  H    -40.297200  -13.611500   10.646400
  H    -40.411900  -10.768900    2.976640

 Total Charge           Charge          ....    0
 Multiplicity           Mult            ....    1
 Number of Electrons    NEL             ....  134
 Basis Dimension        Dim             ....  322

ORBITAL ENERGIES
----------------

  NO   OCC          E(Eh)            E(eV)
   0   2.0000     -88.964473     -2420.8464
   1   2.0000     -88.962230     -2420.7854
   2   2.0000     -10.329002      -281.0664
   3   2.0000     -10.327164      -281.0164
   4   2.0000     -10.319794      -280.8159
   5   2.0000     -10.311653      -280.5944
   6   2.0000     -10.308281      -280.5026
   7   2.0000     -10.296722      -280.1881
   8   2.0000     -10.295605      -280.1577
   9   2.0000     -10.289771      -279.9989
  10   2.0000     -10.283891      -279.8389
  11   2.0000     -10.280438      -279.7449
  12   2.0000     -10.278945      -279.7043
  13   2.0000     -10.278692      -279.6974
  14   2.0000     -10.274046      -279.5710
  15   2.0000     -10.267405      -279.3903
  16   2.0000      -8.079976      -219.8673
  17   2.0000      -8.077725      -219.8061
  18   2.0000      -6.038452      -164.3146
  19   2.0000      -6.036117      -164.2511
  20   2.0000      -6.034151      -164.1976
  21   2.0000      -6.032129      -164.1426
  22   2.0000      -6.030934      -164.1101
  23   2.0000      -6.028564      -164.0456
  24   2.0000      -1.013767       -27.5860
  25   2.0000      -0.991034       -26.9674
  26   2.0000      -0.916753       -24.9461
  27   2.0000      -0.911113       -24.7926
  28   2.0000      -0.872877       -23.7522
  29   2.0000      -0.851807       -23.1788
  30   2.0000      -0.846019       -23.0213
  31   2.0000      -0.822084       -22.3700
  32   2.0000      -0.784383       -21.3442
  33   2.0000      -0.771118       -20.9832
  34   2.0000      -0.707252       -19.2453
  35   2.0000      -0.699392       -19.0314
  36   2.0000      -0.691440       -18.8150
  37   2.0000      -0.666021       -18.1233
  38   2.0000      -0.652692       -17.7606
  39   2.0000      -0.624034       -16.9808
  40   2.0000      -0.597141       -16.2490
  41   2.0000      -0.581514       -15.8238
  42   2.0000      -0.567678       -15.4473
  43   2.0000      -0.551400       -15.0044
  44   2.0000      -0.540314       -14.7027
  45   2.0000      -0.524835       -14.2815
  46   2.0000      -0.521463       -14.1897
  47   2.0000      -0.513392       -13.9701
  48   2.0000      -0.511222       -13.9111
  49   2.0000      -0.501555       -13.6480
  50   2.0000      -0.496095       -13.4994
  51   2.0000      -0.487545       -13.2668
  52   2.0000      -0.477640       -12.9973
  53   2.0000      -0.468658       -12.7528
  54   2.0000      -0.458754       -12.4833
  55   2.0000      -0.442174       -12.0322
  56   2.0000      -0.440500       -11.9866
  57   2.0000      -0.437335       -11.9005
  58   2.0000      -0.434084       -11.8120
  59   2.0000      -0.424760       -11.5583
  60   2.0000      -0.419819       -11.4239
  61   2.0000      -0.413637       -11.2556
  62   2.0000      -0.407847       -11.0981
  63   2.0000      -0.351829        -9.5737
  64   2.0000      -0.332325        -9.0430
  65   2.0000      -0.325557        -8.8588
  66   2.0000      -0.291523        -7.9327
  67   0.0000       0.026700         0.7265
  68   0.0000       0.065123         1.7721
  69   0.0000       0.115830         3.1519
  70   0.0000       0.119997         3.2653
  71   0.0000       0.130691         3.5563

MULLIKEN ATOMIC CHARGES
-----------------------
   0 S :    0.093778
   1 C :   -0.102854
   2 C :   -0.116350
   3 C :    0.045803
   4 C :   -0.148976
   5 H :   -0.012317
   6 C :    0.144626
   7 H :   -0.007462
   8 H :    0.020847
   9 C :   -0.080381
  10 H :    0.029784
  11 H :    0.029440
  12 C :   -0.036898
  13 H :    0.014607
  14 H :    0.020323
  15 H :    0.034190
  16 S :    0.101647
  17 C :   -0.104227
  18 C :   -0.015486
  19 C :   -0.089637
  20 C :   -0.103285
  21 H :    0.017320
  22 C :    0.073573
  23 H :    0.031171
  24 H :    0.010860
  25 C :   -0.071547
  26 H :    0.019844
  27 H :    0.046454
  28 C :   -0.022500
  29 H :    0.020230
  30 H :    0.015901
  31 H :    0.025431
  32 H :    0.048859
  33 H :    0.067232
Sum of atomic charges:   -0.0000000

LOEWDIN ATOMIC CHARGES
----------------------
   0 S :    0.411542
   1 C :   -0.202759
   2 C :   -0.059069
   3 C :   -0.060769
   4 C :   -0.184847
   5 H :    0.021335
   6 C :   -0.016504
   7 H :    0.025138
   8 H :    0.023550
   9 C :   -0.036822
  10 H :    0.023074
  11 H :    0.026163
  12 C :   -0.069386
  13 H :    0.022254
  14 H :    0.021422
  15 H :    0.024685
  16 S :    0.422636
  17 C :   -0.185413
  18 C :   -0.076499
  19 C :   -0.047477
  20 C :   -0.214367
  21 H :    0.030424
  22 C :   -0.032515
  23 H :    0.034230
  24 H :    0.023472
  25 C :   -0.036636
  26 H :    0.021397
  27 H :    0.030975
  28 C :   -0.063633
  29 H :    0.022165
  30 H :    0.019798
  31 H :    0.024292
  32 H :    0.027202
  33 H :    0.030940

  Mayer bond orders larger than 0.100000
B(  0-S ,  1-C ) :   1.1477 B(  0-S ,  4-C ) :   1.1583 B(  1-C ,  2-C ) :   1.5895
B(  1-C , 32-H ) :   0.9720 B(  2-C ,  3-C ) :   1.2447 B(  2-C ,  6-C ) :   1.0338
B(  3-C ,  4-C ) :   1.5742 B(  3-C ,  5-H ) :   1.0083 B(  4-C , 20-C ) :   1.0172
B(  6-C ,  7-H ) :   0.9219 B(  6-C ,  8-H ) :   0.9433 B(  6-C ,  9-C ) :   1.0691
B(  9-C , 10-H ) :   0.9578 B(  9-C , 11-H ) :   0.9508 B(  9-C , 12-C ) :   1.0856
B( 12-C , 13-H ) :   0.9688 B( 12-C , 14-H ) :   0.9709 B( 12-C , 15-H ) :   0.9700
B( 16-S , 17-C ) :   1.2012 B( 16-S , 20-C ) :   1.1314 B( 17-C , 18-C ) :   1.5524
B( 17-C , 33-H ) :   0.9682 B( 18-C , 19-C ) :   1.2696 B( 18-C , 21-H ) :   1.0005
B( 19-C , 20-C ) :   1.5582 B( 19-C , 22-C ) :   1.0516 B( 22-C , 23-H ) :   0.9354
B( 22-C , 24-H ) :   0.9317 B( 22-C , 25-C ) :   1.0576 B( 25-C , 26-H ) :   0.9502
B( 25-C , 27-H ) :   0.9612 B( 25-C , 28-C ) :   1.0848 B( 28-C , 29-H ) :   0.9737
B( 28-C , 30-H ) :   0.9719 B( 28-C , 31-H ) :   0.9717

Dispersion correction           -0.015422580
FINAL SINGLE POINT ENERGY     -1339.871679801683

DIPOLE MOMENT
-------------
                                X             Y             Z
Electronic contribution:     15.89330     -18.44457     -16.73467
Nuclear contribution   :    -16.50655      18.70161      16.75500
                        -----------------------------------------
Total Dipole Moment    :     -0.61325       0.25704       0.02032
                        -----------------------------------------
Magnitude (a.u.)       :      0.66525
Magnitude (Debye)      :      1.69093

Rotational constants in cm-1:     0.017434     0.010395     0.007863
Rotational constants in MHz :   522.672046   311.647856   235.712081

                             ****ORCA TERMINATED NORMALLY****
TOTAL RUN TIME: 0 days 0 hours 0 minutes 23 seconds 156 msec
