                         Program Version 4.2.1 -  RELEASE  -
|  1> ! wB97X-D3 SP def2-SVP
|  2> %pal
|  3> nprocs 24
|  4> end
|  5>
|  6> * xyz 0 1
|  7> S 	 -37.7395 	 19.5178 	 11.2047
|  8> C 	 -37.9823 	 18.34 	 12.5127
|  9> C 	 -37.9121 	 18.9358 	 13.7378
| 10> C 	 -38.0087 	 20.3283 	 13.6287
| 11> C 	 -37.8076 	 20.7851 	 12.3843
| 12> H 	 -38.0483 	 21.0311 	 14.4851
| 13> C 	 -38.0095 	 18.166 	 15.0158
| 14> H 	 -38.8754 	 17.4877 	 14.8573
| 15> H 	 -38.3809 	 18.8518 	 15.7986
| 16> C 	 -36.7049 	 17.4402 	 15.3326
| 17> H 	 -36.7305 	 16.5494 	 14.7479
| 18> H 	 -35.7628 	 17.9369 	 15.2197
| 19> C 	 -36.713 	 16.89 	 16.6837
| 20> H 	 -35.7301 	 16.3997 	 16.9687
| 21> H 	 -37.0689 	 17.7001 	 17.3385
| 22> H 	 -37.4884 	 16.0844 	 16.6859
| 23> S 	 -38.6165 	 22.9747 	 11.0098
| 24> C 	 -37.7696 	 24.3949 	 11.3354
| 25> C 	 -36.6722 	 24.2913 	 12.1123
| 26> C 	 -36.4837 	 22.9765 	 12.5474
| 27> C 	 -37.4665 	 22.1344 	 12.049
| 28> H 	 -36.0034 	 25.0804 	 12.2954
| 29> C 	 -35.3653 	 22.628 	 13.5612
| 30> H 	 -34.359 	 22.6786 	 13.0895
| 31> H 	 -35.3308 	 21.5937 	 13.9025
| 32> C 	 -35.3414 	 23.5723 	 14.7721
| 33> H 	 -34.975 	 24.5783 	 14.4617
| 34> H 	 -34.6516 	 23.2151 	 15.4835
| 35> C 	 -36.5994 	 23.7077 	 15.6462
| 36> H 	 -36.4204 	 24.2309 	 16.5984
| 37> H 	 -37.1192 	 22.7312 	 15.6137
| 38> H 	 -37.317 	 24.5158 	 15.2977
| 39> H 	 -38.2069 	 17.2834 	 12.4419
| 40> H 	 -37.9837 	 25.3513 	 10.9209
| 41> *
| 42>
| 43>                          ****END OF INPUT****

CARTESIAN COORDINATES (ANGSTROEM)
---------------------------------
  S    -37.739500   19.517800   11.204700
  C    -37.982300   18.340000   12.512700
  C    -37.912100   18.935800   13.737800
  C    -38.008700   20.328300   13.628700
  C    -37.807600   20.785100   12.384300
  H    -38.048300   21.031100   14.485100
  C    -38.009500   18.166000   15.015800
  H    -38.875400   17.487700   14.857300
  H    -38.380900   18.851800   15.798600
  C    -36.704900   17.440200   15.332600
  H    -36.730500   16.549400   14.747900
  H    -35.762800   17.936900   15.219700
  C    -36.713000   16.890000   16.683700
  H    -35.730100   16.399700   16.968700
  H    -37.068900   17.700100   17.338500
  H    -37.488400   16.084400   16.685900
  S    -38.616500   22.974700   11.009800
  C    -37.769600   24.394900   11.335400
  C    -36.672200   24.291300   12.112300
  C    -36.483700   22.976500   12.547400
  C    -37.466500   22.134400   12.049000
  H    -36.003400   25.080400   12.295400
  C    -35.365300   22.628000   13.561200
  H    -34.359000   22.678600   13.089500
  H    -35.330800   21.593700   13.902500
  C    -35.341400   23.572300   14.772100
  H    -34.975000   24.578300   14.461700
  H    -34.651600   23.215100   15.483500
  C    -36.599400   23.707700   15.646200
  H    -36.420400   24.230900   16.598400
  H    -37.119200   22.731200   15.613700
  H    -37.317000   24.515800   15.297700
  H    -38.206900   17.283400   12.441900
  H    -37.983700   25.351300   10.920900

 Total Charge           Charge          ....    0
 Multiplicity           Mult            ....    1
 Number of Electrons    NEL             ....  134
 Basis Dimension        Dim             ....  322

ORBITAL ENERGIES
----------------

  NO   OCC          E(Eh)            E(eV)
   0   2.0000     -88.965489     -2420.8740
   1   2.0000     -88.962250     -2420.7859
   2   2.0000     -10.318184      -280.7721
   3   2.0000     -10.314795      -280.6799
   4   2.0000     -10.306973      -280.4670
   5   2.0000     -10.305852      -280.4365
   6   2.0000     -10.302339      -280.3409
   7   2.0000     -10.297305      -280.2039
   8   2.0000     -10.294179      -280.1189
   9   2.0000     -10.290145      -280.0091
  10   2.0000     -10.286084      -279.8986
  11   2.0000     -10.284613      -279.8585
  12   2.0000     -10.283994      -279.8417
  13   2.0000     -10.281252      -279.7671
  14   2.0000     -10.279188      -279.7109
  15   2.0000     -10.276155      -279.6284
  16   2.0000      -8.081533      -219.9097
  17   2.0000      -8.077038      -219.7874
  18   2.0000      -6.039693      -164.3484
  19   2.0000      -6.036037      -164.2489
  20   2.0000      -6.035561      -164.2360
  21   2.0000      -6.032397      -164.1499
  22   2.0000      -6.031656      -164.1297
  23   2.0000      -6.027677      -164.0214
  24   2.0000      -1.014999       -27.6195
  25   2.0000      -0.992313       -27.0022
  26   2.0000      -0.924893       -25.1676
  27   2.0000      -0.908397       -24.7187
  28   2.0000      -0.876906       -23.8618
  29   2.0000      -0.853229       -23.2175
  30   2.0000      -0.851189       -23.1620
  31   2.0000      -0.815439       -22.1892
  32   2.0000      -0.787184       -21.4204
  33   2.0000      -0.769338       -20.9348
  34   2.0000      -0.705864       -19.2075
  35   2.0000      -0.695882       -18.9359
  36   2.0000      -0.690560       -18.7911
  37   2.0000      -0.661250       -17.9935
  38   2.0000      -0.639335       -17.3972
  39   2.0000      -0.619072       -16.8458
  40   2.0000      -0.602682       -16.3998
  41   2.0000      -0.577335       -15.7101
  42   2.0000      -0.566661       -15.4196
  43   2.0000      -0.559845       -15.2342
  44   2.0000      -0.543171       -14.7804
  45   2.0000      -0.536607       -14.6018
  46   2.0000      -0.522625       -14.2213
  47   2.0000      -0.504502       -13.7282
  48   2.0000      -0.499151       -13.5826
  49   2.0000      -0.498145       -13.5552
  50   2.0000      -0.494887       -13.4666
  51   2.0000      -0.480369       -13.0715
  52   2.0000      -0.464281       -12.6337
  53   2.0000      -0.459809       -12.5120
  54   2.0000      -0.458000       -12.4628
  55   2.0000      -0.450003       -12.2452
  56   2.0000      -0.447640       -12.1809
  57   2.0000      -0.442363       -12.0373
  58   2.0000      -0.434972       -11.8362
  59   2.0000      -0.422203       -11.4887
  60   2.0000      -0.415706       -11.3119
  61   2.0000      -0.414476       -11.2785
  62   2.0000      -0.406459       -11.0603
  63   2.0000      -0.339273        -9.2321
  64   2.0000      -0.332070        -9.0361
  65   2.0000      -0.329050        -8.9539
  66   2.0000      -0.296449        -8.0668
  67   0.0000       0.039200         1.0667
  68   0.0000       0.070471         1.9176
  69   0.0000       0.113640         3.0923
  70   0.0000       0.125946         3.4272
  71   0.0000       0.129920         3.5353

MULLIKEN ATOMIC CHARGES
-----------------------
   0 S :    0.111628
   1 C :   -0.110640
   2 C :   -0.095733
   3 C :    0.027370
   4 C :   -0.132876
   5 H :    0.006991
   6 C :    0.021102
   7 H :    0.038748
   8 H :    0.018809
   9 C :   -0.021559
  10 H :    0.014741
  11 H :    0.034458
  12 C :   -0.062690
  13 H :    0.047965
  14 H :    0.027094
  15 H :    0.019871
  16 S :    0.130919
  17 C :   -0.047512
  18 C :   -0.037801
  19 C :    0.019332
  20 C :   -0.211090
  21 H :   -0.004302
  22 C :    0.073002
  23 H :    0.037498
  24 H :    0.024416
  25 C :   -0.087068
  26 H :    0.026953
  27 H :    0.023154
  28 C :   -0.072294
  29 H :    0.037170
  30 H :    0.041323
  31 H :    0.029782
  32 H :    0.037942
  33 H :    0.033295
Sum of atomic charges:   -0.0000000

LOEWDIN ATOMIC CHARGES
----------------------
   0 S :    0.396129
   1 C :   -0.190411
   2 C :   -0.064802
   3 C :   -0.067569
   4 C :   -0.203512
   5 H :    0.033211
   6 C :   -0.031228
   7 H :    0.039574
   8 H :    0.027473
   9 C :   -0.044029
  10 H :    0.024783
  11 H :    0.025149
  12 C :   -0.068113
  13 H :    0.032826
  14 H :    0.021759
  15 H :    0.023804
  16 S :    0.431288
  17 C :   -0.189062
  18 C :   -0.069420
  19 C :   -0.042864
  20 C :   -0.202502
  21 H :    0.025329
  22 C :   -0.032462
  23 H :    0.040971
  24 H :    0.029564
  25 C :   -0.045783
  26 H :    0.022265
  27 H :    0.021335
  28 C :   -0.081370
  29 H :    0.031887
  30 H :    0.027238
  31 H :    0.030973
  32 H :    0.025967
  33 H :    0.021602

  Mayer bond orders larger than 0.100000
B(  0-S ,  1-C ) :   1.1199 B(  0-S ,  4-C ) :   1.1508 B(  1-C ,  2-C ) :   1.6262
B(  1-C , 32-H ) :   0.9664 B(  2-C ,  3-C ) :   1.2398 B(  2-C ,  6-C ) :   1.0177
B(  3-C ,  4-C ) :   1.5940 B(  3-C ,  5-H ) :   0.9926 B(  4-C , 20-C ) :   1.0047
B(  6-C ,  7-H ) :   0.9382 B(  6-C ,  8-H ) :   0.9491 B(  6-C ,  9-C ) :   1.0507
B(  9-C , 10-H ) :   0.9462 B(  9-C , 11-H ) :   0.9630 B(  9-C , 12-C ) :   1.0906
B( 12-C , 13-H ) :   0.9724 B( 12-C , 14-H ) :   0.9732 B( 12-C , 15-H ) :   0.9735
B( 16-S , 17-C ) :   1.1726 B( 16-S , 20-C ) :   1.1451 B( 17-C , 18-C ) :   1.6137
B( 17-C , 33-H ) :   0.9619 B( 18-C , 19-C ) :   1.2436 B( 18-C , 21-H ) :   0.9998
B( 19-C , 20-C ) :   1.6106 B( 19-C , 22-C ) :   1.0319 B( 22-C , 23-H ) :   0.9322
B( 22-C , 24-H ) :   0.9376 B( 22-C , 25-C ) :   1.0844 B( 25-C , 26-H ) :   0.9510
B( 25-C , 27-H ) :   0.9556 B( 25-C , 28-C ) :   1.0688 B( 28-C , 29-H ) :   0.9706
B( 28-C , 30-H ) :   0.9714 B( 28-C , 31-H ) :   0.9697

Dispersion correction           -0.014875803
FINAL SINGLE POINT ENERGY     -1339.855320459076

DIPOLE MOMENT
-------------
                                X             Y             Z
Electronic contribution:    -10.31855       5.72971     -28.18026
Nuclear contribution   :     10.64829      -5.64325      28.77732
                        -----------------------------------------
Total Dipole Moment    :      0.32974       0.08646       0.59706
                        -----------------------------------------
Magnitude (a.u.)       :      0.68752
Magnitude (Debye)      :      1.74754

Rotational constants in cm-1:     0.019578     0.009201     0.006833
Rotational constants in MHz :   586.939586   275.827985   204.858312

                             ****ORCA TERMINATED NORMALLY****
TOTAL RUN TIME: 0 days 0 hours 0 minutes 22 seconds 330 msec
