                         Program Version 4.2.1 -  RELEASE  -
|  1> ! wB97X-D3 SP def2-SVP
|  2> %pal
|  3> nprocs 24
|  4> end
|  5>
|  6> * xyz 0 1
|  7> S 	 -106.882 	 54.4947 	 -79.9782
|  8> C 	 -107.44 	 54.956 	 -81.5536
|  9> C 	 -108.652 	 54.4026 	 -81.8698
| 10> C 	 -109.067 	 53.4785 	 -80.8449
| 11> C 	 -108.251 	 53.4589 	 -79.7572
| 12> H 	 -110.018 	 52.9172 	 -80.8329
| 13> C 	 -109.45 	 54.5963 	 -83.1379
| 14> H 	 -110.19 	 55.4185 	 -82.903
| 15> H 	 -109.962 	 53.7008 	 -83.1584
| 16> C 	 -108.673 	 54.8316 	 -84.4536
| 17> H 	 -108.005 	 55.6556 	 -84.2848
| 18> H 	 -108.046 	 53.9364 	 -84.5322
| 19> C 	 -109.567 	 55.0766 	 -85.6331
| 20> H 	 -109.007 	 55.1615 	 -86.6034
| 21> H 	 -110.146 	 54.141 	 -85.6599
| 22> H 	 -110.266 	 55.931 	 -85.4149
| 23> S 	 -109.861 	 52.6145 	 -77.706
| 24> C 	 -109.471 	 51.0361 	 -76.8862
| 25> C 	 -108.232 	 50.5749 	 -77.2833
| 26> C 	 -107.641 	 51.3628 	 -78.3117
| 27> C 	 -108.41 	 52.4326 	 -78.6782
| 28> H 	 -107.907 	 49.7155 	 -76.7449
| 29> C 	 -106.377 	 50.8288 	 -78.9565
| 30> H 	 -105.728 	 50.1133 	 -78.4599
| 31> H 	 -105.614 	 51.5918 	 -79.1079
| 32> C 	 -106.65 	 50.171 	 -80.2992
| 33> H 	 -105.754 	 49.8843 	 -80.8571
| 34> H 	 -107.185 	 50.8753 	 -81.0217
| 35> C 	 -107.561 	 48.932 	 -80.1337
| 36> H 	 -107.767 	 48.513 	 -81.1545
| 37> H 	 -108.587 	 49.0898 	 -79.7746
| 38> H 	 -107.095 	 48.2147 	 -79.4511
| 39> H 	 -106.884 	 55.581 	 -82.2087
| 40> H 	 -110.063 	 50.6091 	 -76.0033
| 41> *
| 42>
| 43>                          ****END OF INPUT****

CARTESIAN COORDINATES (ANGSTROEM)
---------------------------------
  S    -106.882000   54.494700  -79.978200
  C    -107.440000   54.956000  -81.553600
  C    -108.652000   54.402600  -81.869800
  C    -109.067000   53.478500  -80.844900
  C    -108.251000   53.458900  -79.757200
  H    -110.018000   52.917200  -80.832900
  C    -109.450000   54.596300  -83.137900
  H    -110.190000   55.418500  -82.903000
  H    -109.962000   53.700800  -83.158400
  C    -108.673000   54.831600  -84.453600
  H    -108.005000   55.655600  -84.284800
  H    -108.046000   53.936400  -84.532200
  C    -109.567000   55.076600  -85.633100
  H    -109.007000   55.161500  -86.603400
  H    -110.146000   54.141000  -85.659900
  H    -110.266000   55.931000  -85.414900
  S    -109.861000   52.614500  -77.706000
  C    -109.471000   51.036100  -76.886200
  C    -108.232000   50.574900  -77.283300
  C    -107.641000   51.362800  -78.311700
  C    -108.410000   52.432600  -78.678200
  H    -107.907000   49.715500  -76.744900
  C    -106.377000   50.828800  -78.956500
  H    -105.728000   50.113300  -78.459900
  H    -105.614000   51.591800  -79.107900
  C    -106.650000   50.171000  -80.299200
  H    -105.754000   49.884300  -80.857100
  H    -107.185000   50.875300  -81.021700
  C    -107.561000   48.932000  -80.133700
  H    -107.767000   48.513000  -81.154500
  H    -108.587000   49.089800  -79.774600
  H    -107.095000   48.214700  -79.451100
  H    -106.884000   55.581000  -82.208700
  H    -110.063000   50.609100  -76.003300

 Total Charge           Charge          ....    0
 Multiplicity           Mult            ....    1
 Number of Electrons    NEL             ....  134
 Basis Dimension        Dim             ....  322

ORBITAL ENERGIES
----------------

  NO   OCC          E(Eh)            E(eV)
   0   2.0000     -88.966869     -2420.9116
   1   2.0000     -88.965827     -2420.8832
   2   2.0000     -10.330360      -281.1034
   3   2.0000     -10.326458      -280.9972
   4   2.0000     -10.325140      -280.9614
   5   2.0000     -10.309114      -280.5253
   6   2.0000     -10.304901      -280.4106
   7   2.0000     -10.299111      -280.2531
   8   2.0000     -10.293040      -280.0878
   9   2.0000     -10.292971      -280.0860
  10   2.0000     -10.290351      -280.0147
  11   2.0000     -10.287848      -279.9466
  12   2.0000     -10.287541      -279.9382
  13   2.0000     -10.286872      -279.9200
  14   2.0000     -10.285415      -279.8804
  15   2.0000     -10.274425      -279.5813
  16   2.0000      -8.081967      -219.9215
  17   2.0000      -8.079433      -219.8525
  18   2.0000      -6.040424      -164.3683
  19   2.0000      -6.037994      -164.3022
  20   2.0000      -6.036405      -164.2589
  21   2.0000      -6.034220      -164.1995
  22   2.0000      -6.032784      -164.1604
  23   2.0000      -6.030085      -164.0870
  24   2.0000      -1.007877       -27.4257
  25   2.0000      -0.984052       -26.7774
  26   2.0000      -0.916703       -24.9448
  27   2.0000      -0.905282       -24.6340
  28   2.0000      -0.869082       -23.6489
  29   2.0000      -0.855430       -23.2774
  30   2.0000      -0.837765       -22.7967
  31   2.0000      -0.814948       -22.1759
  32   2.0000      -0.781388       -21.2627
  33   2.0000      -0.771929       -21.0053
  34   2.0000      -0.711569       -19.3628
  35   2.0000      -0.696802       -18.9609
  36   2.0000      -0.679767       -18.4974
  37   2.0000      -0.659808       -17.9543
  38   2.0000      -0.642300       -17.4779
  39   2.0000      -0.611206       -16.6318
  40   2.0000      -0.596582       -16.2338
  41   2.0000      -0.578098       -15.7309
  42   2.0000      -0.567791       -15.4504
  43   2.0000      -0.546697       -14.8764
  44   2.0000      -0.540995       -14.7212
  45   2.0000      -0.524410       -14.2699
  46   2.0000      -0.518490       -14.1088
  47   2.0000      -0.509168       -13.8552
  48   2.0000      -0.507521       -13.8103
  49   2.0000      -0.493546       -13.4301
  50   2.0000      -0.483026       -13.1438
  51   2.0000      -0.474491       -12.9116
  52   2.0000      -0.473559       -12.8862
  53   2.0000      -0.464212       -12.6319
  54   2.0000      -0.458576       -12.4785
  55   2.0000      -0.448399       -12.2015
  56   2.0000      -0.436380       -11.8745
  57   2.0000      -0.430949       -11.7267
  58   2.0000      -0.429597       -11.6899
  59   2.0000      -0.426443       -11.6041
  60   2.0000      -0.420883       -11.4528
  61   2.0000      -0.417626       -11.3642
  62   2.0000      -0.405084       -11.0229
  63   2.0000      -0.340563        -9.2672
  64   2.0000      -0.335549        -9.1307
  65   2.0000      -0.326295        -8.8789
  66   2.0000      -0.302384        -8.2283
  67   0.0000       0.037001         1.0069
  68   0.0000       0.068463         1.8630
  69   0.0000       0.104731         2.8499
  70   0.0000       0.123987         3.3739
  71   0.0000       0.127481         3.4689

MULLIKEN ATOMIC CHARGES
-----------------------
   0 S :    0.124213
   1 C :   -0.137795
   2 C :   -0.091154
   3 C :    0.003851
   4 C :   -0.131686
   5 H :    0.028812
   6 C :    0.091981
   7 H :    0.049218
   8 H :    0.000264
   9 C :   -0.089759
  10 H :    0.024242
  11 H :    0.033535
  12 C :   -0.044957
  13 H :    0.052361
  14 H :    0.028287
  15 H :    0.044940
  16 S :    0.096398
  17 C :   -0.135375
  18 C :   -0.032726
  19 C :    0.031468
  20 C :   -0.192034
  21 H :    0.015567
  22 C :    0.083165
  23 H :    0.017106
  24 H :    0.014892
  25 C :   -0.095980
  26 H :    0.030814
  27 H :    0.040600
  28 C :   -0.079143
  29 H :    0.032509
  30 H :    0.045140
  31 H :    0.025128
  32 H :    0.033453
  33 H :    0.082664
Sum of atomic charges:   -0.0000000

LOEWDIN ATOMIC CHARGES
----------------------
   0 S :    0.420909
   1 C :   -0.197839
   2 C :   -0.062739
   3 C :   -0.065369
   4 C :   -0.207761
   5 H :    0.036058
   6 C :   -0.028699
   7 H :    0.041346
   8 H :    0.018149
   9 C :   -0.043910
  10 H :    0.015125
  11 H :    0.028399
  12 C :   -0.069244
  13 H :    0.034702
  14 H :    0.028325
  15 H :    0.033454
  16 S :    0.376452
  17 C :   -0.179396
  18 C :   -0.063409
  19 C :   -0.056820
  20 C :   -0.182221
  21 H :    0.032015
  22 C :   -0.039826
  23 H :    0.031398
  24 H :    0.027285
  25 C :   -0.043091
  26 H :    0.023543
  27 H :    0.029187
  28 C :   -0.075873
  29 H :    0.029589
  30 H :    0.026796
  31 H :    0.019560
  32 H :    0.019289
  33 H :    0.044614

  Mayer bond orders larger than 0.100000
B(  0-S ,  1-C ) :   1.1405 B(  0-S ,  4-C ) :   1.1505 B(  1-C ,  2-C ) :   1.6153
B(  1-C , 32-H ) :   0.9728 B(  2-C ,  3-C ) :   1.2445 B(  2-C ,  6-C ) :   1.0022
B(  3-C ,  4-C ) :   1.5968 B(  3-C ,  5-H ) :   0.9818 B(  4-C , 20-C ) :   0.9863
B(  6-C ,  7-H ) :   0.9243 B(  6-C ,  8-H ) :   0.9369 B(  6-C ,  9-C ) :   1.0693
B(  9-C , 10-H ) :   0.9505 B(  9-C , 11-H ) :   0.9570 B(  9-C , 12-C ) :   1.0837
B( 12-C , 13-H ) :   0.9714 B( 12-C , 14-H ) :   0.9738 B( 12-C , 15-H ) :   0.9724
B( 16-S , 17-C ) :   1.1233 B( 16-S , 20-C ) :   1.1490 B( 17-C , 18-C ) :   1.6493
B( 17-C , 33-H ) :   0.9557 B( 18-C , 19-C ) :   1.1944 B( 18-C , 21-H ) :   0.9975
B( 19-C , 20-C ) :   1.6315 B( 19-C , 22-C ) :   1.0374 B( 22-C , 23-H ) :   0.9445
B( 22-C , 24-H ) :   0.9254 B( 22-C , 25-C ) :   1.0750 B( 25-C , 26-H ) :   0.9564
B( 25-C , 27-H ) :   0.9559 B( 25-C , 28-C ) :   1.0691 B( 28-C , 29-H ) :   0.9730
B( 28-C , 30-H ) :   0.9724 B( 28-C , 31-H ) :   0.9748

Dispersion correction           -0.015061434
FINAL SINGLE POINT ENERGY     -1339.875822668188

DIPOLE MOMENT
-------------
                                X             Y             Z
Electronic contribution:     -0.69026       8.69284      22.86114
Nuclear contribution   :      0.72402      -8.96305     -23.28430
                        -----------------------------------------
Total Dipole Moment    :      0.03376      -0.27021      -0.42316
                        -----------------------------------------
Magnitude (a.u.)       :      0.50320
Magnitude (Debye)      :      1.27904

Rotational constants in cm-1:     0.021924     0.007539     0.006988
Rotational constants in MHz :   657.278047   226.014970   209.498601

                             ****ORCA TERMINATED NORMALLY****
TOTAL RUN TIME: 0 days 0 hours 0 minutes 21 seconds 649 msec
