                         Program Version 4.2.1 -  RELEASE  -
|  1> ! wB97X-D3 SP def2-SVP
|  2> %pal
|  3> nprocs 24
|  4> end
|  5>
|  6> * xyz 0 1
|  7> S 	 -53.4706 	 -50.8397 	 -82.8086
|  8> C 	 -54.2073 	 -49.5489 	 -83.6502
|  9> C 	 -55.5359 	 -49.8337 	 -83.9209
| 10> C 	 -55.9234 	 -51.1109 	 -83.3835
| 11> C 	 -54.8686 	 -51.7584 	 -82.8151
| 12> H 	 -56.9254 	 -51.5309 	 -83.3374
| 13> C 	 -56.5293 	 -49.009 	 -84.6899
| 14> H 	 -55.9878 	 -48.3444 	 -85.3514
| 15> H 	 -57.0176 	 -48.4764 	 -83.8796
| 16> C 	 -57.5115 	 -49.7287 	 -85.6008
| 17> H 	 -56.9277 	 -50.0165 	 -86.5112
| 18> H 	 -57.7986 	 -50.703 	 -85.2467
| 19> C 	 -58.6322 	 -48.7814 	 -86.0966
| 20> H 	 -59.3033 	 -48.3033 	 -85.3908
| 21> H 	 -58.1914 	 -47.9788 	 -86.6618
| 22> H 	 -59.1378 	 -49.2895 	 -86.9133
| 23> S 	 -53.8832 	 -53.4599 	 -80.8491
| 24> C 	 -54.5238 	 -55.0273 	 -80.5667
| 25> C 	 -55.4144 	 -55.2878 	 -81.6062
| 26> C 	 -55.6186 	 -54.2794 	 -82.6374
| 27> C 	 -54.7698 	 -53.1559 	 -82.3344
| 28> H 	 -55.9437 	 -56.2215 	 -81.5867
| 29> C 	 -56.7176 	 -54.418 	 -83.694
| 30> H 	 -56.8505 	 -53.5259 	 -84.3242
| 31> H 	 -57.5772 	 -54.6557 	 -83.0374
| 32> C 	 -56.4545 	 -55.6383 	 -84.5966
| 33> H 	 -57.4814 	 -55.858 	 -85.0964
| 34> H 	 -56.1545 	 -56.5255 	 -84.0129
| 35> C 	 -55.4235 	 -55.3029 	 -85.6994
| 36> H 	 -55.6895 	 -54.3733 	 -86.2177
| 37> H 	 -55.4649 	 -56.1087 	 -86.3108
| 38> H 	 -54.4084 	 -55.2293 	 -85.2903
| 39> H 	 -53.837 	 -48.5641 	 -83.7976
| 40> H 	 -54.4911 	 -55.6657 	 -79.6862
| 41> *
| 42>
| 43>                          ****END OF INPUT****

CARTESIAN COORDINATES (ANGSTROEM)
---------------------------------
  S    -53.470600  -50.839700  -82.808600
  C    -54.207300  -49.548900  -83.650200
  C    -55.535900  -49.833700  -83.920900
  C    -55.923400  -51.110900  -83.383500
  C    -54.868600  -51.758400  -82.815100
  H    -56.925400  -51.530900  -83.337400
  C    -56.529300  -49.009000  -84.689900
  H    -55.987800  -48.344400  -85.351400
  H    -57.017600  -48.476400  -83.879600
  C    -57.511500  -49.728700  -85.600800
  H    -56.927700  -50.016500  -86.511200
  H    -57.798600  -50.703000  -85.246700
  C    -58.632200  -48.781400  -86.096600
  H    -59.303300  -48.303300  -85.390800
  H    -58.191400  -47.978800  -86.661800
  H    -59.137800  -49.289500  -86.913300
  S    -53.883200  -53.459900  -80.849100
  C    -54.523800  -55.027300  -80.566700
  C    -55.414400  -55.287800  -81.606200
  C    -55.618600  -54.279400  -82.637400
  C    -54.769800  -53.155900  -82.334400
  H    -55.943700  -56.221500  -81.586700
  C    -56.717600  -54.418000  -83.694000
  H    -56.850500  -53.525900  -84.324200
  H    -57.577200  -54.655700  -83.037400
  C    -56.454500  -55.638300  -84.596600
  H    -57.481400  -55.858000  -85.096400
  H    -56.154500  -56.525500  -84.012900
  C    -55.423500  -55.302900  -85.699400
  H    -55.689500  -54.373300  -86.217700
  H    -55.464900  -56.108700  -86.310800
  H    -54.408400  -55.229300  -85.290300
  H    -53.837000  -48.564100  -83.797600
  H    -54.491100  -55.665700  -79.686200

 Total Charge           Charge          ....    0
 Multiplicity           Mult            ....    1
 Number of Electrons    NEL             ....  134
 Basis Dimension        Dim             ....  322

ORBITAL ENERGIES
----------------

  NO   OCC          E(Eh)            E(eV)
   0   2.0000     -88.965247     -2420.8675
   1   2.0000     -88.962041     -2420.7802
   2   2.0000     -10.332014      -281.1484
   3   2.0000     -10.322723      -280.8956
   4   2.0000     -10.319155      -280.7985
   5   2.0000     -10.313000      -280.6310
   6   2.0000     -10.303906      -280.3835
   7   2.0000     -10.299380      -280.2604
   8   2.0000     -10.298493      -280.2362
   9   2.0000     -10.295303      -280.1494
  10   2.0000     -10.294865      -280.1375
  11   2.0000     -10.291377      -280.0426
  12   2.0000     -10.288277      -279.9583
  13   2.0000     -10.288192      -279.9559
  14   2.0000     -10.280217      -279.7389
  15   2.0000     -10.268911      -279.4313
  16   2.0000      -8.080201      -219.8735
  17   2.0000      -8.079135      -219.8444
  18   2.0000      -6.038733      -164.3223
  19   2.0000      -6.037474      -164.2880
  20   2.0000      -6.034482      -164.2066
  21   2.0000      -6.033263      -164.1734
  22   2.0000      -6.031089      -164.1143
  23   2.0000      -6.029974      -164.0839
  24   2.0000      -1.014916       -27.6173
  25   2.0000      -0.986153       -26.8346
  26   2.0000      -0.916714       -24.9450
  27   2.0000      -0.910160       -24.7667
  28   2.0000      -0.869252       -23.6535
  29   2.0000      -0.852132       -23.1877
  30   2.0000      -0.842190       -22.9172
  31   2.0000      -0.815323       -22.1861
  32   2.0000      -0.784854       -21.3570
  33   2.0000      -0.775973       -21.1153
  34   2.0000      -0.713323       -19.4105
  35   2.0000      -0.694235       -18.8911
  36   2.0000      -0.691294       -18.8111
  37   2.0000      -0.651967       -17.7409
  38   2.0000      -0.638539       -17.3755
  39   2.0000      -0.626840       -17.0572
  40   2.0000      -0.599515       -16.3136
  41   2.0000      -0.567736       -15.4489
  42   2.0000      -0.566025       -15.4023
  43   2.0000      -0.555615       -15.1190
  44   2.0000      -0.535881       -14.5821
  45   2.0000      -0.527325       -14.3492
  46   2.0000      -0.524270       -14.2661
  47   2.0000      -0.511980       -13.9317
  48   2.0000      -0.506330       -13.7779
  49   2.0000      -0.502791       -13.6816
  50   2.0000      -0.494914       -13.4673
  51   2.0000      -0.476730       -12.9725
  52   2.0000      -0.472300       -12.8519
  53   2.0000      -0.469892       -12.7864
  54   2.0000      -0.459842       -12.5129
  55   2.0000      -0.454210       -12.3597
  56   2.0000      -0.439461       -11.9583
  57   2.0000      -0.436841       -11.8870
  58   2.0000      -0.433231       -11.7888
  59   2.0000      -0.430513       -11.7148
  60   2.0000      -0.422093       -11.4857
  61   2.0000      -0.415742       -11.3129
  62   2.0000      -0.405324       -11.0294
  63   2.0000      -0.352561        -9.5937
  64   2.0000      -0.328396        -8.9361
  65   2.0000      -0.323526        -8.8036
  66   2.0000      -0.286745        -7.8027
  67   0.0000       0.028958         0.7880
  68   0.0000       0.081778         2.2253
  69   0.0000       0.110575         3.0089
  70   0.0000       0.116864         3.1800
  71   0.0000       0.134884         3.6704

MULLIKEN ATOMIC CHARGES
-----------------------
   0 S :    0.117367
   1 C :   -0.094497
   2 C :   -0.126355
   3 C :   -0.030427
   4 C :   -0.114908
   5 H :    0.025233
   6 C :    0.091780
   7 H :    0.019958
   8 H :    0.042871
   9 C :   -0.094910
  10 H :    0.029367
  11 H :    0.021055
  12 C :   -0.025146
  13 H :    0.042986
  14 H :    0.014603
  15 H :    0.026827
  16 S :    0.098237
  17 C :   -0.077689
  18 C :   -0.072161
  19 C :   -0.066453
  20 C :   -0.116703
  21 H :    0.012227
  22 C :    0.070529
  23 H :    0.031434
  24 H :    0.044447
  25 C :   -0.136121
  26 H :    0.036791
  27 H :    0.038623
  28 C :    0.002001
  29 H :    0.032688
  30 H :    0.012564
  31 H :    0.044766
  32 H :    0.030667
  33 H :    0.068350
Sum of atomic charges:    0.0000000

LOEWDIN ATOMIC CHARGES
----------------------
   0 S :    0.453270
   1 C :   -0.220579
   2 C :   -0.055971
   3 C :   -0.080668
   4 C :   -0.208800
   5 H :    0.031888
   6 C :   -0.034631
   7 H :    0.029999
   8 H :    0.035790
   9 C :   -0.040976
  10 H :    0.033591
  11 H :    0.014137
  12 C :   -0.064368
  13 H :    0.025428
  14 H :    0.025145
  15 H :    0.029449
  16 S :    0.418465
  17 C :   -0.205558
  18 C :   -0.076547
  19 C :   -0.051958
  20 C :   -0.207605
  21 H :    0.021587
  22 C :   -0.035361
  23 H :    0.030342
  24 H :    0.040275
  25 C :   -0.041439
  26 H :    0.029130
  27 H :    0.024256
  28 C :   -0.054272
  29 H :    0.027690
  30 H :    0.011254
  31 H :    0.032107
  32 H :    0.023663
  33 H :    0.041264

  Mayer bond orders larger than 0.100000
B(  0-S ,  1-C ) :   1.1396 B(  0-S ,  4-C ) :   1.1894 B(  1-C ,  2-C ) :   1.6145
B(  1-C , 32-H ) :   0.9724 B(  2-C ,  3-C ) :   1.2461 B(  2-C ,  6-C ) :   1.0093
B(  3-C ,  4-C ) :   1.5758 B(  3-C ,  5-H ) :   0.9867 B(  4-C , 20-C ) :   1.0015
B(  6-C ,  7-H ) :   0.9464 B(  6-C ,  8-H ) :   0.9352 B(  6-C ,  9-C ) :   1.0608
B(  9-C , 10-H ) :   0.9524 B(  9-C , 11-H ) :   0.9607 B(  9-C , 12-C ) :   1.0770
B( 12-C , 13-H ) :   0.9798 B( 12-C , 14-H ) :   0.9686 B( 12-C , 15-H ) :   0.9717
B( 16-S , 17-C ) :   1.1569 B( 16-S , 20-C ) :   1.1578 B( 17-C , 18-C ) :   1.5963
B( 17-C , 33-H ) :   0.9677 B( 18-C , 19-C ) :   1.2647 B( 18-C , 21-H ) :   0.9825
B( 19-C , 20-C ) :   1.5490 B( 19-C , 22-C ) :   1.0255 B( 22-C , 23-H ) :   0.9407
B( 22-C , 24-H ) :   0.9309 B( 22-C , 25-C ) :   1.0693 B( 25-C , 26-H ) :   0.9558
B( 25-C , 27-H ) :   0.9567 B( 25-C , 28-C ) :   1.0690 B( 28-C , 29-H ) :   0.9739
B( 28-C , 30-H ) :   0.9726 B( 28-C , 31-H ) :   0.9745

Dispersion correction           -0.014012393
FINAL SINGLE POINT ENERGY     -1339.866039558237

DIPOLE MOMENT
-------------
                                X             Y             Z
Electronic contribution:     20.66297      -0.00868      22.23540
Nuclear contribution   :    -21.39251      -0.08088     -22.55429
                        -----------------------------------------
Total Dipole Moment    :     -0.72954      -0.08956      -0.31889
                        -----------------------------------------
Magnitude (a.u.)       :      0.80121
Magnitude (Debye)      :      2.03651

Rotational constants in cm-1:     0.017966     0.009128     0.006803
Rotational constants in MHz :   538.613664   273.640402   203.963277

                             ****ORCA TERMINATED NORMALLY****
TOTAL RUN TIME: 0 days 0 hours 0 minutes 21 seconds 834 msec
