                         Program Version 4.2.1 -  RELEASE  -
|  1> ! wB97X-D3 SP def2-SVP
|  2> %pal
|  3> nprocs 24
|  4> end
|  5>
|  6> * xyz 0 1
|  7> S 	 -109.26 	 1.78927 	 -107.174
|  8> C 	 -109.765 	 3.46243 	 -106.922
|  9> C 	 -108.858 	 4.33295 	 -107.34
| 10> C 	 -107.62 	 3.76544 	 -107.663
| 11> C 	 -107.674 	 2.36746 	 -107.649
| 12> H 	 -106.767 	 4.30409 	 -107.987
| 13> C 	 -108.975 	 5.81995 	 -107.299
| 14> H 	 -109.939 	 6.13786 	 -107.8
| 15> H 	 -108.267 	 6.24644 	 -108.04
| 16> C 	 -108.738 	 6.50882 	 -105.943
| 17> H 	 -109.491 	 6.34683 	 -105.203
| 18> H 	 -107.854 	 6.07027 	 -105.553
| 19> C 	 -108.697 	 8.06118 	 -106.121
| 20> H 	 -108.326 	 8.37464 	 -107.06
| 21> H 	 -109.643 	 8.51244 	 -105.998
| 22> H 	 -108.112 	 8.56878 	 -105.34
| 23> S 	 -106.495 	 0.527073 	 -109.487
| 24> C 	 -104.816 	 0.105718 	 -109.193
| 25> C 	 -104.345 	 0.676716 	 -108.015
| 26> C 	 -105.338 	 1.4392 	 -107.335
| 27> C 	 -106.549 	 1.51834 	 -108.014
| 28> H 	 -103.295 	 0.454613 	 -107.809
| 29> C 	 -105.018 	 2.04629 	 -106.016
| 30> H 	 -105.856 	 2.65177 	 -105.627
| 31> H 	 -104.211 	 2.69337 	 -106.3
| 32> C 	 -104.617 	 1.05809 	 -104.892
| 33> H 	 -104.425 	 1.63453 	 -103.999
| 34> H 	 -103.855 	 0.351894 	 -105.074
| 35> C 	 -105.79 	 0.177144 	 -104.556
| 36> H 	 -106.069 	 -0.493154 	 -105.382
| 37> H 	 -106.668 	 0.797994 	 -104.291
| 38> H 	 -105.657 	 -0.417531 	 -103.675
| 39> H 	 -110.796 	 3.7224 	 -106.624
| 40> H 	 -104.23 	 -0.602365 	 -109.731
| 41> *
| 42>
| 43>                          ****END OF INPUT****

CARTESIAN COORDINATES (ANGSTROEM)
---------------------------------
  S    -109.260000    1.789270  -107.174000
  C    -109.765000    3.462430  -106.922000
  C    -108.858000    4.332950  -107.340000
  C    -107.620000    3.765440  -107.663000
  C    -107.674000    2.367460  -107.649000
  H    -106.767000    4.304090  -107.987000
  C    -108.975000    5.819950  -107.299000
  H    -109.939000    6.137860  -107.800000
  H    -108.267000    6.246440  -108.040000
  C    -108.738000    6.508820  -105.943000
  H    -109.491000    6.346830  -105.203000
  H    -107.854000    6.070270  -105.553000
  C    -108.697000    8.061180  -106.121000
  H    -108.326000    8.374640  -107.060000
  H    -109.643000    8.512440  -105.998000
  H    -108.112000    8.568780  -105.340000
  S    -106.495000    0.527073  -109.487000
  C    -104.816000    0.105718  -109.193000
  C    -104.345000    0.676716  -108.015000
  C    -105.338000    1.439200  -107.335000
  C    -106.549000    1.518340  -108.014000
  H    -103.295000    0.454613  -107.809000
  C    -105.018000    2.046290  -106.016000
  H    -105.856000    2.651770  -105.627000
  H    -104.211000    2.693370  -106.300000
  C    -104.617000    1.058090  -104.892000
  H    -104.425000    1.634530  -103.999000
  H    -103.855000    0.351894  -105.074000
  C    -105.790000    0.177144  -104.556000
  H    -106.069000   -0.493154  -105.382000
  H    -106.668000    0.797994  -104.291000
  H    -105.657000   -0.417531  -103.675000
  H    -110.796000    3.722400  -106.624000
  H    -104.230000   -0.602365  -109.731000

 Total Charge           Charge          ....    0
 Multiplicity           Mult            ....    1
 Number of Electrons    NEL             ....  134
 Basis Dimension        Dim             ....  322

ORBITAL ENERGIES
----------------

  NO   OCC          E(Eh)            E(eV)
   0   2.0000     -88.967470     -2420.9279
   1   2.0000     -88.964692     -2420.8523
   2   2.0000     -10.329490      -281.0797
   3   2.0000     -10.324128      -280.9338
   4   2.0000     -10.316623      -280.7296
   5   2.0000     -10.310746      -280.5697
   6   2.0000     -10.300711      -280.2966
   7   2.0000     -10.294632      -280.1312
   8   2.0000     -10.293366      -280.0967
   9   2.0000     -10.289949      -280.0038
  10   2.0000     -10.289451      -279.9902
  11   2.0000     -10.286334      -279.9054
  12   2.0000     -10.285966      -279.8954
  13   2.0000     -10.278428      -279.6903
  14   2.0000     -10.274000      -279.5698
  15   2.0000     -10.265753      -279.3454
  16   2.0000      -8.081935      -219.9206
  17   2.0000      -8.078825      -219.8360
  18   2.0000      -6.040367      -164.3667
  19   2.0000      -6.037399      -164.2860
  20   2.0000      -6.036554      -164.2630
  21   2.0000      -6.033382      -164.1767
  22   2.0000      -6.032724      -164.1588
  23   2.0000      -6.029588      -164.0734
  24   2.0000      -1.006608       -27.3912
  25   2.0000      -0.984874       -26.7998
  26   2.0000      -0.911482       -24.8027
  27   2.0000      -0.910887       -24.7865
  28   2.0000      -0.869514       -23.6607
  29   2.0000      -0.853073       -23.2133
  30   2.0000      -0.847438       -23.0599
  31   2.0000      -0.812586       -22.1116
  32   2.0000      -0.781950       -21.2780
  33   2.0000      -0.770317       -20.9614
  34   2.0000      -0.712322       -19.3833
  35   2.0000      -0.707332       -19.2475
  36   2.0000      -0.694509       -18.8986
  37   2.0000      -0.654331       -17.8052
  38   2.0000      -0.641756       -17.4631
  39   2.0000      -0.619868       -16.8675
  40   2.0000      -0.598488       -16.2857
  41   2.0000      -0.572530       -15.5793
  42   2.0000      -0.558397       -15.1948
  43   2.0000      -0.555676       -15.1207
  44   2.0000      -0.542236       -14.7550
  45   2.0000      -0.526452       -14.3255
  46   2.0000      -0.520659       -14.1678
  47   2.0000      -0.508478       -13.8364
  48   2.0000      -0.504570       -13.7300
  49   2.0000      -0.495597       -13.4859
  50   2.0000      -0.485722       -13.2172
  51   2.0000      -0.476606       -12.9691
  52   2.0000      -0.466919       -12.7055
  53   2.0000      -0.462943       -12.5973
  54   2.0000      -0.455955       -12.4072
  55   2.0000      -0.451750       -12.2927
  56   2.0000      -0.441126       -12.0037
  57   2.0000      -0.437532       -11.9059
  58   2.0000      -0.434236       -11.8162
  59   2.0000      -0.428033       -11.6474
  60   2.0000      -0.423612       -11.5271
  61   2.0000      -0.414867       -11.2891
  62   2.0000      -0.414350       -11.2750
  63   2.0000      -0.336909        -9.1677
  64   2.0000      -0.334977        -9.1152
  65   2.0000      -0.326652        -8.8886
  66   2.0000      -0.299171        -8.1409
  67   0.0000       0.035760         0.9731
  68   0.0000       0.062790         1.7086
  69   0.0000       0.114226         3.1083
  70   0.0000       0.128806         3.5050
  71   0.0000       0.129169         3.5149

MULLIKEN ATOMIC CHARGES
-----------------------
   0 S :    0.116180
   1 C :   -0.142346
   2 C :   -0.042222
   3 C :    0.044549
   4 C :   -0.181061
   5 H :    0.003547
   6 C :    0.013478
   7 H :    0.028981
   8 H :    0.018821
   9 C :   -0.012527
  10 H :    0.023860
  11 H :    0.017691
  12 C :   -0.030766
  13 H :    0.017042
  14 H :    0.021666
  15 H :    0.029561
  16 S :    0.108316
  17 C :   -0.091481
  18 C :   -0.053072
  19 C :   -0.038488
  20 C :   -0.156438
  21 H :    0.026995
  22 C :    0.082544
  23 H :    0.033300
  24 H :    0.028899
  25 C :   -0.029972
  26 H :    0.027248
  27 H :    0.023475
  28 C :   -0.076300
  29 H :    0.045709
  30 H :    0.020092
  31 H :    0.023049
  32 H :    0.052198
  33 H :    0.047474
Sum of atomic charges:   -0.0000000

LOEWDIN ATOMIC CHARGES
----------------------
   0 S :    0.400029
   1 C :   -0.185937
   2 C :   -0.078179
   3 C :   -0.047450
   4 C :   -0.189190
   5 H :    0.028618
   6 C :   -0.037759
   7 H :    0.032997
   8 H :    0.030718
   9 C :   -0.028250
  10 H :    0.022860
  11 H :    0.019441
  12 C :   -0.060105
  13 H :    0.016462
  14 H :    0.021415
  15 H :    0.030216
  16 S :    0.389471
  17 C :   -0.176701
  18 C :   -0.075464
  19 C :   -0.053107
  20 C :   -0.204745
  21 H :    0.036374
  22 C :   -0.029778
  23 H :    0.033915
  24 H :    0.031428
  25 C :   -0.034267
  26 H :    0.026555
  27 H :    0.018100
  28 C :   -0.066774
  29 H :    0.027554
  30 H :    0.023590
  31 H :    0.019689
  32 H :    0.033202
  33 H :    0.025073

  Mayer bond orders larger than 0.100000
B(  0-S ,  1-C ) :   1.1247 B(  0-S ,  4-C ) :   1.1585 B(  1-C ,  2-C ) :   1.6349
B(  1-C , 32-H ) :   0.9654 B(  2-C ,  3-C ) :   1.2385 B(  2-C ,  6-C ) :   1.0334
B(  3-C ,  4-C ) :   1.5571 B(  3-C ,  5-H ) :   1.0041 B(  4-C , 20-C ) :   1.0467
B(  6-C ,  7-H ) :   0.9355 B(  6-C ,  8-H ) :   0.9385 B(  6-C ,  9-C ) :   1.0586
B(  9-C , 10-H ) :   0.9579 B(  9-C , 11-H ) :   0.9582 B(  9-C , 12-C ) :   1.0687
B( 12-C , 13-H ) :   0.9787 B( 12-C , 14-H ) :   0.9769 B( 12-C , 15-H ) :   0.9746
B( 16-S , 17-C ) :   1.1565 B( 16-S , 20-C ) :   1.1208 B( 17-C , 18-C ) :   1.6258
B( 17-C , 33-H ) :   0.9676 B( 18-C , 19-C ) :   1.2163 B( 18-C , 21-H ) :   0.9916
B( 19-C , 20-C ) :   1.5939 B( 19-C , 22-C ) :   1.0397 B( 22-C , 23-H ) :   0.9320
B( 22-C , 24-H ) :   0.9274 B( 22-C , 25-C ) :   1.0771 B( 25-C , 26-H ) :   0.9536
B( 25-C , 27-H ) :   0.9580 B( 25-C , 28-C ) :   1.0765 B( 28-C , 29-H ) :   0.9744
B( 28-C , 30-H ) :   0.9727 B( 28-C , 31-H ) :   0.9726

Dispersion correction           -0.014824331
FINAL SINGLE POINT ENERGY     -1339.880249887122

DIPOLE MOMENT
-------------
                                X             Y             Z
Electronic contribution:     -4.77428     -17.98610     -17.26505
Nuclear contribution   :      5.07350      18.46002      17.59667
                        -----------------------------------------
Total Dipole Moment    :      0.29922       0.47392       0.33162
                        -----------------------------------------
Magnitude (a.u.)       :      0.65124
Magnitude (Debye)      :      1.65531

Rotational constants in cm-1:     0.020140     0.007898     0.007113
Rotational constants in MHz :   603.792059   236.767303   213.232074

                             ****ORCA TERMINATED NORMALLY****
TOTAL RUN TIME: 0 days 0 hours 0 minutes 22 seconds 24 msec
