                         Program Version 4.2.1 -  RELEASE  -
|  1> ! wB97X-D3 SP def2-SVP
|  2> %pal
|  3> nprocs 24
|  4> end
|  5>
|  6> * xyz 0 1
|  7> S 	 -55.802 	 15.0224 	 -93.225
|  8> C 	 -54.0731 	 14.6992 	 -92.7946
|  9> C 	 -53.5004 	 13.9007 	 -93.7663
| 10> C 	 -54.4921 	 13.1511 	 -94.4869
| 11> C 	 -55.768 	 13.5167 	 -94.1684
| 12> H 	 -54.302 	 12.3563 	 -95.1826
| 13> C 	 -52.0222 	 13.5367 	 -93.7796
| 14> H 	 -51.7338 	 12.5699 	 -94.2515
| 15> H 	 -51.8078 	 13.474 	 -92.7081
| 16> C 	 -50.9817 	 14.607 	 -94.1502
| 17> H 	 -51.1514 	 15.4377 	 -93.5559
| 18> H 	 -49.9687 	 14.2825 	 -93.9048
| 19> C 	 -51.1757 	 14.9098 	 -95.6345
| 20> H 	 -52.173 	 15.319 	 -95.9549
| 21> H 	 -50.556 	 15.7248 	 -95.9502
| 22> H 	 -50.9198 	 13.9991 	 -96.2342
| 23> S 	 -57.8342 	 14.4243 	 -95.7224
| 24> C 	 -58.7264 	 13.3169 	 -96.676
| 25> C 	 -58.1904 	 12.0808 	 -96.6801
| 26> C 	 -57.1999 	 11.9336 	 -95.6381
| 27> C 	 -56.897 	 13.1442 	 -95.0294
| 28> H 	 -58.5772 	 11.2906 	 -97.3311
| 29> C 	 -56.4637 	 10.5985 	 -95.4945
| 30> H 	 -56.0938 	 10.6042 	 -94.4913
| 31> H 	 -55.5792 	 10.7998 	 -96.1772
| 32> C 	 -57.2543 	 9.30563 	 -95.8667
| 33> H 	 -57.2159 	 9.18618 	 -96.9955
| 34> H 	 -58.3381 	 9.4547 	 -95.5465
| 35> C 	 -56.6994 	 8.05653 	 -95.2573
| 36> H 	 -57.2178 	 7.17553 	 -95.654
| 37> H 	 -56.7368 	 7.98832 	 -94.2111
| 38> H 	 -55.6777 	 8.06019 	 -95.5649
| 39> H 	 -53.4798 	 15.3358 	 -92.1326
| 40> H 	 -59.4497 	 13.4618 	 -97.382
| 41> *
| 42>
| 43>                          ****END OF INPUT****

CARTESIAN COORDINATES (ANGSTROEM)
---------------------------------
  S    -55.802000   15.022400  -93.225000
  C    -54.073100   14.699200  -92.794600
  C    -53.500400   13.900700  -93.766300
  C    -54.492100   13.151100  -94.486900
  C    -55.768000   13.516700  -94.168400
  H    -54.302000   12.356300  -95.182600
  C    -52.022200   13.536700  -93.779600
  H    -51.733800   12.569900  -94.251500
  H    -51.807800   13.474000  -92.708100
  C    -50.981700   14.607000  -94.150200
  H    -51.151400   15.437700  -93.555900
  H    -49.968700   14.282500  -93.904800
  C    -51.175700   14.909800  -95.634500
  H    -52.173000   15.319000  -95.954900
  H    -50.556000   15.724800  -95.950200
  H    -50.919800   13.999100  -96.234200
  S    -57.834200   14.424300  -95.722400
  C    -58.726400   13.316900  -96.676000
  C    -58.190400   12.080800  -96.680100
  C    -57.199900   11.933600  -95.638100
  C    -56.897000   13.144200  -95.029400
  H    -58.577200   11.290600  -97.331100
  C    -56.463700   10.598500  -95.494500
  H    -56.093800   10.604200  -94.491300
  H    -55.579200   10.799800  -96.177200
  C    -57.254300    9.305630  -95.866700
  H    -57.215900    9.186180  -96.995500
  H    -58.338100    9.454700  -95.546500
  C    -56.699400    8.056530  -95.257300
  H    -57.217800    7.175530  -95.654000
  H    -56.736800    7.988320  -94.211100
  H    -55.677700    8.060190  -95.564900
  H    -53.479800   15.335800  -92.132600
  H    -59.449700   13.461800  -97.382000

 Total Charge           Charge          ....    0
 Multiplicity           Mult            ....    1
 Number of Electrons    NEL             ....  134
 Basis Dimension        Dim             ....  322

ORBITAL ENERGIES
----------------

  NO   OCC          E(Eh)            E(eV)
   0   2.0000     -88.966789     -2420.9094
   1   2.0000     -88.962570     -2420.7946
   2   2.0000     -10.330212      -281.0994
   3   2.0000     -10.321320      -280.8574
   4   2.0000     -10.320577      -280.8372
   5   2.0000     -10.308447      -280.5071
   6   2.0000     -10.299754      -280.2706
   7   2.0000     -10.299009      -280.2503
   8   2.0000     -10.297790      -280.2171
   9   2.0000     -10.295908      -280.1659
  10   2.0000     -10.294646      -280.1316
  11   2.0000     -10.294260      -280.1211
  12   2.0000     -10.285651      -279.8868
  13   2.0000     -10.284019      -279.8424
  14   2.0000     -10.278142      -279.6825
  15   2.0000     -10.271907      -279.5128
  16   2.0000      -8.080391      -219.8786
  17   2.0000      -8.078311      -219.8220
  18   2.0000      -6.039039      -164.3306
  19   2.0000      -6.036820      -164.2702
  20   2.0000      -6.035567      -164.2361
  21   2.0000      -6.032833      -164.1617
  22   2.0000      -6.030535      -164.0992
  23   2.0000      -6.028856      -164.0535
  24   2.0000      -1.009732       -27.4762
  25   2.0000      -0.984608       -26.7926
  26   2.0000      -0.914948       -24.8970
  27   2.0000      -0.908941       -24.7335
  28   2.0000      -0.871487       -23.7144
  29   2.0000      -0.856247       -23.2997
  30   2.0000      -0.842618       -22.9288
  31   2.0000      -0.817813       -22.2538
  32   2.0000      -0.781018       -21.2526
  33   2.0000      -0.770855       -20.9760
  34   2.0000      -0.707222       -19.2445
  35   2.0000      -0.703012       -19.1299
  36   2.0000      -0.698257       -19.0005
  37   2.0000      -0.650621       -17.7043
  38   2.0000      -0.636143       -17.3103
  39   2.0000      -0.617106       -16.7923
  40   2.0000      -0.591614       -16.0986
  41   2.0000      -0.580211       -15.7884
  42   2.0000      -0.569357       -15.4930
  43   2.0000      -0.549790       -14.9606
  44   2.0000      -0.541671       -14.7396
  45   2.0000      -0.529720       -14.4144
  46   2.0000      -0.520796       -14.1716
  47   2.0000      -0.513129       -13.9629
  48   2.0000      -0.501998       -13.6601
  49   2.0000      -0.495326       -13.4785
  50   2.0000      -0.489747       -13.3267
  51   2.0000      -0.478543       -13.0218
  52   2.0000      -0.475764       -12.9462
  53   2.0000      -0.463849       -12.6220
  54   2.0000      -0.458003       -12.4629
  55   2.0000      -0.451781       -12.2936
  56   2.0000      -0.442222       -12.0335
  57   2.0000      -0.436570       -11.8797
  58   2.0000      -0.431024       -11.7288
  59   2.0000      -0.428361       -11.6563
  60   2.0000      -0.423047       -11.5117
  61   2.0000      -0.414577       -11.2812
  62   2.0000      -0.410385       -11.1672
  63   2.0000      -0.353473        -9.6185
  64   2.0000      -0.329004        -8.9526
  65   2.0000      -0.323992        -8.8163
  66   2.0000      -0.285774        -7.7763
  67   0.0000       0.021579         0.5872
  68   0.0000       0.071187         1.9371
  69   0.0000       0.093598         2.5469
  70   0.0000       0.119821         3.2605
  71   0.0000       0.130666         3.5556

MULLIKEN ATOMIC CHARGES
-----------------------
   0 S :    0.079646
   1 C :   -0.109647
   2 C :   -0.047564
   3 C :    0.012092
   4 C :   -0.107611
   5 H :    0.003855
   6 C :    0.002029
   7 H :    0.036656
   8 H :    0.032789
   9 C :   -0.021494
  10 H :    0.002617
  11 H :    0.030864
  12 C :   -0.076274
  13 H :    0.047533
  14 H :    0.021792
  15 H :    0.034597
  16 S :    0.104007
  17 C :   -0.015069
  18 C :   -0.071227
  19 C :   -0.105476
  20 C :   -0.124771
  21 H :    0.028857
  22 C :    0.036632
  23 H :    0.025884
  24 H :    0.060593
  25 C :   -0.122900
  26 H :    0.043221
  27 H :    0.049087
  28 C :    0.006173
  29 H :    0.033730
  30 H :    0.026550
  31 H :    0.019793
  32 H :    0.053350
  33 H :    0.009685
Sum of atomic charges:   -0.0000000

LOEWDIN ATOMIC CHARGES
----------------------
   0 S :    0.359927
   1 C :   -0.174074
   2 C :   -0.052527
   3 C :   -0.051425
   4 C :   -0.176256
   5 H :    0.028974
   6 C :   -0.038131
   7 H :    0.031279
   8 H :    0.038135
   9 C :   -0.032508
  10 H :    0.010963
  11 H :    0.028073
  12 C :   -0.074856
  13 H :    0.034235
  14 H :    0.018232
  15 H :    0.028524
  16 S :    0.419383
  17 C :   -0.186803
  18 C :   -0.072024
  19 C :   -0.063455
  20 C :   -0.206241
  21 H :    0.034194
  22 C :   -0.039256
  23 H :    0.025492
  24 H :    0.040246
  25 C :   -0.048980
  26 H :    0.031239
  27 H :    0.030799
  28 C :   -0.058142
  29 H :    0.030902
  30 H :    0.018644
  31 H :    0.023830
  32 H :    0.027599
  33 H :    0.014011

  Mayer bond orders larger than 0.100000
B(  0-S ,  1-C ) :   1.1104 B(  0-S ,  4-C ) :   1.1280 B(  1-C ,  2-C ) :   1.6338
B(  1-C , 32-H ) :   0.9655 B(  2-C ,  3-C ) :   1.2070 B(  2-C ,  6-C ) :   1.0094
B(  3-C ,  4-C ) :   1.5768 B(  3-C ,  5-H ) :   0.9982 B(  4-C , 20-C ) :   1.0444
B(  6-C ,  7-H ) :   0.9575 B(  6-C ,  8-H ) :   0.9415 B(  6-C ,  9-C ) :   1.0744
B(  9-C , 10-H ) :   0.9519 B(  9-C , 11-H ) :   0.9541 B(  9-C , 12-C ) :   1.0780
B( 12-C , 13-H ) :   0.9740 B( 12-C , 14-H ) :   0.9742 B( 12-C , 15-H ) :   0.9755
B( 16-S , 17-C ) :   1.1433 B( 16-S , 20-C ) :   1.1345 B( 17-C , 18-C ) :   1.6426
B( 17-C , 33-H ) :   0.9663 B( 18-C , 19-C ) :   1.2338 B( 18-C , 21-H ) :   0.9819
B( 19-C , 20-C ) :   1.6247 B( 19-C , 22-C ) :   1.0372 B( 22-C , 23-H ) :   0.9376
B( 22-C , 24-H ) :   0.9231 B( 22-C , 25-C ) :   1.0518 B( 25-C , 26-H ) :   0.9450
B( 25-C , 27-H ) :   0.9610 B( 25-C , 28-C ) :   1.0921 B( 28-C , 29-H ) :   0.9704
B( 28-C , 30-H ) :   0.9753 B( 28-C , 31-H ) :   0.9690

Dispersion correction           -0.013707888
FINAL SINGLE POINT ENERGY     -1339.844890793929

DIPOLE MOMENT
-------------
                                X             Y             Z
Electronic contribution:    -17.93429      18.03646       5.25858
Nuclear contribution   :     18.57261     -18.50897      -5.57457
                        -----------------------------------------
Total Dipole Moment    :      0.63832      -0.47251      -0.31599
                        -----------------------------------------
Magnitude (a.u.)       :      0.85474
Magnitude (Debye)      :      2.17257

Rotational constants in cm-1:     0.017772     0.008267     0.006586
Rotational constants in MHz :   532.800372   247.844455   197.452824

                             ****ORCA TERMINATED NORMALLY****
TOTAL RUN TIME: 0 days 0 hours 0 minutes 21 seconds 400 msec
