                         Program Version 4.2.1 -  RELEASE  -
|  1> ! wB97X-D3 SP def2-SVP
|  2> %pal
|  3> nprocs 24
|  4> end
|  5>
|  6> * xyz 0 1
|  7> S 	 -132.351 	 65.9991 	 -61.855
|  8> C 	 -132.189 	 64.3451 	 -61.3586
|  9> C 	 -133.129 	 64.0015 	 -60.4024
| 10> C 	 -134.065 	 65.0052 	 -60.1363
| 11> C 	 -133.809 	 66.1658 	 -60.7763
| 12> H 	 -134.806 	 64.9869 	 -59.4075
| 13> C 	 -133.208 	 62.6318 	 -59.7159
| 14> H 	 -132.92 	 61.8602 	 -60.4549
| 15> H 	 -134.305 	 62.4042 	 -59.4963
| 16> C 	 -132.213 	 62.5211 	 -58.6052
| 17> H 	 -132.171 	 63.5663 	 -58.2316
| 18> H 	 -132.603 	 61.895 	 -57.7754
| 19> C 	 -130.816 	 62.0876 	 -59.1244
| 20> H 	 -130.723 	 61.0352 	 -59.2101
| 21> H 	 -130.604 	 62.5318 	 -60.0414
| 22> H 	 -130.019 	 62.404 	 -58.4261
| 23> S 	 -133.702 	 68.8957 	 -60.2481
| 24> C 	 -135.165 	 69.8458 	 -60.0322
| 25> C 	 -136.236 	 69.1641 	 -60.5254
| 26> C 	 -135.95 	 67.7673 	 -60.83
| 27> C 	 -134.565 	 67.4776 	 -60.7564
| 28> H 	 -137.19 	 69.6827 	 -60.5163
| 29> C 	 -136.937 	 66.7599 	 -61.3478
| 30> H 	 -137.486 	 66.2371 	 -60.5796
| 31> H 	 -136.298 	 66.0911 	 -61.9348
| 32> C 	 -138.083 	 67.3981 	 -62.1745
| 33> H 	 -137.679 	 68.094 	 -62.9455
| 34> H 	 -138.653 	 68.0474 	 -61.5116
| 35> C 	 -139.082 	 66.5253 	 -62.8961
| 36> H 	 -139.757 	 66.1045 	 -62.1041
| 37> H 	 -138.551 	 65.644 	 -63.4053
| 38> H 	 -139.589 	 67.0468 	 -63.6602
| 39> H 	 -131.492 	 63.6035 	 -61.8549
| 40> H 	 -135.214 	 70.7879 	 -59.535
| 41> *
| 42>
| 43>                          ****END OF INPUT****

CARTESIAN COORDINATES (ANGSTROEM)
---------------------------------
  S    -132.351000   65.999100  -61.855000
  C    -132.189000   64.345100  -61.358600
  C    -133.129000   64.001500  -60.402400
  C    -134.065000   65.005200  -60.136300
  C    -133.809000   66.165800  -60.776300
  H    -134.806000   64.986900  -59.407500
  C    -133.208000   62.631800  -59.715900
  H    -132.920000   61.860200  -60.454900
  H    -134.305000   62.404200  -59.496300
  C    -132.213000   62.521100  -58.605200
  H    -132.171000   63.566300  -58.231600
  H    -132.603000   61.895000  -57.775400
  C    -130.816000   62.087600  -59.124400
  H    -130.723000   61.035200  -59.210100
  H    -130.604000   62.531800  -60.041400
  H    -130.019000   62.404000  -58.426100
  S    -133.702000   68.895700  -60.248100
  C    -135.165000   69.845800  -60.032200
  C    -136.236000   69.164100  -60.525400
  C    -135.950000   67.767300  -60.830000
  C    -134.565000   67.477600  -60.756400
  H    -137.190000   69.682700  -60.516300
  C    -136.937000   66.759900  -61.347800
  H    -137.486000   66.237100  -60.579600
  H    -136.298000   66.091100  -61.934800
  C    -138.083000   67.398100  -62.174500
  H    -137.679000   68.094000  -62.945500
  H    -138.653000   68.047400  -61.511600
  C    -139.082000   66.525300  -62.896100
  H    -139.757000   66.104500  -62.104100
  H    -138.551000   65.644000  -63.405300
  H    -139.589000   67.046800  -63.660200
  H    -131.492000   63.603500  -61.854900
  H    -135.214000   70.787900  -59.535000

 Total Charge           Charge          ....    0
 Multiplicity           Mult            ....    1
 Number of Electrons    NEL             ....  134
 Basis Dimension        Dim             ....  322

ORBITAL ENERGIES
----------------

  NO   OCC          E(Eh)            E(eV)
   0   2.0000     -88.966702     -2420.9070
   1   2.0000     -88.962230     -2420.7853
   2   2.0000     -10.337519      -281.2982
   3   2.0000     -10.331450      -281.1331
   4   2.0000     -10.319112      -280.7973
   5   2.0000     -10.315995      -280.7125
   6   2.0000     -10.310070      -280.5513
   7   2.0000     -10.298723      -280.2425
   8   2.0000     -10.296391      -280.1790
   9   2.0000     -10.293945      -280.1125
  10   2.0000     -10.290962      -280.0313
  11   2.0000     -10.289138      -279.9817
  12   2.0000     -10.287257      -279.9305
  13   2.0000     -10.284907      -279.8666
  14   2.0000     -10.281905      -279.7848
  15   2.0000     -10.273073      -279.5445
  16   2.0000      -8.080795      -219.8896
  17   2.0000      -8.077324      -219.7952
  18   2.0000      -6.039267      -164.3368
  19   2.0000      -6.035847      -164.2438
  20   2.0000      -6.035480      -164.2338
  21   2.0000      -6.031700      -164.1309
  22   2.0000      -6.031542      -164.1266
  23   2.0000      -6.028113      -164.0333
  24   2.0000      -1.003987       -27.3199
  25   2.0000      -0.985439       -26.8152
  26   2.0000      -0.913288       -24.8518
  27   2.0000      -0.908496       -24.7214
  28   2.0000      -0.866915       -23.5899
  29   2.0000      -0.852657       -23.2020
  30   2.0000      -0.846909       -23.0456
  31   2.0000      -0.818577       -22.2746
  32   2.0000      -0.781349       -21.2616
  33   2.0000      -0.769583       -20.9414
  34   2.0000      -0.701676       -19.0936
  35   2.0000      -0.696801       -18.9609
  36   2.0000      -0.691304       -18.8113
  37   2.0000      -0.651050       -17.7160
  38   2.0000      -0.643112       -17.5000
  39   2.0000      -0.625964       -17.0333
  40   2.0000      -0.596966       -16.2443
  41   2.0000      -0.577000       -15.7010
  42   2.0000      -0.570630       -15.5276
  43   2.0000      -0.548774       -14.9329
  44   2.0000      -0.533946       -14.5294
  45   2.0000      -0.526578       -14.3289
  46   2.0000      -0.522080       -14.2065
  47   2.0000      -0.510585       -13.8937
  48   2.0000      -0.502597       -13.6763
  49   2.0000      -0.495435       -13.4815
  50   2.0000      -0.489035       -13.3073
  51   2.0000      -0.483840       -13.1660
  52   2.0000      -0.476614       -12.9693
  53   2.0000      -0.465163       -12.6577
  54   2.0000      -0.460761       -12.5380
  55   2.0000      -0.451703       -12.2915
  56   2.0000      -0.443559       -12.0699
  57   2.0000      -0.435288       -11.8448
  58   2.0000      -0.422277       -11.4907
  59   2.0000      -0.418571       -11.3899
  60   2.0000      -0.417301       -11.3553
  61   2.0000      -0.413172       -11.2430
  62   2.0000      -0.411752       -11.2044
  63   2.0000      -0.353133        -9.6092
  64   2.0000      -0.335866        -9.1394
  65   2.0000      -0.323780        -8.8105
  66   2.0000      -0.293242        -7.9795
  67   0.0000       0.032959         0.8969
  68   0.0000       0.060407         1.6437
  69   0.0000       0.111847         3.0435
  70   0.0000       0.122878         3.3437
  71   0.0000       0.129365         3.5202

MULLIKEN ATOMIC CHARGES
-----------------------
   0 S :    0.101230
   1 C :   -0.143736
   2 C :   -0.107132
   3 C :    0.064189
   4 C :   -0.147078
   5 H :   -0.009817
   6 C :    0.021269
   7 H :    0.022608
   8 H :    0.039057
   9 C :   -0.062531
  10 H :    0.035971
  11 H :    0.038128
  12 C :   -0.012616
  13 H :    0.027922
  14 H :    0.001075
  15 H :    0.035087
  16 S :    0.097693
  17 C :   -0.091658
  18 C :   -0.029424
  19 C :   -0.060616
  20 C :   -0.140231
  21 H :    0.025734
  22 C :    0.111375
  23 H :    0.027578
  24 H :    0.041594
  25 C :   -0.153190
  26 H :    0.030731
  27 H :    0.026511
  28 C :   -0.033035
  29 H :    0.035508
  30 H :    0.036074
  31 H :    0.034942
  32 H :    0.082768
  33 H :    0.054020
Sum of atomic charges:   -0.0000000

LOEWDIN ATOMIC CHARGES
----------------------
   0 S :    0.380373
   1 C :   -0.209963
   2 C :   -0.068112
   3 C :   -0.054410
   4 C :   -0.161980
   5 H :    0.026989
   6 C :   -0.040223
   7 H :    0.028357
   8 H :    0.035938
   9 C :   -0.044771
  10 H :    0.029141
  11 H :    0.027755
  12 C :   -0.055294
  13 H :    0.021314
  14 H :    0.011905
  15 H :    0.033211
  16 S :    0.405531
  17 C :   -0.176119
  18 C :   -0.074873
  19 C :   -0.053395
  20 C :   -0.210165
  21 H :    0.034060
  22 C :   -0.031266
  23 H :    0.029800
  24 H :    0.036127
  25 C :   -0.051588
  26 H :    0.024455
  27 H :    0.019348
  28 C :   -0.065746
  29 H :    0.028479
  30 H :    0.032490
  31 H :    0.022240
  32 H :    0.041794
  33 H :    0.028596

  Mayer bond orders larger than 0.100000
B(  0-S ,  1-C ) :   1.1399 B(  0-S ,  4-C ) :   1.1399 B(  1-C ,  2-C ) :   1.6231
B(  1-C , 32-H ) :   0.9480 B(  2-C ,  3-C ) :   1.2370 B(  2-C ,  6-C ) :   1.0222
B(  3-C ,  4-C ) :   1.6033 B(  3-C ,  5-H ) :   1.0108 B(  4-C , 20-C ) :   0.9875
B(  6-C ,  7-H ) :   0.9457 B(  6-C ,  8-H ) :   0.9471 B(  6-C ,  9-C ) :   1.0392
B(  9-C , 10-H ) :   0.9601 B(  9-C , 11-H ) :   0.9569 B(  9-C , 12-C ) :   1.0748
B( 12-C , 13-H ) :   0.9735 B( 12-C , 14-H ) :   0.9725 B( 12-C , 15-H ) :   0.9723
B( 16-S , 17-C ) :   1.1573 B( 16-S , 20-C ) :   1.1480 B( 17-C , 18-C ) :   1.6157
B( 17-C , 33-H ) :   0.9687 B( 18-C , 19-C ) :   1.2210 B( 18-C , 21-H ) :   0.9903
B( 19-C , 20-C ) :   1.5957 B( 19-C , 22-C ) :   1.0432 B( 22-C , 23-H ) :   0.9210
B( 22-C , 24-H ) :   0.9400 B( 22-C , 25-C ) :   1.0690 B( 25-C , 26-H ) :   0.9599
B( 25-C , 27-H ) :   0.9475 B( 25-C , 28-C ) :   1.0899 B( 28-C , 29-H ) :   0.9737
B( 28-C , 30-H ) :   0.9739 B( 28-C , 31-H ) :   0.9737

Dispersion correction           -0.013820169
FINAL SINGLE POINT ENERGY     -1339.870140433102

DIPOLE MOMENT
-------------
                                X             Y             Z
Electronic contribution:     11.83875      18.03731      -1.71906
Nuclear contribution   :    -12.34580     -18.36855       1.94623
                        -----------------------------------------
Total Dipole Moment    :     -0.50705      -0.33124       0.22716
                        -----------------------------------------
Magnitude (a.u.)       :      0.64686
Magnitude (Debye)      :      1.64418

Rotational constants in cm-1:     0.020415     0.007420     0.006226
Rotational constants in MHz :   612.021197   222.449130   186.665118

                             ****ORCA TERMINATED NORMALLY****
TOTAL RUN TIME: 0 days 0 hours 0 minutes 21 seconds 195 msec
