                         Program Version 4.2.1 -  RELEASE  -
|  1> ! wB97X-D3 SP def2-SVP
|  2> %pal
|  3> nprocs 24
|  4> end
|  5>
|  6> * xyz 0 1
|  7> S 	 -99.133 	 0.363299 	 -103.379
|  8> C 	 -100.139 	 1.23425 	 -102.293
|  9> C 	 -101.064 	 2.02495 	 -102.96
| 10> C 	 -100.737 	 2.1438 	 -104.319
| 11> C 	 -99.6109 	 1.42316 	 -104.673
| 12> H 	 -101.229 	 2.80172 	 -104.992
| 13> C 	 -102.214 	 2.82519 	 -102.366
| 14> H 	 -103.122 	 2.2453 	 -102.188
| 15> H 	 -102.649 	 3.36905 	 -103.183
| 16> C 	 -101.955 	 3.73477 	 -101.141
| 17> H 	 -101.047 	 4.16581 	 -101.27
| 18> H 	 -102.719 	 4.43862 	 -100.961
| 19> C 	 -101.763 	 3.02625 	 -99.7702
| 20> H 	 -102.68 	 2.61304 	 -99.3829
| 21> H 	 -101.084 	 2.15064 	 -99.8289
| 22> H 	 -101.363 	 3.65731 	 -99.0382
| 23> S 	 -99.603 	 -0.234717 	 -106.851
| 24> C 	 -98.8601 	 0.327922 	 -108.321
| 25> C 	 -98.3662 	 1.63336 	 -108.196
| 26> C 	 -98.6052 	 2.12648 	 -106.846
| 27> C 	 -99.2161 	 1.23377 	 -106.037
| 28> H 	 -97.9299 	 2.16603 	 -109.018
| 29> C 	 -98.2051 	 3.57426 	 -106.499
| 30> H 	 -97.1284 	 3.50376 	 -106.75
| 31> H 	 -98.1727 	 3.7947 	 -105.429
| 32> C 	 -98.9862 	 4.67611 	 -107.131
| 33> H 	 -100.04 	 4.51767 	 -106.861
| 34> H 	 -99.0168 	 4.7567 	 -108.271
| 35> C 	 -98.5576 	 6.09987 	 -106.664
| 36> H 	 -97.501 	 5.87433 	 -106.586
| 37> H 	 -98.8244 	 6.40468 	 -105.647
| 38> H 	 -98.8271 	 6.8862 	 -107.402
| 39> H 	 -100.197 	 0.973878 	 -101.252
| 40> H 	 -98.8661 	 -0.361947 	 -109.186
| 41> *
| 42>
| 43>                          ****END OF INPUT****

CARTESIAN COORDINATES (ANGSTROEM)
---------------------------------
  S    -99.133000    0.363299  -103.379000
  C    -100.139000    1.234250  -102.293000
  C    -101.064000    2.024950  -102.960000
  C    -100.737000    2.143800  -104.319000
  C    -99.610900    1.423160  -104.673000
  H    -101.229000    2.801720  -104.992000
  C    -102.214000    2.825190  -102.366000
  H    -103.122000    2.245300  -102.188000
  H    -102.649000    3.369050  -103.183000
  C    -101.955000    3.734770  -101.141000
  H    -101.047000    4.165810  -101.270000
  H    -102.719000    4.438620  -100.961000
  C    -101.763000    3.026250  -99.770200
  H    -102.680000    2.613040  -99.382900
  H    -101.084000    2.150640  -99.828900
  H    -101.363000    3.657310  -99.038200
  S    -99.603000   -0.234717  -106.851000
  C    -98.860100    0.327922  -108.321000
  C    -98.366200    1.633360  -108.196000
  C    -98.605200    2.126480  -106.846000
  C    -99.216100    1.233770  -106.037000
  H    -97.929900    2.166030  -109.018000
  C    -98.205100    3.574260  -106.499000
  H    -97.128400    3.503760  -106.750000
  H    -98.172700    3.794700  -105.429000
  C    -98.986200    4.676110  -107.131000
  H    -100.040000    4.517670  -106.861000
  H    -99.016800    4.756700  -108.271000
  C    -98.557600    6.099870  -106.664000
  H    -97.501000    5.874330  -106.586000
  H    -98.824400    6.404680  -105.647000
  H    -98.827100    6.886200  -107.402000
  H    -100.197000    0.973878  -101.252000
  H    -98.866100   -0.361947  -109.186000

 Total Charge           Charge          ....    0
 Multiplicity           Mult            ....    1
 Number of Electrons    NEL             ....  134
 Basis Dimension        Dim             ....  322

ORBITAL ENERGIES
----------------

  NO   OCC          E(Eh)            E(eV)
   0   2.0000     -88.967935     -2420.9406
   1   2.0000     -88.961358     -2420.7616
   2   2.0000     -10.321337      -280.8578
   3   2.0000     -10.321182      -280.8536
   4   2.0000     -10.314220      -280.6642
   5   2.0000     -10.311498      -280.5901
   6   2.0000     -10.300062      -280.2789
   7   2.0000     -10.299984      -280.2768
   8   2.0000     -10.297624      -280.2126
   9   2.0000     -10.291939      -280.0579
  10   2.0000     -10.291702      -280.0515
  11   2.0000     -10.291411      -280.0435
  12   2.0000     -10.289108      -279.9809
  13   2.0000     -10.280100      -279.7357
  14   2.0000     -10.279328      -279.7147
  15   2.0000     -10.274056      -279.5713
  16   2.0000      -8.083453      -219.9619
  17   2.0000      -8.077200      -219.7918
  18   2.0000      -6.041778      -164.4052
  19   2.0000      -6.037918      -164.3001
  20   2.0000      -6.035671      -164.2390
  21   2.0000      -6.034302      -164.2017
  22   2.0000      -6.031552      -164.1269
  23   2.0000      -6.027947      -164.0288
  24   2.0000      -1.013702       -27.5842
  25   2.0000      -0.988273       -26.8923
  26   2.0000      -0.910870       -24.7860
  27   2.0000      -0.910035       -24.7633
  28   2.0000      -0.870393       -23.6846
  29   2.0000      -0.857337       -23.3293
  30   2.0000      -0.848279       -23.0828
  31   2.0000      -0.809655       -22.0318
  32   2.0000      -0.786703       -21.4073
  33   2.0000      -0.773414       -21.0457
  34   2.0000      -0.709833       -19.3155
  35   2.0000      -0.700150       -19.0520
  36   2.0000      -0.692454       -18.8426
  37   2.0000      -0.665838       -18.1184
  38   2.0000      -0.648157       -17.6372
  39   2.0000      -0.619303       -16.8521
  40   2.0000      -0.601656       -16.3719
  41   2.0000      -0.578317       -15.7368
  42   2.0000      -0.559805       -15.2331
  43   2.0000      -0.544445       -14.8151
  44   2.0000      -0.539146       -14.6709
  45   2.0000      -0.531336       -14.4584
  46   2.0000      -0.522826       -14.2268
  47   2.0000      -0.512412       -13.9434
  48   2.0000      -0.505020       -13.7423
  49   2.0000      -0.494004       -13.4425
  50   2.0000      -0.485446       -13.2097
  51   2.0000      -0.482787       -13.1373
  52   2.0000      -0.474409       -12.9093
  53   2.0000      -0.464600       -12.6424
  54   2.0000      -0.460044       -12.5184
  55   2.0000      -0.455725       -12.4009
  56   2.0000      -0.449111       -12.2209
  57   2.0000      -0.437204       -11.8969
  58   2.0000      -0.429905       -11.6983
  59   2.0000      -0.427761       -11.6400
  60   2.0000      -0.419662       -11.4196
  61   2.0000      -0.417232       -11.3535
  62   2.0000      -0.403142       -10.9700
  63   2.0000      -0.341747        -9.2994
  64   2.0000      -0.328809        -8.9474
  65   2.0000      -0.327401        -8.9090
  66   2.0000      -0.299953        -8.1621
  67   0.0000       0.038406         1.0451
  68   0.0000       0.061704         1.6791
  69   0.0000       0.114800         3.1239
  70   0.0000       0.125276         3.4089
  71   0.0000       0.130237         3.5439

MULLIKEN ATOMIC CHARGES
-----------------------
   0 S :    0.124393
   1 C :   -0.127671
   2 C :   -0.065156
   3 C :    0.031526
   4 C :   -0.166214
   5 H :    0.004229
   6 C :    0.081099
   7 H :    0.025180
   8 H :   -0.001696
   9 C :    0.000875
  10 H :    0.011336
  11 H :    0.024855
  12 C :   -0.058130
  13 H :    0.020829
  14 H :    0.010621
  15 H :    0.025652
  16 S :    0.110147
  17 C :   -0.117922
  18 C :   -0.011486
  19 C :   -0.053941
  20 C :   -0.157843
  21 H :    0.018488
  22 C :    0.058826
  23 H :    0.033611
  24 H :    0.028812
  25 C :   -0.088311
  26 H :    0.026300
  27 H :    0.037474
  28 C :   -0.060132
  29 H :    0.024519
  30 H :    0.036270
  31 H :    0.050808
  32 H :    0.050416
  33 H :    0.072235
Sum of atomic charges:   -0.0000000

LOEWDIN ATOMIC CHARGES
----------------------
   0 S :    0.431916
   1 C :   -0.202103
   2 C :   -0.061336
   3 C :   -0.047626
   4 C :   -0.202157
   5 H :    0.026711
   6 C :   -0.034955
   7 H :    0.033828
   8 H :    0.028465
   9 C :   -0.021790
  10 H :    0.012922
  11 H :    0.023550
  12 C :   -0.059458
  13 H :    0.019272
  14 H :    0.022262
  15 H :    0.019291
  16 S :    0.412576
  17 C :   -0.186529
  18 C :   -0.066074
  19 C :   -0.055413
  20 C :   -0.216865
  21 H :    0.030461
  22 C :   -0.041612
  23 H :    0.035641
  24 H :    0.033544
  25 C :   -0.049186
  26 H :    0.021342
  27 H :    0.030426
  28 C :   -0.071812
  29 H :    0.026238
  30 H :    0.023941
  31 H :    0.032614
  32 H :    0.020123
  33 H :    0.031791

  Mayer bond orders larger than 0.100000
B(  0-S ,  1-C ) :   1.1631 B(  0-S ,  4-C ) :   1.1641 B(  1-C ,  2-C ) :   1.5713
B(  1-C ,  4-C ) :   0.1019 B(  1-C , 32-H ) :   0.9665 B(  2-C ,  3-C ) :   1.2864
B(  2-C ,  6-C ) :   1.0219 B(  3-C ,  4-C ) :   1.5421 B(  3-C ,  5-H ) :   0.9980
B(  4-C , 20-C ) :   1.0296 B(  6-C ,  7-H ) :   0.9279 B(  6-C ,  8-H ) :   0.9336
B(  6-C ,  9-C ) :   1.0700 B(  9-C , 10-H ) :   0.9598 B(  9-C , 11-H ) :   0.9554
B(  9-C , 12-C ) :   1.0743 B( 12-C , 13-H ) :   0.9747 B( 12-C , 14-H ) :   0.9757
B( 12-C , 15-H ) :   0.9736 B( 16-S , 17-C ) :   1.1639 B( 16-S , 20-C ) :   1.1362
B( 17-C , 18-C ) :   1.5944 B( 17-C , 33-H ) :   0.9670 B( 18-C , 19-C ) :   1.2194
B( 18-C , 21-H ) :   0.9992 B( 19-C , 20-C ) :   1.6536 B( 19-C , 22-C ) :   1.0361
B( 22-C , 23-H ) :   0.9248 B( 22-C , 24-H ) :   0.9337 B( 22-C , 25-C ) :   1.0668
B( 25-C , 26-H ) :   0.9509 B( 25-C , 27-H ) :   0.9552 B( 25-C , 28-C ) :   1.0643
B( 28-C , 29-H ) :   0.9768 B( 28-C , 30-H ) :   0.9748 B( 28-C , 31-H ) :   0.9765

Dispersion correction           -0.014165950
FINAL SINGLE POINT ENERGY     -1339.861292467770

DIPOLE MOMENT
-------------
                                X             Y             Z
Electronic contribution:      5.95131     -25.75244      -9.33268
Nuclear contribution   :     -6.23476      26.26303       9.35666
                        -----------------------------------------
Total Dipole Moment    :     -0.28345       0.51059       0.02397
                        -----------------------------------------
Magnitude (a.u.)       :      0.58448
Magnitude (Debye)      :      1.48564

Rotational constants in cm-1:     0.018851     0.008560     0.006479
Rotational constants in MHz :   565.150482   256.615874   194.228750

                             ****ORCA TERMINATED NORMALLY****
TOTAL RUN TIME: 0 days 0 hours 0 minutes 21 seconds 430 msec
