                         Program Version 4.2.1 -  RELEASE  -
|  1> ! wB97X-D3 SP def2-SVP
|  2> %pal
|  3> nprocs 24
|  4> end
|  5>
|  6> * xyz 0 1
|  7> S 	 -139.126 	 7.31898 	 6.36002
|  8> C 	 -137.587 	 6.70925 	 5.63296
|  9> C 	 -136.785 	 6.34643 	 6.68157
| 10> C 	 -137.306 	 6.54986 	 7.99948
| 11> C 	 -138.581 	 7.09873 	 8.01155
| 12> H 	 -136.921 	 6.30331 	 8.92917
| 13> C 	 -135.404 	 5.68574 	 6.38006
| 14> H 	 -135.311 	 5.68783 	 5.28333
| 15> H 	 -135.424 	 4.60297 	 6.60757
| 16> C 	 -134.124 	 6.34188 	 6.95763
| 17> H 	 -133.902 	 7.31418 	 6.68663
| 18> H 	 -134.321 	 6.36053 	 8.07292
| 19> C 	 -132.883 	 5.53055 	 6.72151
| 20> H 	 -132.575 	 5.62369 	 5.64661
| 21> H 	 -132.069 	 5.88654 	 7.3177
| 22> H 	 -133.129 	 4.49266 	 6.9268
| 23> S 	 -139.504 	 6.57069 	 10.478
| 24> C 	 -140.092 	 7.9059 	 11.3919
| 25> C 	 -140.04 	 9.12875 	 10.7651
| 26> C 	 -139.53 	 8.95813 	 9.43633
| 27> C 	 -139.172 	 7.63823 	 9.14426
| 28> H 	 -140.357 	 10.0937 	 11.1794
| 29> C 	 -139.467 	 10.1487 	 8.45713
| 30> H 	 -138.982 	 9.75161 	 7.59459
| 31> H 	 -138.863 	 10.9933 	 8.96827
| 32> C 	 -140.873 	 10.7216 	 8.06394
| 33> H 	 -140.694 	 11.6432 	 7.50714
| 34> H 	 -141.281 	 11.081 	 8.99187
| 35> C 	 -141.827 	 9.62402 	 7.5537
| 36> H 	 -141.399 	 9.33024 	 6.64607
| 37> H 	 -142.824 	 10.0559 	 7.40655
| 38> H 	 -141.973 	 8.73717 	 8.21042
| 39> H 	 -137.281 	 6.75186 	 4.57548
| 40> H 	 -140.598 	 7.78261 	 12.3284
| 41> *
| 42>
| 43>                          ****END OF INPUT****

CARTESIAN COORDINATES (ANGSTROEM)
---------------------------------
  S    -139.126000    7.318980    6.360020
  C    -137.587000    6.709250    5.632960
  C    -136.785000    6.346430    6.681570
  C    -137.306000    6.549860    7.999480
  C    -138.581000    7.098730    8.011550
  H    -136.921000    6.303310    8.929170
  C    -135.404000    5.685740    6.380060
  H    -135.311000    5.687830    5.283330
  H    -135.424000    4.602970    6.607570
  C    -134.124000    6.341880    6.957630
  H    -133.902000    7.314180    6.686630
  H    -134.321000    6.360530    8.072920
  C    -132.883000    5.530550    6.721510
  H    -132.575000    5.623690    5.646610
  H    -132.069000    5.886540    7.317700
  H    -133.129000    4.492660    6.926800
  S    -139.504000    6.570690   10.478000
  C    -140.092000    7.905900   11.391900
  C    -140.040000    9.128750   10.765100
  C    -139.530000    8.958130    9.436330
  C    -139.172000    7.638230    9.144260
  H    -140.357000   10.093700   11.179400
  C    -139.467000   10.148700    8.457130
  H    -138.982000    9.751610    7.594590
  H    -138.863000   10.993300    8.968270
  C    -140.873000   10.721600    8.063940
  H    -140.694000   11.643200    7.507140
  H    -141.281000   11.081000    8.991870
  C    -141.827000    9.624020    7.553700
  H    -141.399000    9.330240    6.646070
  H    -142.824000   10.055900    7.406550
  H    -141.973000    8.737170    8.210420
  H    -137.281000    6.751860    4.575480
  H    -140.598000    7.782610   12.328400

 Total Charge           Charge          ....    0
 Multiplicity           Mult            ....    1
 Number of Electrons    NEL             ....  134
 Basis Dimension        Dim             ....  322

ORBITAL ENERGIES
----------------

  NO   OCC          E(Eh)            E(eV)
   0   2.0000     -88.969905     -2420.9942
   1   2.0000     -88.965955     -2420.8867
   2   2.0000     -10.325528      -280.9719
   3   2.0000     -10.320521      -280.8357
   4   2.0000     -10.320269      -280.8288
   5   2.0000     -10.315473      -280.6983
   6   2.0000     -10.305090      -280.4158
   7   2.0000     -10.303402      -280.3698
   8   2.0000     -10.296839      -280.1912
   9   2.0000     -10.296044      -280.1696
  10   2.0000     -10.292385      -280.0700
  11   2.0000     -10.289437      -279.9898
  12   2.0000     -10.284309      -279.8503
  13   2.0000     -10.281586      -279.7762
  14   2.0000     -10.276042      -279.6253
  15   2.0000     -10.271187      -279.4932
  16   2.0000      -8.085282      -220.0117
  17   2.0000      -8.079187      -219.8459
  18   2.0000      -6.043719      -164.4580
  19   2.0000      -6.039753      -164.3500
  20   2.0000      -6.037886      -164.2992
  21   2.0000      -6.036034      -164.2488
  22   2.0000      -6.033749      -164.1867
  23   2.0000      -6.029952      -164.0833
  24   2.0000      -1.011899       -27.5352
  25   2.0000      -0.982420       -26.7330
  26   2.0000      -0.909766       -24.7560
  27   2.0000      -0.903352       -24.5814
  28   2.0000      -0.880329       -23.9550
  29   2.0000      -0.848763       -23.0960
  30   2.0000      -0.841893       -22.9091
  31   2.0000      -0.814937       -22.1756
  32   2.0000      -0.780773       -21.2459
  33   2.0000      -0.767384       -20.8816
  34   2.0000      -0.713947       -19.4275
  35   2.0000      -0.697776       -18.9874
  36   2.0000      -0.690172       -18.7805
  37   2.0000      -0.665645       -18.1131
  38   2.0000      -0.641188       -17.4476
  39   2.0000      -0.613418       -16.6920
  40   2.0000      -0.593502       -16.1500
  41   2.0000      -0.574394       -15.6301
  42   2.0000      -0.557548       -15.1717
  43   2.0000      -0.546557       -14.8726
  44   2.0000      -0.540952       -14.7200
  45   2.0000      -0.527411       -14.3516
  46   2.0000      -0.519717       -14.1422
  47   2.0000      -0.515505       -14.0276
  48   2.0000      -0.506042       -13.7701
  49   2.0000      -0.501102       -13.6357
  50   2.0000      -0.492511       -13.4019
  51   2.0000      -0.478922       -13.0321
  52   2.0000      -0.470356       -12.7990
  53   2.0000      -0.461169       -12.5490
  54   2.0000      -0.459400       -12.5009
  55   2.0000      -0.454454       -12.3663
  56   2.0000      -0.447084       -12.1658
  57   2.0000      -0.440642       -11.9905
  58   2.0000      -0.427390       -11.6299
  59   2.0000      -0.423934       -11.5358
  60   2.0000      -0.412993       -11.2381
  61   2.0000      -0.408144       -11.1062
  62   2.0000      -0.402242       -10.9456
  63   2.0000      -0.346160        -9.4195
  64   2.0000      -0.335168        -9.1204
  65   2.0000      -0.328755        -8.9459
  66   2.0000      -0.292055        -7.9472
  67   0.0000       0.029503         0.8028
  68   0.0000       0.067968         1.8495
  69   0.0000       0.110885         3.0173
  70   0.0000       0.112515         3.0617
  71   0.0000       0.125802         3.4232

MULLIKEN ATOMIC CHARGES
-----------------------
   0 S :    0.085437
   1 C :   -0.134109
   2 C :   -0.054033
   3 C :    0.061942
   4 C :   -0.144178
   5 H :   -0.015608
   6 C :    0.037967
   7 H :    0.004380
   8 H :    0.041250
   9 C :   -0.067124
  10 H :    0.015616
  11 H :    0.029011
  12 C :   -0.040330
  13 H :    0.033156
  14 H :    0.034888
  15 H :    0.024732
  16 S :    0.125804
  17 C :   -0.078382
  18 C :   -0.033800
  19 C :   -0.055011
  20 C :   -0.187631
  21 H :    0.028967
  22 C :    0.041186
  23 H :    0.022222
  24 H :    0.046306
  25 C :   -0.057983
  26 H :    0.036833
  27 H :    0.004035
  28 C :   -0.039536
  29 H :    0.024074
  30 H :    0.034109
  31 H :    0.056651
  32 H :    0.068593
  33 H :    0.050565
Sum of atomic charges:    0.0000000

LOEWDIN ATOMIC CHARGES
----------------------
   0 S :    0.392779
   1 C :   -0.188389
   2 C :   -0.060653
   3 C :   -0.055457
   4 C :   -0.190032
   5 H :    0.016724
   6 C :   -0.031606
   7 H :    0.023615
   8 H :    0.034525
   9 C :   -0.041626
  10 H :    0.013741
  11 H :    0.026976
  12 C :   -0.061163
  13 H :    0.028237
  14 H :    0.024753
  15 H :    0.022316
  16 S :    0.428921
  17 C :   -0.186449
  18 C :   -0.069930
  19 C :   -0.046616
  20 C :   -0.214776
  21 H :    0.037153
  22 C :   -0.033960
  23 H :    0.011222
  24 H :    0.041140
  25 C :   -0.038505
  26 H :    0.027965
  27 H :    0.012458
  28 C :   -0.063614
  29 H :    0.011439
  30 H :    0.028239
  31 H :    0.035805
  32 H :    0.040861
  33 H :    0.023906

  Mayer bond orders larger than 0.100000
B(  0-S ,  1-C ) :   1.1064 B(  0-S ,  4-C ) :   1.1367 B(  1-C ,  2-C ) :   1.6294
B(  1-C , 32-H ) :   0.9650 B(  2-C ,  3-C ) :   1.2220 B(  2-C ,  6-C ) :   1.0168
B(  3-C ,  4-C ) :   1.5658 B(  3-C ,  5-H ) :   1.0044 B(  4-C , 20-C ) :   1.0616
B(  6-C ,  7-H ) :   0.9443 B(  6-C ,  8-H ) :   0.9428 B(  6-C ,  9-C ) :   1.0532
B(  9-C , 10-H ) :   0.9577 B(  9-C , 11-H ) :   0.9554 B(  9-C , 12-C ) :   1.0905
B( 12-C , 13-H ) :   0.9745 B( 12-C , 14-H ) :   0.9719 B( 12-C , 15-H ) :   0.9738
B( 16-S , 17-C ) :   1.1645 B( 16-S , 20-C ) :   1.1385 B( 17-C , 18-C ) :   1.5999
B( 17-C , 33-H ) :   0.9656 B( 18-C , 19-C ) :   1.2433 B( 18-C , 21-H ) :   0.9890
B( 19-C , 20-C ) :   1.5750 B( 19-C , 22-C ) :   1.0389 B( 22-C , 23-H ) :   0.9329
B( 22-C , 24-H ) :   0.9374 B( 22-C , 25-C ) :   1.0628 B( 25-C , 26-H ) :   0.9593
B( 25-C , 27-H ) :   0.9543 B( 25-C , 28-C ) :   1.0594 B( 28-C , 29-H ) :   0.9782
B( 28-C , 30-H ) :   0.9723 B( 28-C , 31-H ) :   0.9705

Dispersion correction           -0.014874838
FINAL SINGLE POINT ENERGY     -1339.869607658830

DIPOLE MOMENT
-------------
                                X             Y             Z
Electronic contribution:    -12.12737      -5.93092       7.31783
Nuclear contribution   :     12.39768       6.21140      -7.25372
                        -----------------------------------------
Total Dipole Moment    :      0.27032       0.28048       0.06412
                        -----------------------------------------
Magnitude (a.u.)       :      0.39478
Magnitude (Debye)      :      1.00345

Rotational constants in cm-1:     0.022384     0.007852     0.006727
Rotational constants in MHz :   671.063881   235.404756   201.667322

                             ****ORCA TERMINATED NORMALLY****
TOTAL RUN TIME: 0 days 0 hours 0 minutes 21 seconds 707 msec
