                         Program Version 4.2.1 -  RELEASE  -
|  1> ! wB97X-D3 SP def2-SVP
|  2> %pal
|  3> nprocs 24
|  4> end
|  5>
|  6> * xyz 0 1
|  7> S 	 -34.7768 	 -7.76687 	 17.0896
|  8> C 	 -33.3645 	 -8.64084 	 17.7533
|  9> C 	 -33.0465 	 -9.73709 	 16.9792
| 10> C 	 -33.952 	 -9.92572 	 15.8912
| 11> C 	 -34.8926 	 -8.93954 	 15.8141
| 12> H 	 -34.0208 	 -10.7923 	 15.1887
| 13> C 	 -31.8466 	 -10.5663 	 17.2959
| 14> H 	 -32.078 	 -11.5885 	 17.385
| 15> H 	 -31.5939 	 -10.2616 	 18.2162
| 16> C 	 -30.6094 	 -10.2857 	 16.394
| 17> H 	 -29.9419 	 -11.0643 	 16.5434
| 18> H 	 -30.9277 	 -10.4139 	 15.3617
| 19> C 	 -30.1112 	 -8.82308 	 16.4808
| 20> H 	 -29.2967 	 -8.76148 	 15.8211
| 21> H 	 -30.8354 	 -8.13988 	 16.1809
| 22> H 	 -29.7029 	 -8.51265 	 17.4289
| 23> S 	 -36.7304 	 -10.5476 	 14.6494
| 24> C 	 -37.6813 	 -9.80579 	 13.3487
| 25> C 	 -37.5008 	 -8.44013 	 13.1324
| 26> C 	 -36.5972 	 -7.916 	 14.1284
| 27> C 	 -35.9643 	 -8.9351 	 14.801
| 28> H 	 -38.0798 	 -7.87799 	 12.3968
| 29> C 	 -36.2561 	 -6.47039 	 14.2268
| 30> H 	 -35.8985 	 -6.22137 	 15.2635
| 31> H 	 -37.1952 	 -5.92901 	 14.0136
| 32> C 	 -35.2051 	 -5.96736 	 13.2382
| 33> H 	 -35.2744 	 -4.89461 	 13.1969
| 34> H 	 -35.4254 	 -6.43996 	 12.2522
| 35> C 	 -33.8089 	 -6.3248 	 13.6968
| 36> H 	 -33.6209 	 -7.40476 	 13.61
| 37> H 	 -33.6255 	 -5.99682 	 14.7471
| 38> H 	 -33.0982 	 -5.84751 	 13.0779
| 39> H 	 -32.644 	 -8.35057 	 18.5352
| 40> H 	 -38.2756 	 -10.4424 	 12.753
| 41> *
| 42>
| 43>                          ****END OF INPUT****

CARTESIAN COORDINATES (ANGSTROEM)
---------------------------------
  S    -34.776800   -7.766870   17.089600
  C    -33.364500   -8.640840   17.753300
  C    -33.046500   -9.737090   16.979200
  C    -33.952000   -9.925720   15.891200
  C    -34.892600   -8.939540   15.814100
  H    -34.020800  -10.792300   15.188700
  C    -31.846600  -10.566300   17.295900
  H    -32.078000  -11.588500   17.385000
  H    -31.593900  -10.261600   18.216200
  C    -30.609400  -10.285700   16.394000
  H    -29.941900  -11.064300   16.543400
  H    -30.927700  -10.413900   15.361700
  C    -30.111200   -8.823080   16.480800
  H    -29.296700   -8.761480   15.821100
  H    -30.835400   -8.139880   16.180900
  H    -29.702900   -8.512650   17.428900
  S    -36.730400  -10.547600   14.649400
  C    -37.681300   -9.805790   13.348700
  C    -37.500800   -8.440130   13.132400
  C    -36.597200   -7.916000   14.128400
  C    -35.964300   -8.935100   14.801000
  H    -38.079800   -7.877990   12.396800
  C    -36.256100   -6.470390   14.226800
  H    -35.898500   -6.221370   15.263500
  H    -37.195200   -5.929010   14.013600
  C    -35.205100   -5.967360   13.238200
  H    -35.274400   -4.894610   13.196900
  H    -35.425400   -6.439960   12.252200
  C    -33.808900   -6.324800   13.696800
  H    -33.620900   -7.404760   13.610000
  H    -33.625500   -5.996820   14.747100
  H    -33.098200   -5.847510   13.077900
  H    -32.644000   -8.350570   18.535200
  H    -38.275600  -10.442400   12.753000

 Total Charge           Charge          ....    0
 Multiplicity           Mult            ....    1
 Number of Electrons    NEL             ....  134
 Basis Dimension        Dim             ....  322

ORBITAL ENERGIES
----------------

  NO   OCC          E(Eh)            E(eV)
   0   2.0000     -88.968755     -2420.9629
   1   2.0000     -88.967934     -2420.9406
   2   2.0000     -10.326364      -280.9946
   3   2.0000     -10.326153      -280.9889
   4   2.0000     -10.317976      -280.7664
   5   2.0000     -10.313022      -280.6316
   6   2.0000     -10.303282      -280.3666
   7   2.0000     -10.301484      -280.3176
   8   2.0000     -10.296089      -280.1708
   9   2.0000     -10.291830      -280.0549
  10   2.0000     -10.291544      -280.0471
  11   2.0000     -10.283220      -279.8206
  12   2.0000     -10.281523      -279.7745
  13   2.0000     -10.274324      -279.5786
  14   2.0000     -10.267476      -279.3922
  15   2.0000     -10.266726      -279.3718
  16   2.0000      -8.082369      -219.9324
  17   2.0000      -8.081768      -219.9161
  18   2.0000      -6.041008      -164.3842
  19   2.0000      -6.040148      -164.3608
  20   2.0000      -6.037103      -164.2779
  21   2.0000      -6.036793      -164.2695
  22   2.0000      -6.033005      -164.1664
  23   2.0000      -6.032317      -164.1477
  24   2.0000      -1.005051       -27.3488
  25   2.0000      -0.980297       -26.6752
  26   2.0000      -0.914677       -24.8896
  27   2.0000      -0.912706       -24.8360
  28   2.0000      -0.864868       -23.5343
  29   2.0000      -0.852790       -23.2056
  30   2.0000      -0.843447       -22.9514
  31   2.0000      -0.812871       -22.1193
  32   2.0000      -0.787976       -21.4419
  33   2.0000      -0.773566       -21.0498
  34   2.0000      -0.712606       -19.3910
  35   2.0000      -0.698866       -19.0171
  36   2.0000      -0.685992       -18.6668
  37   2.0000      -0.669982       -18.2311
  38   2.0000      -0.628958       -17.1148
  39   2.0000      -0.616349       -16.7717
  40   2.0000      -0.598579       -16.2882
  41   2.0000      -0.570416       -15.5218
  42   2.0000      -0.556030       -15.1304
  43   2.0000      -0.548359       -14.9216
  44   2.0000      -0.543238       -14.7823
  45   2.0000      -0.540308       -14.7025
  46   2.0000      -0.516599       -14.0574
  47   2.0000      -0.513227       -13.9656
  48   2.0000      -0.499105       -13.5813
  49   2.0000      -0.489550       -13.3213
  50   2.0000      -0.486437       -13.2366
  51   2.0000      -0.472801       -12.8656
  52   2.0000      -0.469015       -12.7625
  53   2.0000      -0.463203       -12.6044
  54   2.0000      -0.462697       -12.5906
  55   2.0000      -0.453768       -12.3477
  56   2.0000      -0.446315       -12.1449
  57   2.0000      -0.439001       -11.9458
  58   2.0000      -0.431228       -11.7343
  59   2.0000      -0.427288       -11.6271
  60   2.0000      -0.421270       -11.4633
  61   2.0000      -0.418072       -11.3763
  62   2.0000      -0.416344       -11.3293
  63   2.0000      -0.343376        -9.3437
  64   2.0000      -0.333960        -9.0875
  65   2.0000      -0.331633        -9.0242
  66   2.0000      -0.287836        -7.8324
  67   0.0000       0.027856         0.7580
  68   0.0000       0.074240         2.0202
  69   0.0000       0.091939         2.5018
  70   0.0000       0.112833         3.0703
  71   0.0000       0.124328         3.3831

MULLIKEN ATOMIC CHARGES
-----------------------
   0 S :    0.099852
   1 C :   -0.118117
   2 C :   -0.133118
   3 C :   -0.022265
   4 C :   -0.112871
   5 H :    0.033450
   6 C :    0.168245
   7 H :    0.015631
   8 H :   -0.035571
   9 C :   -0.050474
  10 H :    0.013541
  11 H :    0.020210
  12 C :   -0.013506
  13 H :    0.017389
  14 H :    0.036549
  15 H :    0.018467
  16 S :    0.096312
  17 C :   -0.070938
  18 C :   -0.027774
  19 C :   -0.055419
  20 C :   -0.147115
  21 H :    0.029484
  22 C :    0.036455
  23 H :    0.029282
  24 H :    0.026267
  25 C :   -0.048996
  26 H :    0.027847
  27 H :    0.029446
  28 C :   -0.044675
  29 H :    0.042636
  30 H :    0.030747
  31 H :    0.019464
  32 H :    0.051469
  33 H :    0.038094
Sum of atomic charges:    0.0000000

LOEWDIN ATOMIC CHARGES
----------------------
   0 S :    0.401750
   1 C :   -0.199036
   2 C :   -0.055015
   3 C :   -0.082460
   4 C :   -0.191224
   5 H :    0.034820
   6 C :   -0.019270
   7 H :    0.026443
   8 H :    0.010931
   9 C :   -0.023614
  10 H :    0.014200
  11 H :    0.024372
  12 C :   -0.052371
  13 H :    0.023277
  14 H :    0.021556
  15 H :    0.020507
  16 S :    0.383680
  17 C :   -0.161513
  18 C :   -0.063212
  19 C :   -0.057605
  20 C :   -0.175596
  21 H :    0.036991
  22 C :   -0.039923
  23 H :    0.022889
  24 H :    0.034337
  25 C :   -0.035669
  26 H :    0.021776
  27 H :    0.027704
  28 C :   -0.066531
  29 H :    0.029118
  30 H :    0.024620
  31 H :    0.017758
  32 H :    0.034177
  33 H :    0.012133

  Mayer bond orders larger than 0.100000
B(  0-S ,  1-C ) :   1.1043 B(  0-S ,  4-C ) :   1.1416 B(  1-C ,  2-C ) :   1.6494
B(  1-C , 32-H ) :   0.9545 B(  2-C ,  3-C ) :   1.2105 B(  2-C ,  6-C ) :   1.0342
B(  3-C ,  4-C ) :   1.5787 B(  3-C ,  5-H ) :   0.9866 B(  4-C , 20-C ) :   1.0368
B(  6-C ,  7-H ) :   0.9321 B(  6-C ,  8-H ) :   0.9187 B(  6-C ,  9-C ) :   1.0650
B(  9-C , 10-H ) :   0.9600 B(  9-C , 11-H ) :   0.9586 B(  9-C , 12-C ) :   1.0696
B( 12-C , 13-H ) :   0.9704 B( 12-C , 14-H ) :   0.9733 B( 12-C , 15-H ) :   0.9766
B( 16-S , 17-C ) :   1.1378 B( 16-S , 20-C ) :   1.1238 B( 17-C , 18-C ) :   1.6484
B( 17-C , 33-H ) :   0.9707 B( 18-C , 19-C ) :   1.1827 B( 18-C , 21-H ) :   0.9864
B( 19-C , 20-C ) :   1.6279 B( 19-C , 22-C ) :   1.0650 B( 22-C , 23-H ) :   0.9320
B( 22-C , 24-H ) :   0.9210 B( 22-C , 25-C ) :   1.0738 B( 25-C , 26-H ) :   0.9522
B( 25-C , 27-H ) :   0.9502 B( 25-C , 28-C ) :   1.0913 B( 28-C , 29-H ) :   0.9717
B( 28-C , 30-H ) :   0.9707 B( 28-C , 31-H ) :   0.9702

Dispersion correction           -0.016036051
FINAL SINGLE POINT ENERGY     -1339.871181240425

DIPOLE MOMENT
-------------
                                X             Y             Z
Electronic contribution:    -20.36459      -7.78547       4.36085
Nuclear contribution   :     20.67136       7.83956      -4.64811
                        -----------------------------------------
Total Dipole Moment    :      0.30677       0.05409      -0.28726
                        -----------------------------------------
Magnitude (a.u.)       :      0.42373
Magnitude (Debye)      :      1.07704

Rotational constants in cm-1:     0.021205     0.009311     0.007896
Rotational constants in MHz :   635.722537   279.134394   236.717353

                             ****ORCA TERMINATED NORMALLY****
TOTAL RUN TIME: 0 days 0 hours 0 minutes 22 seconds 835 msec
