                         Program Version 4.2.1 -  RELEASE  -
|  1> ! wB97X-D3 SP def2-SVP
|  2> %pal
|  3> nprocs 24
|  4> end
|  5>
|  6> * xyz 0 1
|  7> S 	 -70.777 	 6.3474 	 -113.012
|  8> C 	 -71.6673 	 6.92421 	 -111.627
|  9> C 	 -70.8764 	 7.01235 	 -110.474
| 10> C 	 -69.4996 	 6.76916 	 -110.79
| 11> C 	 -69.2699 	 6.61408 	 -112.143
| 12> H 	 -68.6983 	 6.77766 	 -110.052
| 13> C 	 -71.304 	 7.18529 	 -109.007
| 14> H 	 -72.2228 	 7.74718 	 -109.037
| 15> H 	 -70.6231 	 7.83394 	 -108.48
| 16> C 	 -71.5684 	 5.95458 	 -108.312
| 17> H 	 -72.1944 	 5.1919 	 -108.927
| 18> H 	 -70.5193 	 5.48295 	 -108.238
| 19> C 	 -72.1633 	 6.30029 	 -106.969
| 20> H 	 -72.3217 	 5.4362 	 -106.365
| 21> H 	 -71.5283 	 6.89673 	 -106.461
| 22> H 	 -73.1328 	 6.81496 	 -106.983
| 23> S 	 -67.7318 	 7.01904 	 -114.435
| 24> C 	 -66.2204 	 6.27512 	 -114.517
| 25> C 	 -65.9351 	 5.5666 	 -113.389
| 26> C 	 -66.9621 	 5.52284 	 -112.39
| 27> C 	 -68.0576 	 6.21103 	 -112.877
| 28> H 	 -64.9478 	 5.12586 	 -113.353
| 29> C 	 -66.6592 	 4.84886 	 -111.032
| 30> H 	 -66.5279 	 3.75466 	 -111.232
| 31> H 	 -67.4589 	 4.76936 	 -110.435
| 32> C 	 -65.4739 	 5.40591 	 -110.166
| 33> H 	 -64.5537 	 5.10516 	 -110.634
| 34> H 	 -65.334 	 4.89535 	 -109.219
| 35> C 	 -65.4459 	 6.9333 	 -109.838
| 36> H 	 -66.2936 	 7.28771 	 -109.309
| 37> H 	 -65.0528 	 7.49732 	 -110.688
| 38> H 	 -64.727 	 6.9268 	 -109.076
| 39> H 	 -72.7529 	 7.0026 	 -111.651
| 40> H 	 -65.5649 	 6.46635 	 -115.31
| 41> *
| 42>
| 43>                          ****END OF INPUT****

CARTESIAN COORDINATES (ANGSTROEM)
---------------------------------
  S    -70.777000    6.347400  -113.012000
  C    -71.667300    6.924210  -111.627000
  C    -70.876400    7.012350  -110.474000
  C    -69.499600    6.769160  -110.790000
  C    -69.269900    6.614080  -112.143000
  H    -68.698300    6.777660  -110.052000
  C    -71.304000    7.185290  -109.007000
  H    -72.222800    7.747180  -109.037000
  H    -70.623100    7.833940  -108.480000
  C    -71.568400    5.954580  -108.312000
  H    -72.194400    5.191900  -108.927000
  H    -70.519300    5.482950  -108.238000
  C    -72.163300    6.300290  -106.969000
  H    -72.321700    5.436200  -106.365000
  H    -71.528300    6.896730  -106.461000
  H    -73.132800    6.814960  -106.983000
  S    -67.731800    7.019040  -114.435000
  C    -66.220400    6.275120  -114.517000
  C    -65.935100    5.566600  -113.389000
  C    -66.962100    5.522840  -112.390000
  C    -68.057600    6.211030  -112.877000
  H    -64.947800    5.125860  -113.353000
  C    -66.659200    4.848860  -111.032000
  H    -66.527900    3.754660  -111.232000
  H    -67.458900    4.769360  -110.435000
  C    -65.473900    5.405910  -110.166000
  H    -64.553700    5.105160  -110.634000
  H    -65.334000    4.895350  -109.219000
  C    -65.445900    6.933300  -109.838000
  H    -66.293600    7.287710  -109.309000
  H    -65.052800    7.497320  -110.688000
  H    -64.727000    6.926800  -109.076000
  H    -72.752900    7.002600  -111.651000
  H    -65.564900    6.466350  -115.310000

 Total Charge           Charge          ....    0
 Multiplicity           Mult            ....    1
 Number of Electrons    NEL             ....  134
 Basis Dimension        Dim             ....  322

ORBITAL ENERGIES
----------------

  NO   OCC          E(Eh)            E(eV)
   0   2.0000     -88.962887     -2420.8032
   1   2.0000     -88.962073     -2420.7811
   2   2.0000     -10.326373      -280.9949
   3   2.0000     -10.325265      -280.9648
   4   2.0000     -10.312912      -280.6286
   5   2.0000     -10.307247      -280.4744
   6   2.0000     -10.306072      -280.4425
   7   2.0000     -10.301240      -280.3110
   8   2.0000     -10.292747      -280.0799
   9   2.0000     -10.292285      -280.0673
  10   2.0000     -10.292204      -280.0651
  11   2.0000     -10.291327      -280.0412
  12   2.0000     -10.287510      -279.9374
  13   2.0000     -10.284063      -279.8436
  14   2.0000     -10.274421      -279.5812
  15   2.0000     -10.268723      -279.4262
  16   2.0000      -8.078628      -219.8306
  17   2.0000      -8.076953      -219.7851
  18   2.0000      -6.037008      -164.2753
  19   2.0000      -6.035410      -164.2318
  20   2.0000      -6.033091      -164.1688
  21   2.0000      -6.031629      -164.1290
  22   2.0000      -6.029359      -164.0672
  23   2.0000      -6.027580      -164.0188
  24   2.0000      -1.005847       -27.3705
  25   2.0000      -0.983711       -26.7681
  26   2.0000      -0.927594       -25.2411
  27   2.0000      -0.904986       -24.6259
  28   2.0000      -0.866709       -23.5843
  29   2.0000      -0.854559       -23.2537
  30   2.0000      -0.844164       -22.9709
  31   2.0000      -0.811132       -22.0720
  32   2.0000      -0.794810       -21.6279
  33   2.0000      -0.777146       -21.1472
  34   2.0000      -0.709109       -19.2958
  35   2.0000      -0.697633       -18.9836
  36   2.0000      -0.692126       -18.8337
  37   2.0000      -0.656819       -17.8730
  38   2.0000      -0.638375       -17.3711
  39   2.0000      -0.624910       -17.0047
  40   2.0000      -0.605054       -16.4643
  41   2.0000      -0.577521       -15.7151
  42   2.0000      -0.556480       -15.1426
  43   2.0000      -0.551444       -15.0056
  44   2.0000      -0.542170       -14.7532
  45   2.0000      -0.527187       -14.3455
  46   2.0000      -0.522819       -14.2266
  47   2.0000      -0.509536       -13.8652
  48   2.0000      -0.499141       -13.5823
  49   2.0000      -0.497046       -13.5253
  50   2.0000      -0.492794       -13.4096
  51   2.0000      -0.478728       -13.0268
  52   2.0000      -0.474976       -12.9247
  53   2.0000      -0.465395       -12.6640
  54   2.0000      -0.461096       -12.5471
  55   2.0000      -0.448069       -12.1926
  56   2.0000      -0.445909       -12.1338
  57   2.0000      -0.443156       -12.0589
  58   2.0000      -0.431889       -11.7523
  59   2.0000      -0.424311       -11.5461
  60   2.0000      -0.421405       -11.4670
  61   2.0000      -0.416723       -11.3396
  62   2.0000      -0.408405       -11.1133
  63   2.0000      -0.346220        -9.4211
  64   2.0000      -0.332506        -9.0479
  65   2.0000      -0.327656        -8.9160
  66   2.0000      -0.288035        -7.8378
  67   0.0000       0.030325         0.8252
  68   0.0000       0.075291         2.0488
  69   0.0000       0.106274         2.8919
  70   0.0000       0.114732         3.1220
  71   0.0000       0.128606         3.4995

MULLIKEN ATOMIC CHARGES
-----------------------
   0 S :    0.096047
   1 C :   -0.117841
   2 C :   -0.089552
   3 C :    0.002934
   4 C :   -0.109378
   5 H :    0.003840
   6 C :    0.070017
   7 H :    0.003340
   8 H :    0.022293
   9 C :   -0.106674
  10 H :    0.047995
  11 H :    0.026514
  12 C :    0.030693
  13 H :    0.022051
  14 H :   -0.003488
  15 H :    0.030516
  16 S :    0.112298
  17 C :   -0.067861
  18 C :   -0.049676
  19 C :   -0.021237
  20 C :   -0.162092
  21 H :    0.011944
  22 C :    0.126010
  23 H :    0.033912
  24 H :   -0.025418
  25 C :   -0.094440
  26 H :    0.015858
  27 H :    0.021556
  28 C :   -0.007569
  29 H :    0.029389
  30 H :    0.056143
  31 H :    0.007260
  32 H :    0.046386
  33 H :    0.038233
Sum of atomic charges:   -0.0000000

LOEWDIN ATOMIC CHARGES
----------------------
   0 S :    0.403655
   1 C :   -0.200729
   2 C :   -0.055948
   3 C :   -0.065772
   4 C :   -0.184035
   5 H :    0.027581
   6 C :   -0.036859
   7 H :    0.025183
   8 H :    0.028280
   9 C :   -0.048621
  10 H :    0.035175
  11 H :    0.029728
  12 C :   -0.054122
  13 H :    0.024543
  14 H :    0.011255
  15 H :    0.030874
  16 S :    0.416133
  17 C :   -0.193427
  18 C :   -0.073506
  19 C :   -0.047981
  20 C :   -0.196699
  21 H :    0.028599
  22 C :   -0.026967
  23 H :    0.044450
  24 H :    0.006725
  25 C :   -0.035890
  26 H :    0.019302
  27 H :    0.025817
  28 C :   -0.058606
  29 H :    0.020672
  30 H :    0.034250
  31 H :    0.023280
  32 H :    0.024522
  33 H :    0.019137

  Mayer bond orders larger than 0.100000
B(  0-S ,  1-C ) :   1.1423 B(  0-S ,  4-C ) :   1.1614 B(  1-C ,  2-C ) :   1.6038
B(  1-C ,  4-C ) :   0.1009 B(  1-C , 32-H ) :   0.9697 B(  2-C ,  3-C ) :   1.2473
B(  2-C ,  6-C ) :   1.0167 B(  3-C ,  4-C ) :   1.5800 B(  3-C ,  5-H ) :   0.9923
B(  4-C , 20-C ) :   1.0012 B(  6-C ,  7-H ) :   0.9334 B(  6-C ,  8-H ) :   0.9383
B(  6-C ,  9-C ) :   1.0702 B(  9-C , 10-H ) :   0.9532 B(  9-C , 11-H ) :   0.9461
B(  9-C , 12-C ) :   1.0788 B( 12-C , 13-H ) :   0.9689 B( 12-C , 14-H ) :   0.9646
B( 12-C , 15-H ) :   0.9717 B( 16-S , 17-C ) :   1.1575 B( 16-S , 20-C ) :   1.1454
B( 17-C , 18-C ) :   1.6182 B( 17-C , 33-H ) :   0.9745 B( 18-C , 19-C ) :   1.2140
B( 18-C , 21-H ) :   0.9945 B( 19-C , 20-C ) :   1.6207 B( 19-C , 22-C ) :   1.0332
B( 22-C , 23-H ) :   0.9294 B( 22-C , 24-H ) :   0.9297 B( 22-C , 25-C ) :   1.0615
B( 25-C , 26-H ) :   0.9537 B( 25-C , 27-H ) :   0.9598 B( 25-C , 28-C ) :   1.0761
B( 28-C , 29-H ) :   0.9722 B( 28-C , 30-H ) :   0.9750 B( 28-C , 31-H ) :   0.9672

Dispersion correction           -0.014446618
FINAL SINGLE POINT ENERGY     -1339.849846585362

DIPOLE MOMENT
-------------
                                X             Y             Z
Electronic contribution:     -3.35823       3.03137     -30.34662
Nuclear contribution   :      3.72634      -3.20557      31.14342
                        -----------------------------------------
Total Dipole Moment    :      0.36811      -0.17420       0.79680
                        -----------------------------------------
Magnitude (a.u.)       :      0.89484
Magnitude (Debye)      :      2.27451

Rotational constants in cm-1:     0.019370     0.008863     0.006524
Rotational constants in MHz :   580.698788   265.697882   195.590309

                             ****ORCA TERMINATED NORMALLY****
TOTAL RUN TIME: 0 days 0 hours 0 minutes 21 seconds 889 msec
