                         Program Version 4.2.1 -  RELEASE  -
|  1> ! wB97X-D3 SP def2-SVP
|  2> %pal
|  3> nprocs 24
|  4> end
|  5>
|  6> * xyz 0 1
|  7> S 	 -47.5228 	 13.2674 	 26.0266
|  8> C 	 -48.007 	 11.7984 	 25.2129
|  9> C 	 -47.3459 	 11.7309 	 23.9674
| 10> C 	 -46.5511 	 12.902 	 23.6857
| 11> C 	 -46.4309 	 13.7714 	 24.7522
| 12> H 	 -46.0496 	 13.2024 	 22.8071
| 13> C 	 -47.4854 	 10.5493 	 23.0143
| 14> H 	 -47.7176 	 10.8078 	 21.9887
| 15> H 	 -48.2776 	 9.89687 	 23.4369
| 16> C 	 -46.199 	 9.6774 	 23.0457
| 17> H 	 -45.3646 	 10.3698 	 22.8008
| 18> H 	 -45.9186 	 9.18485 	 23.985
| 19> C 	 -46.1305 	 8.66606 	 21.8721
| 20> H 	 -47.0258 	 8.12203 	 21.9598
| 21> H 	 -46.1701 	 9.09734 	 20.8865
| 22> H 	 -45.3174 	 7.95677 	 21.8696
| 23> S 	 -46.1595 	 16.4663 	 25.581
| 24> C 	 -44.5529 	 17.1381 	 25.5768
| 25> C 	 -43.6214 	 16.2431 	 25.0251
| 26> C 	 -44.1276 	 14.9319 	 24.6732
| 27> C 	 -45.5102 	 14.9237 	 24.9119
| 28> H 	 -42.5737 	 16.5257 	 25.0061
| 29> C 	 -43.2173 	 13.7993 	 24.3136
| 30> H 	 -42.2585 	 14.1169 	 23.8834
| 31> H 	 -43.7582 	 13.3854 	 23.4785
| 32> C 	 -42.9375 	 12.7473 	 25.423
| 33> H 	 -43.1939 	 11.7851 	 25.0469
| 34> H 	 -43.7537 	 12.9144 	 26.2072
| 35> C 	 -41.5329 	 12.7007 	 26.049
| 36> H 	 -40.7169 	 12.4011 	 25.3791
| 37> H 	 -41.5309 	 12.1391 	 27.0116
| 38> H 	 -41.2895 	 13.6652 	 26.4103
| 39> H 	 -48.5863 	 11.0544 	 25.6688
| 40> H 	 -44.38 	 18.1372 	 25.9746
| 41> *
| 42>
| 43>                          ****END OF INPUT****

CARTESIAN COORDINATES (ANGSTROEM)
---------------------------------
  S    -47.522800   13.267400   26.026600
  C    -48.007000   11.798400   25.212900
  C    -47.345900   11.730900   23.967400
  C    -46.551100   12.902000   23.685700
  C    -46.430900   13.771400   24.752200
  H    -46.049600   13.202400   22.807100
  C    -47.485400   10.549300   23.014300
  H    -47.717600   10.807800   21.988700
  H    -48.277600    9.896870   23.436900
  C    -46.199000    9.677400   23.045700
  H    -45.364600   10.369800   22.800800
  H    -45.918600    9.184850   23.985000
  C    -46.130500    8.666060   21.872100
  H    -47.025800    8.122030   21.959800
  H    -46.170100    9.097340   20.886500
  H    -45.317400    7.956770   21.869600
  S    -46.159500   16.466300   25.581000
  C    -44.552900   17.138100   25.576800
  C    -43.621400   16.243100   25.025100
  C    -44.127600   14.931900   24.673200
  C    -45.510200   14.923700   24.911900
  H    -42.573700   16.525700   25.006100
  C    -43.217300   13.799300   24.313600
  H    -42.258500   14.116900   23.883400
  H    -43.758200   13.385400   23.478500
  C    -42.937500   12.747300   25.423000
  H    -43.193900   11.785100   25.046900
  H    -43.753700   12.914400   26.207200
  C    -41.532900   12.700700   26.049000
  H    -40.716900   12.401100   25.379100
  H    -41.530900   12.139100   27.011600
  H    -41.289500   13.665200   26.410300
  H    -48.586300   11.054400   25.668800
  H    -44.380000   18.137200   25.974600

 Total Charge           Charge          ....    0
 Multiplicity           Mult            ....    1
 Number of Electrons    NEL             ....  134
 Basis Dimension        Dim             ....  322

ORBITAL ENERGIES
----------------

  NO   OCC          E(Eh)            E(eV)
   0   2.0000     -88.969448     -2420.9818
   1   2.0000     -88.963444     -2420.8184
   2   2.0000     -10.335099      -281.2324
   3   2.0000     -10.330545      -281.1084
   4   2.0000     -10.321897      -280.8731
   5   2.0000     -10.315019      -280.6859
   6   2.0000     -10.310789      -280.5708
   7   2.0000     -10.309072      -280.5241
   8   2.0000     -10.298117      -280.2260
   9   2.0000     -10.298037      -280.2238
  10   2.0000     -10.293237      -280.0932
  11   2.0000     -10.292827      -280.0821
  12   2.0000     -10.289748      -279.9983
  13   2.0000     -10.288244      -279.9573
  14   2.0000     -10.278912      -279.7034
  15   2.0000     -10.270771      -279.4819
  16   2.0000      -8.083462      -219.9622
  17   2.0000      -8.078212      -219.8193
  18   2.0000      -6.041962      -164.4101
  19   2.0000      -6.038128      -164.3058
  20   2.0000      -6.036666      -164.2660
  21   2.0000      -6.034224      -164.1996
  22   2.0000      -6.032569      -164.1546
  23   2.0000      -6.029168      -164.0620
  24   2.0000      -1.000648       -27.2290
  25   2.0000      -0.978592       -26.6288
  26   2.0000      -0.907923       -24.7058
  27   2.0000      -0.907221       -24.6867
  28   2.0000      -0.864374       -23.5208
  29   2.0000      -0.851679       -23.1754
  30   2.0000      -0.843563       -22.9545
  31   2.0000      -0.812651       -22.1134
  32   2.0000      -0.787190       -21.4205
  33   2.0000      -0.770138       -20.9565
  34   2.0000      -0.708506       -19.2794
  35   2.0000      -0.698508       -19.0074
  36   2.0000      -0.690291       -18.7838
  37   2.0000      -0.660280       -17.9671
  38   2.0000      -0.650478       -17.7004
  39   2.0000      -0.616080       -16.7644
  40   2.0000      -0.594405       -16.1746
  41   2.0000      -0.569993       -15.5103
  42   2.0000      -0.558692       -15.2028
  43   2.0000      -0.550644       -14.9838
  44   2.0000      -0.541810       -14.7434
  45   2.0000      -0.522179       -14.2092
  46   2.0000      -0.519172       -14.1274
  47   2.0000      -0.515187       -14.0189
  48   2.0000      -0.507689       -13.8149
  49   2.0000      -0.497274       -13.5315
  50   2.0000      -0.484524       -13.1846
  51   2.0000      -0.483786       -13.1645
  52   2.0000      -0.471733       -12.8365
  53   2.0000      -0.461660       -12.5624
  54   2.0000      -0.460095       -12.5198
  55   2.0000      -0.449310       -12.2264
  56   2.0000      -0.443486       -12.0679
  57   2.0000      -0.442536       -12.0420
  58   2.0000      -0.435843       -11.8599
  59   2.0000      -0.424195       -11.5429
  60   2.0000      -0.417812       -11.3692
  61   2.0000      -0.410681       -11.1752
  62   2.0000      -0.406928       -11.0731
  63   2.0000      -0.345693        -9.4068
  64   2.0000      -0.332545        -9.0490
  65   2.0000      -0.327734        -8.9181
  66   2.0000      -0.290401        -7.9022
  67   0.0000       0.024869         0.6767
  68   0.0000       0.069254         1.8845
  69   0.0000       0.106599         2.9007
  70   0.0000       0.118530         3.2254
  71   0.0000       0.128824         3.5055

MULLIKEN ATOMIC CHARGES
-----------------------
   0 S :    0.100241
   1 C :   -0.098168
   2 C :   -0.091089
   3 C :    0.043056
   4 C :   -0.158250
   5 H :    0.004070
   6 C :    0.074466
   7 H :    0.034171
   8 H :    0.024585
   9 C :   -0.110421
  10 H :    0.027585
  11 H :    0.039618
  12 C :   -0.019326
  13 H :    0.007180
  14 H :    0.022624
  15 H :    0.032239
  16 S :    0.110525
  17 C :   -0.105818
  18 C :   -0.029203
  19 C :   -0.051952
  20 C :   -0.173238
  21 H :    0.018375
  22 C :    0.107890
  23 H :    0.019732
  24 H :    0.010376
  25 C :   -0.065745
  26 H :    0.022410
  27 H :    0.045589
  28 C :   -0.040970
  29 H :    0.043264
  30 H :    0.039113
  31 H :    0.013116
  32 H :    0.036644
  33 H :    0.067313
Sum of atomic charges:   -0.0000000

LOEWDIN ATOMIC CHARGES
----------------------
   0 S :    0.403309
   1 C :   -0.192880
   2 C :   -0.055124
   3 C :   -0.066438
   4 C :   -0.190562
   5 H :    0.025211
   6 C :   -0.027961
   7 H :    0.031441
   8 H :    0.032288
   9 C :   -0.042076
  10 H :    0.021579
  11 H :    0.027165
  12 C :   -0.065561
  13 H :    0.015533
  14 H :    0.022007
  15 H :    0.025023
  16 S :    0.390723
  17 C :   -0.187975
  18 C :   -0.071011
  19 C :   -0.046864
  20 C :   -0.189206
  21 H :    0.029092
  22 C :   -0.034141
  23 H :    0.032478
  24 H :    0.032529
  25 C :   -0.040079
  26 H :    0.020303
  27 H :    0.038427
  28 C :   -0.069460
  29 H :    0.027345
  30 H :    0.036767
  31 H :    0.018054
  32 H :    0.019220
  33 H :    0.030847

  Mayer bond orders larger than 0.100000
B(  0-S ,  1-C ) :   1.1412 B(  0-S ,  4-C ) :   1.1586 B(  1-C ,  2-C ) :   1.5911
B(  1-C , 32-H ) :   0.9785 B(  2-C ,  3-C ) :   1.2207 B(  2-C ,  6-C ) :   1.0393
B(  3-C ,  4-C ) :   1.5801 B(  3-C ,  5-H ) :   1.0001 B(  4-C , 20-C ) :   1.0333
B(  6-C ,  7-H ) :   0.9471 B(  6-C ,  8-H ) :   0.9382 B(  6-C ,  9-C ) :   1.0462
B(  9-C , 10-H ) :   0.9634 B(  9-C , 11-H ) :   0.9596 B(  9-C , 12-C ) :   1.0712
B( 12-C , 13-H ) :   0.9723 B( 12-C , 14-H ) :   0.9759 B( 12-C , 15-H ) :   0.9756
B( 16-S , 17-C ) :   1.1513 B( 16-S , 20-C ) :   1.1411 B( 17-C , 18-C ) :   1.6020
B( 17-C , 33-H ) :   0.9690 B( 18-C , 19-C ) :   1.2347 B( 18-C , 21-H ) :   0.9882
B( 19-C , 20-C ) :   1.5844 B( 19-C , 22-C ) :   1.0498 B( 22-C , 23-H ) :   0.9372
B( 22-C , 24-H ) :   0.9185 B( 22-C , 25-C ) :   1.0371 B( 25-C , 26-H ) :   0.9558
B( 25-C , 27-H ) :   0.9613 B( 25-C , 28-C ) :   1.0824 B( 28-C , 29-H ) :   0.9752
B( 28-C , 30-H ) :   0.9708 B( 28-C , 31-H ) :   0.9730

Dispersion correction           -0.014649752
FINAL SINGLE POINT ENERGY     -1339.875092381977

DIPOLE MOMENT
-------------
                                X             Y             Z
Electronic contribution:    -15.80956      24.15950      10.53626
Nuclear contribution   :     16.31090     -24.55838     -10.76781
                        -----------------------------------------
Total Dipole Moment    :      0.50134      -0.39888      -0.23155
                        -----------------------------------------
Magnitude (a.u.)       :      0.68122
Magnitude (Debye)      :      1.73153

Rotational constants in cm-1:     0.018283     0.008917     0.006858
Rotational constants in MHz :   548.106843   267.333192   205.584864

                             ****ORCA TERMINATED NORMALLY****
TOTAL RUN TIME: 0 days 0 hours 0 minutes 20 seconds 487 msec
