                         Program Version 4.2.1 -  RELEASE  -
|  1> ! wB97X-D3 SP def2-SVP
|  2> %pal
|  3> nprocs 24
|  4> end
|  5>
|  6> * xyz 0 1
|  7> S 	 -82.3289 	 -43.8511 	 -87.4853
|  8> C 	 -81.8312 	 -42.5861 	 -86.3868
|  9> C 	 -82.6495 	 -41.4696 	 -86.5792
| 10> C 	 -83.4521 	 -41.568 	 -87.7669
| 11> C 	 -83.3788 	 -42.7803 	 -88.4246
| 12> H 	 -84.1379 	 -40.8146 	 -88.069
| 13> C 	 -82.4817 	 -40.1656 	 -85.8751
| 14> H 	 -82.0615 	 -40.3135 	 -84.8485
| 15> H 	 -83.4464 	 -39.7608 	 -85.678
| 16> C 	 -81.6721 	 -39.1425 	 -86.6587
| 17> H 	 -80.6609 	 -39.4514 	 -86.5406
| 18> H 	 -81.9545 	 -39.1707 	 -87.7755
| 19> C 	 -81.9896 	 -37.7117 	 -86.16
| 20> H 	 -81.3367 	 -36.9974 	 -86.691
| 21> H 	 -83.0321 	 -37.4032 	 -86.0744
| 22> H 	 -81.6163 	 -37.6263 	 -85.11
| 23> S 	 -83.7684 	 -42.3618 	 -91.0007
| 24> C 	 -84.8186 	 -43.3067 	 -91.9678
| 25> C 	 -85.3014 	 -44.3475 	 -91.1415
| 26> C 	 -84.9149 	 -44.3196 	 -89.7887
| 27> C 	 -84.1035 	 -43.2592 	 -89.5637
| 28> H 	 -85.9408 	 -44.9967 	 -91.6268
| 29> C 	 -85.5111 	 -45.2378 	 -88.7046
| 30> H 	 -86.5845 	 -45.41 	 -88.9199
| 31> H 	 -85.3736 	 -44.6521 	 -87.7017
| 32> C 	 -84.9034 	 -46.6217 	 -88.5251
| 33> H 	 -85.4142 	 -47.2217 	 -87.7492
| 34> H 	 -84.0065 	 -46.4349 	 -88.0555
| 35> C 	 -84.5601 	 -47.344 	 -89.8348
| 36> H 	 -85.408 	 -47.4002 	 -90.4555
| 37> H 	 -84.1835 	 -48.3672 	 -89.7017
| 38> H 	 -83.8042 	 -46.8185 	 -90.4406
| 39> H 	 -81.3074 	 -42.7141 	 -85.543
| 40> H 	 -84.9486 	 -43.2536 	 -92.989
| 41> *
| 42>
| 43>                          ****END OF INPUT****

CARTESIAN COORDINATES (ANGSTROEM)
---------------------------------
  S    -82.328900  -43.851100  -87.485300
  C    -81.831200  -42.586100  -86.386800
  C    -82.649500  -41.469600  -86.579200
  C    -83.452100  -41.568000  -87.766900
  C    -83.378800  -42.780300  -88.424600
  H    -84.137900  -40.814600  -88.069000
  C    -82.481700  -40.165600  -85.875100
  H    -82.061500  -40.313500  -84.848500
  H    -83.446400  -39.760800  -85.678000
  C    -81.672100  -39.142500  -86.658700
  H    -80.660900  -39.451400  -86.540600
  H    -81.954500  -39.170700  -87.775500
  C    -81.989600  -37.711700  -86.160000
  H    -81.336700  -36.997400  -86.691000
  H    -83.032100  -37.403200  -86.074400
  H    -81.616300  -37.626300  -85.110000
  S    -83.768400  -42.361800  -91.000700
  C    -84.818600  -43.306700  -91.967800
  C    -85.301400  -44.347500  -91.141500
  C    -84.914900  -44.319600  -89.788700
  C    -84.103500  -43.259200  -89.563700
  H    -85.940800  -44.996700  -91.626800
  C    -85.511100  -45.237800  -88.704600
  H    -86.584500  -45.410000  -88.919900
  H    -85.373600  -44.652100  -87.701700
  C    -84.903400  -46.621700  -88.525100
  H    -85.414200  -47.221700  -87.749200
  H    -84.006500  -46.434900  -88.055500
  C    -84.560100  -47.344000  -89.834800
  H    -85.408000  -47.400200  -90.455500
  H    -84.183500  -48.367200  -89.701700
  H    -83.804200  -46.818500  -90.440600
  H    -81.307400  -42.714100  -85.543000
  H    -84.948600  -43.253600  -92.989000

 Total Charge           Charge          ....    0
 Multiplicity           Mult            ....    1
 Number of Electrons    NEL             ....  134
 Basis Dimension        Dim             ....  322

ORBITAL ENERGIES
----------------

  NO   OCC          E(Eh)            E(eV)
   0   2.0000     -88.965204     -2420.8663
   1   2.0000     -88.964356     -2420.8432
   2   2.0000     -10.330889      -281.1178
   3   2.0000     -10.321294      -280.8567
   4   2.0000     -10.311863      -280.6000
   5   2.0000     -10.308295      -280.5030
   6   2.0000     -10.301966      -280.3307
   7   2.0000     -10.301003      -280.3045
   8   2.0000     -10.300142      -280.2811
   9   2.0000     -10.293493      -280.1002
  10   2.0000     -10.290465      -280.0178
  11   2.0000     -10.288763      -279.9715
  12   2.0000     -10.287988      -279.9504
  13   2.0000     -10.283568      -279.8301
  14   2.0000     -10.276169      -279.6288
  15   2.0000     -10.271246      -279.4948
  16   2.0000      -8.080147      -219.8720
  17   2.0000      -8.079342      -219.8501
  18   2.0000      -6.038514      -164.3163
  19   2.0000      -6.037860      -164.2985
  20   2.0000      -6.034248      -164.2002
  21   2.0000      -6.033874      -164.1901
  22   2.0000      -6.031237      -164.1183
  23   2.0000      -6.030179      -164.0895
  24   2.0000      -1.014724       -27.6120
  25   2.0000      -0.987298       -26.8657
  26   2.0000      -0.914997       -24.8983
  27   2.0000      -0.908489       -24.7212
  28   2.0000      -0.874620       -23.7996
  29   2.0000      -0.850936       -23.1551
  30   2.0000      -0.844421       -22.9779
  31   2.0000      -0.816311       -22.2129
  32   2.0000      -0.783187       -21.3116
  33   2.0000      -0.773044       -21.0356
  34   2.0000      -0.713451       -19.4140
  35   2.0000      -0.700924       -19.0731
  36   2.0000      -0.696642       -18.9566
  37   2.0000      -0.675042       -18.3688
  38   2.0000      -0.646789       -17.6000
  39   2.0000      -0.621886       -16.9224
  40   2.0000      -0.589397       -16.0383
  41   2.0000      -0.572642       -15.5824
  42   2.0000      -0.562187       -15.2979
  43   2.0000      -0.557663       -15.1748
  44   2.0000      -0.542774       -14.7696
  45   2.0000      -0.525356       -14.2957
  46   2.0000      -0.522834       -14.2270
  47   2.0000      -0.514375       -13.9968
  48   2.0000      -0.509850       -13.8737
  49   2.0000      -0.500475       -13.6186
  50   2.0000      -0.486842       -13.2476
  51   2.0000      -0.485572       -13.2131
  52   2.0000      -0.473023       -12.8716
  53   2.0000      -0.468654       -12.7527
  54   2.0000      -0.456612       -12.4250
  55   2.0000      -0.446651       -12.1540
  56   2.0000      -0.438696       -11.9375
  57   2.0000      -0.436578       -11.8799
  58   2.0000      -0.429924       -11.6988
  59   2.0000      -0.424155       -11.5418
  60   2.0000      -0.417226       -11.3533
  61   2.0000      -0.414683       -11.2841
  62   2.0000      -0.407672       -11.0933
  63   2.0000      -0.346328        -9.4241
  64   2.0000      -0.333289        -9.0692
  65   2.0000      -0.325643        -8.8612
  66   2.0000      -0.298264        -8.1162
  67   0.0000       0.031638         0.8609
  68   0.0000       0.066840         1.8188
  69   0.0000       0.101768         2.7692
  70   0.0000       0.123478         3.3600
  71   0.0000       0.135277         3.6811

MULLIKEN ATOMIC CHARGES
-----------------------
   0 S :    0.102880
   1 C :   -0.053193
   2 C :   -0.099763
   3 C :    0.035997
   4 C :   -0.139641
   5 H :    0.003731
   6 C :    0.053331
   7 H :    0.023392
   8 H :    0.008523
   9 C :   -0.072393
  10 H :    0.027576
  11 H :    0.049992
  12 C :   -0.063745
  13 H :    0.040474
  14 H :    0.044457
  15 H :    0.021923
  16 S :    0.123342
  17 C :   -0.066862
  18 C :   -0.048307
  19 C :    0.020199
  20 C :   -0.189007
  21 H :   -0.013578
  22 C :    0.008584
  23 H :    0.038990
  24 H :    0.053400
  25 C :   -0.018556
  26 H :    0.032578
  27 H :   -0.005527
  28 C :   -0.050555
  29 H :    0.011319
  30 H :    0.035838
  31 H :    0.044731
  32 H :    0.007558
  33 H :    0.032313
Sum of atomic charges:    0.0000000

LOEWDIN ATOMIC CHARGES
----------------------
   0 S :    0.404094
   1 C :   -0.181150
   2 C :   -0.056259
   3 C :   -0.057747
   4 C :   -0.189344
   5 H :    0.026839
   6 C :   -0.038231
   7 H :    0.032487
   8 H :    0.022668
   9 C :   -0.037185
  10 H :    0.022750
  11 H :    0.034198
  12 C :   -0.073966
  13 H :    0.029544
  14 H :    0.026847
  15 H :    0.026859
  16 S :    0.444626
  17 C :   -0.190228
  18 C :   -0.057975
  19 C :   -0.063779
  20 C :   -0.205158
  21 H :    0.014516
  22 C :   -0.032106
  23 H :    0.032294
  24 H :    0.043792
  25 C :   -0.044788
  26 H :    0.030365
  27 H :    0.007151
  28 C :   -0.064877
  29 H :    0.012407
  30 H :    0.029348
  31 H :    0.031958
  32 H :    0.004025
  33 H :    0.016026

  Mayer bond orders larger than 0.100000
B(  0-S ,  1-C ) :   1.1414 B(  0-S ,  4-C ) :   1.1369 B(  1-C ,  2-C ) :   1.5932
B(  1-C , 32-H ) :   0.9778 B(  2-C ,  3-C ) :   1.2382 B(  2-C ,  6-C ) :   1.0567
B(  3-C ,  4-C ) :   1.5686 B(  3-C ,  5-H ) :   0.9989 B(  4-C , 20-C ) :   1.0226
B(  6-C ,  7-H ) :   0.9367 B(  6-C ,  8-H ) :   0.9356 B(  6-C ,  9-C ) :   1.0486
B(  9-C , 10-H ) :   0.9545 B(  9-C , 11-H ) :   0.9599 B(  9-C , 12-C ) :   1.0720
B( 12-C , 13-H ) :   0.9733 B( 12-C , 14-H ) :   0.9772 B( 12-C , 15-H ) :   0.9712
B( 16-S , 17-C ) :   1.1660 B( 16-S , 20-C ) :   1.1795 B( 17-C , 18-C ) :   1.5775
B( 17-C , 20-C ) :   0.1091 B( 17-C , 33-H ) :   0.9811 B( 18-C , 19-C ) :   1.2366
B( 18-C , 21-H ) :   1.0031 B( 19-C , 20-C ) :   1.5770 B( 19-C , 22-C ) :   1.0204
B( 22-C , 23-H ) :   0.9418 B( 22-C , 24-H ) :   0.9395 B( 22-C , 25-C ) :   1.0708
B( 25-C , 26-H ) :   0.9546 B( 25-C , 27-H ) :   0.9414 B( 25-C , 28-C ) :   1.0835
B( 28-C , 29-H ) :   0.9777 B( 28-C , 30-H ) :   0.9726 B( 28-C , 31-H ) :   0.9652

Dispersion correction           -0.014768912
FINAL SINGLE POINT ENERGY     -1339.865757043863

DIPOLE MOMENT
-------------
                                X             Y             Z
Electronic contribution:      1.63764      -3.11239      -9.57572
Nuclear contribution   :     -1.82847       3.25797       9.79516
                        -----------------------------------------
Total Dipole Moment    :     -0.19083       0.14558       0.21944
                        -----------------------------------------
Magnitude (a.u.)       :      0.32521
Magnitude (Debye)      :      0.82663

Rotational constants in cm-1:     0.024872     0.007758     0.006378
Rotational constants in MHz :   745.632862   232.571109   191.215038

                             ****ORCA TERMINATED NORMALLY****
TOTAL RUN TIME: 0 days 0 hours 0 minutes 20 seconds 209 msec
