                         Program Version 4.2.1 -  RELEASE  -
|  1> ! wB97X-D3 SP def2-SVP
|  2> %pal
|  3> nprocs 24
|  4> end
|  5>
|  6> * xyz 0 1
|  7> S 	 -87.5063 	 -31.125 	 -61.3615
|  8> C 	 -88.0787 	 -29.4696 	 -60.9184
|  9> C 	 -87.5485 	 -29.0197 	 -59.7181
| 10> C 	 -86.5805 	 -29.9931 	 -59.2389
| 11> C 	 -86.3481 	 -31.1214 	 -60.0217
| 12> H 	 -85.9126 	 -29.9577 	 -58.3787
| 13> C 	 -87.7773 	 -27.6262 	 -58.9974
| 14> H 	 -87.5389 	 -26.7264 	 -59.6243
| 15> H 	 -87.0077 	 -27.6499 	 -58.1745
| 16> C 	 -89.2452 	 -27.4056 	 -58.513
| 17> H 	 -89.278 	 -26.5792 	 -57.7798
| 18> H 	 -89.9015 	 -26.9708 	 -59.2742
| 19> C 	 -89.852 	 -28.6267 	 -57.8523
| 20> H 	 -90.7976 	 -28.4293 	 -57.4789
| 21> H 	 -89.9492 	 -29.3904 	 -58.6559
| 22> H 	 -89.2985 	 -29.1871 	 -57.1447
| 23> S 	 -86.245 	 -33.8516 	 -59.2226
| 24> C 	 -84.7358 	 -34.6443 	 -59.0602
| 25> C 	 -83.7052 	 -33.7642 	 -59.3072
| 26> C 	 -84.1019 	 -32.4437 	 -59.5943
| 27> C 	 -85.4926 	 -32.3179 	 -59.7186
| 28> H 	 -82.6801 	 -34.0863 	 -59.3775
| 29> C 	 -83.0461 	 -31.3524 	 -59.8972
| 30> H 	 -83.4428 	 -30.6766 	 -60.6103
| 31> H 	 -82.2019 	 -31.7583 	 -60.3928
| 32> C 	 -82.5707 	 -30.4687 	 -58.6666
| 33> H 	 -83.3753 	 -29.8672 	 -58.3002
| 34> H 	 -81.8066 	 -29.8182 	 -59.0323
| 35> C 	 -82.083 	 -31.2144 	 -57.4249
| 36> H 	 -82.7956 	 -31.728 	 -56.8242
| 37> H 	 -81.6095 	 -30.4489 	 -56.6978
| 38> H 	 -81.2474 	 -31.9365 	 -57.6533
| 39> H 	 -88.7586 	 -28.9797 	 -61.499
| 40> H 	 -84.5947 	 -35.7145 	 -59.0224
| 41> *
| 42>
| 43>                          ****END OF INPUT****

CARTESIAN COORDINATES (ANGSTROEM)
---------------------------------
  S    -87.506300  -31.125000  -61.361500
  C    -88.078700  -29.469600  -60.918400
  C    -87.548500  -29.019700  -59.718100
  C    -86.580500  -29.993100  -59.238900
  C    -86.348100  -31.121400  -60.021700
  H    -85.912600  -29.957700  -58.378700
  C    -87.777300  -27.626200  -58.997400
  H    -87.538900  -26.726400  -59.624300
  H    -87.007700  -27.649900  -58.174500
  C    -89.245200  -27.405600  -58.513000
  H    -89.278000  -26.579200  -57.779800
  H    -89.901500  -26.970800  -59.274200
  C    -89.852000  -28.626700  -57.852300
  H    -90.797600  -28.429300  -57.478900
  H    -89.949200  -29.390400  -58.655900
  H    -89.298500  -29.187100  -57.144700
  S    -86.245000  -33.851600  -59.222600
  C    -84.735800  -34.644300  -59.060200
  C    -83.705200  -33.764200  -59.307200
  C    -84.101900  -32.443700  -59.594300
  C    -85.492600  -32.317900  -59.718600
  H    -82.680100  -34.086300  -59.377500
  C    -83.046100  -31.352400  -59.897200
  H    -83.442800  -30.676600  -60.610300
  H    -82.201900  -31.758300  -60.392800
  C    -82.570700  -30.468700  -58.666600
  H    -83.375300  -29.867200  -58.300200
  H    -81.806600  -29.818200  -59.032300
  C    -82.083000  -31.214400  -57.424900
  H    -82.795600  -31.728000  -56.824200
  H    -81.609500  -30.448900  -56.697800
  H    -81.247400  -31.936500  -57.653300
  H    -88.758600  -28.979700  -61.499000
  H    -84.594700  -35.714500  -59.022400

 Total Charge           Charge          ....    0
 Multiplicity           Mult            ....    1
 Number of Electrons    NEL             ....  134
 Basis Dimension        Dim             ....  322

ORBITAL ENERGIES
----------------

  NO   OCC          E(Eh)            E(eV)
   0   2.0000     -88.966148     -2420.8920
   1   2.0000     -88.966118     -2420.8911
   2   2.0000     -10.335611      -281.2463
   3   2.0000     -10.333832      -281.1979
   4   2.0000     -10.318053      -280.7685
   5   2.0000     -10.314704      -280.6774
   6   2.0000     -10.314630      -280.6753
   7   2.0000     -10.311196      -280.5819
   8   2.0000     -10.305629      -280.4304
   9   2.0000     -10.300987      -280.3041
  10   2.0000     -10.291735      -280.0523
  11   2.0000     -10.289356      -279.9876
  12   2.0000     -10.289194      -279.9832
  13   2.0000     -10.286196      -279.9016
  14   2.0000     -10.281986      -279.7871
  15   2.0000     -10.264578      -279.3134
  16   2.0000      -8.080983      -219.8947
  17   2.0000      -8.079757      -219.8614
  18   2.0000      -6.039454      -164.3419
  19   2.0000      -6.038326      -164.3112
  20   2.0000      -6.035350      -164.2302
  21   2.0000      -6.034384      -164.2039
  22   2.0000      -6.031884      -164.1359
  23   2.0000      -6.030553      -164.0997
  24   2.0000      -1.000998       -27.2385
  25   2.0000      -0.979133       -26.6436
  26   2.0000      -0.904643       -24.6166
  27   2.0000      -0.901490       -24.5308
  28   2.0000      -0.863809       -23.5054
  29   2.0000      -0.848315       -23.0838
  30   2.0000      -0.839922       -22.8554
  31   2.0000      -0.811474       -22.0813
  32   2.0000      -0.785376       -21.3712
  33   2.0000      -0.778065       -21.1722
  34   2.0000      -0.706687       -19.2299
  35   2.0000      -0.703322       -19.1384
  36   2.0000      -0.690474       -18.7888
  37   2.0000      -0.658194       -17.9104
  38   2.0000      -0.648781       -17.6542
  39   2.0000      -0.607575       -16.5330
  40   2.0000      -0.593560       -16.1516
  41   2.0000      -0.565772       -15.3954
  42   2.0000      -0.556776       -15.1507
  43   2.0000      -0.551006       -14.9936
  44   2.0000      -0.542885       -14.7727
  45   2.0000      -0.535281       -14.5657
  46   2.0000      -0.512650       -13.9499
  47   2.0000      -0.510977       -13.9044
  48   2.0000      -0.498645       -13.5688
  49   2.0000      -0.493546       -13.4301
  50   2.0000      -0.486806       -13.2467
  51   2.0000      -0.483680       -13.1616
  52   2.0000      -0.474704       -12.9174
  53   2.0000      -0.463863       -12.6224
  54   2.0000      -0.456171       -12.4130
  55   2.0000      -0.446132       -12.1399
  56   2.0000      -0.441767       -12.0211
  57   2.0000      -0.435833       -11.8596
  58   2.0000      -0.432081       -11.7575
  59   2.0000      -0.425757       -11.5854
  60   2.0000      -0.422010       -11.4835
  61   2.0000      -0.415446       -11.3049
  62   2.0000      -0.402423       -10.9505
  63   2.0000      -0.337573        -9.1858
  64   2.0000      -0.332922        -9.0593
  65   2.0000      -0.329669        -8.9707
  66   2.0000      -0.303808        -8.2670
  67   0.0000       0.030856         0.8396
  68   0.0000       0.057769         1.5720
  69   0.0000       0.112370         3.0577
  70   0.0000       0.121024         3.2932
  71   0.0000       0.127958         3.4819

MULLIKEN ATOMIC CHARGES
-----------------------
   0 S :    0.091506
   1 C :   -0.088067
   2 C :   -0.079472
   3 C :    0.034130
   4 C :   -0.177799
   5 H :    0.013922
   6 C :    0.063110
   7 H :    0.052445
   8 H :    0.035929
   9 C :   -0.095359
  10 H :    0.025663
  11 H :    0.031184
  12 C :   -0.007610
  13 H :    0.018138
  14 H :    0.030986
  15 H :    0.020753
  16 S :    0.114493
  17 C :   -0.085899
  18 C :   -0.037285
  19 C :   -0.032363
  20 C :   -0.172171
  21 H :    0.013976
  22 C :    0.096783
  23 H :    0.021288
  24 H :    0.013412
  25 C :   -0.042618
  26 H :    0.020621
  27 H :    0.029235
  28 C :   -0.094119
  29 H :    0.041072
  30 H :    0.036792
  31 H :    0.029811
  32 H :    0.015372
  33 H :    0.062141
Sum of atomic charges:   -0.0000000

LOEWDIN ATOMIC CHARGES
----------------------
   0 S :    0.375064
   1 C :   -0.153074
   2 C :   -0.061000
   3 C :   -0.061722
   4 C :   -0.193446
   5 H :    0.029967
   6 C :   -0.028753
   7 H :    0.039744
   8 H :    0.035650
   9 C :   -0.047381
  10 H :    0.025223
  11 H :    0.026228
  12 C :   -0.064346
  13 H :    0.016114
  14 H :    0.031877
  15 H :    0.022302
  16 S :    0.416167
  17 C :   -0.197514
  18 C :   -0.073841
  19 C :   -0.052928
  20 C :   -0.199344
  21 H :    0.028994
  22 C :   -0.021384
  23 H :    0.029120
  24 H :    0.024421
  25 C :   -0.032870
  26 H :    0.019650
  27 H :    0.023955
  28 C :   -0.076263
  29 H :    0.020054
  30 H :    0.035566
  31 H :    0.024654
  32 H :    0.006405
  33 H :    0.032709

  Mayer bond orders larger than 0.100000
B(  0-S ,  1-C ) :   1.1448 B(  0-S ,  4-C ) :   1.1301 B(  1-C ,  2-C ) :   1.6096
B(  1-C , 32-H ) :   0.9856 B(  2-C ,  3-C ) :   1.2129 B(  2-C ,  6-C ) :   0.9930
B(  3-C ,  4-C ) :   1.6257 B(  3-C ,  5-H ) :   0.9822 B(  4-C , 20-C ) :   1.0066
B(  6-C ,  7-H ) :   0.9502 B(  6-C ,  8-H ) :   0.9461 B(  6-C ,  9-C ) :   1.0615
B(  9-C , 10-H ) :   0.9572 B(  9-C , 11-H ) :   0.9547 B(  9-C , 12-C ) :   1.0846
B( 12-C , 13-H ) :   0.9725 B( 12-C , 14-H ) :   0.9608 B( 12-C , 15-H ) :   0.9770
B( 16-S , 17-C ) :   1.1719 B( 16-S , 20-C ) :   1.1534 B( 17-C , 18-C ) :   1.5805
B( 17-C , 20-C ) :   0.1041 B( 17-C , 33-H ) :   0.9655 B( 18-C , 19-C ) :   1.2745
B( 18-C , 21-H ) :   0.9902 B( 19-C , 20-C ) :   1.5810 B( 19-C , 22-C ) :   1.0338
B( 22-C , 23-H ) :   0.9334 B( 22-C , 24-H ) :   0.9421 B( 22-C , 25-C ) :   1.0704
B( 25-C , 26-H ) :   0.9539 B( 25-C , 27-H ) :   0.9554 B( 25-C , 28-C ) :   1.0815
B( 28-C , 29-H ) :   0.9746 B( 28-C , 30-H ) :   0.9721 B( 28-C , 31-H ) :   0.9754

Dispersion correction           -0.014821469
FINAL SINGLE POINT ENERGY     -1339.868861576878

DIPOLE MOMENT
-------------
                                X             Y             Z
Electronic contribution:     -6.30935     -18.12857     -13.12596
Nuclear contribution   :      6.58767      18.59172      13.29813
                        -----------------------------------------
Total Dipole Moment    :      0.27832       0.46314       0.17217
                        -----------------------------------------
Magnitude (a.u.)       :      0.56710
Magnitude (Debye)      :      1.44146

Rotational constants in cm-1:     0.019813     0.008139     0.006874
Rotational constants in MHz :   593.985262   243.997167   206.063836

                             ****ORCA TERMINATED NORMALLY****
TOTAL RUN TIME: 0 days 0 hours 0 minutes 21 seconds 415 msec
