                         Program Version 4.2.1 -  RELEASE  -
|  1> ! wB97X-D3 SP def2-SVP
|  2> %pal
|  3> nprocs 24
|  4> end
|  5>
|  6> * xyz 0 1
|  7> S 	 -103.818 	 0.730016 	 -112.317
|  8> C 	 -105.446 	 1.18494 	 -112.315
|  9> C 	 -106.194 	 0.0584439 	 -111.946
| 10> C 	 -105.428 	 -1.00817 	 -111.513
| 11> C 	 -104.062 	 -0.720758 	 -111.554
| 12> H 	 -105.792 	 -1.90435 	 -111.118
| 13> C 	 -107.721 	 0.028592 	 -112.052
| 14> H 	 -108.208 	 0.726278 	 -111.32
| 15> H 	 -107.957 	 -0.904195 	 -111.545
| 16> C 	 -108.299 	 0.150166 	 -113.457
| 17> H 	 -108.158 	 1.24498 	 -113.711
| 18> H 	 -107.729 	 -0.46018 	 -114.128
| 19> C 	 -109.752 	 -0.238387 	 -113.632
| 20> H 	 -109.918 	 -0.00622245 	 -114.65
| 21> H 	 -109.859 	 -1.33118 	 -113.42
| 22> H 	 -110.462 	 0.406605 	 -113.036
| 23> S 	 -101.85 	 -2.12287 	 -112.756
| 24> C 	 -100.911 	 -3.21395 	 -111.732
| 25> C 	 -101.52 	 -3.2155 	 -110.484
| 26> C 	 -102.664 	 -2.45154 	 -110.286
| 27> C 	 -102.978 	 -1.70611 	 -111.385
| 28> H 	 -101.022 	 -3.71842 	 -109.665
| 29> C 	 -103.293 	 -2.28775 	 -108.887
| 30> H 	 -103.456 	 -3.37509 	 -108.66
| 31> H 	 -104.222 	 -1.71177 	 -108.976
| 32> C 	 -102.364 	 -1.8212 	 -107.756
| 33> H 	 -101.392 	 -2.2512 	 -107.881
| 34> H 	 -102.739 	 -2.0343 	 -106.769
| 35> C 	 -102.16 	 -0.293663 	 -107.782
| 36> H 	 -101.332 	 0.0377357 	 -107.203
| 37> H 	 -102.993 	 0.266501 	 -107.586
| 38> H 	 -101.935 	 0.201676 	 -108.799
| 39> H 	 -105.919 	 2.08481 	 -112.768
| 40> H 	 -99.987 	 -3.73215 	 -112.049
| 41> *
| 42>
| 43>                          ****END OF INPUT****

CARTESIAN COORDINATES (ANGSTROEM)
---------------------------------
  S    -103.818000    0.730016  -112.317000
  C    -105.446000    1.184940  -112.315000
  C    -106.194000    0.058444  -111.946000
  C    -105.428000   -1.008170  -111.513000
  C    -104.062000   -0.720758  -111.554000
  H    -105.792000   -1.904350  -111.118000
  C    -107.721000    0.028592  -112.052000
  H    -108.208000    0.726278  -111.320000
  H    -107.957000   -0.904195  -111.545000
  C    -108.299000    0.150166  -113.457000
  H    -108.158000    1.244980  -113.711000
  H    -107.729000   -0.460180  -114.128000
  C    -109.752000   -0.238387  -113.632000
  H    -109.918000   -0.006222  -114.650000
  H    -109.859000   -1.331180  -113.420000
  H    -110.462000    0.406605  -113.036000
  S    -101.850000   -2.122870  -112.756000
  C    -100.911000   -3.213950  -111.732000
  C    -101.520000   -3.215500  -110.484000
  C    -102.664000   -2.451540  -110.286000
  C    -102.978000   -1.706110  -111.385000
  H    -101.022000   -3.718420  -109.665000
  C    -103.293000   -2.287750  -108.887000
  H    -103.456000   -3.375090  -108.660000
  H    -104.222000   -1.711770  -108.976000
  C    -102.364000   -1.821200  -107.756000
  H    -101.392000   -2.251200  -107.881000
  H    -102.739000   -2.034300  -106.769000
  C    -102.160000   -0.293663  -107.782000
  H    -101.332000    0.037736  -107.203000
  H    -102.993000    0.266501  -107.586000
  H    -101.935000    0.201676  -108.799000
  H    -105.919000    2.084810  -112.768000
  H    -99.987000   -3.732150  -112.049000

 Total Charge           Charge          ....    0
 Multiplicity           Mult            ....    1
 Number of Electrons    NEL             ....  134
 Basis Dimension        Dim             ....  322

ORBITAL ENERGIES
----------------

  NO   OCC          E(Eh)            E(eV)
   0   2.0000     -88.969416     -2420.9809
   1   2.0000     -88.962900     -2420.8036
   2   2.0000     -10.329857      -281.0897
   3   2.0000     -10.323249      -280.9099
   4   2.0000     -10.322892      -280.9002
   5   2.0000     -10.311238      -280.5831
   6   2.0000     -10.297629      -280.2127
   7   2.0000     -10.297473      -280.2085
   8   2.0000     -10.296495      -280.1819
   9   2.0000     -10.289927      -280.0031
  10   2.0000     -10.289884      -280.0020
  11   2.0000     -10.288008      -279.9509
  12   2.0000     -10.287249      -279.9303
  13   2.0000     -10.286617      -279.9131
  14   2.0000     -10.282295      -279.7955
  15   2.0000     -10.265526      -279.3392
  16   2.0000      -8.086368      -220.0412
  17   2.0000      -8.076372      -219.7692
  18   2.0000      -6.044432      -164.4774
  19   2.0000      -6.040304      -164.3650
  20   2.0000      -6.037707      -164.2944
  21   2.0000      -6.034994      -164.2205
  22   2.0000      -6.031049      -164.1132
  23   2.0000      -6.027080      -164.0052
  24   2.0000      -1.020745       -27.7759
  25   2.0000      -0.986998       -26.8576
  26   2.0000      -0.913281       -24.8517
  27   2.0000      -0.905836       -24.6490
  28   2.0000      -0.868898       -23.6439
  29   2.0000      -0.859074       -23.3766
  30   2.0000      -0.845309       -23.0020
  31   2.0000      -0.811378       -22.0787
  32   2.0000      -0.783168       -21.3111
  33   2.0000      -0.774181       -21.0665
  34   2.0000      -0.705320       -19.1927
  35   2.0000      -0.701228       -19.0814
  36   2.0000      -0.693291       -18.8654
  37   2.0000      -0.659565       -17.9477
  38   2.0000      -0.643995       -17.5240
  39   2.0000      -0.617797       -16.8111
  40   2.0000      -0.597443       -16.2573
  41   2.0000      -0.569506       -15.4970
  42   2.0000      -0.563588       -15.3360
  43   2.0000      -0.547607       -14.9011
  44   2.0000      -0.540013       -14.6945
  45   2.0000      -0.530851       -14.4452
  46   2.0000      -0.525794       -14.3076
  47   2.0000      -0.515591       -14.0300
  48   2.0000      -0.507204       -13.8017
  49   2.0000      -0.500134       -13.6093
  50   2.0000      -0.492978       -13.4146
  51   2.0000      -0.475873       -12.9492
  52   2.0000      -0.472581       -12.8596
  53   2.0000      -0.468333       -12.7440
  54   2.0000      -0.458410       -12.4740
  55   2.0000      -0.446258       -12.1433
  56   2.0000      -0.438587       -11.9346
  57   2.0000      -0.434958       -11.8358
  58   2.0000      -0.430982       -11.7276
  59   2.0000      -0.424304       -11.5459
  60   2.0000      -0.421081       -11.4582
  61   2.0000      -0.410456       -11.1691
  62   2.0000      -0.405443       -11.0327
  63   2.0000      -0.345660        -9.4059
  64   2.0000      -0.335090        -9.1182
  65   2.0000      -0.329270        -8.9599
  66   2.0000      -0.292831        -7.9683
  67   0.0000       0.030301         0.8245
  68   0.0000       0.066739         1.8161
  69   0.0000       0.122117         3.3230
  70   0.0000       0.126883         3.4527
  71   0.0000       0.129447         3.5224

MULLIKEN ATOMIC CHARGES
-----------------------
   0 S :    0.139209
   1 C :   -0.125222
   2 C :   -0.115668
   3 C :    0.054855
   4 C :   -0.175393
   5 H :   -0.009771
   6 C :    0.066834
   7 H :    0.035555
   8 H :   -0.005394
   9 C :   -0.090202
  10 H :    0.030305
  11 H :    0.030883
  12 C :   -0.033419
  13 H :    0.029179
  14 H :    0.046021
  15 H :    0.036743
  16 S :    0.086662
  17 C :   -0.110066
  18 C :   -0.047214
  19 C :   -0.019362
  20 C :   -0.152805
  21 H :    0.015524
  22 C :    0.057821
  23 H :    0.036752
  24 H :    0.035989
  25 C :   -0.018889
  26 H :    0.022492
  27 H :    0.033505
  28 C :   -0.056662
  29 H :    0.025386
  30 H :    0.007851
  31 H :    0.026085
  32 H :    0.065591
  33 H :    0.076823
Sum of atomic charges:    0.0000000

LOEWDIN ATOMIC CHARGES
----------------------
   0 S :    0.493496
   1 C :   -0.232797
   2 C :   -0.066148
   3 C :   -0.059623
   4 C :   -0.230884
   5 H :    0.022363
   6 C :   -0.043022
   7 H :    0.035033
   8 H :    0.021707
   9 C :   -0.043193
  10 H :    0.027440
  11 H :    0.023914
  12 C :   -0.063298
  13 H :    0.023702
  14 H :    0.032022
  15 H :    0.029720
  16 S :    0.360625
  17 C :   -0.183294
  18 C :   -0.075660
  19 C :   -0.066277
  20 C :   -0.172976
  21 H :    0.026937
  22 C :   -0.025211
  23 H :    0.040205
  24 H :    0.031007
  25 C :   -0.031216
  26 H :    0.022654
  27 H :    0.026716
  28 C :   -0.070578
  29 H :    0.020371
  30 H :    0.010085
  31 H :    0.035455
  32 H :    0.039756
  33 H :    0.040972

  Mayer bond orders larger than 0.100000
B(  0-S ,  1-C ) :   1.1879 B(  0-S ,  4-C ) :   1.2232 B(  1-C ,  2-C ) :   1.5058
B(  1-C ,  4-C ) :   0.1076 B(  1-C , 32-H ) :   0.9707 B(  2-C ,  3-C ) :   1.3561
B(  2-C ,  6-C ) :   1.0148 B(  3-C ,  4-C ) :   1.4529 B(  3-C ,  5-H ) :   1.0053
B(  4-C , 20-C ) :   1.0260 B(  6-C ,  7-H ) :   0.9364 B(  6-C ,  8-H ) :   0.9394
B(  6-C ,  9-C ) :   1.0537 B(  9-C , 10-H ) :   0.9503 B(  9-C , 11-H ) :   0.9576
B(  9-C , 12-C ) :   1.0944 B( 12-C , 13-H ) :   0.9731 B( 12-C , 14-H ) :   0.9733
B( 12-C , 15-H ) :   0.9721 B( 16-S , 17-C ) :   1.1412 B( 16-S , 20-C ) :   1.1271
B( 17-C , 18-C ) :   1.5998 B( 17-C , 20-C ) :   0.1039 B( 17-C , 33-H ) :   0.9675
B( 18-C , 19-C ) :   1.2516 B( 18-C , 21-H ) :   0.9840 B( 19-C , 20-C ) :   1.6120
B( 19-C , 22-C ) :   1.0337 B( 22-C , 23-H ) :   0.9262 B( 22-C , 24-H ) :   0.9382
B( 22-C , 25-C ) :   1.0779 B( 25-C , 26-H ) :   0.9537 B( 25-C , 27-H ) :   0.9540
B( 25-C , 28-C ) :   1.0699 B( 28-C , 29-H ) :   0.9757 B( 28-C , 30-H ) :   0.9753
B( 28-C , 31-H ) :   0.9733

Dispersion correction           -0.014175568
FINAL SINGLE POINT ENERGY     -1339.863065582404

DIPOLE MOMENT
-------------
                                X             Y             Z
Electronic contribution:     17.60468      -1.35554     -11.16988
Nuclear contribution   :    -17.95827       1.25329      11.44538
                        -----------------------------------------
Total Dipole Moment    :     -0.35359      -0.10225       0.27551
                        -----------------------------------------
Magnitude (a.u.)       :      0.45977
Magnitude (Debye)      :      1.16864

Rotational constants in cm-1:     0.022052     0.007343     0.006612
Rotational constants in MHz :   661.103605   220.145543   198.209781

                             ****ORCA TERMINATED NORMALLY****
TOTAL RUN TIME: 0 days 0 hours 0 minutes 21 seconds 234 msec
