                         Program Version 4.2.1 -  RELEASE  -
|  1> ! wB97X-D3 SP def2-SVP
|  2> %pal
|  3> nprocs 24
|  4> end
|  5>
|  6> * xyz 0 1
|  7> S 	 -88.4396 	 -32.4523 	 -61.3263
|  8> C 	 -87.4449 	 -33.9441 	 -61.4478
|  9> C 	 -86.964 	 -34.4233 	 -60.2512
| 10> C 	 -87.4518 	 -33.5369 	 -59.1645
| 11> C 	 -88.3281 	 -32.5732 	 -59.5928
| 12> H 	 -87.233 	 -33.7063 	 -58.1369
| 13> C 	 -86.022 	 -35.6074 	 -60.0784
| 14> H 	 -85.0633 	 -35.2328 	 -59.7643
| 15> H 	 -85.8931 	 -36.0097 	 -61.0164
| 16> C 	 -86.5157 	 -36.6098 	 -59.0041
| 17> H 	 -86.3194 	 -36.179 	 -57.9825
| 18> H 	 -87.5964 	 -36.9552 	 -59.0346
| 19> C 	 -85.7564 	 -37.9316 	 -59.0561
| 20> H 	 -86.3378 	 -38.6627 	 -58.5072
| 21> H 	 -85.5258 	 -38.2414 	 -60.0617
| 22> H 	 -84.8191 	 -37.718 	 -58.5046
| 23> S 	 -88.6764 	 -29.8803 	 -58.8879
| 24> C 	 -89.5863 	 -29.4787 	 -57.4522
| 25> C 	 -89.8945 	 -30.5925 	 -56.7894
| 26> C 	 -89.5801 	 -31.819 	 -57.4703
| 27> C 	 -88.9938 	 -31.6422 	 -58.6955
| 28> H 	 -90.3787 	 -30.6472 	 -55.8156
| 29> C 	 -89.9944 	 -33.1329 	 -56.8374
| 30> H 	 -89.8965 	 -33.8844 	 -57.6405
| 31> H 	 -91.1077 	 -33.1495 	 -56.4905
| 32> C 	 -89.1651 	 -33.5789 	 -55.663
| 33> H 	 -88.9513 	 -32.9036 	 -54.9226
| 34> H 	 -88.1641 	 -33.8275 	 -56.0278
| 35> C 	 -89.7581 	 -34.8354 	 -54.9133
| 36> H 	 -90.7083 	 -34.6266 	 -54.4224
| 37> H 	 -89.0994 	 -35.0595 	 -54.0453
| 38> H 	 -90.0423 	 -35.7318 	 -55.5787
| 39> H 	 -87.1255 	 -34.3438 	 -62.4236
| 40> H 	 -89.5928 	 -28.4382 	 -56.9547
| 41> *
| 42>
| 43>                          ****END OF INPUT****

CARTESIAN COORDINATES (ANGSTROEM)
---------------------------------
  S    -88.439600  -32.452300  -61.326300
  C    -87.444900  -33.944100  -61.447800
  C    -86.964000  -34.423300  -60.251200
  C    -87.451800  -33.536900  -59.164500
  C    -88.328100  -32.573200  -59.592800
  H    -87.233000  -33.706300  -58.136900
  C    -86.022000  -35.607400  -60.078400
  H    -85.063300  -35.232800  -59.764300
  H    -85.893100  -36.009700  -61.016400
  C    -86.515700  -36.609800  -59.004100
  H    -86.319400  -36.179000  -57.982500
  H    -87.596400  -36.955200  -59.034600
  C    -85.756400  -37.931600  -59.056100
  H    -86.337800  -38.662700  -58.507200
  H    -85.525800  -38.241400  -60.061700
  H    -84.819100  -37.718000  -58.504600
  S    -88.676400  -29.880300  -58.887900
  C    -89.586300  -29.478700  -57.452200
  C    -89.894500  -30.592500  -56.789400
  C    -89.580100  -31.819000  -57.470300
  C    -88.993800  -31.642200  -58.695500
  H    -90.378700  -30.647200  -55.815600
  C    -89.994400  -33.132900  -56.837400
  H    -89.896500  -33.884400  -57.640500
  H    -91.107700  -33.149500  -56.490500
  C    -89.165100  -33.578900  -55.663000
  H    -88.951300  -32.903600  -54.922600
  H    -88.164100  -33.827500  -56.027800
  C    -89.758100  -34.835400  -54.913300
  H    -90.708300  -34.626600  -54.422400
  H    -89.099400  -35.059500  -54.045300
  H    -90.042300  -35.731800  -55.578700
  H    -87.125500  -34.343800  -62.423600
  H    -89.592800  -28.438200  -56.954700

 Total Charge           Charge          ....    0
 Multiplicity           Mult            ....    1
 Number of Electrons    NEL             ....  134
 Basis Dimension        Dim             ....  322

ORBITAL ENERGIES
----------------

  NO   OCC          E(Eh)            E(eV)
   0   2.0000     -88.967131     -2420.9187
   1   2.0000     -88.959051     -2420.6989
   2   2.0000     -10.329734      -281.0863
   3   2.0000     -10.327900      -281.0364
   4   2.0000     -10.319509      -280.8081
   5   2.0000     -10.318300      -280.7752
   6   2.0000     -10.307199      -280.4731
   7   2.0000     -10.300329      -280.2862
   8   2.0000     -10.297325      -280.2045
   9   2.0000     -10.296775      -280.1895
  10   2.0000     -10.296642      -280.1859
  11   2.0000     -10.294466      -280.1267
  12   2.0000     -10.289584      -279.9938
  13   2.0000     -10.288014      -279.9511
  14   2.0000     -10.284251      -279.8487
  15   2.0000     -10.278496      -279.6921
  16   2.0000      -8.081446      -219.9073
  17   2.0000      -8.073682      -219.6961
  18   2.0000      -6.040064      -164.3585
  19   2.0000      -6.036278      -164.2555
  20   2.0000      -6.032413      -164.1503
  21   2.0000      -6.031841      -164.1347
  22   2.0000      -6.028296      -164.0383
  23   2.0000      -6.024096      -163.9240
  24   2.0000      -1.004636       -27.3375
  25   2.0000      -0.981021       -26.6949
  26   2.0000      -0.915344       -24.9078
  27   2.0000      -0.908536       -24.7225
  28   2.0000      -0.872631       -23.7455
  29   2.0000      -0.850289       -23.1375
  30   2.0000      -0.841593       -22.9009
  31   2.0000      -0.815378       -22.1876
  32   2.0000      -0.784130       -21.3373
  33   2.0000      -0.770576       -20.9684
  34   2.0000      -0.708529       -19.2801
  35   2.0000      -0.699256       -19.0277
  36   2.0000      -0.687563       -18.7096
  37   2.0000      -0.659200       -17.9377
  38   2.0000      -0.640385       -17.4258
  39   2.0000      -0.619738       -16.8639
  40   2.0000      -0.597505       -16.2589
  41   2.0000      -0.576462       -15.6863
  42   2.0000      -0.560210       -15.2441
  43   2.0000      -0.554670       -15.0933
  44   2.0000      -0.535615       -14.5748
  45   2.0000      -0.527555       -14.3555
  46   2.0000      -0.515928       -14.0391
  47   2.0000      -0.513222       -13.9655
  48   2.0000      -0.506891       -13.7932
  49   2.0000      -0.496462       -13.5094
  50   2.0000      -0.487345       -13.2613
  51   2.0000      -0.480111       -13.0645
  52   2.0000      -0.468809       -12.7569
  53   2.0000      -0.464425       -12.6376
  54   2.0000      -0.452784       -12.3209
  55   2.0000      -0.448920       -12.2157
  56   2.0000      -0.445428       -12.1207
  57   2.0000      -0.442235       -12.0338
  58   2.0000      -0.440405       -11.9840
  59   2.0000      -0.429698       -11.6927
  60   2.0000      -0.416783       -11.3412
  61   2.0000      -0.413466       -11.2510
  62   2.0000      -0.407800       -11.0968
  63   2.0000      -0.349372        -9.5069
  64   2.0000      -0.330307        -8.9881
  65   2.0000      -0.325769        -8.8646
  66   2.0000      -0.299062        -8.1379
  67   0.0000       0.031977         0.8701
  68   0.0000       0.072788         1.9807
  69   0.0000       0.105658         2.8751
  70   0.0000       0.122825         3.3422
  71   0.0000       0.123564         3.3624

MULLIKEN ATOMIC CHARGES
-----------------------
   0 S :    0.108176
   1 C :   -0.133775
   2 C :   -0.103411
   3 C :    0.046311
   4 C :   -0.155948
   5 H :   -0.012126
   6 C :    0.161369
   7 H :    0.033393
   8 H :   -0.009502
   9 C :   -0.159243
  10 H :    0.040338
  11 H :    0.049011
  12 C :   -0.027474
  13 H :    0.036307
  14 H :    0.030953
  15 H :    0.027876
  16 S :    0.072691
  17 C :   -0.094315
  18 C :   -0.022297
  19 C :   -0.048708
  20 C :   -0.114137
  21 H :    0.017311
  22 C :    0.019520
  23 H :    0.034936
  24 H :    0.044793
  25 C :   -0.027471
  26 H :    0.006960
  27 H :    0.014801
  28 C :   -0.090396
  29 H :    0.024809
  30 H :    0.041167
  31 H :    0.047218
  32 H :    0.050353
  33 H :    0.090509
Sum of atomic charges:   -0.0000000

LOEWDIN ATOMIC CHARGES
----------------------
   0 S :    0.384577
   1 C :   -0.185354
   2 C :   -0.051791
   3 C :   -0.049826
   4 C :   -0.195301
   5 H :    0.021588
   6 C :   -0.017740
   7 H :    0.036732
   8 H :    0.017783
   9 C :   -0.048784
  10 H :    0.027760
  11 H :    0.031171
  12 C :   -0.062877
  13 H :    0.026366
  14 H :    0.020305
  15 H :    0.027112
  16 S :    0.372040
  17 C :   -0.193351
  18 C :   -0.076796
  19 C :   -0.059652
  20 C :   -0.178493
  21 H :    0.031934
  22 C :   -0.038621
  23 H :    0.033675
  24 H :    0.039786
  25 C :   -0.036877
  26 H :    0.011817
  27 H :    0.021527
  28 C :   -0.075927
  29 H :    0.020377
  30 H :    0.031010
  31 H :    0.034196
  32 H :    0.027798
  33 H :    0.053833

  Mayer bond orders larger than 0.100000
B(  0-S ,  1-C ) :   1.1096 B(  0-S ,  4-C ) :   1.1318 B(  1-C ,  2-C ) :   1.6765
B(  1-C , 32-H ) :   0.9590 B(  2-C ,  3-C ) :   1.1840 B(  2-C ,  6-C ) :   1.0299
B(  3-C ,  4-C ) :   1.6119 B(  3-C ,  5-H ) :   0.9957 B(  4-C , 20-C ) :   1.0296
B(  6-C ,  7-H ) :   0.9291 B(  6-C ,  8-H ) :   0.9365 B(  6-C ,  9-C ) :   1.0483
B(  9-C , 10-H ) :   0.9554 B(  9-C , 11-H ) :   0.9693 B(  9-C , 12-C ) :   1.0793
B( 12-C , 13-H ) :   0.9782 B( 12-C , 14-H ) :   0.9775 B( 12-C , 15-H ) :   0.9760
B( 16-S , 17-C ) :   1.1341 B( 16-S , 20-C ) :   1.1140 B( 17-C , 18-C ) :   1.6342
B( 17-C , 33-H ) :   0.9516 B( 18-C , 19-C ) :   1.2286 B( 18-C , 21-H ) :   0.9871
B( 19-C , 20-C ) :   1.6382 B( 19-C , 22-C ) :   1.0452 B( 22-C , 23-H ) :   0.9298
B( 22-C , 24-H ) :   0.9467 B( 22-C , 25-C ) :   1.0573 B( 25-C , 26-H ) :   0.9546
B( 25-C , 27-H ) :   0.9453 B( 25-C , 28-C ) :   1.0778 B( 28-C , 29-H ) :   0.9739
B( 28-C , 30-H ) :   0.9744 B( 28-C , 31-H ) :   0.9751

Dispersion correction           -0.014117482
FINAL SINGLE POINT ENERGY     -1339.868898474642

DIPOLE MOMENT
-------------
                                X             Y             Z
Electronic contribution:     -5.04209      28.43722     -17.96354
Nuclear contribution   :      5.35250     -29.04727      18.57231
                        -----------------------------------------
Total Dipole Moment    :      0.31040      -0.61005       0.60877
                        -----------------------------------------
Magnitude (a.u.)       :      0.91603
Magnitude (Debye)      :      2.32836

Rotational constants in cm-1:     0.016549     0.009531     0.006451
Rotational constants in MHz :   496.140550   285.733559   193.388314

                             ****ORCA TERMINATED NORMALLY****
TOTAL RUN TIME: 0 days 0 hours 0 minutes 21 seconds 531 msec
