                         Program Version 4.2.1 -  RELEASE  -
|  1> ! wB97X-D3 SP def2-SVP
|  2> %pal
|  3> nprocs 24
|  4> end
|  5>
|  6> * xyz 0 1
|  7> S 	 34.4866 	 -32.1411 	 -132.718
|  8> C 	 35.0007 	 -30.6452 	 -131.89
|  9> C 	 34.9526 	 -30.7156 	 -130.508
| 10> C 	 34.5007 	 -32.0421 	 -130.084
| 11> C 	 34.2223 	 -32.9021 	 -131.174
| 12> H 	 34.2838 	 -32.5522 	 -129.104
| 13> C 	 35.3323 	 -29.577 	 -129.686
| 14> H 	 34.7064 	 -29.3993 	 -128.874
| 15> H 	 35.2999 	 -28.6673 	 -130.225
| 16> C 	 36.7679 	 -29.6855 	 -129.215
| 17> H 	 36.8626 	 -28.953 	 -128.439
| 18> H 	 36.945 	 -30.7167 	 -128.787
| 19> C 	 37.7161 	 -29.3912 	 -130.365
| 20> H 	 38.6955 	 -29.3041 	 -129.954
| 21> H 	 37.6158 	 -30.1816 	 -131.132
| 22> H 	 37.4768 	 -28.4369 	 -130.833
| 23> S 	 34.9753 	 -35.2734 	 -132.34
| 24> C 	 34.2385 	 -36.744 	 -131.762
| 25> C 	 33.3372 	 -36.597 	 -130.759
| 26> C 	 33.1691 	 -35.2405 	 -130.442
| 27> C 	 33.9852 	 -34.355 	 -131.126
| 28> H 	 32.9063 	 -37.4141 	 -130.22
| 29> C 	 32.2797 	 -34.7072 	 -129.351
| 30> H 	 31.5838 	 -33.9191 	 -129.692
| 31> H 	 32.9879 	 -34.2013 	 -128.721
| 32> C 	 31.4668 	 -35.7753 	 -128.53
| 33> H 	 32.1324 	 -36.5673 	 -128.281
| 34> H 	 30.6076 	 -36.252 	 -129.127
| 35> C 	 30.913 	 -35.2598 	 -127.201
| 36> H 	 30.2707 	 -36.0724 	 -126.693
| 37> H 	 30.3375 	 -34.3516 	 -127.314
| 38> H 	 31.8073 	 -35.0502 	 -126.55
| 39> H 	 35.1972 	 -29.7096 	 -132.413
| 40> H 	 34.5039 	 -37.6845 	 -132.202
| 41> *
| 42>
| 43>                          ****END OF INPUT****

CARTESIAN COORDINATES (ANGSTROEM)
---------------------------------
  S     34.486600  -32.141100  -132.718000
  C     35.000700  -30.645200  -131.890000
  C     34.952600  -30.715600  -130.508000
  C     34.500700  -32.042100  -130.084000
  C     34.222300  -32.902100  -131.174000
  H     34.283800  -32.552200  -129.104000
  C     35.332300  -29.577000  -129.686000
  H     34.706400  -29.399300  -128.874000
  H     35.299900  -28.667300  -130.225000
  C     36.767900  -29.685500  -129.215000
  H     36.862600  -28.953000  -128.439000
  H     36.945000  -30.716700  -128.787000
  C     37.716100  -29.391200  -130.365000
  H     38.695500  -29.304100  -129.954000
  H     37.615800  -30.181600  -131.132000
  H     37.476800  -28.436900  -130.833000
  S     34.975300  -35.273400  -132.340000
  C     34.238500  -36.744000  -131.762000
  C     33.337200  -36.597000  -130.759000
  C     33.169100  -35.240500  -130.442000
  C     33.985200  -34.355000  -131.126000
  H     32.906300  -37.414100  -130.220000
  C     32.279700  -34.707200  -129.351000
  H     31.583800  -33.919100  -129.692000
  H     32.987900  -34.201300  -128.721000
  C     31.466800  -35.775300  -128.530000
  H     32.132400  -36.567300  -128.281000
  H     30.607600  -36.252000  -129.127000
  C     30.913000  -35.259800  -127.201000
  H     30.270700  -36.072400  -126.693000
  H     30.337500  -34.351600  -127.314000
  H     31.807300  -35.050200  -126.550000
  H     35.197200  -29.709600  -132.413000
  H     34.503900  -37.684500  -132.202000

 Total Charge           Charge          ....    0
 Multiplicity           Mult            ....    1
 Number of Electrons    NEL             ....  134
 Basis Dimension        Dim             ....  322

ORBITAL ENERGIES
----------------

  NO   OCC          E(Eh)            E(eV)
   0   2.0000     -88.967736     -2420.9352
   1   2.0000     -88.963175     -2420.8111
   2   2.0000     -10.333755      -281.1958
   3   2.0000     -10.327277      -281.0195
   4   2.0000     -10.315402      -280.6964
   5   2.0000     -10.313927      -280.6562
   6   2.0000     -10.306881      -280.4645
   7   2.0000     -10.306200      -280.4460
   8   2.0000     -10.302092      -280.3342
   9   2.0000     -10.294156      -280.1182
  10   2.0000     -10.293636      -280.1041
  11   2.0000     -10.289643      -279.9954
  12   2.0000     -10.289108      -279.9809
  13   2.0000     -10.283348      -279.8241
  14   2.0000     -10.277205      -279.6570
  15   2.0000     -10.272096      -279.5179
  16   2.0000      -8.081931      -219.9205
  17   2.0000      -8.077353      -219.7960
  18   2.0000      -6.040427      -164.3684
  19   2.0000      -6.036589      -164.2639
  20   2.0000      -6.035779      -164.2419
  21   2.0000      -6.032657      -164.1570
  22   2.0000      -6.032029      -164.1399
  23   2.0000      -6.028126      -164.0337
  24   2.0000      -1.003135       -27.2967
  25   2.0000      -0.981428       -26.7060
  26   2.0000      -0.926058       -25.1993
  27   2.0000      -0.906732       -24.6734
  28   2.0000      -0.867518       -23.6064
  29   2.0000      -0.853931       -23.2366
  30   2.0000      -0.841798       -22.9065
  31   2.0000      -0.814128       -22.1535
  32   2.0000      -0.786464       -21.4008
  33   2.0000      -0.770323       -20.9616
  34   2.0000      -0.706903       -19.2358
  35   2.0000      -0.701746       -19.0955
  36   2.0000      -0.688416       -18.7328
  37   2.0000      -0.654028       -17.7970
  38   2.0000      -0.646237       -17.5850
  39   2.0000      -0.613429       -16.6923
  40   2.0000      -0.601675       -16.3724
  41   2.0000      -0.580014       -15.7830
  42   2.0000      -0.568510       -15.4699
  43   2.0000      -0.554918       -15.1001
  44   2.0000      -0.540817       -14.7164
  45   2.0000      -0.526937       -14.3387
  46   2.0000      -0.516820       -14.0634
  47   2.0000      -0.511072       -13.9070
  48   2.0000      -0.497875       -13.5479
  49   2.0000      -0.492076       -13.3901
  50   2.0000      -0.486748       -13.2451
  51   2.0000      -0.481685       -13.1073
  52   2.0000      -0.473666       -12.8891
  53   2.0000      -0.464645       -12.6436
  54   2.0000      -0.460469       -12.5300
  55   2.0000      -0.454855       -12.3772
  56   2.0000      -0.443204       -12.0602
  57   2.0000      -0.432534       -11.7699
  58   2.0000      -0.431158       -11.7324
  59   2.0000      -0.427536       -11.6338
  60   2.0000      -0.424541       -11.5523
  61   2.0000      -0.420301       -11.4370
  62   2.0000      -0.413950       -11.2642
  63   2.0000      -0.347343        -9.4517
  64   2.0000      -0.333794        -9.0830
  65   2.0000      -0.329342        -8.9618
  66   2.0000      -0.285485        -7.7684
  67   0.0000       0.026232         0.7138
  68   0.0000       0.067390         1.8338
  69   0.0000       0.103178         2.8076
  70   0.0000       0.117753         3.2042
  71   0.0000       0.136411         3.7119

MULLIKEN ATOMIC CHARGES
-----------------------
   0 S :    0.109887
   1 C :   -0.128703
   2 C :   -0.079720
   3 C :    0.011505
   4 C :   -0.157365
   5 H :    0.030234
   6 C :    0.124300
   7 H :    0.007222
   8 H :   -0.003396
   9 C :   -0.087801
  10 H :    0.020224
  11 H :    0.039981
  12 C :   -0.037846
  13 H :    0.031234
  14 H :    0.052993
  15 H :    0.014498
  16 S :    0.086163
  17 C :   -0.066125
  18 C :   -0.025615
  19 C :   -0.030107
  20 C :   -0.161152
  21 H :    0.014278
  22 C :    0.048428
  23 H :    0.049074
  24 H :    0.020075
  25 C :   -0.105593
  26 H :    0.024591
  27 H :    0.046974
  28 C :   -0.070256
  29 H :    0.050692
  30 H :    0.037402
  31 H :    0.038019
  32 H :    0.050848
  33 H :    0.045057
Sum of atomic charges:   -0.0000000

LOEWDIN ATOMIC CHARGES
----------------------
   0 S :    0.392881
   1 C :   -0.190569
   2 C :   -0.051413
   3 C :   -0.071812
   4 C :   -0.196207
   5 H :    0.039474
   6 C :   -0.030231
   7 H :    0.023304
   8 H :    0.025966
   9 C :   -0.032613
  10 H :    0.018051
  11 H :    0.029883
  12 C :   -0.062500
  13 H :    0.023031
  14 H :    0.031538
  15 H :    0.020475
  16 S :    0.377871
  17 C :   -0.167905
  18 C :   -0.075563
  19 C :   -0.055007
  20 C :   -0.181069
  21 H :    0.033100
  22 C :   -0.032832
  23 H :    0.038834
  24 H :    0.027327
  25 C :   -0.048874
  26 H :    0.016347
  27 H :    0.031762
  28 C :   -0.070745
  29 H :    0.037316
  30 H :    0.020902
  31 H :    0.029221
  32 H :    0.027873
  33 H :    0.022185

  Mayer bond orders larger than 0.100000
B(  0-S ,  1-C ) :   1.1156 B(  0-S ,  4-C ) :   1.1523 B(  1-C ,  2-C ) :   1.6307
B(  1-C , 32-H ) :   0.9617 B(  2-C ,  3-C ) :   1.1976 B(  2-C ,  6-C ) :   1.0528
B(  3-C ,  4-C ) :   1.5835 B(  3-C ,  5-H ) :   0.9799 B(  4-C , 20-C ) :   1.0448
B(  6-C ,  7-H ) :   0.9269 B(  6-C ,  8-H ) :   0.9297 B(  6-C ,  9-C ) :   1.0697
B(  9-C , 10-H ) :   0.9540 B(  9-C , 11-H ) :   0.9558 B(  9-C , 12-C ) :   1.0825
B( 12-C , 13-H ) :   0.9722 B( 12-C , 14-H ) :   0.9709 B( 12-C , 15-H ) :   0.9713
B( 16-S , 17-C ) :   1.1666 B( 16-S , 20-C ) :   1.1145 B( 17-C , 18-C ) :   1.5982
B( 17-C , 33-H ) :   0.9618 B( 18-C , 19-C ) :   1.2496 B( 18-C , 21-H ) :   0.9941
B( 19-C , 20-C ) :   1.6201 B( 19-C , 22-C ) :   1.0162 B( 22-C , 23-H ) :   0.9278
B( 22-C , 24-H ) :   0.9360 B( 22-C , 25-C ) :   1.0785 B( 25-C , 26-H ) :   0.9495
B( 25-C , 27-H ) :   0.9541 B( 25-C , 28-C ) :   1.0857 B( 28-C , 29-H ) :   0.9723
B( 28-C , 30-H ) :   0.9763 B( 28-C , 31-H ) :   0.9740

Dispersion correction           -0.013789521
FINAL SINGLE POINT ENERGY     -1339.874890761304

DIPOLE MOMENT
-------------
                                X             Y             Z
Electronic contribution:      2.65536      -8.26267     -22.04585
Nuclear contribution   :     -2.77862       8.38549      22.69067
                        -----------------------------------------
Total Dipole Moment    :     -0.12326       0.12282       0.64481
                        -----------------------------------------
Magnitude (a.u.)       :      0.66788
Magnitude (Debye)      :      1.69762

Rotational constants in cm-1:     0.019328     0.008011     0.006318
Rotational constants in MHz :   579.434161   240.171423   189.413342

                             ****ORCA TERMINATED NORMALLY****
TOTAL RUN TIME: 0 days 0 hours 0 minutes 21 seconds 311 msec
