                         Program Version 4.2.1 -  RELEASE  -
|  1> ! wB97X-D3 SP def2-SVP
|  2> %pal
|  3> nprocs 24
|  4> end
|  5>
|  6> * xyz 0 1
|  7> S 	 -134.277 	 6.38274 	 -0.559332
|  8> C 	 -132.693 	 7.10761 	 -0.449226
|  9> C 	 -131.895 	 6.57522 	 0.525283
| 10> C 	 -132.604 	 5.4199 	 1.05487
| 11> C 	 -133.885 	 5.17552 	 0.576956
| 12> H 	 -132.279 	 4.76844 	 1.86206
| 13> C 	 -130.383 	 6.80872 	 0.6902
| 14> H 	 -130.002 	 6.86199 	 -0.302083
| 15> H 	 -129.97 	 5.89404 	 1.11616
| 16> C 	 -129.911 	 8.00255 	 1.62131
| 17> H 	 -128.783 	 8.01943 	 1.45043
| 18> H 	 -130.296 	 8.90708 	 1.28083
| 19> C 	 -130.113 	 7.81886 	 3.13771
| 20> H 	 -129.858 	 8.78996 	 3.49699
| 21> H 	 -131.146 	 7.62662 	 3.39425
| 22> H 	 -129.388 	 7.06483 	 3.52604
| 23> S 	 -136.337 	 4.7232 	 1.8301
| 24> C 	 -136.395 	 3.22489 	 2.79413
| 25> C 	 -135.412 	 2.33258 	 2.51121
| 26> C 	 -134.523 	 2.86531 	 1.48346
| 27> C 	 -134.791 	 4.19387 	 1.22333
| 28> H 	 -135.314 	 1.35065 	 2.97513
| 29> C 	 -133.268 	 2.05812 	 1.0018
| 30> H 	 -133.105 	 1.0937 	 1.54929
| 31> H 	 -132.452 	 2.62823 	 1.41699
| 32> C 	 -133.161 	 1.77856 	 -0.474613
| 33> H 	 -132.166 	 1.594 	 -0.863552
| 34> H 	 -133.459 	 2.71363 	 -0.909086
| 35> C 	 -134.128 	 0.654161 	 -0.849946
| 36> H 	 -135.103 	 1.06343 	 -0.640157
| 37> H 	 -134.04 	 -0.289289 	 -0.386245
| 38> H 	 -134.147 	 0.572653 	 -1.93413
| 39> H 	 -132.347 	 7.95327 	 -1.07304
| 40> H 	 -137.122 	 3.13436 	 3.59477
| 41> *
| 42>
| 43>                          ****END OF INPUT****

CARTESIAN COORDINATES (ANGSTROEM)
---------------------------------
  S    -134.277000    6.382740   -0.559332
  C    -132.693000    7.107610   -0.449226
  C    -131.895000    6.575220    0.525283
  C    -132.604000    5.419900    1.054870
  C    -133.885000    5.175520    0.576956
  H    -132.279000    4.768440    1.862060
  C    -130.383000    6.808720    0.690200
  H    -130.002000    6.861990   -0.302083
  H    -129.970000    5.894040    1.116160
  C    -129.911000    8.002550    1.621310
  H    -128.783000    8.019430    1.450430
  H    -130.296000    8.907080    1.280830
  C    -130.113000    7.818860    3.137710
  H    -129.858000    8.789960    3.496990
  H    -131.146000    7.626620    3.394250
  H    -129.388000    7.064830    3.526040
  S    -136.337000    4.723200    1.830100
  C    -136.395000    3.224890    2.794130
  C    -135.412000    2.332580    2.511210
  C    -134.523000    2.865310    1.483460
  C    -134.791000    4.193870    1.223330
  H    -135.314000    1.350650    2.975130
  C    -133.268000    2.058120    1.001800
  H    -133.105000    1.093700    1.549290
  H    -132.452000    2.628230    1.416990
  C    -133.161000    1.778560   -0.474613
  H    -132.166000    1.594000   -0.863552
  H    -133.459000    2.713630   -0.909086
  C    -134.128000    0.654161   -0.849946
  H    -135.103000    1.063430   -0.640157
  H    -134.040000   -0.289289   -0.386245
  H    -134.147000    0.572653   -1.934130
  H    -132.347000    7.953270   -1.073040
  H    -137.122000    3.134360    3.594770

 Total Charge           Charge          ....    0
 Multiplicity           Mult            ....    1
 Number of Electrons    NEL             ....  134
 Basis Dimension        Dim             ....  322

ORBITAL ENERGIES
----------------

  NO   OCC          E(Eh)            E(eV)
   0   2.0000     -88.967590     -2420.9312
   1   2.0000     -88.965691     -2420.8795
   2   2.0000     -10.329265      -281.0736
   3   2.0000     -10.326106      -280.9876
   4   2.0000     -10.317773      -280.7609
   5   2.0000     -10.315156      -280.6897
   6   2.0000     -10.307053      -280.4692
   7   2.0000     -10.302952      -280.3576
   8   2.0000     -10.297315      -280.2042
   9   2.0000     -10.295882      -280.1652
  10   2.0000     -10.292877      -280.0834
  11   2.0000     -10.291371      -280.0424
  12   2.0000     -10.291084      -280.0346
  13   2.0000     -10.279131      -279.7094
  14   2.0000     -10.276649      -279.6418
  15   2.0000     -10.265504      -279.3386
  16   2.0000      -8.083104      -219.9524
  17   2.0000      -8.080507      -219.8818
  18   2.0000      -6.041536      -164.3985
  19   2.0000      -6.039039      -164.3306
  20   2.0000      -6.037514      -164.2891
  21   2.0000      -6.035292      -164.2286
  22   2.0000      -6.033889      -164.1905
  23   2.0000      -6.030945      -164.1103
  24   2.0000      -1.008432       -27.4408
  25   2.0000      -0.985053       -26.8047
  26   2.0000      -0.907898       -24.7052
  27   2.0000      -0.905832       -24.6489
  28   2.0000      -0.868773       -23.6405
  29   2.0000      -0.849028       -23.1032
  30   2.0000      -0.844894       -22.9907
  31   2.0000      -0.811072       -22.0704
  32   2.0000      -0.785757       -21.3815
  33   2.0000      -0.774338       -21.0708
  34   2.0000      -0.704977       -19.1834
  35   2.0000      -0.700398       -19.0588
  36   2.0000      -0.684403       -18.6236
  37   2.0000      -0.662620       -18.0308
  38   2.0000      -0.638642       -17.3783
  39   2.0000      -0.609430       -16.5834
  40   2.0000      -0.594039       -16.1646
  41   2.0000      -0.575014       -15.6469
  42   2.0000      -0.555222       -15.1083
  43   2.0000      -0.547765       -14.9054
  44   2.0000      -0.544034       -14.8039
  45   2.0000      -0.541143       -14.7252
  46   2.0000      -0.516432       -14.0528
  47   2.0000      -0.511113       -13.9081
  48   2.0000      -0.497994       -13.5511
  49   2.0000      -0.490870       -13.3573
  50   2.0000      -0.488762       -13.2999
  51   2.0000      -0.474099       -12.9009
  52   2.0000      -0.471716       -12.8360
  53   2.0000      -0.465583       -12.6692
  54   2.0000      -0.463521       -12.6131
  55   2.0000      -0.445377       -12.1193
  56   2.0000      -0.442796       -12.0491
  57   2.0000      -0.435642       -11.8544
  58   2.0000      -0.431416       -11.7394
  59   2.0000      -0.426114       -11.5951
  60   2.0000      -0.419848       -11.4246
  61   2.0000      -0.415421       -11.3042
  62   2.0000      -0.410614       -11.1734
  63   2.0000      -0.349093        -9.4993
  64   2.0000      -0.331706        -9.0262
  65   2.0000      -0.330063        -8.9815
  66   2.0000      -0.291643        -7.9360
  67   0.0000       0.033937         0.9235
  68   0.0000       0.067669         1.8414
  69   0.0000       0.104423         2.8415
  70   0.0000       0.113728         3.0947
  71   0.0000       0.137078         3.7301

MULLIKEN ATOMIC CHARGES
-----------------------
   0 S :    0.115049
   1 C :   -0.139306
   2 C :   -0.054036
   3 C :   -0.007636
   4 C :   -0.149053
   5 H :    0.016738
   6 C :    0.055629
   7 H :    0.030488
   8 H :    0.017060
   9 C :   -0.083973
  10 H :    0.034373
  11 H :    0.017076
  12 C :   -0.034704
  13 H :    0.028539
  14 H :    0.044279
  15 H :    0.042533
  16 S :    0.104719
  17 C :   -0.095114
  18 C :   -0.013356
  19 C :   -0.071444
  20 C :   -0.152552
  21 H :    0.030011
  22 C :    0.054718
  23 H :    0.014065
  24 H :    0.016628
  25 C :   -0.030050
  26 H :    0.024750
  27 H :    0.023922
  28 C :   -0.028406
  29 H :    0.022410
  30 H :    0.026757
  31 H :    0.025601
  32 H :    0.057120
  33 H :    0.057165
Sum of atomic charges:   -0.0000000

LOEWDIN ATOMIC CHARGES
----------------------
   0 S :    0.421046
   1 C :   -0.197051
   2 C :   -0.069225
   3 C :   -0.062950
   4 C :   -0.219922
   5 H :    0.025798
   6 C :   -0.027325
   7 H :    0.029702
   8 H :    0.030348
   9 C :   -0.033558
  10 H :    0.032106
  11 H :    0.010044
  12 C :   -0.061142
  13 H :    0.026100
  14 H :    0.025800
  15 H :    0.031405
  16 S :    0.383853
  17 C :   -0.168428
  18 C :   -0.065829
  19 C :   -0.054272
  20 C :   -0.194646
  21 H :    0.037643
  22 C :   -0.034765
  23 H :    0.028939
  24 H :    0.026371
  25 C :   -0.037492
  26 H :    0.021956
  27 H :    0.025297
  28 C :   -0.060131
  29 H :    0.027375
  30 H :    0.017331
  31 H :    0.026427
  32 H :    0.033212
  33 H :    0.025983

  Mayer bond orders larger than 0.100000
B(  0-S ,  1-C ) :   1.1526 B(  0-S ,  4-C ) :   1.1381 B(  1-C ,  2-C ) :   1.6186
B(  1-C , 32-H ) :   0.9584 B(  2-C ,  3-C ) :   1.2415 B(  2-C ,  6-C ) :   1.0026
B(  3-C ,  4-C ) :   1.5887 B(  3-C ,  5-H ) :   0.9807 B(  4-C , 20-C ) :   1.0270
B(  6-C ,  7-H ) :   0.9510 B(  6-C ,  8-H ) :   0.9480 B(  6-C ,  9-C ) :   1.0556
B(  9-C , 10-H ) :   0.9570 B(  9-C , 11-H ) :   0.9652 B(  9-C , 12-C ) :   1.0738
B( 12-C , 13-H ) :   0.9731 B( 12-C , 14-H ) :   0.9774 B( 12-C , 15-H ) :   0.9760
B( 16-S , 17-C ) :   1.1271 B( 16-S , 20-C ) :   1.1279 B( 17-C , 18-C ) :   1.6552
B( 17-C , 33-H ) :   0.9672 B( 18-C , 19-C ) :   1.1938 B( 18-C , 21-H ) :   0.9907
B( 19-C , 20-C ) :   1.6370 B( 19-C , 22-C ) :   1.0200 B( 22-C , 23-H ) :   0.9425
B( 22-C , 24-H ) :   0.9322 B( 22-C , 25-C ) :   1.0643 B( 25-C , 26-H ) :   0.9555
B( 25-C , 27-H ) :   0.9554 B( 25-C , 28-C ) :   1.0748 B( 28-C , 29-H ) :   0.9743
B( 28-C , 30-H ) :   0.9784 B( 28-C , 31-H ) :   0.9714

Dispersion correction           -0.014516571
FINAL SINGLE POINT ENERGY     -1339.865656503094

DIPOLE MOMENT
-------------
                                X             Y             Z
Electronic contribution:    -21.68250       6.40029      -2.01679
Nuclear contribution   :     22.34845      -6.50903       2.26225
                        -----------------------------------------
Total Dipole Moment    :      0.66594      -0.10874       0.24546
                        -----------------------------------------
Magnitude (a.u.)       :      0.71802
Magnitude (Debye)      :      1.82507

Rotational constants in cm-1:     0.018952     0.008048     0.007413
Rotational constants in MHz :   568.151840   241.259591   222.237489

                             ****ORCA TERMINATED NORMALLY****
TOTAL RUN TIME: 0 days 0 hours 0 minutes 21 seconds 631 msec
