                         Program Version 4.2.1 -  RELEASE  -
|  1> ! wB97X-D3 SP def2-SVP
|  2> %pal
|  3> nprocs 24
|  4> end
|  5>
|  6> * xyz 0 1
|  7> S 	 -115.315 	 23.8611 	 -116.683
|  8> C 	 -116.87 	 24.1347 	 -117.292
|  9> C 	 -117.728 	 24.6662 	 -116.443
| 10> C 	 -117.155 	 24.8259 	 -115.136
| 11> C 	 -115.858 	 24.3188 	 -115.022
| 12> H 	 -117.637 	 25.2176 	 -114.255
| 13> C 	 -119.103 	 25.1535 	 -116.778
| 14> H 	 -119.301 	 24.9919 	 -117.8
| 15> H 	 -119.112 	 26.2752 	 -116.713
| 16> C 	 -120.197 	 24.4855 	 -115.88
| 17> H 	 -120.041 	 24.7471 	 -114.817
| 18> H 	 -121.115 	 25.0594 	 -116.078
| 19> C 	 -120.324 	 23.0054 	 -116.3
| 20> H 	 -119.454 	 22.3494 	 -116.091
| 21> H 	 -121.198 	 22.5449 	 -115.825
| 22> H 	 -120.598 	 22.901 	 -117.351
| 23> S 	 -113.44 	 25.3732 	 -114.397
| 24> C 	 -112.78 	 25.179 	 -112.795
| 25> C 	 -113.644 	 24.5348 	 -111.941
| 26> C 	 -114.864 	 24.006 	 -112.605
| 27> C 	 -114.895 	 24.4814 	 -113.921
| 28> H 	 -113.353 	 24.4295 	 -110.933
| 29> C 	 -116.026 	 23.2602 	 -111.899
| 30> H 	 -116.347 	 22.388 	 -112.498
| 31> H 	 -116.788 	 24.1062 	 -111.89
| 32> C 	 -115.877 	 22.7329 	 -110.503
| 33> H 	 -116.796 	 22.3849 	 -110.214
| 34> H 	 -115.599 	 23.4974 	 -109.789
| 35> C 	 -114.904 	 21.5939 	 -110.477
| 36> H 	 -115.21 	 20.7133 	 -109.982
| 37> H 	 -114.002 	 21.8389 	 -109.955
| 38> H 	 -114.532 	 21.2846 	 -111.476
| 39> H 	 -117.037 	 24.0698 	 -118.358
| 40> H 	 -111.79 	 25.7203 	 -112.574
| 41> *
| 42>
| 43>                          ****END OF INPUT****

CARTESIAN COORDINATES (ANGSTROEM)
---------------------------------
  S    -115.315000   23.861100  -116.683000
  C    -116.870000   24.134700  -117.292000
  C    -117.728000   24.666200  -116.443000
  C    -117.155000   24.825900  -115.136000
  C    -115.858000   24.318800  -115.022000
  H    -117.637000   25.217600  -114.255000
  C    -119.103000   25.153500  -116.778000
  H    -119.301000   24.991900  -117.800000
  H    -119.112000   26.275200  -116.713000
  C    -120.197000   24.485500  -115.880000
  H    -120.041000   24.747100  -114.817000
  H    -121.115000   25.059400  -116.078000
  C    -120.324000   23.005400  -116.300000
  H    -119.454000   22.349400  -116.091000
  H    -121.198000   22.544900  -115.825000
  H    -120.598000   22.901000  -117.351000
  S    -113.440000   25.373200  -114.397000
  C    -112.780000   25.179000  -112.795000
  C    -113.644000   24.534800  -111.941000
  C    -114.864000   24.006000  -112.605000
  C    -114.895000   24.481400  -113.921000
  H    -113.353000   24.429500  -110.933000
  C    -116.026000   23.260200  -111.899000
  H    -116.347000   22.388000  -112.498000
  H    -116.788000   24.106200  -111.890000
  C    -115.877000   22.732900  -110.503000
  H    -116.796000   22.384900  -110.214000
  H    -115.599000   23.497400  -109.789000
  C    -114.904000   21.593900  -110.477000
  H    -115.210000   20.713300  -109.982000
  H    -114.002000   21.838900  -109.955000
  H    -114.532000   21.284600  -111.476000
  H    -117.037000   24.069800  -118.358000
  H    -111.790000   25.720300  -112.574000

 Total Charge           Charge          ....    0
 Multiplicity           Mult            ....    1
 Number of Electrons    NEL             ....  134
 Basis Dimension        Dim             ....  322

ORBITAL ENERGIES
----------------

  NO   OCC          E(Eh)            E(eV)
   0   2.0000     -88.960902     -2420.7492
   1   2.0000     -88.958601     -2420.6866
   2   2.0000     -10.330670      -281.1118
   3   2.0000     -10.327325      -281.0208
   4   2.0000     -10.321236      -280.8551
   5   2.0000     -10.314660      -280.6762
   6   2.0000     -10.301093      -280.3070
   7   2.0000     -10.300539      -280.2919
   8   2.0000     -10.296737      -280.1885
   9   2.0000     -10.294001      -280.1140
  10   2.0000     -10.293704      -280.1059
  11   2.0000     -10.289374      -279.9881
  12   2.0000     -10.289220      -279.9839
  13   2.0000     -10.280640      -279.7504
  14   2.0000     -10.277283      -279.6591
  15   2.0000     -10.267994      -279.4063
  16   2.0000      -8.075795      -219.7535
  17   2.0000      -8.074031      -219.7055
  18   2.0000      -6.034326      -164.2024
  19   2.0000      -6.032565      -164.1544
  20   2.0000      -6.030318      -164.0933
  21   2.0000      -6.028526      -164.0445
  22   2.0000      -6.026476      -163.9887
  23   2.0000      -6.024638      -163.9387
  24   2.0000      -1.003256       -27.3000
  25   2.0000      -0.981110       -26.6974
  26   2.0000      -0.918127       -24.9835
  27   2.0000      -0.907727       -24.7005
  28   2.0000      -0.867233       -23.5986
  29   2.0000      -0.848006       -23.0754
  30   2.0000      -0.840495       -22.8710
  31   2.0000      -0.813297       -22.1309
  32   2.0000      -0.783364       -21.3164
  33   2.0000      -0.771624       -20.9970
  34   2.0000      -0.714554       -19.4440
  35   2.0000      -0.701064       -19.0769
  36   2.0000      -0.686524       -18.6813
  37   2.0000      -0.654748       -17.8166
  38   2.0000      -0.640798       -17.4370
  39   2.0000      -0.619949       -16.8697
  40   2.0000      -0.598193       -16.2777
  41   2.0000      -0.565074       -15.3764
  42   2.0000      -0.558804       -15.2058
  43   2.0000      -0.550380       -14.9766
  44   2.0000      -0.545271       -14.8376
  45   2.0000      -0.531512       -14.4632
  46   2.0000      -0.512856       -13.9555
  47   2.0000      -0.507272       -13.8036
  48   2.0000      -0.494896       -13.4668
  49   2.0000      -0.493523       -13.4295
  50   2.0000      -0.487983       -13.2787
  51   2.0000      -0.477960       -13.0060
  52   2.0000      -0.471116       -12.8197
  53   2.0000      -0.465621       -12.6702
  54   2.0000      -0.454786       -12.3754
  55   2.0000      -0.446106       -12.1392
  56   2.0000      -0.443038       -12.0557
  57   2.0000      -0.438283       -11.9263
  58   2.0000      -0.435159       -11.8413
  59   2.0000      -0.427726       -11.6390
  60   2.0000      -0.423444       -11.5225
  61   2.0000      -0.414245       -11.2722
  62   2.0000      -0.412540       -11.2258
  63   2.0000      -0.345679        -9.4064
  64   2.0000      -0.326958        -8.8970
  65   2.0000      -0.323515        -8.8033
  66   2.0000      -0.293588        -7.9889
  67   0.0000       0.034941         0.9508
  68   0.0000       0.070165         1.9093
  69   0.0000       0.110558         3.0084
  70   0.0000       0.129342         3.5196
  71   0.0000       0.132015         3.5923

MULLIKEN ATOMIC CHARGES
-----------------------
   0 S :    0.092671
   1 C :   -0.120865
   2 C :   -0.067321
   3 C :    0.031959
   4 C :   -0.156171
   5 H :    0.010520
   6 C :    0.070097
   7 H :   -0.003963
   8 H :    0.041831
   9 C :   -0.072697
  10 H :    0.035441
  11 H :    0.024728
  12 C :   -0.051906
  13 H :    0.059299
  14 H :    0.027951
  15 H :    0.025749
  16 S :    0.097668
  17 C :   -0.122817
  18 C :   -0.019555
  19 C :   -0.027848
  20 C :   -0.175630
  21 H :    0.005456
  22 C :   -0.009546
  23 H :    0.054485
  24 H :    0.051956
  25 C :    0.015562
  26 H :    0.007391
  27 H :    0.024408
  28 C :   -0.054086
  29 H :    0.020263
  30 H :    0.016982
  31 H :    0.036858
  32 H :    0.042356
  33 H :    0.088772
Sum of atomic charges:    0.0000000

LOEWDIN ATOMIC CHARGES
----------------------
   0 S :    0.392832
   1 C :   -0.204996
   2 C :   -0.077253
   3 C :   -0.049708
   4 C :   -0.181197
   5 H :    0.027663
   6 C :   -0.028696
   7 H :    0.018702
   8 H :    0.037056
   9 C :   -0.041534
  10 H :    0.025023
  11 H :    0.025869
  12 C :   -0.070251
  13 H :    0.034198
  14 H :    0.026410
  15 H :    0.027270
  16 S :    0.393211
  17 C :   -0.196278
  18 C :   -0.073082
  19 C :   -0.049512
  20 C :   -0.195907
  21 H :    0.023191
  22 C :   -0.032698
  23 H :    0.039743
  24 H :    0.042394
  25 C :   -0.039368
  26 H :    0.019483
  27 H :    0.024924
  28 C :   -0.066461
  29 H :    0.020804
  30 H :    0.023853
  31 H :    0.032199
  32 H :    0.027205
  33 H :    0.044912

  Mayer bond orders larger than 0.100000
B(  0-S ,  1-C ) :   1.1399 B(  0-S ,  4-C ) :   1.1335 B(  1-C ,  2-C ) :   1.6505
B(  1-C , 32-H ) :   0.9575 B(  2-C ,  3-C ) :   1.2139 B(  2-C ,  6-C ) :   1.0249
B(  3-C ,  4-C ) :   1.5987 B(  3-C ,  5-H ) :   0.9924 B(  4-C , 20-C ) :   1.0400
B(  6-C ,  7-H ) :   0.9406 B(  6-C ,  8-H ) :   0.9364 B(  6-C ,  9-C ) :   1.0684
B(  9-C , 10-H ) :   0.9596 B(  9-C , 11-H ) :   0.9547 B(  9-C , 12-C ) :   1.0593
B( 12-C , 13-H ) :   0.9768 B( 12-C , 14-H ) :   0.9738 B( 12-C , 15-H ) :   0.9726
B( 16-S , 17-C ) :   1.1440 B( 16-S , 20-C ) :   1.1437 B( 17-C , 18-C ) :   1.6370
B( 17-C , 33-H ) :   0.9548 B( 18-C , 19-C ) :   1.1929 B( 18-C , 21-H ) :   0.9951
B( 19-C , 20-C ) :   1.6306 B( 19-C , 22-C ) :   1.0155 B( 22-C , 23-H ) :   0.9382
B( 22-C , 24-H ) :   0.9371 B( 22-C , 25-C ) :   1.1087 B( 25-C , 26-H ) :   0.9456
B( 25-C , 27-H ) :   0.9484 B( 25-C , 28-C ) :   1.0602 B( 28-C , 29-H ) :   0.9754
B( 28-C , 30-H ) :   0.9724 B( 28-C , 31-H ) :   0.9811

Dispersion correction           -0.014227197
FINAL SINGLE POINT ENERGY     -1339.869892943231

DIPOLE MOMENT
-------------
                                X             Y             Z
Electronic contribution:     20.57632       9.56748     -11.81514
Nuclear contribution   :    -21.13198      -9.51179      12.22724
                        -----------------------------------------
Total Dipole Moment    :     -0.55566       0.05570       0.41210
                        -----------------------------------------
Magnitude (a.u.)       :      0.69403
Magnitude (Debye)      :      1.76409

Rotational constants in cm-1:     0.019071     0.008514     0.006553
Rotational constants in MHz :   571.730494   255.249188   196.456525

                             ****ORCA TERMINATED NORMALLY****
TOTAL RUN TIME: 0 days 0 hours 0 minutes 21 seconds 379 msec
