                         Program Version 4.2.1 -  RELEASE  -
|  1> ! wB97X-D3 SP def2-SVP
|  2> %pal
|  3> nprocs 24
|  4> end
|  5>
|  6> * xyz 0 1
|  7> S 	 -54.3922 	 -1.37993 	 -31.8137
|  8> C 	 -53.8512 	 0.179641 	 -32.399
|  9> C 	 -53.7513 	 1.07992 	 -31.4218
| 10> C 	 -53.8987 	 0.488794 	 -30.1121
| 11> C 	 -54.1736 	 -0.904546 	 -30.1626
| 12> H 	 -53.7936 	 1.01621 	 -29.2006
| 13> C 	 -53.4824 	 2.54384 	 -31.6187
| 14> H 	 -53.9661 	 2.88643 	 -32.4788
| 15> H 	 -52.3468 	 2.68936 	 -31.8671
| 16> C 	 -53.699 	 3.48915 	 -30.452
| 17> H 	 -54.7618 	 3.45805 	 -30.1063
| 18> H 	 -53.0488 	 3.25449 	 -29.6275
| 19> C 	 -53.613 	 4.90042 	 -30.7996
| 20> H 	 -53.4008 	 5.47814 	 -29.924
| 21> H 	 -52.7008 	 5.15886 	 -31.3229
| 22> H 	 -54.5319 	 5.32838 	 -31.3343
| 23> S 	 -56.1535 	 -2.55683 	 -29.3155
| 24> C 	 -55.997 	 -3.26199 	 -27.7317
| 25> C 	 -54.9008 	 -2.87375 	 -27.0306
| 26> C 	 -54.1494 	 -1.85057 	 -27.7464
| 27> C 	 -54.6217 	 -1.69969 	 -29.0408
| 28> H 	 -54.6563 	 -3.40894 	 -26.1005
| 29> C 	 -52.8584 	 -1.32171 	 -27.279
| 30> H 	 -52.3758 	 -0.582199 	 -27.9952
| 31> H 	 -52.2883 	 -2.23853 	 -27.2151
| 32> C 	 -52.8725 	 -0.65466 	 -25.916
| 33> H 	 -53.3125 	 -1.36521 	 -25.2767
| 34> H 	 -53.6154 	 0.143219 	 -25.8956
| 35> C 	 -51.4704 	 -0.359733 	 -25.4165
| 36> H 	 -50.954 	 0.208854 	 -26.1484
| 37> H 	 -50.9676 	 -1.28991 	 -25.1531
| 38> H 	 -51.4932 	 0.315368 	 -24.5907
| 39> H 	 -53.48 	 0.37048 	 -33.3995
| 40> H 	 -56.7494 	 -3.95627 	 -27.4016
| 41> *
| 42>
| 43>                          ****END OF INPUT****

CARTESIAN COORDINATES (ANGSTROEM)
---------------------------------
  S    -54.392200   -1.379930  -31.813700
  C    -53.851200    0.179641  -32.399000
  C    -53.751300    1.079920  -31.421800
  C    -53.898700    0.488794  -30.112100
  C    -54.173600   -0.904546  -30.162600
  H    -53.793600    1.016210  -29.200600
  C    -53.482400    2.543840  -31.618700
  H    -53.966100    2.886430  -32.478800
  H    -52.346800    2.689360  -31.867100
  C    -53.699000    3.489150  -30.452000
  H    -54.761800    3.458050  -30.106300
  H    -53.048800    3.254490  -29.627500
  C    -53.613000    4.900420  -30.799600
  H    -53.400800    5.478140  -29.924000
  H    -52.700800    5.158860  -31.322900
  H    -54.531900    5.328380  -31.334300
  S    -56.153500   -2.556830  -29.315500
  C    -55.997000   -3.261990  -27.731700
  C    -54.900800   -2.873750  -27.030600
  C    -54.149400   -1.850570  -27.746400
  C    -54.621700   -1.699690  -29.040800
  H    -54.656300   -3.408940  -26.100500
  C    -52.858400   -1.321710  -27.279000
  H    -52.375800   -0.582199  -27.995200
  H    -52.288300   -2.238530  -27.215100
  C    -52.872500   -0.654660  -25.916000
  H    -53.312500   -1.365210  -25.276700
  H    -53.615400    0.143219  -25.895600
  C    -51.470400   -0.359733  -25.416500
  H    -50.954000    0.208854  -26.148400
  H    -50.967600   -1.289910  -25.153100
  H    -51.493200    0.315368  -24.590700
  H    -53.480000    0.370480  -33.399500
  H    -56.749400   -3.956270  -27.401600

 Total Charge           Charge          ....    0
 Multiplicity           Mult            ....    1
 Number of Electrons    NEL             ....  134
 Basis Dimension        Dim             ....  322

ORBITAL ENERGIES
----------------

  NO   OCC          E(Eh)            E(eV)
   0   2.0000     -88.965090     -2420.8632
   1   2.0000     -88.960589     -2420.7407
   2   2.0000     -10.329241      -281.0729
   3   2.0000     -10.324298      -280.9384
   4   2.0000     -10.312106      -280.6067
   5   2.0000     -10.306230      -280.4468
   6   2.0000     -10.302831      -280.3543
   7   2.0000     -10.296571      -280.1839
   8   2.0000     -10.295824      -280.1636
   9   2.0000     -10.292968      -280.0859
  10   2.0000     -10.292927      -280.0848
  11   2.0000     -10.287585      -279.9394
  12   2.0000     -10.284114      -279.8450
  13   2.0000     -10.278048      -279.6799
  14   2.0000     -10.276758      -279.6448
  15   2.0000     -10.273609      -279.5591
  16   2.0000      -8.080078      -219.8701
  17   2.0000      -8.075686      -219.7506
  18   2.0000      -6.038678      -164.3208
  19   2.0000      -6.034543      -164.2083
  20   2.0000      -6.034149      -164.1975
  21   2.0000      -6.030740      -164.1048
  22   2.0000      -6.030394      -164.0954
  23   2.0000      -6.026228      -163.9820
  24   2.0000      -1.007259       -27.4089
  25   2.0000      -0.984506       -26.7898
  26   2.0000      -0.922662       -25.1069
  27   2.0000      -0.917625       -24.9698
  28   2.0000      -0.877922       -23.8895
  29   2.0000      -0.856632       -23.3101
  30   2.0000      -0.846732       -23.0407
  31   2.0000      -0.813636       -22.1402
  32   2.0000      -0.784595       -21.3499
  33   2.0000      -0.774560       -21.0768
  34   2.0000      -0.713467       -19.4144
  35   2.0000      -0.701030       -19.0760
  36   2.0000      -0.688013       -18.7218
  37   2.0000      -0.658455       -17.9175
  38   2.0000      -0.636215       -17.3123
  39   2.0000      -0.622253       -16.9324
  40   2.0000      -0.600354       -16.3365
  41   2.0000      -0.582271       -15.8444
  42   2.0000      -0.573978       -15.6187
  43   2.0000      -0.566886       -15.4257
  44   2.0000      -0.528996       -14.3947
  45   2.0000      -0.523568       -14.2470
  46   2.0000      -0.520472       -14.1628
  47   2.0000      -0.512261       -13.9393
  48   2.0000      -0.508936       -13.8489
  49   2.0000      -0.496469       -13.5096
  50   2.0000      -0.493962       -13.4414
  51   2.0000      -0.482066       -13.1177
  52   2.0000      -0.473627       -12.8880
  53   2.0000      -0.466793       -12.7021
  54   2.0000      -0.460092       -12.5197
  55   2.0000      -0.454987       -12.3808
  56   2.0000      -0.443623       -12.0716
  57   2.0000      -0.436858       -11.8875
  58   2.0000      -0.431849       -11.7512
  59   2.0000      -0.427446       -11.6314
  60   2.0000      -0.421872       -11.4797
  61   2.0000      -0.413643       -11.2558
  62   2.0000      -0.410082       -11.1589
  63   2.0000      -0.351296        -9.5592
  64   2.0000      -0.327941        -8.9237
  65   2.0000      -0.327401        -8.9090
  66   2.0000      -0.283481        -7.7139
  67   0.0000       0.029724         0.8088
  68   0.0000       0.070701         1.9239
  69   0.0000       0.112858         3.0710
  70   0.0000       0.120379         3.2757
  71   0.0000       0.124723         3.3939

MULLIKEN ATOMIC CHARGES
-----------------------
   0 S :    0.106216
   1 C :   -0.137171
   2 C :   -0.051154
   3 C :    0.021999
   4 C :   -0.131189
   5 H :    0.000874
   6 C :    0.061340
   7 H :    0.011190
   8 H :    0.041167
   9 C :   -0.093183
  10 H :    0.036570
  11 H :    0.032620
  12 C :   -0.033707
  13 H :    0.017321
  14 H :    0.007953
  15 H :    0.053829
  16 S :    0.090395
  17 C :   -0.090205
  18 C :   -0.033354
  19 C :   -0.021608
  20 C :   -0.144131
  21 H :    0.036436
  22 C :    0.015883
  23 H :    0.035558
  24 H :    0.033564
  25 C :   -0.078155
  26 H :    0.001641
  27 H :    0.022423
  28 C :    0.014412
  29 H :    0.014481
  30 H :    0.037595
  31 H :    0.021636
  32 H :    0.046881
  33 H :    0.051873
Sum of atomic charges:    0.0000000

LOEWDIN ATOMIC CHARGES
----------------------
   0 S :    0.410334
   1 C :   -0.197416
   2 C :   -0.064951
   3 C :   -0.056496
   4 C :   -0.198555
   5 H :    0.020738
   6 C :   -0.032860
   7 H :    0.021648
   8 H :    0.044464
   9 C :   -0.052017
  10 H :    0.033880
  11 H :    0.022552
  12 C :   -0.070587
  13 H :    0.027476
  14 H :    0.018948
  15 H :    0.036780
  16 S :    0.383763
  17 C :   -0.177623
  18 C :   -0.075128
  19 C :   -0.056260
  20 C :   -0.183675
  21 H :    0.039297
  22 C :   -0.036688
  23 H :    0.034290
  24 H :    0.036009
  25 C :   -0.041359
  26 H :    0.014069
  27 H :    0.023342
  28 C :   -0.054150
  29 H :    0.019865
  30 H :    0.030570
  31 H :    0.024495
  32 H :    0.031661
  33 H :    0.023581

  Mayer bond orders larger than 0.100000
B(  0-S ,  1-C ) :   1.1215 B(  0-S ,  4-C ) :   1.1627 B(  1-C ,  2-C ) :   1.6294
B(  1-C , 32-H ) :   0.9709 B(  2-C ,  3-C ) :   1.2591 B(  2-C ,  6-C ) :   1.0136
B(  3-C ,  4-C ) :   1.5163 B(  3-C ,  5-H ) :   0.9940 B(  4-C , 20-C ) :   1.0636
B(  6-C ,  7-H ) :   0.9454 B(  6-C ,  8-H ) :   0.9218 B(  6-C ,  9-C ) :   1.0882
B(  9-C , 10-H ) :   0.9508 B(  9-C , 11-H ) :   0.9417 B(  9-C , 12-C ) :   1.1046
B( 12-C , 13-H ) :   0.9628 B( 12-C , 14-H ) :   0.9616 B( 12-C , 15-H ) :   0.9735
B( 16-S , 17-C ) :   1.1414 B( 16-S , 20-C ) :   1.1203 B( 17-C , 18-C ) :   1.6604
B( 17-C , 33-H ) :   0.9665 B( 18-C , 19-C ) :   1.1730 B( 18-C , 21-H ) :   0.9847
B( 19-C , 20-C ) :   1.6312 B( 19-C , 22-C ) :   1.0553 B( 22-C , 23-H ) :   0.9356
B( 22-C , 24-H ) :   0.9338 B( 22-C , 25-C ) :   1.0574 B( 25-C , 26-H ) :   0.9514
B( 25-C , 27-H ) :   0.9550 B( 25-C , 28-C ) :   1.0840 B( 28-C , 29-H ) :   0.9719
B( 28-C , 30-H ) :   0.9733 B( 28-C , 31-H ) :   0.9706

Dispersion correction           -0.013400723
FINAL SINGLE POINT ENERGY     -1339.864384247584

DIPOLE MOMENT
-------------
                                X             Y             Z
Electronic contribution:    -14.84368     -23.52106     -13.38819
Nuclear contribution   :     15.21138      23.99740      13.80231
                        -----------------------------------------
Total Dipole Moment    :      0.36770       0.47634       0.41412
                        -----------------------------------------
Magnitude (a.u.)       :      0.73048
Magnitude (Debye)      :      1.85673

Rotational constants in cm-1:     0.015881     0.009151     0.006504
Rotational constants in MHz :   476.110210   274.351802   194.992463

                             ****ORCA TERMINATED NORMALLY****
TOTAL RUN TIME: 0 days 0 hours 0 minutes 21 seconds 445 msec
