                         Program Version 4.2.1 -  RELEASE  -
|  1> ! wB97X-D3 SP def2-SVP
|  2> %pal
|  3> nprocs 24
|  4> end
|  5>
|  6> * xyz 0 1
|  7> S 	 -93.8282 	 12.8387 	 -117.132
|  8> C 	 -93.7126 	 11.0976 	 -116.703
|  9> C 	 -94.9051 	 10.5125 	 -116.338
| 10> C 	 -95.9495 	 11.5212 	 -116.354
| 11> C 	 -95.5353 	 12.7793 	 -116.874
| 12> H 	 -97.0062 	 11.2908 	 -116.246
| 13> C 	 -95.0859 	 9.08732 	 -115.977
| 14> H 	 -95.772 	 9.09852 	 -115.097
| 15> H 	 -94.1763 	 8.565 	 -115.681
| 16> C 	 -95.7282 	 8.20718 	 -117.028
| 17> H 	 -95.9921 	 7.28384 	 -116.509
| 18> H 	 -96.6345 	 8.69519 	 -117.48
| 19> C 	 -94.8911 	 7.97329 	 -118.187
| 20> H 	 -94.4548 	 8.86154 	 -118.672
| 21> H 	 -94.1687 	 7.20927 	 -117.87
| 22> H 	 -95.411 	 7.51983 	 -118.983
| 23> S 	 -95.8664 	 15.0872 	 -118.405
| 24> C 	 -97.3639 	 15.8866 	 -118.412
| 25> C 	 -98.0769 	 15.4888 	 -117.307
| 26> C 	 -97.678 	 14.2533 	 -116.752
| 27> C 	 -96.4413 	 13.8757 	 -117.28
| 28> H 	 -98.9575 	 16.0735 	 -117.083
| 29> C 	 -98.5253 	 13.5957 	 -115.685
| 30> H 	 -98.7844 	 14.3024 	 -114.919
| 31> H 	 -97.8759 	 12.8319 	 -115.174
| 32> C 	 -99.8206 	 12.9465 	 -116.165
| 33> H 	 -99.5412 	 12.2896 	 -116.97
| 34> H 	 -100.454 	 13.5554 	 -116.752
| 35> C 	 -100.716 	 12.3092 	 -115.031
| 36> H 	 -100.129 	 11.523 	 -114.602
| 37> H 	 -101.699 	 11.8624 	 -115.424
| 38> H 	 -101.091 	 13.1023 	 -114.297
| 39> H 	 -92.7877 	 10.5792 	 -116.776
| 40> H 	 -97.6116 	 16.6492 	 -119.121
| 41> *
| 42>
| 43>                          ****END OF INPUT****

CARTESIAN COORDINATES (ANGSTROEM)
---------------------------------
  S    -93.828200   12.838700  -117.132000
  C    -93.712600   11.097600  -116.703000
  C    -94.905100   10.512500  -116.338000
  C    -95.949500   11.521200  -116.354000
  C    -95.535300   12.779300  -116.874000
  H    -97.006200   11.290800  -116.246000
  C    -95.085900    9.087320  -115.977000
  H    -95.772000    9.098520  -115.097000
  H    -94.176300    8.565000  -115.681000
  C    -95.728200    8.207180  -117.028000
  H    -95.992100    7.283840  -116.509000
  H    -96.634500    8.695190  -117.480000
  C    -94.891100    7.973290  -118.187000
  H    -94.454800    8.861540  -118.672000
  H    -94.168700    7.209270  -117.870000
  H    -95.411000    7.519830  -118.983000
  S    -95.866400   15.087200  -118.405000
  C    -97.363900   15.886600  -118.412000
  C    -98.076900   15.488800  -117.307000
  C    -97.678000   14.253300  -116.752000
  C    -96.441300   13.875700  -117.280000
  H    -98.957500   16.073500  -117.083000
  C    -98.525300   13.595700  -115.685000
  H    -98.784400   14.302400  -114.919000
  H    -97.875900   12.831900  -115.174000
  C    -99.820600   12.946500  -116.165000
  H    -99.541200   12.289600  -116.970000
  H    -100.454000   13.555400  -116.752000
  C    -100.716000   12.309200  -115.031000
  H    -100.129000   11.523000  -114.602000
  H    -101.699000   11.862400  -115.424000
  H    -101.091000   13.102300  -114.297000
  H    -92.787700   10.579200  -116.776000
  H    -97.611600   16.649200  -119.121000

 Total Charge           Charge          ....    0
 Multiplicity           Mult            ....    1
 Number of Electrons    NEL             ....  134
 Basis Dimension        Dim             ....  322

ORBITAL ENERGIES
----------------

  NO   OCC          E(Eh)            E(eV)
   0   2.0000     -88.968544     -2420.9571
   1   2.0000     -88.964369     -2420.8435
   2   2.0000     -10.336241      -281.2634
   3   2.0000     -10.330939      -281.1192
   4   2.0000     -10.312905      -280.6284
   5   2.0000     -10.311981      -280.6033
   6   2.0000     -10.305037      -280.4143
   7   2.0000     -10.303354      -280.3685
   8   2.0000     -10.297465      -280.2083
   9   2.0000     -10.294371      -280.1241
  10   2.0000     -10.293692      -280.1056
  11   2.0000     -10.292743      -280.0798
  12   2.0000     -10.290767      -280.0260
  13   2.0000     -10.284176      -279.8467
  14   2.0000     -10.282572      -279.8030
  15   2.0000     -10.266336      -279.3612
  16   2.0000      -8.082908      -219.9471
  17   2.0000      -8.080415      -219.8793
  18   2.0000      -6.041459      -164.3965
  19   2.0000      -6.038769      -164.3233
  20   2.0000      -6.037650      -164.2928
  21   2.0000      -6.034916      -164.2184
  22   2.0000      -6.033489      -164.1796
  23   2.0000      -6.031084      -164.1141
  24   2.0000      -1.011066       -27.5125
  25   2.0000      -0.984426       -26.7876
  26   2.0000      -0.925525       -25.1848
  27   2.0000      -0.910099       -24.7650
  28   2.0000      -0.871637       -23.7185
  29   2.0000      -0.853400       -23.2222
  30   2.0000      -0.844676       -22.9848
  31   2.0000      -0.809937       -22.0395
  32   2.0000      -0.787062       -21.4171
  33   2.0000      -0.776968       -21.1424
  34   2.0000      -0.709282       -19.3005
  35   2.0000      -0.699201       -19.0262
  36   2.0000      -0.691484       -18.8162
  37   2.0000      -0.661591       -18.0028
  38   2.0000      -0.635274       -17.2867
  39   2.0000      -0.624213       -16.9857
  40   2.0000      -0.602976       -16.4078
  41   2.0000      -0.577250       -15.7078
  42   2.0000      -0.563261       -15.3271
  43   2.0000      -0.554829       -15.0977
  44   2.0000      -0.546521       -14.8716
  45   2.0000      -0.530657       -14.4399
  46   2.0000      -0.518889       -14.1197
  47   2.0000      -0.512911       -13.9570
  48   2.0000      -0.504217       -13.7204
  49   2.0000      -0.495135       -13.4733
  50   2.0000      -0.491422       -13.3723
  51   2.0000      -0.484494       -13.1838
  52   2.0000      -0.467985       -12.7345
  53   2.0000      -0.463704       -12.6180
  54   2.0000      -0.460429       -12.5289
  55   2.0000      -0.451267       -12.2796
  56   2.0000      -0.449509       -12.2318
  57   2.0000      -0.437327       -11.9003
  58   2.0000      -0.435410       -11.8481
  59   2.0000      -0.426127       -11.5955
  60   2.0000      -0.418837       -11.3971
  61   2.0000      -0.410736       -11.1767
  62   2.0000      -0.408082       -11.1045
  63   2.0000      -0.356878        -9.7111
  64   2.0000      -0.333754        -9.0819
  65   2.0000      -0.327971        -8.9245
  66   2.0000      -0.279440        -7.6039
  67   0.0000       0.020966         0.5705
  68   0.0000       0.073913         2.0113
  69   0.0000       0.102760         2.7962
  70   0.0000       0.117515         3.1977
  71   0.0000       0.129240         3.5168

MULLIKEN ATOMIC CHARGES
-----------------------
   0 S :    0.099637
   1 C :   -0.121457
   2 C :   -0.069605
   3 C :   -0.007024
   4 C :   -0.128549
   5 H :    0.016146
   6 C :    0.072718
   7 H :    0.033595
   8 H :    0.018001
   9 C :   -0.078643
  10 H :    0.031752
  11 H :    0.027167
  12 C :   -0.030004
  13 H :    0.044906
  14 H :    0.017002
  15 H :    0.016086
  16 S :    0.101070
  17 C :   -0.097933
  18 C :   -0.022648
  19 C :   -0.054322
  20 C :   -0.117267
  21 H :    0.017638
  22 C :    0.068606
  23 H :    0.020521
  24 H :    0.025613
  25 C :   -0.050173
  26 H :    0.013151
  27 H :    0.006742
  28 C :   -0.078197
  29 H :    0.038127
  30 H :    0.046072
  31 H :    0.049877
  32 H :    0.033908
  33 H :    0.057488
Sum of atomic charges:   -0.0000000

LOEWDIN ATOMIC CHARGES
----------------------
   0 S :    0.389758
   1 C :   -0.180093
   2 C :   -0.055508
   3 C :   -0.076217
   4 C :   -0.185951
   5 H :    0.026518
   6 C :   -0.032712
   7 H :    0.038755
   8 H :    0.030745
   9 C :   -0.045628
  10 H :    0.027080
  11 H :    0.027296
  12 C :   -0.069090
  13 H :    0.032410
  14 H :    0.024689
  15 H :    0.020818
  16 S :    0.419585
  17 C :   -0.193842
  18 C :   -0.067412
  19 C :   -0.056038
  20 C :   -0.194373
  21 H :    0.029466
  22 C :   -0.031761
  23 H :    0.029338
  24 H :    0.033634
  25 C :   -0.046343
  26 H :    0.022273
  27 H :    0.016662
  28 C :   -0.070706
  29 H :    0.020217
  30 H :    0.035705
  31 H :    0.034983
  32 H :    0.017770
  33 H :    0.027973

  Mayer bond orders larger than 0.100000
B(  0-S ,  1-C ) :   1.1107 B(  0-S ,  4-C ) :   1.1545 B(  1-C ,  2-C ) :   1.6263
B(  1-C , 32-H ) :   0.9708 B(  2-C ,  3-C ) :   1.2344 B(  2-C ,  6-C ) :   1.0368
B(  3-C ,  4-C ) :   1.5589 B(  3-C ,  5-H ) :   0.9785 B(  4-C , 20-C ) :   1.0792
B(  6-C ,  7-H ) :   0.9309 B(  6-C ,  8-H ) :   0.9384 B(  6-C ,  9-C ) :   1.0742
B(  9-C , 10-H ) :   0.9525 B(  9-C , 11-H ) :   0.9539 B(  9-C , 12-C ) :   1.0926
B( 12-C , 13-H ) :   0.9685 B( 12-C , 14-H ) :   0.9689 B( 12-C , 15-H ) :   0.9673
B( 16-S , 17-C ) :   1.1705 B( 16-S , 20-C ) :   1.1480 B( 17-C , 18-C ) :   1.5760
B( 17-C , 33-H ) :   0.9754 B( 18-C , 19-C ) :   1.2666 B( 18-C , 21-H ) :   0.9915
B( 19-C , 20-C ) :   1.5439 B( 19-C , 22-C ) :   1.0479 B( 22-C , 23-H ) :   0.9310
B( 22-C , 24-H ) :   0.9273 B( 22-C , 25-C ) :   1.0563 B( 25-C , 26-H ) :   0.9478
B( 25-C , 27-H ) :   0.9528 B( 25-C , 28-C ) :   1.0695 B( 28-C , 29-H ) :   0.9788
B( 28-C , 30-H ) :   0.9753 B( 28-C , 31-H ) :   0.9742

Dispersion correction           -0.014041841
FINAL SINGLE POINT ENERGY     -1339.866081696250

DIPOLE MOMENT
-------------
                                X             Y             Z
Electronic contribution:     17.41205      22.28048      -7.38655
Nuclear contribution   :    -17.98156     -22.61229       7.46528
                        -----------------------------------------
Total Dipole Moment    :     -0.56951      -0.33182       0.07872
                        -----------------------------------------
Magnitude (a.u.)       :      0.66381
Magnitude (Debye)      :      1.68727

Rotational constants in cm-1:     0.016701     0.009359     0.006642
Rotational constants in MHz :   500.680748   280.589632   199.126292

                             ****ORCA TERMINATED NORMALLY****
TOTAL RUN TIME: 0 days 0 hours 0 minutes 21 seconds 735 msec
