                         Program Version 4.2.1 -  RELEASE  -
|  1> ! wB97X-D3 SP def2-SVP
|  2> %pal
|  3> nprocs 24
|  4> end
|  5>
|  6> * xyz 0 1
|  7> S 	 -65.154 	 18.8384 	 -114.162
|  8> C 	 -63.8356 	 18.6423 	 -115.294
|  9> C 	 -64.2554 	 18.3723 	 -116.566
| 10> C 	 -65.6464 	 18.1565 	 -116.606
| 11> C 	 -66.2542 	 18.2802 	 -115.382
| 12> H 	 -66.251 	 17.9857 	 -117.483
| 13> C 	 -63.4679 	 18.3009 	 -117.828
| 14> H 	 -62.8358 	 19.1637 	 -117.962
| 15> H 	 -64.2788 	 18.4298 	 -118.582
| 16> C 	 -62.518 	 17.0793 	 -118.074
| 17> H 	 -61.841 	 17.106 	 -117.241
| 18> H 	 -63.0459 	 16.1683 	 -117.922
| 19> C 	 -61.7011 	 17.2917 	 -119.305
| 20> H 	 -62.3556 	 17.3125 	 -120.122
| 21> H 	 -61.1529 	 18.2258 	 -119.289
| 22> H 	 -60.9326 	 16.557 	 -119.453
| 23> S 	 -68.5099 	 19.547 	 -114.407
| 24> C 	 -70.1506 	 18.9958 	 -114.835
| 25> C 	 -70.0364 	 17.8363 	 -115.603
| 26> C 	 -68.6922 	 17.377 	 -115.811
| 27> C 	 -67.7423 	 18.3097 	 -115.347
| 28> H 	 -70.8417 	 17.1598 	 -115.845
| 29> C 	 -68.3938 	 16.1192 	 -116.62
| 30> H 	 -68.7188 	 15.2107 	 -116.14
| 31> H 	 -67.3078 	 16.0674 	 -116.78
| 32> C 	 -69.0127 	 16.0802 	 -118.046
| 33> H 	 -68.7512 	 17.0228 	 -118.549
| 34> H 	 -70.0896 	 15.8848 	 -117.998
| 35> C 	 -68.467 	 14.9222 	 -118.881
| 36> H 	 -67.3966 	 15.0497 	 -119.271
| 37> H 	 -68.9785 	 14.8433 	 -119.857
| 38> H 	 -68.6307 	 14.0218 	 -118.312
| 39> H 	 -62.8098 	 19.0394 	 -115.1
| 40> H 	 -71.1266 	 19.3602 	 -114.452
| 41> *
| 42>
| 43>                          ****END OF INPUT****

CARTESIAN COORDINATES (ANGSTROEM)
---------------------------------
  S    -65.154000   18.838400  -114.162000
  C    -63.835600   18.642300  -115.294000
  C    -64.255400   18.372300  -116.566000
  C    -65.646400   18.156500  -116.606000
  C    -66.254200   18.280200  -115.382000
  H    -66.251000   17.985700  -117.483000
  C    -63.467900   18.300900  -117.828000
  H    -62.835800   19.163700  -117.962000
  H    -64.278800   18.429800  -118.582000
  C    -62.518000   17.079300  -118.074000
  H    -61.841000   17.106000  -117.241000
  H    -63.045900   16.168300  -117.922000
  C    -61.701100   17.291700  -119.305000
  H    -62.355600   17.312500  -120.122000
  H    -61.152900   18.225800  -119.289000
  H    -60.932600   16.557000  -119.453000
  S    -68.509900   19.547000  -114.407000
  C    -70.150600   18.995800  -114.835000
  C    -70.036400   17.836300  -115.603000
  C    -68.692200   17.377000  -115.811000
  C    -67.742300   18.309700  -115.347000
  H    -70.841700   17.159800  -115.845000
  C    -68.393800   16.119200  -116.620000
  H    -68.718800   15.210700  -116.140000
  H    -67.307800   16.067400  -116.780000
  C    -69.012700   16.080200  -118.046000
  H    -68.751200   17.022800  -118.549000
  H    -70.089600   15.884800  -117.998000
  C    -68.467000   14.922200  -118.881000
  H    -67.396600   15.049700  -119.271000
  H    -68.978500   14.843300  -119.857000
  H    -68.630700   14.021800  -118.312000
  H    -62.809800   19.039400  -115.100000
  H    -71.126600   19.360200  -114.452000

 Total Charge           Charge          ....    0
 Multiplicity           Mult            ....    1
 Number of Electrons    NEL             ....  134
 Basis Dimension        Dim             ....  322

ORBITAL ENERGIES
----------------

  NO   OCC          E(Eh)            E(eV)
   0   2.0000     -88.973007     -2421.0786
   1   2.0000     -88.966443     -2420.9000
   2   2.0000     -10.330734      -281.1136
   3   2.0000     -10.328274      -281.0466
   4   2.0000     -10.323916      -280.9280
   5   2.0000     -10.315322      -280.6942
   6   2.0000     -10.302990      -280.3586
   7   2.0000     -10.296712      -280.1878
   8   2.0000     -10.294499      -280.1275
   9   2.0000     -10.292017      -280.0600
  10   2.0000     -10.290688      -280.0239
  11   2.0000     -10.288991      -279.9777
  12   2.0000     -10.288915      -279.9756
  13   2.0000     -10.283684      -279.8333
  14   2.0000     -10.283676      -279.8330
  15   2.0000     -10.272458      -279.5278
  16   2.0000      -8.087724      -220.0782
  17   2.0000      -8.080720      -219.8876
  18   2.0000      -6.046279      -164.5276
  19   2.0000      -6.042334      -164.4203
  20   2.0000      -6.039356      -164.3392
  21   2.0000      -6.038337      -164.3115
  22   2.0000      -6.035210      -164.2264
  23   2.0000      -6.031465      -164.1245
  24   2.0000      -1.010053       -27.4849
  25   2.0000      -0.983751       -26.7692
  26   2.0000      -0.916815       -24.9478
  27   2.0000      -0.907084       -24.6830
  28   2.0000      -0.870431       -23.6856
  29   2.0000      -0.860124       -23.4052
  30   2.0000      -0.846871       -23.0445
  31   2.0000      -0.812725       -22.1154
  32   2.0000      -0.781145       -21.2560
  33   2.0000      -0.768894       -20.9227
  34   2.0000      -0.713520       -19.4159
  35   2.0000      -0.697131       -18.9699
  36   2.0000      -0.691651       -18.8208
  37   2.0000      -0.660864       -17.9830
  38   2.0000      -0.639698       -17.4071
  39   2.0000      -0.621538       -16.9129
  40   2.0000      -0.594730       -16.1834
  41   2.0000      -0.575135       -15.6502
  42   2.0000      -0.569361       -15.4931
  43   2.0000      -0.561769       -15.2865
  44   2.0000      -0.526333       -14.3222
  45   2.0000      -0.523185       -14.2366
  46   2.0000      -0.518936       -14.1210
  47   2.0000      -0.508025       -13.8241
  48   2.0000      -0.504837       -13.7373
  49   2.0000      -0.498891       -13.5755
  50   2.0000      -0.490045       -13.3348
  51   2.0000      -0.480709       -13.0808
  52   2.0000      -0.474087       -12.9006
  53   2.0000      -0.466374       -12.6907
  54   2.0000      -0.459919       -12.5150
  55   2.0000      -0.449843       -12.2409
  56   2.0000      -0.443802       -12.0765
  57   2.0000      -0.440310       -11.9815
  58   2.0000      -0.433850       -11.8057
  59   2.0000      -0.432997       -11.7824
  60   2.0000      -0.421565       -11.4714
  61   2.0000      -0.415672       -11.3110
  62   2.0000      -0.415416       -11.3040
  63   2.0000      -0.350688        -9.5427
  64   2.0000      -0.335233        -9.1222
  65   2.0000      -0.328273        -8.9328
  66   2.0000      -0.289468        -7.8768
  67   0.0000       0.025896         0.7047
  68   0.0000       0.072389         1.9698
  69   0.0000       0.103566         2.8182
  70   0.0000       0.117360         3.1935
  71   0.0000       0.132715         3.6114

MULLIKEN ATOMIC CHARGES
-----------------------
   0 S :    0.120128
   1 C :   -0.135389
   2 C :   -0.063084
   3 C :   -0.016012
   4 C :   -0.102231
   5 H :    0.017054
   6 C :    0.041737
   7 H :    0.013662
   8 H :    0.018820
   9 C :   -0.031239
  10 H :    0.011402
  11 H :    0.024471
  12 C :    0.001706
  13 H :    0.017340
  14 H :    0.022059
  15 H :    0.029709
  16 S :    0.096926
  17 C :   -0.101863
  18 C :   -0.014631
  19 C :   -0.060104
  20 C :   -0.161728
  21 H :    0.018072
  22 C :    0.059638
  23 H :    0.025164
  24 H :    0.022841
  25 C :   -0.091837
  26 H :    0.036086
  27 H :    0.035052
  28 C :   -0.074884
  29 H :    0.039527
  30 H :    0.034735
  31 H :    0.032110
  32 H :    0.060787
  33 H :    0.073974
Sum of atomic charges:    0.0000000

LOEWDIN ATOMIC CHARGES
----------------------
   0 S :    0.417022
   1 C :   -0.203598
   2 C :   -0.067290
   3 C :   -0.059531
   4 C :   -0.198835
   5 H :    0.030928
   6 C :   -0.032145
   7 H :    0.026663
   8 H :    0.031250
   9 C :   -0.031236
  10 H :    0.021568
  11 H :    0.021091
  12 C :   -0.055669
  13 H :    0.018432
  14 H :    0.027553
  15 H :    0.026353
  16 S :    0.399887
  17 C :   -0.189971
  18 C :   -0.068197
  19 C :   -0.064557
  20 C :   -0.193630
  21 H :    0.029395
  22 C :   -0.033868
  23 H :    0.027750
  24 H :    0.029952
  25 C :   -0.041662
  26 H :    0.023865
  27 H :    0.023967
  28 C :   -0.073958
  29 H :    0.030935
  30 H :    0.028392
  31 H :    0.021869
  32 H :    0.036317
  33 H :    0.040955

  Mayer bond orders larger than 0.100000
B(  0-S ,  1-C ) :   1.1333 B(  0-S ,  4-C ) :   1.1573 B(  1-C ,  2-C ) :   1.6096
B(  1-C , 32-H ) :   0.9581 B(  2-C ,  3-C ) :   1.2647 B(  2-C ,  6-C ) :   1.0189
B(  3-C ,  4-C ) :   1.5457 B(  3-C ,  5-H ) :   0.9922 B(  4-C , 20-C ) :   1.0366
B(  6-C ,  7-H ) :   0.9337 B(  6-C ,  8-H ) :   0.9415 B(  6-C ,  9-C ) :   1.0557
B(  9-C , 10-H ) :   0.9510 B(  9-C , 11-H ) :   0.9575 B(  9-C , 12-C ) :   1.0830
B( 12-C , 13-H ) :   0.9761 B( 12-C , 14-H ) :   0.9688 B( 12-C , 15-H ) :   0.9708
B( 16-S , 17-C ) :   1.1425 B( 16-S , 20-C ) :   1.1470 B( 17-C , 18-C ) :   1.5924
B( 17-C , 33-H ) :   0.9653 B( 18-C , 19-C ) :   1.2705 B( 18-C , 21-H ) :   0.9818
B( 19-C , 20-C ) :   1.5711 B( 19-C , 22-C ) :   1.0574 B( 22-C , 23-H ) :   0.9248
B( 22-C , 24-H ) :   0.9382 B( 22-C , 25-C ) :   1.0647 B( 25-C , 26-H ) :   0.9573
B( 25-C , 27-H ) :   0.9493 B( 25-C , 28-C ) :   1.0896 B( 28-C , 29-H ) :   0.9728
B( 28-C , 30-H ) :   0.9729 B( 28-C , 31-H ) :   0.9730

Dispersion correction           -0.013641438
FINAL SINGLE POINT ENERGY     -1339.875173635707

DIPOLE MOMENT
-------------
                                X             Y             Z
Electronic contribution:     -9.05149      16.76411      26.83919
Nuclear contribution   :      9.18671     -17.05345     -27.42542
                        -----------------------------------------
Total Dipole Moment    :      0.13522      -0.28934      -0.58623
                        -----------------------------------------
Magnitude (a.u.)       :      0.66759
Magnitude (Debye)      :      1.69687

Rotational constants in cm-1:     0.017114     0.008901     0.006183
Rotational constants in MHz :   513.071087   266.837639   185.354437

                             ****ORCA TERMINATED NORMALLY****
TOTAL RUN TIME: 0 days 0 hours 0 minutes 21 seconds 494 msec
