                         Program Version 4.2.1 -  RELEASE  -
|  1> ! wB97X-D3 SP def2-SVP
|  2> %pal
|  3> nprocs 24
|  4> end
|  5>
|  6> * xyz 0 1
|  7> S 	 -143.264 	 7.82923 	 6.03033
|  8> C 	 -143.258 	 6.58663 	 7.26655
|  9> C 	 -143.02 	 5.31129 	 6.74118
| 10> C 	 -142.908 	 5.32661 	 5.27016
| 11> C 	 -143.017 	 6.62707 	 4.69959
| 12> H 	 -142.599 	 4.51147 	 4.64144
| 13> C 	 -143.05 	 3.99241 	 7.53506
| 14> H 	 -142.885 	 4.34445 	 8.52089
| 15> H 	 -142.197 	 3.47365 	 7.26982
| 16> C 	 -144.297 	 3.04301 	 7.33211
| 17> H 	 -144.405 	 2.83061 	 6.30442
| 18> H 	 -144.034 	 2.0986 	 7.77668
| 19> C 	 -145.626 	 3.53666 	 7.83483
| 20> H 	 -145.894 	 4.54181 	 7.48073
| 21> H 	 -146.533 	 2.94174 	 7.57973
| 22> H 	 -145.609 	 3.643 	 8.91776
| 23> S 	 -144.132 	 8.29553 	 2.76183
| 24> C 	 -143.22 	 8.58466 	 1.30777
| 25> C 	 -142.396 	 7.49885 	 1.09791
| 26> C 	 -142.41 	 6.55267 	 2.18091
| 27> C 	 -143.022 	 7.08375 	 3.33539
| 28> H 	 -141.811 	 7.30127 	 0.21241
| 29> C 	 -141.373 	 5.39051 	 2.17401
| 30> H 	 -141.278 	 4.86578 	 3.15327
| 31> H 	 -140.449 	 5.80395 	 1.96809
| 32> C 	 -141.902 	 4.27167 	 1.23242
| 33> H 	 -142.184 	 4.79535 	 0.248805
| 34> H 	 -142.885 	 3.92545 	 1.59597
| 35> C 	 -141.071 	 3.03952 	 0.972132
| 36> H 	 -141.644 	 2.23982 	 0.396409
| 37> H 	 -140.795 	 2.50714 	 1.96386
| 38> H 	 -140.209 	 3.21366 	 0.433953
| 39> H 	 -143.43 	 6.75715 	 8.25124
| 40> H 	 -143.413 	 9.14092 	 0.473157
| 41> *
| 42>
| 43>                          ****END OF INPUT****

CARTESIAN COORDINATES (ANGSTROEM)
---------------------------------
  S    -143.264000    7.829230    6.030330
  C    -143.258000    6.586630    7.266550
  C    -143.020000    5.311290    6.741180
  C    -142.908000    5.326610    5.270160
  C    -143.017000    6.627070    4.699590
  H    -142.599000    4.511470    4.641440
  C    -143.050000    3.992410    7.535060
  H    -142.885000    4.344450    8.520890
  H    -142.197000    3.473650    7.269820
  C    -144.297000    3.043010    7.332110
  H    -144.405000    2.830610    6.304420
  H    -144.034000    2.098600    7.776680
  C    -145.626000    3.536660    7.834830
  H    -145.894000    4.541810    7.480730
  H    -146.533000    2.941740    7.579730
  H    -145.609000    3.643000    8.917760
  S    -144.132000    8.295530    2.761830
  C    -143.220000    8.584660    1.307770
  C    -142.396000    7.498850    1.097910
  C    -142.410000    6.552670    2.180910
  C    -143.022000    7.083750    3.335390
  H    -141.811000    7.301270    0.212410
  C    -141.373000    5.390510    2.174010
  H    -141.278000    4.865780    3.153270
  H    -140.449000    5.803950    1.968090
  C    -141.902000    4.271670    1.232420
  H    -142.184000    4.795350    0.248805
  H    -142.885000    3.925450    1.595970
  C    -141.071000    3.039520    0.972132
  H    -141.644000    2.239820    0.396409
  H    -140.795000    2.507140    1.963860
  H    -140.209000    3.213660    0.433953
  H    -143.430000    6.757150    8.251240
  H    -143.413000    9.140920    0.473157

 Total Charge           Charge          ....    0
 Multiplicity           Mult            ....    1
 Number of Electrons    NEL             ....  134
 Basis Dimension        Dim             ....  322

ORBITAL ENERGIES
----------------

  NO   OCC          E(Eh)            E(eV)
   0   2.0000     -88.967882     -2420.9392
   1   2.0000     -88.966420     -2420.8994
   2   2.0000     -10.341204      -281.3985
   3   2.0000     -10.332227      -281.1542
   4   2.0000     -10.313656      -280.6488
   5   2.0000     -10.310663      -280.5674
   6   2.0000     -10.310040      -280.5504
   7   2.0000     -10.306489      -280.4538
   8   2.0000     -10.304854      -280.4093
   9   2.0000     -10.295173      -280.1459
  10   2.0000     -10.294810      -280.1360
  11   2.0000     -10.293406      -280.0978
  12   2.0000     -10.290525      -280.0194
  13   2.0000     -10.286804      -279.9182
  14   2.0000     -10.285335      -279.8782
  15   2.0000     -10.276839      -279.6470
  16   2.0000      -8.081454      -219.9076
  17   2.0000      -8.081293      -219.9032
  18   2.0000      -6.040164      -164.3612
  19   2.0000      -6.039929      -164.3548
  20   2.0000      -6.036001      -164.2479
  21   2.0000      -6.035949      -164.2465
  22   2.0000      -6.032184      -164.1441
  23   2.0000      -6.031691      -164.1307
  24   2.0000      -1.006056       -27.3762
  25   2.0000      -0.976916       -26.5832
  26   2.0000      -0.908170       -24.7126
  27   2.0000      -0.906217       -24.6594
  28   2.0000      -0.873233       -23.7619
  29   2.0000      -0.849744       -23.1227
  30   2.0000      -0.842721       -22.9316
  31   2.0000      -0.817947       -22.2575
  32   2.0000      -0.784953       -21.3597
  33   2.0000      -0.775225       -21.0950
  34   2.0000      -0.716226       -19.4895
  35   2.0000      -0.703694       -19.1485
  36   2.0000      -0.694574       -18.9003
  37   2.0000      -0.662282       -18.0216
  38   2.0000      -0.645724       -17.5711
  39   2.0000      -0.617676       -16.8078
  40   2.0000      -0.595151       -16.1949
  41   2.0000      -0.569322       -15.4920
  42   2.0000      -0.560937       -15.2639
  43   2.0000      -0.550703       -14.9854
  44   2.0000      -0.542855       -14.7718
  45   2.0000      -0.528156       -14.3719
  46   2.0000      -0.523287       -14.2394
  47   2.0000      -0.517772       -14.0893
  48   2.0000      -0.510113       -13.8809
  49   2.0000      -0.498362       -13.5611
  50   2.0000      -0.491977       -13.3874
  51   2.0000      -0.483966       -13.1694
  52   2.0000      -0.470320       -12.7981
  53   2.0000      -0.463986       -12.6257
  54   2.0000      -0.454034       -12.3549
  55   2.0000      -0.453972       -12.3532
  56   2.0000      -0.444271       -12.0892
  57   2.0000      -0.435943       -11.8626
  58   2.0000      -0.433517       -11.7966
  59   2.0000      -0.429274       -11.6811
  60   2.0000      -0.417089       -11.3496
  61   2.0000      -0.415120       -11.2960
  62   2.0000      -0.404188       -10.9985
  63   2.0000      -0.357349        -9.7240
  64   2.0000      -0.329292        -8.9605
  65   2.0000      -0.326146        -8.8749
  66   2.0000      -0.285494        -7.7687
  67   0.0000       0.010379         0.2824
  68   0.0000       0.075682         2.0594
  69   0.0000       0.101424         2.7599
  70   0.0000       0.111268         3.0278
  71   0.0000       0.130432         3.5492

MULLIKEN ATOMIC CHARGES
-----------------------
   0 S :    0.102870
   1 C :   -0.070416
   2 C :   -0.131760
   3 C :    0.040052
   4 C :   -0.170075
   5 H :    0.011592
   6 C :    0.120166
   7 H :    0.005180
   8 H :    0.008963
   9 C :   -0.022613
  10 H :    0.017289
  11 H :    0.025257
  12 C :   -0.066316
  13 H :    0.033366
  14 H :    0.040470
  15 H :    0.021371
  16 S :    0.110787
  17 C :   -0.021556
  18 C :   -0.057672
  19 C :   -0.040758
  20 C :   -0.128378
  21 H :    0.022782
  22 C :    0.074427
  23 H :    0.012774
  24 H :    0.021729
  25 C :   -0.124468
  26 H :    0.027983
  27 H :    0.030291
  28 C :   -0.028062
  29 H :    0.042723
  30 H :    0.032079
  31 H :    0.022172
  32 H :    0.009897
  33 H :    0.027856
Sum of atomic charges:   -0.0000000

LOEWDIN ATOMIC CHARGES
----------------------
   0 S :    0.386982
   1 C :   -0.180658
   2 C :   -0.055215
   3 C :   -0.058450
   4 C :   -0.171414
   5 H :    0.024835
   6 C :   -0.018470
   7 H :    0.024564
   8 H :    0.023293
   9 C :   -0.031533
  10 H :    0.020034
  11 H :    0.024811
  12 C :   -0.073079
  13 H :    0.027932
  14 H :    0.032474
  15 H :    0.021712
  16 S :    0.414571
  17 C :   -0.182675
  18 C :   -0.063029
  19 C :   -0.053937
  20 C :   -0.199669
  21 H :    0.028997
  22 C :   -0.023423
  23 H :    0.027994
  24 H :    0.018671
  25 C :   -0.052148
  26 H :    0.025754
  27 H :    0.027299
  28 C :   -0.070511
  29 H :    0.037089
  30 H :    0.031893
  31 H :    0.011130
  32 H :    0.007354
  33 H :    0.016826

  Mayer bond orders larger than 0.100000
B(  0-S ,  1-C ) :   1.1355 B(  0-S ,  4-C ) :   1.1341 B(  1-C ,  2-C ) :   1.6109
B(  1-C , 32-H ) :   0.9785 B(  2-C ,  3-C ) :   1.2235 B(  2-C ,  6-C ) :   1.0236
B(  3-C ,  4-C ) :   1.5652 B(  3-C ,  5-H ) :   0.9806 B(  4-C , 20-C ) :   1.1111
B(  6-C ,  7-H ) :   0.9412 B(  6-C ,  8-H ) :   0.9300 B(  6-C ,  9-C ) :   1.0638
B(  9-C , 10-H ) :   0.9544 B(  9-C , 11-H ) :   0.9538 B(  9-C , 12-C ) :   1.0775
B( 12-C , 13-H ) :   0.9745 B( 12-C , 14-H ) :   0.9734 B( 12-C , 15-H ) :   0.9755
B( 16-S , 17-C ) :   1.1350 B( 16-S , 20-C ) :   1.1501 B( 17-C , 18-C ) :   1.5929
B( 17-C , 20-C ) :   0.1020 B( 17-C , 33-H ) :   0.9768 B( 18-C , 19-C ) :   1.2617
B( 18-C , 21-H ) :   0.9834 B( 19-C , 20-C ) :   1.5290 B( 19-C , 22-C ) :   1.0415
B( 22-C , 23-H ) :   0.9430 B( 22-C , 24-H ) :   0.9509 B( 22-C , 25-C ) :   1.0336
B( 25-C , 26-H ) :   0.9579 B( 25-C , 27-H ) :   0.9549 B( 25-C , 28-C ) :   1.0853
B( 28-C , 29-H ) :   0.9717 B( 28-C , 30-H ) :   0.9678 B( 28-C , 31-H ) :   0.9748

Dispersion correction           -0.013939624
FINAL SINGLE POINT ENERGY     -1339.842606251283

DIPOLE MOMENT
-------------
                                X             Y             Z
Electronic contribution:     -3.17913      27.81481      -0.51170
Nuclear contribution   :      3.41370     -28.52976       0.38119
                        -----------------------------------------
Total Dipole Moment    :      0.23457      -0.71495      -0.13050
                        -----------------------------------------
Magnitude (a.u.)       :      0.76368
Magnitude (Debye)      :      1.94113

Rotational constants in cm-1:     0.016968     0.008830     0.006505
Rotational constants in MHz :   508.695370   264.726913   195.010956

                             ****ORCA TERMINATED NORMALLY****
TOTAL RUN TIME: 0 days 0 hours 0 minutes 21 seconds 261 msec
