                         Program Version 4.2.1 -  RELEASE  -
|  1> ! wB97X-D3 SP def2-SVP
|  2> %pal
|  3> nprocs 24
|  4> end
|  5>
|  6> * xyz 0 1
|  7> S 	 -86.1387 	 -45.1592 	 -73.364
|  8> C 	 -85.4742 	 -46.5871 	 -73.9782
|  9> C 	 -86.1268 	 -47.0496 	 -75.0883
| 10> C 	 -87.3175 	 -46.2632 	 -75.3684
| 11> C 	 -87.4167 	 -45.1786 	 -74.5689
| 12> H 	 -88.0681 	 -46.3317 	 -76.0972
| 13> C 	 -85.7311 	 -48.2899 	 -75.8928
| 14> H 	 -86.0675 	 -49.158 	 -75.4111
| 15> H 	 -84.6273 	 -48.2843 	 -75.8056
| 16> C 	 -86.3913 	 -48.3536 	 -77.2787
| 17> H 	 -86.2014 	 -49.3918 	 -77.7253
| 18> H 	 -87.499 	 -48.3356 	 -77.1834
| 19> C 	 -85.7797 	 -47.2322 	 -78.3258
| 20> H 	 -85.5826 	 -47.7834 	 -79.271
| 21> H 	 -86.6148 	 -46.5019 	 -78.6267
| 22> H 	 -84.9466 	 -46.6927 	 -77.9986
| 23> S 	 -87.8218 	 -42.6451 	 -75.5314
| 24> C 	 -89.3666 	 -41.9474 	 -75.3753
| 25> C 	 -90.3249 	 -42.8367 	 -75.058
| 26> C 	 -89.8008 	 -44.0887 	 -74.677
| 27> C 	 -88.4513 	 -44.1495 	 -74.8959
| 28> H 	 -91.374 	 -42.5652 	 -74.9517
| 29> C 	 -90.7459 	 -45.1957 	 -74.2205
| 30> H 	 -91.4435 	 -44.7596 	 -73.4868
| 31> H 	 -90.2595 	 -46.0149 	 -73.6987
| 32> C 	 -91.6901 	 -45.8886 	 -75.2553
| 33> H 	 -92.1342 	 -45.045 	 -75.8296
| 34> H 	 -92.4889 	 -46.5151 	 -74.8233
| 35> C 	 -90.8756 	 -46.7243 	 -76.2349
| 36> H 	 -90.2642 	 -46.0614 	 -76.8421
| 37> H 	 -91.5329 	 -47.137 	 -76.9755
| 38> H 	 -90.2346 	 -47.5067 	 -75.7879
| 39> H 	 -84.6619 	 -47.1309 	 -73.6431
| 40> H 	 -89.7141 	 -41.0201 	 -75.7382
| 41> *
| 42>
| 43>                          ****END OF INPUT****

CARTESIAN COORDINATES (ANGSTROEM)
---------------------------------
  S    -86.138700  -45.159200  -73.364000
  C    -85.474200  -46.587100  -73.978200
  C    -86.126800  -47.049600  -75.088300
  C    -87.317500  -46.263200  -75.368400
  C    -87.416700  -45.178600  -74.568900
  H    -88.068100  -46.331700  -76.097200
  C    -85.731100  -48.289900  -75.892800
  H    -86.067500  -49.158000  -75.411100
  H    -84.627300  -48.284300  -75.805600
  C    -86.391300  -48.353600  -77.278700
  H    -86.201400  -49.391800  -77.725300
  H    -87.499000  -48.335600  -77.183400
  C    -85.779700  -47.232200  -78.325800
  H    -85.582600  -47.783400  -79.271000
  H    -86.614800  -46.501900  -78.626700
  H    -84.946600  -46.692700  -77.998600
  S    -87.821800  -42.645100  -75.531400
  C    -89.366600  -41.947400  -75.375300
  C    -90.324900  -42.836700  -75.058000
  C    -89.800800  -44.088700  -74.677000
  C    -88.451300  -44.149500  -74.895900
  H    -91.374000  -42.565200  -74.951700
  C    -90.745900  -45.195700  -74.220500
  H    -91.443500  -44.759600  -73.486800
  H    -90.259500  -46.014900  -73.698700
  C    -91.690100  -45.888600  -75.255300
  H    -92.134200  -45.045000  -75.829600
  H    -92.488900  -46.515100  -74.823300
  C    -90.875600  -46.724300  -76.234900
  H    -90.264200  -46.061400  -76.842100
  H    -91.532900  -47.137000  -76.975500
  H    -90.234600  -47.506700  -75.787900
  H    -84.661900  -47.130900  -73.643100
  H    -89.714100  -41.020100  -75.738200

 Total Charge           Charge          ....    0
 Multiplicity           Mult            ....    1
 Number of Electrons    NEL             ....  134
 Basis Dimension        Dim             ....  322

ORBITAL ENERGIES
----------------

  NO   OCC          E(Eh)            E(eV)
   0   2.0000     -88.965604     -2420.8771
   1   2.0000     -88.964527     -2420.8478
   2   2.0000     -10.325034      -280.9585
   3   2.0000     -10.321494      -280.8621
   4   2.0000     -10.304780      -280.4073
   5   2.0000     -10.303419      -280.3703
   6   2.0000     -10.302076      -280.3337
   7   2.0000     -10.300173      -280.2820
   8   2.0000     -10.296840      -280.1913
   9   2.0000     -10.292408      -280.0707
  10   2.0000     -10.291642      -280.0498
  11   2.0000     -10.290198      -280.0105
  12   2.0000     -10.285530      -279.8835
  13   2.0000     -10.285094      -279.8716
  14   2.0000     -10.283629      -279.8318
  15   2.0000     -10.274646      -279.5873
  16   2.0000      -8.081008      -219.8954
  17   2.0000      -8.080359      -219.8778
  18   2.0000      -6.039550      -164.3445
  19   2.0000      -6.038775      -164.3234
  20   2.0000      -6.035372      -164.2308
  21   2.0000      -6.034809      -164.2155
  22   2.0000      -6.031748      -164.1322
  23   2.0000      -6.031047      -164.1131
  24   2.0000      -1.013067       -27.5670
  25   2.0000      -0.993705       -27.0401
  26   2.0000      -0.907796       -24.7024
  27   2.0000      -0.902223       -24.5507
  28   2.0000      -0.873589       -23.7716
  29   2.0000      -0.852800       -23.2059
  30   2.0000      -0.834786       -22.7157
  31   2.0000      -0.818467       -22.2716
  32   2.0000      -0.782356       -21.2890
  33   2.0000      -0.774603       -21.0780
  34   2.0000      -0.708969       -19.2920
  35   2.0000      -0.693913       -18.8823
  36   2.0000      -0.691327       -18.8120
  37   2.0000      -0.659666       -17.9504
  38   2.0000      -0.645825       -17.5738
  39   2.0000      -0.617292       -16.7974
  40   2.0000      -0.598933       -16.2978
  41   2.0000      -0.568737       -15.4761
  42   2.0000      -0.551391       -15.0041
  43   2.0000      -0.547745       -14.9049
  44   2.0000      -0.543818       -14.7980
  45   2.0000      -0.527992       -14.3674
  46   2.0000      -0.514000       -13.9867
  47   2.0000      -0.508634       -13.8406
  48   2.0000      -0.502146       -13.6641
  49   2.0000      -0.496496       -13.5103
  50   2.0000      -0.489777       -13.3275
  51   2.0000      -0.487647       -13.2695
  52   2.0000      -0.468153       -12.7391
  53   2.0000      -0.464343       -12.6354
  54   2.0000      -0.456319       -12.4171
  55   2.0000      -0.451896       -12.2967
  56   2.0000      -0.443470       -12.0674
  57   2.0000      -0.437784       -11.9127
  58   2.0000      -0.430156       -11.7051
  59   2.0000      -0.424511       -11.5515
  60   2.0000      -0.419529       -11.4160
  61   2.0000      -0.416932       -11.3453
  62   2.0000      -0.407978       -11.1016
  63   2.0000      -0.342162        -9.3107
  64   2.0000      -0.332827        -9.0567
  65   2.0000      -0.322541        -8.7768
  66   2.0000      -0.305217        -8.3054
  67   0.0000       0.047686         1.2976
  68   0.0000       0.066065         1.7977
  69   0.0000       0.119163         3.2426
  70   0.0000       0.125411         3.4126
  71   0.0000       0.133031         3.6199

MULLIKEN ATOMIC CHARGES
-----------------------
   0 S :    0.135075
   1 C :   -0.080496
   2 C :   -0.096891
   3 C :    0.055444
   4 C :   -0.141307
   5 H :   -0.036125
   6 C :    0.106521
   7 H :    0.025920
   8 H :    0.030587
   9 C :   -0.136006
  10 H :    0.040575
  11 H :    0.046892
  12 C :   -0.069275
  13 H :    0.040118
  14 H :    0.044517
  15 H :    0.043141
  16 S :    0.122611
  17 C :   -0.044102
  18 C :   -0.060385
  19 C :   -0.005741
  20 C :   -0.220325
  21 H :    0.019700
  22 C :    0.053491
  23 H :    0.026789
  24 H :    0.025273
  25 C :   -0.083028
  26 H :    0.025793
  27 H :    0.043345
  28 C :   -0.056686
  29 H :    0.038104
  30 H :    0.022442
  31 H :    0.042019
  32 H :    0.008736
  33 H :    0.033273
Sum of atomic charges:   -0.0000000

LOEWDIN ATOMIC CHARGES
----------------------
   0 S :    0.424074
   1 C :   -0.206345
   2 C :   -0.061608
   3 C :   -0.053514
   4 C :   -0.200831
   5 H :    0.020058
   6 C :   -0.034073
   7 H :    0.026423
   8 H :    0.033713
   9 C :   -0.044629
  10 H :    0.030416
  11 H :    0.027603
  12 C :   -0.071105
  13 H :    0.030279
  14 H :    0.035358
  15 H :    0.017362
  16 S :    0.425580
  17 C :   -0.192377
  18 C :   -0.073302
  19 C :   -0.059138
  20 C :   -0.189580
  21 H :    0.032541
  22 C :   -0.033228
  23 H :    0.032717
  24 H :    0.027368
  25 C :   -0.038359
  26 H :    0.025365
  27 H :    0.028160
  28 C :   -0.070721
  29 H :    0.023713
  30 H :    0.023062
  31 H :    0.025444
  32 H :    0.016784
  33 H :    0.022786

  Mayer bond orders larger than 0.100000
B(  0-S ,  1-C ) :   1.1407 B(  0-S ,  4-C ) :   1.1350 B(  1-C ,  2-C ) :   1.6429
B(  1-C , 32-H ) :   0.9719 B(  2-C ,  3-C ) :   1.2035 B(  2-C ,  6-C ) :   1.0013
B(  3-C ,  4-C ) :   1.6162 B(  3-C ,  5-H ) :   0.9923 B(  4-C , 20-C ) :   1.0021
B(  6-C ,  7-H ) :   0.9317 B(  6-C ,  8-H ) :   0.9445 B(  6-C ,  9-C ) :   1.0858
B(  9-C , 10-H ) :   0.9651 B(  9-C , 11-H ) :   0.9510 B(  9-C , 12-C ) :   1.0356
B( 12-C , 13-H ) :   0.9825 B( 12-C , 14-H ) :   0.9793 B( 12-C , 15-H ) :   0.9858
B( 16-S , 17-C ) :   1.1555 B( 16-S , 20-C ) :   1.1480 B( 17-C , 18-C ) :   1.6359
B( 17-C , 33-H ) :   0.9598 B( 18-C , 19-C ) :   1.2346 B( 18-C , 21-H ) :   0.9838
B( 19-C , 20-C ) :   1.6268 B( 19-C , 22-C ) :   1.0477 B( 22-C , 23-H ) :   0.9319
B( 22-C , 24-H ) :   0.9399 B( 22-C , 25-C ) :   1.0657 B( 25-C , 26-H ) :   0.9531
B( 25-C , 27-H ) :   0.9577 B( 25-C , 28-C ) :   1.0841 B( 28-C , 29-H ) :   0.9650
B( 28-C , 30-H ) :   0.9659 B( 28-C , 31-H ) :   0.9726

Dispersion correction           -0.015730622
FINAL SINGLE POINT ENERGY     -1339.862222922961

DIPOLE MOMENT
-------------
                                X             Y             Z
Electronic contribution:      9.71037      19.28743      14.40973
Nuclear contribution   :    -10.09054     -19.73199     -14.71077
                        -----------------------------------------
Total Dipole Moment    :     -0.38017      -0.44456      -0.30103
                        -----------------------------------------
Magnitude (a.u.)       :      0.65786
Magnitude (Debye)      :      1.67215

Rotational constants in cm-1:     0.017475     0.009956     0.008293
Rotational constants in MHz :   523.895818   298.466178   248.628525

                             ****ORCA TERMINATED NORMALLY****
TOTAL RUN TIME: 0 days 0 hours 0 minutes 22 seconds 748 msec
