                         Program Version 4.2.1 -  RELEASE  -
|  1> ! wB97X-D3 SP def2-SVP
|  2> %pal
|  3> nprocs 24
|  4> end
|  5>
|  6> * xyz 0 1
|  7> S 	 -97.8865 	 -26.9211 	 -64.1391
|  8> C 	 -97.5987 	 -25.211 	 -64.5798
|  9> C 	 -97.5137 	 -24.4034 	 -63.4506
| 10> C 	 -97.75 	 -25.1936 	 -62.2823
| 11> C 	 -97.8692 	 -26.5598 	 -62.4501
| 12> H 	 -97.8044 	 -24.823 	 -61.269
| 13> C 	 -97.3695 	 -22.8827 	 -63.3242
| 14> H 	 -96.3372 	 -22.7786 	 -62.9718
| 15> H 	 -98.0202 	 -22.3124 	 -62.7493
| 16> C 	 -97.3821 	 -22.1816 	 -64.6826
| 17> H 	 -96.6603 	 -22.746 	 -65.241
| 18> H 	 -98.3228 	 -22.3202 	 -65.2158
| 19> C 	 -97.1207 	 -20.7118 	 -64.5572
| 20> H 	 -96.1146 	 -20.5698 	 -64.1698
| 21> H 	 -97.1445 	 -20.2005 	 -65.4983
| 22> H 	 -97.7995 	 -20.3147 	 -63.7863
| 23> S 	 -96.3887 	 -28.7008 	 -61.2829
| 24> C 	 -97.1913 	 -29.6187 	 -60.1001
| 25> C 	 -98.3283 	 -29.0484 	 -59.5609
| 26> C 	 -98.6858 	 -27.9493 	 -60.3492
| 27> C 	 -97.8102 	 -27.6676 	 -61.4151
| 28> H 	 -98.9322 	 -29.4291 	 -58.7471
| 29> C 	 -99.9028 	 -27.1127 	 -59.9839
| 30> H 	 -100.666 	 -27.8101 	 -59.7396
| 31> H 	 -100.205 	 -26.5004 	 -60.9119
| 32> C 	 -99.7095 	 -26.1437 	 -58.8183
| 33> H 	 -98.7173 	 -25.7652 	 -58.814
| 34> H 	 -99.864 	 -26.7125 	 -57.8476
| 35> C 	 -100.731 	 -24.9853 	 -58.8093
| 36> H 	 -101.748 	 -25.3165 	 -58.846
| 37> H 	 -100.482 	 -24.4197 	 -59.7075
| 38> H 	 -100.669 	 -24.2656 	 -58.0233
| 39> H 	 -97.365 	 -24.8199 	 -65.5265
| 40> H 	 -96.6749 	 -30.361 	 -59.5493
| 41> *
| 42>
| 43>                          ****END OF INPUT****

CARTESIAN COORDINATES (ANGSTROEM)
---------------------------------
  S    -97.886500  -26.921100  -64.139100
  C    -97.598700  -25.211000  -64.579800
  C    -97.513700  -24.403400  -63.450600
  C    -97.750000  -25.193600  -62.282300
  C    -97.869200  -26.559800  -62.450100
  H    -97.804400  -24.823000  -61.269000
  C    -97.369500  -22.882700  -63.324200
  H    -96.337200  -22.778600  -62.971800
  H    -98.020200  -22.312400  -62.749300
  C    -97.382100  -22.181600  -64.682600
  H    -96.660300  -22.746000  -65.241000
  H    -98.322800  -22.320200  -65.215800
  C    -97.120700  -20.711800  -64.557200
  H    -96.114600  -20.569800  -64.169800
  H    -97.144500  -20.200500  -65.498300
  H    -97.799500  -20.314700  -63.786300
  S    -96.388700  -28.700800  -61.282900
  C    -97.191300  -29.618700  -60.100100
  C    -98.328300  -29.048400  -59.560900
  C    -98.685800  -27.949300  -60.349200
  C    -97.810200  -27.667600  -61.415100
  H    -98.932200  -29.429100  -58.747100
  C    -99.902800  -27.112700  -59.983900
  H    -100.666000  -27.810100  -59.739600
  H    -100.205000  -26.500400  -60.911900
  C    -99.709500  -26.143700  -58.818300
  H    -98.717300  -25.765200  -58.814000
  H    -99.864000  -26.712500  -57.847600
  C    -100.731000  -24.985300  -58.809300
  H    -101.748000  -25.316500  -58.846000
  H    -100.482000  -24.419700  -59.707500
  H    -100.669000  -24.265600  -58.023300
  H    -97.365000  -24.819900  -65.526500
  H    -96.674900  -30.361000  -59.549300

 Total Charge           Charge          ....    0
 Multiplicity           Mult            ....    1
 Number of Electrons    NEL             ....  134
 Basis Dimension        Dim             ....  322

ORBITAL ENERGIES
----------------

  NO   OCC          E(Eh)            E(eV)
   0   2.0000     -88.970079     -2420.9989
   1   2.0000     -88.966082     -2420.8902
   2   2.0000     -10.330545      -281.1084
   3   2.0000     -10.330131      -281.0971
   4   2.0000     -10.315680      -280.7039
   5   2.0000     -10.311963      -280.6028
   6   2.0000     -10.305591      -280.4294
   7   2.0000     -10.300743      -280.2975
   8   2.0000     -10.291440      -280.0443
   9   2.0000     -10.291431      -280.0441
  10   2.0000     -10.290919      -280.0301
  11   2.0000     -10.290055      -280.0066
  12   2.0000     -10.287951      -279.9494
  13   2.0000     -10.279794      -279.7274
  14   2.0000     -10.277682      -279.6700
  15   2.0000     -10.274116      -279.5729
  16   2.0000      -8.085366      -220.0140
  17   2.0000      -8.080413      -219.8792
  18   2.0000      -6.043623      -164.4553
  19   2.0000      -6.039896      -164.3539
  20   2.0000      -6.039009      -164.3298
  21   2.0000      -6.036255      -164.2549
  22   2.0000      -6.034909      -164.2182
  23   2.0000      -6.031154      -164.1160
  24   2.0000      -1.006493       -27.3881
  25   2.0000      -0.986998       -26.8576
  26   2.0000      -0.921284       -25.0694
  27   2.0000      -0.909534       -24.7497
  28   2.0000      -0.865772       -23.5588
  29   2.0000      -0.855134       -23.2694
  30   2.0000      -0.845294       -23.0016
  31   2.0000      -0.812543       -22.1104
  32   2.0000      -0.785971       -21.3874
  33   2.0000      -0.773864       -21.0579
  34   2.0000      -0.711567       -19.3627
  35   2.0000      -0.698722       -19.0132
  36   2.0000      -0.686886       -18.6911
  37   2.0000      -0.661667       -18.0049
  38   2.0000      -0.643379       -17.5072
  39   2.0000      -0.613433       -16.6924
  40   2.0000      -0.599112       -16.3027
  41   2.0000      -0.588897       -16.0247
  42   2.0000      -0.570930       -15.5358
  43   2.0000      -0.564518       -15.3613
  44   2.0000      -0.527921       -14.3654
  45   2.0000      -0.523284       -14.2393
  46   2.0000      -0.517414       -14.0795
  47   2.0000      -0.512551       -13.9472
  48   2.0000      -0.503448       -13.6995
  49   2.0000      -0.498532       -13.5658
  50   2.0000      -0.495273       -13.4771
  51   2.0000      -0.476876       -12.9764
  52   2.0000      -0.472642       -12.8612
  53   2.0000      -0.470364       -12.7993
  54   2.0000      -0.462093       -12.5742
  55   2.0000      -0.449427       -12.2295
  56   2.0000      -0.448007       -12.1909
  57   2.0000      -0.439719       -11.9654
  58   2.0000      -0.430109       -11.7039
  59   2.0000      -0.426549       -11.6070
  60   2.0000      -0.423372       -11.5205
  61   2.0000      -0.415743       -11.3130
  62   2.0000      -0.410810       -11.1787
  63   2.0000      -0.339298        -9.2328
  64   2.0000      -0.330825        -9.0022
  65   2.0000      -0.328590        -8.9414
  66   2.0000      -0.301196        -8.1960
  67   0.0000       0.034254         0.9321
  68   0.0000       0.061961         1.6861
  69   0.0000       0.113796         3.0965
  70   0.0000       0.118100         3.2137
  71   0.0000       0.128189         3.4882

MULLIKEN ATOMIC CHARGES
-----------------------
   0 S :    0.114650
   1 C :   -0.104556
   2 C :   -0.089487
   3 C :    0.038176
   4 C :   -0.169664
   5 H :   -0.002649
   6 C :    0.086336
   7 H :    0.036553
   8 H :    0.021114
   9 C :   -0.123705
  10 H :    0.019559
  11 H :    0.031978
  12 C :   -0.001745
  13 H :    0.017108
  14 H :    0.036173
  15 H :    0.030058
  16 S :    0.133258
  17 C :   -0.063864
  18 C :   -0.035930
  19 C :   -0.042837
  20 C :   -0.165844
  21 H :    0.022502
  22 C :    0.049606
  23 H :    0.018835
  24 H :    0.042285
  25 C :   -0.070984
  26 H :    0.027748
  27 H :    0.028597
  28 C :   -0.033643
  29 H :    0.029395
  30 H :    0.022893
  31 H :    0.027123
  32 H :    0.026529
  33 H :    0.044437
Sum of atomic charges:   -0.0000000

LOEWDIN ATOMIC CHARGES
----------------------
   0 S :    0.406183
   1 C :   -0.184259
   2 C :   -0.057649
   3 C :   -0.065194
   4 C :   -0.204335
   5 H :    0.026111
   6 C :   -0.019951
   7 H :    0.040380
   8 H :    0.019690
   9 C :   -0.046238
  10 H :    0.016232
  11 H :    0.021904
  12 C :   -0.059188
  13 H :    0.024152
  14 H :    0.026428
  15 H :    0.028740
  16 S :    0.435610
  17 C :   -0.188484
  18 C :   -0.070996
  19 C :   -0.050516
  20 C :   -0.211766
  21 H :    0.035619
  22 C :   -0.033939
  23 H :    0.024505
  24 H :    0.038833
  25 C :   -0.038666
  26 H :    0.017016
  27 H :    0.026128
  28 C :   -0.061949
  29 H :    0.022689
  30 H :    0.024809
  31 H :    0.022204
  32 H :    0.017004
  33 H :    0.018893

  Mayer bond orders larger than 0.100000
B(  0-S ,  1-C ) :   1.1315 B(  0-S ,  4-C ) :   1.1570 B(  1-C ,  2-C ) :   1.6213
B(  1-C , 32-H ) :   0.9674 B(  2-C ,  3-C ) :   1.2468 B(  2-C ,  6-C ) :   0.9955
B(  3-C ,  4-C ) :   1.5907 B(  3-C ,  5-H ) :   0.9972 B(  4-C , 20-C ) :   0.9950
B(  6-C ,  7-H ) :   0.9290 B(  6-C ,  8-H ) :   0.9596 B(  6-C ,  9-C ) :   1.0742
B(  9-C , 10-H ) :   0.9469 B(  9-C , 11-H ) :   0.9559 B(  9-C , 12-C ) :   1.0938
B( 12-C , 13-H ) :   0.9712 B( 12-C , 14-H ) :   0.9695 B( 12-C , 15-H ) :   0.9704
B( 16-S , 17-C ) :   1.1979 B( 16-S , 20-C ) :   1.1499 B( 17-C , 18-C ) :   1.5595
B( 17-C , 33-H ) :   0.9633 B( 18-C , 19-C ) :   1.2849 B( 18-C , 21-H ) :   0.9938
B( 19-C , 20-C ) :   1.5721 B( 19-C , 22-C ) :   1.0512 B( 22-C , 23-H ) :   0.9285
B( 22-C , 24-H ) :   0.9389 B( 22-C , 25-C ) :   1.0551 B( 25-C , 26-H ) :   0.9608
B( 25-C , 27-H ) :   0.9501 B( 25-C , 28-C ) :   1.0838 B( 28-C , 29-H ) :   0.9757
B( 28-C , 30-H ) :   0.9744 B( 28-C , 31-H ) :   0.9754

Dispersion correction           -0.013866755
FINAL SINGLE POINT ENERGY     -1339.867787730650

DIPOLE MOMENT
-------------
                                X             Y             Z
Electronic contribution:      9.60769     -26.97641      -6.16234
Nuclear contribution   :     -9.66714      27.50985       6.59863
                        -----------------------------------------
Total Dipole Moment    :     -0.05944       0.53344       0.43629
                        -----------------------------------------
Magnitude (a.u.)       :      0.69170
Magnitude (Debye)      :      1.75815

Rotational constants in cm-1:     0.019452     0.007823     0.006139
Rotational constants in MHz :   583.142605   234.529531   184.053444

                             ****ORCA TERMINATED NORMALLY****
TOTAL RUN TIME: 0 days 0 hours 0 minutes 21 seconds 214 msec
