                         Program Version 4.2.1 -  RELEASE  -
|  1> ! wB97X-D3 SP def2-SVP
|  2> %pal
|  3> nprocs 24
|  4> end
|  5>
|  6> * xyz 0 1
|  7> S 	 -105.752 	 64.097 	 -11.3795
|  8> C 	 -104.825 	 65.4318 	 -11.8357
|  9> C 	 -103.718 	 65.5488 	 -11.0503
| 10> C 	 -103.619 	 64.5365 	 -10.0697
| 11> C 	 -104.797 	 63.7593 	 -10.0088
| 12> H 	 -102.982 	 64.3006 	 -9.29108
| 13> C 	 -102.71 	 66.6352 	 -11.2982
| 14> H 	 -103.066 	 67.0841 	 -12.1558
| 15> H 	 -101.726 	 66.1511 	 -11.4927
| 16> C 	 -102.772 	 67.7246 	 -10.1091
| 17> H 	 -103.739 	 68.1079 	 -10.0007
| 18> H 	 -102.612 	 67.3004 	 -9.11816
| 19> C 	 -101.831 	 68.8903 	 -10.2174
| 20> H 	 -101.867 	 69.4818 	 -9.30244
| 21> H 	 -100.88 	 68.5306 	 -10.4029
| 22> H 	 -102.286 	 69.464 	 -11.075
| 23> S 	 -104.313 	 61.0565 	 -9.5809
| 24> C 	 -104.69 	 60.2929 	 -8.09247
| 25> C 	 -104.893 	 61.2706 	 -7.14028
| 26> C 	 -105.036 	 62.6136 	 -7.69658
| 27> C 	 -104.949 	 62.6634 	 -9.09911
| 28> H 	 -105.084 	 60.9945 	 -6.17628
| 29> C 	 -105.176 	 63.853 	 -6.80476
| 30> H 	 -104.692 	 64.695 	 -7.21826
| 31> H 	 -104.595 	 63.6495 	 -5.9523
| 32> C 	 -106.6 	 64.2105 	 -6.3365
| 33> H 	 -106.663 	 64.7634 	 -5.40717
| 34> H 	 -107.136 	 63.2836 	 -6.0711
| 35> C 	 -107.44 	 64.9811 	 -7.43993
| 36> H 	 -108.421 	 65.0022 	 -7.02189
| 37> H 	 -107.535 	 64.4774 	 -8.40553
| 38> H 	 -107.031 	 65.9887 	 -7.53866
| 39> H 	 -105.047 	 66.015 	 -12.726
| 40> H 	 -104.623 	 59.2127 	 -7.91955
| 41> *
| 42>
| 43>                          ****END OF INPUT****

CARTESIAN COORDINATES (ANGSTROEM)
---------------------------------
  S    -105.752000   64.097000  -11.379500
  C    -104.825000   65.431800  -11.835700
  C    -103.718000   65.548800  -11.050300
  C    -103.619000   64.536500  -10.069700
  C    -104.797000   63.759300  -10.008800
  H    -102.982000   64.300600   -9.291080
  C    -102.710000   66.635200  -11.298200
  H    -103.066000   67.084100  -12.155800
  H    -101.726000   66.151100  -11.492700
  C    -102.772000   67.724600  -10.109100
  H    -103.739000   68.107900  -10.000700
  H    -102.612000   67.300400   -9.118160
  C    -101.831000   68.890300  -10.217400
  H    -101.867000   69.481800   -9.302440
  H    -100.880000   68.530600  -10.402900
  H    -102.286000   69.464000  -11.075000
  S    -104.313000   61.056500   -9.580900
  C    -104.690000   60.292900   -8.092470
  C    -104.893000   61.270600   -7.140280
  C    -105.036000   62.613600   -7.696580
  C    -104.949000   62.663400   -9.099110
  H    -105.084000   60.994500   -6.176280
  C    -105.176000   63.853000   -6.804760
  H    -104.692000   64.695000   -7.218260
  H    -104.595000   63.649500   -5.952300
  C    -106.600000   64.210500   -6.336500
  H    -106.663000   64.763400   -5.407170
  H    -107.136000   63.283600   -6.071100
  C    -107.440000   64.981100   -7.439930
  H    -108.421000   65.002200   -7.021890
  H    -107.535000   64.477400   -8.405530
  H    -107.031000   65.988700   -7.538660
  H    -105.047000   66.015000  -12.726000
  H    -104.623000   59.212700   -7.919550

 Total Charge           Charge          ....    0
 Multiplicity           Mult            ....    1
 Number of Electrons    NEL             ....  134
 Basis Dimension        Dim             ....  322

ORBITAL ENERGIES
----------------

  NO   OCC          E(Eh)            E(eV)
   0   2.0000     -88.965979     -2420.8874
   1   2.0000     -88.956452     -2420.6281
   2   2.0000     -10.326517      -280.9988
   3   2.0000     -10.322500      -280.8895
   4   2.0000     -10.318429      -280.7787
   5   2.0000     -10.310244      -280.5560
   6   2.0000     -10.308373      -280.5051
   7   2.0000     -10.297587      -280.2116
   8   2.0000     -10.292704      -280.0787
   9   2.0000     -10.289659      -279.9959
  10   2.0000     -10.289198      -279.9833
  11   2.0000     -10.285832      -279.8917
  12   2.0000     -10.282463      -279.8000
  13   2.0000     -10.281395      -279.7710
  14   2.0000     -10.273048      -279.5439
  15   2.0000     -10.270748      -279.4813
  16   2.0000      -8.082385      -219.9329
  17   2.0000      -8.071677      -219.6415
  18   2.0000      -6.040533      -164.3713
  19   2.0000      -6.036503      -164.2616
  20   2.0000      -6.033566      -164.1817
  21   2.0000      -6.030268      -164.0919
  22   2.0000      -6.026114      -163.9789
  23   2.0000      -6.022296      -163.8750
  24   2.0000      -1.015038       -27.6206
  25   2.0000      -0.986988       -26.8573
  26   2.0000      -0.911766       -24.8104
  27   2.0000      -0.900842       -24.5132
  28   2.0000      -0.877058       -23.8660
  29   2.0000      -0.857900       -23.3446
  30   2.0000      -0.837952       -22.8018
  31   2.0000      -0.816752       -22.2250
  32   2.0000      -0.783926       -21.3317
  33   2.0000      -0.770764       -20.9736
  34   2.0000      -0.709012       -19.2932
  35   2.0000      -0.697364       -18.9763
  36   2.0000      -0.693043       -18.8587
  37   2.0000      -0.659262       -17.9394
  38   2.0000      -0.656231       -17.8570
  39   2.0000      -0.614467       -16.7205
  40   2.0000      -0.595754       -16.2113
  41   2.0000      -0.573813       -15.6142
  42   2.0000      -0.563702       -15.3391
  43   2.0000      -0.546769       -14.8783
  44   2.0000      -0.536923       -14.6104
  45   2.0000      -0.532742       -14.4966
  46   2.0000      -0.524476       -14.2717
  47   2.0000      -0.517866       -14.0918
  48   2.0000      -0.507953       -13.8221
  49   2.0000      -0.504205       -13.7201
  50   2.0000      -0.492949       -13.4138
  51   2.0000      -0.476776       -12.9737
  52   2.0000      -0.474010       -12.8985
  53   2.0000      -0.467500       -12.7213
  54   2.0000      -0.463680       -12.6174
  55   2.0000      -0.445117       -12.1123
  56   2.0000      -0.439483       -11.9589
  57   2.0000      -0.438426       -11.9302
  58   2.0000      -0.430112       -11.7039
  59   2.0000      -0.420648       -11.4464
  60   2.0000      -0.415952       -11.3186
  61   2.0000      -0.415346       -11.3021
  62   2.0000      -0.407428       -11.0867
  63   2.0000      -0.334988        -9.1155
  64   2.0000      -0.323581        -8.8051
  65   2.0000      -0.319416        -8.6917
  66   2.0000      -0.310891        -8.4598
  67   0.0000       0.034602         0.9416
  68   0.0000       0.057882         1.5750
  69   0.0000       0.106538         2.8990
  70   0.0000       0.125924         3.4266
  71   0.0000       0.138448         3.7674

MULLIKEN ATOMIC CHARGES
-----------------------
   0 S :    0.138681
   1 C :   -0.121268
   2 C :   -0.103064
   3 C :    0.075377
   4 C :   -0.208400
   5 H :   -0.013502
   6 C :    0.137063
   7 H :   -0.015862
   8 H :    0.045251
   9 C :   -0.091977
  10 H :    0.009990
  11 H :    0.016273
  12 C :   -0.010159
  13 H :    0.037551
  14 H :    0.019621
  15 H :    0.032829
  16 S :    0.086802
  17 C :   -0.089823
  18 C :    0.005607
  19 C :   -0.068654
  20 C :   -0.147182
  21 H :   -0.015186
  22 C :    0.132610
  23 H :    0.005401
  24 H :    0.003735
  25 C :   -0.086184
  26 H :    0.024980
  27 H :    0.020366
  28 C :   -0.047264
  29 H :    0.024435
  30 H :    0.039758
  31 H :    0.037322
  32 H :    0.053905
  33 H :    0.070966
Sum of atomic charges:    0.0000000

LOEWDIN ATOMIC CHARGES
----------------------
   0 S :    0.462086
   1 C :   -0.218154
   2 C :   -0.067334
   3 C :   -0.042307
   4 C :   -0.224289
   5 H :    0.020474
   6 C :   -0.017536
   7 H :    0.015492
   8 H :    0.038456
   9 C :   -0.037196
  10 H :    0.016452
  11 H :    0.018568
  12 C :   -0.057883
  13 H :    0.029229
  14 H :    0.012598
  15 H :    0.031658
  16 S :    0.393884
  17 C :   -0.185135
  18 C :   -0.069408
  19 C :   -0.040706
  20 C :   -0.196476
  21 H :    0.013288
  22 C :   -0.029033
  23 H :    0.022118
  24 H :    0.026309
  25 C :   -0.037525
  26 H :    0.021764
  27 H :    0.022684
  28 C :   -0.062262
  29 H :    0.021712
  30 H :    0.024698
  31 H :    0.024843
  32 H :    0.031814
  33 H :    0.037116

  Mayer bond orders larger than 0.100000
B(  0-S ,  1-C ) :   1.1725 B(  0-S ,  4-C ) :   1.1832 B(  1-C ,  2-C ) :   1.5734
B(  1-C , 32-H ) :   0.9676 B(  2-C ,  3-C ) :   1.2421 B(  2-C ,  6-C ) :   1.0311
B(  3-C ,  4-C ) :   1.5205 B(  3-C ,  5-H ) :   1.0168 B(  4-C , 20-C ) :   1.0492
B(  6-C ,  7-H ) :   0.9287 B(  6-C ,  8-H ) :   0.9390 B(  6-C ,  9-C ) :   1.0448
B(  9-C , 10-H ) :   0.9562 B(  9-C , 11-H ) :   0.9611 B(  9-C , 12-C ) :   1.0897
B( 12-C , 13-H ) :   0.9725 B( 12-C , 14-H ) :   0.9756 B( 12-C , 15-H ) :   0.9777
B( 16-S , 17-C ) :   1.1731 B( 16-S , 20-C ) :   1.1273 B( 17-C , 18-C ) :   1.5879
B( 17-C , 20-C ) :   0.1000 B( 17-C , 33-H ) :   0.9676 B( 18-C , 19-C ) :   1.2399
B( 18-C , 21-H ) :   1.0051 B( 19-C , 20-C ) :   1.5825 B( 19-C , 22-C ) :   1.0450
B( 22-C , 23-H ) :   0.9349 B( 22-C , 24-H ) :   0.9259 B( 22-C , 25-C ) :   1.0663
B( 25-C , 26-H ) :   0.9569 B( 25-C , 27-H ) :   0.9588 B( 25-C , 28-C ) :   1.0732
B( 28-C , 29-H ) :   0.9750 B( 28-C , 30-H ) :   0.9764 B( 28-C , 31-H ) :   0.9781

Dispersion correction           -0.014796782
FINAL SINGLE POINT ENERGY     -1339.850470018781

DIPOLE MOMENT
-------------
                                X             Y             Z
Electronic contribution:     -2.99859     -23.72580     -11.14619
Nuclear contribution   :      3.25416      24.10869      11.54417
                        -----------------------------------------
Total Dipole Moment    :      0.25556       0.38289       0.39798
                        -----------------------------------------
Magnitude (a.u.)       :      0.60853
Magnitude (Debye)      :      1.54676

Rotational constants in cm-1:     0.018846     0.008445     0.007419
Rotational constants in MHz :   564.993959   253.178404   222.413626

                             ****ORCA TERMINATED NORMALLY****
TOTAL RUN TIME: 0 days 0 hours 0 minutes 22 seconds 77 msec
