                         Program Version 4.2.1 -  RELEASE  -
|  1> ! wB97X-D3 SP def2-SVP
|  2> %pal
|  3> nprocs 24
|  4> end
|  5>
|  6> * xyz 0 1
|  7> S 	 -32.0617 	 -35.4232 	 -88.079
|  8> C 	 -31.1922 	 -34.2691 	 -89.0243
|  9> C 	 -30.2731 	 -34.783 	 -89.8346
| 10> C 	 -30.2644 	 -36.2126 	 -89.82
| 11> C 	 -31.329 	 -36.7232 	 -89.0115
| 12> H 	 -29.644 	 -36.783 	 -90.4506
| 13> C 	 -29.2962 	 -33.9239 	 -90.7022
| 14> H 	 -29.8338 	 -33.1497 	 -91.1947
| 15> H 	 -28.91 	 -34.5109 	 -91.5201
| 16> C 	 -28.1902 	 -33.3377 	 -89.8409
| 17> H 	 -28.5608 	 -32.7743 	 -88.9946
| 18> H 	 -27.6535 	 -34.1936 	 -89.5195
| 19> C 	 -27.3036 	 -32.3687 	 -90.6011
| 20> H 	 -27.9048 	 -31.4583 	 -90.7782
| 21> H 	 -26.443 	 -32.2117 	 -89.932
| 22> H 	 -27.0568 	 -32.6157 	 -91.6507
| 23> S 	 -32.8396 	 -38.4949 	 -87.5286
| 24> C 	 -32.5858 	 -40.1865 	 -87.6051
| 25> C 	 -31.6834 	 -40.5254 	 -88.5788
| 26> C 	 -31.1623 	 -39.3929 	 -89.3342
| 27> C 	 -31.6727 	 -38.1376 	 -88.8537
| 28> H 	 -31.3921 	 -41.5808 	 -88.6643
| 29> C 	 -30.1762 	 -39.5841 	 -90.5406
| 30> H 	 -29.8981 	 -40.595 	 -90.2914
| 31> H 	 -29.2903 	 -39.0175 	 -90.4512
| 32> C 	 -30.8558 	 -39.4046 	 -91.917
| 33> H 	 -31.3559 	 -38.4769 	 -91.8932
| 34> H 	 -31.5155 	 -40.1864 	 -92.1912
| 35> C 	 -29.961 	 -39.0118 	 -93.1037
| 36> H 	 -29.3054 	 -39.8464 	 -93.518
| 37> H 	 -29.3326 	 -38.1893 	 -92.714
| 38> H 	 -30.556 	 -38.6818 	 -93.9386
| 39> H 	 -31.4447 	 -33.2217 	 -88.8467
| 40> H 	 -33.0379 	 -40.9411 	 -86.9676
| 41> *
| 42>
| 43>                          ****END OF INPUT****

CARTESIAN COORDINATES (ANGSTROEM)
---------------------------------
  S    -32.061700  -35.423200  -88.079000
  C    -31.192200  -34.269100  -89.024300
  C    -30.273100  -34.783000  -89.834600
  C    -30.264400  -36.212600  -89.820000
  C    -31.329000  -36.723200  -89.011500
  H    -29.644000  -36.783000  -90.450600
  C    -29.296200  -33.923900  -90.702200
  H    -29.833800  -33.149700  -91.194700
  H    -28.910000  -34.510900  -91.520100
  C    -28.190200  -33.337700  -89.840900
  H    -28.560800  -32.774300  -88.994600
  H    -27.653500  -34.193600  -89.519500
  C    -27.303600  -32.368700  -90.601100
  H    -27.904800  -31.458300  -90.778200
  H    -26.443000  -32.211700  -89.932000
  H    -27.056800  -32.615700  -91.650700
  S    -32.839600  -38.494900  -87.528600
  C    -32.585800  -40.186500  -87.605100
  C    -31.683400  -40.525400  -88.578800
  C    -31.162300  -39.392900  -89.334200
  C    -31.672700  -38.137600  -88.853700
  H    -31.392100  -41.580800  -88.664300
  C    -30.176200  -39.584100  -90.540600
  H    -29.898100  -40.595000  -90.291400
  H    -29.290300  -39.017500  -90.451200
  C    -30.855800  -39.404600  -91.917000
  H    -31.355900  -38.476900  -91.893200
  H    -31.515500  -40.186400  -92.191200
  C    -29.961000  -39.011800  -93.103700
  H    -29.305400  -39.846400  -93.518000
  H    -29.332600  -38.189300  -92.714000
  H    -30.556000  -38.681800  -93.938600
  H    -31.444700  -33.221700  -88.846700
  H    -33.037900  -40.941100  -86.967600

 Total Charge           Charge          ....    0
 Multiplicity           Mult            ....    1
 Number of Electrons    NEL             ....  134
 Basis Dimension        Dim             ....  322

ORBITAL ENERGIES
----------------

  NO   OCC          E(Eh)            E(eV)
   0   2.0000     -88.968177     -2420.9472
   1   2.0000     -88.964022     -2420.8341
   2   2.0000     -10.339557      -281.3536
   3   2.0000     -10.337254      -281.2910
   4   2.0000     -10.316511      -280.7265
   5   2.0000     -10.315801      -280.7072
   6   2.0000     -10.307170      -280.4723
   7   2.0000     -10.297843      -280.2185
   8   2.0000     -10.297601      -280.2120
   9   2.0000     -10.296843      -280.1914
  10   2.0000     -10.294774      -280.1350
  11   2.0000     -10.290078      -280.0073
  12   2.0000     -10.283858      -279.8380
  13   2.0000     -10.280910      -279.7578
  14   2.0000     -10.280061      -279.7347
  15   2.0000     -10.279745      -279.7261
  16   2.0000      -8.083323      -219.9584
  17   2.0000      -8.078840      -219.8364
  18   2.0000      -6.041969      -164.4103
  19   2.0000      -6.037862      -164.2986
  20   2.0000      -6.037383      -164.2855
  21   2.0000      -6.033851      -164.1894
  22   2.0000      -6.033276      -164.1738
  23   2.0000      -6.029630      -164.0746
  24   2.0000      -1.004752       -27.3407
  25   2.0000      -0.982638       -26.7389
  26   2.0000      -0.915315       -24.9070
  27   2.0000      -0.908115       -24.7111
  28   2.0000      -0.870447       -23.6861
  29   2.0000      -0.853919       -23.2363
  30   2.0000      -0.846094       -23.0234
  31   2.0000      -0.812083       -22.0979
  32   2.0000      -0.783764       -21.3273
  33   2.0000      -0.772683       -21.0258
  34   2.0000      -0.707038       -19.2395
  35   2.0000      -0.699454       -19.0331
  36   2.0000      -0.693188       -18.8626
  37   2.0000      -0.664889       -18.0925
  38   2.0000      -0.637729       -17.3535
  39   2.0000      -0.623308       -16.9611
  40   2.0000      -0.593553       -16.1514
  41   2.0000      -0.574989       -15.6463
  42   2.0000      -0.569098       -15.4859
  43   2.0000      -0.559473       -15.2240
  44   2.0000      -0.536785       -14.6067
  45   2.0000      -0.524915       -14.2837
  46   2.0000      -0.518237       -14.1020
  47   2.0000      -0.509884       -13.8747
  48   2.0000      -0.508050       -13.8247
  49   2.0000      -0.498873       -13.5750
  50   2.0000      -0.490981       -13.3603
  51   2.0000      -0.485585       -13.2134
  52   2.0000      -0.470785       -12.8107
  53   2.0000      -0.462274       -12.5791
  54   2.0000      -0.459024       -12.4907
  55   2.0000      -0.452833       -12.3222
  56   2.0000      -0.446603       -12.1527
  57   2.0000      -0.443765       -12.0754
  58   2.0000      -0.435478       -11.8500
  59   2.0000      -0.423364       -11.5203
  60   2.0000      -0.420811       -11.4509
  61   2.0000      -0.416182       -11.3249
  62   2.0000      -0.399287       -10.8652
  63   2.0000      -0.365404        -9.9431
  64   2.0000      -0.337600        -9.1866
  65   2.0000      -0.328349        -8.9348
  66   2.0000      -0.276975        -7.5369
  67   0.0000       0.012860         0.3499
  68   0.0000       0.087330         2.3764
  69   0.0000       0.095285         2.5928
  70   0.0000       0.121333         3.3016
  71   0.0000       0.134022         3.6469

MULLIKEN ATOMIC CHARGES
-----------------------
   0 S :    0.106983
   1 C :   -0.144460
   2 C :   -0.056499
   3 C :    0.017659
   4 C :   -0.101488
   5 H :   -0.032973
   6 C :    0.091425
   7 H :    0.010003
   8 H :    0.011959
   9 C :   -0.065062
  10 H :    0.032433
  11 H :    0.021270
  12 C :   -0.043506
  13 H :    0.025261
  14 H :    0.048542
  15 H :    0.027382
  16 S :    0.077755
  17 C :   -0.077017
  18 C :   -0.052174
  19 C :   -0.094468
  20 C :   -0.117697
  21 H :    0.028885
  22 C :    0.104267
  23 H :    0.008578
  24 H :    0.017496
  25 C :   -0.030388
  26 H :    0.024560
  27 H :    0.029069
  28 C :   -0.079986
  29 H :    0.036854
  30 H :    0.027363
  31 H :    0.038086
  32 H :    0.049772
  33 H :    0.060117
Sum of atomic charges:   -0.0000000

LOEWDIN ATOMIC CHARGES
----------------------
   0 S :    0.406191
   1 C :   -0.198275
   2 C :   -0.062110
   3 C :   -0.060166
   4 C :   -0.181756
   5 H :    0.016471
   6 C :   -0.020687
   7 H :    0.022099
   8 H :    0.025395
   9 C :   -0.037581
  10 H :    0.026485
  11 H :    0.019550
  12 C :   -0.069757
  13 H :    0.026290
  14 H :    0.032799
  15 H :    0.024213
  16 S :    0.394169
  17 C :   -0.196798
  18 C :   -0.084043
  19 C :   -0.048681
  20 C :   -0.179150
  21 H :    0.036185
  22 C :   -0.023232
  23 H :    0.029062
  24 H :    0.020850
  25 C :   -0.035795
  26 H :    0.026676
  27 H :    0.021884
  28 C :   -0.065176
  29 H :    0.024220
  30 H :    0.022748
  31 H :    0.025281
  32 H :    0.027371
  33 H :    0.035269

  Mayer bond orders larger than 0.100000
B(  0-S ,  1-C ) :   1.1274 B(  0-S ,  4-C ) :   1.1570 B(  1-C ,  2-C ) :   1.6323
B(  1-C , 32-H ) :   0.9669 B(  2-C ,  3-C ) :   1.2633 B(  2-C ,  6-C ) :   1.0063
B(  3-C ,  4-C ) :   1.5193 B(  3-C ,  5-H ) :   1.0014 B(  4-C , 20-C ) :   1.1200
B(  6-C ,  7-H ) :   0.9419 B(  6-C ,  8-H ) :   0.9401 B(  6-C ,  9-C ) :   1.0668
B(  9-C , 10-H ) :   0.9583 B(  9-C , 11-H ) :   0.9557 B(  9-C , 12-C ) :   1.0793
B( 12-C , 13-H ) :   0.9734 B( 12-C , 14-H ) :   0.9737 B( 12-C , 15-H ) :   0.9735
B( 16-S , 17-C ) :   1.1630 B( 16-S , 20-C ) :   1.1295 B( 17-C , 18-C ) :   1.6154
B( 17-C , 33-H ) :   0.9615 B( 18-C , 19-C ) :   1.2654 B( 18-C , 21-H ) :   0.9817
B( 19-C , 20-C ) :   1.5420 B( 19-C , 22-C ) :   1.0243 B( 22-C , 23-H ) :   0.9282
B( 22-C , 24-H ) :   0.9377 B( 22-C , 25-C ) :   1.0590 B( 25-C , 26-H ) :   0.9603
B( 25-C , 27-H ) :   0.9577 B( 25-C , 28-C ) :   1.0694 B( 28-C , 29-H ) :   0.9738
B( 28-C , 30-H ) :   0.9776 B( 28-C , 31-H ) :   0.9757

Dispersion correction           -0.013778184
FINAL SINGLE POINT ENERGY     -1339.863291909281

DIPOLE MOMENT
-------------
                                X             Y             Z
Electronic contribution:    -21.05046      -6.33296      21.96548
Nuclear contribution   :     21.47701       6.29467     -22.35097
                        -----------------------------------------
Total Dipole Moment    :      0.42656      -0.03829      -0.38549
                        -----------------------------------------
Magnitude (a.u.)       :      0.57621
Magnitude (Debye)      :      1.46462

Rotational constants in cm-1:     0.018656     0.008389     0.006193
Rotational constants in MHz :   559.288148   251.502228   185.661036

                             ****ORCA TERMINATED NORMALLY****
TOTAL RUN TIME: 0 days 0 hours 0 minutes 21 seconds 226 msec
