                         Program Version 4.2.1 -  RELEASE  -
|  1> ! wB97X-D3 SP def2-SVP
|  2> %pal
|  3> nprocs 24
|  4> end
|  5>
|  6> * xyz 0 1
|  7> S 	 -68.6699 	 14.5899 	 -70.605
|  8> C 	 -67.8446 	 13.7129 	 -69.3564
|  9> C 	 -67.6847 	 14.4959 	 -68.1997
| 10> C 	 -68.3581 	 15.7813 	 -68.2701
| 11> C 	 -68.7553 	 16.0959 	 -69.5858
| 12> H 	 -68.3421 	 16.5471 	 -67.4672
| 13> C 	 -67.1414 	 14.0237 	 -66.9098
| 14> H 	 -67.2348 	 13.0038 	 -66.9967
| 15> H 	 -67.7516 	 14.3835 	 -66.0702
| 16> C 	 -65.6446 	 14.228 	 -66.6238
| 17> H 	 -65.4091 	 13.4692 	 -65.8965
| 18> H 	 -65.0269 	 14.1479 	 -67.5376
| 19> C 	 -65.3321 	 15.5267 	 -65.929
| 20> H 	 -65.6813 	 15.4837 	 -64.8581
| 21> H 	 -64.2996 	 15.7271 	 -65.8391
| 22> H 	 -65.6731 	 16.4092 	 -66.4628
| 23> S 	 -70.5045 	 17.2245 	 -71.3966
| 24> C 	 -70.6921 	 18.9896 	 -71.5574
| 25> C 	 -69.9643 	 19.5935 	 -70.5382
| 26> C 	 -69.2906 	 18.6534 	 -69.63
| 27> C 	 -69.4698 	 17.3022 	 -70.0109
| 28> H 	 -69.8438 	 20.6996 	 -70.5387
| 29> C 	 -68.3133 	 19.1483 	 -68.537
| 30> H 	 -67.8074 	 20.0121 	 -68.9254
| 31> H 	 -67.5681 	 18.3442 	 -68.3878
| 32> C 	 -68.854 	 19.5699 	 -67.1897
| 33> H 	 -68.1484 	 19.851 	 -66.4079
| 34> H 	 -69.3571 	 18.6993 	 -66.79
| 35> C 	 -69.9476 	 20.7031 	 -67.2283
| 36> H 	 -70.6676 	 20.4996 	 -68.0504
| 37> H 	 -69.5046 	 21.6955 	 -67.5326
| 38> H 	 -70.532 	 20.8183 	 -66.3274
| 39> H 	 -67.4199 	 12.6699 	 -69.4827
| 40> H 	 -71.2736 	 19.5396 	 -72.2927
| 41> *
| 42>
| 43>                          ****END OF INPUT****

CARTESIAN COORDINATES (ANGSTROEM)
---------------------------------
  S    -68.669900   14.589900  -70.605000
  C    -67.844600   13.712900  -69.356400
  C    -67.684700   14.495900  -68.199700
  C    -68.358100   15.781300  -68.270100
  C    -68.755300   16.095900  -69.585800
  H    -68.342100   16.547100  -67.467200
  C    -67.141400   14.023700  -66.909800
  H    -67.234800   13.003800  -66.996700
  H    -67.751600   14.383500  -66.070200
  C    -65.644600   14.228000  -66.623800
  H    -65.409100   13.469200  -65.896500
  H    -65.026900   14.147900  -67.537600
  C    -65.332100   15.526700  -65.929000
  H    -65.681300   15.483700  -64.858100
  H    -64.299600   15.727100  -65.839100
  H    -65.673100   16.409200  -66.462800
  S    -70.504500   17.224500  -71.396600
  C    -70.692100   18.989600  -71.557400
  C    -69.964300   19.593500  -70.538200
  C    -69.290600   18.653400  -69.630000
  C    -69.469800   17.302200  -70.010900
  H    -69.843800   20.699600  -70.538700
  C    -68.313300   19.148300  -68.537000
  H    -67.807400   20.012100  -68.925400
  H    -67.568100   18.344200  -68.387800
  C    -68.854000   19.569900  -67.189700
  H    -68.148400   19.851000  -66.407900
  H    -69.357100   18.699300  -66.790000
  C    -69.947600   20.703100  -67.228300
  H    -70.667600   20.499600  -68.050400
  H    -69.504600   21.695500  -67.532600
  H    -70.532000   20.818300  -66.327400
  H    -67.419900   12.669900  -69.482700
  H    -71.273600   19.539600  -72.292700

 Total Charge           Charge          ....    0
 Multiplicity           Mult            ....    1
 Number of Electrons    NEL             ....  134
 Basis Dimension        Dim             ....  322

ORBITAL ENERGIES
----------------

  NO   OCC          E(Eh)            E(eV)
   0   2.0000     -88.972023     -2421.0518
   1   2.0000     -88.967185     -2420.9202
   2   2.0000     -10.342804      -281.4420
   3   2.0000     -10.335639      -281.2470
   4   2.0000     -10.324758      -280.9509
   5   2.0000     -10.323862      -280.9266
   6   2.0000     -10.314401      -280.6691
   7   2.0000     -10.305255      -280.4203
   8   2.0000     -10.304717      -280.4056
   9   2.0000     -10.304363      -280.3960
  10   2.0000     -10.294355      -280.1236
  11   2.0000     -10.287581      -279.9393
  12   2.0000     -10.285403      -279.8800
  13   2.0000     -10.282091      -279.7899
  14   2.0000     -10.281118      -279.7634
  15   2.0000     -10.274423      -279.5813
  16   2.0000      -8.085547      -220.0189
  17   2.0000      -8.081636      -219.9125
  18   2.0000      -6.044286      -164.4734
  19   2.0000      -6.040297      -164.3648
  20   2.0000      -6.040205      -164.3623
  21   2.0000      -6.036146      -164.2519
  22   2.0000      -6.036071      -164.2498
  23   2.0000      -6.032349      -164.1486
  24   2.0000      -1.001102       -27.2414
  25   2.0000      -0.978412       -26.6239
  26   2.0000      -0.916703       -24.9448
  27   2.0000      -0.906287       -24.6613
  28   2.0000      -0.870768       -23.6948
  29   2.0000      -0.852066       -23.1859
  30   2.0000      -0.838282       -22.8108
  31   2.0000      -0.817501       -22.2453
  32   2.0000      -0.782457       -21.2917
  33   2.0000      -0.771321       -20.9887
  34   2.0000      -0.707382       -19.2489
  35   2.0000      -0.700255       -19.0549
  36   2.0000      -0.690597       -18.7921
  37   2.0000      -0.662986       -18.0408
  38   2.0000      -0.633976       -17.2514
  39   2.0000      -0.617315       -16.7980
  40   2.0000      -0.587924       -15.9982
  41   2.0000      -0.578045       -15.7294
  42   2.0000      -0.558232       -15.1903
  43   2.0000      -0.549983       -14.9658
  44   2.0000      -0.546747       -14.8777
  45   2.0000      -0.542139       -14.7524
  46   2.0000      -0.513948       -13.9852
  47   2.0000      -0.510507       -13.8916
  48   2.0000      -0.503307       -13.6957
  49   2.0000      -0.498970       -13.5777
  50   2.0000      -0.489350       -13.3159
  51   2.0000      -0.478612       -13.0237
  52   2.0000      -0.476486       -12.9658
  53   2.0000      -0.464379       -12.6364
  54   2.0000      -0.458792       -12.4844
  55   2.0000      -0.446638       -12.1536
  56   2.0000      -0.442531       -12.0419
  57   2.0000      -0.434890       -11.8340
  58   2.0000      -0.429732       -11.6936
  59   2.0000      -0.422171       -11.4879
  60   2.0000      -0.420819       -11.4511
  61   2.0000      -0.416428       -11.3316
  62   2.0000      -0.410129       -11.1602
  63   2.0000      -0.362416        -9.8618
  64   2.0000      -0.333048        -9.0627
  65   2.0000      -0.325808        -8.8657
  66   2.0000      -0.284227        -7.7342
  67   0.0000       0.013358         0.3635
  68   0.0000       0.076633         2.0853
  69   0.0000       0.100291         2.7290
  70   0.0000       0.112304         3.0559
  71   0.0000       0.125917         3.4264

MULLIKEN ATOMIC CHARGES
-----------------------
   0 S :    0.105505
   1 C :   -0.135036
   2 C :   -0.107509
   3 C :   -0.002014
   4 C :   -0.124879
   5 H :    0.034966
   6 C :    0.096467
   7 H :   -0.006738
   8 H :    0.030006
   9 C :   -0.051277
  10 H :    0.026001
  11 H :    0.036209
  12 C :   -0.057812
  13 H :    0.032852
  14 H :    0.018642
  15 H :    0.026052
  16 S :    0.089144
  17 C :   -0.100827
  18 C :   -0.040967
  19 C :   -0.077517
  20 C :   -0.110889
  21 H :    0.042332
  22 C :    0.056904
  23 H :    0.020026
  24 H :    0.036159
  25 C :   -0.052492
  26 H :    0.037286
  27 H :    0.019870
  28 C :   -0.091269
  29 H :    0.036558
  30 H :    0.028676
  31 H :    0.040147
  32 H :    0.078802
  33 H :    0.066622
Sum of atomic charges:   -0.0000000

LOEWDIN ATOMIC CHARGES
----------------------
   0 S :    0.388804
   1 C :   -0.214114
   2 C :   -0.063155
   3 C :   -0.060964
   4 C :   -0.168926
   5 H :    0.036011
   6 C :   -0.031849
   7 H :    0.021718
   8 H :    0.036396
   9 C :   -0.035638
  10 H :    0.025181
  11 H :    0.029212
  12 C :   -0.071737
  13 H :    0.030413
  14 H :    0.019689
  15 H :    0.021339
  16 S :    0.399160
  17 C :   -0.182974
  18 C :   -0.073914
  19 C :   -0.056754
  20 C :   -0.199888
  21 H :    0.038610
  22 C :   -0.033495
  23 H :    0.027118
  24 H :    0.033332
  25 C :   -0.043543
  26 H :    0.027170
  27 H :    0.018814
  28 C :   -0.074733
  29 H :    0.027505
  30 H :    0.024545
  31 H :    0.024586
  32 H :    0.045729
  33 H :    0.036351

  Mayer bond orders larger than 0.100000
B(  0-S ,  1-C ) :   1.1385 B(  0-S ,  4-C ) :   1.1346 B(  1-C ,  2-C ) :   1.6010
B(  1-C , 32-H ) :   0.9536 B(  2-C ,  3-C ) :   1.2449 B(  2-C ,  6-C ) :   1.0404
B(  3-C ,  4-C ) :   1.5447 B(  3-C ,  5-H ) :   0.9757 B(  4-C , 20-C ) :   1.0923
B(  6-C ,  7-H ) :   0.9263 B(  6-C ,  8-H ) :   0.9412 B(  6-C ,  9-C ) :   1.0630
B(  9-C , 10-H ) :   0.9555 B(  9-C , 11-H ) :   0.9540 B(  9-C , 12-C ) :   1.0924
B( 12-C , 13-H ) :   0.9732 B( 12-C , 14-H ) :   0.9702 B( 12-C , 15-H ) :   0.9740
B( 16-S , 17-C ) :   1.1383 B( 16-S , 20-C ) :   1.1372 B( 17-C , 18-C ) :   1.6158
B( 17-C , 33-H ) :   0.9692 B( 18-C , 19-C ) :   1.2486 B( 18-C , 21-H ) :   0.9781
B( 19-C , 20-C ) :   1.5624 B( 19-C , 22-C ) :   1.0336 B( 22-C , 23-H ) :   0.9388
B( 22-C , 24-H ) :   0.9335 B( 22-C , 25-C ) :   1.0698 B( 25-C , 26-H ) :   0.9577
B( 25-C , 27-H ) :   0.9486 B( 25-C , 28-C ) :   1.0719 B( 28-C , 29-H ) :   0.9727
B( 28-C , 30-H ) :   0.9763 B( 28-C , 31-H ) :   0.9764

Dispersion correction           -0.014451177
FINAL SINGLE POINT ENERGY     -1339.870308972857

DIPOLE MOMENT
-------------
                                X             Y             Z
Electronic contribution:    -12.95984      -9.95374     -25.78683
Nuclear contribution   :     13.34389      10.13720      26.29405
                        -----------------------------------------
Total Dipole Moment    :      0.38405       0.18346       0.50722
                        -----------------------------------------
Magnitude (a.u.)       :      0.66214
Magnitude (Debye)      :      1.68301

Rotational constants in cm-1:     0.017768     0.009547     0.006493
Rotational constants in MHz :   532.660226   286.202267   194.666195

                             ****ORCA TERMINATED NORMALLY****
TOTAL RUN TIME: 0 days 0 hours 0 minutes 20 seconds 678 msec
