                         Program Version 4.2.1 -  RELEASE  -
|  1> ! wB97X-D3 SP def2-SVP
|  2> %pal
|  3> nprocs 24
|  4> end
|  5>
|  6> * xyz 0 1
|  7> S 	 -117.743 	 59.7447 	 -37.9004
|  8> C 	 -118.692 	 60.6388 	 -39.0205
|  9> C 	 -119.896 	 60.9985 	 -38.4146
| 10> C 	 -119.958 	 60.587 	 -37.0617
| 11> C 	 -118.822 	 59.9838 	 -36.5684
| 12> H 	 -120.757 	 60.7507 	 -36.2613
| 13> C 	 -121.011 	 61.8231 	 -39.1771
| 14> H 	 -120.445 	 62.6396 	 -39.5551
| 15> H 	 -121.658 	 62.0861 	 -38.4157
| 16> C 	 -121.601 	 60.9746 	 -40.3035
| 17> H 	 -122.404 	 61.5304 	 -40.7687
| 18> H 	 -120.845 	 60.7434 	 -41.0594
| 19> C 	 -122.191 	 59.6746 	 -39.8323
| 20> H 	 -121.458 	 59.0806 	 -39.3087
| 21> H 	 -122.964 	 59.9376 	 -39.1697
| 22> H 	 -122.572 	 59.0733 	 -40.6845
| 23> S 	 -117.451 	 60.6358 	 -34.3434
| 24> C 	 -118.094 	 60.1231 	 -32.7934
| 25> C 	 -119.137 	 59.2465 	 -32.9547
| 26> C 	 -119.471 	 58.9071 	 -34.2846
| 27> C 	 -118.628 	 59.5615 	 -35.1625
| 28> H 	 -119.619 	 58.8079 	 -32.1425
| 29> C 	 -120.651 	 58.0486 	 -34.6648
| 30> H 	 -121.414 	 58.5919 	 -35.2784
| 31> H 	 -121.135 	 57.7511 	 -33.7645
| 32> C 	 -120.215 	 56.7418 	 -35.4232
| 33> H 	 -119.852 	 57.0027 	 -36.4341
| 34> H 	 -121.194 	 56.1772 	 -35.5774
| 35> C 	 -119.1 	 55.9751 	 -34.6696
| 36> H 	 -118.239 	 56.6013 	 -34.4306
| 37> H 	 -118.856 	 55.1226 	 -35.337
| 38> H 	 -119.356 	 55.4978 	 -33.6643
| 39> H 	 -118.57 	 60.6968 	 -40.0854
| 40> H 	 -117.726 	 60.3768 	 -31.863
| 41> *
| 42>
| 43>                          ****END OF INPUT****

CARTESIAN COORDINATES (ANGSTROEM)
---------------------------------
  S    -117.743000   59.744700  -37.900400
  C    -118.692000   60.638800  -39.020500
  C    -119.896000   60.998500  -38.414600
  C    -119.958000   60.587000  -37.061700
  C    -118.822000   59.983800  -36.568400
  H    -120.757000   60.750700  -36.261300
  C    -121.011000   61.823100  -39.177100
  H    -120.445000   62.639600  -39.555100
  H    -121.658000   62.086100  -38.415700
  C    -121.601000   60.974600  -40.303500
  H    -122.404000   61.530400  -40.768700
  H    -120.845000   60.743400  -41.059400
  C    -122.191000   59.674600  -39.832300
  H    -121.458000   59.080600  -39.308700
  H    -122.964000   59.937600  -39.169700
  H    -122.572000   59.073300  -40.684500
  S    -117.451000   60.635800  -34.343400
  C    -118.094000   60.123100  -32.793400
  C    -119.137000   59.246500  -32.954700
  C    -119.471000   58.907100  -34.284600
  C    -118.628000   59.561500  -35.162500
  H    -119.619000   58.807900  -32.142500
  C    -120.651000   58.048600  -34.664800
  H    -121.414000   58.591900  -35.278400
  H    -121.135000   57.751100  -33.764500
  C    -120.215000   56.741800  -35.423200
  H    -119.852000   57.002700  -36.434100
  H    -121.194000   56.177200  -35.577400
  C    -119.100000   55.975100  -34.669600
  H    -118.239000   56.601300  -34.430600
  H    -118.856000   55.122600  -35.337000
  H    -119.356000   55.497800  -33.664300
  H    -118.570000   60.696800  -40.085400
  H    -117.726000   60.376800  -31.863000

 Total Charge           Charge          ....    0
 Multiplicity           Mult            ....    1
 Number of Electrons    NEL             ....  134
 Basis Dimension        Dim             ....  322

ORBITAL ENERGIES
----------------

  NO   OCC          E(Eh)            E(eV)
   0   2.0000     -88.966029     -2420.8887
   1   2.0000     -88.964736     -2420.8535
   2   2.0000     -10.329098      -281.0691
   3   2.0000     -10.326007      -280.9849
   4   2.0000     -10.314997      -280.6853
   5   2.0000     -10.309765      -280.5430
   6   2.0000     -10.304249      -280.3929
   7   2.0000     -10.300845      -280.3002
   8   2.0000     -10.295818      -280.1635
   9   2.0000     -10.295059      -280.1428
  10   2.0000     -10.294227      -280.1202
  11   2.0000     -10.288563      -279.9660
  12   2.0000     -10.287499      -279.9371
  13   2.0000     -10.283291      -279.8226
  14   2.0000     -10.281979      -279.7869
  15   2.0000     -10.268479      -279.4195
  16   2.0000      -8.080257      -219.8750
  17   2.0000      -8.079964      -219.8670
  18   2.0000      -6.038761      -164.3230
  19   2.0000      -6.038408      -164.3134
  20   2.0000      -6.034829      -164.2161
  21   2.0000      -6.034134      -164.1971
  22   2.0000      -6.031034      -164.1128
  23   2.0000      -6.031030      -164.1127
  24   2.0000      -1.008387       -27.4396
  25   2.0000      -0.986993       -26.8575
  26   2.0000      -0.915166       -24.9029
  27   2.0000      -0.905254       -24.6332
  28   2.0000      -0.868777       -23.6406
  29   2.0000      -0.846529       -23.0352
  30   2.0000      -0.843046       -22.9405
  31   2.0000      -0.813168       -22.1274
  32   2.0000      -0.784569       -21.3492
  33   2.0000      -0.775526       -21.1031
  34   2.0000      -0.707341       -19.2477
  35   2.0000      -0.699704       -19.0399
  36   2.0000      -0.685830       -18.6624
  37   2.0000      -0.670194       -18.2369
  38   2.0000      -0.639042       -17.3892
  39   2.0000      -0.606507       -16.5039
  40   2.0000      -0.594995       -16.1906
  41   2.0000      -0.579574       -15.7710
  42   2.0000      -0.556162       -15.1339
  43   2.0000      -0.549593       -14.9552
  44   2.0000      -0.544755       -14.8235
  45   2.0000      -0.540835       -14.7169
  46   2.0000      -0.517755       -14.0888
  47   2.0000      -0.515356       -14.0236
  48   2.0000      -0.504417       -13.7259
  49   2.0000      -0.495130       -13.4732
  50   2.0000      -0.487740       -13.2721
  51   2.0000      -0.479583       -13.0501
  52   2.0000      -0.471010       -12.8168
  53   2.0000      -0.465077       -12.6554
  54   2.0000      -0.457284       -12.4433
  55   2.0000      -0.441360       -12.0100
  56   2.0000      -0.439709       -11.9651
  57   2.0000      -0.435012       -11.8373
  58   2.0000      -0.432092       -11.7578
  59   2.0000      -0.427731       -11.6391
  60   2.0000      -0.421643       -11.4735
  61   2.0000      -0.416163       -11.3244
  62   2.0000      -0.407832       -11.0977
  63   2.0000      -0.343294        -9.3415
  64   2.0000      -0.331058        -9.0085
  65   2.0000      -0.328396        -8.9361
  66   2.0000      -0.298786        -8.1304
  67   0.0000       0.032378         0.8810
  68   0.0000       0.060565         1.6480
  69   0.0000       0.111432         3.0322
  70   0.0000       0.126607         3.4451
  71   0.0000       0.134041         3.6474

MULLIKEN ATOMIC CHARGES
-----------------------
   0 S :    0.117102
   1 C :   -0.110596
   2 C :   -0.166705
   3 C :    0.013819
   4 C :   -0.178652
   5 H :    0.036433
   6 C :    0.153744
   7 H :    0.033943
   8 H :    0.002201
   9 C :   -0.082276
  10 H :    0.027623
  11 H :    0.024206
  12 C :   -0.037005
  13 H :    0.040623
  14 H :    0.015280
  15 H :    0.038289
  16 S :    0.103579
  17 C :   -0.042402
  18 C :   -0.017787
  19 C :   -0.066436
  20 C :   -0.155570
  21 H :   -0.009421
  22 C :    0.102277
  23 H :    0.041765
  24 H :    0.003796
  25 C :   -0.102759
  26 H :    0.046999
  27 H :    0.042661
  28 C :   -0.082297
  29 H :    0.058889
  30 H :    0.043084
  31 H :    0.033419
  32 H :    0.047091
  33 H :    0.025084
Sum of atomic charges:   -0.0000000

LOEWDIN ATOMIC CHARGES
----------------------
   0 S :    0.428870
   1 C :   -0.215902
   2 C :   -0.063308
   3 C :   -0.083728
   4 C :   -0.217448
   5 H :    0.041956
   6 C :   -0.010394
   7 H :    0.032517
   8 H :    0.018056
   9 C :   -0.039958
  10 H :    0.022575
  11 H :    0.021058
  12 C :   -0.059670
  13 H :    0.023832
  14 H :    0.016877
  15 H :    0.030886
  16 S :    0.397680
  17 C :   -0.163033
  18 C :   -0.064283
  19 C :   -0.053795
  20 C :   -0.183728
  21 H :    0.019892
  22 C :   -0.030874
  23 H :    0.036614
  24 H :    0.022930
  25 C :   -0.040120
  26 H :    0.026999
  27 H :    0.031235
  28 C :   -0.077819
  29 H :    0.029555
  30 H :    0.031624
  31 H :    0.028651
  32 H :    0.027559
  33 H :    0.014695

  Mayer bond orders larger than 0.100000
B(  0-S ,  1-C ) :   1.1599 B(  0-S ,  4-C ) :   1.1687 B(  1-C ,  2-C ) :   1.5716
B(  1-C ,  4-C ) :   0.1049 B(  1-C , 32-H ) :   0.9721 B(  2-C ,  3-C ) :   1.2800
B(  2-C ,  6-C ) :   0.9837 B(  3-C ,  4-C ) :   1.5632 B(  3-C ,  5-H ) :   0.9773
B(  4-C , 20-C ) :   0.9918 B(  6-C ,  7-H ) :   0.9425 B(  6-C ,  8-H ) :   0.9418
B(  6-C ,  9-C ) :   1.0761 B(  9-C , 10-H ) :   0.9558 B(  9-C , 11-H ) :   0.9562
B(  9-C , 12-C ) :   1.0812 B( 12-C , 13-H ) :   0.9706 B( 12-C , 14-H ) :   0.9762
B( 12-C , 15-H ) :   0.9716 B( 16-S , 17-C ) :   1.1542 B( 16-S , 20-C ) :   1.1479
B( 17-C , 18-C ) :   1.6065 B( 17-C , 33-H ) :   0.9762 B( 18-C , 19-C ) :   1.2486
B( 18-C , 21-H ) :   0.9949 B( 19-C , 20-C ) :   1.5892 B( 19-C , 22-C ) :   1.0409
B( 22-C , 23-H ) :   0.9351 B( 22-C , 24-H ) :   0.9279 B( 22-C , 25-C ) :   1.0628
B( 25-C , 26-H ) :   0.9562 B( 25-C , 27-H ) :   0.9592 B( 25-C , 28-C ) :   1.0645
B( 28-C , 29-H ) :   0.9684 B( 28-C , 30-H ) :   0.9744 B( 28-C , 31-H ) :   0.9762

Dispersion correction           -0.015666778
FINAL SINGLE POINT ENERGY     -1339.872868981419

DIPOLE MOMENT
-------------
                                X             Y             Z
Electronic contribution:     19.74819      10.59694       8.17179
Nuclear contribution   :    -20.42830     -10.67041      -8.11050
                        -----------------------------------------
Total Dipole Moment    :     -0.68011      -0.07347       0.06129
                        -----------------------------------------
Magnitude (a.u.)       :      0.68681
Magnitude (Debye)      :      1.74574

Rotational constants in cm-1:     0.020810     0.008893     0.007597
Rotational constants in MHz :   623.880857   266.603652   227.747913

                             ****ORCA TERMINATED NORMALLY****
TOTAL RUN TIME: 0 days 0 hours 0 minutes 22 seconds 617 msec
