                         Program Version 4.2.1 -  RELEASE  -
|  1> ! wB97X-D3 SP def2-SVP
|  2> %pal
|  3> nprocs 24
|  4> end
|  5>
|  6> * xyz 0 1
|  7> S 	 -147.236 	 4.48275 	 13.4836
|  8> C 	 -146.987 	 3.59997 	 12.0222
|  9> C 	 -145.656 	 3.18911 	 11.9263
| 10> C 	 -144.958 	 3.40347 	 13.1661
| 11> C 	 -145.718 	 3.96914 	 14.1851
| 12> H 	 -143.95 	 3.03445 	 13.3564
| 13> C 	 -145.007 	 2.55179 	 10.6844
| 14> H 	 -143.942 	 2.54794 	 10.8009
| 15> H 	 -145.274 	 3.24323 	 9.90054
| 16> C 	 -145.384 	 1.10185 	 10.415
| 17> H 	 -146.464 	 1.01799 	 10.1736
| 18> H 	 -144.883 	 0.708357 	 9.53651
| 19> C 	 -145.08 	 0.126121 	 11.4935
| 20> H 	 -145.164 	 -0.873376 	 11.0902
| 21> H 	 -144.03 	 0.241129 	 11.8221
| 22> H 	 -145.719 	 0.25474 	 12.3317
| 23> S 	 -143.974 	 3.0082 	 16.1442
| 24> C 	 -144.133 	 3.47257 	 17.8124
| 25> C 	 -144.966 	 4.57962 	 17.9248
| 26> C 	 -145.506 	 5.05763 	 16.6805
| 27> C 	 -145.197 	 4.19712 	 15.5999
| 28> H 	 -145.107 	 4.92092 	 18.9192
| 29> C 	 -146.403 	 6.25693 	 16.6599
| 30> H 	 -146.779 	 6.41592 	 17.7448
| 31> H 	 -147.178 	 5.9906 	 15.938
| 32> C 	 -145.691 	 7.52479 	 16.1932
| 33> H 	 -145.445 	 7.38052 	 15.1162
| 34> H 	 -144.763 	 7.6542 	 16.7392
| 35> C 	 -146.559 	 8.73551 	 16.3426
| 36> H 	 -147.061 	 8.87483 	 17.3107
| 37> H 	 -147.349 	 8.79674 	 15.6048
| 38> H 	 -146.051 	 9.67072 	 16.1867
| 39> H 	 -147.789 	 3.69393 	 11.2854
| 40> H 	 -143.652 	 2.93367 	 18.6081
| 41> *
| 42>
| 43>                          ****END OF INPUT****

CARTESIAN COORDINATES (ANGSTROEM)
---------------------------------
  S    -147.236000    4.482750   13.483600
  C    -146.987000    3.599970   12.022200
  C    -145.656000    3.189110   11.926300
  C    -144.958000    3.403470   13.166100
  C    -145.718000    3.969140   14.185100
  H    -143.950000    3.034450   13.356400
  C    -145.007000    2.551790   10.684400
  H    -143.942000    2.547940   10.800900
  H    -145.274000    3.243230    9.900540
  C    -145.384000    1.101850   10.415000
  H    -146.464000    1.017990   10.173600
  H    -144.883000    0.708357    9.536510
  C    -145.080000    0.126121   11.493500
  H    -145.164000   -0.873376   11.090200
  H    -144.030000    0.241129   11.822100
  H    -145.719000    0.254740   12.331700
  S    -143.974000    3.008200   16.144200
  C    -144.133000    3.472570   17.812400
  C    -144.966000    4.579620   17.924800
  C    -145.506000    5.057630   16.680500
  C    -145.197000    4.197120   15.599900
  H    -145.107000    4.920920   18.919200
  C    -146.403000    6.256930   16.659900
  H    -146.779000    6.415920   17.744800
  H    -147.178000    5.990600   15.938000
  C    -145.691000    7.524790   16.193200
  H    -145.445000    7.380520   15.116200
  H    -144.763000    7.654200   16.739200
  C    -146.559000    8.735510   16.342600
  H    -147.061000    8.874830   17.310700
  H    -147.349000    8.796740   15.604800
  H    -146.051000    9.670720   16.186700
  H    -147.789000    3.693930   11.285400
  H    -143.652000    2.933670   18.608100

 Total Charge           Charge          ....    0
 Multiplicity           Mult            ....    1
 Number of Electrons    NEL             ....  134
 Basis Dimension        Dim             ....  322

ORBITAL ENERGIES
----------------

  NO   OCC          E(Eh)            E(eV)
   0   2.0000     -88.968254     -2420.9493
   1   2.0000     -88.964015     -2420.8339
   2   2.0000     -10.339889      -281.3627
   3   2.0000     -10.339582      -281.3543
   4   2.0000     -10.317854      -280.7631
   5   2.0000     -10.317343      -280.7492
   6   2.0000     -10.308919      -280.5200
   7   2.0000     -10.307676      -280.4861
   8   2.0000     -10.296263      -280.1756
   9   2.0000     -10.295732      -280.1611
  10   2.0000     -10.293826      -280.1093
  11   2.0000     -10.290726      -280.0249
  12   2.0000     -10.284368      -279.8519
  13   2.0000     -10.281460      -279.7727
  14   2.0000     -10.271181      -279.4930
  15   2.0000     -10.268278      -279.4140
  16   2.0000      -8.083040      -219.9507
  17   2.0000      -8.078343      -219.8229
  18   2.0000      -6.041648      -164.4016
  19   2.0000      -6.037441      -164.2871
  20   2.0000      -6.036966      -164.2742
  21   2.0000      -6.033830      -164.1889
  22   2.0000      -6.032851      -164.1622
  23   2.0000      -6.029087      -164.0598
  24   2.0000      -1.002879       -27.2897
  25   2.0000      -0.983511       -26.7627
  26   2.0000      -0.914638       -24.8886
  27   2.0000      -0.912911       -24.8416
  28   2.0000      -0.865404       -23.5488
  29   2.0000      -0.853748       -23.2317
  30   2.0000      -0.847318       -23.0567
  31   2.0000      -0.812859       -22.1190
  32   2.0000      -0.784176       -21.3385
  33   2.0000      -0.771865       -21.0035
  34   2.0000      -0.702273       -19.1098
  35   2.0000      -0.696311       -18.9476
  36   2.0000      -0.687312       -18.7027
  37   2.0000      -0.666544       -18.1376
  38   2.0000      -0.642070       -17.4716
  39   2.0000      -0.611627       -16.6432
  40   2.0000      -0.591514       -16.0959
  41   2.0000      -0.576471       -15.6866
  42   2.0000      -0.568586       -15.4720
  43   2.0000      -0.557844       -15.1797
  44   2.0000      -0.547209       -14.8903
  45   2.0000      -0.522530       -14.2188
  46   2.0000      -0.517064       -14.0700
  47   2.0000      -0.513479       -13.9725
  48   2.0000      -0.509059       -13.8522
  49   2.0000      -0.492981       -13.4147
  50   2.0000      -0.488327       -13.2880
  51   2.0000      -0.478958       -13.0331
  52   2.0000      -0.470822       -12.8117
  53   2.0000      -0.466368       -12.6905
  54   2.0000      -0.461132       -12.5480
  55   2.0000      -0.447821       -12.1858
  56   2.0000      -0.444361       -12.0917
  57   2.0000      -0.436092       -11.8667
  58   2.0000      -0.429957       -11.6997
  59   2.0000      -0.421102       -11.4588
  60   2.0000      -0.419403       -11.4125
  61   2.0000      -0.416105       -11.3228
  62   2.0000      -0.409767       -11.1503
  63   2.0000      -0.357730        -9.7343
  64   2.0000      -0.331013        -9.0073
  65   2.0000      -0.327256        -8.9051
  66   2.0000      -0.284014        -7.7284
  67   0.0000       0.019533         0.5315
  68   0.0000       0.073583         2.0023
  69   0.0000       0.100623         2.7381
  70   0.0000       0.120414         3.2766
  71   0.0000       0.129775         3.5314

MULLIKEN ATOMIC CHARGES
-----------------------
   0 S :    0.093399
   1 C :   -0.142010
   2 C :   -0.091613
   3 C :   -0.019982
   4 C :   -0.086478
   5 H :    0.022914
   6 C :    0.104929
   7 H :    0.013565
   8 H :    0.033959
   9 C :   -0.073042
  10 H :    0.023360
  11 H :    0.022845
  12 C :   -0.038553
  13 H :    0.030479
  14 H :    0.020468
  15 H :    0.040926
  16 S :    0.074945
  17 C :   -0.088930
  18 C :   -0.032261
  19 C :   -0.050731
  20 C :   -0.140872
  21 H :    0.009004
  22 C :    0.031700
  23 H :    0.038221
  24 H :    0.029726
  25 C :   -0.056821
  26 H :    0.037989
  27 H :    0.028957
  28 C :   -0.023437
  29 H :    0.023334
  30 H :    0.020072
  31 H :    0.022431
  32 H :    0.062013
  33 H :    0.059492
Sum of atomic charges:   -0.0000000

LOEWDIN ATOMIC CHARGES
----------------------
   0 S :    0.415688
   1 C :   -0.207013
   2 C :   -0.058288
   3 C :   -0.077415
   4 C :   -0.192541
   5 H :    0.025771
   6 C :   -0.026109
   7 H :    0.026610
   8 H :    0.033782
   9 C :   -0.044517
  10 H :    0.023728
  11 H :    0.023292
  12 C :   -0.060126
  13 H :    0.027943
  14 H :    0.024558
  15 H :    0.022473
  16 S :    0.395544
  17 C :   -0.182018
  18 C :   -0.071594
  19 C :   -0.057907
  20 C :   -0.178466
  21 H :    0.026911
  22 C :   -0.035022
  23 H :    0.040208
  24 H :    0.025820
  25 C :   -0.040067
  26 H :    0.032944
  27 H :    0.024219
  28 C :   -0.070702
  29 H :    0.024931
  30 H :    0.024324
  31 H :    0.024758
  32 H :    0.029348
  33 H :    0.028932

  Mayer bond orders larger than 0.100000
B(  0-S ,  1-C ) :   1.1534 B(  0-S ,  4-C ) :   1.1548 B(  1-C ,  2-C ) :   1.5623
B(  1-C , 32-H ) :   0.9732 B(  2-C ,  3-C ) :   1.2770 B(  2-C ,  6-C ) :   1.0106
B(  3-C ,  4-C ) :   1.5348 B(  3-C ,  5-H ) :   0.9843 B(  4-C , 20-C ) :   1.0526
B(  6-C ,  7-H ) :   0.9409 B(  6-C ,  8-H ) :   0.9381 B(  6-C ,  9-C ) :   1.0810
B(  9-C , 10-H ) :   0.9521 B(  9-C , 11-H ) :   0.9562 B(  9-C , 12-C ) :   1.0850
B( 12-C , 13-H ) :   0.9713 B( 12-C , 14-H ) :   0.9725 B( 12-C , 15-H ) :   0.9732
B( 16-S , 17-C ) :   1.1593 B( 16-S , 20-C ) :   1.1356 B( 17-C , 18-C ) :   1.6036
B( 17-C , 33-H ) :   0.9693 B( 18-C , 19-C ) :   1.2328 B( 18-C , 21-H ) :   1.0005
B( 19-C , 20-C ) :   1.5660 B( 19-C , 22-C ) :   1.0432 B( 22-C , 23-H ) :   0.9365
B( 22-C , 24-H ) :   0.9324 B( 22-C , 25-C ) :   1.0701 B( 25-C , 26-H ) :   0.9484
B( 25-C , 27-H ) :   0.9556 B( 25-C , 28-C ) :   1.0918 B( 28-C , 29-H ) :   0.9720
B( 28-C , 30-H ) :   0.9703 B( 28-C , 31-H ) :   0.9712

Dispersion correction           -0.014047073
FINAL SINGLE POINT ENERGY     -1339.881343775264

DIPOLE MOMENT
-------------
                                X             Y             Z
Electronic contribution:      0.79047      -3.53025       7.17826
Nuclear contribution   :     -0.73639       3.60894      -7.27102
                        -----------------------------------------
Total Dipole Moment    :      0.05408       0.07870      -0.09276
                        -----------------------------------------
Magnitude (a.u.)       :      0.13313
Magnitude (Debye)      :      0.33838

Rotational constants in cm-1:     0.021496     0.008093     0.006286
Rotational constants in MHz :   644.422518   242.614926   188.457905

                             ****ORCA TERMINATED NORMALLY****
TOTAL RUN TIME: 0 days 0 hours 0 minutes 21 seconds 248 msec
