                         Program Version 4.2.1 -  RELEASE  -
|  1> ! wB97X-D3 SP def2-SVP
|  2> %pal
|  3> nprocs 24
|  4> end
|  5>
|  6> * xyz 0 1
|  7> S 	 -32.6536 	 -36.383 	 -87.3337
|  8> C 	 -31.631 	 -34.916 	 -87.7036
|  9> C 	 -30.3453 	 -35.2767 	 -88.1272
| 10> C 	 -30.3164 	 -36.6801 	 -88.3569
| 11> C 	 -31.4675 	 -37.4115 	 -88.158
| 12> H 	 -29.4535 	 -37.1224 	 -88.8671
| 13> C 	 -29.1265 	 -34.3575 	 -88.3795
| 14> H 	 -28.3042 	 -34.7427 	 -87.8474
| 15> H 	 -29.4594 	 -33.3775 	 -88.0287
| 16> C 	 -28.8633 	 -34.3828 	 -89.8581
| 17> H 	 -28.406 	 -35.3076 	 -90.226
| 18> H 	 -29.8087 	 -34.3104 	 -90.3385
| 19> C 	 -27.8198 	 -33.2722 	 -90.154
| 20> H 	 -27.4855 	 -33.363 	 -91.1905
| 21> H 	 -28.1983 	 -32.2807 	 -89.9666
| 22> H 	 -26.942 	 -33.3838 	 -89.4768
| 23> S 	 -32.1866 	 -39.9132 	 -86.8769
| 24> C 	 -31.8998 	 -41.3373 	 -87.7787
| 25> C 	 -31.5041 	 -40.9965 	 -89.0795
| 26> C 	 -31.2827 	 -39.581 	 -89.3686
| 27> C 	 -31.6495 	 -38.8424 	 -88.2392
| 28> H 	 -31.2842 	 -41.752 	 -89.7377
| 29> C 	 -30.7927 	 -39.0452 	 -90.6977
| 30> H 	 -29.8216 	 -39.466 	 -90.7767
| 31> H 	 -30.5696 	 -37.9597 	 -90.732
| 32> C 	 -31.5404 	 -39.5218 	 -91.9303
| 33> H 	 -32.5573 	 -39.3293 	 -91.8931
| 34> H 	 -31.2556 	 -40.5547 	 -92.0212
| 35> C 	 -31.0326 	 -38.7737 	 -93.1423
| 36> H 	 -29.9546 	 -38.8042 	 -93.1914
| 37> H 	 -31.1891 	 -37.7181 	 -93.0813
| 38> H 	 -31.5897 	 -39.1624 	 -94.0122
| 39> H 	 -31.9555 	 -33.927 	 -87.483
| 40> H 	 -32.0476 	 -42.3108 	 -87.3217
| 41> *
| 42>
| 43>                          ****END OF INPUT****

CARTESIAN COORDINATES (ANGSTROEM)
---------------------------------
  S    -32.653600  -36.383000  -87.333700
  C    -31.631000  -34.916000  -87.703600
  C    -30.345300  -35.276700  -88.127200
  C    -30.316400  -36.680100  -88.356900
  C    -31.467500  -37.411500  -88.158000
  H    -29.453500  -37.122400  -88.867100
  C    -29.126500  -34.357500  -88.379500
  H    -28.304200  -34.742700  -87.847400
  H    -29.459400  -33.377500  -88.028700
  C    -28.863300  -34.382800  -89.858100
  H    -28.406000  -35.307600  -90.226000
  H    -29.808700  -34.310400  -90.338500
  C    -27.819800  -33.272200  -90.154000
  H    -27.485500  -33.363000  -91.190500
  H    -28.198300  -32.280700  -89.966600
  H    -26.942000  -33.383800  -89.476800
  S    -32.186600  -39.913200  -86.876900
  C    -31.899800  -41.337300  -87.778700
  C    -31.504100  -40.996500  -89.079500
  C    -31.282700  -39.581000  -89.368600
  C    -31.649500  -38.842400  -88.239200
  H    -31.284200  -41.752000  -89.737700
  C    -30.792700  -39.045200  -90.697700
  H    -29.821600  -39.466000  -90.776700
  H    -30.569600  -37.959700  -90.732000
  C    -31.540400  -39.521800  -91.930300
  H    -32.557300  -39.329300  -91.893100
  H    -31.255600  -40.554700  -92.021200
  C    -31.032600  -38.773700  -93.142300
  H    -29.954600  -38.804200  -93.191400
  H    -31.189100  -37.718100  -93.081300
  H    -31.589700  -39.162400  -94.012200
  H    -31.955500  -33.927000  -87.483000
  H    -32.047600  -42.310800  -87.321700

 Total Charge           Charge          ....    0
 Multiplicity           Mult            ....    1
 Number of Electrons    NEL             ....  134
 Basis Dimension        Dim             ....  322

ORBITAL ENERGIES
----------------

  NO   OCC          E(Eh)            E(eV)
   0   2.0000     -88.965585     -2420.8766
   1   2.0000     -88.961887     -2420.7760
   2   2.0000     -10.328725      -281.0589
   3   2.0000     -10.328315      -281.0477
   4   2.0000     -10.320039      -280.8225
   5   2.0000     -10.317738      -280.7599
   6   2.0000     -10.308073      -280.4969
   7   2.0000     -10.303221      -280.3649
   8   2.0000     -10.293987      -280.1136
   9   2.0000     -10.292430      -280.0713
  10   2.0000     -10.291685      -280.0510
  11   2.0000     -10.290161      -280.0095
  12   2.0000     -10.286046      -279.8975
  13   2.0000     -10.282439      -279.7994
  14   2.0000     -10.277294      -279.6594
  15   2.0000     -10.274446      -279.5819
  16   2.0000      -8.080021      -219.8685
  17   2.0000      -8.075344      -219.7413
  18   2.0000      -6.038664      -164.3204
  19   2.0000      -6.034531      -164.2079
  20   2.0000      -6.034021      -164.1941
  21   2.0000      -6.030697      -164.1036
  22   2.0000      -6.030203      -164.0902
  23   2.0000      -6.025848      -163.9717
  24   2.0000      -0.997780       -27.1510
  25   2.0000      -0.975345       -26.5405
  26   2.0000      -0.920386       -25.0450
  27   2.0000      -0.919751       -25.0277
  28   2.0000      -0.869955       -23.6727
  29   2.0000      -0.852554       -23.1992
  30   2.0000      -0.836402       -22.7597
  31   2.0000      -0.806495       -21.9458
  32   2.0000      -0.786331       -21.3972
  33   2.0000      -0.773004       -21.0345
  34   2.0000      -0.709902       -19.3174
  35   2.0000      -0.704868       -19.1804
  36   2.0000      -0.697224       -18.9724
  37   2.0000      -0.657074       -17.8799
  38   2.0000      -0.639422       -17.3996
  39   2.0000      -0.620397       -16.8819
  40   2.0000      -0.601983       -16.3808
  41   2.0000      -0.582408       -15.8481
  42   2.0000      -0.579909       -15.7801
  43   2.0000      -0.556299       -15.1377
  44   2.0000      -0.537241       -14.6191
  45   2.0000      -0.529369       -14.4049
  46   2.0000      -0.516791       -14.0626
  47   2.0000      -0.507388       -13.8067
  48   2.0000      -0.506393       -13.7797
  49   2.0000      -0.497854       -13.5473
  50   2.0000      -0.491617       -13.3776
  51   2.0000      -0.475672       -12.9437
  52   2.0000      -0.469537       -12.7767
  53   2.0000      -0.462196       -12.5770
  54   2.0000      -0.459305       -12.4983
  55   2.0000      -0.451144       -12.2762
  56   2.0000      -0.445193       -12.1143
  57   2.0000      -0.442391       -12.0381
  58   2.0000      -0.432937       -11.7808
  59   2.0000      -0.429915       -11.6986
  60   2.0000      -0.426499       -11.6056
  61   2.0000      -0.414323       -11.2743
  62   2.0000      -0.413787       -11.2597
  63   2.0000      -0.346452        -9.4274
  64   2.0000      -0.327773        -8.9192
  65   2.0000      -0.326983        -8.8977
  66   2.0000      -0.285591        -7.7713
  67   0.0000       0.028114         0.7650
  68   0.0000       0.065913         1.7936
  69   0.0000       0.104730         2.8498
  70   0.0000       0.120841         3.2883
  71   0.0000       0.124818         3.3965

MULLIKEN ATOMIC CHARGES
-----------------------
   0 S :    0.079992
   1 C :   -0.123689
   2 C :   -0.114111
   3 C :    0.022894
   4 C :   -0.168384
   5 H :    0.012130
   6 C :    0.129388
   7 H :    0.029387
   8 H :    0.022101
   9 C :   -0.102798
  10 H :    0.032162
  11 H :    0.034297
  12 C :   -0.036035
  13 H :    0.036800
  14 H :    0.028755
  15 H :    0.030076
  16 S :    0.108048
  17 C :   -0.102198
  18 C :   -0.002727
  19 C :   -0.033792
  20 C :   -0.130795
  21 H :   -0.017104
  22 C :    0.049376
  23 H :    0.017024
  24 H :    0.026538
  25 C :   -0.030202
  26 H :    0.028853
  27 H :    0.029887
  28 C :   -0.034171
  29 H :    0.012492
  30 H :    0.019478
  31 H :    0.042474
  32 H :    0.033602
  33 H :    0.070252
Sum of atomic charges:    0.0000000

LOEWDIN ATOMIC CHARGES
----------------------
   0 S :    0.358445
   1 C :   -0.172052
   2 C :   -0.056953
   3 C :   -0.067686
   4 C :   -0.178349
   5 H :    0.027030
   6 C :   -0.014926
   7 H :    0.028260
   8 H :    0.032373
   9 C :   -0.038959
  10 H :    0.024851
  11 H :    0.022304
  12 C :   -0.062864
  13 H :    0.025210
  14 H :    0.020448
  15 H :    0.029430
  16 S :    0.394144
  17 C :   -0.193539
  18 C :   -0.064998
  19 C :   -0.041364
  20 C :   -0.189970
  21 H :    0.010779
  22 C :   -0.035124
  23 H :    0.031101
  24 H :    0.031877
  25 C :   -0.027214
  26 H :    0.018986
  27 H :    0.024939
  28 C :   -0.060046
  29 H :    0.020585
  30 H :    0.020784
  31 H :    0.031864
  32 H :    0.016533
  33 H :    0.034106

  Mayer bond orders larger than 0.100000
B(  0-S ,  1-C ) :   1.1235 B(  0-S ,  4-C ) :   1.1235 B(  1-C ,  2-C ) :   1.6175
B(  1-C ,  4-C ) :   0.1020 B(  1-C , 32-H ) :   0.9735 B(  2-C ,  3-C ) :   1.2381
B(  2-C ,  6-C ) :   1.0154 B(  3-C ,  4-C ) :   1.5833 B(  3-C ,  5-H ) :   0.9810
B(  4-C , 20-C ) :   1.0773 B(  6-C ,  7-H ) :   0.9309 B(  6-C ,  8-H ) :   0.9434
B(  6-C ,  9-C ) :   1.0672 B(  9-C , 10-H ) :   0.9511 B(  9-C , 11-H ) :   0.9605
B(  9-C , 12-C ) :   1.0796 B( 12-C , 13-H ) :   0.9754 B( 12-C , 14-H ) :   0.9785
B( 12-C , 15-H ) :   0.9699 B( 16-S , 17-C ) :   1.1607 B( 16-S , 20-C ) :   1.1193
B( 17-C , 18-C ) :   1.5905 B( 17-C , 33-H ) :   0.9711 B( 18-C , 19-C ) :   1.2300
B( 18-C , 21-H ) :   1.0021 B( 19-C , 20-C ) :   1.5920 B( 19-C , 22-C ) :   1.0395
B( 22-C , 23-H ) :   0.9158 B( 22-C , 24-H ) :   0.9364 B( 22-C , 25-C ) :   1.0714
B( 25-C , 26-H ) :   0.9599 B( 25-C , 27-H ) :   0.9463 B( 25-C , 28-C ) :   1.0992
B( 28-C , 29-H ) :   0.9687 B( 28-C , 30-H ) :   0.9722 B( 28-C , 31-H ) :   0.9722

Dispersion correction           -0.013766626
FINAL SINGLE POINT ENERGY     -1339.862987967333

DIPOLE MOMENT
-------------
                                X             Y             Z
Electronic contribution:    -17.16782     -11.07611      24.73584
Nuclear contribution   :     17.80693      11.15719     -25.31706
                        -----------------------------------------
Total Dipole Moment    :      0.63910       0.08108      -0.58122
                        -----------------------------------------
Magnitude (a.u.)       :      0.86767
Magnitude (Debye)      :      2.20543

Rotational constants in cm-1:     0.016620     0.009024     0.006579
Rotational constants in MHz :   498.257391   270.544165   197.234861

                             ****ORCA TERMINATED NORMALLY****
TOTAL RUN TIME: 0 days 0 hours 0 minutes 20 seconds 560 msec
