                         Program Version 4.2.1 -  RELEASE  -
|  1> ! wB97X-D3 SP def2-SVP
|  2> %pal
|  3> nprocs 24
|  4> end
|  5>
|  6> * xyz 0 1
|  7> S 	 -56.9862 	 13.4923 	 -89.4304
|  8> C 	 -55.9342 	 12.2064 	 -89.1373
|  9> C 	 -55.2943 	 12.2597 	 -87.9393
| 10> C 	 -55.6966 	 13.4929 	 -87.2679
| 11> C 	 -56.3549 	 14.3746 	 -88.1172
| 12> H 	 -55.3504 	 13.6709 	 -86.2756
| 13> C 	 -54.356 	 11.2361 	 -87.3462
| 14> H 	 -53.3599 	 11.6503 	 -87.5736
| 15> H 	 -54.4513 	 10.2911 	 -87.855
| 16> C 	 -54.5748 	 11.008 	 -85.8167
| 17> H 	 -54.5293 	 11.9058 	 -85.1453
| 18> H 	 -55.5769 	 10.5838 	 -85.7761
| 19> C 	 -53.5573 	 9.91837 	 -85.2736
| 20> H 	 -53.7632 	 9.74671 	 -84.1995
| 21> H 	 -53.6078 	 8.97804 	 -85.7664
| 22> H 	 -52.4899 	 10.2359 	 -85.4485
| 23> S 	 -58.6504 	 15.7604 	 -87.7754
| 24> C 	 -58.6113 	 17.404 	 -87.3434
| 25> C 	 -57.4309 	 17.8505 	 -87.1044
| 26> C 	 -56.3873 	 16.9032 	 -87.4066
| 27> C 	 -56.9263 	 15.6763 	 -87.8825
| 28> H 	 -57.2834 	 18.8489 	 -86.7132
| 29> C 	 -54.9121 	 17.1586 	 -87.1163
| 30> H 	 -54.5726 	 16.3421 	 -86.5185
| 31> H 	 -54.9022 	 17.9573 	 -86.4248
| 32> C 	 -54.1087 	 17.3287 	 -88.3827
| 33> H 	 -54.3293 	 18.268 	 -88.8543
| 34> H 	 -54.4258 	 16.4911 	 -89.0648
| 35> C 	 -52.5928 	 17.4067 	 -88.0942
| 36> H 	 -52.3194 	 18.2098 	 -87.4292
| 37> H 	 -52.0153 	 17.6278 	 -88.9432
| 38> H 	 -52.1762 	 16.5541 	 -87.5873
| 39> H 	 -55.7879 	 11.3675 	 -89.8262
| 40> H 	 -59.4686 	 18.003 	 -87.1179
| 41> *
| 42>
| 43>                          ****END OF INPUT****

CARTESIAN COORDINATES (ANGSTROEM)
---------------------------------
  S    -56.986200   13.492300  -89.430400
  C    -55.934200   12.206400  -89.137300
  C    -55.294300   12.259700  -87.939300
  C    -55.696600   13.492900  -87.267900
  C    -56.354900   14.374600  -88.117200
  H    -55.350400   13.670900  -86.275600
  C    -54.356000   11.236100  -87.346200
  H    -53.359900   11.650300  -87.573600
  H    -54.451300   10.291100  -87.855000
  C    -54.574800   11.008000  -85.816700
  H    -54.529300   11.905800  -85.145300
  H    -55.576900   10.583800  -85.776100
  C    -53.557300    9.918370  -85.273600
  H    -53.763200    9.746710  -84.199500
  H    -53.607800    8.978040  -85.766400
  H    -52.489900   10.235900  -85.448500
  S    -58.650400   15.760400  -87.775400
  C    -58.611300   17.404000  -87.343400
  C    -57.430900   17.850500  -87.104400
  C    -56.387300   16.903200  -87.406600
  C    -56.926300   15.676300  -87.882500
  H    -57.283400   18.848900  -86.713200
  C    -54.912100   17.158600  -87.116300
  H    -54.572600   16.342100  -86.518500
  H    -54.902200   17.957300  -86.424800
  C    -54.108700   17.328700  -88.382700
  H    -54.329300   18.268000  -88.854300
  H    -54.425800   16.491100  -89.064800
  C    -52.592800   17.406700  -88.094200
  H    -52.319400   18.209800  -87.429200
  H    -52.015300   17.627800  -88.943200
  H    -52.176200   16.554100  -87.587300
  H    -55.787900   11.367500  -89.826200
  H    -59.468600   18.003000  -87.117900

 Total Charge           Charge          ....    0
 Multiplicity           Mult            ....    1
 Number of Electrons    NEL             ....  134
 Basis Dimension        Dim             ....  322

ORBITAL ENERGIES
----------------

  NO   OCC          E(Eh)            E(eV)
   0   2.0000     -88.960252     -2420.7315
   1   2.0000     -88.958586     -2420.6862
   2   2.0000     -10.324253      -280.9372
   3   2.0000     -10.320983      -280.8482
   4   2.0000     -10.303985      -280.3857
   5   2.0000     -10.301411      -280.3156
   6   2.0000     -10.299755      -280.2706
   7   2.0000     -10.298164      -280.2273
   8   2.0000     -10.297306      -280.2039
   9   2.0000     -10.296494      -280.1819
  10   2.0000     -10.294572      -280.1295
  11   2.0000     -10.286025      -279.8970
  12   2.0000     -10.283945      -279.8404
  13   2.0000     -10.280404      -279.7440
  14   2.0000     -10.280191      -279.7382
  15   2.0000     -10.266830      -279.3746
  16   2.0000      -8.077478      -219.7994
  17   2.0000      -8.075023      -219.7326
  18   2.0000      -6.035859      -164.2441
  19   2.0000      -6.033504      -164.1800
  20   2.0000      -6.031741      -164.1320
  21   2.0000      -6.029369      -164.0675
  22   2.0000      -6.028100      -164.0329
  23   2.0000      -6.025625      -163.9656
  24   2.0000      -1.018432       -27.7129
  25   2.0000      -0.995846       -27.0983
  26   2.0000      -0.911521       -24.8038
  27   2.0000      -0.909465       -24.7478
  28   2.0000      -0.876293       -23.8451
  29   2.0000      -0.846852       -23.0440
  30   2.0000      -0.843690       -22.9580
  31   2.0000      -0.818958       -22.2850
  32   2.0000      -0.784179       -21.3386
  33   2.0000      -0.771235       -20.9864
  34   2.0000      -0.716321       -19.4921
  35   2.0000      -0.702249       -19.1092
  36   2.0000      -0.689060       -18.7503
  37   2.0000      -0.657063       -17.8796
  38   2.0000      -0.636295       -17.3145
  39   2.0000      -0.628148       -17.0928
  40   2.0000      -0.597575       -16.2608
  41   2.0000      -0.570443       -15.5225
  42   2.0000      -0.567386       -15.4393
  43   2.0000      -0.559133       -15.2148
  44   2.0000      -0.526467       -14.3259
  45   2.0000      -0.523248       -14.2383
  46   2.0000      -0.514297       -13.9947
  47   2.0000      -0.510938       -13.9033
  48   2.0000      -0.505103       -13.7446
  49   2.0000      -0.499247       -13.5852
  50   2.0000      -0.495124       -13.4730
  51   2.0000      -0.482491       -13.1292
  52   2.0000      -0.468458       -12.7474
  53   2.0000      -0.467372       -12.7178
  54   2.0000      -0.458990       -12.4898
  55   2.0000      -0.451155       -12.2765
  56   2.0000      -0.445695       -12.1280
  57   2.0000      -0.440592       -11.9891
  58   2.0000      -0.436184       -11.8692
  59   2.0000      -0.429075       -11.6757
  60   2.0000      -0.421742       -11.4762
  61   2.0000      -0.415779       -11.3139
  62   2.0000      -0.413721       -11.2579
  63   2.0000      -0.349719        -9.5163
  64   2.0000      -0.324474        -8.8294
  65   2.0000      -0.323740        -8.8094
  66   2.0000      -0.293452        -7.9852
  67   0.0000       0.036287         0.9874
  68   0.0000       0.072145         1.9632
  69   0.0000       0.115205         3.1349
  70   0.0000       0.132242         3.5985
  71   0.0000       0.134141         3.6502

MULLIKEN ATOMIC CHARGES
-----------------------
   0 S :    0.114070
   1 C :   -0.114087
   2 C :   -0.113732
   3 C :    0.051253
   4 C :   -0.160184
   5 H :   -0.002565
   6 C :    0.087951
   7 H :    0.043359
   8 H :    0.018814
   9 C :   -0.126597
  10 H :    0.055024
  11 H :    0.041871
  12 C :   -0.055371
  13 H :    0.044719
  14 H :    0.023942
  15 H :    0.035707
  16 S :    0.105282
  17 C :   -0.050542
  18 C :   -0.038506
  19 C :   -0.086195
  20 C :   -0.147648
  21 H :    0.010686
  22 C :    0.132548
  23 H :    0.008390
  24 H :   -0.007206
  25 C :   -0.068173
  26 H :    0.023498
  27 H :    0.054785
  28 C :   -0.010649
  29 H :    0.010731
  30 H :    0.020152
  31 H :    0.019649
  32 H :    0.040457
  33 H :    0.038568
Sum of atomic charges:    0.0000000

LOEWDIN ATOMIC CHARGES
----------------------
   0 S :    0.445447
   1 C :   -0.218071
   2 C :   -0.067923
   3 C :   -0.051204
   4 C :   -0.214067
   5 H :    0.020436
   6 C :   -0.029247
   7 H :    0.035933
   8 H :    0.028925
   9 C :   -0.039508
  10 H :    0.029300
  11 H :    0.027930
  12 C :   -0.069703
  13 H :    0.030090
  14 H :    0.018037
  15 H :    0.029692
  16 S :    0.425344
  17 C :   -0.194415
  18 C :   -0.080143
  19 C :   -0.045461
  20 C :   -0.216834
  21 H :    0.033385
  22 C :   -0.028845
  23 H :    0.026315
  24 H :    0.021069
  25 C :   -0.033146
  26 H :    0.024083
  27 H :    0.036157
  28 C :   -0.064802
  29 H :    0.023772
  30 H :    0.019583
  31 H :    0.020909
  32 H :    0.027826
  33 H :    0.029134

  Mayer bond orders larger than 0.100000
B(  0-S ,  1-C ) :   1.1533 B(  0-S ,  4-C ) :   1.1667 B(  1-C ,  2-C ) :   1.6226
B(  1-C , 32-H ) :   0.9629 B(  2-C ,  3-C ) :   1.2453 B(  2-C ,  6-C ) :   1.0158
B(  3-C ,  4-C ) :   1.5490 B(  3-C ,  5-H ) :   0.9983 B(  4-C , 20-C ) :   1.0254
B(  6-C ,  7-H ) :   0.9309 B(  6-C ,  8-H ) :   0.9449 B(  6-C ,  9-C ) :   1.0584
B(  9-C , 10-H ) :   0.9547 B(  9-C , 11-H ) :   0.9596 B(  9-C , 12-C ) :   1.0766
B( 12-C , 13-H ) :   0.9762 B( 12-C , 14-H ) :   0.9758 B( 12-C , 15-H ) :   0.9765
B( 16-S , 17-C ) :   1.1450 B( 16-S , 20-C ) :   1.1541 B( 17-C , 18-C ) :   1.6496
B( 17-C , 33-H ) :   0.9594 B( 18-C , 19-C ) :   1.2439 B( 18-C , 21-H ) :   0.9926
B( 19-C , 20-C ) :   1.5938 B( 19-C , 22-C ) :   1.0347 B( 22-C , 23-H ) :   0.9301
B( 22-C , 24-H ) :   0.9237 B( 22-C , 25-C ) :   1.0613 B( 25-C , 26-H ) :   0.9517
B( 25-C , 27-H ) :   0.9611 B( 25-C , 28-C ) :   1.0809 B( 28-C , 29-H ) :   0.9688
B( 28-C , 30-H ) :   0.9741 B( 28-C , 31-H ) :   0.9754

Dispersion correction           -0.013763885
FINAL SINGLE POINT ENERGY     -1339.866145392371

DIPOLE MOMENT
-------------
                                X             Y             Z
Electronic contribution:    -25.60431       5.17099     -11.08253
Nuclear contribution   :     26.09417      -5.25473      11.57533
                        -----------------------------------------
Total Dipole Moment    :      0.48986      -0.08374       0.49279
                        -----------------------------------------
Magnitude (a.u.)       :      0.69987
Magnitude (Debye)      :      1.77893

Rotational constants in cm-1:     0.017522     0.008453     0.006949
Rotational constants in MHz :   525.289462   253.419115   208.339818

                             ****ORCA TERMINATED NORMALLY****
TOTAL RUN TIME: 0 days 0 hours 0 minutes 21 seconds 591 msec
