                         Program Version 4.2.1 -  RELEASE  -
|  1> ! wB97X-D3 SP def2-SVP
|  2> %pal
|  3> nprocs 24
|  4> end
|  5>
|  6> * xyz 0 1
|  7> S 	 -92.6591 	 0.5714 	 2.35086
|  8> C 	 -92.2271 	 0.332932 	 4.04639
|  9> C 	 -91.9642 	 1.5956 	 4.60464
| 10> C 	 -91.972 	 2.65024 	 3.64513
| 11> C 	 -92.3983 	 2.25466 	 2.38928
| 12> H 	 -91.7528 	 3.65137 	 3.90847
| 13> C 	 -91.2763 	 1.73794 	 5.95452
| 14> H 	 -92.0266 	 1.21852 	 6.59029
| 15> H 	 -91.2658 	 2.78262 	 6.27312
| 16> C 	 -89.8519 	 1.16623 	 6.1394
| 17> H 	 -89.5584 	 1.41449 	 7.21252
| 18> H 	 -89.9181 	 0.0638712 	 6.12428
| 19> C 	 -88.7151 	 1.74985 	 5.29194
| 20> H 	 -88.6906 	 2.79178 	 5.2444
| 21> H 	 -87.7477 	 1.51787 	 5.67236
| 22> H 	 -88.7093 	 1.35736 	 4.35259
| 23> S 	 -94.133 	 2.94747 	 0.457314
| 24> C 	 -94.1463 	 4.4985 	 -0.289005
| 25> C 	 -92.978 	 5.05011 	 0.0360973
| 26> C 	 -92.0503 	 4.32297 	 0.847485
| 27> C 	 -92.6155 	 3.15209 	 1.2406
| 28> H 	 -92.701 	 5.98916 	 -0.406035
| 29> C 	 -90.7051 	 4.93398 	 1.20076
| 30> H 	 -90.688 	 5.27822 	 2.22382
| 31> H 	 -90.4774 	 5.81498 	 0.604709
| 32> C 	 -89.611 	 3.91395 	 0.918632
| 33> H 	 -89.3359 	 3.96361 	 -0.149393
| 34> H 	 -89.9646 	 2.9044 	 1.19969
| 35> C 	 -88.3555 	 4.36268 	 1.79362
| 36> H 	 -88.183 	 5.44546 	 1.76404
| 37> H 	 -87.5018 	 3.7471 	 1.46927
| 38> H 	 -88.6384 	 4.04169 	 2.75549
| 39> H 	 -92.0735 	 -0.587305 	 4.48414
| 40> H 	 -94.7771 	 4.9612 	 -1.00154
| 41> *
| 42>
| 43>                          ****END OF INPUT****

CARTESIAN COORDINATES (ANGSTROEM)
---------------------------------
  S    -92.659100    0.571400    2.350860
  C    -92.227100    0.332932    4.046390
  C    -91.964200    1.595600    4.604640
  C    -91.972000    2.650240    3.645130
  C    -92.398300    2.254660    2.389280
  H    -91.752800    3.651370    3.908470
  C    -91.276300    1.737940    5.954520
  H    -92.026600    1.218520    6.590290
  H    -91.265800    2.782620    6.273120
  C    -89.851900    1.166230    6.139400
  H    -89.558400    1.414490    7.212520
  H    -89.918100    0.063871    6.124280
  C    -88.715100    1.749850    5.291940
  H    -88.690600    2.791780    5.244400
  H    -87.747700    1.517870    5.672360
  H    -88.709300    1.357360    4.352590
  S    -94.133000    2.947470    0.457314
  C    -94.146300    4.498500   -0.289005
  C    -92.978000    5.050110    0.036097
  C    -92.050300    4.322970    0.847485
  C    -92.615500    3.152090    1.240600
  H    -92.701000    5.989160   -0.406035
  C    -90.705100    4.933980    1.200760
  H    -90.688000    5.278220    2.223820
  H    -90.477400    5.814980    0.604709
  C    -89.611000    3.913950    0.918632
  H    -89.335900    3.963610   -0.149393
  H    -89.964600    2.904400    1.199690
  C    -88.355500    4.362680    1.793620
  H    -88.183000    5.445460    1.764040
  H    -87.501800    3.747100    1.469270
  H    -88.638400    4.041690    2.755490
  H    -92.073500   -0.587305    4.484140
  H    -94.777100    4.961200   -1.001540

 Total Charge           Charge          ....    0
 Multiplicity           Mult            ....    1
 Number of Electrons    NEL             ....  134
 Basis Dimension        Dim             ....  322

ORBITAL ENERGIES
----------------

  NO   OCC          E(Eh)            E(eV)
   0   2.0000     -88.968812     -2420.9645
   1   2.0000     -88.958611     -2420.6869
   2   2.0000     -10.331655      -281.1386
   3   2.0000     -10.324688      -280.9490
   4   2.0000     -10.313995      -280.6581
   5   2.0000     -10.307662      -280.4857
   6   2.0000     -10.302421      -280.3431
   7   2.0000     -10.297934      -280.2210
   8   2.0000     -10.297001      -280.1956
   9   2.0000     -10.294527      -280.1283
  10   2.0000     -10.291211      -280.0381
  11   2.0000     -10.289347      -279.9874
  12   2.0000     -10.285993      -279.8961
  13   2.0000     -10.282246      -279.7941
  14   2.0000     -10.276743      -279.6444
  15   2.0000     -10.265015      -279.3253
  16   2.0000      -8.083859      -219.9730
  17   2.0000      -8.074877      -219.7286
  18   2.0000      -6.042288      -164.4190
  19   2.0000      -6.038150      -164.3064
  20   2.0000      -6.034849      -164.2166
  21   2.0000      -6.033469      -164.1790
  22   2.0000      -6.029072      -164.0594
  23   2.0000      -6.025492      -163.9620
  24   2.0000      -1.017995       -27.7011
  25   2.0000      -0.992611       -27.0103
  26   2.0000      -0.911542       -24.8043
  27   2.0000      -0.909946       -24.7609
  28   2.0000      -0.872892       -23.7526
  29   2.0000      -0.851988       -23.1838
  30   2.0000      -0.842754       -22.9325
  31   2.0000      -0.822075       -22.3698
  32   2.0000      -0.786465       -21.4008
  33   2.0000      -0.774679       -21.0801
  34   2.0000      -0.710284       -19.3278
  35   2.0000      -0.706350       -19.2208
  36   2.0000      -0.691667       -18.8212
  37   2.0000      -0.664411       -18.0796
  38   2.0000      -0.643777       -17.5181
  39   2.0000      -0.618753       -16.8371
  40   2.0000      -0.599245       -16.3063
  41   2.0000      -0.576805       -15.6957
  42   2.0000      -0.567888       -15.4530
  43   2.0000      -0.551027       -14.9942
  44   2.0000      -0.543684       -14.7944
  45   2.0000      -0.527999       -14.3676
  46   2.0000      -0.518924       -14.1207
  47   2.0000      -0.515450       -14.0261
  48   2.0000      -0.509969       -13.8770
  49   2.0000      -0.500774       -13.6268
  50   2.0000      -0.496266       -13.5041
  51   2.0000      -0.484947       -13.1961
  52   2.0000      -0.483793       -13.1647
  53   2.0000      -0.468658       -12.7528
  54   2.0000      -0.461822       -12.5668
  55   2.0000      -0.448943       -12.2164
  56   2.0000      -0.440505       -11.9867
  57   2.0000      -0.439672       -11.9641
  58   2.0000      -0.434254       -11.8166
  59   2.0000      -0.424820       -11.5599
  60   2.0000      -0.416275       -11.3274
  61   2.0000      -0.407791       -11.0966
  62   2.0000      -0.402146       -10.9429
  63   2.0000      -0.353851        -9.6288
  64   2.0000      -0.332368        -9.0442
  65   2.0000      -0.325376        -8.8539
  66   2.0000      -0.295282        -8.0350
  67   0.0000       0.028843         0.7849
  68   0.0000       0.075473         2.0537
  69   0.0000       0.113587         3.0909
  70   0.0000       0.120501         3.2790
  71   0.0000       0.129359         3.5200

MULLIKEN ATOMIC CHARGES
-----------------------
   0 S :    0.115552
   1 C :   -0.105365
   2 C :   -0.078560
   3 C :    0.024990
   4 C :   -0.125469
   5 H :   -0.008057
   6 C :    0.032427
   7 H :    0.039006
   8 H :    0.019857
   9 C :   -0.087879
  10 H :    0.034226
  11 H :    0.028836
  12 C :    0.023203
  13 H :    0.016620
  14 H :    0.014571
  15 H :    0.017783
  16 S :    0.090028
  17 C :   -0.044432
  18 C :   -0.052081
  19 C :   -0.060412
  20 C :   -0.127478
  21 H :   -0.000430
  22 C :    0.093063
  23 H :    0.027936
  24 H :    0.015022
  25 C :   -0.119878
  26 H :    0.039550
  27 H :    0.054959
  28 C :   -0.039924
  29 H :    0.039919
  30 H :    0.036790
  31 H :    0.017763
  32 H :    0.026315
  33 H :    0.041548
Sum of atomic charges:   -0.0000000

LOEWDIN ATOMIC CHARGES
----------------------
   0 S :    0.427797
   1 C :   -0.183249
   2 C :   -0.061386
   3 C :   -0.065757
   4 C :   -0.206995
   5 H :    0.023286
   6 C :   -0.039776
   7 H :    0.039239
   8 H :    0.026162
   9 C :   -0.039195
  10 H :    0.031968
  11 H :    0.023016
  12 C :   -0.053982
  13 H :    0.018916
  14 H :    0.028257
  15 H :    0.015669
  16 S :    0.424674
  17 C :   -0.190621
  18 C :   -0.073327
  19 C :   -0.062578
  20 C :   -0.202073
  21 H :    0.022177
  22 C :   -0.029032
  23 H :    0.025280
  24 H :    0.030352
  25 C :   -0.033151
  26 H :    0.024897
  27 H :    0.026757
  28 C :   -0.061170
  29 H :    0.025366
  30 H :    0.027101
  31 H :    0.015865
  32 H :    0.012780
  33 H :    0.032732

  Mayer bond orders larger than 0.100000
B(  0-S ,  1-C ) :   1.1451 B(  0-S ,  4-C ) :   1.1764 B(  1-C ,  2-C ) :   1.5524
B(  1-C ,  4-C ) :   0.1035 B(  1-C , 32-H ) :   0.9905 B(  2-C ,  3-C ) :   1.2768
B(  2-C ,  6-C ) :   1.0232 B(  3-C ,  4-C ) :   1.5289 B(  3-C ,  5-H ) :   1.0050
B(  4-C , 20-C ) :   1.0012 B(  6-C ,  7-H ) :   0.9365 B(  6-C ,  8-H ) :   0.9461
B(  6-C ,  9-C ) :   1.0759 B(  9-C , 10-H ) :   0.9548 B(  9-C , 11-H ) :   0.9562
B(  9-C , 12-C ) :   1.0737 B( 12-C , 13-H ) :   0.9701 B( 12-C , 14-H ) :   0.9662
B( 12-C , 15-H ) :   0.9740 B( 16-S , 17-C ) :   1.1369 B( 16-S , 20-C ) :   1.1503
B( 17-C , 18-C ) :   1.6175 B( 17-C , 33-H ) :   0.9730 B( 18-C , 19-C ) :   1.2685
B( 18-C , 21-H ) :   0.9859 B( 19-C , 20-C ) :   1.5923 B( 19-C , 22-C ) :   1.0312
B( 22-C , 23-H ) :   0.9397 B( 22-C , 24-H ) :   0.9274 B( 22-C , 25-C ) :   1.0502
B( 25-C , 26-H ) :   0.9572 B( 25-C , 27-H ) :   0.9680 B( 25-C , 28-C ) :   1.0634
B( 28-C , 29-H ) :   0.9732 B( 28-C , 30-H ) :   0.9745 B( 28-C , 31-H ) :   0.9807

Dispersion correction           -0.015497232
FINAL SINGLE POINT ENERGY     -1339.862321543174

DIPOLE MOMENT
-------------
                                X             Y             Z
Electronic contribution:    -25.99868      -7.28479     -13.82283
Nuclear contribution   :     26.56938       7.69333      14.10616
                        -----------------------------------------
Total Dipole Moment    :      0.57071       0.40855       0.28333
                        -----------------------------------------
Magnitude (a.u.)       :      0.75690
Magnitude (Debye)      :      1.92388

Rotational constants in cm-1:     0.019512     0.010028     0.007372
Rotational constants in MHz :   584.943163   300.627860   221.013199

                             ****ORCA TERMINATED NORMALLY****
TOTAL RUN TIME: 0 days 0 hours 0 minutes 22 seconds 918 msec
