                         Program Version 4.2.1 -  RELEASE  -
|  1> ! wB97X-D3 SP def2-SVP
|  2> %pal
|  3> nprocs 24
|  4> end
|  5>
|  6> * xyz 0 1
|  7> S 	 -59.6211 	 -56.1096 	 -84.058
|  8> C 	 -60.287 	 -54.7518 	 -83.1479
|  9> C 	 -60.7628 	 -55.1285 	 -81.9061
| 10> C 	 -60.6757 	 -56.5756 	 -81.8124
| 11> C 	 -60.0692 	 -57.2597 	 -82.8493
| 12> H 	 -61.0323 	 -57.0748 	 -80.9912
| 13> C 	 -61.5196 	 -54.2119 	 -80.9581
| 14> H 	 -62.2936 	 -54.798 	 -80.4183
| 15> H 	 -62.0369 	 -53.3906 	 -81.4353
| 16> C 	 -60.6272 	 -53.455 	 -79.8663
| 17> H 	 -59.8557 	 -54.1161 	 -79.5079
| 18> H 	 -60.1097 	 -52.6086 	 -80.2605
| 19> C 	 -61.4551 	 -52.8927 	 -78.7193
| 20> H 	 -61.8013 	 -53.7339 	 -78.1531
| 21> H 	 -61.0528 	 -51.9865 	 -78.1793
| 22> H 	 -62.3777 	 -52.4989 	 -79.2072
| 23> S 	 -59.5677 	 -59.6341 	 -81.6697
| 24> C 	 -59.5057 	 -61.0843 	 -82.6154
| 25> C 	 -59.441 	 -60.7851 	 -83.9316
| 26> C 	 -59.7924 	 -59.4329 	 -84.2459
| 27> C 	 -59.8308 	 -58.7033 	 -83.034
| 28> H 	 -59.4398 	 -61.5936 	 -84.6515
| 29> C 	 -59.9118 	 -58.8896 	 -85.6521
| 30> H 	 -59.046 	 -58.1841 	 -85.669
| 31> H 	 -60.8322 	 -58.2769 	 -85.8945
| 32> C 	 -59.6228 	 -59.9871 	 -86.7166
| 33> H 	 -60.2293 	 -60.8382 	 -86.562
| 34> H 	 -58.6752 	 -60.4742 	 -86.4362
| 35> C 	 -59.7515 	 -59.6049 	 -88.2082
| 36> H 	 -60.74 	 -59.4286 	 -88.4663
| 37> H 	 -59.2683 	 -60.4648 	 -88.7092
| 38> H 	 -59.1005 	 -58.7763 	 -88.5046
| 39> H 	 -60.5362 	 -53.775 	 -83.4951
| 40> H 	 -59.2234 	 -62.0213 	 -82.196
| 41> *
| 42>
| 43>                          ****END OF INPUT****

CARTESIAN COORDINATES (ANGSTROEM)
---------------------------------
  S    -59.621100  -56.109600  -84.058000
  C    -60.287000  -54.751800  -83.147900
  C    -60.762800  -55.128500  -81.906100
  C    -60.675700  -56.575600  -81.812400
  C    -60.069200  -57.259700  -82.849300
  H    -61.032300  -57.074800  -80.991200
  C    -61.519600  -54.211900  -80.958100
  H    -62.293600  -54.798000  -80.418300
  H    -62.036900  -53.390600  -81.435300
  C    -60.627200  -53.455000  -79.866300
  H    -59.855700  -54.116100  -79.507900
  H    -60.109700  -52.608600  -80.260500
  C    -61.455100  -52.892700  -78.719300
  H    -61.801300  -53.733900  -78.153100
  H    -61.052800  -51.986500  -78.179300
  H    -62.377700  -52.498900  -79.207200
  S    -59.567700  -59.634100  -81.669700
  C    -59.505700  -61.084300  -82.615400
  C    -59.441000  -60.785100  -83.931600
  C    -59.792400  -59.432900  -84.245900
  C    -59.830800  -58.703300  -83.034000
  H    -59.439800  -61.593600  -84.651500
  C    -59.911800  -58.889600  -85.652100
  H    -59.046000  -58.184100  -85.669000
  H    -60.832200  -58.276900  -85.894500
  C    -59.622800  -59.987100  -86.716600
  H    -60.229300  -60.838200  -86.562000
  H    -58.675200  -60.474200  -86.436200
  C    -59.751500  -59.604900  -88.208200
  H    -60.740000  -59.428600  -88.466300
  H    -59.268300  -60.464800  -88.709200
  H    -59.100500  -58.776300  -88.504600
  H    -60.536200  -53.775000  -83.495100
  H    -59.223400  -62.021300  -82.196000

 Total Charge           Charge          ....    0
 Multiplicity           Mult            ....    1
 Number of Electrons    NEL             ....  134
 Basis Dimension        Dim             ....  322

ORBITAL ENERGIES
----------------

  NO   OCC          E(Eh)            E(eV)
   0   2.0000     -88.967116     -2420.9183
   1   2.0000     -88.965334     -2420.8698
   2   2.0000     -10.329520      -281.0805
   3   2.0000     -10.325005      -280.9577
   4   2.0000     -10.310656      -280.5672
   5   2.0000     -10.310140      -280.5532
   6   2.0000     -10.306094      -280.4431
   7   2.0000     -10.303382      -280.3693
   8   2.0000     -10.301564      -280.3198
   9   2.0000     -10.300470      -280.2900
  10   2.0000     -10.291282      -280.0400
  11   2.0000     -10.287777      -279.9446
  12   2.0000     -10.286063      -279.8980
  13   2.0000     -10.282990      -279.8144
  14   2.0000     -10.281246      -279.7669
  15   2.0000     -10.278060      -279.6802
  16   2.0000      -8.083550      -219.9646
  17   2.0000      -8.079682      -219.8593
  18   2.0000      -6.041823      -164.4064
  19   2.0000      -6.038355      -164.3120
  20   2.0000      -6.037830      -164.2977
  21   2.0000      -6.034448      -164.2057
  22   2.0000      -6.034150      -164.1976
  23   2.0000      -6.030386      -164.0951
  24   2.0000      -1.015271       -27.6269
  25   2.0000      -0.987737       -26.8777
  26   2.0000      -0.910135       -24.7660
  27   2.0000      -0.907268       -24.6880
  28   2.0000      -0.872771       -23.7493
  29   2.0000      -0.855863       -23.2892
  30   2.0000      -0.843531       -22.9536
  31   2.0000      -0.817667       -22.2499
  32   2.0000      -0.783162       -21.3109
  33   2.0000      -0.771213       -20.9858
  34   2.0000      -0.713414       -19.4130
  35   2.0000      -0.700861       -19.0714
  36   2.0000      -0.696576       -18.9548
  37   2.0000      -0.657829       -17.9004
  38   2.0000      -0.634070       -17.2539
  39   2.0000      -0.623063       -16.9544
  40   2.0000      -0.603860       -16.4319
  41   2.0000      -0.571367       -15.5477
  42   2.0000      -0.565900       -15.3989
  43   2.0000      -0.565150       -15.3785
  44   2.0000      -0.531193       -14.4545
  45   2.0000      -0.522560       -14.2196
  46   2.0000      -0.515626       -14.0309
  47   2.0000      -0.511757       -13.9256
  48   2.0000      -0.505641       -13.7592
  49   2.0000      -0.496935       -13.5223
  50   2.0000      -0.488576       -13.2948
  51   2.0000      -0.482825       -13.1383
  52   2.0000      -0.476972       -12.9791
  53   2.0000      -0.465470       -12.6661
  54   2.0000      -0.458911       -12.4876
  55   2.0000      -0.457392       -12.4463
  56   2.0000      -0.449041       -12.2190
  57   2.0000      -0.434351       -11.8193
  58   2.0000      -0.431312       -11.7366
  59   2.0000      -0.428596       -11.6627
  60   2.0000      -0.417332       -11.3562
  61   2.0000      -0.417042       -11.3483
  62   2.0000      -0.409757       -11.1501
  63   2.0000      -0.356301        -9.6955
  64   2.0000      -0.331464        -9.0196
  65   2.0000      -0.328403        -8.9363
  66   2.0000      -0.286158        -7.7868
  67   0.0000       0.025654         0.6981
  68   0.0000       0.083309         2.2670
  69   0.0000       0.117305         3.1920
  70   0.0000       0.122006         3.3199
  71   0.0000       0.129411         3.5214

MULLIKEN ATOMIC CHARGES
-----------------------
   0 S :    0.084025
   1 C :   -0.088772
   2 C :   -0.071687
   3 C :    0.028305
   4 C :   -0.122239
   5 H :   -0.032561
   6 C :    0.025223
   7 H :    0.032833
   8 H :    0.028628
   9 C :   -0.063290
  10 H :    0.030805
  11 H :    0.020625
  12 C :   -0.067552
  13 H :    0.033855
  14 H :    0.056287
  15 H :    0.016965
  16 S :    0.120781
  17 C :   -0.073445
  18 C :   -0.038088
  19 C :   -0.089919
  20 C :   -0.112556
  21 H :    0.020976
  22 C :    0.042739
  23 H :    0.054058
  24 H :    0.058789
  25 C :   -0.131301
  26 H :    0.018499
  27 H :    0.023989
  28 C :    0.016408
  29 H :    0.033671
  30 H :    0.032948
  31 H :    0.030427
  32 H :    0.033581
  33 H :    0.046992
Sum of atomic charges:   -0.0000000

LOEWDIN ATOMIC CHARGES
----------------------
   0 S :    0.418911
   1 C :   -0.189402
   2 C :   -0.059110
   3 C :   -0.065122
   4 C :   -0.193066
   5 H :    0.008517
   6 C :   -0.028488
   7 H :    0.033501
   8 H :    0.029794
   9 C :   -0.038249
  10 H :    0.019132
  11 H :    0.018804
  12 C :   -0.073601
  13 H :    0.022212
  14 H :    0.036879
  15 H :    0.025337
  16 S :    0.454837
  17 C :   -0.190122
  18 C :   -0.072034
  19 C :   -0.057917
  20 C :   -0.222618
  21 H :    0.030767
  22 C :   -0.047862
  23 H :    0.033294
  24 H :    0.039312
  25 C :   -0.048192
  26 H :    0.015343
  27 H :    0.025322
  28 C :   -0.053846
  29 H :    0.017275
  30 H :    0.036280
  31 H :    0.026739
  32 H :    0.023646
  33 H :    0.023725

  Mayer bond orders larger than 0.100000
B(  0-S ,  1-C ) :   1.1372 B(  0-S ,  4-C ) :   1.1412 B(  1-C ,  2-C ) :   1.6214
B(  1-C , 32-H ) :   0.9641 B(  2-C ,  3-C ) :   1.2450 B(  2-C ,  6-C ) :   1.0253
B(  3-C ,  4-C ) :   1.5741 B(  3-C ,  5-H ) :   1.0040 B(  4-C , 20-C ) :   1.0397
B(  6-C ,  7-H ) :   0.9541 B(  6-C ,  8-H ) :   0.9430 B(  6-C ,  9-C ) :   1.0401
B(  9-C , 10-H ) :   0.9643 B(  9-C , 11-H ) :   0.9582 B(  9-C , 12-C ) :   1.0751
B( 12-C , 13-H ) :   0.9765 B( 12-C , 14-H ) :   0.9741 B( 12-C , 15-H ) :   0.9697
B( 16-S , 17-C ) :   1.1591 B( 16-S , 20-C ) :   1.1868 B( 17-C , 18-C ) :   1.6007
B( 17-C , 33-H ) :   0.9634 B( 18-C , 19-C ) :   1.2826 B( 18-C , 21-H ) :   0.9729
B( 19-C , 20-C ) :   1.5286 B( 19-C , 22-C ) :   1.0200 B( 22-C , 23-H ) :   0.9249
B( 22-C , 24-H ) :   0.9354 B( 22-C , 25-C ) :   1.0833 B( 25-C , 26-H ) :   0.9512
B( 25-C , 27-H ) :   0.9439 B( 25-C , 28-C ) :   1.0725 B( 28-C , 29-H ) :   0.9762
B( 28-C , 30-H ) :   0.9696 B( 28-C , 31-H ) :   0.9753

Dispersion correction           -0.012948433
FINAL SINGLE POINT ENERGY     -1339.863690977141

DIPOLE MOMENT
-------------
                                X             Y             Z
Electronic contribution:      5.60115      -9.38025       3.23529
Nuclear contribution   :     -5.80540       9.35732      -3.37547
                        -----------------------------------------
Total Dipole Moment    :     -0.20425      -0.02293      -0.14018
                        -----------------------------------------
Magnitude (a.u.)       :      0.24879
Magnitude (Debye)      :      0.63237

Rotational constants in cm-1:     0.025325     0.006698     0.005441
Rotational constants in MHz :   759.218860   200.811510   163.103074

                             ****ORCA TERMINATED NORMALLY****
TOTAL RUN TIME: 0 days 0 hours 0 minutes 20 seconds 534 msec
