                         Program Version 4.2.1 -  RELEASE  -
|  1> ! wB97X-D3 SP def2-SVP
|  2> %pal
|  3> nprocs 24
|  4> end
|  5>
|  6> * xyz 0 1
|  7> S 	 -70.9029 	 7.257 	 -101.212
|  8> C 	 -69.4733 	 7.37905 	 -102.21
|  9> C 	 -69.5946 	 8.31415 	 -103.251
| 10> C 	 -70.9558 	 8.87544 	 -103.236
| 11> C 	 -71.7781 	 8.3902 	 -102.274
| 12> H 	 -71.2119 	 9.62277 	 -103.942
| 13> C 	 -68.5098 	 8.57322 	 -104.29
| 14> H 	 -67.6179 	 8.34841 	 -103.79
| 15> H 	 -68.5247 	 9.61376 	 -104.485
| 16> C 	 -68.6995 	 7.80235 	 -105.579
| 17> H 	 -69.7839 	 8.05581 	 -105.913
| 18> H 	 -67.9708 	 7.95546 	 -106.35
| 19> C 	 -68.6496 	 6.2637 	 -105.382
| 20> H 	 -68.7635 	 5.70518 	 -106.342
| 21> H 	 -67.698 	 5.92121 	 -104.981
| 22> H 	 -69.4025 	 5.85334 	 -104.723
| 23> S 	 -73.5945 	 10.3889 	 -101.799
| 24> C 	 -75.2589 	 10.0253 	 -101.316
| 25> C 	 -75.4726 	 8.69299 	 -101.572
| 26> C 	 -74.3619 	 7.89895 	 -102.056
| 27> C 	 -73.2278 	 8.67445 	 -102.136
| 28> H 	 -76.4608 	 8.28559 	 -101.418
| 29> C 	 -74.4874 	 6.38518 	 -102.045
| 30> H 	 -73.574 	 5.94322 	 -102.503
| 31> H 	 -75.3411 	 6.16532 	 -102.788
| 32> C 	 -74.7774 	 5.70473 	 -100.605
| 33> H 	 -75.7514 	 5.95683 	 -100.227
| 34> H 	 -74.0606 	 5.9041 	 -99.8432
| 35> C 	 -74.6383 	 4.1387 	 -100.532
| 36> H 	 -73.6968 	 3.67612 	 -100.857
| 37> H 	 -75.3601 	 3.64038 	 -101.22
| 38> H 	 -74.7071 	 3.80773 	 -99.5146
| 39> H 	 -68.5006 	 6.91938 	 -101.989
| 40> H 	 -76.0902 	 10.5916 	 -100.916
| 41> *
| 42>
| 43>                          ****END OF INPUT****

CARTESIAN COORDINATES (ANGSTROEM)
---------------------------------
  S    -70.902900    7.257000  -101.212000
  C    -69.473300    7.379050  -102.210000
  C    -69.594600    8.314150  -103.251000
  C    -70.955800    8.875440  -103.236000
  C    -71.778100    8.390200  -102.274000
  H    -71.211900    9.622770  -103.942000
  C    -68.509800    8.573220  -104.290000
  H    -67.617900    8.348410  -103.790000
  H    -68.524700    9.613760  -104.485000
  C    -68.699500    7.802350  -105.579000
  H    -69.783900    8.055810  -105.913000
  H    -67.970800    7.955460  -106.350000
  C    -68.649600    6.263700  -105.382000
  H    -68.763500    5.705180  -106.342000
  H    -67.698000    5.921210  -104.981000
  H    -69.402500    5.853340  -104.723000
  S    -73.594500   10.388900  -101.799000
  C    -75.258900   10.025300  -101.316000
  C    -75.472600    8.692990  -101.572000
  C    -74.361900    7.898950  -102.056000
  C    -73.227800    8.674450  -102.136000
  H    -76.460800    8.285590  -101.418000
  C    -74.487400    6.385180  -102.045000
  H    -73.574000    5.943220  -102.503000
  H    -75.341100    6.165320  -102.788000
  C    -74.777400    5.704730  -100.605000
  H    -75.751400    5.956830  -100.227000
  H    -74.060600    5.904100  -99.843200
  C    -74.638300    4.138700  -100.532000
  H    -73.696800    3.676120  -100.857000
  H    -75.360100    3.640380  -101.220000
  H    -74.707100    3.807730  -99.514600
  H    -68.500600    6.919380  -101.989000
  H    -76.090200   10.591600  -100.916000

 Total Charge           Charge          ....    0
 Multiplicity           Mult            ....    1
 Number of Electrons    NEL             ....  134
 Basis Dimension        Dim             ....  322

ORBITAL ENERGIES
----------------

  NO   OCC          E(Eh)            E(eV)
   0   2.0000     -88.969668     -2420.9878
   1   2.0000     -88.963710     -2420.8256
   2   2.0000     -10.333625      -281.1922
   3   2.0000     -10.332328      -281.1569
   4   2.0000     -10.318634      -280.7843
   5   2.0000     -10.318548      -280.7820
   6   2.0000     -10.308312      -280.5034
   7   2.0000     -10.305964      -280.4395
   8   2.0000     -10.305815      -280.4355
   9   2.0000     -10.295469      -280.1539
  10   2.0000     -10.294562      -280.1293
  11   2.0000     -10.292716      -280.0790
  12   2.0000     -10.291161      -280.0367
  13   2.0000     -10.288262      -279.9578
  14   2.0000     -10.279717      -279.7253
  15   2.0000     -10.275011      -279.5973
  16   2.0000      -8.083529      -219.9640
  17   2.0000      -8.077529      -219.8007
  18   2.0000      -6.042171      -164.4158
  19   2.0000      -6.038201      -164.3078
  20   2.0000      -6.036369      -164.2580
  21   2.0000      -6.034159      -164.1978
  22   2.0000      -6.032129      -164.1426
  23   2.0000      -6.027987      -164.0299
  24   2.0000      -1.000576       -27.2270
  25   2.0000      -0.979058       -26.6415
  26   2.0000      -0.914016       -24.8716
  27   2.0000      -0.893735       -24.3198
  28   2.0000      -0.866461       -23.5776
  29   2.0000      -0.848028       -23.0760
  30   2.0000      -0.842371       -22.9221
  31   2.0000      -0.814942       -22.1757
  32   2.0000      -0.782859       -21.3027
  33   2.0000      -0.769532       -20.9400
  34   2.0000      -0.708456       -19.2781
  35   2.0000      -0.700333       -19.0570
  36   2.0000      -0.690668       -18.7940
  37   2.0000      -0.662183       -18.0189
  38   2.0000      -0.637517       -17.3477
  39   2.0000      -0.619665       -16.8619
  40   2.0000      -0.586934       -15.9713
  41   2.0000      -0.569514       -15.4973
  42   2.0000      -0.557152       -15.1609
  43   2.0000      -0.553854       -15.0711
  44   2.0000      -0.547686       -14.9033
  45   2.0000      -0.523496       -14.2450
  46   2.0000      -0.516089       -14.0435
  47   2.0000      -0.514106       -13.9895
  48   2.0000      -0.498474       -13.5642
  49   2.0000      -0.496303       -13.5051
  50   2.0000      -0.484078       -13.1724
  51   2.0000      -0.470402       -12.8003
  52   2.0000      -0.467884       -12.7318
  53   2.0000      -0.463517       -12.6129
  54   2.0000      -0.455823       -12.4036
  55   2.0000      -0.447155       -12.1677
  56   2.0000      -0.441878       -12.0241
  57   2.0000      -0.437789       -11.9128
  58   2.0000      -0.431589       -11.7441
  59   2.0000      -0.423659       -11.5283
  60   2.0000      -0.420924       -11.4539
  61   2.0000      -0.419788       -11.4230
  62   2.0000      -0.407603       -11.0914
  63   2.0000      -0.347450        -9.4546
  64   2.0000      -0.329978        -8.9792
  65   2.0000      -0.325187        -8.8488
  66   2.0000      -0.299879        -8.1601
  67   0.0000       0.035663         0.9704
  68   0.0000       0.062496         1.7006
  69   0.0000       0.107201         2.9171
  70   0.0000       0.109717         2.9856
  71   0.0000       0.130481         3.5506

MULLIKEN ATOMIC CHARGES
-----------------------
   0 S :    0.117080
   1 C :   -0.124708
   2 C :   -0.156422
   3 C :    0.043158
   4 C :   -0.126374
   5 H :    0.002903
   6 C :    0.145927
   7 H :    0.003434
   8 H :    0.019918
   9 C :   -0.067543
  10 H :    0.042088
  11 H :    0.038485
  12 C :   -0.083242
  13 H :    0.034781
  14 H :    0.016858
  15 H :    0.041884
  16 S :    0.095990
  17 C :   -0.071516
  18 C :   -0.067341
  19 C :    0.001129
  20 C :   -0.170170
  21 H :    0.014561
  22 C :    0.021618
  23 H :    0.035588
  24 H :    0.047994
  25 C :   -0.038788
  26 H :    0.029548
  27 H :    0.032272
  28 C :   -0.083042
  29 H :    0.028603
  30 H :    0.029570
  31 H :    0.033624
  32 H :    0.055295
  33 H :    0.056836
Sum of atomic charges:   -0.0000000

LOEWDIN ATOMIC CHARGES
----------------------
   0 S :    0.394256
   1 C :   -0.199981
   2 C :   -0.055304
   3 C :   -0.055466
   4 C :   -0.187932
   5 H :    0.025591
   6 C :   -0.025214
   7 H :    0.022089
   8 H :    0.029047
   9 C :   -0.038227
  10 H :    0.036226
  11 H :    0.024217
  12 C :   -0.073496
  13 H :    0.029641
  14 H :    0.018526
  15 H :    0.022542
  16 S :    0.382451
  17 C :   -0.184587
  18 C :   -0.069220
  19 C :   -0.065331
  20 C :   -0.178643
  21 H :    0.025243
  22 C :   -0.037290
  23 H :    0.031070
  24 H :    0.043376
  25 C :   -0.031452
  26 H :    0.021275
  27 H :    0.024891
  28 C :   -0.071410
  29 H :    0.024980
  30 H :    0.023238
  31 H :    0.024573
  32 H :    0.031373
  33 H :    0.038949

  Mayer bond orders larger than 0.100000
B(  0-S ,  1-C ) :   1.1380 B(  0-S ,  4-C ) :   1.1196 B(  1-C ,  2-C ) :   1.6325
B(  1-C , 32-H ) :   0.9583 B(  2-C ,  3-C ) :   1.2234 B(  2-C ,  6-C ) :   1.0239
B(  3-C ,  4-C ) :   1.6070 B(  3-C ,  5-H ) :   0.9971 B(  4-C , 20-C ) :   1.0042
B(  6-C ,  7-H ) :   0.9354 B(  6-C ,  8-H ) :   0.9326 B(  6-C ,  9-C ) :   1.0658
B(  9-C , 10-H ) :   0.9548 B(  9-C , 11-H ) :   0.9596 B(  9-C , 12-C ) :   1.0710
B( 12-C , 13-H ) :   0.9748 B( 12-C , 14-H ) :   0.9747 B( 12-C , 15-H ) :   0.9749
B( 16-S , 17-C ) :   1.1184 B( 16-S , 20-C ) :   1.1295 B( 17-C , 18-C ) :   1.6632
B( 17-C , 33-H ) :   0.9662 B( 18-C , 19-C ) :   1.1933 B( 18-C , 21-H ) :   0.9831
B( 19-C , 20-C ) :   1.6247 B( 19-C , 22-C ) :   1.0620 B( 22-C , 23-H ) :   0.9422
B( 22-C , 24-H ) :   0.9314 B( 22-C , 25-C ) :   1.0387 B( 25-C , 26-H ) :   0.9568
B( 25-C , 27-H ) :   0.9641 B( 25-C , 28-C ) :   1.0731 B( 28-C , 29-H ) :   0.9765
B( 28-C , 30-H ) :   0.9771 B( 28-C , 31-H ) :   0.9773

Dispersion correction           -0.014551420
FINAL SINGLE POINT ENERGY     -1339.867019692580

DIPOLE MOMENT
-------------
                                X             Y             Z
Electronic contribution:     -3.84747      18.54594       8.90480
Nuclear contribution   :      3.89947     -18.83244      -9.06569
                        -----------------------------------------
Total Dipole Moment    :      0.05200      -0.28650      -0.16089
                        -----------------------------------------
Magnitude (a.u.)       :      0.33267
Magnitude (Debye)      :      0.84559

Rotational constants in cm-1:     0.018981     0.008348     0.006659
Rotational constants in MHz :   569.027502   250.273000   199.621393

                             ****ORCA TERMINATED NORMALLY****
TOTAL RUN TIME: 0 days 0 hours 0 minutes 21 seconds 102 msec
