                         Program Version 4.2.1 -  RELEASE  -
|  1> ! wB97X-D3 SP def2-SVP
|  2> %pal
|  3> nprocs 24
|  4> end
|  5>
|  6> * xyz 0 1
|  7> S 	 -35.9028 	 -11.8416 	 17.4547
|  8> C 	 -36.5571 	 -10.3 	 17.7578
|  9> C 	 -36.9013 	 -9.68142 	 16.5877
| 10> C 	 -36.65 	 -10.5158 	 15.4401
| 11> C 	 -36.1528 	 -11.7752 	 15.6952
| 12> H 	 -36.8676 	 -10.2222 	 14.4747
| 13> C 	 -37.3899 	 -8.27415 	 16.5017
| 14> H 	 -36.6818 	 -7.55018 	 17.0014
| 15> H 	 -38.2381 	 -8.26978 	 17.0975
| 16> C 	 -37.8558 	 -7.76404 	 15.0507
| 17> H 	 -38.0933 	 -6.61007 	 15.1621
| 18> H 	 -37.0252 	 -7.80551 	 14.2433
| 19> C 	 -39.1252 	 -8.45197 	 14.4689
| 20> H 	 -38.9064 	 -9.6036 	 14.3567
| 21> H 	 -40.0292 	 -8.3149 	 15.0595
| 22> H 	 -39.4165 	 -7.93082 	 13.5531
| 23> S 	 -36.0601 	 -14.53 	 15.3812
| 24> C 	 -35.9843 	 -15.2506 	 13.8604
| 25> C 	 -35.6355 	 -14.3209 	 12.8912
| 26> C 	 -35.5957 	 -12.9504 	 13.403
| 27> C 	 -35.8205 	 -12.8694 	 14.7648
| 28> H 	 -35.5666 	 -14.6371 	 11.8627
| 29> C 	 -35.401 	 -11.8238 	 12.4971
| 30> H 	 -35.6585 	 -10.9361 	 12.9565
| 31> H 	 -36.1584 	 -12.0113 	 11.747
| 32> C 	 -33.9799 	 -11.8027 	 11.8221
| 33> H 	 -33.7462 	 -12.8555 	 11.523
| 34> H 	 -33.2063 	 -11.6752 	 12.5158
| 35> C 	 -34.0835 	 -10.758 	 10.6233
| 36> H 	 -33.2016 	 -10.7739 	 9.97648
| 37> H 	 -34.1855 	 -9.76792 	 11.0133
| 38> H 	 -34.9976 	 -10.9853 	 9.99359
| 39> H 	 -36.703 	 -10.0244 	 18.7703
| 40> H 	 -36.183 	 -16.3327 	 13.7012
| 41> *
| 42>
| 43>                          ****END OF INPUT****

CARTESIAN COORDINATES (ANGSTROEM)
---------------------------------
  S    -35.902800  -11.841600   17.454700
  C    -36.557100  -10.300000   17.757800
  C    -36.901300   -9.681420   16.587700
  C    -36.650000  -10.515800   15.440100
  C    -36.152800  -11.775200   15.695200
  H    -36.867600  -10.222200   14.474700
  C    -37.389900   -8.274150   16.501700
  H    -36.681800   -7.550180   17.001400
  H    -38.238100   -8.269780   17.097500
  C    -37.855800   -7.764040   15.050700
  H    -38.093300   -6.610070   15.162100
  H    -37.025200   -7.805510   14.243300
  C    -39.125200   -8.451970   14.468900
  H    -38.906400   -9.603600   14.356700
  H    -40.029200   -8.314900   15.059500
  H    -39.416500   -7.930820   13.553100
  S    -36.060100  -14.530000   15.381200
  C    -35.984300  -15.250600   13.860400
  C    -35.635500  -14.320900   12.891200
  C    -35.595700  -12.950400   13.403000
  C    -35.820500  -12.869400   14.764800
  H    -35.566600  -14.637100   11.862700
  C    -35.401000  -11.823800   12.497100
  H    -35.658500  -10.936100   12.956500
  H    -36.158400  -12.011300   11.747000
  C    -33.979900  -11.802700   11.822100
  H    -33.746200  -12.855500   11.523000
  H    -33.206300  -11.675200   12.515800
  C    -34.083500  -10.758000   10.623300
  H    -33.201600  -10.773900    9.976480
  H    -34.185500   -9.767920   11.013300
  H    -34.997600  -10.985300    9.993590
  H    -36.703000  -10.024400   18.770300
  H    -36.183000  -16.332700   13.701200

 Total Charge           Charge          ....    0
 Multiplicity           Mult            ....    1
 Number of Electrons    NEL             ....  134
 Basis Dimension        Dim             ....  322

ORBITAL ENERGIES
----------------

  NO   OCC          E(Eh)            E(eV)
   0   2.0000     -88.959866     -2420.7210
   1   2.0000     -88.959565     -2420.7128
   2   2.0000     -10.334338      -281.2116
   3   2.0000     -10.330329      -281.1025
   4   2.0000     -10.320097      -280.8241
   5   2.0000     -10.312086      -280.6061
   6   2.0000     -10.306677      -280.4589
   7   2.0000     -10.305283      -280.4210
   8   2.0000     -10.299135      -280.2537
   9   2.0000     -10.295740      -280.1613
  10   2.0000     -10.294800      -280.1358
  11   2.0000     -10.292777      -280.0807
  12   2.0000     -10.289861      -280.0013
  13   2.0000     -10.288020      -279.9513
  14   2.0000     -10.287510      -279.9374
  15   2.0000     -10.283526      -279.8290
  16   2.0000      -8.075487      -219.7452
  17   2.0000      -8.075318      -219.7406
  18   2.0000      -6.034018      -164.1940
  19   2.0000      -6.033868      -164.1899
  20   2.0000      -6.029747      -164.0778
  21   2.0000      -6.029607      -164.0739
  22   2.0000      -6.026218      -163.9817
  23   2.0000      -6.026113      -163.9789
  24   2.0000      -1.007378       -27.4121
  25   2.0000      -0.988938       -26.9104
  26   2.0000      -0.913370       -24.8541
  27   2.0000      -0.902910       -24.5694
  28   2.0000      -0.871191       -23.7063
  29   2.0000      -0.846751       -23.0413
  30   2.0000      -0.839208       -22.8360
  31   2.0000      -0.819460       -22.2986
  32   2.0000      -0.781733       -21.2720
  33   2.0000      -0.769785       -20.9469
  34   2.0000      -0.717519       -19.5247
  35   2.0000      -0.701635       -19.0925
  36   2.0000      -0.688122       -18.7248
  37   2.0000      -0.661779       -18.0079
  38   2.0000      -0.646661       -17.5965
  39   2.0000      -0.629744       -17.1362
  40   2.0000      -0.599849       -16.3227
  41   2.0000      -0.566298       -15.4097
  42   2.0000      -0.557687       -15.1754
  43   2.0000      -0.547178       -14.8895
  44   2.0000      -0.526329       -14.3222
  45   2.0000      -0.523460       -14.2441
  46   2.0000      -0.519519       -14.1368
  47   2.0000      -0.514113       -13.9897
  48   2.0000      -0.511259       -13.9121
  49   2.0000      -0.503549       -13.7023
  50   2.0000      -0.494340       -13.4517
  51   2.0000      -0.480892       -13.0857
  52   2.0000      -0.471235       -12.8230
  53   2.0000      -0.463097       -12.6015
  54   2.0000      -0.461923       -12.5696
  55   2.0000      -0.455665       -12.3993
  56   2.0000      -0.444742       -12.1020
  57   2.0000      -0.440367       -11.9830
  58   2.0000      -0.431513       -11.7421
  59   2.0000      -0.425283       -11.5725
  60   2.0000      -0.420220       -11.4348
  61   2.0000      -0.412477       -11.2241
  62   2.0000      -0.404712       -11.0128
  63   2.0000      -0.361705        -9.8425
  64   2.0000      -0.326462        -8.8835
  65   2.0000      -0.322949        -8.7879
  66   2.0000      -0.285712        -7.7746
  67   0.0000       0.027564         0.7500
  68   0.0000       0.079264         2.1569
  69   0.0000       0.113453         3.0872
  70   0.0000       0.115727         3.1491
  71   0.0000       0.134888         3.6705

MULLIKEN ATOMIC CHARGES
-----------------------
   0 S :    0.094223
   1 C :   -0.128214
   2 C :   -0.078075
   3 C :    0.006358
   4 C :   -0.093632
   5 H :   -0.021692
   6 C :    0.101386
   7 H :    0.054535
   8 H :    0.014280
   9 C :   -0.162867
  10 H :    0.046061
  11 H :    0.051866
  12 C :   -0.079352
  13 H :    0.063371
  14 H :    0.032638
  15 H :    0.038869
  16 S :    0.087742
  17 C :   -0.098386
  18 C :   -0.035306
  19 C :   -0.098273
  20 C :   -0.107553
  21 H :    0.019477
  22 C :    0.107139
  23 H :   -0.010297
  24 H :    0.023870
  25 C :   -0.064424
  26 H :    0.025746
  27 H :    0.023554
  28 C :   -0.047222
  29 H :    0.040051
  30 H :    0.033499
  31 H :    0.039171
  32 H :    0.041798
  33 H :    0.079662
Sum of atomic charges:    0.0000000

LOEWDIN ATOMIC CHARGES
----------------------
   0 S :    0.408219
   1 C :   -0.200864
   2 C :   -0.066358
   3 C :   -0.066916
   4 C :   -0.177646
   5 H :    0.010207
   6 C :   -0.034865
   7 H :    0.043192
   8 H :    0.025368
   9 C :   -0.057615
  10 H :    0.035865
  11 H :    0.029141
  12 C :   -0.082703
  13 H :    0.040191
  14 H :    0.023759
  15 H :    0.029084
  16 S :    0.409111
  17 C :   -0.199043
  18 C :   -0.081398
  19 C :   -0.049423
  20 C :   -0.190600
  21 H :    0.029062
  22 C :   -0.026036
  23 H :    0.015403
  24 H :    0.035882
  25 C :   -0.027213
  26 H :    0.026931
  27 H :    0.018600
  28 C :   -0.064180
  29 H :    0.025208
  30 H :    0.022384
  31 H :    0.032768
  32 H :    0.022907
  33 H :    0.041578

  Mayer bond orders larger than 0.100000
B(  0-S ,  1-C ) :   1.1548 B(  0-S ,  4-C ) :   1.1510 B(  1-C ,  2-C ) :   1.5818
B(  1-C , 32-H ) :   0.9844 B(  2-C ,  3-C ) :   1.2708 B(  2-C ,  6-C ) :   1.0029
B(  3-C ,  4-C ) :   1.5573 B(  3-C ,  5-H ) :   0.9927 B(  4-C , 20-C ) :   1.0475
B(  6-C ,  7-H ) :   0.9432 B(  6-C ,  8-H ) :   0.9290 B(  6-C ,  9-C ) :   1.0649
B(  9-C , 10-H ) :   0.9551 B(  9-C , 11-H ) :   0.9544 B(  9-C , 12-C ) :   1.0648
B( 12-C , 13-H ) :   0.9702 B( 12-C , 14-H ) :   0.9724 B( 12-C , 15-H ) :   0.9720
B( 16-S , 17-C ) :   1.1867 B( 16-S , 20-C ) :   1.1125 B( 17-C , 18-C ) :   1.5910
B( 17-C , 33-H ) :   0.9620 B( 18-C , 19-C ) :   1.2196 B( 18-C , 21-H ) :   0.9942
B( 19-C , 20-C ) :   1.6059 B( 19-C , 22-C ) :   1.0577 B( 22-C , 23-H ) :   0.9313
B( 22-C , 24-H ) :   0.9256 B( 22-C , 25-C ) :   1.0440 B( 25-C , 26-H ) :   0.9626
B( 25-C , 27-H ) :   0.9584 B( 25-C , 28-C ) :   1.0544 B( 28-C , 29-H ) :   0.9772
B( 28-C , 30-H ) :   0.9775 B( 28-C , 31-H ) :   0.9779

Dispersion correction           -0.013947381
FINAL SINGLE POINT ENERGY     -1339.862129804020

DIPOLE MOMENT
-------------
                                X             Y             Z
Electronic contribution:      3.30345     -21.32476      20.43149
Nuclear contribution   :     -3.52782      21.77294     -20.97508
                        -----------------------------------------
Total Dipole Moment    :     -0.22437       0.44818      -0.54359
                        -----------------------------------------
Magnitude (a.u.)       :      0.73939
Magnitude (Debye)      :      1.87938

Rotational constants in cm-1:     0.015711     0.009828     0.006934
Rotational constants in MHz :   471.018774   294.647349   207.880212

                             ****ORCA TERMINATED NORMALLY****
TOTAL RUN TIME: 0 days 0 hours 0 minutes 21 seconds 722 msec
