                         Program Version 4.2.1 -  RELEASE  -
|  1> ! wB97X-D3 SP def2-SVP
|  2> %pal
|  3> nprocs 24
|  4> end
|  5>
|  6> * xyz 0 1
|  7> S 	 -121.008 	 60.668 	 -50.6086
|  8> C 	 -120.96 	 60.8612 	 -48.8419
|  9> C 	 -121.983 	 61.5677 	 -48.3119
| 10> C 	 -122.953 	 61.9671 	 -49.3046
| 11> C 	 -122.636 	 61.4464 	 -50.5294
| 12> H 	 -123.836 	 62.5316 	 -49.0744
| 13> C 	 -122.103 	 61.8626 	 -46.8368
| 14> H 	 -122.273 	 60.8847 	 -46.2651
| 15> H 	 -123.021 	 62.4491 	 -46.7228
| 16> C 	 -120.908 	 62.6784 	 -46.1966
| 17> H 	 -121.148 	 62.5703 	 -45.1753
| 18> H 	 -119.965 	 62.1505 	 -46.3143
| 19> C 	 -120.897 	 64.1498 	 -46.519
| 20> H 	 -120.566 	 64.3097 	 -47.6106
| 21> H 	 -121.903 	 64.555 	 -46.5642
| 22> H 	 -120.174 	 64.7704 	 -46.0272
| 23> S 	 -122.191 	 62.2498 	 -53.1214
| 24> C 	 -123.545 	 62.8463 	 -54.0139
| 25> C 	 -124.764 	 62.437 	 -53.4412
| 26> C 	 -124.571 	 61.8786 	 -52.1581
| 27> C 	 -123.253 	 61.7878 	 -51.777
| 28> H 	 -125.654 	 62.6243 	 -54.0036
| 29> C 	 -125.694 	 61.5248 	 -51.266
| 30> H 	 -125.191 	 60.968 	 -50.4115
| 31> H 	 -126.144 	 60.7703 	 -51.8866
| 32> C 	 -126.729 	 62.6345 	 -50.7515
| 33> H 	 -126.98 	 63.3353 	 -51.5693
| 34> H 	 -126.138 	 63.2892 	 -50.1056
| 35> C 	 -127.917 	 62.084 	 -49.8607
| 36> H 	 -128.639 	 61.6801 	 -50.5254
| 37> H 	 -128.387 	 62.9086 	 -49.2775
| 38> H 	 -127.596 	 61.21 	 -49.3577
| 39> H 	 -120.161 	 60.4444 	 -48.2764
| 40> H 	 -123.546 	 63.5021 	 -54.8796
| 41> *
| 42>
| 43>                          ****END OF INPUT****

CARTESIAN COORDINATES (ANGSTROEM)
---------------------------------
  S    -121.008000   60.668000  -50.608600
  C    -120.960000   60.861200  -48.841900
  C    -121.983000   61.567700  -48.311900
  C    -122.953000   61.967100  -49.304600
  C    -122.636000   61.446400  -50.529400
  H    -123.836000   62.531600  -49.074400
  C    -122.103000   61.862600  -46.836800
  H    -122.273000   60.884700  -46.265100
  H    -123.021000   62.449100  -46.722800
  C    -120.908000   62.678400  -46.196600
  H    -121.148000   62.570300  -45.175300
  H    -119.965000   62.150500  -46.314300
  C    -120.897000   64.149800  -46.519000
  H    -120.566000   64.309700  -47.610600
  H    -121.903000   64.555000  -46.564200
  H    -120.174000   64.770400  -46.027200
  S    -122.191000   62.249800  -53.121400
  C    -123.545000   62.846300  -54.013900
  C    -124.764000   62.437000  -53.441200
  C    -124.571000   61.878600  -52.158100
  C    -123.253000   61.787800  -51.777000
  H    -125.654000   62.624300  -54.003600
  C    -125.694000   61.524800  -51.266000
  H    -125.191000   60.968000  -50.411500
  H    -126.144000   60.770300  -51.886600
  C    -126.729000   62.634500  -50.751500
  H    -126.980000   63.335300  -51.569300
  H    -126.138000   63.289200  -50.105600
  C    -127.917000   62.084000  -49.860700
  H    -128.639000   61.680100  -50.525400
  H    -128.387000   62.908600  -49.277500
  H    -127.596000   61.210000  -49.357700
  H    -120.161000   60.444400  -48.276400
  H    -123.546000   63.502100  -54.879600

 Total Charge           Charge          ....    0
 Multiplicity           Mult            ....    1
 Number of Electrons    NEL             ....  134
 Basis Dimension        Dim             ....  322

ORBITAL ENERGIES
----------------

  NO   OCC          E(Eh)            E(eV)
   0   2.0000     -88.965475     -2420.8737
   1   2.0000     -88.963761     -2420.8270
   2   2.0000     -10.330932      -281.1189
   3   2.0000     -10.319281      -280.8019
   4   2.0000     -10.316086      -280.7150
   5   2.0000     -10.307232      -280.4740
   6   2.0000     -10.300959      -280.3033
   7   2.0000     -10.297970      -280.2220
   8   2.0000     -10.297094      -280.1982
   9   2.0000     -10.296210      -280.1741
  10   2.0000     -10.295393      -280.1519
  11   2.0000     -10.292034      -280.0605
  12   2.0000     -10.290853      -280.0284
  13   2.0000     -10.286081      -279.8985
  14   2.0000     -10.281872      -279.7840
  15   2.0000     -10.279626      -279.7228
  16   2.0000      -8.079339      -219.8500
  17   2.0000      -8.078541      -219.8283
  18   2.0000      -6.037930      -164.3004
  19   2.0000      -6.037094      -164.2777
  20   2.0000      -6.034393      -164.2042
  21   2.0000      -6.033116      -164.1694
  22   2.0000      -6.029650      -164.0751
  23   2.0000      -6.029174      -164.0622
  24   2.0000      -1.006426       -27.3862
  25   2.0000      -0.980432       -26.6789
  26   2.0000      -0.908579       -24.7237
  27   2.0000      -0.901388       -24.5280
  28   2.0000      -0.868883       -23.6435
  29   2.0000      -0.854388       -23.2491
  30   2.0000      -0.845718       -23.0131
  31   2.0000      -0.813719       -22.1424
  32   2.0000      -0.781065       -21.2539
  33   2.0000      -0.768340       -20.9076
  34   2.0000      -0.711970       -19.3737
  35   2.0000      -0.709551       -19.3079
  36   2.0000      -0.698215       -18.9994
  37   2.0000      -0.664349       -18.0778
  38   2.0000      -0.637266       -17.3409
  39   2.0000      -0.614703       -16.7269
  40   2.0000      -0.585340       -15.9279
  41   2.0000      -0.570602       -15.5269
  42   2.0000      -0.555750       -15.1227
  43   2.0000      -0.548812       -14.9339
  44   2.0000      -0.533119       -14.5069
  45   2.0000      -0.532128       -14.4799
  46   2.0000      -0.516390       -14.0517
  47   2.0000      -0.515654       -14.0317
  48   2.0000      -0.507017       -13.7966
  49   2.0000      -0.492502       -13.4017
  50   2.0000      -0.485790       -13.2190
  51   2.0000      -0.478125       -13.0104
  52   2.0000      -0.475020       -12.9260
  53   2.0000      -0.468782       -12.7562
  54   2.0000      -0.454154       -12.3582
  55   2.0000      -0.446445       -12.1484
  56   2.0000      -0.442519       -12.0416
  57   2.0000      -0.441023       -12.0009
  58   2.0000      -0.435225       -11.8431
  59   2.0000      -0.432867       -11.7789
  60   2.0000      -0.423853       -11.5336
  61   2.0000      -0.409880       -11.1534
  62   2.0000      -0.405630       -11.0378
  63   2.0000      -0.353098        -9.6083
  64   2.0000      -0.333056        -9.0629
  65   2.0000      -0.326348        -8.8804
  66   2.0000      -0.279747        -7.6123
  67   0.0000       0.026804         0.7294
  68   0.0000       0.061925         1.6851
  69   0.0000       0.094612         2.5745
  70   0.0000       0.122339         3.3290
  71   0.0000       0.132712         3.6113

MULLIKEN ATOMIC CHARGES
-----------------------
   0 S :    0.081622
   1 C :   -0.117900
   2 C :   -0.056305
   3 C :    0.024634
   4 C :   -0.130066
   5 H :    0.009330
   6 C :    0.007297
   7 H :    0.057804
   8 H :    0.013286
   9 C :   -0.033284
  10 H :    0.016677
  11 H :    0.029828
  12 C :   -0.050454
  13 H :    0.033157
  14 H :    0.026335
  15 H :    0.039046
  16 S :    0.105394
  17 C :   -0.100701
  18 C :   -0.040622
  19 C :   -0.030863
  20 C :   -0.136877
  21 H :    0.012103
  22 C :    0.025637
  23 H :    0.035436
  24 H :    0.028271
  25 C :   -0.076011
  26 H :    0.032292
  27 H :    0.018807
  28 C :   -0.019589
  29 H :    0.021778
  30 H :    0.055048
  31 H :    0.027536
  32 H :    0.032486
  33 H :    0.058869
Sum of atomic charges:   -0.0000000

LOEWDIN ATOMIC CHARGES
----------------------
   0 S :    0.358436
   1 C :   -0.175778
   2 C :   -0.067601
   3 C :   -0.054399
   4 C :   -0.161284
   5 H :    0.031007
   6 C :   -0.032024
   7 H :    0.044408
   8 H :    0.025606
   9 C :   -0.037334
  10 H :    0.019295
  11 H :    0.023331
  12 C :   -0.072342
  13 H :    0.035924
  14 H :    0.025376
  15 H :    0.025382
  16 S :    0.398075
  17 C :   -0.188542
  18 C :   -0.069787
  19 C :   -0.063066
  20 C :   -0.194701
  21 H :    0.028792
  22 C :   -0.042366
  23 H :    0.036786
  24 H :    0.031395
  25 C :   -0.039967
  26 H :    0.025069
  27 H :    0.018688
  28 C :   -0.060888
  29 H :    0.022121
  30 H :    0.036748
  31 H :    0.024482
  32 H :    0.017877
  33 H :    0.031279

  Mayer bond orders larger than 0.100000
B(  0-S ,  1-C ) :   1.1053 B(  0-S ,  4-C ) :   1.1170 B(  1-C ,  2-C ) :   1.6616
B(  1-C , 32-H ) :   0.9712 B(  2-C ,  3-C ) :   1.2024 B(  2-C ,  6-C ) :   1.0138
B(  3-C ,  4-C ) :   1.5894 B(  3-C ,  5-H ) :   0.9932 B(  4-C , 20-C ) :   1.0717
B(  6-C ,  7-H ) :   0.9413 B(  6-C ,  8-H ) :   0.9415 B(  6-C ,  9-C ) :   1.0704
B(  9-C , 10-H ) :   0.9517 B(  9-C , 11-H ) :   0.9573 B(  9-C , 12-C ) :   1.0743
B( 12-C , 13-H ) :   0.9713 B( 12-C , 14-H ) :   0.9716 B( 12-C , 15-H ) :   0.9747
B( 16-S , 17-C ) :   1.1661 B( 16-S , 20-C ) :   1.1110 B( 17-C , 18-C ) :   1.6004
B( 17-C , 33-H ) :   0.9667 B( 18-C , 19-C ) :   1.2228 B( 18-C , 21-H ) :   1.0002
B( 19-C , 20-C ) :   1.5996 B( 19-C , 22-C ) :   1.0453 B( 22-C , 23-H ) :   0.9294
B( 22-C , 24-H ) :   0.9275 B( 22-C , 25-C ) :   1.0425 B( 25-C , 26-H ) :   0.9592
B( 25-C , 27-H ) :   0.9579 B( 25-C , 28-C ) :   1.0619 B( 28-C , 29-H ) :   0.9764
B( 28-C , 30-H ) :   0.9765 B( 28-C , 31-H ) :   0.9739

Dispersion correction           -0.014129271
FINAL SINGLE POINT ENERGY     -1339.858690081040

DIPOLE MOMENT
-------------
                                X             Y             Z
Electronic contribution:     15.12472      -8.47086     -21.42217
Nuclear contribution   :    -15.61359       8.76316      21.87603
                        -----------------------------------------
Total Dipole Moment    :     -0.48887       0.29229       0.45386
                        -----------------------------------------
Magnitude (a.u.)       :      0.72830
Magnitude (Debye)      :      1.85118

Rotational constants in cm-1:     0.016882     0.008987     0.006718
Rotational constants in MHz :   506.113095   269.433946   201.411895

                             ****ORCA TERMINATED NORMALLY****
TOTAL RUN TIME: 0 days 0 hours 0 minutes 20 seconds 358 msec
