                         Program Version 4.2.1 -  RELEASE  -
|  1> ! wB97X-D3 SP def2-SVP
|  2> %pal
|  3> nprocs 24
|  4> end
|  5>
|  6> * xyz 0 1
|  7> S 	 -37.2156 	 -45.827 	 -74.634
|  8> C 	 -38.5007 	 -44.6986 	 -75.087
|  9> C 	 -38.0503 	 -43.4107 	 -74.9717
| 10> C 	 -36.669 	 -43.3253 	 -74.6175
| 11> C 	 -36.0866 	 -44.5318 	 -74.2305
| 12> H 	 -36.1087 	 -42.3935 	 -74.5951
| 13> C 	 -38.8914 	 -42.1818 	 -75.4186
| 14> H 	 -38.0864 	 -41.4248 	 -75.5839
| 15> H 	 -39.365 	 -41.6566 	 -74.6014
| 16> C 	 -39.7663 	 -42.4616 	 -76.7662
| 17> H 	 -40.4317 	 -43.2911 	 -76.6531
| 18> H 	 -40.3363 	 -41.5178 	 -76.8574
| 19> C 	 -38.8856 	 -42.6865 	 -77.9975
| 20> H 	 -39.4326 	 -42.6194 	 -78.9618
| 21> H 	 -38.1978 	 -41.795 	 -78.0594
| 22> H 	 -38.3745 	 -43.6576 	 -78.0717
| 23> S 	 -33.5509 	 -44.719 	 -75.0864
| 24> C 	 -32.2629 	 -44.9823 	 -74.0614
| 25> C 	 -32.7606 	 -45.1118 	 -72.748
| 26> C 	 -34.1559 	 -44.9235 	 -72.5901
| 27> C 	 -34.679 	 -44.6802 	 -73.8388
| 28> H 	 -32.0932 	 -45.3972 	 -71.9088
| 29> C 	 -34.878 	 -45.0982 	 -71.3164
| 30> H 	 -35.8755 	 -44.6873 	 -71.443
| 31> H 	 -34.3784 	 -44.515 	 -70.5219
| 32> C 	 -35.1093 	 -46.5843 	 -70.9399
| 33> H 	 -34.1889 	 -46.9197 	 -70.5662
| 34> H 	 -35.2824 	 -46.9988 	 -71.9815
| 35> C 	 -36.2886 	 -46.8566 	 -70.0429
| 36> H 	 -36.024 	 -46.968 	 -69.0309
| 37> H 	 -36.8043 	 -47.7348 	 -70.2608
| 38> H 	 -36.9833 	 -46.06 	 -70.0924
| 39> H 	 -39.4595 	 -44.9702 	 -75.5087
| 40> H 	 -31.2675 	 -45.2731 	 -74.2951
| 41> *
| 42>
| 43>                          ****END OF INPUT****

CARTESIAN COORDINATES (ANGSTROEM)
---------------------------------
  S    -37.215600  -45.827000  -74.634000
  C    -38.500700  -44.698600  -75.087000
  C    -38.050300  -43.410700  -74.971700
  C    -36.669000  -43.325300  -74.617500
  C    -36.086600  -44.531800  -74.230500
  H    -36.108700  -42.393500  -74.595100
  C    -38.891400  -42.181800  -75.418600
  H    -38.086400  -41.424800  -75.583900
  H    -39.365000  -41.656600  -74.601400
  C    -39.766300  -42.461600  -76.766200
  H    -40.431700  -43.291100  -76.653100
  H    -40.336300  -41.517800  -76.857400
  C    -38.885600  -42.686500  -77.997500
  H    -39.432600  -42.619400  -78.961800
  H    -38.197800  -41.795000  -78.059400
  H    -38.374500  -43.657600  -78.071700
  S    -33.550900  -44.719000  -75.086400
  C    -32.262900  -44.982300  -74.061400
  C    -32.760600  -45.111800  -72.748000
  C    -34.155900  -44.923500  -72.590100
  C    -34.679000  -44.680200  -73.838800
  H    -32.093200  -45.397200  -71.908800
  C    -34.878000  -45.098200  -71.316400
  H    -35.875500  -44.687300  -71.443000
  H    -34.378400  -44.515000  -70.521900
  C    -35.109300  -46.584300  -70.939900
  H    -34.188900  -46.919700  -70.566200
  H    -35.282400  -46.998800  -71.981500
  C    -36.288600  -46.856600  -70.042900
  H    -36.024000  -46.968000  -69.030900
  H    -36.804300  -47.734800  -70.260800
  H    -36.983300  -46.060000  -70.092400
  H    -39.459500  -44.970200  -75.508700
  H    -31.267500  -45.273100  -74.295100

 Total Charge           Charge          ....    0
 Multiplicity           Mult            ....    1
 Number of Electrons    NEL             ....  134
 Basis Dimension        Dim             ....  322

ORBITAL ENERGIES
----------------

  NO   OCC          E(Eh)            E(eV)
   0   2.0000     -88.966037     -2420.8890
   1   2.0000     -88.965254     -2420.8676
   2   2.0000     -10.328751      -281.0596
   3   2.0000     -10.317115      -280.7430
   4   2.0000     -10.313573      -280.6466
   5   2.0000     -10.308891      -280.5192
   6   2.0000     -10.301035      -280.3054
   7   2.0000     -10.299269      -280.2573
   8   2.0000     -10.298948      -280.2486
   9   2.0000     -10.294995      -280.1411
  10   2.0000     -10.293792      -280.1083
  11   2.0000     -10.291417      -280.0437
  12   2.0000     -10.285236      -279.8755
  13   2.0000     -10.283942      -279.8403
  14   2.0000     -10.280850      -279.7561
  15   2.0000     -10.261149      -279.2201
  16   2.0000      -8.083220      -219.9556
  17   2.0000      -8.079130      -219.8443
  18   2.0000      -6.041417      -164.3953
  19   2.0000      -6.037761      -164.2958
  20   2.0000      -6.037130      -164.2787
  21   2.0000      -6.034406      -164.2045
  22   2.0000      -6.033680      -164.1848
  23   2.0000      -6.029877      -164.0813
  24   2.0000      -1.017412       -27.6852
  25   2.0000      -0.985530       -26.8176
  26   2.0000      -0.915516       -24.9125
  27   2.0000      -0.899505       -24.4768
  28   2.0000      -0.865287       -23.5456
  29   2.0000      -0.857750       -23.3406
  30   2.0000      -0.842952       -22.9379
  31   2.0000      -0.807959       -21.9857
  32   2.0000      -0.785692       -21.3798
  33   2.0000      -0.772183       -21.0122
  34   2.0000      -0.707815       -19.2606
  35   2.0000      -0.702612       -19.1191
  36   2.0000      -0.694593       -18.9008
  37   2.0000      -0.660338       -17.9687
  38   2.0000      -0.637666       -17.3518
  39   2.0000      -0.610275       -16.6064
  40   2.0000      -0.597484       -16.2584
  41   2.0000      -0.575483       -15.6597
  42   2.0000      -0.568821       -15.4784
  43   2.0000      -0.545882       -14.8542
  44   2.0000      -0.533897       -14.5281
  45   2.0000      -0.523595       -14.2477
  46   2.0000      -0.520995       -14.1770
  47   2.0000      -0.511940       -13.9306
  48   2.0000      -0.505145       -13.7457
  49   2.0000      -0.496026       -13.4976
  50   2.0000      -0.485339       -13.2068
  51   2.0000      -0.479643       -13.0518
  52   2.0000      -0.472085       -12.8461
  53   2.0000      -0.463183       -12.6038
  54   2.0000      -0.461826       -12.5669
  55   2.0000      -0.448703       -12.2098
  56   2.0000      -0.444135       -12.0855
  57   2.0000      -0.437411       -11.9026
  58   2.0000      -0.433630       -11.7997
  59   2.0000      -0.422566       -11.4986
  60   2.0000      -0.418789       -11.3958
  61   2.0000      -0.413610       -11.2549
  62   2.0000      -0.409247       -11.1362
  63   2.0000      -0.333574        -9.0770
  64   2.0000      -0.326392        -8.8816
  65   2.0000      -0.323652        -8.8070
  66   2.0000      -0.309981        -8.4350
  67   0.0000       0.047920         1.3040
  68   0.0000       0.055033         1.4975
  69   0.0000       0.117752         3.2042
  70   0.0000       0.122447         3.3320
  71   0.0000       0.132294         3.5999

MULLIKEN ATOMIC CHARGES
-----------------------
   0 S :    0.103908
   1 C :   -0.134094
   2 C :   -0.076401
   3 C :    0.019816
   4 C :   -0.152217
   5 H :    0.018765
   6 C :    0.052920
   7 H :    0.011774
   8 H :    0.039362
   9 C :   -0.068142
  10 H :    0.034774
  11 H :    0.040009
  12 C :   -0.077641
  13 H :    0.034708
  14 H :    0.035667
  15 H :    0.053565
  16 S :    0.158148
  17 C :   -0.076964
  18 C :   -0.078470
  19 C :   -0.019381
  20 C :   -0.216714
  21 H :    0.021543
  22 C :    0.077974
  23 H :    0.016123
  24 H :    0.033550
  25 C :   -0.081763
  26 H :    0.015803
  27 H :    0.036489
  28 C :    0.036088
  29 H :    0.014422
  30 H :    0.019297
  31 H :    0.012273
  32 H :    0.046746
  33 H :    0.048064
Sum of atomic charges:   -0.0000000

LOEWDIN ATOMIC CHARGES
----------------------
   0 S :    0.390264
   1 C :   -0.191064
   2 C :   -0.069605
   3 C :   -0.061199
   4 C :   -0.199564
   5 H :    0.031475
   6 C :   -0.035344
   7 H :    0.031775
   8 H :    0.030383
   9 C :   -0.033458
  10 H :    0.016736
  11 H :    0.030985
  12 C :   -0.075602
  13 H :    0.028960
  14 H :    0.031489
  15 H :    0.030043
  16 S :    0.486193
  17 C :   -0.221951
  18 C :   -0.073114
  19 C :   -0.058926
  20 C :   -0.229660
  21 H :    0.030156
  22 C :   -0.032927
  23 H :    0.028543
  24 H :    0.031855
  25 C :   -0.031675
  26 H :    0.013841
  27 H :    0.032113
  28 C :   -0.054988
  29 H :    0.022411
  30 H :    0.023810
  31 H :    0.022907
  32 H :    0.027995
  33 H :    0.027142

  Mayer bond orders larger than 0.100000
B(  0-S ,  1-C ) :   1.1359 B(  0-S ,  4-C ) :   1.1438 B(  1-C ,  2-C ) :   1.6138
B(  1-C , 32-H ) :   0.9697 B(  2-C ,  3-C ) :   1.2585 B(  2-C ,  6-C ) :   0.9967
B(  3-C ,  4-C ) :   1.5798 B(  3-C ,  5-H ) :   0.9878 B(  4-C , 20-C ) :   1.0002
B(  6-C ,  7-H ) :   0.9449 B(  6-C ,  8-H ) :   0.9417 B(  6-C ,  9-C ) :   1.0506
B(  9-C , 10-H ) :   0.9609 B(  9-C , 11-H ) :   0.9567 B(  9-C , 12-C ) :   1.0731
B( 12-C , 13-H ) :   0.9740 B( 12-C , 14-H ) :   0.9757 B( 12-C , 15-H ) :   0.9743
B( 16-S , 17-C ) :   1.1878 B( 16-S , 20-C ) :   1.2064 B( 17-C , 18-C ) :   1.5515
B( 17-C , 20-C ) :   0.1001 B( 17-C , 33-H ) :   0.9728 B( 18-C , 19-C ) :   1.2874
B( 18-C , 21-H ) :   0.9823 B( 19-C , 20-C ) :   1.5423 B( 19-C , 22-C ) :   1.0776
B( 22-C , 23-H ) :   0.9166 B( 22-C , 24-H ) :   0.9252 B( 22-C , 25-C ) :   1.0501
B( 25-C , 26-H ) :   0.9583 B( 25-C , 27-H ) :   0.9581 B( 25-C , 28-C ) :   1.0843
B( 28-C , 29-H ) :   0.9698 B( 28-C , 30-H ) :   0.9710 B( 28-C , 31-H ) :   0.9727

Dispersion correction           -0.014632268
FINAL SINGLE POINT ENERGY     -1339.867899546977

DIPOLE MOMENT
-------------
                                X             Y             Z
Electronic contribution:     12.89206      -4.68912      -5.19024
Nuclear contribution   :    -13.07123       4.90759       5.26517
                        -----------------------------------------
Total Dipole Moment    :     -0.17917       0.21847       0.07494
                        -----------------------------------------
Magnitude (a.u.)       :      0.29232
Magnitude (Debye)      :      0.74301

Rotational constants in cm-1:     0.021669     0.008149     0.006629
Rotational constants in MHz :   649.622000   244.293159   198.735959

                             ****ORCA TERMINATED NORMALLY****
TOTAL RUN TIME: 0 days 0 hours 0 minutes 21 seconds 451 msec
