                         Program Version 4.2.1 -  RELEASE  -
|  1> ! wB97X-D3 SP def2-SVP
|  2> %pal
|  3> nprocs 24
|  4> end
|  5>
|  6> * xyz 0 1
|  7> S 	 -84.4093 	 3.27882 	 -111.749
|  8> C 	 -85.7775 	 3.27327 	 -110.727
|  9> C 	 -86.9577 	 3.61628 	 -111.322
| 10> C 	 -86.6962 	 3.59852 	 -112.739
| 11> C 	 -85.4369 	 3.28815 	 -113.12
| 12> H 	 -87.4341 	 3.71744 	 -113.527
| 13> C 	 -88.3309 	 3.981 	 -110.702
| 14> H 	 -88.6662 	 4.89989 	 -111.242
| 15> H 	 -88.2417 	 4.35596 	 -109.734
| 16> C 	 -89.4672 	 2.93083 	 -110.589
| 17> H 	 -90.4409 	 3.39602 	 -110.432
| 18> H 	 -89.5392 	 2.45953 	 -111.589
| 19> C 	 -89.276 	 1.94649 	 -109.392
| 20> H 	 -89.5956 	 2.36306 	 -108.412
| 21> H 	 -89.7989 	 0.996819 	 -109.522
| 22> H 	 -88.3168 	 1.54391 	 -109.236
| 23> S 	 -85.196 	 1.58201 	 -115.273
| 24> C 	 -84.7221 	 2.26854 	 -116.896
| 25> C 	 -84.4901 	 3.61101 	 -116.794
| 26> C 	 -84.7751 	 4.15969 	 -115.526
| 27> C 	 -85.0678 	 3.15763 	 -114.526
| 28> H 	 -84.1221 	 4.15421 	 -117.69
| 29> C 	 -84.5942 	 5.60956 	 -115.304
| 30> H 	 -83.7806 	 5.82877 	 -115.975
| 31> H 	 -84.1809 	 5.73109 	 -114.298
| 32> C 	 -85.8605 	 6.56836 	 -115.345
| 33> H 	 -85.5042 	 7.51576 	 -114.957
| 34> H 	 -86.6047 	 6.18157 	 -114.699
| 35> C 	 -86.2838 	 6.94521 	 -116.791
| 36> H 	 -85.4892 	 6.82667 	 -117.455
| 37> H 	 -86.7231 	 7.89794 	 -116.809
| 38> H 	 -87.0482 	 6.19694 	 -117.022
| 39> H 	 -85.6329 	 3.14852 	 -109.675
| 40> H 	 -84.3783 	 1.78923 	 -117.798
| 41> *
| 42>
| 43>                          ****END OF INPUT****

CARTESIAN COORDINATES (ANGSTROEM)
---------------------------------
  S    -84.409300    3.278820  -111.749000
  C    -85.777500    3.273270  -110.727000
  C    -86.957700    3.616280  -111.322000
  C    -86.696200    3.598520  -112.739000
  C    -85.436900    3.288150  -113.120000
  H    -87.434100    3.717440  -113.527000
  C    -88.330900    3.981000  -110.702000
  H    -88.666200    4.899890  -111.242000
  H    -88.241700    4.355960  -109.734000
  C    -89.467200    2.930830  -110.589000
  H    -90.440900    3.396020  -110.432000
  H    -89.539200    2.459530  -111.589000
  C    -89.276000    1.946490  -109.392000
  H    -89.595600    2.363060  -108.412000
  H    -89.798900    0.996819  -109.522000
  H    -88.316800    1.543910  -109.236000
  S    -85.196000    1.582010  -115.273000
  C    -84.722100    2.268540  -116.896000
  C    -84.490100    3.611010  -116.794000
  C    -84.775100    4.159690  -115.526000
  C    -85.067800    3.157630  -114.526000
  H    -84.122100    4.154210  -117.690000
  C    -84.594200    5.609560  -115.304000
  H    -83.780600    5.828770  -115.975000
  H    -84.180900    5.731090  -114.298000
  C    -85.860500    6.568360  -115.345000
  H    -85.504200    7.515760  -114.957000
  H    -86.604700    6.181570  -114.699000
  C    -86.283800    6.945210  -116.791000
  H    -85.489200    6.826670  -117.455000
  H    -86.723100    7.897940  -116.809000
  H    -87.048200    6.196940  -117.022000
  H    -85.632900    3.148520  -109.675000
  H    -84.378300    1.789230  -117.798000

 Total Charge           Charge          ....    0
 Multiplicity           Mult            ....    1
 Number of Electrons    NEL             ....  134
 Basis Dimension        Dim             ....  322

ORBITAL ENERGIES
----------------

  NO   OCC          E(Eh)            E(eV)
   0   2.0000     -88.967058     -2420.9167
   1   2.0000     -88.965741     -2420.8809
   2   2.0000     -10.328634      -281.0564
   3   2.0000     -10.319506      -280.8080
   4   2.0000     -10.316474      -280.7255
   5   2.0000     -10.310544      -280.5642
   6   2.0000     -10.305066      -280.4151
   7   2.0000     -10.300754      -280.2978
   8   2.0000     -10.296733      -280.1884
   9   2.0000     -10.295319      -280.1499
  10   2.0000     -10.291243      -280.0389
  11   2.0000     -10.289636      -279.9952
  12   2.0000     -10.284585      -279.8578
  13   2.0000     -10.284227      -279.8480
  14   2.0000     -10.278290      -279.6865
  15   2.0000     -10.267205      -279.3849
  16   2.0000      -8.082126      -219.9258
  17   2.0000      -8.080252      -219.8748
  18   2.0000      -6.040473      -164.3696
  19   2.0000      -6.038929      -164.3276
  20   2.0000      -6.036615      -164.2647
  21   2.0000      -6.034895      -164.2178
  22   2.0000      -6.032742      -164.1593
  23   2.0000      -6.031000      -164.1119
  24   2.0000      -1.013165       -27.5696
  25   2.0000      -0.980804       -26.6890
  26   2.0000      -0.906073       -24.6555
  27   2.0000      -0.901733       -24.5374
  28   2.0000      -0.872356       -23.7380
  29   2.0000      -0.849870       -23.1261
  30   2.0000      -0.847426       -23.0596
  31   2.0000      -0.816076       -22.2065
  32   2.0000      -0.788234       -21.4489
  33   2.0000      -0.766952       -20.8698
  34   2.0000      -0.712852       -19.3977
  35   2.0000      -0.705214       -19.1899
  36   2.0000      -0.689145       -18.7526
  37   2.0000      -0.654320       -17.8049
  38   2.0000      -0.649822       -17.6826
  39   2.0000      -0.619924       -16.8690
  40   2.0000      -0.584426       -15.9030
  41   2.0000      -0.570193       -15.5157
  42   2.0000      -0.547884       -14.9087
  43   2.0000      -0.545076       -14.8323
  44   2.0000      -0.543860       -14.7992
  45   2.0000      -0.541313       -14.7299
  46   2.0000      -0.522873       -14.2281
  47   2.0000      -0.506615       -13.7857
  48   2.0000      -0.498292       -13.5592
  49   2.0000      -0.493676       -13.4336
  50   2.0000      -0.488146       -13.2831
  51   2.0000      -0.477570       -12.9953
  52   2.0000      -0.473196       -12.8763
  53   2.0000      -0.469073       -12.7641
  54   2.0000      -0.458665       -12.4809
  55   2.0000      -0.448389       -12.2013
  56   2.0000      -0.445272       -12.1165
  57   2.0000      -0.436842       -11.8871
  58   2.0000      -0.435878       -11.8608
  59   2.0000      -0.426520       -11.6062
  60   2.0000      -0.422095       -11.4858
  61   2.0000      -0.417476       -11.3601
  62   2.0000      -0.404319       -11.0021
  63   2.0000      -0.338932        -9.2228
  64   2.0000      -0.331156        -9.0112
  65   2.0000      -0.321139        -8.7386
  66   2.0000      -0.302539        -8.2325
  67   0.0000       0.040323         1.0972
  68   0.0000       0.054442         1.4815
  69   0.0000       0.103260         2.8098
  70   0.0000       0.113694         3.0938
  71   0.0000       0.133156         3.6234

MULLIKEN ATOMIC CHARGES
-----------------------
   0 S :    0.131021
   1 C :   -0.129347
   2 C :   -0.048842
   3 C :    0.025915
   4 C :   -0.176088
   5 H :    0.013784
   6 C :    0.078323
   7 H :    0.034269
   8 H :   -0.001113
   9 C :   -0.046680
  10 H :    0.033987
  11 H :    0.033846
  12 C :   -0.060553
  13 H :    0.036370
  14 H :    0.028982
  15 H :    0.017158
  16 S :    0.107888
  17 C :   -0.085061
  18 C :   -0.064582
  19 C :   -0.013282
  20 C :   -0.180597
  21 H :    0.035444
  22 C :    0.033999
  23 H :    0.017612
  24 H :    0.021756
  25 C :   -0.052734
  26 H :    0.023606
  27 H :    0.026337
  28 C :   -0.004160
  29 H :    0.015579
  30 H :    0.028084
  31 H :    0.031834
  32 H :    0.036878
  33 H :    0.050365
Sum of atomic charges:    0.0000000

LOEWDIN ATOMIC CHARGES
----------------------
   0 S :    0.433289
   1 C :   -0.190969
   2 C :   -0.064650
   3 C :   -0.052601
   4 C :   -0.226225
   5 H :    0.028925
   6 C :   -0.030576
   7 H :    0.040229
   8 H :    0.019703
   9 C :   -0.037089
  10 H :    0.028474
  11 H :    0.026752
  12 C :   -0.073522
  13 H :    0.029468
  14 H :    0.030898
  15 H :    0.017535
  16 S :    0.390130
  17 C :   -0.174845
  18 C :   -0.077400
  19 C :   -0.058398
  20 C :   -0.201941
  21 H :    0.039575
  22 C :   -0.036660
  23 H :    0.028416
  24 H :    0.032527
  25 C :   -0.023895
  26 H :    0.022530
  27 H :    0.018792
  28 C :   -0.054480
  29 H :    0.015083
  30 H :    0.019702
  31 H :    0.030260
  32 H :    0.019297
  33 H :    0.031664

  Mayer bond orders larger than 0.100000
B(  0-S ,  1-C ) :   1.1682 B(  0-S ,  4-C ) :   1.1331 B(  1-C ,  2-C ) :   1.6098
B(  1-C , 32-H ) :   0.9699 B(  2-C ,  3-C ) :   1.2216 B(  2-C ,  6-C ) :   1.0152
B(  3-C ,  4-C ) :   1.6178 B(  3-C ,  5-H ) :   0.9915 B(  4-C , 20-C ) :   1.0180
B(  6-C ,  7-H ) :   0.9410 B(  6-C ,  8-H ) :   0.9385 B(  6-C ,  9-C ) :   1.0652
B(  9-C , 10-H ) :   0.9554 B(  9-C , 11-H ) :   0.9622 B(  9-C , 12-C ) :   1.0643
B( 12-C , 13-H ) :   0.9761 B( 12-C , 14-H ) :   0.9731 B( 12-C , 15-H ) :   0.9790
B( 16-S , 17-C ) :   1.1373 B( 16-S , 20-C ) :   1.1524 B( 17-C , 18-C ) :   1.6355
B( 17-C , 20-C ) :   0.1110 B( 17-C , 33-H ) :   0.9597 B( 18-C , 19-C ) :   1.2575
B( 18-C , 21-H ) :   0.9744 B( 19-C , 20-C ) :   1.5607 B( 19-C , 22-C ) :   1.0435
B( 22-C , 23-H ) :   0.9432 B( 22-C , 24-H ) :   0.9280 B( 22-C , 25-C ) :   1.0679
B( 25-C , 26-H ) :   0.9602 B( 25-C , 27-H ) :   0.9605 B( 25-C , 28-C ) :   1.0615
B( 28-C , 29-H ) :   0.9773 B( 28-C , 30-H ) :   0.9783 B( 28-C , 31-H ) :   0.9786

Dispersion correction           -0.014547040
FINAL SINGLE POINT ENERGY     -1339.851173437291

DIPOLE MOMENT
-------------
                                X             Y             Z
Electronic contribution:     17.13036     -13.31597      -3.14677
Nuclear contribution   :    -17.44373      13.79431       3.22063
                        -----------------------------------------
Total Dipole Moment    :     -0.31337       0.47834       0.07386
                        -----------------------------------------
Magnitude (a.u.)       :      0.57659
Magnitude (Debye)      :      1.46559

Rotational constants in cm-1:     0.019550     0.007777     0.006947
Rotational constants in MHz :   586.087220   233.156591   208.261287

                             ****ORCA TERMINATED NORMALLY****
TOTAL RUN TIME: 0 days 0 hours 0 minutes 21 seconds 524 msec
