                         Program Version 4.2.1 -  RELEASE  -
|  1> ! wB97X-D3 SP def2-SVP
|  2> %pal
|  3> nprocs 24
|  4> end
|  5>
|  6> * xyz 0 1
|  7> S 	 -148.155 	 4.62527 	 15.0018
|  8> C 	 -147.27 	 3.28504 	 14.3736
|  9> C 	 -146.314 	 3.65842 	 13.4639
| 10> C 	 -146.208 	 5.08239 	 13.3818
| 11> C 	 -147.096 	 5.84085 	 14.1655
| 12> H 	 -145.428 	 5.63547 	 12.7961
| 13> C 	 -145.402 	 2.70765 	 12.7783
| 14> H 	 -145.539 	 2.81802 	 11.7703
| 15> H 	 -145.612 	 1.65351 	 13.0537
| 16> C 	 -143.979 	 2.9855 	 13.1366
| 17> H 	 -143.331 	 2.45679 	 12.4301
| 18> H 	 -143.763 	 4.07245 	 13.0701
| 19> C 	 -143.492 	 2.55573 	 14.5303
| 20> H 	 -142.439 	 2.93567 	 14.6946
| 21> H 	 -144.063 	 3.0041 	 15.3557
| 22> H 	 -143.72 	 1.46535 	 14.6141
| 23> S 	 -147.138 	 8.04727 	 15.8795
| 24> C 	 -147.182 	 9.654 	 15.2719
| 25> C 	 -147.091 	 9.69073 	 13.9057
| 26> C 	 -147.219 	 8.3674 	 13.3574
| 27> C 	 -147.302 	 7.31258 	 14.3293
| 28> H 	 -147.064 	 10.5865 	 13.3523
| 29> C 	 -146.988 	 8.11968 	 11.8576
| 30> H 	 -147.729 	 8.61183 	 11.1577
| 31> H 	 -147.181 	 7.04336 	 11.6948
| 32> C 	 -145.62 	 8.56453 	 11.4104
| 33> H 	 -144.914 	 7.95981 	 12.0059
| 34> H 	 -145.435 	 9.6325 	 11.548
| 35> C 	 -145.323 	 8.38409 	 9.99048
| 36> H 	 -145.941 	 8.93505 	 9.2838
| 37> H 	 -145.431 	 7.28522 	 9.74158
| 38> H 	 -144.37 	 8.84547 	 9.75308
| 39> H 	 -147.644 	 2.27567 	 14.5315
| 40> H 	 -147.098 	 10.565 	 15.8323
| 41> *
| 42>
| 43>                          ****END OF INPUT****

CARTESIAN COORDINATES (ANGSTROEM)
---------------------------------
  S    -148.155000    4.625270   15.001800
  C    -147.270000    3.285040   14.373600
  C    -146.314000    3.658420   13.463900
  C    -146.208000    5.082390   13.381800
  C    -147.096000    5.840850   14.165500
  H    -145.428000    5.635470   12.796100
  C    -145.402000    2.707650   12.778300
  H    -145.539000    2.818020   11.770300
  H    -145.612000    1.653510   13.053700
  C    -143.979000    2.985500   13.136600
  H    -143.331000    2.456790   12.430100
  H    -143.763000    4.072450   13.070100
  C    -143.492000    2.555730   14.530300
  H    -142.439000    2.935670   14.694600
  H    -144.063000    3.004100   15.355700
  H    -143.720000    1.465350   14.614100
  S    -147.138000    8.047270   15.879500
  C    -147.182000    9.654000   15.271900
  C    -147.091000    9.690730   13.905700
  C    -147.219000    8.367400   13.357400
  C    -147.302000    7.312580   14.329300
  H    -147.064000   10.586500   13.352300
  C    -146.988000    8.119680   11.857600
  H    -147.729000    8.611830   11.157700
  H    -147.181000    7.043360   11.694800
  C    -145.620000    8.564530   11.410400
  H    -144.914000    7.959810   12.005900
  H    -145.435000    9.632500   11.548000
  C    -145.323000    8.384090    9.990480
  H    -145.941000    8.935050    9.283800
  H    -145.431000    7.285220    9.741580
  H    -144.370000    8.845470    9.753080
  H    -147.644000    2.275670   14.531500
  H    -147.098000   10.565000   15.832300

 Total Charge           Charge          ....    0
 Multiplicity           Mult            ....    1
 Number of Electrons    NEL             ....  134
 Basis Dimension        Dim             ....  322

ORBITAL ENERGIES
----------------

  NO   OCC          E(Eh)            E(eV)
   0   2.0000     -88.968694     -2420.9612
   1   2.0000     -88.962668     -2420.7973
   2   2.0000     -10.343481      -281.4604
   3   2.0000     -10.334910      -281.2272
   4   2.0000     -10.316492      -280.7260
   5   2.0000     -10.313781      -280.6522
   6   2.0000     -10.310819      -280.5716
   7   2.0000     -10.305809      -280.4353
   8   2.0000     -10.300360      -280.2870
   9   2.0000     -10.292391      -280.0702
  10   2.0000     -10.292358      -280.0693
  11   2.0000     -10.286177      -279.9011
  12   2.0000     -10.284778      -279.8630
  13   2.0000     -10.282365      -279.7974
  14   2.0000     -10.282268      -279.7947
  15   2.0000     -10.277093      -279.6539
  16   2.0000      -8.084173      -219.9815
  17   2.0000      -8.077153      -219.7905
  18   2.0000      -6.042672      -164.4295
  19   2.0000      -6.038449      -164.3145
  20   2.0000      -6.035682      -164.2392
  21   2.0000      -6.034999      -164.2207
  22   2.0000      -6.031598      -164.1281
  23   2.0000      -6.028002      -164.0303
  24   2.0000      -1.005668       -27.3656
  25   2.0000      -0.987712       -26.8770
  26   2.0000      -0.920003       -25.0346
  27   2.0000      -0.918612       -24.9967
  28   2.0000      -0.870097       -23.6765
  29   2.0000      -0.854163       -23.2429
  30   2.0000      -0.842390       -22.9226
  31   2.0000      -0.819428       -22.2978
  32   2.0000      -0.784712       -21.3531
  33   2.0000      -0.770736       -20.9728
  34   2.0000      -0.706490       -19.2246
  35   2.0000      -0.692267       -18.8375
  36   2.0000      -0.685992       -18.6668
  37   2.0000      -0.658236       -17.9115
  38   2.0000      -0.643072       -17.4989
  39   2.0000      -0.626375       -17.0445
  40   2.0000      -0.600020       -16.3274
  41   2.0000      -0.577246       -15.7077
  42   2.0000      -0.573145       -15.5961
  43   2.0000      -0.562843       -15.3157
  44   2.0000      -0.536886       -14.6094
  45   2.0000      -0.531660       -14.4672
  46   2.0000      -0.522342       -14.2136
  47   2.0000      -0.519355       -14.1324
  48   2.0000      -0.508097       -13.8260
  49   2.0000      -0.499079       -13.5806
  50   2.0000      -0.485192       -13.2027
  51   2.0000      -0.478286       -13.0148
  52   2.0000      -0.470192       -12.7946
  53   2.0000      -0.465308       -12.6617
  54   2.0000      -0.458051       -12.4642
  55   2.0000      -0.453080       -12.3289
  56   2.0000      -0.445567       -12.1245
  57   2.0000      -0.433428       -11.7942
  58   2.0000      -0.426915       -11.6170
  59   2.0000      -0.422719       -11.5028
  60   2.0000      -0.417828       -11.3697
  61   2.0000      -0.410285       -11.1644
  62   2.0000      -0.408699       -11.1213
  63   2.0000      -0.351525        -9.5655
  64   2.0000      -0.330465        -8.9924
  65   2.0000      -0.327709        -8.9174
  66   2.0000      -0.295833        -8.0500
  67   0.0000       0.026713         0.7269
  68   0.0000       0.068379         1.8607
  69   0.0000       0.114930         3.1274
  70   0.0000       0.118794         3.2325
  71   0.0000       0.129961         3.5364

MULLIKEN ATOMIC CHARGES
-----------------------
   0 S :    0.090596
   1 C :   -0.123229
   2 C :   -0.105996
   3 C :    0.007037
   4 C :   -0.164354
   5 H :    0.030738
   6 C :    0.162230
   7 H :    0.010638
   8 H :    0.015767
   9 C :   -0.116639
  10 H :    0.028910
  11 H :    0.030085
  12 C :   -0.071117
  13 H :    0.051390
  14 H :    0.035951
  15 H :    0.031754
  16 S :    0.121692
  17 C :   -0.073967
  18 C :   -0.021132
  19 C :   -0.053719
  20 C :   -0.118838
  21 H :    0.011345
  22 C :    0.031519
  23 H :    0.026962
  24 H :    0.027675
  25 C :   -0.077950
  26 H :    0.029067
  27 H :    0.025218
  28 C :   -0.031945
  29 H :    0.018250
  30 H :    0.033052
  31 H :    0.028661
  32 H :    0.056695
  33 H :    0.053655
Sum of atomic charges:   -0.0000000

LOEWDIN ATOMIC CHARGES
----------------------
   0 S :    0.386542
   1 C :   -0.197471
   2 C :   -0.069506
   3 C :   -0.065758
   4 C :   -0.176526
   5 H :    0.035550
   6 C :   -0.023588
   7 H :    0.023240
   8 H :    0.033845
   9 C :   -0.045640
  10 H :    0.023703
  11 H :    0.023980
  12 C :   -0.073334
  13 H :    0.037045
  14 H :    0.024785
  15 H :    0.026458
  16 S :    0.442751
  17 C :   -0.187763
  18 C :   -0.066858
  19 C :   -0.044822
  20 C :   -0.225674
  21 H :    0.026796
  22 C :   -0.042344
  23 H :    0.031824
  24 H :    0.029929
  25 C :   -0.049710
  26 H :    0.024897
  27 H :    0.025834
  28 C :   -0.068138
  29 H :    0.021840
  30 H :    0.029264
  31 H :    0.028276
  32 H :    0.030169
  33 H :    0.030403

  Mayer bond orders larger than 0.100000
B(  0-S ,  1-C ) :   1.1539 B(  0-S ,  4-C ) :   1.1463 B(  1-C ,  2-C ) :   1.6013
B(  1-C , 32-H ) :   0.9643 B(  2-C ,  3-C ) :   1.2446 B(  2-C ,  6-C ) :   1.0302
B(  3-C ,  4-C ) :   1.5768 B(  3-C ,  5-H ) :   0.9772 B(  4-C , 20-C ) :   1.0209
B(  6-C ,  7-H ) :   0.9165 B(  6-C ,  8-H ) :   0.9400 B(  6-C ,  9-C ) :   1.0804
B(  9-C , 10-H ) :   0.9524 B(  9-C , 11-H ) :   0.9550 B(  9-C , 12-C ) :   1.0738
B( 12-C , 13-H ) :   0.9721 B( 12-C , 14-H ) :   0.9758 B( 12-C , 15-H ) :   0.9723
B( 16-S , 17-C ) :   1.1838 B( 16-S , 20-C ) :   1.1561 B( 17-C , 18-C ) :   1.5727
B( 17-C , 33-H ) :   0.9667 B( 18-C , 19-C ) :   1.2770 B( 18-C , 21-H ) :   0.9983
B( 19-C , 20-C ) :   1.5429 B( 19-C , 22-C ) :   1.0521 B( 22-C , 23-H ) :   0.9321
B( 22-C , 24-H ) :   0.9350 B( 22-C , 25-C ) :   1.0681 B( 25-C , 26-H ) :   0.9468
B( 25-C , 27-H ) :   0.9461 B( 25-C , 28-C ) :   1.1070 B( 28-C , 29-H ) :   0.9660
B( 28-C , 30-H ) :   0.9701 B( 28-C , 31-H ) :   0.9687

Dispersion correction           -0.014455237
FINAL SINGLE POINT ENERGY     -1339.873822417021

DIPOLE MOMENT
-------------
                                X             Y             Z
Electronic contribution:    -18.55398       5.31771      19.64174
Nuclear contribution   :     19.03123      -5.18210     -20.21580
                        -----------------------------------------
Total Dipole Moment    :      0.47725       0.13561      -0.57406
                        -----------------------------------------
Magnitude (a.u.)       :      0.75875
Magnitude (Debye)      :      1.92859

Rotational constants in cm-1:     0.017155     0.009247     0.007098
Rotational constants in MHz :   514.298080   277.203946   212.795452

                             ****ORCA TERMINATED NORMALLY****
TOTAL RUN TIME: 0 days 0 hours 0 minutes 22 seconds 9 msec
