                         Program Version 4.2.1 -  RELEASE  -
|  1> ! wB97X-D3 SP def2-SVP
|  2> %pal
|  3> nprocs 24
|  4> end
|  5>
|  6> * xyz 0 1
|  7> S 	 15.5935 	 -8.90639 	 -125.252
|  8> C 	 13.9828 	 -8.20767 	 -125.386
|  9> C 	 13.038 	 -8.88872 	 -126.083
| 10> C 	 13.7073 	 -10.0516 	 -126.629
| 11> C 	 14.9638 	 -10.3584 	 -126.049
| 12> H 	 13.355 	 -10.9254 	 -127.12
| 13> C 	 11.5978 	 -8.43575 	 -126.462
| 14> H 	 11.0698 	 -8.25529 	 -125.535
| 15> H 	 11.1419 	 -9.22561 	 -127.006
| 16> C 	 11.2701 	 -7.12663 	 -127.31
| 17> H 	 10.2223 	 -6.93212 	 -127.504
| 18> H 	 11.7274 	 -6.32462 	 -126.752
| 19> C 	 11.9426 	 -7.30394 	 -128.654
| 20> H 	 12.9967 	 -7.52122 	 -128.538
| 21> H 	 11.4125 	 -8.11891 	 -129.136
| 22> H 	 11.911 	 -6.30411 	 -129.234
| 23> S 	 17.4126 	 -11.4023 	 -126.931
| 24> C 	 17.5094 	 -13.1014 	 -126.958
| 25> C 	 16.3421 	 -13.7671 	 -126.677
| 26> C 	 15.3097 	 -12.8631 	 -126.257
| 27> C 	 15.72 	 -11.5229 	 -126.289
| 28> H 	 16.2983 	 -14.8967 	 -126.713
| 29> C 	 13.9253 	 -13.3379 	 -125.749
| 30> H 	 13.1856 	 -12.5775 	 -125.5
| 31> H 	 14.0724 	 -13.847 	 -124.796
| 32> C 	 13.2173 	 -14.3014 	 -126.747
| 33> H 	 12.3046 	 -14.6186 	 -126.337
| 34> H 	 13.8023 	 -15.2582 	 -126.858
| 35> C 	 13.0252 	 -13.5621 	 -128.031
| 36> H 	 13.9026 	 -13.1929 	 -128.58
| 37> H 	 12.2341 	 -12.7867 	 -127.89
| 38> H 	 12.5365 	 -14.3611 	 -128.709
| 39> H 	 13.6157 	 -7.17289 	 -125.149
| 40> H 	 18.4674 	 -13.5945 	 -127.117
| 41> *
| 42>
| 43>                          ****END OF INPUT****

CARTESIAN COORDINATES (ANGSTROEM)
---------------------------------
  S     15.593500   -8.906390  -125.252000
  C     13.982800   -8.207670  -125.386000
  C     13.038000   -8.888720  -126.083000
  C     13.707300  -10.051600  -126.629000
  C     14.963800  -10.358400  -126.049000
  H     13.355000  -10.925400  -127.120000
  C     11.597800   -8.435750  -126.462000
  H     11.069800   -8.255290  -125.535000
  H     11.141900   -9.225610  -127.006000
  C     11.270100   -7.126630  -127.310000
  H     10.222300   -6.932120  -127.504000
  H     11.727400   -6.324620  -126.752000
  C     11.942600   -7.303940  -128.654000
  H     12.996700   -7.521220  -128.538000
  H     11.412500   -8.118910  -129.136000
  H     11.911000   -6.304110  -129.234000
  S     17.412600  -11.402300  -126.931000
  C     17.509400  -13.101400  -126.958000
  C     16.342100  -13.767100  -126.677000
  C     15.309700  -12.863100  -126.257000
  C     15.720000  -11.522900  -126.289000
  H     16.298300  -14.896700  -126.713000
  C     13.925300  -13.337900  -125.749000
  H     13.185600  -12.577500  -125.500000
  H     14.072400  -13.847000  -124.796000
  C     13.217300  -14.301400  -126.747000
  H     12.304600  -14.618600  -126.337000
  H     13.802300  -15.258200  -126.858000
  C     13.025200  -13.562100  -128.031000
  H     13.902600  -13.192900  -128.580000
  H     12.234100  -12.786700  -127.890000
  H     12.536500  -14.361100  -128.709000
  H     13.615700   -7.172890  -125.149000
  H     18.467400  -13.594500  -127.117000

 Total Charge           Charge          ....    0
 Multiplicity           Mult            ....    1
 Number of Electrons    NEL             ....  134
 Basis Dimension        Dim             ....  322

ORBITAL ENERGIES
----------------

  NO   OCC          E(Eh)            E(eV)
   0   2.0000     -88.970237     -2421.0032
   1   2.0000     -88.965853     -2420.8839
   2   2.0000     -10.326590      -281.0008
   3   2.0000     -10.326279      -280.9923
   4   2.0000     -10.317358      -280.7496
   5   2.0000     -10.315479      -280.6985
   6   2.0000     -10.311604      -280.5930
   7   2.0000     -10.306850      -280.4636
   8   2.0000     -10.300664      -280.2953
   9   2.0000     -10.297101      -280.1984
  10   2.0000     -10.293726      -280.1065
  11   2.0000     -10.292642      -280.0770
  12   2.0000     -10.288761      -279.9714
  13   2.0000     -10.287071      -279.9254
  14   2.0000     -10.285057      -279.8706
  15   2.0000     -10.277086      -279.6537
  16   2.0000      -8.084164      -219.9813
  17   2.0000      -8.080898      -219.8924
  18   2.0000      -6.042752      -164.4316
  19   2.0000      -6.039297      -164.3376
  20   2.0000      -6.039011      -164.3298
  21   2.0000      -6.035526      -164.2350
  22   2.0000      -6.034655      -164.2113
  23   2.0000      -6.031601      -164.1282
  24   2.0000      -1.004242       -27.3268
  25   2.0000      -0.981642       -26.7118
  26   2.0000      -0.912734       -24.8368
  27   2.0000      -0.909806       -24.7571
  28   2.0000      -0.873893       -23.7798
  29   2.0000      -0.851871       -23.1806
  30   2.0000      -0.843278       -22.9468
  31   2.0000      -0.806244       -21.9390
  32   2.0000      -0.783317       -21.3151
  33   2.0000      -0.772480       -21.0203
  34   2.0000      -0.708163       -19.2701
  35   2.0000      -0.700375       -19.0582
  36   2.0000      -0.691950       -18.8289
  37   2.0000      -0.653600       -17.7854
  38   2.0000      -0.632109       -17.2006
  39   2.0000      -0.611479       -16.6392
  40   2.0000      -0.594589       -16.1796
  41   2.0000      -0.580453       -15.7949
  42   2.0000      -0.550517       -14.9803
  43   2.0000      -0.549574       -14.9547
  44   2.0000      -0.546974       -14.8839
  45   2.0000      -0.543202       -14.7813
  46   2.0000      -0.510683       -13.8964
  47   2.0000      -0.509443       -13.8626
  48   2.0000      -0.495180       -13.4745
  49   2.0000      -0.495161       -13.4740
  50   2.0000      -0.490108       -13.3365
  51   2.0000      -0.472467       -12.8565
  52   2.0000      -0.470348       -12.7988
  53   2.0000      -0.466071       -12.6824
  54   2.0000      -0.459879       -12.5139
  55   2.0000      -0.453958       -12.3528
  56   2.0000      -0.443242       -12.0612
  57   2.0000      -0.436471       -11.8770
  58   2.0000      -0.431963       -11.7543
  59   2.0000      -0.424252       -11.5445
  60   2.0000      -0.423250       -11.5172
  61   2.0000      -0.411864       -11.2074
  62   2.0000      -0.407587       -11.0910
  63   2.0000      -0.344206        -9.3663
  64   2.0000      -0.334142        -9.0925
  65   2.0000      -0.331957        -9.0330
  66   2.0000      -0.286892        -7.8067
  67   0.0000       0.020490         0.5576
  68   0.0000       0.070447         1.9170
  69   0.0000       0.101972         2.7748
  70   0.0000       0.119104         3.2410
  71   0.0000       0.123349         3.3565

MULLIKEN ATOMIC CHARGES
-----------------------
   0 S :    0.120905
   1 C :   -0.099724
   2 C :   -0.109987
   3 C :    0.073948
   4 C :   -0.207432
   5 H :   -0.033213
   6 C :    0.067326
   7 H :    0.038412
   8 H :    0.012004
   9 C :   -0.054899
  10 H :    0.040317
  11 H :    0.020262
  12 C :   -0.077997
  13 H :    0.044546
  14 H :    0.029659
  15 H :    0.043733
  16 S :    0.105662
  17 C :   -0.091842
  18 C :   -0.051769
  19 C :   -0.046542
  20 C :   -0.143283
  21 H :    0.044112
  22 C :    0.055155
  23 H :    0.030148
  24 H :    0.035172
  25 C :   -0.068008
  26 H :    0.016775
  27 H :    0.032407
  28 C :   -0.089884
  29 H :    0.068982
  30 H :    0.049104
  31 H :    0.036166
  32 H :    0.047266
  33 H :    0.062520
Sum of atomic charges:    0.0000000

LOEWDIN ATOMIC CHARGES
----------------------
   0 S :    0.391864
   1 C :   -0.196467
   2 C :   -0.068361
   3 C :   -0.050916
   4 C :   -0.190917
   5 H :    0.018383
   6 C :   -0.026000
   7 H :    0.033358
   8 H :    0.022912
   9 C :   -0.035084
  10 H :    0.027852
  11 H :    0.016458
  12 C :   -0.070018
  13 H :    0.024978
  14 H :    0.022870
  15 H :    0.032831
  16 S :    0.393316
  17 C :   -0.189742
  18 C :   -0.083588
  19 C :   -0.043501
  20 C :   -0.191581
  21 H :    0.043899
  22 C :   -0.032250
  23 H :    0.029595
  24 H :    0.031365
  25 C :   -0.041387
  26 H :    0.018790
  27 H :    0.024253
  28 C :   -0.076277
  29 H :    0.032432
  30 H :    0.028348
  31 H :    0.035160
  32 H :    0.037055
  33 H :    0.030367

  Mayer bond orders larger than 0.100000
B(  0-S ,  1-C ) :   1.1336 B(  0-S ,  4-C ) :   1.1103 B(  1-C ,  2-C ) :   1.6535
B(  1-C , 32-H ) :   0.9497 B(  2-C ,  3-C ) :   1.2052 B(  2-C ,  6-C ) :   1.0171
B(  3-C ,  4-C ) :   1.5839 B(  3-C ,  5-H ) :   0.9763 B(  4-C , 20-C ) :   1.1270
B(  6-C ,  7-H ) :   0.9376 B(  6-C ,  8-H ) :   0.9451 B(  6-C ,  9-C ) :   1.0656
B(  9-C , 10-H ) :   0.9568 B(  9-C , 11-H ) :   0.9545 B(  9-C , 12-C ) :   1.0749
B( 12-C , 13-H ) :   0.9770 B( 12-C , 14-H ) :   0.9769 B( 12-C , 15-H ) :   0.9731
B( 16-S , 17-C ) :   1.1692 B( 16-S , 20-C ) :   1.1094 B( 17-C , 18-C ) :   1.6160
B( 17-C , 33-H ) :   0.9621 B( 18-C , 19-C ) :   1.2286 B( 18-C , 21-H ) :   0.9821
B( 19-C , 20-C ) :   1.5931 B( 19-C , 22-C ) :   1.0293 B( 22-C , 23-H ) :   0.9411
B( 22-C , 24-H ) :   0.9361 B( 22-C , 25-C ) :   1.0740 B( 25-C , 26-H ) :   0.9522
B( 25-C , 27-H ) :   0.9536 B( 25-C , 28-C ) :   1.0833 B( 28-C , 29-H ) :   0.9671
B( 28-C , 30-H ) :   0.9595 B( 28-C , 31-H ) :   0.9681

Dispersion correction           -0.015177124
FINAL SINGLE POINT ENERGY     -1339.851105449126

DIPOLE MOMENT
-------------
                                X             Y             Z
Electronic contribution:     25.42112       2.45840       9.80006
Nuclear contribution   :    -26.01377      -2.82230      -9.93009
                        -----------------------------------------
Total Dipole Moment    :     -0.59265      -0.36390      -0.13003
                        -----------------------------------------
Magnitude (a.u.)       :      0.70750
Magnitude (Debye)      :      1.79833

Rotational constants in cm-1:     0.019624     0.008908     0.007055
Rotational constants in MHz :   588.301846   267.049860   211.511547

                             ****ORCA TERMINATED NORMALLY****
TOTAL RUN TIME: 0 days 0 hours 0 minutes 22 seconds 340 msec
