                         Program Version 4.2.1 -  RELEASE  -
|  1> ! wB97X-D3 SP def2-SVP
|  2> %pal
|  3> nprocs 24
|  4> end
|  5>
|  6> * xyz 0 1
|  7> S 	 -53.3923 	 3.83418 	 -22.3403
|  8> C 	 -52.8545 	 2.49902 	 -23.3348
|  9> C 	 -53.5772 	 1.35062 	 -23.0644
| 10> C 	 -54.4336 	 1.50545 	 -21.891
| 11> C 	 -54.3215 	 2.75303 	 -21.3807
| 12> H 	 -55.0898 	 0.766678 	 -21.4944
| 13> C 	 -53.3294 	 0.0485914 	 -23.8275
| 14> H 	 -53.6045 	 0.0721748 	 -24.9313
| 15> H 	 -53.8504 	 -0.65612 	 -23.2455
| 16> C 	 -51.8926 	 -0.517517 	 -23.8753
| 17> H 	 -51.4099 	 0.0263865 	 -24.6658
| 18> H 	 -51.3198 	 -0.377849 	 -22.9101
| 19> C 	 -51.8258 	 -1.85857 	 -24.5086
| 20> H 	 -51.9957 	 -1.82075 	 -25.5691
| 21> H 	 -50.8086 	 -2.35203 	 -24.3973
| 22> H 	 -52.6031 	 -2.55519 	 -24.1164
| 23> S 	 -56.1119 	 4.48409 	 -20.021
| 24> C 	 -56.1839 	 4.37164 	 -18.2043
| 25> C 	 -55.2686 	 3.43557 	 -17.7439
| 26> C 	 -54.5398 	 2.86133 	 -18.8082
| 27> C 	 -54.8927 	 3.28693 	 -20.0986
| 28> H 	 -55.0875 	 3.14919 	 -16.7789
| 29> C 	 -53.5572 	 1.73021 	 -18.4822
| 30> H 	 -53.8804 	 0.754206 	 -18.9314
| 31> H 	 -53.4828 	 1.54245 	 -17.3768
| 32> C 	 -52.2005 	 1.92111 	 -19.0924
| 33> H 	 -51.8663 	 2.96145 	 -19.0955
| 34> H 	 -52.1634 	 1.62763 	 -20.1275
| 35> C 	 -51.03 	 1.18874 	 -18.4176
| 36> H 	 -50.1393 	 1.65963 	 -18.8494
| 37> H 	 -50.9731 	 0.0750315 	 -18.5787
| 38> H 	 -50.9386 	 1.35073 	 -17.3643
| 39> H 	 -51.9899 	 2.55163 	 -23.9331
| 40> H 	 -56.8925 	 4.81208 	 -17.5157
| 41> *
| 42>
| 43>                          ****END OF INPUT****

CARTESIAN COORDINATES (ANGSTROEM)
---------------------------------
  S    -53.392300    3.834180  -22.340300
  C    -52.854500    2.499020  -23.334800
  C    -53.577200    1.350620  -23.064400
  C    -54.433600    1.505450  -21.891000
  C    -54.321500    2.753030  -21.380700
  H    -55.089800    0.766678  -21.494400
  C    -53.329400    0.048591  -23.827500
  H    -53.604500    0.072175  -24.931300
  H    -53.850400   -0.656120  -23.245500
  C    -51.892600   -0.517517  -23.875300
  H    -51.409900    0.026386  -24.665800
  H    -51.319800   -0.377849  -22.910100
  C    -51.825800   -1.858570  -24.508600
  H    -51.995700   -1.820750  -25.569100
  H    -50.808600   -2.352030  -24.397300
  H    -52.603100   -2.555190  -24.116400
  S    -56.111900    4.484090  -20.021000
  C    -56.183900    4.371640  -18.204300
  C    -55.268600    3.435570  -17.743900
  C    -54.539800    2.861330  -18.808200
  C    -54.892700    3.286930  -20.098600
  H    -55.087500    3.149190  -16.778900
  C    -53.557200    1.730210  -18.482200
  H    -53.880400    0.754206  -18.931400
  H    -53.482800    1.542450  -17.376800
  C    -52.200500    1.921110  -19.092400
  H    -51.866300    2.961450  -19.095500
  H    -52.163400    1.627630  -20.127500
  C    -51.030000    1.188740  -18.417600
  H    -50.139300    1.659630  -18.849400
  H    -50.973100    0.075031  -18.578700
  H    -50.938600    1.350730  -17.364300
  H    -51.989900    2.551630  -23.933100
  H    -56.892500    4.812080  -17.515700

 Total Charge           Charge          ....    0
 Multiplicity           Mult            ....    1
 Number of Electrons    NEL             ....  134
 Basis Dimension        Dim             ....  322

ORBITAL ENERGIES
----------------

  NO   OCC          E(Eh)            E(eV)
   0   2.0000     -88.971246     -2421.0307
   1   2.0000     -88.965186     -2420.8658
   2   2.0000     -10.330286      -281.1014
   3   2.0000     -10.326860      -281.0082
   4   2.0000     -10.323196      -280.9084
   5   2.0000     -10.310729      -280.5692
   6   2.0000     -10.307048      -280.4690
   7   2.0000     -10.298577      -280.2385
   8   2.0000     -10.297354      -280.2052
   9   2.0000     -10.295707      -280.1604
  10   2.0000     -10.291952      -280.0583
  11   2.0000     -10.288653      -279.9685
  12   2.0000     -10.287431      -279.9352
  13   2.0000     -10.283631      -279.8318
  14   2.0000     -10.273705      -279.5617
  15   2.0000     -10.273151      -279.5467
  16   2.0000      -8.085011      -220.0043
  17   2.0000      -8.080833      -219.8906
  18   2.0000      -6.043628      -164.4555
  19   2.0000      -6.039535      -164.3441
  20   2.0000      -6.039172      -164.3342
  21   2.0000      -6.035845      -164.2437
  22   2.0000      -6.035300      -164.2289
  23   2.0000      -6.031618      -164.1287
  24   2.0000      -1.008651       -27.4468
  25   2.0000      -0.984209       -26.7817
  26   2.0000      -0.917877       -24.9767
  27   2.0000      -0.904832       -24.6217
  28   2.0000      -0.870851       -23.6971
  29   2.0000      -0.853145       -23.2153
  30   2.0000      -0.847511       -23.0620
  31   2.0000      -0.818745       -22.2792
  32   2.0000      -0.780733       -21.2448
  33   2.0000      -0.765867       -20.8403
  34   2.0000      -0.705120       -19.1873
  35   2.0000      -0.697845       -18.9893
  36   2.0000      -0.681002       -18.5310
  37   2.0000      -0.667063       -18.1517
  38   2.0000      -0.649279       -17.6678
  39   2.0000      -0.619015       -16.8443
  40   2.0000      -0.595297       -16.1989
  41   2.0000      -0.579442       -15.7674
  42   2.0000      -0.571330       -15.5467
  43   2.0000      -0.559409       -15.2223
  44   2.0000      -0.525437       -14.2979
  45   2.0000      -0.522571       -14.2199
  46   2.0000      -0.517825       -14.0907
  47   2.0000      -0.508827       -13.8459
  48   2.0000      -0.505917       -13.7667
  49   2.0000      -0.498109       -13.5542
  50   2.0000      -0.491285       -13.3685
  51   2.0000      -0.482718       -13.1354
  52   2.0000      -0.472370       -12.8538
  53   2.0000      -0.468981       -12.7616
  54   2.0000      -0.458721       -12.4824
  55   2.0000      -0.454164       -12.3584
  56   2.0000      -0.446190       -12.1414
  57   2.0000      -0.431775       -11.7492
  58   2.0000      -0.430396       -11.7117
  59   2.0000      -0.424739       -11.5577
  60   2.0000      -0.414704       -11.2847
  61   2.0000      -0.407920       -11.1001
  62   2.0000      -0.406234       -11.0542
  63   2.0000      -0.345295        -9.3960
  64   2.0000      -0.333903        -9.0860
  65   2.0000      -0.326491        -8.8843
  66   2.0000      -0.297093        -8.0843
  67   0.0000       0.038511         1.0479
  68   0.0000       0.053898         1.4666
  69   0.0000       0.105043         2.8584
  70   0.0000       0.119929         3.2634
  71   0.0000       0.125390         3.4120

MULLIKEN ATOMIC CHARGES
-----------------------
   0 S :    0.121669
   1 C :   -0.119894
   2 C :   -0.088792
   3 C :    0.056805
   4 C :   -0.169937
   5 H :    0.010726
   6 C :    0.065007
   7 H :    0.051142
   8 H :    0.002371
   9 C :   -0.083224
  10 H :    0.019153
  11 H :    0.049956
  12 C :   -0.072257
  13 H :    0.025257
  14 H :    0.048840
  15 H :    0.026936
  16 S :    0.116879
  17 C :   -0.093598
  18 C :    0.013341
  19 C :   -0.033757
  20 C :   -0.150604
  21 H :   -0.015799
  22 C :    0.073372
  23 H :    0.031991
  24 H :    0.020059
  25 C :   -0.094986
  26 H :    0.026450
  27 H :    0.038289
  28 C :   -0.054845
  29 H :    0.027518
  30 H :    0.033987
  31 H :    0.020095
  32 H :    0.039864
  33 H :    0.057987
Sum of atomic charges:    0.0000000

LOEWDIN ATOMIC CHARGES
----------------------
   0 S :    0.418474
   1 C :   -0.188280
   2 C :   -0.058247
   3 C :   -0.059022
   4 C :   -0.190860
   5 H :    0.032150
   6 C :   -0.032411
   7 H :    0.044101
   8 H :    0.018532
   9 C :   -0.052448
  10 H :    0.022103
  11 H :    0.030423
  12 C :   -0.070852
  13 H :    0.021678
  14 H :    0.038161
  15 H :    0.022224
  16 S :    0.406547
  17 C :   -0.169495
  18 C :   -0.053698
  19 C :   -0.056572
  20 C :   -0.222492
  21 H :    0.018304
  22 C :   -0.037818
  23 H :    0.036411
  24 H :    0.030528
  25 C :   -0.049041
  26 H :    0.024138
  27 H :    0.025462
  28 C :   -0.068010
  29 H :    0.029252
  30 H :    0.024822
  31 H :    0.015578
  32 H :    0.018724
  33 H :    0.031636

  Mayer bond orders larger than 0.100000
B(  0-S ,  1-C ) :   1.1371 B(  0-S ,  4-C ) :   1.1664 B(  1-C ,  2-C ) :   1.6152
B(  1-C , 32-H ) :   0.9813 B(  2-C ,  3-C ) :   1.2070 B(  2-C ,  6-C ) :   1.0230
B(  3-C ,  4-C ) :   1.6112 B(  3-C ,  5-H ) :   1.0041 B(  4-C , 20-C ) :   0.9759
B(  6-C ,  7-H ) :   0.9388 B(  6-C ,  8-H ) :   0.9412 B(  6-C ,  9-C ) :   1.0679
B(  9-C , 10-H ) :   0.9496 B(  9-C , 11-H ) :   0.9584 B(  9-C , 12-C ) :   1.0793
B( 12-C , 13-H ) :   0.9744 B( 12-C , 14-H ) :   0.9701 B( 12-C , 15-H ) :   0.9737
B( 16-S , 17-C ) :   1.1491 B( 16-S , 20-C ) :   1.1530 B( 17-C , 18-C ) :   1.5756
B( 17-C , 20-C ) :   0.1022 B( 17-C , 33-H ) :   0.9664 B( 18-C , 19-C ) :   1.2923
B( 18-C , 21-H ) :   0.9979 B( 19-C , 20-C ) :   1.5736 B( 19-C , 22-C ) :   1.0419
B( 22-C , 23-H ) :   0.9296 B( 22-C , 24-H ) :   0.9449 B( 22-C , 25-C ) :   1.0491
B( 25-C , 26-H ) :   0.9647 B( 25-C , 27-H ) :   0.9461 B( 25-C , 28-C ) :   1.0904
B( 28-C , 29-H ) :   0.9755 B( 28-C , 30-H ) :   0.9746 B( 28-C , 31-H ) :   0.9742

Dispersion correction           -0.014930792
FINAL SINGLE POINT ENERGY     -1339.860387840312

DIPOLE MOMENT
-------------
                                X             Y             Z
Electronic contribution:    -18.88671      25.55618       1.93313
Nuclear contribution   :     19.17367     -26.17412      -1.87409
                        -----------------------------------------
Total Dipole Moment    :      0.28696      -0.61795       0.05903
                        -----------------------------------------
Magnitude (a.u.)       :      0.68388
Magnitude (Debye)      :      1.73827

Rotational constants in cm-1:     0.021429     0.008263     0.006843
Rotational constants in MHz :   642.418627   247.720967   205.156499

                             ****ORCA TERMINATED NORMALLY****
TOTAL RUN TIME: 0 days 0 hours 0 minutes 23 seconds 448 msec
