                         Program Version 4.2.1 -  RELEASE  -
|  1> ! wB97X-D3 SP def2-SVP
|  2> %pal
|  3> nprocs 24
|  4> end
|  5>
|  6> * xyz 0 1
|  7> S 	 -70.8312 	 -43.928 	 -93.0394
|  8> C 	 -70.7451 	 -42.2285 	 -93.1862
|  9> C 	 -71.0556 	 -41.8263 	 -94.459
| 10> C 	 -71.2324 	 -42.928 	 -95.3535
| 11> C 	 -70.9171 	 -44.1552 	 -94.8121
| 12> H 	 -71.4691 	 -42.8369 	 -96.437
| 13> C 	 -71.1628 	 -40.3767 	 -94.972
| 14> H 	 -71.6801 	 -39.7968 	 -94.1217
| 15> H 	 -71.8126 	 -40.4074 	 -95.8823
| 16> C 	 -69.76 	 -39.8262 	 -95.2461
| 17> H 	 -69.9286 	 -38.7419 	 -95.234
| 18> H 	 -69.206 	 -40.0595 	 -94.3229
| 19> C 	 -69.0583 	 -40.423 	 -96.4553
| 20> H 	 -68.175 	 -39.8441 	 -96.8016
| 21> H 	 -68.6384 	 -41.4343 	 -96.2378
| 22> H 	 -69.72 	 -40.4867 	 -97.3412
| 23> S 	 -69.7093 	 -45.8518 	 -96.5856
| 24> C 	 -70.5083 	 -47.1811 	 -97.1884
| 25> C 	 -71.777 	 -47.311 	 -96.5915
| 26> C 	 -72.0755 	 -46.2294 	 -95.6691
| 27> C 	 -70.974 	 -45.4388 	 -95.4558
| 28> H 	 -72.412 	 -48.0882 	 -96.8828
| 29> C 	 -73.3908 	 -46.1308 	 -94.9151
| 30> H 	 -74.2094 	 -45.8955 	 -95.5974
| 31> H 	 -73.2246 	 -45.2927 	 -94.1747
| 32> C 	 -73.8103 	 -47.3064 	 -94.0599
| 33> H 	 -74.4903 	 -46.9554 	 -93.2531
| 34> H 	 -72.926 	 -47.784 	 -93.6715
| 35> C 	 -74.5612 	 -48.3953 	 -94.7062
| 36> H 	 -74.8422 	 -49.143 	 -94.0236
| 37> H 	 -73.88 	 -48.9844 	 -95.3671
| 38> H 	 -75.4527 	 -48.0252 	 -95.2439
| 39> H 	 -70.7275 	 -41.4261 	 -92.3886
| 40> H 	 -70.1653 	 -47.8694 	 -97.9837
| 41> *
| 42>
| 43>                          ****END OF INPUT****

CARTESIAN COORDINATES (ANGSTROEM)
---------------------------------
  S    -70.831200  -43.928000  -93.039400
  C    -70.745100  -42.228500  -93.186200
  C    -71.055600  -41.826300  -94.459000
  C    -71.232400  -42.928000  -95.353500
  C    -70.917100  -44.155200  -94.812100
  H    -71.469100  -42.836900  -96.437000
  C    -71.162800  -40.376700  -94.972000
  H    -71.680100  -39.796800  -94.121700
  H    -71.812600  -40.407400  -95.882300
  C    -69.760000  -39.826200  -95.246100
  H    -69.928600  -38.741900  -95.234000
  H    -69.206000  -40.059500  -94.322900
  C    -69.058300  -40.423000  -96.455300
  H    -68.175000  -39.844100  -96.801600
  H    -68.638400  -41.434300  -96.237800
  H    -69.720000  -40.486700  -97.341200
  S    -69.709300  -45.851800  -96.585600
  C    -70.508300  -47.181100  -97.188400
  C    -71.777000  -47.311000  -96.591500
  C    -72.075500  -46.229400  -95.669100
  C    -70.974000  -45.438800  -95.455800
  H    -72.412000  -48.088200  -96.882800
  C    -73.390800  -46.130800  -94.915100
  H    -74.209400  -45.895500  -95.597400
  H    -73.224600  -45.292700  -94.174700
  C    -73.810300  -47.306400  -94.059900
  H    -74.490300  -46.955400  -93.253100
  H    -72.926000  -47.784000  -93.671500
  C    -74.561200  -48.395300  -94.706200
  H    -74.842200  -49.143000  -94.023600
  H    -73.880000  -48.984400  -95.367100
  H    -75.452700  -48.025200  -95.243900
  H    -70.727500  -41.426100  -92.388600
  H    -70.165300  -47.869400  -97.983700

 Total Charge           Charge          ....    0
 Multiplicity           Mult            ....    1
 Number of Electrons    NEL             ....  134
 Basis Dimension        Dim             ....  322

ORBITAL ENERGIES
----------------

  NO   OCC          E(Eh)            E(eV)
   0   2.0000     -88.965117     -2420.8639
   1   2.0000     -88.964607     -2420.8500
   2   2.0000     -10.326863      -281.0082
   3   2.0000     -10.319605      -280.8107
   4   2.0000     -10.317600      -280.7562
   5   2.0000     -10.313552      -280.6460
   6   2.0000     -10.304142      -280.3900
   7   2.0000     -10.301174      -280.3092
   8   2.0000     -10.295276      -280.1487
   9   2.0000     -10.294999      -280.1412
  10   2.0000     -10.290372      -280.0153
  11   2.0000     -10.290043      -280.0063
  12   2.0000     -10.288106      -279.9536
  13   2.0000     -10.283394      -279.8254
  14   2.0000     -10.277932      -279.6767
  15   2.0000     -10.270954      -279.4869
  16   2.0000      -8.081546      -219.9100
  17   2.0000      -8.079095      -219.8434
  18   2.0000      -6.039810      -164.3516
  19   2.0000      -6.037633      -164.2924
  20   2.0000      -6.035660      -164.2387
  21   2.0000      -6.033702      -164.1854
  22   2.0000      -6.032592      -164.1552
  23   2.0000      -6.029754      -164.0779
  24   2.0000      -1.011770       -27.5317
  25   2.0000      -0.989600       -26.9284
  26   2.0000      -0.916721       -24.9452
  27   2.0000      -0.910010       -24.7626
  28   2.0000      -0.874407       -23.7938
  29   2.0000      -0.852999       -23.2113
  30   2.0000      -0.841036       -22.8857
  31   2.0000      -0.811118       -22.0716
  32   2.0000      -0.785826       -21.3834
  33   2.0000      -0.771172       -20.9847
  34   2.0000      -0.702325       -19.1112
  35   2.0000      -0.696025       -18.9398
  36   2.0000      -0.686823       -18.6894
  37   2.0000      -0.660924       -17.9847
  38   2.0000      -0.633784       -17.2461
  39   2.0000      -0.611564       -16.6415
  40   2.0000      -0.599429       -16.3113
  41   2.0000      -0.574264       -15.6265
  42   2.0000      -0.553858       -15.0712
  43   2.0000      -0.547606       -14.9011
  44   2.0000      -0.542388       -14.7591
  45   2.0000      -0.539965       -14.6932
  46   2.0000      -0.521230       -14.1834
  47   2.0000      -0.510391       -13.8885
  48   2.0000      -0.505491       -13.7551
  49   2.0000      -0.498464       -13.5639
  50   2.0000      -0.487520       -13.2661
  51   2.0000      -0.476679       -12.9711
  52   2.0000      -0.474406       -12.9093
  53   2.0000      -0.467550       -12.7227
  54   2.0000      -0.465168       -12.6579
  55   2.0000      -0.440567       -11.9884
  56   2.0000      -0.436829       -11.8867
  57   2.0000      -0.434267       -11.8170
  58   2.0000      -0.426638       -11.6094
  59   2.0000      -0.424113       -11.5407
  60   2.0000      -0.421725       -11.4757
  61   2.0000      -0.408594       -11.1184
  62   2.0000      -0.407520       -11.0892
  63   2.0000      -0.339705        -9.2438
  64   2.0000      -0.326075        -8.8730
  65   2.0000      -0.321191        -8.7401
  66   2.0000      -0.308116        -8.3843
  67   0.0000       0.042918         1.1678
  68   0.0000       0.055688         1.5153
  69   0.0000       0.104794         2.8516
  70   0.0000       0.126056         3.4302
  71   0.0000       0.131104         3.5675

MULLIKEN ATOMIC CHARGES
-----------------------
   0 S :    0.109649
   1 C :   -0.110726
   2 C :   -0.131274
   3 C :    0.049576
   4 C :   -0.194215
   5 H :    0.026975
   6 C :    0.004123
   7 H :    0.041062
   8 H :    0.036834
   9 C :   -0.037060
  10 H :    0.033036
  11 H :    0.025279
  12 C :   -0.066783
  13 H :    0.039828
  14 H :    0.052671
  15 H :    0.030779
  16 S :    0.126978
  17 C :   -0.097569
  18 C :   -0.027833
  19 C :   -0.028851
  20 C :   -0.175890
  21 H :   -0.004360
  22 C :    0.080827
  23 H :    0.028238
  24 H :    0.035833
  25 C :   -0.073383
  26 H :    0.035566
  27 H :    0.027020
  28 C :   -0.039998
  29 H :    0.019385
  30 H :    0.019076
  31 H :    0.030753
  32 H :    0.062838
  33 H :    0.071616
Sum of atomic charges:    0.0000000

LOEWDIN ATOMIC CHARGES
----------------------
   0 S :    0.406903
   1 C :   -0.222909
   2 C :   -0.076611
   3 C :   -0.057038
   4 C :   -0.192605
   5 H :    0.037265
   6 C :   -0.035100
   7 H :    0.037380
   8 H :    0.030618
   9 C :   -0.045983
  10 H :    0.024555
  11 H :    0.027643
  12 C :   -0.073642
  13 H :    0.031728
  14 H :    0.035631
  15 H :    0.025121
  16 S :    0.452642
  17 C :   -0.213624
  18 C :   -0.075687
  19 C :   -0.042944
  20 C :   -0.220906
  21 H :    0.016664
  22 C :   -0.034099
  23 H :    0.031441
  24 H :    0.035786
  25 C :   -0.046537
  26 H :    0.031613
  27 H :    0.026358
  28 C :   -0.066983
  29 H :    0.021054
  30 H :    0.023723
  31 H :    0.024081
  32 H :    0.043806
  33 H :    0.040656

  Mayer bond orders larger than 0.100000
B(  0-S ,  1-C ) :   1.1463 B(  0-S ,  4-C ) :   1.1301 B(  1-C ,  2-C ) :   1.6231
B(  1-C , 32-H ) :   0.9513 B(  2-C ,  3-C ) :   1.2518 B(  2-C ,  6-C ) :   1.0104
B(  3-C ,  4-C ) :   1.5890 B(  3-C ,  5-H ) :   0.9870 B(  4-C , 20-C ) :   1.0151
B(  6-C ,  7-H ) :   0.9415 B(  6-C ,  8-H ) :   0.9470 B(  6-C ,  9-C ) :   1.0658
B(  9-C , 10-H ) :   0.9574 B(  9-C , 11-H ) :   0.9528 B(  9-C , 12-C ) :   1.0694
B( 12-C , 13-H ) :   0.9727 B( 12-C , 14-H ) :   0.9698 B( 12-C , 15-H ) :   0.9764
B( 16-S , 17-C ) :   1.2013 B( 16-S , 20-C ) :   1.1458 B( 17-C , 18-C ) :   1.5677
B( 17-C , 33-H ) :   0.9629 B( 18-C , 19-C ) :   1.2467 B( 18-C , 21-H ) :   0.9992
B( 19-C , 20-C ) :   1.5892 B( 19-C , 22-C ) :   1.0495 B( 22-C , 23-H ) :   0.9274
B( 22-C , 24-H ) :   0.9296 B( 22-C , 25-C ) :   1.0677 B( 25-C , 26-H ) :   0.9539
B( 25-C , 27-H ) :   0.9513 B( 25-C , 28-C ) :   1.1003 B( 28-C , 29-H ) :   0.9645
B( 28-C , 30-H ) :   0.9686 B( 28-C , 31-H ) :   0.9708

Dispersion correction           -0.014917046
FINAL SINGLE POINT ENERGY     -1339.875096661354

DIPOLE MOMENT
-------------
                                X             Y             Z
Electronic contribution:     10.14791      -5.80331       2.38967
Nuclear contribution   :    -10.53509       5.98598      -2.66219
                        -----------------------------------------
Total Dipole Moment    :     -0.38718       0.18266      -0.27252
                        -----------------------------------------
Magnitude (a.u.)       :      0.50748
Magnitude (Debye)      :      1.28992

Rotational constants in cm-1:     0.022888     0.008056     0.006731
Rotational constants in MHz :   686.150231   241.499614   201.785827

                             ****ORCA TERMINATED NORMALLY****
TOTAL RUN TIME: 0 days 0 hours 0 minutes 22 seconds 734 msec
