                         Program Version 4.2.1 -  RELEASE  -
|  1> ! wB97X-D3 SP def2-SVP
|  2> %pal
|  3> nprocs 24
|  4> end
|  5>
|  6> * xyz 0 1
|  7> S 	 -99.3533 	 12.2006 	 -115.6
|  8> C 	 -98.7806 	 13.6795 	 -114.934
|  9> C 	 -98.9063 	 14.7469 	 -115.841
| 10> C 	 -99.4056 	 14.295 	 -117.097
| 11> C 	 -99.7156 	 12.9518 	 -117.121
| 12> H 	 -99.4466 	 14.805 	 -118.043
| 13> C 	 -98.526 	 16.1922 	 -115.698
| 14> H 	 -99.3445 	 16.5883 	 -115.11
| 15> H 	 -98.6141 	 16.7212 	 -116.626
| 16> C 	 -97.2068 	 16.6151 	 -115.05
| 17> H 	 -97.3296 	 17.6889 	 -114.835
| 18> H 	 -97.2125 	 16.1558 	 -114.019
| 19> C 	 -95.9948 	 16.2782 	 -115.916
| 20> H 	 -95.8567 	 15.1941 	 -116.039
| 21> H 	 -96.1541 	 16.6409 	 -116.902
| 22> H 	 -95.0745 	 16.7475 	 -115.63
| 23> S 	 -101.372 	 11.1474 	 -118.084
| 24> C 	 -101.544 	 10.8175 	 -119.757
| 25> C 	 -100.701 	 11.6717 	 -120.51
| 26> C 	 -99.8956 	 12.4999 	 -119.734
| 27> C 	 -100.109 	 12.2706 	 -118.373
| 28> H 	 -100.684 	 11.5636 	 -121.588
| 29> C 	 -98.8795 	 13.5459 	 -120.253
| 30> H 	 -98.2344 	 13.6532 	 -119.358
| 31> H 	 -99.3956 	 14.4958 	 -120.577
| 32> C 	 -98.0472 	 13.1263 	 -121.446
| 33> H 	 -98.67 	 13.0586 	 -122.32
| 34> H 	 -97.6483 	 12.1168 	 -121.283
| 35> C 	 -96.9446 	 14.141 	 -121.749
| 36> H 	 -96.2335 	 14.1463 	 -120.974
| 37> H 	 -97.4471 	 15.0855 	 -121.89
| 38> H 	 -96.4646 	 13.8612 	 -122.7
| 39> H 	 -98.2088 	 13.8424 	 -113.964
| 40> H 	 -102.233 	 10.2244 	 -120.351
| 41> *
| 42>
| 43>                          ****END OF INPUT****

CARTESIAN COORDINATES (ANGSTROEM)
---------------------------------
  S    -99.353300   12.200600  -115.600000
  C    -98.780600   13.679500  -114.934000
  C    -98.906300   14.746900  -115.841000
  C    -99.405600   14.295000  -117.097000
  C    -99.715600   12.951800  -117.121000
  H    -99.446600   14.805000  -118.043000
  C    -98.526000   16.192200  -115.698000
  H    -99.344500   16.588300  -115.110000
  H    -98.614100   16.721200  -116.626000
  C    -97.206800   16.615100  -115.050000
  H    -97.329600   17.688900  -114.835000
  H    -97.212500   16.155800  -114.019000
  C    -95.994800   16.278200  -115.916000
  H    -95.856700   15.194100  -116.039000
  H    -96.154100   16.640900  -116.902000
  H    -95.074500   16.747500  -115.630000
  S    -101.372000   11.147400  -118.084000
  C    -101.544000   10.817500  -119.757000
  C    -100.701000   11.671700  -120.510000
  C    -99.895600   12.499900  -119.734000
  C    -100.109000   12.270600  -118.373000
  H    -100.684000   11.563600  -121.588000
  C    -98.879500   13.545900  -120.253000
  H    -98.234400   13.653200  -119.358000
  H    -99.395600   14.495800  -120.577000
  C    -98.047200   13.126300  -121.446000
  H    -98.670000   13.058600  -122.320000
  H    -97.648300   12.116800  -121.283000
  C    -96.944600   14.141000  -121.749000
  H    -96.233500   14.146300  -120.974000
  H    -97.447100   15.085500  -121.890000
  H    -96.464600   13.861200  -122.700000
  H    -98.208800   13.842400  -113.964000
  H    -102.233000   10.224400  -120.351000

 Total Charge           Charge          ....    0
 Multiplicity           Mult            ....    1
 Number of Electrons    NEL             ....  134
 Basis Dimension        Dim             ....  322

ORBITAL ENERGIES
----------------

  NO   OCC          E(Eh)            E(eV)
   0   2.0000     -88.971215     -2421.0298
   1   2.0000     -88.968330     -2420.9513
   2   2.0000     -10.325713      -280.9769
   3   2.0000     -10.324758      -280.9509
   4   2.0000     -10.318274      -280.7745
   5   2.0000     -10.313728      -280.6508
   6   2.0000     -10.302332      -280.3407
   7   2.0000     -10.302159      -280.3360
   8   2.0000     -10.298338      -280.2320
   9   2.0000     -10.293724      -280.1065
  10   2.0000     -10.291049      -280.0337
  11   2.0000     -10.286794      -279.9179
  12   2.0000     -10.286666      -279.9144
  13   2.0000     -10.281995      -279.7873
  14   2.0000     -10.275205      -279.6026
  15   2.0000     -10.275104      -279.5998
  16   2.0000      -8.086121      -220.0345
  17   2.0000      -8.083926      -219.9748
  18   2.0000      -6.044657      -164.4835
  19   2.0000      -6.042203      -164.4167
  20   2.0000      -6.040547      -164.3716
  21   2.0000      -6.038180      -164.3072
  22   2.0000      -6.036908      -164.2726
  23   2.0000      -6.035003      -164.2208
  24   2.0000      -1.013086       -27.5675
  25   2.0000      -0.989085       -26.9144
  26   2.0000      -0.915183       -24.9034
  27   2.0000      -0.913072       -24.8460
  28   2.0000      -0.867299       -23.6004
  29   2.0000      -0.859092       -23.3771
  30   2.0000      -0.850045       -23.1309
  31   2.0000      -0.810340       -22.0505
  32   2.0000      -0.785123       -21.3643
  33   2.0000      -0.773800       -21.0562
  34   2.0000      -0.709804       -19.3148
  35   2.0000      -0.702170       -19.1070
  36   2.0000      -0.691281       -18.8107
  37   2.0000      -0.658184       -17.9101
  38   2.0000      -0.635486       -17.2925
  39   2.0000      -0.610693       -16.6178
  40   2.0000      -0.592010       -16.1094
  41   2.0000      -0.579227       -15.7616
  42   2.0000      -0.575066       -15.6483
  43   2.0000      -0.557436       -15.1686
  44   2.0000      -0.537500       -14.6261
  45   2.0000      -0.524307       -14.2671
  46   2.0000      -0.518929       -14.1208
  47   2.0000      -0.506490       -13.7823
  48   2.0000      -0.501886       -13.6570
  49   2.0000      -0.495136       -13.4733
  50   2.0000      -0.492054       -13.3895
  51   2.0000      -0.481468       -13.1014
  52   2.0000      -0.474718       -12.9177
  53   2.0000      -0.470509       -12.8032
  54   2.0000      -0.467711       -12.7271
  55   2.0000      -0.444911       -12.1066
  56   2.0000      -0.443674       -12.0730
  57   2.0000      -0.441775       -12.0213
  58   2.0000      -0.429658       -11.6916
  59   2.0000      -0.426434       -11.6039
  60   2.0000      -0.424317       -11.5462
  61   2.0000      -0.419609       -11.4181
  62   2.0000      -0.415516       -11.3068
  63   2.0000      -0.351108        -9.5541
  64   2.0000      -0.334846        -9.1116
  65   2.0000      -0.329479        -8.9656
  66   2.0000      -0.283255        -7.7078
  67   0.0000       0.029999         0.8163
  68   0.0000       0.073430         1.9981
  69   0.0000       0.113067         3.0767
  70   0.0000       0.120593         3.2815
  71   0.0000       0.133295         3.6271

MULLIKEN ATOMIC CHARGES
-----------------------
   0 S :    0.134819
   1 C :   -0.149500
   2 C :   -0.078929
   3 C :   -0.017054
   4 C :   -0.122058
   5 H :    0.009244
   6 C :    0.053033
   7 H :    0.037588
   8 H :    0.011175
   9 C :   -0.080141
  10 H :    0.030726
  11 H :    0.027319
  12 C :   -0.008594
  13 H :    0.041976
  14 H :    0.008445
  15 H :    0.030722
  16 S :    0.122032
  17 C :   -0.072688
  18 C :   -0.086681
  19 C :   -0.013758
  20 C :   -0.166812
  21 H :    0.016653
  22 C :    0.013425
  23 H :    0.047618
  24 H :    0.051748
  25 C :   -0.096045
  26 H :    0.021687
  27 H :    0.030335
  28 C :   -0.000357
  29 H :    0.027009
  30 H :    0.020482
  31 H :    0.033948
  32 H :    0.073057
  33 H :    0.049574
Sum of atomic charges:    0.0000000

LOEWDIN ATOMIC CHARGES
----------------------
   0 S :    0.429033
   1 C :   -0.231509
   2 C :   -0.060516
   3 C :   -0.068209
   4 C :   -0.210079
   5 H :    0.030647
   6 C :   -0.036644
   7 H :    0.039258
   8 H :    0.025422
   9 C :   -0.043529
  10 H :    0.028505
  11 H :    0.024595
  12 C :   -0.063716
  13 H :    0.032644
  14 H :    0.020916
  15 H :    0.024440
  16 S :    0.450506
  17 C :   -0.211711
  18 C :   -0.072616
  19 C :   -0.065736
  20 C :   -0.201921
  21 H :    0.029567
  22 C :   -0.038568
  23 H :    0.036848
  24 H :    0.036904
  25 C :   -0.044209
  26 H :    0.017769
  27 H :    0.024087
  28 C :   -0.051657
  29 H :    0.017890
  30 H :    0.023027
  31 H :    0.030108
  32 H :    0.045456
  33 H :    0.033000

  Mayer bond orders larger than 0.100000
B(  0-S ,  1-C ) :   1.1432 B(  0-S ,  4-C ) :   1.1597 B(  1-C ,  2-C ) :   1.5892
B(  1-C , 32-H ) :   0.9569 B(  2-C ,  3-C ) :   1.2507 B(  2-C ,  6-C ) :   1.0160
B(  3-C ,  4-C ) :   1.5600 B(  3-C ,  5-H ) :   0.9974 B(  4-C , 20-C ) :   1.0104
B(  6-C ,  7-H ) :   0.9237 B(  6-C ,  8-H ) :   0.9443 B(  6-C ,  9-C ) :   1.0886
B(  9-C , 10-H ) :   0.9503 B(  9-C , 11-H ) :   0.9525 B(  9-C , 12-C ) :   1.0671
B( 12-C , 13-H ) :   0.9749 B( 12-C , 14-H ) :   0.9704 B( 12-C , 15-H ) :   0.9751
B( 16-S , 17-C ) :   1.1743 B( 16-S , 20-C ) :   1.1779 B( 17-C , 18-C ) :   1.5708
B( 17-C , 20-C ) :   0.1094 B( 17-C , 33-H ) :   0.9655 B( 18-C , 19-C ) :   1.2920
B( 18-C , 21-H ) :   0.9897 B( 19-C , 20-C ) :   1.5563 B( 19-C , 22-C ) :   1.0161
B( 22-C , 23-H ) :   0.9398 B( 22-C , 24-H ) :   0.9244 B( 22-C , 25-C ) :   1.0770
B( 25-C , 26-H ) :   0.9470 B( 25-C , 27-H ) :   0.9562 B( 25-C , 28-C ) :   1.0901
B( 28-C , 29-H ) :   0.9778 B( 28-C , 30-H ) :   0.9705 B( 28-C , 31-H ) :   0.9729

Dispersion correction           -0.013882385
FINAL SINGLE POINT ENERGY     -1339.877681360811

DIPOLE MOMENT
-------------
                                X             Y             Z
Electronic contribution:    -19.98352     -21.34360      10.59721
Nuclear contribution   :     20.31495      21.93278     -11.00861
                        -----------------------------------------
Total Dipole Moment    :      0.33143       0.58918      -0.41140
                        -----------------------------------------
Magnitude (a.u.)       :      0.79134
Magnitude (Debye)      :      2.01144

Rotational constants in cm-1:     0.017033     0.009455     0.006518
Rotational constants in MHz :   510.649014   283.458725   195.395535

                             ****ORCA TERMINATED NORMALLY****
TOTAL RUN TIME: 0 days 0 hours 0 minutes 21 seconds 709 msec
