                         Program Version 4.2.1 -  RELEASE  -
|  1> ! wB97X-D3 SP def2-SVP
|  2> %pal
|  3> nprocs 24
|  4> end
|  5>
|  6> * xyz 0 1
|  7> S 	 -120.987 	 19.1504 	 -25.8485
|  8> C 	 -119.34 	 19.157 	 -26.5159
|  9> C 	 -118.632 	 20.1779 	 -25.9212
| 10> C 	 -119.412 	 20.9316 	 -24.9829
| 11> C 	 -120.782 	 20.6485 	 -24.9041
| 12> H 	 -119.053 	 21.6857 	 -24.3517
| 13> C 	 -117.185 	 20.5473 	 -26.2216
| 14> H 	 -117.307 	 21.5571 	 -26.4814
| 15> H 	 -116.888 	 20.1017 	 -27.1729
| 16> C 	 -116.129 	 20.282 	 -25.0518
| 17> H 	 -116.567 	 20.5784 	 -24.0851
| 18> H 	 -116.105 	 19.1691 	 -24.9687
| 19> C 	 -114.783 	 20.6847 	 -25.5137
| 20> H 	 -114.68 	 21.7774 	 -25.4457
| 21> H 	 -114.001 	 20.2609 	 -24.9598
| 22> H 	 -114.693 	 20.4199 	 -26.542
| 23> S 	 -122.673 	 20.1256 	 -23.09
| 24> C 	 -123.436 	 21.4693 	 -22.2643
| 25> C 	 -123.174 	 22.6523 	 -22.9332
| 26> C 	 -122.033 	 22.581 	 -23.76
| 27> C 	 -121.74 	 21.262 	 -24.0564
| 28> H 	 -123.771 	 23.5338 	 -22.7113
| 29> C 	 -121.425 	 23.7351 	 -24.4846
| 30> H 	 -122.287 	 24.4044 	 -24.7722
| 31> H 	 -120.939 	 23.5049 	 -25.4535
| 32> C 	 -120.379 	 24.4395 	 -23.6493
| 33> H 	 -119.776 	 23.6989 	 -23.102
| 34> H 	 -120.826 	 25.0188 	 -22.7711
| 35> C 	 -119.499 	 25.3859 	 -24.4232
| 36> H 	 -119.208 	 24.853 	 -25.319
| 37> H 	 -118.538 	 25.6988 	 -23.8761
| 38> H 	 -120.081 	 26.2632 	 -24.6734
| 39> H 	 -118.927 	 18.4768 	 -27.2025
| 40> H 	 -124.316 	 21.3849 	 -21.5486
| 41> *
| 42>
| 43>                          ****END OF INPUT****

CARTESIAN COORDINATES (ANGSTROEM)
---------------------------------
  S    -120.987000   19.150400  -25.848500
  C    -119.340000   19.157000  -26.515900
  C    -118.632000   20.177900  -25.921200
  C    -119.412000   20.931600  -24.982900
  C    -120.782000   20.648500  -24.904100
  H    -119.053000   21.685700  -24.351700
  C    -117.185000   20.547300  -26.221600
  H    -117.307000   21.557100  -26.481400
  H    -116.888000   20.101700  -27.172900
  C    -116.129000   20.282000  -25.051800
  H    -116.567000   20.578400  -24.085100
  H    -116.105000   19.169100  -24.968700
  C    -114.783000   20.684700  -25.513700
  H    -114.680000   21.777400  -25.445700
  H    -114.001000   20.260900  -24.959800
  H    -114.693000   20.419900  -26.542000
  S    -122.673000   20.125600  -23.090000
  C    -123.436000   21.469300  -22.264300
  C    -123.174000   22.652300  -22.933200
  C    -122.033000   22.581000  -23.760000
  C    -121.740000   21.262000  -24.056400
  H    -123.771000   23.533800  -22.711300
  C    -121.425000   23.735100  -24.484600
  H    -122.287000   24.404400  -24.772200
  H    -120.939000   23.504900  -25.453500
  C    -120.379000   24.439500  -23.649300
  H    -119.776000   23.698900  -23.102000
  H    -120.826000   25.018800  -22.771100
  C    -119.499000   25.385900  -24.423200
  H    -119.208000   24.853000  -25.319000
  H    -118.538000   25.698800  -23.876100
  H    -120.081000   26.263200  -24.673400
  H    -118.927000   18.476800  -27.202500
  H    -124.316000   21.384900  -21.548600

 Total Charge           Charge          ....    0
 Multiplicity           Mult            ....    1
 Number of Electrons    NEL             ....  134
 Basis Dimension        Dim             ....  322

ORBITAL ENERGIES
----------------

  NO   OCC          E(Eh)            E(eV)
   0   2.0000     -88.966730     -2420.9078
   1   2.0000     -88.963196     -2420.8116
   2   2.0000     -10.331520      -281.1350
   3   2.0000     -10.327179      -281.0168
   4   2.0000     -10.322029      -280.8767
   5   2.0000     -10.313075      -280.6330
   6   2.0000     -10.305201      -280.4188
   7   2.0000     -10.300317      -280.2859
   8   2.0000     -10.297171      -280.2003
   9   2.0000     -10.296539      -280.1831
  10   2.0000     -10.292834      -280.0822
  11   2.0000     -10.290656      -280.0230
  12   2.0000     -10.289548      -279.9928
  13   2.0000     -10.288475      -279.9636
  14   2.0000     -10.281491      -279.7736
  15   2.0000     -10.272426      -279.5269
  16   2.0000      -8.081478      -219.9082
  17   2.0000      -8.076868      -219.7827
  18   2.0000      -6.039963      -164.3557
  19   2.0000      -6.036112      -164.2510
  20   2.0000      -6.035571      -164.2362
  21   2.0000      -6.032103      -164.1419
  22   2.0000      -6.031537      -164.1265
  23   2.0000      -6.027441      -164.0150
  24   2.0000      -1.009627       -27.4733
  25   2.0000      -0.981535       -26.7089
  26   2.0000      -0.916924       -24.9508
  27   2.0000      -0.911187       -24.7947
  28   2.0000      -0.877271       -23.8718
  29   2.0000      -0.857076       -23.3222
  30   2.0000      -0.846282       -23.0285
  31   2.0000      -0.814665       -22.1682
  32   2.0000      -0.781334       -21.2612
  33   2.0000      -0.770765       -20.9736
  34   2.0000      -0.710586       -19.3360
  35   2.0000      -0.703517       -19.1437
  36   2.0000      -0.692244       -18.8369
  37   2.0000      -0.664958       -18.0944
  38   2.0000      -0.642704       -17.4889
  39   2.0000      -0.619263       -16.8510
  40   2.0000      -0.599596       -16.3158
  41   2.0000      -0.568825       -15.4785
  42   2.0000      -0.563134       -15.3237
  43   2.0000      -0.558771       -15.2049
  44   2.0000      -0.534856       -14.5542
  45   2.0000      -0.527962       -14.3666
  46   2.0000      -0.519571       -14.1382
  47   2.0000      -0.514239       -13.9932
  48   2.0000      -0.508650       -13.8411
  49   2.0000      -0.504861       -13.7380
  50   2.0000      -0.501442       -13.6449
  51   2.0000      -0.477327       -12.9887
  52   2.0000      -0.468981       -12.7616
  53   2.0000      -0.468032       -12.7358
  54   2.0000      -0.458666       -12.4809
  55   2.0000      -0.450540       -12.2598
  56   2.0000      -0.446971       -12.1627
  57   2.0000      -0.436573       -11.8798
  58   2.0000      -0.435181       -11.8419
  59   2.0000      -0.433025       -11.7832
  60   2.0000      -0.415119       -11.2960
  61   2.0000      -0.408262       -11.1094
  62   2.0000      -0.405681       -11.0391
  63   2.0000      -0.352105        -9.5813
  64   2.0000      -0.333367        -9.0714
  65   2.0000      -0.323834        -8.8120
  66   2.0000      -0.287029        -7.8105
  67   0.0000       0.022042         0.5998
  68   0.0000       0.067743         1.8434
  69   0.0000       0.109142         2.9699
  70   0.0000       0.119149         3.2422
  71   0.0000       0.124713         3.3936

MULLIKEN ATOMIC CHARGES
-----------------------
   0 S :    0.086906
   1 C :   -0.096300
   2 C :   -0.090843
   3 C :    0.031559
   4 C :   -0.119848
   5 H :   -0.022433
   6 C :    0.063763
   7 H :    0.019257
   8 H :    0.007970
   9 C :   -0.086842
  10 H :    0.038279
  11 H :    0.028954
  12 C :    0.018256
  13 H :    0.027962
  14 H :    0.025680
  15 H :    0.020065
  16 S :    0.109772
  17 C :   -0.114994
  18 C :   -0.033899
  19 C :   -0.020537
  20 C :   -0.149578
  21 H :    0.025722
  22 C :    0.030139
  23 H :    0.036554
  24 H :    0.034168
  25 C :   -0.116743
  26 H :    0.033230
  27 H :    0.030535
  28 C :   -0.031348
  29 H :    0.021340
  30 H :    0.048788
  31 H :    0.033797
  32 H :    0.030540
  33 H :    0.080128
Sum of atomic charges:   -0.0000000

LOEWDIN ATOMIC CHARGES
----------------------
   0 S :    0.373707
   1 C :   -0.181915
   2 C :   -0.062990
   3 C :   -0.062735
   4 C :   -0.183710
   5 H :    0.015945
   6 C :   -0.028855
   7 H :    0.023575
   8 H :    0.026589
   9 C :   -0.039045
  10 H :    0.026176
  11 H :    0.029346
  12 C :   -0.057402
  13 H :    0.028090
  14 H :    0.020440
  15 H :    0.025790
  16 S :    0.405238
  17 C :   -0.198100
  18 C :   -0.065546
  19 C :   -0.053232
  20 C :   -0.186487
  21 H :    0.033789
  22 C :   -0.036444
  23 H :    0.038564
  24 H :    0.032755
  25 C :   -0.054383
  26 H :    0.021418
  27 H :    0.028515
  28 C :   -0.067499
  29 H :    0.019914
  30 H :    0.037471
  31 H :    0.025057
  32 H :    0.022917
  33 H :    0.043049

  Mayer bond orders larger than 0.100000
B(  0-S ,  1-C ) :   1.1198 B(  0-S ,  4-C ) :   1.1268 B(  1-C ,  2-C ) :   1.6090
B(  1-C , 32-H ) :   0.9775 B(  2-C ,  3-C ) :   1.2410 B(  2-C ,  6-C ) :   1.0114
B(  3-C ,  4-C ) :   1.5519 B(  3-C ,  5-H ) :   1.0006 B(  4-C , 20-C ) :   1.0937
B(  6-C ,  7-H ) :   0.9418 B(  6-C ,  8-H ) :   0.9401 B(  6-C ,  9-C ) :   1.0433
B(  9-C , 10-H ) :   0.9624 B(  9-C , 11-H ) :   0.9535 B(  9-C , 12-C ) :   1.0790
B( 12-C , 13-H ) :   0.9739 B( 12-C , 14-H ) :   0.9724 B( 12-C , 15-H ) :   0.9664
B( 16-S , 17-C ) :   1.1502 B( 16-S , 20-C ) :   1.1358 B( 17-C , 18-C ) :   1.6197
B( 17-C , 20-C ) :   0.1067 B( 17-C , 33-H ) :   0.9556 B( 18-C , 19-C ) :   1.2339
B( 18-C , 21-H ) :   0.9824 B( 19-C , 20-C ) :   1.5779 B( 19-C , 22-C ) :   1.0535
B( 22-C , 23-H ) :   0.9328 B( 22-C , 24-H ) :   0.9419 B( 22-C , 25-C ) :   1.0402
B( 25-C , 26-H ) :   0.9560 B( 25-C , 27-H ) :   0.9476 B( 25-C , 28-C ) :   1.0854
B( 28-C , 29-H ) :   0.9719 B( 28-C , 30-H ) :   0.9733 B( 28-C , 31-H ) :   0.9723

Dispersion correction           -0.014122502
FINAL SINGLE POINT ENERGY     -1339.862846482945

DIPOLE MOMENT
-------------
                                X             Y             Z
Electronic contribution:    -25.09567     -18.57617       2.63784
Nuclear contribution   :     25.51793      19.14092      -2.63854
                        -----------------------------------------
Total Dipole Moment    :      0.42226       0.56475      -0.00069
                        -----------------------------------------
Magnitude (a.u.)       :      0.70515
Magnitude (Debye)      :      1.79236

Rotational constants in cm-1:     0.017315     0.009102     0.006655
Rotational constants in MHz :   519.087867   272.881106   199.519814

                             ****ORCA TERMINATED NORMALLY****
TOTAL RUN TIME: 0 days 0 hours 0 minutes 20 seconds 707 msec
