                         Program Version 4.2.1 -  RELEASE  -
|  1> ! wB97X-D3 SP def2-SVP
|  2> %pal
|  3> nprocs 24
|  4> end
|  5>
|  6> * xyz 0 1
|  7> S 	 -52.4589 	 -51.9646 	 -75.3356
|  8> C 	 -52.062 	 -53.6303 	 -75.2291
|  9> C 	 -52.6347 	 -54.4371 	 -76.2208
| 10> C 	 -53.6394 	 -53.713 	 -76.9481
| 11> C 	 -53.5647 	 -52.3091 	 -76.677
| 12> H 	 -54.1995 	 -54.0445 	 -77.7434
| 13> C 	 -52.3578 	 -55.9599 	 -76.407
| 14> H 	 -51.3086 	 -56.1351 	 -76.3353
| 15> H 	 -52.7523 	 -56.2326 	 -77.4172
| 16> C 	 -53.0949 	 -56.871 	 -75.2786
| 17> H 	 -52.6807 	 -57.8896 	 -75.2673
| 18> H 	 -52.7889 	 -56.3577 	 -74.3098
| 19> C 	 -54.6253 	 -57.0729 	 -75.4702
| 20> H 	 -54.9626 	 -56.0448 	 -75.7789
| 21> H 	 -54.8837 	 -57.7765 	 -76.263
| 22> H 	 -55.2002 	 -57.2616 	 -74.5327
| 23> S 	 -55.9695 	 -51.0556 	 -76.4637
| 24> C 	 -56.484 	 -49.9857 	 -77.8185
| 25> C 	 -55.6291 	 -49.9871 	 -78.8827
| 26> C 	 -54.517 	 -50.8684 	 -78.6377
| 27> C 	 -54.4711 	 -51.395 	 -77.2825
| 28> H 	 -55.7325 	 -49.4098 	 -79.7611
| 29> C 	 -53.5787 	 -51.3779 	 -79.7021
| 30> H 	 -52.8362 	 -51.8818 	 -79.1636
| 31> H 	 -53.2267 	 -50.4948 	 -80.233
| 32> C 	 -54.1588 	 -52.1626 	 -80.8973
| 33> H 	 -54.7726 	 -51.4264 	 -81.4471
| 34> H 	 -54.7687 	 -52.9924 	 -80.5661
| 35> C 	 -53.1675 	 -52.6823 	 -81.9881
| 36> H 	 -52.4846 	 -53.3738 	 -81.5685
| 37> H 	 -52.5999 	 -51.834 	 -82.2669
| 38> H 	 -53.6195 	 -53.1695 	 -82.8842
| 39> H 	 -51.4217 	 -54.0963 	 -74.5423
| 40> H 	 -57.4647 	 -49.4938 	 -77.8516
| 41> *
| 42>
| 43>                          ****END OF INPUT****

CARTESIAN COORDINATES (ANGSTROEM)
---------------------------------
  S    -52.458900  -51.964600  -75.335600
  C    -52.062000  -53.630300  -75.229100
  C    -52.634700  -54.437100  -76.220800
  C    -53.639400  -53.713000  -76.948100
  C    -53.564700  -52.309100  -76.677000
  H    -54.199500  -54.044500  -77.743400
  C    -52.357800  -55.959900  -76.407000
  H    -51.308600  -56.135100  -76.335300
  H    -52.752300  -56.232600  -77.417200
  C    -53.094900  -56.871000  -75.278600
  H    -52.680700  -57.889600  -75.267300
  H    -52.788900  -56.357700  -74.309800
  C    -54.625300  -57.072900  -75.470200
  H    -54.962600  -56.044800  -75.778900
  H    -54.883700  -57.776500  -76.263000
  H    -55.200200  -57.261600  -74.532700
  S    -55.969500  -51.055600  -76.463700
  C    -56.484000  -49.985700  -77.818500
  C    -55.629100  -49.987100  -78.882700
  C    -54.517000  -50.868400  -78.637700
  C    -54.471100  -51.395000  -77.282500
  H    -55.732500  -49.409800  -79.761100
  C    -53.578700  -51.377900  -79.702100
  H    -52.836200  -51.881800  -79.163600
  H    -53.226700  -50.494800  -80.233000
  C    -54.158800  -52.162600  -80.897300
  H    -54.772600  -51.426400  -81.447100
  H    -54.768700  -52.992400  -80.566100
  C    -53.167500  -52.682300  -81.988100
  H    -52.484600  -53.373800  -81.568500
  H    -52.599900  -51.834000  -82.266900
  H    -53.619500  -53.169500  -82.884200
  H    -51.421700  -54.096300  -74.542300
  H    -57.464700  -49.493800  -77.851600

 Total Charge           Charge          ....    0
 Multiplicity           Mult            ....    1
 Number of Electrons    NEL             ....  134
 Basis Dimension        Dim             ....  322

ORBITAL ENERGIES
----------------

  NO   OCC          E(Eh)            E(eV)
   0   2.0000     -88.975657     -2421.1507
   1   2.0000     -88.965587     -2420.8767
   2   2.0000     -10.329655      -281.0842
   3   2.0000     -10.324538      -280.9450
   4   2.0000     -10.321538      -280.8633
   5   2.0000     -10.311647      -280.5942
   6   2.0000     -10.307900      -280.4922
   7   2.0000     -10.305423      -280.4248
   8   2.0000     -10.303609      -280.3755
   9   2.0000     -10.299726      -280.2698
  10   2.0000     -10.296336      -280.1776
  11   2.0000     -10.294081      -280.1162
  12   2.0000     -10.288829      -279.9733
  13   2.0000     -10.284449      -279.8541
  14   2.0000     -10.284085      -279.8442
  15   2.0000     -10.276436      -279.6360
  16   2.0000      -8.089874      -220.1366
  17   2.0000      -8.079631      -219.8580
  18   2.0000      -6.048188      -164.5796
  19   2.0000      -6.044432      -164.4773
  20   2.0000      -6.040889      -164.3810
  21   2.0000      -6.038155      -164.3066
  22   2.0000      -6.034317      -164.2021
  23   2.0000      -6.030334      -164.0937
  24   2.0000      -1.001332       -27.2476
  25   2.0000      -0.977251       -26.5923
  26   2.0000      -0.905512       -24.6402
  27   2.0000      -0.897565       -24.4240
  28   2.0000      -0.872320       -23.7370
  29   2.0000      -0.848118       -23.0785
  30   2.0000      -0.845224       -22.9997
  31   2.0000      -0.813327       -22.1318
  32   2.0000      -0.781105       -21.2550
  33   2.0000      -0.764455       -20.8019
  34   2.0000      -0.707368       -19.2485
  35   2.0000      -0.696315       -18.9477
  36   2.0000      -0.692625       -18.8473
  37   2.0000      -0.659805       -17.9542
  38   2.0000      -0.647666       -17.6239
  39   2.0000      -0.608326       -16.5534
  40   2.0000      -0.588841       -16.0232
  41   2.0000      -0.577248       -15.7077
  42   2.0000      -0.567556       -15.4440
  43   2.0000      -0.543419       -14.7872
  44   2.0000      -0.541533       -14.7359
  45   2.0000      -0.523266       -14.2388
  46   2.0000      -0.516770       -14.0620
  47   2.0000      -0.507869       -13.8198
  48   2.0000      -0.504062       -13.7162
  49   2.0000      -0.496298       -13.5049
  50   2.0000      -0.482300       -13.1241
  51   2.0000      -0.480499       -13.0750
  52   2.0000      -0.473990       -12.8979
  53   2.0000      -0.461487       -12.5577
  54   2.0000      -0.457855       -12.4589
  55   2.0000      -0.454801       -12.3758
  56   2.0000      -0.450567       -12.2606
  57   2.0000      -0.437173       -11.8961
  58   2.0000      -0.433072       -11.7845
  59   2.0000      -0.423329       -11.5194
  60   2.0000      -0.419611       -11.4182
  61   2.0000      -0.413632       -11.2555
  62   2.0000      -0.413040       -11.2394
  63   2.0000      -0.343504        -9.3472
  64   2.0000      -0.331315        -9.0155
  65   2.0000      -0.309926        -8.4335
  66   2.0000      -0.298746        -8.1293
  67   0.0000       0.032282         0.8784
  68   0.0000       0.049714         1.3528
  69   0.0000       0.108069         2.9407
  70   0.0000       0.115053         3.1308
  71   0.0000       0.123041         3.3481

MULLIKEN ATOMIC CHARGES
-----------------------
   0 S :    0.153442
   1 C :   -0.091516
   2 C :   -0.104800
   3 C :    0.073790
   4 C :   -0.205672
   5 H :   -0.009322
   6 C :    0.059622
   7 H :    0.032126
   8 H :    0.032368
   9 C :   -0.100214
  10 H :    0.036786
  11 H :    0.037359
  12 C :   -0.071622
  13 H :    0.029700
  14 H :    0.043814
  15 H :    0.050072
  16 S :    0.111770
  17 C :   -0.098605
  18 C :    0.000827
  19 C :   -0.057068
  20 C :   -0.172548
  21 H :    0.011302
  22 C :    0.101190
  23 H :    0.020278
  24 H :    0.013411
  25 C :   -0.092032
  26 H :    0.023584
  27 H :    0.028137
  28 C :   -0.032108
  29 H :    0.022125
  30 H :    0.015426
  31 H :    0.048835
  32 H :    0.024821
  33 H :    0.064720
Sum of atomic charges:    0.0000000

LOEWDIN ATOMIC CHARGES
----------------------
   0 S :    0.432087
   1 C :   -0.203249
   2 C :   -0.063367
   3 C :   -0.037848
   4 C :   -0.210128
   5 H :    0.017174
   6 C :   -0.026505
   7 H :    0.027486
   8 H :    0.031604
   9 C :   -0.043572
  10 H :    0.020805
  11 H :    0.028430
  12 C :   -0.078243
  13 H :    0.029745
  14 H :    0.026024
  15 H :    0.034310
  16 S :    0.396194
  17 C :   -0.167568
  18 C :   -0.065973
  19 C :   -0.040807
  20 C :   -0.218924
  21 H :    0.029125
  22 C :   -0.032282
  23 H :    0.021197
  24 H :    0.031650
  25 C :   -0.035884
  26 H :    0.023198
  27 H :    0.015759
  28 C :   -0.060954
  29 H :    0.017994
  30 H :    0.018549
  31 H :    0.035189
  32 H :    0.016703
  33 H :    0.032082

  Mayer bond orders larger than 0.100000
B(  0-S ,  1-C ) :   1.1662 B(  0-S ,  4-C ) :   1.1491 B(  1-C ,  2-C ) :   1.5839
B(  1-C , 32-H ) :   0.9657 B(  2-C ,  3-C ) :   1.2604 B(  2-C ,  6-C ) :   1.0215
B(  3-C ,  4-C ) :   1.5342 B(  3-C ,  5-H ) :   0.9958 B(  4-C , 20-C ) :   1.0704
B(  6-C ,  7-H ) :   0.9424 B(  6-C ,  8-H ) :   0.9498 B(  6-C ,  9-C ) :   1.0509
B(  9-C , 10-H ) :   0.9622 B(  9-C , 11-H ) :   0.9603 B(  9-C , 12-C ) :   1.0611
B( 12-C , 13-H ) :   0.9774 B( 12-C , 14-H ) :   0.9760 B( 12-C , 15-H ) :   0.9740
B( 16-S , 17-C ) :   1.1486 B( 16-S , 20-C ) :   1.1430 B( 17-C , 18-C ) :   1.6110
B( 17-C , 20-C ) :   0.1002 B( 17-C , 33-H ) :   0.9620 B( 18-C , 19-C ) :   1.2365
B( 18-C , 21-H ) :   0.9959 B( 19-C , 20-C ) :   1.5619 B( 19-C , 22-C ) :   1.0748
B( 22-C , 23-H ) :   0.9296 B( 22-C , 24-H ) :   0.9206 B( 22-C , 25-C ) :   1.0564
B( 25-C , 26-H ) :   0.9557 B( 25-C , 27-H ) :   0.9598 B( 25-C , 28-C ) :   1.0778
B( 28-C , 29-H ) :   0.9772 B( 28-C , 30-H ) :   0.9737 B( 28-C , 31-H ) :   0.9756

Dispersion correction           -0.014456273
FINAL SINGLE POINT ENERGY     -1339.852180860903

DIPOLE MOMENT
-------------
                                X             Y             Z
Electronic contribution:     -3.00550      19.59225      15.80649
Nuclear contribution   :      3.04866     -19.99436     -16.27597
                        -----------------------------------------
Total Dipole Moment    :      0.04316      -0.40211      -0.46948
                        -----------------------------------------
Magnitude (a.u.)       :      0.61965
Magnitude (Debye)      :      1.57502

Rotational constants in cm-1:     0.016618     0.008647     0.007218
Rotational constants in MHz :   498.191984   259.224204   216.375655

                             ****ORCA TERMINATED NORMALLY****
TOTAL RUN TIME: 0 days 0 hours 0 minutes 21 seconds 332 msec
