                         Program Version 4.2.1 -  RELEASE  -
|  1> ! wB97X-D3 SP def2-SVP
|  2> %pal
|  3> nprocs 24
|  4> end
|  5>
|  6> * xyz 0 1
|  7> S 	 -84.0417 	 -49.3647 	 -82.4005
|  8> C 	 -85.6453 	 -49.1809 	 -81.6441
|  9> C 	 -85.6257 	 -48.5138 	 -80.464
| 10> C 	 -84.2955 	 -47.8813 	 -80.3742
| 11> C 	 -83.2972 	 -48.2682 	 -81.2578
| 12> H 	 -84.0388 	 -47.2923 	 -79.4954
| 13> C 	 -86.8411 	 -48.2636 	 -79.5683
| 14> H 	 -87.4211 	 -49.2376 	 -79.5288
| 15> H 	 -87.451 	 -47.6147 	 -80.172
| 16> C 	 -86.6268 	 -47.838 	 -78.1273
| 17> H 	 -85.7362 	 -48.3127 	 -77.6969
| 18> H 	 -86.1643 	 -46.8637 	 -78.2192
| 19> C 	 -87.8116 	 -47.9445 	 -77.2005
| 20> H 	 -87.5604 	 -47.5483 	 -76.2207
| 21> H 	 -88.6444 	 -47.3135 	 -77.4538
| 22> H 	 -88.1845 	 -48.9543 	 -77.082
| 23> S 	 -81.2159 	 -48.1085 	 -83.0065
| 24> C 	 -79.8554 	 -47.1574 	 -82.5326
| 25> C 	 -79.749 	 -46.9216 	 -81.1773
| 26> C 	 -80.9842 	 -47.2993 	 -80.5202
| 27> C 	 -81.9148 	 -47.8756 	 -81.4381
| 28> H 	 -78.8834 	 -46.5017 	 -80.6884
| 29> C 	 -81.1712 	 -47.1376 	 -78.9967
| 30> H 	 -81.83 	 -46.3284 	 -78.8151
| 31> H 	 -80.2406 	 -46.675 	 -78.6132
| 32> C 	 -81.5325 	 -48.3469 	 -78.1641
| 33> H 	 -80.7554 	 -49.0961 	 -78.1567
| 34> H 	 -82.3523 	 -48.9163 	 -78.6156
| 35> C 	 -81.875 	 -47.8638 	 -76.7431
| 36> H 	 -81.8575 	 -48.6778 	 -76.0638
| 37> H 	 -82.8907 	 -47.4428 	 -76.6927
| 38> H 	 -81.0002 	 -47.2074 	 -76.4225
| 39> H 	 -86.6555 	 -49.6189 	 -81.9035
| 40> H 	 -79.0667 	 -47.0506 	 -83.2632
| 41> *
| 42>
| 43>                          ****END OF INPUT****

CARTESIAN COORDINATES (ANGSTROEM)
---------------------------------
  S    -84.041700  -49.364700  -82.400500
  C    -85.645300  -49.180900  -81.644100
  C    -85.625700  -48.513800  -80.464000
  C    -84.295500  -47.881300  -80.374200
  C    -83.297200  -48.268200  -81.257800
  H    -84.038800  -47.292300  -79.495400
  C    -86.841100  -48.263600  -79.568300
  H    -87.421100  -49.237600  -79.528800
  H    -87.451000  -47.614700  -80.172000
  C    -86.626800  -47.838000  -78.127300
  H    -85.736200  -48.312700  -77.696900
  H    -86.164300  -46.863700  -78.219200
  C    -87.811600  -47.944500  -77.200500
  H    -87.560400  -47.548300  -76.220700
  H    -88.644400  -47.313500  -77.453800
  H    -88.184500  -48.954300  -77.082000
  S    -81.215900  -48.108500  -83.006500
  C    -79.855400  -47.157400  -82.532600
  C    -79.749000  -46.921600  -81.177300
  C    -80.984200  -47.299300  -80.520200
  C    -81.914800  -47.875600  -81.438100
  H    -78.883400  -46.501700  -80.688400
  C    -81.171200  -47.137600  -78.996700
  H    -81.830000  -46.328400  -78.815100
  H    -80.240600  -46.675000  -78.613200
  C    -81.532500  -48.346900  -78.164100
  H    -80.755400  -49.096100  -78.156700
  H    -82.352300  -48.916300  -78.615600
  C    -81.875000  -47.863800  -76.743100
  H    -81.857500  -48.677800  -76.063800
  H    -82.890700  -47.442800  -76.692700
  H    -81.000200  -47.207400  -76.422500
  H    -86.655500  -49.618900  -81.903500
  H    -79.066700  -47.050600  -83.263200

 Total Charge           Charge          ....    0
 Multiplicity           Mult            ....    1
 Number of Electrons    NEL             ....  134
 Basis Dimension        Dim             ....  322

ORBITAL ENERGIES
----------------

  NO   OCC          E(Eh)            E(eV)
   0   2.0000     -88.968985     -2420.9692
   1   2.0000     -88.963678     -2420.8247
   2   2.0000     -10.331339      -281.1300
   3   2.0000     -10.330090      -281.0961
   4   2.0000     -10.317311      -280.7483
   5   2.0000     -10.313782      -280.6523
   6   2.0000     -10.311749      -280.5969
   7   2.0000     -10.302725      -280.3514
   8   2.0000     -10.300071      -280.2792
   9   2.0000     -10.299668      -280.2682
  10   2.0000     -10.295412      -280.1524
  11   2.0000     -10.292023      -280.0602
  12   2.0000     -10.289863      -280.0014
  13   2.0000     -10.282679      -279.8059
  14   2.0000     -10.282162      -279.7918
  15   2.0000     -10.281390      -279.7708
  16   2.0000      -8.084622      -219.9937
  17   2.0000      -8.077942      -219.8120
  18   2.0000      -6.042974      -164.4377
  19   2.0000      -6.039185      -164.3346
  20   2.0000      -6.036806      -164.2698
  21   2.0000      -6.035316      -164.2293
  22   2.0000      -6.032634      -164.1563
  23   2.0000      -6.028246      -164.0369
  24   2.0000      -1.007153       -27.4060
  25   2.0000      -0.981529       -26.7088
  26   2.0000      -0.916427       -24.9372
  27   2.0000      -0.911656       -24.8074
  28   2.0000      -0.875389       -23.8205
  29   2.0000      -0.852684       -23.2027
  30   2.0000      -0.840128       -22.8610
  31   2.0000      -0.812089       -22.0981
  32   2.0000      -0.787649       -21.4330
  33   2.0000      -0.774119       -21.0649
  34   2.0000      -0.717845       -19.5336
  35   2.0000      -0.704690       -19.1756
  36   2.0000      -0.687160       -18.6986
  37   2.0000      -0.666644       -18.1403
  38   2.0000      -0.630674       -17.1615
  39   2.0000      -0.614078       -16.7099
  40   2.0000      -0.602357       -16.3910
  41   2.0000      -0.569143       -15.4872
  42   2.0000      -0.566266       -15.4089
  43   2.0000      -0.562880       -15.3167
  44   2.0000      -0.530320       -14.4307
  45   2.0000      -0.520863       -14.1734
  46   2.0000      -0.514645       -14.0042
  47   2.0000      -0.511680       -13.9235
  48   2.0000      -0.504873       -13.7383
  49   2.0000      -0.497466       -13.5367
  50   2.0000      -0.496093       -13.4994
  51   2.0000      -0.487145       -13.2559
  52   2.0000      -0.471633       -12.8338
  53   2.0000      -0.467786       -12.7291
  54   2.0000      -0.459935       -12.5155
  55   2.0000      -0.455081       -12.3834
  56   2.0000      -0.444921       -12.1069
  57   2.0000      -0.441601       -12.0166
  58   2.0000      -0.433338       -11.7917
  59   2.0000      -0.425298       -11.5729
  60   2.0000      -0.419449       -11.4138
  61   2.0000      -0.413580       -11.2541
  62   2.0000      -0.409891       -11.1537
  63   2.0000      -0.358538        -9.7563
  64   2.0000      -0.335544        -9.1306
  65   2.0000      -0.324224        -8.8226
  66   2.0000      -0.280050        -7.6205
  67   0.0000       0.018260         0.4969
  68   0.0000       0.078730         2.1423
  69   0.0000       0.093033         2.5315
  70   0.0000       0.121392         3.3032
  71   0.0000       0.126898         3.4531

MULLIKEN ATOMIC CHARGES
-----------------------
   0 S :    0.082588
   1 C :   -0.120780
   2 C :   -0.110265
   3 C :   -0.005821
   4 C :   -0.108153
   5 H :   -0.004261
   6 C :    0.041730
   7 H :    0.030560
   8 H :    0.046485
   9 C :   -0.080781
  10 H :    0.025815
  11 H :    0.022606
  12 C :   -0.006762
  13 H :    0.026022
  14 H :    0.025497
  15 H :    0.037537
  16 S :    0.114920
  17 C :   -0.085844
  18 C :   -0.017167
  19 C :   -0.061433
  20 C :   -0.126406
  21 H :    0.022264
  22 C :    0.063461
  23 H :    0.025251
  24 H :    0.004734
  25 C :   -0.066043
  26 H :    0.022833
  27 H :    0.039228
  28 C :   -0.047678
  29 H :    0.020285
  30 H :    0.043256
  31 H :    0.038650
  32 H :    0.052294
  33 H :    0.055379
Sum of atomic charges:   -0.0000000

LOEWDIN ATOMIC CHARGES
----------------------
   0 S :    0.376931
   1 C :   -0.198535
   2 C :   -0.062168
   3 C :   -0.076668
   4 C :   -0.187002
   5 H :    0.020336
   6 C :   -0.034080
   7 H :    0.036324
   8 H :    0.034634
   9 C :   -0.052936
  10 H :    0.028355
  11 H :    0.024434
  12 C :   -0.059590
  13 H :    0.031161
  14 H :    0.025511
  15 H :    0.027801
  16 S :    0.426488
  17 C :   -0.184648
  18 C :   -0.066738
  19 C :   -0.043910
  20 C :   -0.208103
  21 H :    0.034198
  22 C :   -0.036812
  23 H :    0.026072
  24 H :    0.031107
  25 C :   -0.043420
  26 H :    0.023026
  27 H :    0.026303
  28 C :   -0.063159
  29 H :    0.019104
  30 H :    0.027655
  31 H :    0.034412
  32 H :    0.041262
  33 H :    0.022657

  Mayer bond orders larger than 0.100000
B(  0-S ,  1-C ) :   1.1166 B(  0-S ,  4-C ) :   1.1142 B(  1-C ,  2-C ) :   1.6757
B(  1-C , 32-H ) :   0.9534 B(  2-C ,  3-C ) :   1.2104 B(  2-C ,  6-C ) :   1.0105
B(  3-C ,  4-C ) :   1.6054 B(  3-C ,  5-H ) :   0.9783 B(  4-C , 20-C ) :   1.0936
B(  6-C ,  7-H ) :   0.9416 B(  6-C ,  8-H ) :   0.9400 B(  6-C ,  9-C ) :   1.0589
B(  9-C , 10-H ) :   0.9573 B(  9-C , 11-H ) :   0.9412 B(  9-C , 12-C ) :   1.0904
B( 12-C , 13-H ) :   0.9682 B( 12-C , 14-H ) :   0.9726 B( 12-C , 15-H ) :   0.9730
B( 16-S , 17-C ) :   1.1749 B( 16-S , 20-C ) :   1.1473 B( 17-C , 18-C ) :   1.5763
B( 17-C , 33-H ) :   0.9673 B( 18-C , 19-C ) :   1.2682 B( 18-C , 21-H ) :   0.9924
B( 19-C , 20-C ) :   1.5442 B( 19-C , 22-C ) :   1.0327 B( 22-C , 23-H ) :   0.9307
B( 22-C , 24-H ) :   0.9255 B( 22-C , 25-C ) :   1.0546 B( 25-C , 26-H ) :   0.9524
B( 25-C , 27-H ) :   0.9544 B( 25-C , 28-C ) :   1.0789 B( 28-C , 29-H ) :   0.9726
B( 28-C , 30-H ) :   0.9740 B( 28-C , 31-H ) :   0.9721

Dispersion correction           -0.014389447
FINAL SINGLE POINT ENERGY     -1339.865603456816

DIPOLE MOMENT
-------------
                                X             Y             Z
Electronic contribution:     11.88883      -4.70496     -31.27488
Nuclear contribution   :    -11.96819       4.91406      32.03087
                        -----------------------------------------
Total Dipole Moment    :     -0.07935       0.20910       0.75599
                        -----------------------------------------
Magnitude (a.u.)       :      0.78838
Magnitude (Debye)      :      2.00390

Rotational constants in cm-1:     0.018910     0.009123     0.006501
Rotational constants in MHz :   566.913724   273.512075   194.890856

                             ****ORCA TERMINATED NORMALLY****
TOTAL RUN TIME: 0 days 0 hours 0 minutes 22 seconds 102 msec
