                         Program Version 4.2.1 -  RELEASE  -
|  1> ! wB97X-D3 SP def2-SVP
|  2> %pal
|  3> nprocs 24
|  4> end
|  5>
|  6> * xyz 0 1
|  7> S 	 -128.595 	 61.5541 	 -56.8795
|  8> C 	 -129.738 	 60.1982 	 -57.1198
|  9> C 	 -130.083 	 59.6016 	 -55.8967
| 10> C 	 -129.58 	 60.4513 	 -54.8522
| 11> C 	 -128.904 	 61.625 	 -55.1481
| 12> H 	 -129.742 	 60.1258 	 -53.9074
| 13> C 	 -130.878 	 58.3412 	 -55.6358
| 14> H 	 -130.676 	 57.762 	 -56.55
| 15> H 	 -131.945 	 58.6522 	 -55.5962
| 16> C 	 -130.561 	 57.5067 	 -54.3941
| 17> H 	 -129.578 	 57.2267 	 -54.4531
| 18> H 	 -130.683 	 58.2222 	 -53.5388
| 19> C 	 -131.414 	 56.2389 	 -54.2799
| 20> H 	 -131.587 	 55.6591 	 -55.1589
| 21> H 	 -131.002 	 55.5892 	 -53.5536
| 22> H 	 -132.37 	 56.4242 	 -53.8439
| 23> S 	 -128.544 	 64.3174 	 -55.1484
| 24> C 	 -127.877 	 65.1186 	 -53.708
| 25> C 	 -127.69 	 64.1543 	 -52.6977
| 26> C 	 -128.082 	 62.8294 	 -53.0554
| 27> C 	 -128.514 	 62.7447 	 -54.3769
| 28> H 	 -127.316 	 64.594 	 -51.7496
| 29> C 	 -127.954 	 61.6919 	 -52.071
| 30> H 	 -127.24 	 62.1056 	 -51.383
| 31> H 	 -127.489 	 60.8336 	 -52.5695
| 32> C 	 -129.224 	 61.4044 	 -51.2958
| 33> H 	 -129.996 	 61.22 	 -52.0282
| 34> H 	 -129.535 	 62.3525 	 -50.8156
| 35> C 	 -129.25 	 60.1551 	 -50.4334
| 36> H 	 -130.216 	 60.108 	 -49.8768
| 37> H 	 -128.403 	 60.2331 	 -49.7032
| 38> H 	 -129.086 	 59.2844 	 -51.0309
| 39> H 	 -130.108 	 59.9418 	 -58.0538
| 40> H 	 -127.651 	 66.1132 	 -53.6234
| 41> *
| 42>
| 43>                          ****END OF INPUT****

CARTESIAN COORDINATES (ANGSTROEM)
---------------------------------
  S    -128.595000   61.554100  -56.879500
  C    -129.738000   60.198200  -57.119800
  C    -130.083000   59.601600  -55.896700
  C    -129.580000   60.451300  -54.852200
  C    -128.904000   61.625000  -55.148100
  H    -129.742000   60.125800  -53.907400
  C    -130.878000   58.341200  -55.635800
  H    -130.676000   57.762000  -56.550000
  H    -131.945000   58.652200  -55.596200
  C    -130.561000   57.506700  -54.394100
  H    -129.578000   57.226700  -54.453100
  H    -130.683000   58.222200  -53.538800
  C    -131.414000   56.238900  -54.279900
  H    -131.587000   55.659100  -55.158900
  H    -131.002000   55.589200  -53.553600
  H    -132.370000   56.424200  -53.843900
  S    -128.544000   64.317400  -55.148400
  C    -127.877000   65.118600  -53.708000
  C    -127.690000   64.154300  -52.697700
  C    -128.082000   62.829400  -53.055400
  C    -128.514000   62.744700  -54.376900
  H    -127.316000   64.594000  -51.749600
  C    -127.954000   61.691900  -52.071000
  H    -127.240000   62.105600  -51.383000
  H    -127.489000   60.833600  -52.569500
  C    -129.224000   61.404400  -51.295800
  H    -129.996000   61.220000  -52.028200
  H    -129.535000   62.352500  -50.815600
  C    -129.250000   60.155100  -50.433400
  H    -130.216000   60.108000  -49.876800
  H    -128.403000   60.233100  -49.703200
  H    -129.086000   59.284400  -51.030900
  H    -130.108000   59.941800  -58.053800
  H    -127.651000   66.113200  -53.623400

 Total Charge           Charge          ....    0
 Multiplicity           Mult            ....    1
 Number of Electrons    NEL             ....  134
 Basis Dimension        Dim             ....  322

ORBITAL ENERGIES
----------------

  NO   OCC          E(Eh)            E(eV)
   0   2.0000     -88.967686     -2420.9338
   1   2.0000     -88.961904     -2420.7765
   2   2.0000     -10.329404      -281.0774
   3   2.0000     -10.327595      -281.0282
   4   2.0000     -10.317244      -280.7465
   5   2.0000     -10.312888      -280.6279
   6   2.0000     -10.305504      -280.4270
   7   2.0000     -10.304160      -280.3905
   8   2.0000     -10.301130      -280.3080
   9   2.0000     -10.297569      -280.2111
  10   2.0000     -10.290306      -280.0135
  11   2.0000     -10.288692      -279.9695
  12   2.0000     -10.284910      -279.8666
  13   2.0000     -10.284119      -279.8451
  14   2.0000     -10.283955      -279.8407
  15   2.0000     -10.274845      -279.5928
  16   2.0000      -8.081726      -219.9150
  17   2.0000      -8.076056      -219.7607
  18   2.0000      -6.040340      -164.3660
  19   2.0000      -6.036179      -164.2528
  20   2.0000      -6.034682      -164.2121
  21   2.0000      -6.032534      -164.1536
  22   2.0000      -6.030716      -164.1041
  23   2.0000      -6.026639      -163.9932
  24   2.0000      -1.005363       -27.3573
  25   2.0000      -0.978191       -26.6179
  26   2.0000      -0.917250       -24.9596
  27   2.0000      -0.913765       -24.8648
  28   2.0000      -0.874407       -23.7938
  29   2.0000      -0.854019       -23.2390
  30   2.0000      -0.843890       -22.9634
  31   2.0000      -0.815757       -22.1979
  32   2.0000      -0.786393       -21.3988
  33   2.0000      -0.776912       -21.1408
  34   2.0000      -0.720607       -19.6087
  35   2.0000      -0.703831       -19.1522
  36   2.0000      -0.695430       -18.9236
  37   2.0000      -0.665646       -18.1131
  38   2.0000      -0.641830       -17.4651
  39   2.0000      -0.629661       -17.1340
  40   2.0000      -0.594198       -16.1690
  41   2.0000      -0.579835       -15.7781
  42   2.0000      -0.568145       -15.4600
  43   2.0000      -0.562511       -15.3067
  44   2.0000      -0.531091       -14.4517
  45   2.0000      -0.529346       -14.4042
  46   2.0000      -0.517515       -14.0823
  47   2.0000      -0.515279       -14.0215
  48   2.0000      -0.509410       -13.8617
  49   2.0000      -0.503649       -13.7050
  50   2.0000      -0.500044       -13.6069
  51   2.0000      -0.484116       -13.1735
  52   2.0000      -0.477431       -12.9916
  53   2.0000      -0.470062       -12.7910
  54   2.0000      -0.458233       -12.4691
  55   2.0000      -0.446357       -12.1460
  56   2.0000      -0.441034       -12.0012
  57   2.0000      -0.439337       -11.9550
  58   2.0000      -0.433166       -11.7870
  59   2.0000      -0.432100       -11.7580
  60   2.0000      -0.424388       -11.5482
  61   2.0000      -0.415241       -11.2993
  62   2.0000      -0.406657       -11.0657
  63   2.0000      -0.350908        -9.5487
  64   2.0000      -0.332978        -9.0608
  65   2.0000      -0.325033        -8.8446
  66   2.0000      -0.281848        -7.6695
  67   0.0000       0.014309         0.3894
  68   0.0000       0.076187         2.0732
  69   0.0000       0.100528         2.7355
  70   0.0000       0.120494         3.2788
  71   0.0000       0.124159         3.3785

MULLIKEN ATOMIC CHARGES
-----------------------
   0 S :    0.092994
   1 C :   -0.122460
   2 C :   -0.075671
   3 C :    0.055585
   4 C :   -0.116604
   5 H :   -0.080734
   6 C :    0.047925
   7 H :    0.029535
   8 H :    0.052845
   9 C :   -0.082870
  10 H :    0.018221
  11 H :    0.048467
  12 C :    0.001388
  13 H :    0.029529
  14 H :    0.018524
  15 H :    0.017560
  16 S :    0.111876
  17 C :   -0.072799
  18 C :   -0.057628
  19 C :   -0.056377
  20 C :   -0.125330
  21 H :    0.034249
  22 C :    0.094669
  23 H :    0.009034
  24 H :    0.033792
  25 C :   -0.079218
  26 H :    0.016434
  27 H :    0.025772
  28 C :   -0.024283
  29 H :    0.048594
  30 H :    0.029522
  31 H :    0.029797
  32 H :    0.020802
  33 H :    0.026858
Sum of atomic charges:    0.0000000

LOEWDIN ATOMIC CHARGES
----------------------
   0 S :    0.381664
   1 C :   -0.174149
   2 C :   -0.055285
   3 C :   -0.061474
   4 C :   -0.183580
   5 H :   -0.000137
   6 C :   -0.035715
   7 H :    0.033595
   8 H :    0.040198
   9 C :   -0.032300
  10 H :    0.014457
  11 H :    0.030879
  12 C :   -0.058084
  13 H :    0.025556
  14 H :    0.025515
  15 H :    0.024506
  16 S :    0.404556
  17 C :   -0.166928
  18 C :   -0.072340
  19 C :   -0.051869
  20 C :   -0.198294
  21 H :    0.038711
  22 C :   -0.031578
  23 H :    0.028310
  24 H :    0.032450
  25 C :   -0.047243
  26 H :    0.017507
  27 H :    0.028818
  28 C :   -0.062249
  29 H :    0.035261
  30 H :    0.026395
  31 H :    0.020817
  32 H :    0.010224
  33 H :    0.011806

  Mayer bond orders larger than 0.100000
B(  0-S ,  1-C ) :   1.1391 B(  0-S ,  4-C ) :   1.1276 B(  1-C ,  2-C ) :   1.5810
B(  1-C ,  4-C ) :   0.1009 B(  1-C , 32-H ) :   0.9799 B(  2-C ,  3-C ) :   1.2720
B(  2-C ,  6-C ) :   1.0072 B(  3-C ,  4-C ) :   1.5382 B(  3-C ,  5-H ) :   1.0023
B(  4-C , 20-C ) :   1.1144 B(  6-C ,  7-H ) :   0.9396 B(  6-C ,  8-H ) :   0.9346
B(  6-C ,  9-C ) :   1.0768 B(  9-C , 10-H ) :   0.9612 B(  9-C , 11-H ) :   0.9453
B(  9-C , 12-C ) :   1.0881 B( 12-C , 13-H ) :   0.9748 B( 12-C , 14-H ) :   0.9706
B( 12-C , 15-H ) :   0.9704 B( 16-S , 17-C ) :   1.1504 B( 16-S , 20-C ) :   1.1392
B( 17-C , 18-C ) :   1.5977 B( 17-C , 20-C ) :   0.1070 B( 17-C , 33-H ) :   0.9800
B( 18-C , 19-C ) :   1.2542 B( 18-C , 21-H ) :   0.9831 B( 19-C , 20-C ) :   1.5457
B( 19-C , 22-C ) :   1.0478 B( 22-C , 23-H ) :   0.9214 B( 22-C , 24-H ) :   0.9277
B( 22-C , 25-C ) :   1.0660 B( 25-C , 26-H ) :   0.9551 B( 25-C , 27-H ) :   0.9459
B( 25-C , 28-C ) :   1.0800 B( 28-C , 29-H ) :   0.9723 B( 28-C , 30-H ) :   0.9738
B( 28-C , 31-H ) :   0.9721

Dispersion correction           -0.014358567
FINAL SINGLE POINT ENERGY     -1339.859734019280

DIPOLE MOMENT
-------------
                                X             Y             Z
Electronic contribution:      9.60918      25.17981     -20.03772
Nuclear contribution   :     -9.84133     -25.64858      20.63653
                        -----------------------------------------
Total Dipole Moment    :     -0.23215      -0.46877       0.59881
                        -----------------------------------------
Magnitude (a.u.)       :      0.79512
Magnitude (Debye)      :      2.02103

Rotational constants in cm-1:     0.017989     0.009523     0.006454
Rotational constants in MHz :   539.306765   285.500647   193.488983

                             ****ORCA TERMINATED NORMALLY****
TOTAL RUN TIME: 0 days 0 hours 0 minutes 20 seconds 995 msec
