                         Program Version 4.2.1 -  RELEASE  -
|  1> ! wB97X-D3 SP def2-SVP
|  2> %pal
|  3> nprocs 24
|  4> end
|  5>
|  6> * xyz 0 1
|  7> S 	 -123.768 	 55.7925 	 -33.0572
|  8> C 	 -122.429 	 55.6982 	 -31.9477
|  9> C 	 -121.208 	 55.5236 	 -32.6476
| 10> C 	 -121.378 	 55.6533 	 -34.0618
| 11> C 	 -122.668 	 55.8427 	 -34.4322
| 12> H 	 -120.583 	 55.5688 	 -34.8196
| 13> C 	 -119.838 	 55.3709 	 -31.9306
| 14> H 	 -120.115 	 55.1799 	 -30.8894
| 15> H 	 -119.274 	 56.3104 	 -31.8094
| 16> C 	 -118.948 	 54.228 	 -32.4178
| 17> H 	 -118.76 	 54.4192 	 -33.4591
| 18> H 	 -117.968 	 54.2252 	 -31.866
| 19> C 	 -119.618 	 52.8496 	 -32.1326
| 20> H 	 -119.425 	 52.5292 	 -31.0515
| 21> H 	 -120.701 	 52.8866 	 -32.2566
| 22> H 	 -119.297 	 52.149 	 -32.8961
| 23> S 	 -124.567 	 57.0804 	 -35.958
| 24> C 	 -124.491 	 56.8987 	 -37.7209
| 25> C 	 -123.479 	 56.0176 	 -38.1213
| 26> C 	 -122.727 	 55.5579 	 -37.0008
| 27> C 	 -123.174 	 56.0601 	 -35.781
| 28> H 	 -123.27 	 55.8546 	 -39.1613
| 29> C 	 -121.485 	 54.6586 	 -37.1635
| 30> H 	 -120.626 	 55.2599 	 -36.8801
| 31> H 	 -121.289 	 54.6494 	 -38.2912
| 32> C 	 -121.564 	 53.3177 	 -36.5056
| 33> H 	 -122.289 	 52.6645 	 -36.9306
| 34> H 	 -121.883 	 53.4648 	 -35.4769
| 35> C 	 -120.063 	 52.7498 	 -36.5942
| 36> H 	 -119.998 	 51.6999 	 -36.1807
| 37> H 	 -119.431 	 53.37 	 -35.9712
| 38> H 	 -119.633 	 52.8633 	 -37.6116
| 39> H 	 -122.554 	 55.4909 	 -30.9429
| 40> H 	 -125.106 	 57.3773 	 -38.4812
| 41> *
| 42>
| 43>                          ****END OF INPUT****

CARTESIAN COORDINATES (ANGSTROEM)
---------------------------------
  S    -123.768000   55.792500  -33.057200
  C    -122.429000   55.698200  -31.947700
  C    -121.208000   55.523600  -32.647600
  C    -121.378000   55.653300  -34.061800
  C    -122.668000   55.842700  -34.432200
  H    -120.583000   55.568800  -34.819600
  C    -119.838000   55.370900  -31.930600
  H    -120.115000   55.179900  -30.889400
  H    -119.274000   56.310400  -31.809400
  C    -118.948000   54.228000  -32.417800
  H    -118.760000   54.419200  -33.459100
  H    -117.968000   54.225200  -31.866000
  C    -119.618000   52.849600  -32.132600
  H    -119.425000   52.529200  -31.051500
  H    -120.701000   52.886600  -32.256600
  H    -119.297000   52.149000  -32.896100
  S    -124.567000   57.080400  -35.958000
  C    -124.491000   56.898700  -37.720900
  C    -123.479000   56.017600  -38.121300
  C    -122.727000   55.557900  -37.000800
  C    -123.174000   56.060100  -35.781000
  H    -123.270000   55.854600  -39.161300
  C    -121.485000   54.658600  -37.163500
  H    -120.626000   55.259900  -36.880100
  H    -121.289000   54.649400  -38.291200
  C    -121.564000   53.317700  -36.505600
  H    -122.289000   52.664500  -36.930600
  H    -121.883000   53.464800  -35.476900
  C    -120.063000   52.749800  -36.594200
  H    -119.998000   51.699900  -36.180700
  H    -119.431000   53.370000  -35.971200
  H    -119.633000   52.863300  -37.611600
  H    -122.554000   55.490900  -30.942900
  H    -125.106000   57.377300  -38.481200

 Total Charge           Charge          ....    0
 Multiplicity           Mult            ....    1
 Number of Electrons    NEL             ....  134
 Basis Dimension        Dim             ....  322

ORBITAL ENERGIES
----------------

  NO   OCC          E(Eh)            E(eV)
   0   2.0000     -88.971055     -2421.0255
   1   2.0000     -88.968971     -2420.9688
   2   2.0000     -10.330315      -281.1022
   3   2.0000     -10.325899      -280.9820
   4   2.0000     -10.321061      -280.8503
   5   2.0000     -10.313187      -280.6361
   6   2.0000     -10.309527      -280.5365
   7   2.0000     -10.303031      -280.3597
   8   2.0000     -10.296855      -280.1917
   9   2.0000     -10.296307      -280.1768
  10   2.0000     -10.294585      -280.1299
  11   2.0000     -10.294355      -280.1236
  12   2.0000     -10.291127      -280.0358
  13   2.0000     -10.288891      -279.9750
  14   2.0000     -10.285966      -279.8954
  15   2.0000     -10.281889      -279.7844
  16   2.0000      -8.085248      -220.0108
  17   2.0000      -8.083600      -219.9659
  18   2.0000      -6.043782      -164.4597
  19   2.0000      -6.042112      -164.4142
  20   2.0000      -6.039807      -164.3515
  21   2.0000      -6.038149      -164.3064
  22   2.0000      -6.036041      -164.2490
  23   2.0000      -6.034362      -164.2033
  24   2.0000      -1.008714       -27.4485
  25   2.0000      -0.982436       -26.7335
  26   2.0000      -0.910169       -24.7669
  27   2.0000      -0.907533       -24.6952
  28   2.0000      -0.869403       -23.6577
  29   2.0000      -0.850844       -23.1526
  30   2.0000      -0.841118       -22.8880
  31   2.0000      -0.813711       -22.1422
  32   2.0000      -0.777654       -21.1610
  33   2.0000      -0.766671       -20.8622
  34   2.0000      -0.714893       -19.4532
  35   2.0000      -0.701021       -19.0758
  36   2.0000      -0.692928       -18.8555
  37   2.0000      -0.664389       -18.0789
  38   2.0000      -0.643060       -17.4985
  39   2.0000      -0.625845       -17.0301
  40   2.0000      -0.592124       -16.1125
  41   2.0000      -0.566230       -15.4079
  42   2.0000      -0.559682       -15.2297
  43   2.0000      -0.548253       -14.9187
  44   2.0000      -0.540244       -14.7008
  45   2.0000      -0.526707       -14.3324
  46   2.0000      -0.516321       -14.0498
  47   2.0000      -0.503414       -13.6986
  48   2.0000      -0.502065       -13.6619
  49   2.0000      -0.496174       -13.5016
  50   2.0000      -0.491495       -13.3742
  51   2.0000      -0.481745       -13.1089
  52   2.0000      -0.470830       -12.8119
  53   2.0000      -0.464942       -12.6517
  54   2.0000      -0.457454       -12.4480
  55   2.0000      -0.457100       -12.4383
  56   2.0000      -0.450801       -12.2669
  57   2.0000      -0.440897       -11.9974
  58   2.0000      -0.428241       -11.6530
  59   2.0000      -0.424998       -11.5648
  60   2.0000      -0.418511       -11.3883
  61   2.0000      -0.415567       -11.3082
  62   2.0000      -0.410563       -11.1720
  63   2.0000      -0.356531        -9.7017
  64   2.0000      -0.337005        -9.1704
  65   2.0000      -0.331909        -9.0317
  66   2.0000      -0.284415        -7.7393
  67   0.0000       0.022277         0.6062
  68   0.0000       0.073197         1.9918
  69   0.0000       0.100232         2.7274
  70   0.0000       0.114756         3.1227
  71   0.0000       0.124335         3.3833

MULLIKEN ATOMIC CHARGES
-----------------------
   0 S :    0.107055
   1 C :   -0.087076
   2 C :   -0.104589
   3 C :    0.004296
   4 C :   -0.125932
   5 H :    0.007435
   6 C :    0.057099
   7 H :    0.002052
   8 H :    0.047005
   9 C :   -0.080020
  10 H :    0.029745
  11 H :    0.042973
  12 C :   -0.079146
  13 H :    0.048441
  14 H :    0.039178
  15 H :    0.036121
  16 S :    0.117045
  17 C :   -0.094861
  18 C :   -0.032547
  19 C :   -0.043999
  20 C :   -0.135669
  21 H :    0.016734
  22 C :   -0.004018
  23 H :    0.033828
  24 H :    0.018125
  25 C :   -0.023539
  26 H :    0.030211
  27 H :    0.049365
  28 C :   -0.065875
  29 H :    0.049549
  30 H :    0.015649
  31 H :    0.038382
  32 H :    0.030172
  33 H :    0.056814
Sum of atomic charges:    0.0000000

LOEWDIN ATOMIC CHARGES
----------------------
   0 S :    0.402200
   1 C :   -0.192655
   2 C :   -0.052695
   3 C :   -0.071683
   4 C :   -0.182434
   5 H :    0.033727
   6 C :   -0.037442
   7 H :    0.025702
   8 H :    0.034529
   9 C :   -0.043970
  10 H :    0.015903
  11 H :    0.033673
  12 C :   -0.071923
  13 H :    0.035781
  14 H :    0.024203
  15 H :    0.026026
  16 S :    0.409881
  17 C :   -0.183094
  18 C :   -0.066860
  19 C :   -0.059036
  20 C :   -0.204504
  21 H :    0.031258
  22 C :   -0.040164
  23 H :    0.026471
  24 H :    0.034435
  25 C :   -0.032882
  26 H :    0.023403
  27 H :    0.028664
  28 C :   -0.066751
  29 H :    0.030927
  30 H :    0.017132
  31 H :    0.028359
  32 H :    0.012205
  33 H :    0.031614

  Mayer bond orders larger than 0.100000
B(  0-S ,  1-C ) :   1.1389 B(  0-S ,  4-C ) :   1.1478 B(  1-C ,  2-C ) :   1.5973
B(  1-C , 32-H ) :   0.9713 B(  2-C ,  3-C ) :   1.2340 B(  2-C ,  6-C ) :   1.0172
B(  3-C ,  4-C ) :   1.5792 B(  3-C ,  5-H ) :   0.9881 B(  4-C , 20-C ) :   1.0599
B(  6-C ,  7-H ) :   0.9378 B(  6-C ,  8-H ) :   0.9447 B(  6-C ,  9-C ) :   1.0669
B(  9-C , 10-H ) :   0.9605 B(  9-C , 11-H ) :   0.9553 B(  9-C , 12-C ) :   1.0621
B( 12-C , 13-H ) :   0.9744 B( 12-C , 14-H ) :   0.9794 B( 12-C , 15-H ) :   0.9746
B( 16-S , 17-C ) :   1.1520 B( 16-S , 20-C ) :   1.1390 B( 17-C , 18-C ) :   1.6041
B( 17-C , 20-C ) :   0.1017 B( 17-C , 33-H ) :   0.9639 B( 18-C , 19-C ) :   1.2701
B( 18-C , 21-H ) :   0.9881 B( 19-C , 20-C ) :   1.5755 B( 19-C , 22-C ) :   1.0167
B( 22-C , 23-H ) :   0.9421 B( 22-C , 24-H ) :   0.9270 B( 22-C , 25-C ) :   1.0501
B( 25-C , 26-H ) :   0.9532 B( 25-C , 27-H ) :   0.9562 B( 25-C , 28-C ) :   1.0598
B( 28-C , 29-H ) :   0.9737 B( 28-C , 30-H ) :   0.9772 B( 28-C , 31-H ) :   0.9719

Dispersion correction           -0.015983609
FINAL SINGLE POINT ENERGY     -1339.882459878344

DIPOLE MOMENT
-------------
                                X             Y             Z
Electronic contribution:    -25.65171      18.57651      -1.17137
Nuclear contribution   :     26.20073     -18.83587       0.97822
                        -----------------------------------------
Total Dipole Moment    :      0.54902      -0.25936      -0.19315
                        -----------------------------------------
Magnitude (a.u.)       :      0.63718
Magnitude (Debye)      :      1.61958

Rotational constants in cm-1:     0.019849     0.010246     0.007326
Rotational constants in MHz :   595.072972   307.180575   219.615985

                             ****ORCA TERMINATED NORMALLY****
TOTAL RUN TIME: 0 days 0 hours 0 minutes 22 seconds 170 msec
