                         Program Version 4.2.1 -  RELEASE  -
|  1> ! wB97X-D3 SP def2-SVP
|  2> %pal
|  3> nprocs 24
|  4> end
|  5>
|  6> * xyz 0 1
|  7> S 	 -44.2153 	 21.3527 	 22.9863
|  8> C 	 -44.235 	 19.6863 	 23.5727
|  9> C 	 -42.948 	 19.2676 	 23.9507
| 10> C 	 -41.9813 	 20.3135 	 23.7112
| 11> C 	 -42.4426 	 21.4125 	 23.106
| 12> H 	 -40.8979 	 20.2377 	 23.8924
| 13> C 	 -42.5623 	 17.9805 	 24.5881
| 14> H 	 -41.7989 	 17.6271 	 23.8839
| 15> H 	 -43.4097 	 17.3715 	 24.6569
| 16> C 	 -41.7448 	 18.0328 	 25.8698
| 17> H 	 -40.9285 	 18.7196 	 25.7244
| 18> H 	 -42.3304 	 18.5543 	 26.666
| 19> C 	 -41.2938 	 16.5959 	 26.1814
| 20> H 	 -42.0833 	 15.9086 	 26.4432
| 21> H 	 -40.8214 	 16.1091 	 25.2816
| 22> H 	 -40.5576 	 16.5137 	 27.0373
| 23> S 	 -42.6035 	 24.1258 	 22.9023
| 24> C 	 -41.3116 	 25.0671 	 22.2532
| 25> C 	 -40.1612 	 24.3216 	 22.228
| 26> C 	 -40.3964 	 22.9134 	 22.4879
| 27> C 	 -41.7041 	 22.6265 	 22.776
| 28> H 	 -39.2493 	 24.901 	 21.9675
| 29> C 	 -39.1373 	 22.0063 	 22.5349
| 30> H 	 -38.5818 	 22.2946 	 21.6314
| 31> H 	 -39.4285 	 21.009 	 22.3993
| 32> C 	 -38.081 	 22.2108 	 23.6466
| 33> H 	 -37.764 	 23.2401 	 23.7505
| 34> H 	 -37.3024 	 21.4884 	 23.4327
| 35> C 	 -38.673 	 21.7942 	 25.0264
| 36> H 	 -39.3864 	 22.4873 	 25.5248
| 37> H 	 -37.917 	 21.758 	 25.8163
| 38> H 	 -39.0094 	 20.7517 	 25.1834
| 39> H 	 -45.1392 	 19.1812 	 23.8857
| 40> H 	 -41.3905 	 26.1129 	 22.0727
| 41> *
| 42>
| 43>                          ****END OF INPUT****

CARTESIAN COORDINATES (ANGSTROEM)
---------------------------------
  S    -44.215300   21.352700   22.986300
  C    -44.235000   19.686300   23.572700
  C    -42.948000   19.267600   23.950700
  C    -41.981300   20.313500   23.711200
  C    -42.442600   21.412500   23.106000
  H    -40.897900   20.237700   23.892400
  C    -42.562300   17.980500   24.588100
  H    -41.798900   17.627100   23.883900
  H    -43.409700   17.371500   24.656900
  C    -41.744800   18.032800   25.869800
  H    -40.928500   18.719600   25.724400
  H    -42.330400   18.554300   26.666000
  C    -41.293800   16.595900   26.181400
  H    -42.083300   15.908600   26.443200
  H    -40.821400   16.109100   25.281600
  H    -40.557600   16.513700   27.037300
  S    -42.603500   24.125800   22.902300
  C    -41.311600   25.067100   22.253200
  C    -40.161200   24.321600   22.228000
  C    -40.396400   22.913400   22.487900
  C    -41.704100   22.626500   22.776000
  H    -39.249300   24.901000   21.967500
  C    -39.137300   22.006300   22.534900
  H    -38.581800   22.294600   21.631400
  H    -39.428500   21.009000   22.399300
  C    -38.081000   22.210800   23.646600
  H    -37.764000   23.240100   23.750500
  H    -37.302400   21.488400   23.432700
  C    -38.673000   21.794200   25.026400
  H    -39.386400   22.487300   25.524800
  H    -37.917000   21.758000   25.816300
  H    -39.009400   20.751700   25.183400
  H    -45.139200   19.181200   23.885700
  H    -41.390500   26.112900   22.072700

 Total Charge           Charge          ....    0
 Multiplicity           Mult            ....    1
 Number of Electrons    NEL             ....  134
 Basis Dimension        Dim             ....  322

ORBITAL ENERGIES
----------------

  NO   OCC          E(Eh)            E(eV)
   0   2.0000     -88.963020     -2420.8068
   1   2.0000     -88.959850     -2420.7206
   2   2.0000     -10.328279      -281.0468
   3   2.0000     -10.327873      -281.0357
   4   2.0000     -10.315340      -280.6947
   5   2.0000     -10.312385      -280.6143
   6   2.0000     -10.307611      -280.4844
   7   2.0000     -10.303092      -280.3614
   8   2.0000     -10.297525      -280.2099
   9   2.0000     -10.296313      -280.1769
  10   2.0000     -10.292310      -280.0680
  11   2.0000     -10.292216      -280.0654
  12   2.0000     -10.289936      -280.0034
  13   2.0000     -10.289136      -279.9816
  14   2.0000     -10.286821      -279.9186
  15   2.0000     -10.281246      -279.7669
  16   2.0000      -8.077112      -219.7894
  17   2.0000      -8.075532      -219.7464
  18   2.0000      -6.035831      -164.2433
  19   2.0000      -6.034124      -164.1969
  20   2.0000      -6.031846      -164.1349
  21   2.0000      -6.029986      -164.0843
  22   2.0000      -6.027537      -164.0176
  23   2.0000      -6.026060      -163.9774
  24   2.0000      -1.008345       -27.4385
  25   2.0000      -0.983648       -26.7664
  26   2.0000      -0.919708       -25.0265
  27   2.0000      -0.907423       -24.6922
  28   2.0000      -0.871576       -23.7168
  29   2.0000      -0.849589       -23.1185
  30   2.0000      -0.840648       -22.8752
  31   2.0000      -0.818517       -22.2730
  32   2.0000      -0.783478       -21.3195
  33   2.0000      -0.772523       -21.0214
  34   2.0000      -0.715525       -19.4704
  35   2.0000      -0.704101       -19.1596
  36   2.0000      -0.695704       -18.9311
  37   2.0000      -0.660717       -17.9790
  38   2.0000      -0.640556       -17.4304
  39   2.0000      -0.624579       -16.9957
  40   2.0000      -0.600321       -16.3356
  41   2.0000      -0.574145       -15.6233
  42   2.0000      -0.563035       -15.3209
  43   2.0000      -0.546829       -14.8800
  44   2.0000      -0.542973       -14.7750
  45   2.0000      -0.525147       -14.2900
  46   2.0000      -0.517780       -14.0895
  47   2.0000      -0.512939       -13.9578
  48   2.0000      -0.504024       -13.7152
  49   2.0000      -0.501379       -13.6432
  50   2.0000      -0.487431       -13.2637
  51   2.0000      -0.480337       -13.0706
  52   2.0000      -0.472901       -12.8683
  53   2.0000      -0.466243       -12.6871
  54   2.0000      -0.458648       -12.4804
  55   2.0000      -0.452844       -12.3225
  56   2.0000      -0.442944       -12.0531
  57   2.0000      -0.438304       -11.9269
  58   2.0000      -0.432026       -11.7560
  59   2.0000      -0.423549       -11.5253
  60   2.0000      -0.422032       -11.4841
  61   2.0000      -0.420829       -11.4513
  62   2.0000      -0.410449       -11.1689
  63   2.0000      -0.358981        -9.7684
  64   2.0000      -0.327396        -8.9089
  65   2.0000      -0.322520        -8.7762
  66   2.0000      -0.288591        -7.8530
  67   0.0000       0.024714         0.6725
  68   0.0000       0.082483         2.2445
  69   0.0000       0.097375         2.6497
  70   0.0000       0.117991         3.2107
  71   0.0000       0.130838         3.5603

MULLIKEN ATOMIC CHARGES
-----------------------
   0 S :    0.090771
   1 C :   -0.118134
   2 C :   -0.079686
   3 C :   -0.016653
   4 C :   -0.093437
   5 H :   -0.005913
   6 C :    0.079092
   7 H :    0.032137
   8 H :    0.007845
   9 C :   -0.063057
  10 H :    0.022524
  11 H :    0.036987
  12 C :   -0.066598
  13 H :    0.031820
  14 H :    0.032427
  15 H :    0.043742
  16 S :    0.083964
  17 C :   -0.085425
  18 C :   -0.061538
  19 C :   -0.057640
  20 C :   -0.113786
  21 H :    0.035910
  22 C :    0.064641
  23 H :    0.024690
  24 H :    0.012882
  25 C :   -0.004340
  26 H :    0.038848
  27 H :    0.039206
  28 C :   -0.106043
  29 H :    0.050609
  30 H :    0.012833
  31 H :    0.029300
  32 H :    0.051079
  33 H :    0.050941
Sum of atomic charges:   -0.0000000

LOEWDIN ATOMIC CHARGES
----------------------
   0 S :    0.377555
   1 C :   -0.197514
   2 C :   -0.055332
   3 C :   -0.069591
   4 C :   -0.175854
   5 H :    0.029749
   6 C :   -0.030081
   7 H :    0.040626
   8 H :    0.021788
   9 C :   -0.039567
  10 H :    0.019908
  11 H :    0.029146
  12 C :   -0.072431
  13 H :    0.024183
  14 H :    0.030863
  15 H :    0.031706
  16 S :    0.402042
  17 C :   -0.183668
  18 C :   -0.079206
  19 C :   -0.059035
  20 C :   -0.188334
  21 H :    0.039609
  22 C :   -0.029467
  23 H :    0.034392
  24 H :    0.017781
  25 C :   -0.024260
  26 H :    0.029023
  27 H :    0.032030
  28 C :   -0.089491
  29 H :    0.033068
  30 H :    0.024057
  31 H :    0.023570
  32 H :    0.027900
  33 H :    0.024838

  Mayer bond orders larger than 0.100000
B(  0-S ,  1-C ) :   1.1189 B(  0-S ,  4-C ) :   1.1210 B(  1-C ,  2-C ) :   1.6214
B(  1-C , 32-H ) :   0.9648 B(  2-C ,  3-C ) :   1.2051 B(  2-C ,  6-C ) :   1.0355
B(  3-C ,  4-C ) :   1.6294 B(  3-C ,  5-H ) :   0.9773 B(  4-C , 20-C ) :   1.0569
B(  6-C ,  7-H ) :   0.9281 B(  6-C ,  8-H ) :   0.9454 B(  6-C ,  9-C ) :   1.0631
B(  9-C , 10-H ) :   0.9500 B(  9-C , 11-H ) :   0.9520 B(  9-C , 12-C ) :   1.0714
B( 12-C , 13-H ) :   0.9752 B( 12-C , 14-H ) :   0.9727 B( 12-C , 15-H ) :   0.9745
B( 16-S , 17-C ) :   1.1527 B( 16-S , 20-C ) :   1.1294 B( 17-C , 18-C ) :   1.6268
B( 17-C , 33-H ) :   0.9726 B( 18-C , 19-C ) :   1.2046 B( 18-C , 21-H ) :   0.9873
B( 19-C , 20-C ) :   1.6266 B( 19-C , 22-C ) :   1.0356 B( 22-C , 23-H ) :   0.9299
B( 22-C , 24-H ) :   0.9350 B( 22-C , 25-C ) :   1.0819 B( 25-C , 26-H ) :   0.9509
B( 25-C , 27-H ) :   0.9511 B( 25-C , 28-C ) :   1.0762 B( 28-C , 29-H ) :   0.9755
B( 28-C , 30-H ) :   0.9663 B( 28-C , 31-H ) :   0.9681

Dispersion correction           -0.014640315
FINAL SINGLE POINT ENERGY     -1339.868988734720

DIPOLE MOMENT
-------------
                                X             Y             Z
Electronic contribution:    -20.64194      19.44413     -13.83819
Nuclear contribution   :     21.38681     -19.73498      14.20391
                        -----------------------------------------
Total Dipole Moment    :      0.74487      -0.29085       0.36571
                        -----------------------------------------
Magnitude (a.u.)       :      0.87930
Magnitude (Debye)      :      2.23500

Rotational constants in cm-1:     0.018595     0.009563     0.006718
Rotational constants in MHz :   557.467171   286.683337   201.386657

                             ****ORCA TERMINATED NORMALLY****
TOTAL RUN TIME: 0 days 0 hours 0 minutes 21 seconds 88 msec
