                         Program Version 4.2.1 -  RELEASE  -
|  1> ! wB97X-D3 SP def2-SVP
|  2> %pal
|  3> nprocs 24
|  4> end
|  5>
|  6> * xyz 0 1
|  7> S 	 -134.679 	 13.6106 	 -15.3924
|  8> C 	 -135.41 	 12.2588 	 -14.4978
|  9> C 	 -136.022 	 11.3772 	 -15.3525
| 10> C 	 -136.003 	 11.866 	 -16.731
| 11> C 	 -135.344 	 13.0414 	 -16.9196
| 12> H 	 -136.45 	 11.3505 	 -17.5531
| 13> C 	 -136.6 	 10.0225 	 -14.915
| 14> H 	 -135.788 	 9.3155 	 -14.6376
| 15> H 	 -136.999 	 9.58054 	 -15.8388
| 16> C 	 -137.686 	 10.0782 	 -13.7669
| 17> H 	 -137.655 	 9.1832 	 -13.1603
| 18> H 	 -137.372 	 10.9117 	 -13.1193
| 19> C 	 -139.055 	 10.3854 	 -14.3518
| 20> H 	 -139.706 	 11.0454 	 -13.7325
| 21> H 	 -138.841 	 10.8295 	 -15.3176
| 22> H 	 -139.515 	 9.44714 	 -14.6131
| 23> S 	 -135.743 	 15.5943 	 -18.008
| 24> C 	 -135.65 	 15.6898 	 -19.7207
| 25> C 	 -135.08 	 14.592 	 -20.3582
| 26> C 	 -134.788 	 13.5578 	 -19.3831
| 27> C 	 -135.238 	 13.8876 	 -18.11
| 28> H 	 -134.988 	 14.487 	 -21.3935
| 29> C 	 -134.333 	 12.2025 	 -19.9179
| 30> H 	 -133.618 	 11.6879 	 -19.2651
| 31> H 	 -133.721 	 12.5122 	 -20.7146
| 32> C 	 -135.465 	 11.3408 	 -20.4016
| 33> H 	 -135.849 	 11.7707 	 -21.2668
| 34> H 	 -136.271 	 11.2742 	 -19.663
| 35> C 	 -134.983 	 9.9901 	 -20.9192
| 36> H 	 -134.733 	 9.42181 	 -19.9986
| 37> H 	 -134.016 	 10.2375 	 -21.4189
| 38> H 	 -135.674 	 9.48668 	 -21.5474
| 39> H 	 -135.133 	 11.9962 	 -13.5447
| 40> H 	 -135.782 	 16.5687 	 -20.3443
| 41> *
| 42>
| 43>                          ****END OF INPUT****

CARTESIAN COORDINATES (ANGSTROEM)
---------------------------------
  S    -134.679000   13.610600  -15.392400
  C    -135.410000   12.258800  -14.497800
  C    -136.022000   11.377200  -15.352500
  C    -136.003000   11.866000  -16.731000
  C    -135.344000   13.041400  -16.919600
  H    -136.450000   11.350500  -17.553100
  C    -136.600000   10.022500  -14.915000
  H    -135.788000    9.315500  -14.637600
  H    -136.999000    9.580540  -15.838800
  C    -137.686000   10.078200  -13.766900
  H    -137.655000    9.183200  -13.160300
  H    -137.372000   10.911700  -13.119300
  C    -139.055000   10.385400  -14.351800
  H    -139.706000   11.045400  -13.732500
  H    -138.841000   10.829500  -15.317600
  H    -139.515000    9.447140  -14.613100
  S    -135.743000   15.594300  -18.008000
  C    -135.650000   15.689800  -19.720700
  C    -135.080000   14.592000  -20.358200
  C    -134.788000   13.557800  -19.383100
  C    -135.238000   13.887600  -18.110000
  H    -134.988000   14.487000  -21.393500
  C    -134.333000   12.202500  -19.917900
  H    -133.618000   11.687900  -19.265100
  H    -133.721000   12.512200  -20.714600
  C    -135.465000   11.340800  -20.401600
  H    -135.849000   11.770700  -21.266800
  H    -136.271000   11.274200  -19.663000
  C    -134.983000    9.990100  -20.919200
  H    -134.733000    9.421810  -19.998600
  H    -134.016000   10.237500  -21.418900
  H    -135.674000    9.486680  -21.547400
  H    -135.133000   11.996200  -13.544700
  H    -135.782000   16.568700  -20.344300

 Total Charge           Charge          ....    0
 Multiplicity           Mult            ....    1
 Number of Electrons    NEL             ....  134
 Basis Dimension        Dim             ....  322

ORBITAL ENERGIES
----------------

  NO   OCC          E(Eh)            E(eV)
   0   2.0000     -88.970621     -2421.0137
   1   2.0000     -88.962146     -2420.7831
   2   2.0000     -10.330190      -281.0988
   3   2.0000     -10.328647      -281.0568
   4   2.0000     -10.316956      -280.7387
   5   2.0000     -10.308686      -280.5136
   6   2.0000     -10.305439      -280.4253
   7   2.0000     -10.305175      -280.4181
   8   2.0000     -10.299363      -280.2599
   9   2.0000     -10.294840      -280.1368
  10   2.0000     -10.292309      -280.0680
  11   2.0000     -10.288370      -279.9608
  12   2.0000     -10.287954      -279.9495
  13   2.0000     -10.280378      -279.7433
  14   2.0000     -10.279925      -279.7310
  15   2.0000     -10.275190      -279.6021
  16   2.0000      -8.085179      -220.0089
  17   2.0000      -8.076629      -219.7762
  18   2.0000      -6.043704      -164.4575
  19   2.0000      -6.039856      -164.3529
  20   2.0000      -6.035783      -164.2420
  21   2.0000      -6.035312      -164.2292
  22   2.0000      -6.031136      -164.1155
  23   2.0000      -6.027249      -164.0098
  24   2.0000      -1.003848       -27.3161
  25   2.0000      -0.981468       -26.7071
  26   2.0000      -0.920477       -25.0474
  27   2.0000      -0.907784       -24.7021
  28   2.0000      -0.867709       -23.6116
  29   2.0000      -0.856359       -23.3027
  30   2.0000      -0.841782       -22.9060
  31   2.0000      -0.815818       -22.1995
  32   2.0000      -0.783214       -21.3123
  33   2.0000      -0.770105       -20.9556
  34   2.0000      -0.708599       -19.2820
  35   2.0000      -0.703398       -19.1404
  36   2.0000      -0.693622       -18.8744
  37   2.0000      -0.666603       -18.1392
  38   2.0000      -0.644781       -17.5454
  39   2.0000      -0.614491       -16.7211
  40   2.0000      -0.596983       -16.2447
  41   2.0000      -0.574931       -15.6447
  42   2.0000      -0.571356       -15.5474
  43   2.0000      -0.552267       -15.0279
  44   2.0000      -0.539447       -14.6791
  45   2.0000      -0.532176       -14.4812
  46   2.0000      -0.521684       -14.1957
  47   2.0000      -0.513400       -13.9703
  48   2.0000      -0.505140       -13.7456
  49   2.0000      -0.498362       -13.5611
  50   2.0000      -0.485302       -13.2057
  51   2.0000      -0.476518       -12.9667
  52   2.0000      -0.470930       -12.8147
  53   2.0000      -0.464528       -12.6404
  54   2.0000      -0.458318       -12.4715
  55   2.0000      -0.448968       -12.2170
  56   2.0000      -0.445398       -12.1199
  57   2.0000      -0.435469       -11.8497
  58   2.0000      -0.433590       -11.7986
  59   2.0000      -0.428002       -11.6465
  60   2.0000      -0.423096       -11.5130
  61   2.0000      -0.415328       -11.3016
  62   2.0000      -0.414644       -11.2830
  63   2.0000      -0.346607        -9.4317
  64   2.0000      -0.334020        -9.0892
  65   2.0000      -0.327900        -8.9226
  66   2.0000      -0.295670        -8.0456
  67   0.0000       0.031263         0.8507
  68   0.0000       0.062894         1.7114
  69   0.0000       0.104957         2.8560
  70   0.0000       0.122852         3.3430
  71   0.0000       0.128465         3.4957

MULLIKEN ATOMIC CHARGES
-----------------------
   0 S :    0.088268
   1 C :   -0.080825
   2 C :   -0.112634
   3 C :    0.049084
   4 C :   -0.136239
   5 H :   -0.015308
   6 C :    0.019978
   7 H :    0.046043
   8 H :    0.015771
   9 C :   -0.062691
  10 H :    0.028945
  11 H :    0.030194
  12 C :   -0.037794
  13 H :    0.050473
  14 H :    0.025826
  15 H :    0.027241
  16 S :    0.132170
  17 C :   -0.073702
  18 C :   -0.039500
  19 C :   -0.036058
  20 C :   -0.168469
  21 H :    0.004724
  22 C :    0.074161
  23 H :    0.027948
  24 H :    0.004985
  25 C :   -0.043564
  26 H :    0.001237
  27 H :    0.030678
  28 C :   -0.034920
  29 H :    0.033767
  30 H :    0.030160
  31 H :    0.039708
  32 H :    0.025314
  33 H :    0.055030
Sum of atomic charges:   -0.0000000

LOEWDIN ATOMIC CHARGES
----------------------
   0 S :    0.380835
   1 C :   -0.174368
   2 C :   -0.059954
   3 C :   -0.063646
   4 C :   -0.180880
   5 H :    0.023077
   6 C :   -0.036082
   7 H :    0.036331
   8 H :    0.024812
   9 C :   -0.038674
  10 H :    0.020127
  11 H :    0.025287
  12 C :   -0.064812
  13 H :    0.032619
  14 H :    0.025977
  15 H :    0.024334
  16 S :    0.412063
  17 C :   -0.191227
  18 C :   -0.065464
  19 C :   -0.042162
  20 C :   -0.197690
  21 H :    0.022006
  22 C :   -0.031184
  23 H :    0.030694
  24 H :    0.025294
  25 C :   -0.035633
  26 H :    0.015720
  27 H :    0.019950
  28 C :   -0.058323
  29 H :    0.027980
  30 H :    0.030744
  31 H :    0.020568
  32 H :    0.010951
  33 H :    0.030732

  Mayer bond orders larger than 0.100000
B(  0-S ,  1-C ) :   1.1223 B(  0-S ,  4-C ) :   1.1386 B(  1-C ,  2-C ) :   1.6483
B(  1-C , 32-H ) :   0.9693 B(  2-C ,  3-C ) :   1.2136 B(  2-C ,  6-C ) :   1.0131
B(  3-C ,  4-C ) :   1.6159 B(  3-C ,  5-H ) :   0.9928 B(  4-C , 20-C ) :   1.0319
B(  6-C ,  7-H ) :   0.9400 B(  6-C ,  8-H ) :   0.9502 B(  6-C ,  9-C ) :   1.0581
B(  9-C , 10-H ) :   0.9610 B(  9-C , 11-H ) :   0.9623 B(  9-C , 12-C ) :   1.0624
B( 12-C , 13-H ) :   0.9749 B( 12-C , 14-H ) :   0.9808 B( 12-C , 15-H ) :   0.9741
B( 16-S , 17-C ) :   1.1594 B( 16-S , 20-C ) :   1.1228 B( 17-C , 18-C ) :   1.6259
B( 17-C , 33-H ) :   0.9594 B( 18-C , 19-C ) :   1.2235 B( 18-C , 21-H ) :   0.9947
B( 19-C , 20-C ) :   1.6132 B( 19-C , 22-C ) :   1.0487 B( 22-C , 23-H ) :   0.9347
B( 22-C , 24-H ) :   0.9172 B( 22-C , 25-C ) :   1.0716 B( 25-C , 26-H ) :   0.9428
B( 25-C , 27-H ) :   0.9561 B( 25-C , 28-C ) :   1.0752 B( 28-C , 29-H ) :   0.9768
B( 28-C , 30-H ) :   0.9707 B( 28-C , 31-H ) :   0.9761

Dispersion correction           -0.014188764
FINAL SINGLE POINT ENERGY     -1339.869261451676

DIPOLE MOMENT
-------------
                                X             Y             Z
Electronic contribution:      8.83354      25.57993       4.64955
Nuclear contribution   :     -8.91523     -26.17755      -5.06738
                        -----------------------------------------
Total Dipole Moment    :     -0.08169      -0.59762      -0.41783
                        -----------------------------------------
Magnitude (a.u.)       :      0.73376
Magnitude (Debye)      :      1.86508

Rotational constants in cm-1:     0.017807     0.008702     0.006786
Rotational constants in MHz :   533.827420   260.882964   203.429790

                             ****ORCA TERMINATED NORMALLY****
TOTAL RUN TIME: 0 days 0 hours 0 minutes 21 seconds 636 msec
