                         Program Version 4.2.1 -  RELEASE  -
|  1> ! wB97X-D3 SP def2-SVP
|  2> %pal
|  3> nprocs 24
|  4> end
|  5>
|  6> * xyz 0 1
|  7> S 	 -34.9986 	 -9.04112 	 16.6566
|  8> C 	 -34.9595 	 -10.1622 	 18.0567
|  9> C 	 -36.1555 	 -10.2919 	 18.7127
| 10> C 	 -37.2 	 -9.77048 	 17.8858
| 11> C 	 -36.7218 	 -9.00285 	 16.8005
| 12> H 	 -38.2761 	 -9.88117 	 18.0835
| 13> C 	 -36.4041 	 -11.1239 	 19.9163
| 14> H 	 -37.1144 	 -10.6021 	 20.6247
| 15> H 	 -35.4495 	 -11.3081 	 20.3558
| 16> C 	 -37.0545 	 -12.4792 	 19.5642
| 17> H 	 -37.2482 	 -13.1164 	 20.3929
| 18> H 	 -38.0289 	 -12.4668 	 19.0243
| 19> C 	 -36.1043 	 -13.2796 	 18.6712
| 20> H 	 -36.5947 	 -14.0327 	 18.0763
| 21> H 	 -35.9413 	 -12.7039 	 17.7955
| 22> H 	 -35.1246 	 -13.6403 	 19.0542
| 23> S 	 -38.9205 	 -7.13997 	 16.7186
| 24> C 	 -39.5444 	 -6.53723 	 15.2457
| 25> C 	 -38.8749 	 -7.2228 	 14.2223
| 26> C 	 -37.882 	 -8.22336 	 14.5545
| 27> C 	 -37.6528 	 -8.28147 	 15.9284
| 28> H 	 -39.1183 	 -7.0953 	 13.1625
| 29> C 	 -37.1076 	 -9.07327 	 13.5664
| 30> H 	 -37.8432 	 -9.75345 	 13.0908
| 31> H 	 -36.4149 	 -9.73379 	 14.1183
| 32> C 	 -36.369 	 -8.30188 	 12.4924
| 33> H 	 -36.9257 	 -7.51467 	 11.9354
| 34> H 	 -36.2316 	 -8.95679 	 11.6462
| 35> C 	 -35.0145 	 -7.77324 	 12.9574
| 36> H 	 -34.2831 	 -8.56764 	 13.0779
| 37> H 	 -35.0177 	 -7.23568 	 13.9377
| 38> H 	 -34.5678 	 -7.11814 	 12.2243
| 39> H 	 -34.1377 	 -10.7339 	 18.3912
| 40> H 	 -40.1491 	 -5.66776 	 15.1921
| 41> *
| 42>
| 43>                          ****END OF INPUT****

CARTESIAN COORDINATES (ANGSTROEM)
---------------------------------
  S    -34.998600   -9.041120   16.656600
  C    -34.959500  -10.162200   18.056700
  C    -36.155500  -10.291900   18.712700
  C    -37.200000   -9.770480   17.885800
  C    -36.721800   -9.002850   16.800500
  H    -38.276100   -9.881170   18.083500
  C    -36.404100  -11.123900   19.916300
  H    -37.114400  -10.602100   20.624700
  H    -35.449500  -11.308100   20.355800
  C    -37.054500  -12.479200   19.564200
  H    -37.248200  -13.116400   20.392900
  H    -38.028900  -12.466800   19.024300
  C    -36.104300  -13.279600   18.671200
  H    -36.594700  -14.032700   18.076300
  H    -35.941300  -12.703900   17.795500
  H    -35.124600  -13.640300   19.054200
  S    -38.920500   -7.139970   16.718600
  C    -39.544400   -6.537230   15.245700
  C    -38.874900   -7.222800   14.222300
  C    -37.882000   -8.223360   14.554500
  C    -37.652800   -8.281470   15.928400
  H    -39.118300   -7.095300   13.162500
  C    -37.107600   -9.073270   13.566400
  H    -37.843200   -9.753450   13.090800
  H    -36.414900   -9.733790   14.118300
  C    -36.369000   -8.301880   12.492400
  H    -36.925700   -7.514670   11.935400
  H    -36.231600   -8.956790   11.646200
  C    -35.014500   -7.773240   12.957400
  H    -34.283100   -8.567640   13.077900
  H    -35.017700   -7.235680   13.937700
  H    -34.567800   -7.118140   12.224300
  H    -34.137700  -10.733900   18.391200
  H    -40.149100   -5.667760   15.192100

 Total Charge           Charge          ....    0
 Multiplicity           Mult            ....    1
 Number of Electrons    NEL             ....  134
 Basis Dimension        Dim             ....  322

ORBITAL ENERGIES
----------------

  NO   OCC          E(Eh)            E(eV)
   0   2.0000     -88.975919     -2421.1579
   1   2.0000     -88.957168     -2420.6476
   2   2.0000     -10.334796      -281.2241
   3   2.0000     -10.332883      -281.1720
   4   2.0000     -10.320570      -280.8370
   5   2.0000     -10.313471      -280.6438
   6   2.0000     -10.307291      -280.4756
   7   2.0000     -10.299353      -280.2596
   8   2.0000     -10.297744      -280.2159
   9   2.0000     -10.297311      -280.2041
  10   2.0000     -10.296804      -280.1903
  11   2.0000     -10.296202      -280.1739
  12   2.0000     -10.289205      -279.9835
  13   2.0000     -10.286493      -279.9097
  14   2.0000     -10.274736      -279.5898
  15   2.0000     -10.268633      -279.4237
  16   2.0000      -8.089404      -220.1239
  17   2.0000      -8.071295      -219.6311
  18   2.0000      -6.047978      -164.5739
  19   2.0000      -6.044231      -164.4719
  20   2.0000      -6.040028      -164.3575
  21   2.0000      -6.029838      -164.0802
  22   2.0000      -6.025752      -163.9691
  23   2.0000      -6.022162      -163.8713
  24   2.0000      -1.000434       -27.2232
  25   2.0000      -0.977953       -26.6114
  26   2.0000      -0.919676       -25.0257
  27   2.0000      -0.910703       -24.7815
  28   2.0000      -0.866749       -23.5854
  29   2.0000      -0.848974       -23.1017
  30   2.0000      -0.842975       -22.9385
  31   2.0000      -0.801466       -21.8090
  32   2.0000      -0.786239       -21.3947
  33   2.0000      -0.777955       -21.1692
  34   2.0000      -0.711934       -19.3727
  35   2.0000      -0.705345       -19.1934
  36   2.0000      -0.697059       -18.9679
  37   2.0000      -0.657948       -17.9037
  38   2.0000      -0.632478       -17.2106
  39   2.0000      -0.614044       -16.7090
  40   2.0000      -0.600254       -16.3337
  41   2.0000      -0.566567       -15.4171
  42   2.0000      -0.557616       -15.1735
  43   2.0000      -0.553762       -15.0686
  44   2.0000      -0.543421       -14.7872
  45   2.0000      -0.531079       -14.4514
  46   2.0000      -0.527413       -14.3516
  47   2.0000      -0.520885       -14.1740
  48   2.0000      -0.497190       -13.5292
  49   2.0000      -0.490185       -13.3386
  50   2.0000      -0.485133       -13.2011
  51   2.0000      -0.476749       -12.9730
  52   2.0000      -0.469950       -12.7880
  53   2.0000      -0.461909       -12.5692
  54   2.0000      -0.460597       -12.5335
  55   2.0000      -0.452771       -12.3205
  56   2.0000      -0.439332       -11.9548
  57   2.0000      -0.436170       -11.8688
  58   2.0000      -0.429868       -11.6973
  59   2.0000      -0.427220       -11.6252
  60   2.0000      -0.421272       -11.4634
  61   2.0000      -0.417409       -11.3583
  62   2.0000      -0.398890       -10.8544
  63   2.0000      -0.341831        -9.3017
  64   2.0000      -0.335438        -9.1277
  65   2.0000      -0.322095        -8.7647
  66   2.0000      -0.290329        -7.9003
  67   0.0000       0.025442         0.6923
  68   0.0000       0.061362         1.6697
  69   0.0000       0.096744         2.6325
  70   0.0000       0.109421         2.9775
  71   0.0000       0.129605         3.5267

MULLIKEN ATOMIC CHARGES
-----------------------
   0 S :    0.129016
   1 C :   -0.103966
   2 C :   -0.090339
   3 C :   -0.008865
   4 C :   -0.144719
   5 H :    0.027904
   6 C :    0.096935
   7 H :    0.051404
   8 H :    0.015455
   9 C :   -0.063915
  10 H :    0.028194
  11 H :    0.036910
  12 C :   -0.068996
  13 H :    0.013055
  14 H :    0.019358
  15 H :    0.041142
  16 S :    0.068157
  17 C :   -0.069414
  18 C :   -0.040714
  19 C :   -0.031135
  20 C :   -0.172474
  21 H :    0.016480
  22 C :    0.070526
  23 H :    0.038670
  24 H :    0.028597
  25 C :   -0.063316
  26 H :    0.028104
  27 H :    0.015490
  28 C :   -0.051714
  29 H :    0.024274
  30 H :    0.041258
  31 H :    0.027665
  32 H :    0.026090
  33 H :    0.064881
Sum of atomic charges:   -0.0000000

LOEWDIN ATOMIC CHARGES
----------------------
   0 S :    0.408895
   1 C :   -0.177646
   2 C :   -0.059481
   3 C :   -0.058948
   4 C :   -0.205300
   5 H :    0.032609
   6 C :   -0.026911
   7 H :    0.043458
   8 H :    0.028123
   9 C :   -0.038167
  10 H :    0.020068
  11 H :    0.032354
  12 C :   -0.082235
  13 H :    0.027620
  14 H :    0.023973
  15 H :    0.026567
  16 S :    0.365324
  17 C :   -0.186983
  18 C :   -0.078576
  19 C :   -0.054579
  20 C :   -0.161488
  21 H :    0.025479
  22 C :   -0.030774
  23 H :    0.039356
  24 H :    0.030991
  25 C :   -0.049315
  26 H :    0.027732
  27 H :    0.024276
  28 C :   -0.069232
  29 H :    0.022728
  30 H :    0.027290
  31 H :    0.024706
  32 H :    0.017641
  33 H :    0.030442

  Mayer bond orders larger than 0.100000
B(  0-S ,  1-C ) :   1.1217 B(  0-S ,  4-C ) :   1.1363 B(  1-C ,  2-C ) :   1.6228
B(  1-C , 32-H ) :   0.9633 B(  2-C ,  3-C ) :   1.2146 B(  2-C ,  6-C ) :   1.0487
B(  3-C ,  4-C ) :   1.5645 B(  3-C ,  5-H ) :   0.9870 B(  4-C , 20-C ) :   1.0692
B(  6-C ,  7-H ) :   0.9336 B(  6-C ,  8-H ) :   0.9357 B(  6-C ,  9-C ) :   1.0592
B(  9-C , 10-H ) :   0.9600 B(  9-C , 11-H ) :   0.9549 B(  9-C , 12-C ) :   1.0745
B( 12-C , 13-H ) :   0.9622 B( 12-C , 14-H ) :   0.9627 B( 12-C , 15-H ) :   0.9770
B( 16-S , 17-C ) :   1.1670 B( 16-S , 20-C ) :   1.1103 B( 17-C , 18-C ) :   1.5708
B( 17-C , 33-H ) :   0.9757 B( 18-C , 19-C ) :   1.2494 B( 18-C , 21-H ) :   0.9808
B( 19-C , 20-C ) :   1.5735 B( 19-C , 22-C ) :   1.0463 B( 22-C , 23-H ) :   0.9264
B( 22-C , 24-H ) :   0.9364 B( 22-C , 25-C ) :   1.0688 B( 25-C , 26-H ) :   0.9570
B( 25-C , 27-H ) :   0.9471 B( 25-C , 28-C ) :   1.0733 B( 28-C , 29-H ) :   0.9732
B( 28-C , 30-H ) :   0.9773 B( 28-C , 31-H ) :   0.9725

Dispersion correction           -0.015289533
FINAL SINGLE POINT ENERGY     -1339.861956640402

DIPOLE MOMENT
-------------
                                X             Y             Z
Electronic contribution:     -5.62343      14.87901       4.56468
Nuclear contribution   :      5.60955     -15.29294      -4.79463
                        -----------------------------------------
Total Dipole Moment    :     -0.01387      -0.41393      -0.22995
                        -----------------------------------------
Magnitude (a.u.)       :      0.47372
Magnitude (Debye)      :      1.20410

Rotational constants in cm-1:     0.020859     0.008553     0.007046
Rotational constants in MHz :   625.337134   256.426240   211.231400

                             ****ORCA TERMINATED NORMALLY****
TOTAL RUN TIME: 0 days 0 hours 0 minutes 21 seconds 933 msec
