                         Program Version 4.2.1 -  RELEASE  -
|  1> ! wB97X-D3 SP def2-SVP
|  2> %pal
|  3> nprocs 24
|  4> end
|  5>
|  6> * xyz 0 1
|  7> S 	 -64.7754 	 -47.5544 	 -82.8346
|  8> C 	 -64.7686 	 -49.1037 	 -83.6482
|  9> C 	 -65.6834 	 -50.0055 	 -83.1215
| 10> C 	 -66.6872 	 -49.2848 	 -82.337
| 11> C 	 -66.3332 	 -47.9663 	 -82.1468
| 12> H 	 -67.5745 	 -49.7422 	 -81.8891
| 13> C 	 -65.862 	 -51.438 	 -83.6062
| 14> H 	 -66.0567 	 -51.3224 	 -84.6371
| 15> H 	 -66.7906 	 -51.8534 	 -83.2368
| 16> C 	 -64.6718 	 -52.3606 	 -83.2617
| 17> H 	 -63.8454 	 -51.9393 	 -83.7826
| 18> H 	 -64.5826 	 -52.2457 	 -82.2262
| 19> C 	 -64.8495 	 -53.9231 	 -83.6229
| 20> H 	 -64.86 	 -54.0492 	 -84.7296
| 21> H 	 -63.9249 	 -54.5152 	 -83.1408
| 22> H 	 -65.8154 	 -54.3244 	 -83.2204
| 23> S 	 -66.4352 	 -47.0539 	 -79.6342
| 24> C 	 -67.85 	 -46.0876 	 -79.1441
| 25> C 	 -68.6553 	 -45.7164 	 -80.1841
| 26> C 	 -68.168 	 -46.2574 	 -81.3839
| 27> C 	 -66.9956 	 -47.0232 	 -81.2882
| 28> H 	 -69.5901 	 -45.2249 	 -80.1265
| 29> C 	 -68.779 	 -45.9474 	 -82.7325
| 30> H 	 -67.9975 	 -45.9119 	 -83.4969
| 31> H 	 -69.2162 	 -44.8859 	 -82.8414
| 32> C 	 -69.8853 	 -46.9471 	 -83.0905
| 33> H 	 -70.3171 	 -47.1282 	 -82.097
| 34> H 	 -69.5005 	 -47.9868 	 -83.3593
| 35> C 	 -70.8221 	 -46.3974 	 -84.1549
| 36> H 	 -71.4432 	 -45.6905 	 -83.6951
| 37> H 	 -71.5653 	 -47.126 	 -84.4932
| 38> H 	 -70.2908 	 -45.9098 	 -84.997
| 39> H 	 -64.0489 	 -49.4063 	 -84.419
| 40> H 	 -68.02 	 -45.7309 	 -78.1223
| 41> *
| 42>
| 43>                          ****END OF INPUT****

CARTESIAN COORDINATES (ANGSTROEM)
---------------------------------
  S    -64.775400  -47.554400  -82.834600
  C    -64.768600  -49.103700  -83.648200
  C    -65.683400  -50.005500  -83.121500
  C    -66.687200  -49.284800  -82.337000
  C    -66.333200  -47.966300  -82.146800
  H    -67.574500  -49.742200  -81.889100
  C    -65.862000  -51.438000  -83.606200
  H    -66.056700  -51.322400  -84.637100
  H    -66.790600  -51.853400  -83.236800
  C    -64.671800  -52.360600  -83.261700
  H    -63.845400  -51.939300  -83.782600
  H    -64.582600  -52.245700  -82.226200
  C    -64.849500  -53.923100  -83.622900
  H    -64.860000  -54.049200  -84.729600
  H    -63.924900  -54.515200  -83.140800
  H    -65.815400  -54.324400  -83.220400
  S    -66.435200  -47.053900  -79.634200
  C    -67.850000  -46.087600  -79.144100
  C    -68.655300  -45.716400  -80.184100
  C    -68.168000  -46.257400  -81.383900
  C    -66.995600  -47.023200  -81.288200
  H    -69.590100  -45.224900  -80.126500
  C    -68.779000  -45.947400  -82.732500
  H    -67.997500  -45.911900  -83.496900
  H    -69.216200  -44.885900  -82.841400
  C    -69.885300  -46.947100  -83.090500
  H    -70.317100  -47.128200  -82.097000
  H    -69.500500  -47.986800  -83.359300
  C    -70.822100  -46.397400  -84.154900
  H    -71.443200  -45.690500  -83.695100
  H    -71.565300  -47.126000  -84.493200
  H    -70.290800  -45.909800  -84.997000
  H    -64.048900  -49.406300  -84.419000
  H    -68.020000  -45.730900  -78.122300

 Total Charge           Charge          ....    0
 Multiplicity           Mult            ....    1
 Number of Electrons    NEL             ....  134
 Basis Dimension        Dim             ....  322

ORBITAL ENERGIES
----------------

  NO   OCC          E(Eh)            E(eV)
   0   2.0000     -88.967146     -2420.9191
   1   2.0000     -88.964284     -2420.8413
   2   2.0000     -10.326197      -280.9901
   3   2.0000     -10.320416      -280.8328
   4   2.0000     -10.319452      -280.8066
   5   2.0000     -10.315300      -280.6936
   6   2.0000     -10.304319      -280.3948
   7   2.0000     -10.301693      -280.3233
   8   2.0000     -10.299735      -280.2700
   9   2.0000     -10.299604      -280.2665
  10   2.0000     -10.290373      -280.0153
  11   2.0000     -10.289844      -280.0009
  12   2.0000     -10.288034      -279.9516
  13   2.0000     -10.286335      -279.9054
  14   2.0000     -10.285433      -279.8809
  15   2.0000     -10.273973      -279.5690
  16   2.0000      -8.081943      -219.9208
  17   2.0000      -8.078800      -219.8353
  18   2.0000      -6.040398      -164.3676
  19   2.0000      -6.037282      -164.2828
  20   2.0000      -6.036633      -164.2651
  21   2.0000      -6.033333      -164.1753
  22   2.0000      -6.032563      -164.1544
  23   2.0000      -6.029602      -164.0738
  24   2.0000      -1.006666       -27.3928
  25   2.0000      -0.982024       -26.7222
  26   2.0000      -0.909011       -24.7355
  27   2.0000      -0.905489       -24.6396
  28   2.0000      -0.870023       -23.6745
  29   2.0000      -0.846494       -23.0343
  30   2.0000      -0.843802       -22.9610
  31   2.0000      -0.812231       -22.1019
  32   2.0000      -0.778528       -21.1848
  33   2.0000      -0.763579       -20.7780
  34   2.0000      -0.706203       -19.2168
  35   2.0000      -0.700782       -19.0692
  36   2.0000      -0.689096       -18.7513
  37   2.0000      -0.666170       -18.1274
  38   2.0000      -0.640741       -17.4355
  39   2.0000      -0.613902       -16.7051
  40   2.0000      -0.598377       -16.2827
  41   2.0000      -0.571820       -15.5600
  42   2.0000      -0.561681       -15.2841
  43   2.0000      -0.550714       -14.9857
  44   2.0000      -0.523139       -14.2353
  45   2.0000      -0.518242       -14.1021
  46   2.0000      -0.515236       -14.0203
  47   2.0000      -0.507312       -13.8047
  48   2.0000      -0.504102       -13.7173
  49   2.0000      -0.498664       -13.5693
  50   2.0000      -0.492333       -13.3971
  51   2.0000      -0.473077       -12.8731
  52   2.0000      -0.468481       -12.7480
  53   2.0000      -0.461388       -12.5550
  54   2.0000      -0.454781       -12.3752
  55   2.0000      -0.452385       -12.3100
  56   2.0000      -0.448948       -12.2165
  57   2.0000      -0.434871       -11.8335
  58   2.0000      -0.432469       -11.7681
  59   2.0000      -0.427733       -11.6392
  60   2.0000      -0.421250       -11.4628
  61   2.0000      -0.420032       -11.4296
  62   2.0000      -0.402756       -10.9595
  63   2.0000      -0.342677        -9.3247
  64   2.0000      -0.328770        -8.9463
  65   2.0000      -0.317378        -8.6363
  66   2.0000      -0.302655        -8.2357
  67   0.0000       0.044415         1.2086
  68   0.0000       0.047252         1.2858
  69   0.0000       0.109116         2.9692
  70   0.0000       0.115514         3.1433
  71   0.0000       0.123277         3.3545

MULLIKEN ATOMIC CHARGES
-----------------------
   0 S :    0.121016
   1 C :   -0.118993
   2 C :   -0.112509
   3 C :    0.049397
   4 C :   -0.168266
   5 H :    0.025432
   6 C :    0.073383
   7 H :    0.027796
   8 H :    0.004132
   9 C :   -0.051911
  10 H :    0.025086
  11 H :    0.028279
  12 C :   -0.105523
  13 H :    0.045197
  14 H :    0.062440
  15 H :    0.044590
  16 S :    0.110514
  17 C :   -0.092179
  18 C :    0.001359
  19 C :   -0.035950
  20 C :   -0.173331
  21 H :    0.009522
  22 C :    0.019410
  23 H :    0.028439
  24 H :    0.032411
  25 C :   -0.087664
  26 H :    0.020316
  27 H :    0.035372
  28 C :   -0.020182
  29 H :    0.013007
  30 H :    0.030685
  31 H :    0.044603
  32 H :    0.054720
  33 H :    0.059403
Sum of atomic charges:    0.0000000

LOEWDIN ATOMIC CHARGES
----------------------
   0 S :    0.404739
   1 C :   -0.196476
   2 C :   -0.058512
   3 C :   -0.051386
   4 C :   -0.204132
   5 H :    0.036333
   6 C :   -0.031525
   7 H :    0.027122
   8 H :    0.023910
   9 C :   -0.030271
  10 H :    0.018852
  11 H :    0.019608
  12 C :   -0.079522
  13 H :    0.026569
  14 H :    0.043666
  15 H :    0.026835
  16 S :    0.401211
  17 C :   -0.170000
  18 C :   -0.068205
  19 C :   -0.053972
  20 C :   -0.210286
  21 H :    0.031110
  22 C :   -0.038282
  23 H :    0.026923
  24 H :    0.036147
  25 C :   -0.049025
  26 H :    0.021543
  27 H :    0.027360
  28 C :   -0.067646
  29 H :    0.018017
  30 H :    0.028845
  31 H :    0.032074
  32 H :    0.028616
  33 H :    0.029761

  Mayer bond orders larger than 0.100000
B(  0-S ,  1-C ) :   1.1358 B(  0-S ,  4-C ) :   1.1402 B(  1-C ,  2-C ) :   1.6295
B(  1-C , 32-H ) :   0.9647 B(  2-C ,  3-C ) :   1.2095 B(  2-C ,  6-C ) :   1.0187
B(  3-C ,  4-C ) :   1.6108 B(  3-C ,  5-H ) :   0.9922 B(  4-C , 20-C ) :   1.0033
B(  6-C ,  7-H ) :   0.9426 B(  6-C ,  8-H ) :   0.9422 B(  6-C ,  9-C ) :   1.0440
B(  9-C , 10-H ) :   0.9620 B(  9-C , 11-H ) :   0.9625 B(  9-C , 12-C ) :   1.0674
B( 12-C , 13-H ) :   0.9769 B( 12-C , 14-H ) :   0.9756 B( 12-C , 15-H ) :   0.9754
B( 16-S , 17-C ) :   1.1615 B( 16-S , 20-C ) :   1.1445 B( 17-C , 18-C ) :   1.5921
B( 17-C , 20-C ) :   0.1037 B( 17-C , 33-H ) :   0.9621 B( 18-C , 19-C ) :   1.2600
B( 18-C , 21-H ) :   0.9959 B( 19-C , 20-C ) :   1.6084 B( 19-C , 22-C ) :   1.0376
B( 22-C , 23-H ) :   0.9327 B( 22-C , 24-H ) :   0.9532 B( 22-C , 25-C ) :   1.0364
B( 25-C , 26-H ) :   0.9636 B( 25-C , 27-H ) :   0.9500 B( 25-C , 28-C ) :   1.0745
B( 28-C , 29-H ) :   0.9719 B( 28-C , 30-H ) :   0.9707 B( 28-C , 31-H ) :   0.9730

Dispersion correction           -0.014058374
FINAL SINGLE POINT ENERGY     -1339.861828860396

DIPOLE MOMENT
-------------
                                X             Y             Z
Electronic contribution:     12.24062      15.79799      14.61978
Nuclear contribution   :    -12.68411     -16.09857     -14.83624
                        -----------------------------------------
Total Dipole Moment    :     -0.44349      -0.30058      -0.21646
                        -----------------------------------------
Magnitude (a.u.)       :      0.57783
Magnitude (Debye)      :      1.46873

Rotational constants in cm-1:     0.019257     0.007523     0.006436
Rotational constants in MHz :   577.297737   225.527203   192.937732

                             ****ORCA TERMINATED NORMALLY****
TOTAL RUN TIME: 0 days 0 hours 0 minutes 21 seconds 235 msec
