                         Program Version 4.2.1 -  RELEASE  -
|  1> ! wB97X-D3 SP def2-SVP
|  2> %pal
|  3> nprocs 24
|  4> end
|  5>
|  6> * xyz 0 1
|  7> S 	 -55.284 	 -52.5823 	 -79.9742
|  8> C 	 -53.8318 	 -51.684 	 -79.5177
|  9> C 	 -52.7749 	 -51.9178 	 -80.4516
| 10> C 	 -53.1827 	 -52.7662 	 -81.5524
| 11> C 	 -54.4897 	 -53.1552 	 -81.417
| 12> H 	 -52.6112 	 -53.1198 	 -82.4118
| 13> C 	 -51.3818 	 -51.356 	 -80.295
| 14> H 	 -50.7271 	 -52.201 	 -80.3812
| 15> H 	 -51.1641 	 -51.0909 	 -79.2407
| 16> C 	 -50.8975 	 -50.2072 	 -81.1906
| 17> H 	 -49.8874 	 -49.7895 	 -80.8872
| 18> H 	 -50.8961 	 -50.4967 	 -82.2896
| 19> C 	 -51.8934 	 -48.9933 	 -81.0895
| 20> H 	 -51.62 	 -48.0309 	 -81.4908
| 21> H 	 -52.8528 	 -49.3445 	 -81.3546
| 22> H 	 -51.9984 	 -48.6577 	 -80.0479
| 23> S 	 -55.3927 	 -55.8234 	 -81.8623
| 24> C 	 -56.3993 	 -56.0558 	 -83.2209
| 25> C 	 -56.6159 	 -54.9348 	 -84.0198
| 26> C 	 -55.8142 	 -53.8044 	 -83.4709
| 27> C 	 -55.2311 	 -54.1183 	 -82.2624
| 28> H 	 -57.138 	 -54.8534 	 -84.9586
| 29> C 	 -55.6827 	 -52.5127 	 -84.147
| 30> H 	 -55.8918 	 -52.585 	 -85.1774
| 31> H 	 -54.6032 	 -52.2339 	 -84.1958
| 32> C 	 -56.4828 	 -51.3745 	 -83.3467
| 33> H 	 -56.3203 	 -50.3753 	 -83.77
| 34> H 	 -56.1154 	 -51.3711 	 -82.3638
| 35> C 	 -58.0371 	 -51.678 	 -83.1693
| 36> H 	 -58.1074 	 -52.617 	 -82.6676
| 37> H 	 -58.5775 	 -51.8091 	 -84.0985
| 38> H 	 -58.5446 	 -50.9649 	 -82.548
| 39> H 	 -53.6871 	 -51.3793 	 -78.4685
| 40> H 	 -56.9669 	 -57.0065 	 -83.3206
| 41> *
| 42>
| 43>                          ****END OF INPUT****

CARTESIAN COORDINATES (ANGSTROEM)
---------------------------------
  S    -55.284000  -52.582300  -79.974200
  C    -53.831800  -51.684000  -79.517700
  C    -52.774900  -51.917800  -80.451600
  C    -53.182700  -52.766200  -81.552400
  C    -54.489700  -53.155200  -81.417000
  H    -52.611200  -53.119800  -82.411800
  C    -51.381800  -51.356000  -80.295000
  H    -50.727100  -52.201000  -80.381200
  H    -51.164100  -51.090900  -79.240700
  C    -50.897500  -50.207200  -81.190600
  H    -49.887400  -49.789500  -80.887200
  H    -50.896100  -50.496700  -82.289600
  C    -51.893400  -48.993300  -81.089500
  H    -51.620000  -48.030900  -81.490800
  H    -52.852800  -49.344500  -81.354600
  H    -51.998400  -48.657700  -80.047900
  S    -55.392700  -55.823400  -81.862300
  C    -56.399300  -56.055800  -83.220900
  C    -56.615900  -54.934800  -84.019800
  C    -55.814200  -53.804400  -83.470900
  C    -55.231100  -54.118300  -82.262400
  H    -57.138000  -54.853400  -84.958600
  C    -55.682700  -52.512700  -84.147000
  H    -55.891800  -52.585000  -85.177400
  H    -54.603200  -52.233900  -84.195800
  C    -56.482800  -51.374500  -83.346700
  H    -56.320300  -50.375300  -83.770000
  H    -56.115400  -51.371100  -82.363800
  C    -58.037100  -51.678000  -83.169300
  H    -58.107400  -52.617000  -82.667600
  H    -58.577500  -51.809100  -84.098500
  H    -58.544600  -50.964900  -82.548000
  H    -53.687100  -51.379300  -78.468500
  H    -56.966900  -57.006500  -83.320600

 Total Charge           Charge          ....    0
 Multiplicity           Mult            ....    1
 Number of Electrons    NEL             ....  134
 Basis Dimension        Dim             ....  322

ORBITAL ENERGIES
----------------

  NO   OCC          E(Eh)            E(eV)
   0   2.0000     -88.969088     -2420.9720
   1   2.0000     -88.968053     -2420.9438
   2   2.0000     -10.329814      -281.0885
   3   2.0000     -10.321944      -280.8744
   4   2.0000     -10.321151      -280.8528
   5   2.0000     -10.320316      -280.8301
   6   2.0000     -10.314266      -280.6654
   7   2.0000     -10.301620      -280.3213
   8   2.0000     -10.300804      -280.2991
   9   2.0000     -10.300709      -280.2965
  10   2.0000     -10.299819      -280.2723
  11   2.0000     -10.294049      -280.1153
  12   2.0000     -10.288511      -279.9646
  13   2.0000     -10.284357      -279.8516
  14   2.0000     -10.269000      -279.4337
  15   2.0000     -10.267460      -279.3918
  16   2.0000      -8.083404      -219.9606
  17   2.0000      -8.083197      -219.9550
  18   2.0000      -6.041850      -164.4071
  19   2.0000      -6.041544      -164.3988
  20   2.0000      -6.037894      -164.2994
  21   2.0000      -6.037766      -164.2960
  22   2.0000      -6.034171      -164.1982
  23   2.0000      -6.034132      -164.1971
  24   2.0000      -1.005138       -27.3512
  25   2.0000      -0.981431       -26.7061
  26   2.0000      -0.908804       -24.7298
  27   2.0000      -0.902861       -24.5681
  28   2.0000      -0.859962       -23.4008
  29   2.0000      -0.846948       -23.0466
  30   2.0000      -0.839854       -22.8536
  31   2.0000      -0.811399       -22.0793
  32   2.0000      -0.785171       -21.3656
  33   2.0000      -0.769669       -20.9438
  34   2.0000      -0.708333       -19.2747
  35   2.0000      -0.696500       -18.9527
  36   2.0000      -0.682849       -18.5813
  37   2.0000      -0.662456       -18.0264
  38   2.0000      -0.644565       -17.5395
  39   2.0000      -0.615876       -16.7589
  40   2.0000      -0.597543       -16.2600
  41   2.0000      -0.563943       -15.3457
  42   2.0000      -0.550979       -14.9929
  43   2.0000      -0.542851       -14.7717
  44   2.0000      -0.539034       -14.6679
  45   2.0000      -0.536273       -14.5927
  46   2.0000      -0.511934       -13.9304
  47   2.0000      -0.506070       -13.7709
  48   2.0000      -0.495895       -13.4940
  49   2.0000      -0.493157       -13.4195
  50   2.0000      -0.488895       -13.3035
  51   2.0000      -0.473291       -12.8789
  52   2.0000      -0.466574       -12.6961
  53   2.0000      -0.464232       -12.6324
  54   2.0000      -0.455986       -12.4080
  55   2.0000      -0.447856       -12.1868
  56   2.0000      -0.445210       -12.1148
  57   2.0000      -0.441181       -12.0051
  58   2.0000      -0.434813       -11.8319
  59   2.0000      -0.424163       -11.5421
  60   2.0000      -0.419110       -11.4046
  61   2.0000      -0.412270       -11.2184
  62   2.0000      -0.410308       -11.1650
  63   2.0000      -0.339439        -9.2366
  64   2.0000      -0.327805        -8.9200
  65   2.0000      -0.318974        -8.6797
  66   2.0000      -0.310312        -8.4440
  67   0.0000       0.036883         1.0036
  68   0.0000       0.056866         1.5474
  69   0.0000       0.106367         2.8944
  70   0.0000       0.116231         3.1628
  71   0.0000       0.121441         3.3046

MULLIKEN ATOMIC CHARGES
-----------------------
   0 S :    0.110751
   1 C :   -0.120042
   2 C :   -0.121905
   3 C :    0.068237
   4 C :   -0.210798
   5 H :    0.026511
   6 C :    0.075065
   7 H :    0.024146
   8 H :    0.018161
   9 C :   -0.090920
  10 H :    0.045015
  11 H :    0.044485
  12 C :   -0.047494
  13 H :    0.028880
  14 H :    0.036105
  15 H :    0.007286
  16 S :    0.133106
  17 C :   -0.107337
  18 C :   -0.004353
  19 C :   -0.085914
  20 C :   -0.169832
  21 H :    0.021083
  22 C :    0.104331
  23 H :    0.004954
  24 H :    0.027211
  25 C :   -0.057285
  26 H :    0.031485
  27 H :    0.025109
  28 C :   -0.048801
  29 H :    0.027642
  30 H :    0.024976
  31 H :    0.033066
  32 H :    0.071576
  33 H :    0.075499
Sum of atomic charges:    0.0000000

LOEWDIN ATOMIC CHARGES
----------------------
   0 S :    0.411500
   1 C :   -0.205261
   2 C :   -0.052982
   3 C :   -0.060360
   4 C :   -0.187076
   5 H :    0.039875
   6 C :   -0.041670
   7 H :    0.030865
   8 H :    0.033955
   9 C :   -0.041637
  10 H :    0.032670
  11 H :    0.028312
  12 C :   -0.071823
  13 H :    0.023205
  14 H :    0.018843
  15 H :    0.023158
  16 S :    0.420451
  17 C :   -0.198890
  18 C :   -0.070505
  19 C :   -0.046101
  20 C :   -0.220681
  21 H :    0.031261
  22 C :   -0.035207
  23 H :    0.021037
  24 H :    0.038746
  25 C :   -0.022384
  26 H :    0.021613
  27 H :    0.008965
  28 C :   -0.064018
  29 H :    0.021546
  30 H :    0.019555
  31 H :    0.024239
  32 H :    0.033686
  33 H :    0.035114

  Mayer bond orders larger than 0.100000
B(  0-S ,  1-C ) :   1.1353 B(  0-S ,  4-C ) :   1.1663 B(  1-C ,  2-C ) :   1.6017
B(  1-C , 32-H ) :   0.9613 B(  2-C ,  3-C ) :   1.2112 B(  2-C ,  6-C ) :   1.0303
B(  3-C ,  4-C ) :   1.6118 B(  3-C ,  5-H ) :   0.9884 B(  4-C , 20-C ) :   0.9958
B(  6-C ,  7-H ) :   0.9351 B(  6-C ,  8-H ) :   0.9403 B(  6-C ,  9-C ) :   1.0634
B(  9-C , 10-H ) :   0.9571 B(  9-C , 11-H ) :   0.9592 B(  9-C , 12-C ) :   1.0621
B( 12-C , 13-H ) :   0.9765 B( 12-C , 14-H ) :   0.9760 B( 12-C , 15-H ) :   0.9713
B( 16-S , 17-C ) :   1.1748 B( 16-S , 20-C ) :   1.1298 B( 17-C , 18-C ) :   1.6031
B( 17-C , 33-H ) :   0.9578 B( 18-C , 19-C ) :   1.2222 B( 18-C , 21-H ) :   0.9903
B( 19-C , 20-C ) :   1.6184 B( 19-C , 22-C ) :   1.0620 B( 22-C , 23-H ) :   0.9342
B( 22-C , 24-H ) :   0.9267 B( 22-C , 25-C ) :   1.0462 B( 25-C , 26-H ) :   0.9606
B( 25-C , 27-H ) :   0.9586 B( 25-C , 28-C ) :   1.0657 B( 28-C , 29-H ) :   0.9722
B( 28-C , 30-H ) :   0.9799 B( 28-C , 31-H ) :   0.9767

Dispersion correction           -0.016229896
FINAL SINGLE POINT ENERGY     -1339.873413786976

DIPOLE MOMENT
-------------
                                X             Y             Z
Electronic contribution:     -6.00345     -21.80617       6.81761
Nuclear contribution   :      6.29534      21.94120      -6.99191
                        -----------------------------------------
Total Dipole Moment    :      0.29189       0.13503      -0.17430
                        -----------------------------------------
Magnitude (a.u.)       :      0.36580
Magnitude (Debye)      :      0.92979

Rotational constants in cm-1:     0.022004     0.008739     0.007740
Rotational constants in MHz :   659.678121   261.997444   232.033085

                             ****ORCA TERMINATED NORMALLY****
TOTAL RUN TIME: 0 days 0 hours 0 minutes 22 seconds 974 msec
