                         Program Version 4.2.1 -  RELEASE  -
|  1> ! wB97X-D3 SP def2-SVP
|  2> %pal
|  3> nprocs 24
|  4> end
|  5>
|  6> * xyz 0 1
|  7> S 	 -105.412 	 -0.26107 	 -113.441
|  8> C 	 -106.62 	 0.826562 	 -114.057
|  9> C 	 -107.823 	 0.16377 	 -114.152
| 10> C 	 -107.81 	 -1.21734 	 -113.852
| 11> C 	 -106.569 	 -1.61428 	 -113.389
| 12> H 	 -108.59 	 -1.9685 	 -114.016
| 13> C 	 -109.024 	 0.885551 	 -114.858
| 14> H 	 -109.396 	 0.181523 	 -115.608
| 15> H 	 -108.532 	 1.74854 	 -115.411
| 16> C 	 -110.231 	 1.22506 	 -113.923
| 17> H 	 -111.039 	 1.64606 	 -114.49
| 18> H 	 -110.583 	 0.228087 	 -113.691
| 19> C 	 -109.845 	 2.07498 	 -112.796
| 20> H 	 -109.023 	 1.65826 	 -112.248
| 21> H 	 -109.593 	 2.99345 	 -113.285
| 22> H 	 -110.583 	 2.42113 	 -112.068
| 23> S 	 -105.08 	 -3.7881 	 -113.845
| 24> C 	 -105.149 	 -5.13737 	 -112.723
| 25> C 	 -105.973 	 -4.87947 	 -111.65
| 26> C 	 -106.648 	 -3.6265 	 -111.739
| 27> C 	 -106.192 	 -2.94561 	 -112.892
| 28> H 	 -106.18 	 -5.68392 	 -110.971
| 29> C 	 -107.789 	 -3.27587 	 -110.824
| 30> H 	 -107.569 	 -2.26406 	 -110.455
| 31> H 	 -107.759 	 -3.97565 	 -109.977
| 32> C 	 -109.283 	 -3.32918 	 -111.271
| 33> H 	 -109.375 	 -2.73986 	 -112.184
| 34> H 	 -109.897 	 -2.80537 	 -110.53
| 35> C 	 -109.693 	 -4.75891 	 -111.668
| 36> H 	 -110.789 	 -4.70324 	 -111.987
| 37> H 	 -109.526 	 -5.50364 	 -110.846
| 38> H 	 -109.25 	 -5.04056 	 -112.653
| 39> H 	 -106.511 	 1.92319 	 -114.275
| 40> H 	 -104.525 	 -5.99615 	 -112.935
| 41> *
| 42>
| 43>                          ****END OF INPUT****

CARTESIAN COORDINATES (ANGSTROEM)
---------------------------------
  S    -105.412000   -0.261070  -113.441000
  C    -106.620000    0.826562  -114.057000
  C    -107.823000    0.163770  -114.152000
  C    -107.810000   -1.217340  -113.852000
  C    -106.569000   -1.614280  -113.389000
  H    -108.590000   -1.968500  -114.016000
  C    -109.024000    0.885551  -114.858000
  H    -109.396000    0.181523  -115.608000
  H    -108.532000    1.748540  -115.411000
  C    -110.231000    1.225060  -113.923000
  H    -111.039000    1.646060  -114.490000
  H    -110.583000    0.228087  -113.691000
  C    -109.845000    2.074980  -112.796000
  H    -109.023000    1.658260  -112.248000
  H    -109.593000    2.993450  -113.285000
  H    -110.583000    2.421130  -112.068000
  S    -105.080000   -3.788100  -113.845000
  C    -105.149000   -5.137370  -112.723000
  C    -105.973000   -4.879470  -111.650000
  C    -106.648000   -3.626500  -111.739000
  C    -106.192000   -2.945610  -112.892000
  H    -106.180000   -5.683920  -110.971000
  C    -107.789000   -3.275870  -110.824000
  H    -107.569000   -2.264060  -110.455000
  H    -107.759000   -3.975650  -109.977000
  C    -109.283000   -3.329180  -111.271000
  H    -109.375000   -2.739860  -112.184000
  H    -109.897000   -2.805370  -110.530000
  C    -109.693000   -4.758910  -111.668000
  H    -110.789000   -4.703240  -111.987000
  H    -109.526000   -5.503640  -110.846000
  H    -109.250000   -5.040560  -112.653000
  H    -106.511000    1.923190  -114.275000
  H    -104.525000   -5.996150  -112.935000

 Total Charge           Charge          ....    0
 Multiplicity           Mult            ....    1
 Number of Electrons    NEL             ....  134
 Basis Dimension        Dim             ....  322

ORBITAL ENERGIES
----------------

  NO   OCC          E(Eh)            E(eV)
   0   2.0000     -88.966839     -2420.9108
   1   2.0000     -88.966293     -2420.8959
   2   2.0000     -10.330600      -281.1099
   3   2.0000     -10.323658      -280.9210
   4   2.0000     -10.316041      -280.7137
   5   2.0000     -10.316038      -280.7137
   6   2.0000     -10.306065      -280.4423
   7   2.0000     -10.299277      -280.2576
   8   2.0000     -10.297374      -280.2058
   9   2.0000     -10.296280      -280.1760
  10   2.0000     -10.293557      -280.1019
  11   2.0000     -10.292515      -280.0736
  12   2.0000     -10.289943      -280.0036
  13   2.0000     -10.289746      -279.9982
  14   2.0000     -10.281051      -279.7616
  15   2.0000     -10.266304      -279.3603
  16   2.0000      -8.082816      -219.9446
  17   2.0000      -8.080625      -219.8850
  18   2.0000      -6.040964      -164.3830
  19   2.0000      -6.039140      -164.3334
  20   2.0000      -6.037093      -164.2777
  21   2.0000      -6.035098      -164.2234
  22   2.0000      -6.033943      -164.1919
  23   2.0000      -6.031490      -164.1252
  24   2.0000      -1.009244       -27.4629
  25   2.0000      -0.985898       -26.8277
  26   2.0000      -0.910650       -24.7801
  27   2.0000      -0.906702       -24.6726
  28   2.0000      -0.870514       -23.6879
  29   2.0000      -0.850470       -23.1425
  30   2.0000      -0.847688       -23.0668
  31   2.0000      -0.814849       -22.1732
  32   2.0000      -0.780243       -21.2315
  33   2.0000      -0.768735       -20.9183
  34   2.0000      -0.708434       -19.2775
  35   2.0000      -0.695246       -18.9186
  36   2.0000      -0.685250       -18.6466
  37   2.0000      -0.665070       -18.0975
  38   2.0000      -0.639210       -17.3938
  39   2.0000      -0.613505       -16.6943
  40   2.0000      -0.591873       -16.1057
  41   2.0000      -0.567255       -15.4358
  42   2.0000      -0.555981       -15.1290
  43   2.0000      -0.553704       -15.0671
  44   2.0000      -0.545840       -14.8531
  45   2.0000      -0.543707       -14.7950
  46   2.0000      -0.514324       -13.9955
  47   2.0000      -0.511855       -13.9283
  48   2.0000      -0.497042       -13.5252
  49   2.0000      -0.491663       -13.3788
  50   2.0000      -0.485296       -13.2056
  51   2.0000      -0.481663       -13.1067
  52   2.0000      -0.474022       -12.8988
  53   2.0000      -0.464944       -12.6518
  54   2.0000      -0.459593       -12.5062
  55   2.0000      -0.450350       -12.2546
  56   2.0000      -0.443396       -12.0654
  57   2.0000      -0.434387       -11.8203
  58   2.0000      -0.431254       -11.7350
  59   2.0000      -0.423786       -11.5318
  60   2.0000      -0.417966       -11.3734
  61   2.0000      -0.411965       -11.2101
  62   2.0000      -0.410424       -11.1682
  63   2.0000      -0.344650        -9.3784
  64   2.0000      -0.332203        -9.0397
  65   2.0000      -0.324850        -8.8396
  66   2.0000      -0.298429        -8.1207
  67   0.0000       0.035713         0.9718
  68   0.0000       0.061906         1.6846
  69   0.0000       0.115482         3.1424
  70   0.0000       0.123004         3.3471
  71   0.0000       0.125045         3.4026

MULLIKEN ATOMIC CHARGES
-----------------------
   0 S :    0.117047
   1 C :   -0.140815
   2 C :   -0.097787
   3 C :    0.042233
   4 C :   -0.165319
   5 H :    0.036564
   6 C :    0.004822
   7 H :    0.031744
   8 H :    0.029644
   9 C :   -0.027994
  10 H :    0.022903
  11 H :    0.009823
  12 C :   -0.023075
  13 H :    0.041646
  14 H :    0.010683
  15 H :    0.030659
  16 S :    0.126641
  17 C :   -0.111363
  18 C :   -0.021171
  19 C :   -0.012020
  20 C :   -0.209827
  21 H :    0.017632
  22 C :    0.060542
  23 H :    0.038039
  24 H :    0.014686
  25 C :   -0.036592
  26 H :    0.002880
  27 H :    0.037610
  28 C :   -0.094615
  29 H :    0.038367
  30 H :    0.047528
  31 H :    0.047846
  32 H :    0.073182
  33 H :    0.057855
Sum of atomic charges:   -0.0000000

LOEWDIN ATOMIC CHARGES
----------------------
   0 S :    0.399303
   1 C :   -0.213433
   2 C :   -0.072482
   3 C :   -0.066328
   4 C :   -0.186193
   5 H :    0.036605
   6 C :   -0.027060
   7 H :    0.029839
   8 H :    0.028824
   9 C :   -0.041320
  10 H :    0.022192
  11 H :    0.017178
  12 C :   -0.067309
  13 H :    0.025931
  14 H :    0.025441
  15 H :    0.027520
  16 S :    0.439370
  17 C :   -0.184245
  18 C :   -0.066799
  19 C :   -0.054089
  20 C :   -0.225606
  21 H :    0.031190
  22 C :   -0.035653
  23 H :    0.036699
  24 H :    0.028999
  25 C :   -0.040401
  26 H :    0.018952
  27 H :    0.028268
  28 C :   -0.078465
  29 H :    0.034011
  30 H :    0.027104
  31 H :    0.033133
  32 H :    0.043885
  33 H :    0.024937

  Mayer bond orders larger than 0.100000
B(  0-S ,  1-C ) :   1.1365 B(  0-S ,  4-C ) :   1.1590 B(  1-C ,  2-C ) :   1.6103
B(  1-C , 32-H ) :   0.9590 B(  2-C ,  3-C ) :   1.2399 B(  2-C ,  6-C ) :   1.0035
B(  3-C ,  4-C ) :   1.5871 B(  3-C ,  5-H ) :   0.9790 B(  4-C , 20-C ) :   1.0083
B(  6-C ,  7-H ) :   0.9489 B(  6-C ,  8-H ) :   0.9536 B(  6-C ,  9-C ) :   1.0565
B(  9-C , 10-H ) :   0.9563 B(  9-C , 11-H ) :   0.9527 B(  9-C , 12-C ) :   1.0764
B( 12-C , 13-H ) :   0.9727 B( 12-C , 14-H ) :   0.9701 B( 12-C , 15-H ) :   0.9718
B( 16-S , 17-C ) :   1.1617 B( 16-S , 20-C ) :   1.1966 B( 17-C , 18-C ) :   1.5896
B( 17-C , 20-C ) :   0.1007 B( 17-C , 33-H ) :   0.9716 B( 18-C , 19-C ) :   1.2567
B( 18-C , 21-H ) :   0.9892 B( 19-C , 20-C ) :   1.5476 B( 19-C , 22-C ) :   1.0524
B( 22-C , 23-H ) :   0.9203 B( 22-C , 24-H ) :   0.9369 B( 22-C , 25-C ) :   1.0729
B( 25-C , 26-H ) :   0.9479 B( 25-C , 27-H ) :   0.9530 B( 25-C , 28-C ) :   1.0709
B( 28-C , 29-H ) :   0.9715 B( 28-C , 30-H ) :   0.9763 B( 28-C , 31-H ) :   0.9716

Dispersion correction           -0.015427358
FINAL SINGLE POINT ENERGY     -1339.877869698419

DIPOLE MOMENT
-------------
                                X             Y             Z
Electronic contribution:     26.96351      -5.33198      -6.53610
Nuclear contribution   :    -27.54460       5.24435       6.57201
                        -----------------------------------------
Total Dipole Moment    :     -0.58110      -0.08763       0.03592
                        -----------------------------------------
Magnitude (a.u.)       :      0.58877
Magnitude (Debye)      :      1.49652

Rotational constants in cm-1:     0.019590     0.009537     0.007161
Rotational constants in MHz :   587.302809   285.925704   214.671575

                             ****ORCA TERMINATED NORMALLY****
TOTAL RUN TIME: 0 days 0 hours 0 minutes 22 seconds 499 msec
