                         Program Version 4.2.1 -  RELEASE  -
|  1> ! wB97X-D3 SP def2-SVP
|  2> %pal
|  3> nprocs 24
|  4> end
|  5>
|  6> * xyz 0 1
|  7> S 	 -22.6696 	 -35.2232 	 -92.3626
|  8> C 	 -20.9569 	 -35.2885 	 -91.9715
|  9> C 	 -20.2061 	 -35.0056 	 -93.1041
| 10> C 	 -21.0306 	 -34.6699 	 -94.226
| 11> C 	 -22.3736 	 -34.6482 	 -93.9746
| 12> H 	 -20.7084 	 -34.4843 	 -95.214
| 13> C 	 -18.6415 	 -35.029 	 -93.1712
| 14> H 	 -18.4778 	 -34.3382 	 -92.3667
| 15> H 	 -18.4221 	 -34.633 	 -94.1323
| 16> C 	 -18.0037 	 -36.4028 	 -93.01
| 17> H 	 -18.1655 	 -36.6508 	 -91.9768
| 18> H 	 -18.6111 	 -37.0699 	 -93.5402
| 19> C 	 -16.5672 	 -36.4928 	 -93.5015
| 20> H 	 -16.1554 	 -37.5483 	 -93.3967
| 21> H 	 -16.5976 	 -36.4069 	 -94.6083
| 22> H 	 -16.0228 	 -35.8502 	 -92.8883
| 23> S 	 -24.2873 	 -35.5988 	 -95.7662
| 24> C 	 -25.4268 	 -34.4484 	 -96.4483
| 25> C 	 -25.0568 	 -33.1617 	 -96.1518
| 26> C 	 -23.9775 	 -33.0737 	 -95.316
| 27> C 	 -23.4584 	 -34.337 	 -94.8668
| 28> H 	 -25.7283 	 -32.4495 	 -96.4605
| 29> C 	 -23.5003 	 -31.7277 	 -94.7543
| 30> H 	 -22.7164 	 -31.9541 	 -93.9828
| 31> H 	 -24.3214 	 -31.1643 	 -94.2624
| 32> C 	 -22.9837 	 -30.7607 	 -95.8765
| 33> H 	 -23.8098 	 -30.6391 	 -96.5843
| 34> H 	 -22.0275 	 -31.1247 	 -96.3164
| 35> C 	 -22.7805 	 -29.2804 	 -95.5305
| 36> H 	 -22.8308 	 -28.7541 	 -96.4363
| 37> H 	 -21.836 	 -29.1066 	 -95.0639
| 38> H 	 -23.5643 	 -28.8979 	 -94.8079
| 39> H 	 -20.6161 	 -35.4476 	 -91.0118
| 40> H 	 -26.3338 	 -34.7098 	 -96.9257
| 41> *
| 42>
| 43>                          ****END OF INPUT****

CARTESIAN COORDINATES (ANGSTROEM)
---------------------------------
  S    -22.669600  -35.223200  -92.362600
  C    -20.956900  -35.288500  -91.971500
  C    -20.206100  -35.005600  -93.104100
  C    -21.030600  -34.669900  -94.226000
  C    -22.373600  -34.648200  -93.974600
  H    -20.708400  -34.484300  -95.214000
  C    -18.641500  -35.029000  -93.171200
  H    -18.477800  -34.338200  -92.366700
  H    -18.422100  -34.633000  -94.132300
  C    -18.003700  -36.402800  -93.010000
  H    -18.165500  -36.650800  -91.976800
  H    -18.611100  -37.069900  -93.540200
  C    -16.567200  -36.492800  -93.501500
  H    -16.155400  -37.548300  -93.396700
  H    -16.597600  -36.406900  -94.608300
  H    -16.022800  -35.850200  -92.888300
  S    -24.287300  -35.598800  -95.766200
  C    -25.426800  -34.448400  -96.448300
  C    -25.056800  -33.161700  -96.151800
  C    -23.977500  -33.073700  -95.316000
  C    -23.458400  -34.337000  -94.866800
  H    -25.728300  -32.449500  -96.460500
  C    -23.500300  -31.727700  -94.754300
  H    -22.716400  -31.954100  -93.982800
  H    -24.321400  -31.164300  -94.262400
  C    -22.983700  -30.760700  -95.876500
  H    -23.809800  -30.639100  -96.584300
  H    -22.027500  -31.124700  -96.316400
  C    -22.780500  -29.280400  -95.530500
  H    -22.830800  -28.754100  -96.436300
  H    -21.836000  -29.106600  -95.063900
  H    -23.564300  -28.897900  -94.807900
  H    -20.616100  -35.447600  -91.011800
  H    -26.333800  -34.709800  -96.925700

 Total Charge           Charge          ....    0
 Multiplicity           Mult            ....    1
 Number of Electrons    NEL             ....  134
 Basis Dimension        Dim             ....  322

ORBITAL ENERGIES
----------------

  NO   OCC          E(Eh)            E(eV)
   0   2.0000     -88.965412     -2420.8719
   1   2.0000     -88.962525     -2420.7934
   2   2.0000     -10.327423      -281.0235
   3   2.0000     -10.324377      -280.9406
   4   2.0000     -10.313446      -280.6431
   5   2.0000     -10.311297      -280.5847
   6   2.0000     -10.303627      -280.3760
   7   2.0000     -10.303462      -280.3714
   8   2.0000     -10.294603      -280.1304
   9   2.0000     -10.290254      -280.0120
  10   2.0000     -10.288526      -279.9650
  11   2.0000     -10.287561      -279.9388
  12   2.0000     -10.282687      -279.8061
  13   2.0000     -10.281687      -279.7789
  14   2.0000     -10.277399      -279.6623
  15   2.0000     -10.272736      -279.5353
  16   2.0000      -8.079807      -219.8627
  17   2.0000      -8.077545      -219.8012
  18   2.0000      -6.038117      -164.3055
  19   2.0000      -6.036010      -164.2482
  20   2.0000      -6.034249      -164.2003
  21   2.0000      -6.031901      -164.1364
  22   2.0000      -6.030914      -164.1095
  23   2.0000      -6.028437      -164.0421
  24   2.0000      -1.006537       -27.3893
  25   2.0000      -0.985283       -26.8109
  26   2.0000      -0.914597       -24.8875
  27   2.0000      -0.900476       -24.5032
  28   2.0000      -0.874187       -23.7878
  29   2.0000      -0.850942       -23.1553
  30   2.0000      -0.847854       -23.0713
  31   2.0000      -0.818705       -22.2781
  32   2.0000      -0.783608       -21.3231
  33   2.0000      -0.768010       -20.8986
  34   2.0000      -0.707924       -19.2636
  35   2.0000      -0.704308       -19.1652
  36   2.0000      -0.687818       -18.7165
  37   2.0000      -0.656452       -17.8630
  38   2.0000      -0.652181       -17.7467
  39   2.0000      -0.618509       -16.8305
  40   2.0000      -0.593494       -16.1498
  41   2.0000      -0.578747       -15.7485
  42   2.0000      -0.572988       -15.5918
  43   2.0000      -0.564979       -15.3739
  44   2.0000      -0.537482       -14.6256
  45   2.0000      -0.530809       -14.4440
  46   2.0000      -0.519015       -14.1231
  47   2.0000      -0.512129       -13.9357
  48   2.0000      -0.505863       -13.7652
  49   2.0000      -0.502337       -13.6693
  50   2.0000      -0.492880       -13.4119
  51   2.0000      -0.474525       -12.9125
  52   2.0000      -0.470394       -12.8001
  53   2.0000      -0.465875       -12.6771
  54   2.0000      -0.459405       -12.5010
  55   2.0000      -0.451850       -12.2955
  56   2.0000      -0.445791       -12.1306
  57   2.0000      -0.432208       -11.7610
  58   2.0000      -0.425566       -11.5802
  59   2.0000      -0.421414       -11.4673
  60   2.0000      -0.419371       -11.4117
  61   2.0000      -0.411937       -11.2094
  62   2.0000      -0.409993       -11.1565
  63   2.0000      -0.339418        -9.2360
  64   2.0000      -0.329604        -8.9690
  65   2.0000      -0.320878        -8.7315
  66   2.0000      -0.304532        -8.2867
  67   0.0000       0.037679         1.0253
  68   0.0000       0.051318         1.3964
  69   0.0000       0.122961         3.3459
  70   0.0000       0.126746         3.4489
  71   0.0000       0.130320         3.5462

MULLIKEN ATOMIC CHARGES
-----------------------
   0 S :    0.111712
   1 C :   -0.107786
   2 C :   -0.116255
   3 C :    0.064919
   4 C :   -0.196298
   5 H :   -0.007391
   6 C :    0.106332
   7 H :    0.035608
   8 H :    0.000383
   9 C :   -0.047666
  10 H :    0.015384
  11 H :    0.013599
  12 C :   -0.035919
  13 H :    0.038055
  14 H :    0.041862
  15 H :    0.032835
  16 S :    0.115842
  17 C :   -0.093402
  18 C :   -0.009851
  19 C :    0.024516
  20 C :   -0.176237
  21 H :   -0.008914
  22 C :    0.062228
  23 H :    0.041746
  24 H :    0.028200
  25 C :   -0.123501
  26 H :    0.028881
  27 H :    0.040725
  28 C :   -0.026539
  29 H :    0.027201
  30 H :    0.024952
  31 H :    0.029048
  32 H :    0.020918
  33 H :    0.044812
Sum of atomic charges:    0.0000000

LOEWDIN ATOMIC CHARGES
----------------------
   0 S :    0.412781
   1 C :   -0.183687
   2 C :   -0.056392
   3 C :   -0.057261
   4 C :   -0.207852
   5 H :    0.025241
   6 C :   -0.020614
   7 H :    0.031632
   8 H :    0.020405
   9 C :   -0.039454
  10 H :    0.019817
  11 H :    0.017447
  12 C :   -0.061052
  13 H :    0.035308
  14 H :    0.033550
  15 H :    0.018480
  16 S :    0.409025
  17 C :   -0.169895
  18 C :   -0.067506
  19 C :   -0.049153
  20 C :   -0.210974
  21 H :    0.022226
  22 C :   -0.033566
  23 H :    0.033648
  24 H :    0.031261
  25 C :   -0.044103
  26 H :    0.023733
  27 H :    0.028913
  28 C :   -0.062756
  29 H :    0.020449
  30 H :    0.017647
  31 H :    0.029210
  32 H :    0.011057
  33 H :    0.022437

  Mayer bond orders larger than 0.100000
B(  0-S ,  1-C ) :   1.1503 B(  0-S ,  4-C ) :   1.1560 B(  1-C ,  2-C ) :   1.5866
B(  1-C ,  4-C ) :   0.1018 B(  1-C , 32-H ) :   0.9877 B(  2-C ,  3-C ) :   1.2462
B(  2-C ,  6-C ) :   0.9937 B(  3-C ,  4-C ) :   1.5843 B(  3-C ,  5-H ) :   1.0043
B(  4-C , 20-C ) :   1.0257 B(  6-C ,  7-H ) :   0.9389 B(  6-C ,  8-H ) :   0.9410
B(  6-C ,  9-C ) :   1.0598 B(  9-C , 10-H ) :   0.9515 B(  9-C , 11-H ) :   0.9570
B(  9-C , 12-C ) :   1.0904 B( 12-C , 13-H ) :   0.9727 B( 12-C , 14-H ) :   0.9728
B( 12-C , 15-H ) :   0.9768 B( 16-S , 17-C ) :   1.1747 B( 16-S , 20-C ) :   1.1611
B( 17-C , 18-C ) :   1.5768 B( 17-C , 20-C ) :   0.1210 B( 17-C , 33-H ) :   0.9699
B( 18-C , 19-C ) :   1.2720 B( 18-C , 21-H ) :   1.0059 B( 19-C , 20-C ) :   1.5353
B( 19-C , 22-C ) :   1.0478 B( 22-C , 23-H ) :   0.9353 B( 22-C , 24-H ) :   0.9395
B( 22-C , 25-C ) :   1.0560 B( 25-C , 26-H ) :   0.9645 B( 25-C , 27-H ) :   0.9556
B( 25-C , 28-C ) :   1.0802 B( 28-C , 29-H ) :   0.9775 B( 28-C , 30-H ) :   0.9760
B( 28-C , 31-H ) :   0.9707

Dispersion correction           -0.013418610
FINAL SINGLE POINT ENERGY     -1339.857456977985

DIPOLE MOMENT
-------------
                                X             Y             Z
Electronic contribution:    -20.28726     -13.86100       1.79758
Nuclear contribution   :     20.59155      14.18619      -1.89577
                        -----------------------------------------
Total Dipole Moment    :      0.30429       0.32519      -0.09820
                        -----------------------------------------
Magnitude (a.u.)       :      0.45605
Magnitude (Debye)      :      1.15919

Rotational constants in cm-1:     0.018497     0.007316     0.006176
Rotational constants in MHz :   554.523563   219.332819   185.144590

                             ****ORCA TERMINATED NORMALLY****
TOTAL RUN TIME: 0 days 0 hours 0 minutes 20 seconds 811 msec
