                         Program Version 4.2.1 -  RELEASE  -
|  1> ! wB97X-D3 SP def2-SVP
|  2> %pal
|  3> nprocs 24
|  4> end
|  5>
|  6> * xyz 0 1
|  7> S 	 -149.108 	 11.554 	 -6.6497
|  8> C 	 -149.118 	 9.89391 	 -6.12379
|  9> C 	 -148.032 	 9.22643 	 -6.67677
| 10> C 	 -147.372 	 9.99622 	 -7.74333
| 11> C 	 -147.887 	 11.2504 	 -7.84759
| 12> H 	 -146.555 	 9.68097 	 -8.40189
| 13> C 	 -147.692 	 7.74837 	 -6.38122
| 14> H 	 -148.389 	 7.19707 	 -7.01309
| 15> H 	 -147.997 	 7.63486 	 -5.31835
| 16> C 	 -146.251 	 7.13602 	 -6.69468
| 17> H 	 -146.21 	 6.04736 	 -6.44392
| 18> H 	 -146.02 	 7.32288 	 -7.76419
| 19> C 	 -145.104 	 7.93772 	 -5.94685
| 20> H 	 -144.078 	 7.78571 	 -6.36701
| 21> H 	 -145.241 	 8.97405 	 -6.07741
| 22> H 	 -145.104 	 7.90443 	 -4.84443
| 23> S 	 -146.072 	 11.8734 	 -9.7899
| 24> C 	 -146.222 	 13.3452 	 -10.7329
| 25> C 	 -147.36 	 14.0992 	 -10.3886
| 26> C 	 -148.154 	 13.3309 	 -9.4707
| 27> C 	 -147.547 	 12.1933 	 -8.89803
| 28> H 	 -147.608 	 15.0409 	 -10.8388
| 29> C 	 -149.586 	 13.827 	 -9.13389
| 30> H 	 -150.123 	 13.0031 	 -8.59621
| 31> H 	 -150.192 	 13.9546 	 -10.0045
| 32> C 	 -149.676 	 15.0667 	 -8.27937
| 33> H 	 -149.286 	 15.9626 	 -8.81769
| 34> H 	 -149.018 	 15.0175 	 -7.35386
| 35> C 	 -151.16 	 15.2483 	 -7.71488
| 36> H 	 -151.638 	 14.3105 	 -7.2828
| 37> H 	 -151.851 	 15.647 	 -8.56278
| 38> H 	 -151.164 	 16.0667 	 -6.92305
| 39> H 	 -149.861 	 9.54624 	 -5.43201
| 40> H 	 -145.57 	 13.7653 	 -11.4617
| 41> *
| 42>
| 43>                          ****END OF INPUT****

CARTESIAN COORDINATES (ANGSTROEM)
---------------------------------
  S    -149.108000   11.554000   -6.649700
  C    -149.118000    9.893910   -6.123790
  C    -148.032000    9.226430   -6.676770
  C    -147.372000    9.996220   -7.743330
  C    -147.887000   11.250400   -7.847590
  H    -146.555000    9.680970   -8.401890
  C    -147.692000    7.748370   -6.381220
  H    -148.389000    7.197070   -7.013090
  H    -147.997000    7.634860   -5.318350
  C    -146.251000    7.136020   -6.694680
  H    -146.210000    6.047360   -6.443920
  H    -146.020000    7.322880   -7.764190
  C    -145.104000    7.937720   -5.946850
  H    -144.078000    7.785710   -6.367010
  H    -145.241000    8.974050   -6.077410
  H    -145.104000    7.904430   -4.844430
  S    -146.072000   11.873400   -9.789900
  C    -146.222000   13.345200  -10.732900
  C    -147.360000   14.099200  -10.388600
  C    -148.154000   13.330900   -9.470700
  C    -147.547000   12.193300   -8.898030
  H    -147.608000   15.040900  -10.838800
  C    -149.586000   13.827000   -9.133890
  H    -150.123000   13.003100   -8.596210
  H    -150.192000   13.954600  -10.004500
  C    -149.676000   15.066700   -8.279370
  H    -149.286000   15.962600   -8.817690
  H    -149.018000   15.017500   -7.353860
  C    -151.160000   15.248300   -7.714880
  H    -151.638000   14.310500   -7.282800
  H    -151.851000   15.647000   -8.562780
  H    -151.164000   16.066700   -6.923050
  H    -149.861000    9.546240   -5.432010
  H    -145.570000   13.765300  -11.461700

 Total Charge           Charge          ....    0
 Multiplicity           Mult            ....    1
 Number of Electrons    NEL             ....  134
 Basis Dimension        Dim             ....  322

ORBITAL ENERGIES
----------------

  NO   OCC          E(Eh)            E(eV)
   0   2.0000     -88.970302     -2421.0050
   1   2.0000     -88.966874     -2420.9117
   2   2.0000     -10.331701      -281.1399
   3   2.0000     -10.331454      -281.1332
   4   2.0000     -10.321520      -280.8628
   5   2.0000     -10.314930      -280.6835
   6   2.0000     -10.312896      -280.6282
   7   2.0000     -10.309458      -280.5346
   8   2.0000     -10.305193      -280.4186
   9   2.0000     -10.300614      -280.2940
  10   2.0000     -10.298634      -280.2401
  11   2.0000     -10.297552      -280.2106
  12   2.0000     -10.296022      -280.1690
  13   2.0000     -10.294029      -280.1148
  14   2.0000     -10.287214      -279.9293
  15   2.0000     -10.276992      -279.6512
  16   2.0000      -8.084438      -219.9887
  17   2.0000      -8.081676      -219.9136
  18   2.0000      -6.043059      -164.4400
  19   2.0000      -6.040275      -164.3642
  20   2.0000      -6.039039      -164.3306
  21   2.0000      -6.036201      -164.2534
  22   2.0000      -6.035141      -164.2245
  23   2.0000      -6.032303      -164.1473
  24   2.0000      -1.008917       -27.4540
  25   2.0000      -0.983134       -26.7524
  26   2.0000      -0.901074       -24.5195
  27   2.0000      -0.899114       -24.4661
  28   2.0000      -0.873585       -23.7714
  29   2.0000      -0.844102       -22.9692
  30   2.0000      -0.835574       -22.7371
  31   2.0000      -0.816105       -22.2073
  32   2.0000      -0.777681       -21.1618
  33   2.0000      -0.764114       -20.7926
  34   2.0000      -0.709543       -19.3076
  35   2.0000      -0.697423       -18.9778
  36   2.0000      -0.687186       -18.6993
  37   2.0000      -0.670345       -18.2410
  38   2.0000      -0.637963       -17.3598
  39   2.0000      -0.615485       -16.7482
  40   2.0000      -0.594048       -16.1649
  41   2.0000      -0.566121       -15.4049
  42   2.0000      -0.554957       -15.1012
  43   2.0000      -0.546477       -14.8704
  44   2.0000      -0.531621       -14.4661
  45   2.0000      -0.524829       -14.2813
  46   2.0000      -0.516844       -14.0640
  47   2.0000      -0.514223       -13.9927
  48   2.0000      -0.499492       -13.5919
  49   2.0000      -0.496240       -13.5034
  50   2.0000      -0.485562       -13.2128
  51   2.0000      -0.480616       -13.0782
  52   2.0000      -0.468145       -12.7389
  53   2.0000      -0.464889       -12.6503
  54   2.0000      -0.462437       -12.5835
  55   2.0000      -0.448206       -12.1963
  56   2.0000      -0.442703       -12.0466
  57   2.0000      -0.432992       -11.7823
  58   2.0000      -0.429145       -11.6776
  59   2.0000      -0.423562       -11.5257
  60   2.0000      -0.418617       -11.3911
  61   2.0000      -0.411379       -11.1942
  62   2.0000      -0.405160       -11.0250
  63   2.0000      -0.363037        -9.8787
  64   2.0000      -0.331852        -9.0301
  65   2.0000      -0.325865        -8.8672
  66   2.0000      -0.282532        -7.6881
  67   0.0000       0.017507         0.4764
  68   0.0000       0.081512         2.2181
  69   0.0000       0.110589         3.0093
  70   0.0000       0.115741         3.1495
  71   0.0000       0.124778         3.3954

MULLIKEN ATOMIC CHARGES
-----------------------
   0 S :    0.108042
   1 C :   -0.142596
   2 C :   -0.073387
   3 C :   -0.041354
   4 C :   -0.082047
   5 H :    0.035184
   6 C :    0.033640
   7 H :    0.051364
   8 H :    0.037208
   9 C :   -0.077727
  10 H :    0.056457
  11 H :    0.041399
  12 C :   -0.072604
  13 H :    0.040480
  14 H :    0.017245
  15 H :    0.032816
  16 S :    0.083036
  17 C :   -0.061978
  18 C :   -0.026188
  19 C :   -0.074604
  20 C :   -0.108433
  21 H :    0.023049
  22 C :    0.044439
  23 H :    0.020898
  24 H :    0.024464
  25 C :   -0.088014
  26 H :    0.034788
  27 H :    0.038696
  28 C :   -0.119765
  29 H :    0.056130
  30 H :    0.043891
  31 H :    0.046727
  32 H :    0.051026
  33 H :    0.047719
Sum of atomic charges:    0.0000000

LOEWDIN ATOMIC CHARGES
----------------------
   0 S :    0.422797
   1 C :   -0.203213
   2 C :   -0.052803
   3 C :   -0.081567
   4 C :   -0.186470
   5 H :    0.027864
   6 C :   -0.038783
   7 H :    0.036993
   8 H :    0.033404
   9 C :   -0.038447
  10 H :    0.034617
  11 H :    0.028677
  12 C :   -0.080203
  13 H :    0.030813
  14 H :    0.018396
  15 H :    0.026735
  16 S :    0.411084
  17 C :   -0.177076
  18 C :   -0.064243
  19 C :   -0.052556
  20 C :   -0.194342
  21 H :    0.032036
  22 C :   -0.046026
  23 H :    0.019353
  24 H :    0.027088
  25 C :   -0.049479
  26 H :    0.024373
  27 H :    0.028467
  28 C :   -0.084124
  29 H :    0.032666
  30 H :    0.030655
  31 H :    0.030030
  32 H :    0.026911
  33 H :    0.026369

  Mayer bond orders larger than 0.100000
B(  0-S ,  1-C ) :   1.1289 B(  0-S ,  4-C ) :   1.1398 B(  1-C ,  2-C ) :   1.6162
B(  1-C , 32-H ) :   0.9786 B(  2-C ,  3-C ) :   1.2105 B(  2-C ,  6-C ) :   1.0023
B(  3-C ,  4-C ) :   1.5866 B(  3-C ,  5-H ) :   0.9747 B(  4-C , 20-C ) :   1.0836
B(  6-C ,  7-H ) :   0.9432 B(  6-C ,  8-H ) :   0.9476 B(  6-C ,  9-C ) :   1.0668
B(  9-C , 10-H ) :   0.9595 B(  9-C , 11-H ) :   0.9523 B(  9-C , 12-C ) :   1.0624
B( 12-C , 13-H ) :   0.9779 B( 12-C , 14-H ) :   0.9733 B( 12-C , 15-H ) :   0.9765
B( 16-S , 17-C ) :   1.1625 B( 16-S , 20-C ) :   1.1224 B( 17-C , 18-C ) :   1.6005
B( 17-C , 33-H ) :   0.9686 B( 18-C , 19-C ) :   1.2497 B( 18-C , 21-H ) :   0.9910
B( 19-C , 20-C ) :   1.5673 B( 19-C , 22-C ) :   1.0335 B( 22-C , 23-H ) :   0.9360
B( 22-C , 24-H ) :   0.9350 B( 22-C , 25-C ) :   1.0545 B( 25-C , 26-H ) :   0.9549
B( 25-C , 27-H ) :   0.9581 B( 25-C , 28-C ) :   1.0619 B( 28-C , 29-H ) :   0.9741
B( 28-C , 30-H ) :   0.9750 B( 28-C , 31-H ) :   0.9773

Dispersion correction           -0.014358190
FINAL SINGLE POINT ENERGY     -1339.867578378521

DIPOLE MOMENT
-------------
                                X             Y             Z
Electronic contribution:      4.00105       2.16754      -6.74299
Nuclear contribution   :     -4.12591      -2.22913       6.64081
                        -----------------------------------------
Total Dipole Moment    :     -0.12486      -0.06159      -0.10218
                        -----------------------------------------
Magnitude (a.u.)       :      0.17270
Magnitude (Debye)      :      0.43896

Rotational constants in cm-1:     0.020860     0.008646     0.006376
Rotational constants in MHz :   625.361085   259.187709   191.133473

                             ****ORCA TERMINATED NORMALLY****
TOTAL RUN TIME: 0 days 0 hours 0 minutes 20 seconds 90 msec
