                         Program Version 4.2.1 -  RELEASE  -
|  1> ! wB97X-D3 SP def2-SVP
|  2> %pal
|  3> nprocs 24
|  4> end
|  5>
|  6> * xyz 0 1
|  7> S 	 -50.7097 	 18.7649 	 -88.3246
|  8> C 	 -51.8263 	 18.9455 	 -89.7432
|  9> C 	 -52.9308 	 19.6704 	 -89.4746
| 10> C 	 -52.9687 	 20.0796 	 -88.0816
| 11> C 	 -51.9964 	 19.4032 	 -87.3173
| 12> H 	 -53.651 	 20.7509 	 -87.6682
| 13> C 	 -54.0921 	 19.8085 	 -90.4508
| 14> H 	 -55.0768 	 19.9348 	 -89.9818
| 15> H 	 -54.1731 	 18.9614 	 -91.1268
| 16> C 	 -54.0173 	 21.0622 	 -91.3542
| 17> H 	 -53.9638 	 21.8631 	 -90.6312
| 18> H 	 -53.114 	 21.0322 	 -91.9744
| 19> C 	 -55.3258 	 21.1199 	 -92.1491
| 20> H 	 -56.257 	 20.9935 	 -91.6087
| 21> H 	 -55.4089 	 22.0766 	 -92.6486
| 22> H 	 -55.3161 	 20.3311 	 -92.9178
| 23> S 	 -52.1746 	 17.9904 	 -84.9497
| 24> C 	 -51.7549 	 18.9223 	 -83.5169
| 25> C 	 -51.4248 	 20.2451 	 -83.7331
| 26> C 	 -51.5869 	 20.6712 	 -85.1173
| 27> C 	 -51.9243 	 19.4861 	 -85.8605
| 28> H 	 -51.1298 	 20.8939 	 -82.9149
| 29> C 	 -51.3469 	 22.047 	 -85.5827
| 30> H 	 -51.3286 	 22.0836 	 -86.6799
| 31> H 	 -50.2258 	 22.1779 	 -85.3442
| 32> C 	 -52.2467 	 23.1154 	 -84.9585
| 33> H 	 -51.9359 	 23.377 	 -83.9216
| 34> H 	 -53.28 	 22.8114 	 -85.08
| 35> C 	 -52.1295 	 24.4522 	 -85.7595
| 36> H 	 -52.5318 	 24.3288 	 -86.769
| 37> H 	 -50.9754 	 24.6094 	 -85.8601
| 38> H 	 -52.5566 	 25.2948 	 -85.2725
| 39> H 	 -51.6269 	 18.5281 	 -90.7399
| 40> H 	 -51.7123 	 18.5403 	 -82.5006
| 41> *
| 42>
| 43>                          ****END OF INPUT****

CARTESIAN COORDINATES (ANGSTROEM)
---------------------------------
  S    -50.709700   18.764900  -88.324600
  C    -51.826300   18.945500  -89.743200
  C    -52.930800   19.670400  -89.474600
  C    -52.968700   20.079600  -88.081600
  C    -51.996400   19.403200  -87.317300
  H    -53.651000   20.750900  -87.668200
  C    -54.092100   19.808500  -90.450800
  H    -55.076800   19.934800  -89.981800
  H    -54.173100   18.961400  -91.126800
  C    -54.017300   21.062200  -91.354200
  H    -53.963800   21.863100  -90.631200
  H    -53.114000   21.032200  -91.974400
  C    -55.325800   21.119900  -92.149100
  H    -56.257000   20.993500  -91.608700
  H    -55.408900   22.076600  -92.648600
  H    -55.316100   20.331100  -92.917800
  S    -52.174600   17.990400  -84.949700
  C    -51.754900   18.922300  -83.516900
  C    -51.424800   20.245100  -83.733100
  C    -51.586900   20.671200  -85.117300
  C    -51.924300   19.486100  -85.860500
  H    -51.129800   20.893900  -82.914900
  C    -51.346900   22.047000  -85.582700
  H    -51.328600   22.083600  -86.679900
  H    -50.225800   22.177900  -85.344200
  C    -52.246700   23.115400  -84.958500
  H    -51.935900   23.377000  -83.921600
  H    -53.280000   22.811400  -85.080000
  C    -52.129500   24.452200  -85.759500
  H    -52.531800   24.328800  -86.769000
  H    -50.975400   24.609400  -85.860100
  H    -52.556600   25.294800  -85.272500
  H    -51.626900   18.528100  -90.739900
  H    -51.712300   18.540300  -82.500600

 Total Charge           Charge          ....    0
 Multiplicity           Mult            ....    1
 Number of Electrons    NEL             ....  134
 Basis Dimension        Dim             ....  322

ORBITAL ENERGIES
----------------

  NO   OCC          E(Eh)            E(eV)
   0   2.0000     -88.971244     -2421.0306
   1   2.0000     -88.963988     -2420.8332
   2   2.0000     -10.327215      -281.0178
   3   2.0000     -10.326692      -281.0036
   4   2.0000     -10.315872      -280.7091
   5   2.0000     -10.311833      -280.5992
   6   2.0000     -10.309157      -280.5264
   7   2.0000     -10.298927      -280.2480
   8   2.0000     -10.298305      -280.2311
   9   2.0000     -10.295157      -280.1455
  10   2.0000     -10.294154      -280.1182
  11   2.0000     -10.292774      -280.0806
  12   2.0000     -10.291272      -280.0397
  13   2.0000     -10.286306      -279.9046
  14   2.0000     -10.285648      -279.8867
  15   2.0000     -10.279210      -279.7115
  16   2.0000      -8.085165      -220.0085
  17   2.0000      -8.077794      -219.8080
  18   2.0000      -6.043615      -164.4551
  19   2.0000      -6.040077      -164.3588
  20   2.0000      -6.036467      -164.2606
  21   2.0000      -6.035757      -164.2413
  22   2.0000      -6.032790      -164.1606
  23   2.0000      -6.028079      -164.0324
  24   2.0000      -0.996583       -27.1184
  25   2.0000      -0.974275       -26.5114
  26   2.0000      -0.913157       -24.8483
  27   2.0000      -0.912022       -24.8174
  28   2.0000      -0.864506       -23.5244
  29   2.0000      -0.851942       -23.1825
  30   2.0000      -0.840676       -22.8760
  31   2.0000      -0.808100       -21.9895
  32   2.0000      -0.781098       -21.2548
  33   2.0000      -0.765465       -20.8293
  34   2.0000      -0.703500       -19.1432
  35   2.0000      -0.697860       -18.9897
  36   2.0000      -0.692179       -18.8351
  37   2.0000      -0.652251       -17.7487
  38   2.0000      -0.636427       -17.3180
  39   2.0000      -0.616770       -16.7832
  40   2.0000      -0.595696       -16.2097
  41   2.0000      -0.575380       -15.6569
  42   2.0000      -0.572065       -15.5667
  43   2.0000      -0.556119       -15.1328
  44   2.0000      -0.526463       -14.3258
  45   2.0000      -0.523386       -14.2421
  46   2.0000      -0.517729       -14.0881
  47   2.0000      -0.507841       -13.8190
  48   2.0000      -0.501258       -13.6399
  49   2.0000      -0.491084       -13.3631
  50   2.0000      -0.480245       -13.0681
  51   2.0000      -0.472180       -12.8487
  52   2.0000      -0.464496       -12.6396
  53   2.0000      -0.462055       -12.5731
  54   2.0000      -0.459793       -12.5116
  55   2.0000      -0.453842       -12.3497
  56   2.0000      -0.448529       -12.2051
  57   2.0000      -0.441535       -12.0148
  58   2.0000      -0.434635       -11.8270
  59   2.0000      -0.426000       -11.5921
  60   2.0000      -0.423557       -11.5256
  61   2.0000      -0.422119       -11.4864
  62   2.0000      -0.414513       -11.2795
  63   2.0000      -0.334029        -9.0894
  64   2.0000      -0.327525        -8.9124
  65   2.0000      -0.320576        -8.7233
  66   2.0000      -0.294174        -8.0049
  67   0.0000       0.035664         0.9705
  68   0.0000       0.059171         1.6101
  69   0.0000       0.106083         2.8867
  70   0.0000       0.111732         3.0404
  71   0.0000       0.116171         3.1612

MULLIKEN ATOMIC CHARGES
-----------------------
   0 S :    0.105419
   1 C :   -0.135666
   2 C :   -0.028827
   3 C :    0.053294
   4 C :   -0.162268
   5 H :   -0.011359
   6 C :    0.024210
   7 H :    0.022379
   8 H :    0.023575
   9 C :   -0.073163
  10 H :    0.020776
  11 H :    0.037312
  12 C :   -0.039222
  13 H :    0.029283
  14 H :    0.032729
  15 H :    0.028183
  16 S :    0.133292
  17 C :   -0.084359
  18 C :   -0.035107
  19 C :   -0.018981
  20 C :   -0.204738
  21 H :    0.017590
  22 C :    0.031895
  23 H :    0.027541
  24 H :    0.049080
  25 C :   -0.064790
  26 H :    0.045066
  27 H :    0.040624
  28 C :   -0.071122
  29 H :    0.038091
  30 H :    0.033735
  31 H :    0.037703
  32 H :    0.046511
  33 H :    0.051314
Sum of atomic charges:    0.0000000

LOEWDIN ATOMIC CHARGES
----------------------
   0 S :    0.367897
   1 C :   -0.178021
   2 C :   -0.063707
   3 C :   -0.048190
   4 C :   -0.191912
   5 H :    0.017392
   6 C :   -0.029752
   7 H :    0.030067
   8 H :    0.026761
   9 C :   -0.034822
  10 H :    0.018871
  11 H :    0.025132
  12 C :   -0.066857
  13 H :    0.024473
  14 H :    0.025440
  15 H :    0.026873
  16 S :    0.402274
  17 C :   -0.185481
  18 C :   -0.068153
  19 C :   -0.043139
  20 C :   -0.206480
  21 H :    0.030452
  22 C :   -0.047250
  23 H :    0.032766
  24 H :    0.048890
  25 C :   -0.037064
  26 H :    0.030722
  27 H :    0.026043
  28 C :   -0.066163
  29 H :    0.023424
  30 H :    0.033253
  31 H :    0.018968
  32 H :    0.028953
  33 H :    0.028338

  Mayer bond orders larger than 0.100000
B(  0-S ,  1-C ) :   1.0983 B(  0-S ,  4-C ) :   1.1410 B(  1-C ,  2-C ) :   1.6729
B(  1-C , 32-H ) :   0.9616 B(  2-C ,  3-C ) :   1.1936 B(  2-C ,  6-C ) :   1.0124
B(  3-C ,  4-C ) :   1.5955 B(  3-C ,  5-H ) :   1.0061 B(  4-C , 20-C ) :   1.0425
B(  6-C ,  7-H ) :   0.9515 B(  6-C ,  8-H ) :   0.9525 B(  6-C ,  9-C ) :   1.0482
B(  9-C , 10-H ) :   0.9594 B(  9-C , 11-H ) :   0.9581 B(  9-C , 12-C ) :   1.0802
B( 12-C , 13-H ) :   0.9733 B( 12-C , 14-H ) :   0.9736 B( 12-C , 15-H ) :   0.9734
B( 16-S , 17-C ) :   1.1310 B( 16-S , 20-C ) :   1.1447 B( 17-C , 18-C ) :   1.6553
B( 17-C , 33-H ) :   0.9632 B( 18-C , 19-C ) :   1.2104 B( 18-C , 21-H ) :   0.9829
B( 19-C , 20-C ) :   1.5825 B( 19-C , 22-C ) :   1.0592 B( 22-C , 23-H ) :   0.9311
B( 22-C , 24-H ) :   0.9183 B( 22-C , 25-C ) :   1.0510 B( 25-C , 26-H ) :   0.9513
B( 25-C , 27-H ) :   0.9607 B( 25-C , 28-C ) :   1.0826 B( 28-C , 29-H ) :   0.9768
B( 28-C , 30-H ) :   0.9730 B( 28-C , 31-H ) :   0.9764

Dispersion correction           -0.013867473
FINAL SINGLE POINT ENERGY     -1339.861742030792

DIPOLE MOMENT
-------------
                                X             Y             Z
Electronic contribution:     11.93407     -24.07322      12.77187
Nuclear contribution   :    -12.22200      24.68172     -12.82309
                        -----------------------------------------
Total Dipole Moment    :     -0.28792       0.60850      -0.05122
                        -----------------------------------------
Magnitude (a.u.)       :      0.67513
Magnitude (Debye)      :      1.71604

Rotational constants in cm-1:     0.017298     0.008224     0.006373
Rotational constants in MHz :   518.576461   246.546787   191.072598

                             ****ORCA TERMINATED NORMALLY****
TOTAL RUN TIME: 0 days 0 hours 0 minutes 21 seconds 279 msec
