                         Program Version 4.2.1 -  RELEASE  -
|  1> ! wB97X-D3 SP def2-SVP
|  2> %pal
|  3> nprocs 24
|  4> end
|  5>
|  6> * xyz 0 1
|  7> S 	 -80.3674 	 -42.1075 	 -92.5669
|  8> C 	 -80.0048 	 -40.4667 	 -93.077
|  9> C 	 -81.1421 	 -39.873 	 -93.645
| 10> C 	 -82.3026 	 -40.651 	 -93.3706
| 11> C 	 -82.1448 	 -41.8385 	 -92.7086
| 12> H 	 -83.314 	 -40.3889 	 -93.6479
| 13> C 	 -81.159 	 -38.4757 	 -94.2313
| 14> H 	 -80.999 	 -37.826 	 -93.3691
| 15> H 	 -82.1859 	 -38.2965 	 -94.4823
| 16> C 	 -80.1619 	 -38.1967 	 -95.3355
| 17> H 	 -79.1458 	 -38.4438 	 -94.9209
| 18> H 	 -80.426 	 -38.7504 	 -96.2629
| 19> C 	 -80.2494 	 -36.7765 	 -95.7869
| 20> H 	 -80.0225 	 -36.0516 	 -94.9939
| 21> H 	 -79.5051 	 -36.6078 	 -96.5738
| 22> H 	 -81.2527 	 -36.6534 	 -96.2422
| 23> S 	 -84.7672 	 -42.7981 	 -92.9804
| 24> C 	 -85.3654 	 -43.8394 	 -91.7575
| 25> C 	 -84.4446 	 -44.1833 	 -90.839
| 26> C 	 -83.2102 	 -43.5367 	 -90.9809
| 27> C 	 -83.2049 	 -42.7545 	 -92.1528
| 28> H 	 -84.6581 	 -44.9352 	 -90.0793
| 29> C 	 -82.1652 	 -43.5341 	 -89.9309
| 30> H 	 -82.4924 	 -43.6435 	 -88.8669
| 31> H 	 -81.7502 	 -42.5368 	 -89.9429
| 32> C 	 -81.0665 	 -44.6763 	 -90.1477
| 33> H 	 -80.3327 	 -44.3554 	 -89.398
| 34> H 	 -80.4711 	 -44.4306 	 -91.037
| 35> C 	 -81.5204 	 -46.0788 	 -90.0377
| 36> H 	 -80.6589 	 -46.8286 	 -90.0858
| 37> H 	 -82.2924 	 -46.2398 	 -90.8148
| 38> H 	 -81.8638 	 -46.2996 	 -89.0189
| 39> H 	 -78.9908 	 -40.0435 	 -93.1234
| 40> H 	 -86.3241 	 -44.3876 	 -91.8221
| 41> *
| 42>
| 43>                          ****END OF INPUT****

CARTESIAN COORDINATES (ANGSTROEM)
---------------------------------
  S    -80.367400  -42.107500  -92.566900
  C    -80.004800  -40.466700  -93.077000
  C    -81.142100  -39.873000  -93.645000
  C    -82.302600  -40.651000  -93.370600
  C    -82.144800  -41.838500  -92.708600
  H    -83.314000  -40.388900  -93.647900
  C    -81.159000  -38.475700  -94.231300
  H    -80.999000  -37.826000  -93.369100
  H    -82.185900  -38.296500  -94.482300
  C    -80.161900  -38.196700  -95.335500
  H    -79.145800  -38.443800  -94.920900
  H    -80.426000  -38.750400  -96.262900
  C    -80.249400  -36.776500  -95.786900
  H    -80.022500  -36.051600  -94.993900
  H    -79.505100  -36.607800  -96.573800
  H    -81.252700  -36.653400  -96.242200
  S    -84.767200  -42.798100  -92.980400
  C    -85.365400  -43.839400  -91.757500
  C    -84.444600  -44.183300  -90.839000
  C    -83.210200  -43.536700  -90.980900
  C    -83.204900  -42.754500  -92.152800
  H    -84.658100  -44.935200  -90.079300
  C    -82.165200  -43.534100  -89.930900
  H    -82.492400  -43.643500  -88.866900
  H    -81.750200  -42.536800  -89.942900
  C    -81.066500  -44.676300  -90.147700
  H    -80.332700  -44.355400  -89.398000
  H    -80.471100  -44.430600  -91.037000
  C    -81.520400  -46.078800  -90.037700
  H    -80.658900  -46.828600  -90.085800
  H    -82.292400  -46.239800  -90.814800
  H    -81.863800  -46.299600  -89.018900
  H    -78.990800  -40.043500  -93.123400
  H    -86.324100  -44.387600  -91.822100

 Total Charge           Charge          ....    0
 Multiplicity           Mult            ....    1
 Number of Electrons    NEL             ....  134
 Basis Dimension        Dim             ....  322

ORBITAL ENERGIES
----------------

  NO   OCC          E(Eh)            E(eV)
   0   2.0000     -88.969811     -2420.9916
   1   2.0000     -88.965314     -2420.8693
   2   2.0000     -10.334890      -281.2267
   3   2.0000     -10.334553      -281.2175
   4   2.0000     -10.316296      -280.7207
   5   2.0000     -10.312563      -280.6191
   6   2.0000     -10.301698      -280.3234
   7   2.0000     -10.300808      -280.2992
   8   2.0000     -10.291077      -280.0344
   9   2.0000     -10.290985      -280.0319
  10   2.0000     -10.290484      -280.0183
  11   2.0000     -10.288300      -279.9589
  12   2.0000     -10.286532      -279.9108
  13   2.0000     -10.282848      -279.8105
  14   2.0000     -10.282159      -279.7918
  15   2.0000     -10.279470      -279.7186
  16   2.0000      -8.084713      -219.9962
  17   2.0000      -8.078418      -219.8249
  18   2.0000      -6.043178      -164.4432
  19   2.0000      -6.039298      -164.3377
  20   2.0000      -6.037075      -164.2772
  21   2.0000      -6.035430      -164.2324
  22   2.0000      -6.033191      -164.1715
  23   2.0000      -6.029083      -164.0597
  24   2.0000      -1.006041       -27.3758
  25   2.0000      -0.984111       -26.7790
  26   2.0000      -0.917374       -24.9630
  27   2.0000      -0.907572       -24.6963
  28   2.0000      -0.866816       -23.5873
  29   2.0000      -0.855141       -23.2696
  30   2.0000      -0.847773       -23.0691
  31   2.0000      -0.816153       -22.2087
  32   2.0000      -0.782491       -21.2927
  33   2.0000      -0.768321       -20.9071
  34   2.0000      -0.703097       -19.1322
  35   2.0000      -0.697623       -18.9833
  36   2.0000      -0.684965       -18.6388
  37   2.0000      -0.662742       -18.0341
  38   2.0000      -0.632655       -17.2154
  39   2.0000      -0.613902       -16.7051
  40   2.0000      -0.600158       -16.3311
  41   2.0000      -0.578930       -15.7535
  42   2.0000      -0.563646       -15.3376
  43   2.0000      -0.547082       -14.8869
  44   2.0000      -0.544716       -14.8225
  45   2.0000      -0.524653       -14.2765
  46   2.0000      -0.514473       -13.9995
  47   2.0000      -0.509108       -13.8535
  48   2.0000      -0.506314       -13.7775
  49   2.0000      -0.495642       -13.4871
  50   2.0000      -0.492044       -13.3892
  51   2.0000      -0.483051       -13.1445
  52   2.0000      -0.472143       -12.8477
  53   2.0000      -0.466913       -12.7054
  54   2.0000      -0.459316       -12.4986
  55   2.0000      -0.448660       -12.2087
  56   2.0000      -0.441079       -12.0024
  57   2.0000      -0.433852       -11.8057
  58   2.0000      -0.430444       -11.7130
  59   2.0000      -0.424442       -11.5497
  60   2.0000      -0.418975       -11.4009
  61   2.0000      -0.410740       -11.1768
  62   2.0000      -0.405734       -11.0406
  63   2.0000      -0.354441        -9.6448
  64   2.0000      -0.333858        -9.0847
  65   2.0000      -0.325885        -8.8678
  66   2.0000      -0.284166        -7.7325
  67   0.0000       0.021043         0.5726
  68   0.0000       0.079928         2.1750
  69   0.0000       0.106842         2.9073
  70   0.0000       0.114176         3.1069
  71   0.0000       0.131962         3.5909

MULLIKEN ATOMIC CHARGES
-----------------------
   0 S :    0.087004
   1 C :   -0.138465
   2 C :   -0.077287
   3 C :    0.002452
   4 C :   -0.121430
   5 H :    0.004306
   6 C :    0.072553
   7 H :    0.038213
   8 H :    0.002118
   9 C :   -0.086015
  10 H :    0.032980
  11 H :    0.040954
  12 C :   -0.045406
  13 H :    0.032475
  14 H :    0.033565
  15 H :    0.035278
  16 S :    0.109556
  17 C :   -0.088017
  18 C :   -0.039353
  19 C :   -0.023918
  20 C :   -0.150610
  21 H :    0.019380
  22 C :    0.018254
  23 H :    0.034002
  24 H :    0.030283
  25 C :   -0.078184
  26 H :    0.017987
  27 H :    0.027154
  28 C :   -0.039633
  29 H :    0.044697
  30 H :    0.053718
  31 H :    0.023760
  32 H :    0.063144
  33 H :    0.064487
Sum of atomic charges:   -0.0000000

LOEWDIN ATOMIC CHARGES
----------------------
   0 S :    0.391403
   1 C :   -0.199624
   2 C :   -0.061433
   3 C :   -0.074713
   4 C :   -0.173014
   5 H :    0.023144
   6 C :   -0.034703
   7 H :    0.037711
   8 H :    0.024239
   9 C :   -0.044106
  10 H :    0.026091
  11 H :    0.034050
  12 C :   -0.066781
  13 H :    0.023298
  14 H :    0.026759
  15 H :    0.029766
  16 S :    0.416499
  17 C :   -0.199384
  18 C :   -0.075490
  19 C :   -0.058318
  20 C :   -0.186706
  21 H :    0.034397
  22 C :   -0.036808
  23 H :    0.035229
  24 H :    0.029910
  25 C :   -0.049322
  26 H :    0.023913
  27 H :    0.013026
  28 C :   -0.074620
  29 H :    0.039279
  30 H :    0.032513
  31 H :    0.025266
  32 H :    0.031277
  33 H :    0.037257

  Mayer bond orders larger than 0.100000
B(  0-S ,  1-C ) :   1.1422 B(  0-S ,  4-C ) :   1.1278 B(  1-C ,  2-C ) :   1.5820
B(  1-C , 32-H ) :   0.9662 B(  2-C ,  3-C ) :   1.2613 B(  2-C ,  6-C ) :   1.0154
B(  3-C ,  4-C ) :   1.5862 B(  3-C ,  5-H ) :   0.9846 B(  4-C , 20-C ) :   1.0396
B(  6-C ,  7-H ) :   0.9366 B(  6-C ,  8-H ) :   0.9387 B(  6-C ,  9-C ) :   1.0652
B(  9-C , 10-H ) :   0.9520 B(  9-C , 11-H ) :   0.9546 B(  9-C , 12-C ) :   1.0944
B( 12-C , 13-H ) :   0.9722 B( 12-C , 14-H ) :   0.9733 B( 12-C , 15-H ) :   0.9717
B( 16-S , 17-C ) :   1.1534 B( 16-S , 20-C ) :   1.1486 B( 17-C , 18-C ) :   1.6205
B( 17-C , 33-H ) :   0.9562 B( 18-C , 19-C ) :   1.2543 B( 18-C , 21-H ) :   0.9873
B( 19-C , 20-C ) :   1.5599 B( 19-C , 22-C ) :   1.0382 B( 22-C , 23-H ) :   0.9488
B( 22-C , 24-H ) :   0.9260 B( 22-C , 25-C ) :   1.0646 B( 25-C , 26-H ) :   0.9520
B( 25-C , 27-H ) :   0.9513 B( 25-C , 28-C ) :   1.0768 B( 28-C , 29-H ) :   0.9674
B( 28-C , 30-H ) :   0.9698 B( 28-C , 31-H ) :   0.9692

Dispersion correction           -0.014132156
FINAL SINGLE POINT ENERGY     -1339.877656780412

DIPOLE MOMENT
-------------
                                X             Y             Z
Electronic contribution:    -10.66686      -7.30599      -0.53037
Nuclear contribution   :     10.69956       7.53842       0.66569
                        -----------------------------------------
Total Dipole Moment    :      0.03269       0.23243       0.13532
                        -----------------------------------------
Magnitude (a.u.)       :      0.27093
Magnitude (Debye)      :      0.68865

Rotational constants in cm-1:     0.025695     0.007106     0.005788
Rotational constants in MHz :   770.306127   213.023253   173.512623

                             ****ORCA TERMINATED NORMALLY****
TOTAL RUN TIME: 0 days 0 hours 0 minutes 21 seconds 307 msec
