                         Program Version 4.2.1 -  RELEASE  -
|  1> ! wB97X-D3 SP def2-SVP
|  2> %pal
|  3> nprocs 24
|  4> end
|  5>
|  6> * xyz 0 1
|  7> S 	 -85.2431 	 -44.2853 	 -73.5219
|  8> C 	 -84.7489 	 -45.9044 	 -73.9272
|  9> C 	 -85.8536 	 -46.6984 	 -74.2825
| 10> C 	 -87.0712 	 -45.9579 	 -74.2651
| 11> C 	 -86.9336 	 -44.6413 	 -73.9589
| 12> H 	 -88.039 	 -46.4217 	 -74.519
| 13> C 	 -85.649 	 -48.1151 	 -74.7178
| 14> H 	 -85.6856 	 -48.7675 	 -73.8005
| 15> H 	 -84.6154 	 -48.1714 	 -75.1044
| 16> C 	 -86.6729 	 -48.7634 	 -75.7068
| 17> H 	 -86.314 	 -49.7084 	 -75.9531
| 18> H 	 -87.6957 	 -48.9175 	 -75.251
| 19> C 	 -86.7103 	 -47.9168 	 -77.015
| 20> H 	 -87.3827 	 -48.3169 	 -77.8
| 21> H 	 -86.8271 	 -46.8245 	 -76.7548
| 22> H 	 -85.7253 	 -47.9889 	 -77.4158
| 23> S 	 -87.6837 	 -42.14 	 -74.5729
| 24> C 	 -89.1628 	 -41.4477 	 -73.8023
| 25> C 	 -89.8648 	 -42.3978 	 -73.1078
| 26> C 	 -89.1868 	 -43.6594 	 -73.0055
| 27> C 	 -88.0195 	 -43.671 	 -73.7283
| 28> H 	 -90.7953 	 -42.005 	 -72.7112
| 29> C 	 -89.8548 	 -44.8475 	 -72.3689
| 30> H 	 -89.1555 	 -45.352 	 -71.7221
| 31> H 	 -90.0621 	 -45.4286 	 -73.2799
| 32> C 	 -91.1451 	 -44.5377 	 -71.5106
| 33> H 	 -91.032 	 -43.5675 	 -70.9782
| 34> H 	 -91.0928 	 -45.1891 	 -70.6911
| 35> C 	 -92.4917 	 -44.6412 	 -72.1355
| 36> H 	 -92.6942 	 -43.9971 	 -72.9815
| 37> H 	 -93.2875 	 -44.3646 	 -71.3661
| 38> H 	 -92.6893 	 -45.6772 	 -72.3395
| 39> H 	 -83.7445 	 -46.3401 	 -73.8705
| 40> H 	 -89.6282 	 -40.5223 	 -74.1068
| 41> *
| 42>
| 43>                          ****END OF INPUT****

CARTESIAN COORDINATES (ANGSTROEM)
---------------------------------
  S    -85.243100  -44.285300  -73.521900
  C    -84.748900  -45.904400  -73.927200
  C    -85.853600  -46.698400  -74.282500
  C    -87.071200  -45.957900  -74.265100
  C    -86.933600  -44.641300  -73.958900
  H    -88.039000  -46.421700  -74.519000
  C    -85.649000  -48.115100  -74.717800
  H    -85.685600  -48.767500  -73.800500
  H    -84.615400  -48.171400  -75.104400
  C    -86.672900  -48.763400  -75.706800
  H    -86.314000  -49.708400  -75.953100
  H    -87.695700  -48.917500  -75.251000
  C    -86.710300  -47.916800  -77.015000
  H    -87.382700  -48.316900  -77.800000
  H    -86.827100  -46.824500  -76.754800
  H    -85.725300  -47.988900  -77.415800
  S    -87.683700  -42.140000  -74.572900
  C    -89.162800  -41.447700  -73.802300
  C    -89.864800  -42.397800  -73.107800
  C    -89.186800  -43.659400  -73.005500
  C    -88.019500  -43.671000  -73.728300
  H    -90.795300  -42.005000  -72.711200
  C    -89.854800  -44.847500  -72.368900
  H    -89.155500  -45.352000  -71.722100
  H    -90.062100  -45.428600  -73.279900
  C    -91.145100  -44.537700  -71.510600
  H    -91.032000  -43.567500  -70.978200
  H    -91.092800  -45.189100  -70.691100
  C    -92.491700  -44.641200  -72.135500
  H    -92.694200  -43.997100  -72.981500
  H    -93.287500  -44.364600  -71.366100
  H    -92.689300  -45.677200  -72.339500
  H    -83.744500  -46.340100  -73.870500
  H    -89.628200  -40.522300  -74.106800

 Total Charge           Charge          ....    0
 Multiplicity           Mult            ....    1
 Number of Electrons    NEL             ....  134
 Basis Dimension        Dim             ....  322

ORBITAL ENERGIES
----------------

  NO   OCC          E(Eh)            E(eV)
   0   2.0000     -88.966707     -2420.9072
   1   2.0000     -88.960780     -2420.7459
   2   2.0000     -10.329335      -281.0755
   3   2.0000     -10.326127      -280.9882
   4   2.0000     -10.315662      -280.7034
   5   2.0000     -10.314463      -280.6708
   6   2.0000     -10.305753      -280.4338
   7   2.0000     -10.299796      -280.2717
   8   2.0000     -10.297781      -280.2169
   9   2.0000     -10.295384      -280.1516
  10   2.0000     -10.294499      -280.1276
  11   2.0000     -10.293615      -280.1035
  12   2.0000     -10.290891      -280.0294
  13   2.0000     -10.286376      -279.9065
  14   2.0000     -10.281332      -279.7693
  15   2.0000     -10.277378      -279.6617
  16   2.0000      -8.080795      -219.8896
  17   2.0000      -8.074516      -219.7187
  18   2.0000      -6.039401      -164.3405
  19   2.0000      -6.035349      -164.2302
  20   2.0000      -6.033114      -164.1694
  21   2.0000      -6.031516      -164.1259
  22   2.0000      -6.029282      -164.0651
  23   2.0000      -6.025116      -163.9517
  24   2.0000      -1.002038       -27.2668
  25   2.0000      -0.979200       -26.6454
  26   2.0000      -0.910198       -24.7677
  27   2.0000      -0.906666       -24.6716
  28   2.0000      -0.867563       -23.6076
  29   2.0000      -0.853398       -23.2221
  30   2.0000      -0.841830       -22.9074
  31   2.0000      -0.819886       -22.3102
  32   2.0000      -0.781282       -21.2598
  33   2.0000      -0.767185       -20.8762
  34   2.0000      -0.711908       -19.3720
  35   2.0000      -0.700772       -19.0690
  36   2.0000      -0.691201       -18.8085
  37   2.0000      -0.655320       -17.8322
  38   2.0000      -0.634835       -17.2748
  39   2.0000      -0.623391       -16.9633
  40   2.0000      -0.592297       -16.1172
  41   2.0000      -0.562344       -15.3022
  42   2.0000      -0.555590       -15.1184
  43   2.0000      -0.549389       -14.9496
  44   2.0000      -0.539942       -14.6926
  45   2.0000      -0.539173       -14.6716
  46   2.0000      -0.523427       -14.2432
  47   2.0000      -0.508485       -13.8366
  48   2.0000      -0.506436       -13.7808
  49   2.0000      -0.497390       -13.5347
  50   2.0000      -0.487287       -13.2597
  51   2.0000      -0.477569       -12.9953
  52   2.0000      -0.466578       -12.6962
  53   2.0000      -0.459969       -12.5164
  54   2.0000      -0.456172       -12.4131
  55   2.0000      -0.448691       -12.2095
  56   2.0000      -0.443947       -12.0804
  57   2.0000      -0.439552       -11.9608
  58   2.0000      -0.429380       -11.6840
  59   2.0000      -0.424725       -11.5574
  60   2.0000      -0.419772       -11.4226
  61   2.0000      -0.417918       -11.3721
  62   2.0000      -0.412094       -11.2137
  63   2.0000      -0.346637        -9.4325
  64   2.0000      -0.328733        -8.9453
  65   2.0000      -0.327467        -8.9108
  66   2.0000      -0.290672        -7.9096
  67   0.0000       0.031682         0.8621
  68   0.0000       0.065177         1.7736
  69   0.0000       0.104140         2.8338
  70   0.0000       0.121923         3.3177
  71   0.0000       0.132310         3.6003

MULLIKEN ATOMIC CHARGES
-----------------------
   0 S :    0.122641
   1 C :   -0.125949
   2 C :   -0.117770
   3 C :    0.012386
   4 C :   -0.112027
   5 H :    0.022236
   6 C :    0.026834
   7 H :    0.049810
   8 H :    0.028812
   9 C :   -0.056290
  10 H :    0.015511
  11 H :    0.038651
  12 C :   -0.071268
  13 H :    0.045132
  14 H :    0.057902
  15 H :    0.014963
  16 S :    0.078730
  17 C :   -0.079459
  18 C :   -0.060522
  19 C :   -0.022948
  20 C :   -0.186693
  21 H :    0.026023
  22 C :    0.070296
  23 H :    0.038189
  24 H :    0.051014
  25 C :   -0.070766
  26 H :    0.027375
  27 H :    0.009515
  28 C :   -0.039803
  29 H :    0.036440
  30 H :    0.035714
  31 H :    0.029486
  32 H :    0.053433
  33 H :    0.052399
Sum of atomic charges:   -0.0000000

LOEWDIN ATOMIC CHARGES
----------------------
   0 S :    0.402506
   1 C :   -0.206035
   2 C :   -0.069895
   3 C :   -0.069109
   4 C :   -0.192121
   5 H :    0.035955
   6 C :   -0.038627
   7 H :    0.040534
   8 H :    0.033240
   9 C :   -0.038894
  10 H :    0.016668
  11 H :    0.026116
  12 C :   -0.073418
  13 H :    0.028228
  14 H :    0.035397
  15 H :    0.020045
  16 S :    0.363978
  17 C :   -0.166028
  18 C :   -0.073116
  19 C :   -0.053888
  20 C :   -0.185123
  21 H :    0.035909
  22 C :   -0.027539
  23 H :    0.035405
  24 H :    0.040690
  25 C :   -0.046339
  26 H :    0.028441
  27 H :    0.020574
  28 C :   -0.066937
  29 H :    0.022246
  30 H :    0.037433
  31 H :    0.023624
  32 H :    0.033390
  33 H :    0.026688

  Mayer bond orders larger than 0.100000
B(  0-S ,  1-C ) :   1.1417 B(  0-S ,  4-C ) :   1.1439 B(  1-C ,  2-C ) :   1.6032
B(  1-C , 32-H ) :   0.9638 B(  2-C ,  3-C ) :   1.2507 B(  2-C ,  6-C ) :   1.0198
B(  3-C ,  4-C ) :   1.5772 B(  3-C ,  5-H ) :   0.9905 B(  4-C , 20-C ) :   1.0189
B(  6-C ,  7-H ) :   0.9274 B(  6-C ,  8-H ) :   0.9461 B(  6-C ,  9-C ) :   1.0813
B(  9-C , 10-H ) :   0.9518 B(  9-C , 11-H ) :   0.9524 B(  9-C , 12-C ) :   1.0666
B( 12-C , 13-H ) :   0.9754 B( 12-C , 14-H ) :   0.9747 B( 12-C , 15-H ) :   0.9716
B( 16-S , 17-C ) :   1.1265 B( 16-S , 20-C ) :   1.1306 B( 17-C , 18-C ) :   1.6713
B( 17-C , 33-H ) :   0.9588 B( 18-C , 19-C ) :   1.1841 B( 18-C , 21-H ) :   0.9823
B( 19-C , 20-C ) :   1.6442 B( 19-C , 22-C ) :   1.0231 B( 22-C , 23-H ) :   0.9283
B( 22-C , 24-H ) :   0.9422 B( 22-C , 25-C ) :   1.0613 B( 25-C , 26-H ) :   0.9533
B( 25-C , 27-H ) :   0.9512 B( 25-C , 28-C ) :   1.0926 B( 28-C , 29-H ) :   0.9755
B( 28-C , 30-H ) :   0.9678 B( 28-C , 31-H ) :   0.9720

Dispersion correction           -0.014196065
FINAL SINGLE POINT ENERGY     -1339.870285578204

DIPOLE MOMENT
-------------
                                X             Y             Z
Electronic contribution:     15.94888      19.85528       0.74912
Nuclear contribution   :    -16.45962     -20.50785      -0.60600
                        -----------------------------------------
Total Dipole Moment    :     -0.51074      -0.65258       0.14313
                        -----------------------------------------
Magnitude (a.u.)       :      0.84095
Magnitude (Debye)      :      2.13752

Rotational constants in cm-1:     0.018163     0.008456     0.006786
Rotational constants in MHz :   544.503842   253.506066   203.434600

                             ****ORCA TERMINATED NORMALLY****
TOTAL RUN TIME: 0 days 0 hours 0 minutes 21 seconds 398 msec
