                         Program Version 4.2.1 -  RELEASE  -
|  1> ! wB97X-D3 SP def2-SVP
|  2> %pal
|  3> nprocs 24
|  4> end
|  5>
|  6> * xyz 0 1
|  7> S 	 -89.5663 	 -32.3648 	 -73.1841
|  8> C 	 -89.8486 	 -32.7178 	 -74.8903
|  9> C 	 -89.885 	 -31.5968 	 -75.6464
| 10> C 	 -89.788 	 -30.3479 	 -74.8786
| 11> C 	 -89.8549 	 -30.5532 	 -73.4759
| 12> H 	 -89.7389 	 -29.2822 	 -75.2247
| 13> C 	 -89.839 	 -31.4746 	 -77.1905
| 14> H 	 -89.3017 	 -32.3767 	 -77.5839
| 15> H 	 -89.317 	 -30.6028 	 -77.5856
| 16> C 	 -91.2284 	 -31.3413 	 -77.7874
| 17> H 	 -91.0395 	 -31.4797 	 -78.9008
| 18> H 	 -91.8898 	 -32.1403 	 -77.5238
| 19> C 	 -92.0052 	 -29.9673 	 -77.6422
| 20> H 	 -93.0676 	 -30.0987 	 -77.9466
| 21> H 	 -91.9651 	 -29.6722 	 -76.6572
| 22> H 	 -91.5244 	 -29.2115 	 -78.2561
| 23> S 	 -88.8427 	 -29.7003 	 -71.0509
| 24> C 	 -89.4609 	 -28.175 	 -70.2969
| 25> C 	 -90.5129 	 -27.6784 	 -71.0507
| 26> C 	 -90.6604 	 -28.3918 	 -72.2923
| 27> C 	 -89.9679 	 -29.6246 	 -72.4068
| 28> H 	 -90.8226 	 -26.6503 	 -70.7481
| 29> C 	 -91.5312 	 -27.8832 	 -73.4859
| 30> H 	 -92.5705 	 -27.7924 	 -73.2869
| 31> H 	 -91.526 	 -28.615 	 -74.2328
| 32> C 	 -91.0219 	 -26.5737 	 -74.018
| 33> H 	 -89.9097 	 -26.5692 	 -74.1836
| 34> H 	 -91.1661 	 -25.7221 	 -73.3842
| 35> C 	 -91.7984 	 -26.1926 	 -75.3188
| 36> H 	 -91.8256 	 -27.0644 	 -75.9448
| 37> H 	 -91.2583 	 -25.4964 	 -75.8816
| 38> H 	 -92.8124 	 -25.7194 	 -75.1403
| 39> H 	 -89.8493 	 -33.7149 	 -75.4104
| 40> H 	 -89.3046 	 -27.9149 	 -69.3031
| 41> *
| 42>
| 43>                          ****END OF INPUT****

CARTESIAN COORDINATES (ANGSTROEM)
---------------------------------
  S    -89.566300  -32.364800  -73.184100
  C    -89.848600  -32.717800  -74.890300
  C    -89.885000  -31.596800  -75.646400
  C    -89.788000  -30.347900  -74.878600
  C    -89.854900  -30.553200  -73.475900
  H    -89.738900  -29.282200  -75.224700
  C    -89.839000  -31.474600  -77.190500
  H    -89.301700  -32.376700  -77.583900
  H    -89.317000  -30.602800  -77.585600
  C    -91.228400  -31.341300  -77.787400
  H    -91.039500  -31.479700  -78.900800
  H    -91.889800  -32.140300  -77.523800
  C    -92.005200  -29.967300  -77.642200
  H    -93.067600  -30.098700  -77.946600
  H    -91.965100  -29.672200  -76.657200
  H    -91.524400  -29.211500  -78.256100
  S    -88.842700  -29.700300  -71.050900
  C    -89.460900  -28.175000  -70.296900
  C    -90.512900  -27.678400  -71.050700
  C    -90.660400  -28.391800  -72.292300
  C    -89.967900  -29.624600  -72.406800
  H    -90.822600  -26.650300  -70.748100
  C    -91.531200  -27.883200  -73.485900
  H    -92.570500  -27.792400  -73.286900
  H    -91.526000  -28.615000  -74.232800
  C    -91.021900  -26.573700  -74.018000
  H    -89.909700  -26.569200  -74.183600
  H    -91.166100  -25.722100  -73.384200
  C    -91.798400  -26.192600  -75.318800
  H    -91.825600  -27.064400  -75.944800
  H    -91.258300  -25.496400  -75.881600
  H    -92.812400  -25.719400  -75.140300
  H    -89.849300  -33.714900  -75.410400
  H    -89.304600  -27.914900  -69.303100

 Total Charge           Charge          ....    0
 Multiplicity           Mult            ....    1
 Number of Electrons    NEL             ....  134
 Basis Dimension        Dim             ....  322

ORBITAL ENERGIES
----------------

  NO   OCC          E(Eh)            E(eV)
   0   2.0000     -88.967574     -2420.9308
   1   2.0000     -88.964842     -2420.8564
   2   2.0000     -10.343076      -281.4494
   3   2.0000     -10.333844      -281.1982
   4   2.0000     -10.322260      -280.8830
   5   2.0000     -10.322098      -280.8786
   6   2.0000     -10.315091      -280.6879
   7   2.0000     -10.310522      -280.5636
   8   2.0000     -10.306945      -280.4662
   9   2.0000     -10.305232      -280.4196
  10   2.0000     -10.300747      -280.2976
  11   2.0000     -10.289875      -280.0017
  12   2.0000     -10.287407      -279.9346
  13   2.0000     -10.283604      -279.8311
  14   2.0000     -10.279462      -279.7184
  15   2.0000     -10.277595      -279.6676
  16   2.0000      -8.080616      -219.8847
  17   2.0000      -8.078654      -219.8314
  18   2.0000      -6.039520      -164.3437
  19   2.0000      -6.037353      -164.2847
  20   2.0000      -6.035603      -164.2371
  21   2.0000      -6.033170      -164.1709
  22   2.0000      -6.030776      -164.1058
  23   2.0000      -6.029360      -164.0672
  24   2.0000      -0.998163       -27.1614
  25   2.0000      -0.974854       -26.5271
  26   2.0000      -0.910334       -24.7714
  27   2.0000      -0.907362       -24.6906
  28   2.0000      -0.876120       -23.8404
  29   2.0000      -0.843894       -22.9635
  30   2.0000      -0.835667       -22.7397
  31   2.0000      -0.816981       -22.2312
  32   2.0000      -0.785667       -21.3791
  33   2.0000      -0.773907       -21.0591
  34   2.0000      -0.713396       -19.4125
  35   2.0000      -0.704093       -19.1593
  36   2.0000      -0.695809       -18.9339
  37   2.0000      -0.658997       -17.9322
  38   2.0000      -0.635629       -17.2963
  39   2.0000      -0.613011       -16.6809
  40   2.0000      -0.593916       -16.1613
  41   2.0000      -0.577372       -15.7111
  42   2.0000      -0.567782       -15.4501
  43   2.0000      -0.547873       -14.9084
  44   2.0000      -0.539621       -14.6838
  45   2.0000      -0.527229       -14.3466
  46   2.0000      -0.515128       -14.0173
  47   2.0000      -0.511504       -13.9187
  48   2.0000      -0.506382       -13.7793
  49   2.0000      -0.505339       -13.7510
  50   2.0000      -0.488886       -13.3033
  51   2.0000      -0.485423       -13.2090
  52   2.0000      -0.470241       -12.7959
  53   2.0000      -0.467203       -12.7132
  54   2.0000      -0.459191       -12.4952
  55   2.0000      -0.447201       -12.1690
  56   2.0000      -0.442820       -12.0497
  57   2.0000      -0.438001       -11.9186
  58   2.0000      -0.436115       -11.8673
  59   2.0000      -0.424418       -11.5490
  60   2.0000      -0.418818       -11.3966
  61   2.0000      -0.408640       -11.1197
  62   2.0000      -0.403268       -10.9735
  63   2.0000      -0.357668        -9.7326
  64   2.0000      -0.331606        -9.0235
  65   2.0000      -0.326594        -8.8871
  66   2.0000      -0.288231        -7.8432
  67   0.0000       0.010277         0.2796
  68   0.0000       0.063814         1.7365
  69   0.0000       0.095577         2.6008
  70   0.0000       0.116842         3.1794
  71   0.0000       0.122070         3.3217

MULLIKEN ATOMIC CHARGES
-----------------------
   0 S :    0.093052
   1 C :   -0.113795
   2 C :   -0.085000
   3 C :    0.015460
   4 C :   -0.163901
   5 H :    0.044092
   6 C :    0.051892
   7 H :    0.036583
   8 H :    0.030314
   9 C :   -0.100923
  10 H :    0.031613
  11 H :    0.024066
  12 C :   -0.034493
  13 H :    0.047413
  14 H :    0.019016
  15 H :    0.031575
  16 S :    0.076150
  17 C :   -0.083168
  18 C :   -0.028937
  19 C :   -0.078232
  20 C :   -0.101031
  21 H :    0.050552
  22 C :    0.134942
  23 H :    0.018571
  24 H :   -0.025194
  25 C :   -0.109797
  26 H :    0.036751
  27 H :    0.023928
  28 C :   -0.032388
  29 H :    0.012941
  30 H :    0.014112
  31 H :    0.048883
  32 H :    0.064935
  33 H :    0.050016
Sum of atomic charges:    0.0000000

LOEWDIN ATOMIC CHARGES
----------------------
   0 S :    0.353538
   1 C :   -0.195260
   2 C :   -0.069632
   3 C :   -0.057982
   4 C :   -0.160377
   5 H :    0.041227
   6 C :   -0.033121
   7 H :    0.035793
   8 H :    0.032868
   9 C :   -0.043004
  10 H :    0.027949
  11 H :    0.016497
  12 C :   -0.058804
  13 H :    0.036863
  14 H :    0.007432
  15 H :    0.023941
  16 S :    0.375017
  17 C :   -0.154575
  18 C :   -0.074271
  19 C :   -0.043491
  20 C :   -0.201028
  21 H :    0.045858
  22 C :   -0.026650
  23 H :    0.028568
  24 H :    0.014700
  25 C :   -0.041782
  26 H :    0.027854
  27 H :    0.019170
  28 C :   -0.063096
  29 H :    0.018984
  30 H :    0.017246
  31 H :    0.035003
  32 H :    0.045949
  33 H :    0.018617

  Mayer bond orders larger than 0.100000
B(  0-S ,  1-C ) :   1.1117 B(  0-S ,  4-C ) :   1.1029 B(  1-C ,  2-C ) :   1.6855
B(  1-C , 32-H ) :   0.9526 B(  2-C ,  3-C ) :   1.1868 B(  2-C ,  6-C ) :   1.0113
B(  3-C ,  4-C ) :   1.5820 B(  3-C ,  5-H ) :   0.9779 B(  4-C , 20-C ) :   1.1092
B(  6-C ,  7-H ) :   0.9439 B(  6-C ,  8-H ) :   0.9499 B(  6-C ,  9-C ) :   1.0655
B(  9-C , 10-H ) :   0.9579 B(  9-C , 11-H ) :   0.9588 B(  9-C , 12-C ) :   1.0713
B( 12-C , 13-H ) :   0.9709 B( 12-C , 14-H ) :   0.9793 B( 12-C , 15-H ) :   0.9751
B( 16-S , 17-C ) :   1.1505 B( 16-S , 20-C ) :   1.1182 B( 17-C , 18-C ) :   1.6238
B( 17-C , 20-C ) :   0.1042 B( 17-C , 33-H ) :   0.9657 B( 18-C , 19-C ) :   1.2398
B( 18-C , 21-H ) :   0.9774 B( 19-C , 20-C ) :   1.5689 B( 19-C , 22-C ) :   1.0405
B( 22-C , 23-H ) :   0.9278 B( 22-C , 24-H ) :   0.9370 B( 22-C , 25-C ) :   1.0564
B( 25-C , 26-H ) :   0.9567 B( 25-C , 27-H ) :   0.9537 B( 25-C , 28-C ) :   1.0808
B( 28-C , 29-H ) :   0.9756 B( 28-C , 30-H ) :   0.9710 B( 28-C , 31-H ) :   0.9741

Dispersion correction           -0.015256849
FINAL SINGLE POINT ENERGY     -1339.843175753806

DIPOLE MOMENT
-------------
                                X             Y             Z
Electronic contribution:     13.71264     -15.22866      26.02424
Nuclear contribution   :    -13.94029      15.77146     -26.61507
                        -----------------------------------------
Total Dipole Moment    :     -0.22765       0.54280      -0.59083
                        -----------------------------------------
Magnitude (a.u.)       :      0.83399
Magnitude (Debye)      :      2.11983

Rotational constants in cm-1:     0.016782     0.010632     0.006808
Rotational constants in MHz :   503.099940   318.730778   204.109810

                             ****ORCA TERMINATED NORMALLY****
TOTAL RUN TIME: 0 days 0 hours 0 minutes 22 seconds 581 msec
