                         Program Version 4.2.1 -  RELEASE  -
|  1> ! wB97X-D3 SP def2-SVP
|  2> %pal
|  3> nprocs 24
|  4> end
|  5>
|  6> * xyz 0 1
|  7> S 	 -147.754 	 11.8221 	 -8.71925
|  8> C 	 -147.476 	 10.7881 	 -10.1442
|  9> C 	 -147.485 	 11.4889 	 -11.3269
| 10> C 	 -148.009 	 12.7877 	 -11.1141
| 11> C 	 -148.252 	 13.1279 	 -9.80102
| 12> H 	 -147.971 	 13.4877 	 -11.9304
| 13> C 	 -147.018 	 10.9122 	 -12.5786
| 14> H 	 -147.771 	 11.0982 	 -13.3721
| 15> H 	 -146.798 	 9.84262 	 -12.5546
| 16> C 	 -145.68 	 11.5146 	 -12.9702
| 17> H 	 -145.416 	 11.3033 	 -13.9759
| 18> H 	 -145.686 	 12.5845 	 -12.8948
| 19> C 	 -144.448 	 11.1041 	 -12.09
| 20> H 	 -144.494 	 11.5518 	 -11.0795
| 21> H 	 -144.288 	 9.98667 	 -11.911
| 22> H 	 -143.532 	 11.4407 	 -12.5678
| 23> S 	 -147.089 	 15.5333 	 -9.04066
| 24> C 	 -148.089 	 16.9213 	 -8.75654
| 25> C 	 -149.425 	 16.6501 	 -8.82073
| 26> C 	 -149.712 	 15.3257 	 -9.33172
| 27> C 	 -148.531 	 14.5337 	 -9.35816
| 28> H 	 -150.132 	 17.4778 	 -8.61632
| 29> C 	 -151.096 	 14.7269 	 -9.41265
| 30> H 	 -151.133 	 13.8672 	 -10.0744
| 31> H 	 -151.854 	 15.3663 	 -9.77032
| 32> C 	 -151.67 	 14.333 	 -8.08909
| 33> H 	 -150.978 	 13.7721 	 -7.55721
| 34> H 	 -152.492 	 13.6819 	 -8.20877
| 35> C 	 -152.098 	 15.4565 	 -7.13657
| 36> H 	 -152.755 	 16.252 	 -7.59812
| 37> H 	 -151.197 	 15.9467 	 -6.66581
| 38> H 	 -152.633 	 15.165 	 -6.2911
| 39> H 	 -147.112 	 9.72183 	 -10.0963
| 40> H 	 -147.748 	 17.9625 	 -8.55092
| 41> *
| 42>
| 43>                          ****END OF INPUT****

CARTESIAN COORDINATES (ANGSTROEM)
---------------------------------
  S    -147.754000   11.822100   -8.719250
  C    -147.476000   10.788100  -10.144200
  C    -147.485000   11.488900  -11.326900
  C    -148.009000   12.787700  -11.114100
  C    -148.252000   13.127900   -9.801020
  H    -147.971000   13.487700  -11.930400
  C    -147.018000   10.912200  -12.578600
  H    -147.771000   11.098200  -13.372100
  H    -146.798000    9.842620  -12.554600
  C    -145.680000   11.514600  -12.970200
  H    -145.416000   11.303300  -13.975900
  H    -145.686000   12.584500  -12.894800
  C    -144.448000   11.104100  -12.090000
  H    -144.494000   11.551800  -11.079500
  H    -144.288000    9.986670  -11.911000
  H    -143.532000   11.440700  -12.567800
  S    -147.089000   15.533300   -9.040660
  C    -148.089000   16.921300   -8.756540
  C    -149.425000   16.650100   -8.820730
  C    -149.712000   15.325700   -9.331720
  C    -148.531000   14.533700   -9.358160
  H    -150.132000   17.477800   -8.616320
  C    -151.096000   14.726900   -9.412650
  H    -151.133000   13.867200  -10.074400
  H    -151.854000   15.366300   -9.770320
  C    -151.670000   14.333000   -8.089090
  H    -150.978000   13.772100   -7.557210
  H    -152.492000   13.681900   -8.208770
  C    -152.098000   15.456500   -7.136570
  H    -152.755000   16.252000   -7.598120
  H    -151.197000   15.946700   -6.665810
  H    -152.633000   15.165000   -6.291100
  H    -147.112000    9.721830  -10.096300
  H    -147.748000   17.962500   -8.550920

 Total Charge           Charge          ....    0
 Multiplicity           Mult            ....    1
 Number of Electrons    NEL             ....  134
 Basis Dimension        Dim             ....  322

ORBITAL ENERGIES
----------------

  NO   OCC          E(Eh)            E(eV)
   0   2.0000     -88.968982     -2420.9691
   1   2.0000     -88.965633     -2420.8780
   2   2.0000     -10.333967      -281.2015
   3   2.0000     -10.333095      -281.1778
   4   2.0000     -10.317731      -280.7597
   5   2.0000     -10.316483      -280.7258
   6   2.0000     -10.310943      -280.5750
   7   2.0000     -10.295565      -280.1566
   8   2.0000     -10.295094      -280.1438
   9   2.0000     -10.293727      -280.1065
  10   2.0000     -10.292741      -280.0797
  11   2.0000     -10.284606      -279.8584
  12   2.0000     -10.283047      -279.8159
  13   2.0000     -10.282204      -279.7930
  14   2.0000     -10.274699      -279.5888
  15   2.0000     -10.269741      -279.4539
  16   2.0000      -8.082784      -219.9437
  17   2.0000      -8.080098      -219.8706
  18   2.0000      -6.041365      -164.3939
  19   2.0000      -6.038626      -164.3194
  20   2.0000      -6.037590      -164.2912
  21   2.0000      -6.034649      -164.2111
  22   2.0000      -6.033349      -164.1758
  23   2.0000      -6.030853      -164.1079
  24   2.0000      -1.001797       -27.2603
  25   2.0000      -0.982651       -26.7393
  26   2.0000      -0.918502       -24.9937
  27   2.0000      -0.914279       -24.8788
  28   2.0000      -0.861982       -23.4557
  29   2.0000      -0.845628       -23.0107
  30   2.0000      -0.842933       -22.9374
  31   2.0000      -0.813208       -22.1285
  32   2.0000      -0.786221       -21.3942
  33   2.0000      -0.773532       -21.0489
  34   2.0000      -0.709833       -19.3155
  35   2.0000      -0.696822       -18.9615
  36   2.0000      -0.688091       -18.7239
  37   2.0000      -0.651825       -17.7371
  38   2.0000      -0.635687       -17.2979
  39   2.0000      -0.626935       -17.0598
  40   2.0000      -0.600447       -16.3390
  41   2.0000      -0.572893       -15.5892
  42   2.0000      -0.555244       -15.1090
  43   2.0000      -0.549645       -14.9566
  44   2.0000      -0.543042       -14.7769
  45   2.0000      -0.539539       -14.6816
  46   2.0000      -0.509304       -13.8589
  47   2.0000      -0.507356       -13.8058
  48   2.0000      -0.491973       -13.3873
  49   2.0000      -0.488125       -13.2826
  50   2.0000      -0.484612       -13.1870
  51   2.0000      -0.477839       -13.0027
  52   2.0000      -0.470221       -12.7954
  53   2.0000      -0.465846       -12.6763
  54   2.0000      -0.460082       -12.5195
  55   2.0000      -0.448278       -12.1983
  56   2.0000      -0.442782       -12.0487
  57   2.0000      -0.438412       -11.9298
  58   2.0000      -0.434499       -11.8233
  59   2.0000      -0.425063       -11.5666
  60   2.0000      -0.417936       -11.3726
  61   2.0000      -0.417363       -11.3570
  62   2.0000      -0.415585       -11.3086
  63   2.0000      -0.338212        -9.2032
  64   2.0000      -0.327888        -8.9223
  65   2.0000      -0.322785        -8.7834
  66   2.0000      -0.306107        -8.3296
  67   0.0000       0.042340         1.1521
  68   0.0000       0.049425         1.3449
  69   0.0000       0.108507         2.9526
  70   0.0000       0.123094         3.3496
  71   0.0000       0.124071         3.3761

MULLIKEN ATOMIC CHARGES
-----------------------
   0 S :    0.107593
   1 C :   -0.142090
   2 C :   -0.101548
   3 C :    0.063361
   4 C :   -0.150517
   5 H :    0.009755
   6 C :    0.088133
   7 H :    0.037999
   8 H :    0.022654
   9 C :   -0.060203
  10 H :    0.021760
  11 H :    0.023055
  12 C :   -0.098198
  13 H :    0.048216
  14 H :    0.031686
  15 H :    0.034937
  16 S :    0.112637
  17 C :   -0.102093
  18 C :   -0.047509
  19 C :   -0.023632
  20 C :   -0.180090
  21 H :    0.035807
  22 C :    0.102553
  23 H :    0.026125
  24 H :    0.001179
  25 C :   -0.012723
  26 H :    0.002010
  27 H :    0.014875
  28 C :   -0.080161
  29 H :    0.027016
  30 H :    0.039788
  31 H :    0.017304
  32 H :    0.063863
  33 H :    0.066457
Sum of atomic charges:   -0.0000000

LOEWDIN ATOMIC CHARGES
----------------------
   0 S :    0.385532
   1 C :   -0.190402
   2 C :   -0.068641
   3 C :   -0.051249
   4 C :   -0.198691
   5 H :    0.029737
   6 C :   -0.032638
   7 H :    0.037479
   8 H :    0.033602
   9 C :   -0.034377
  10 H :    0.018838
  11 H :    0.021904
  12 C :   -0.073889
  13 H :    0.028173
  14 H :    0.026103
  15 H :    0.025764
  16 S :    0.399822
  17 C :   -0.197444
  18 C :   -0.080256
  19 C :   -0.042817
  20 C :   -0.191158
  21 H :    0.038885
  22 C :   -0.029006
  23 H :    0.035109
  24 H :    0.024322
  25 C :   -0.030532
  26 H :    0.016164
  27 H :    0.021225
  28 C :   -0.072093
  29 H :    0.024784
  30 H :    0.031869
  31 H :    0.017140
  32 H :    0.037337
  33 H :    0.039405

  Mayer bond orders larger than 0.100000
B(  0-S ,  1-C ) :   1.1309 B(  0-S ,  4-C ) :   1.1423 B(  1-C ,  2-C ) :   1.6197
B(  1-C , 32-H ) :   0.9557 B(  2-C ,  3-C ) :   1.2468 B(  2-C ,  6-C ) :   1.0444
B(  3-C ,  4-C ) :   1.5815 B(  3-C ,  5-H ) :   0.9914 B(  4-C , 20-C ) :   1.0013
B(  6-C ,  7-H ) :   0.9314 B(  6-C ,  8-H ) :   0.9412 B(  6-C ,  9-C ) :   1.0654
B(  9-C , 10-H ) :   0.9579 B(  9-C , 11-H ) :   0.9568 B(  9-C , 12-C ) :   1.0665
B( 12-C , 13-H ) :   0.9763 B( 12-C , 14-H ) :   0.9758 B( 12-C , 15-H ) :   0.9752
B( 16-S , 17-C ) :   1.1511 B( 16-S , 20-C ) :   1.1438 B( 17-C , 18-C ) :   1.6446
B( 17-C , 33-H ) :   0.9568 B( 18-C , 19-C ) :   1.2186 B( 18-C , 21-H ) :   0.9779
B( 19-C , 20-C ) :   1.5998 B( 19-C , 22-C ) :   1.0719 B( 22-C , 23-H ) :   0.9274
B( 22-C , 24-H ) :   0.9283 B( 22-C , 25-C ) :   1.0750 B( 25-C , 26-H ) :   0.9453
B( 25-C , 27-H ) :   0.9513 B( 25-C , 28-C ) :   1.0859 B( 28-C , 29-H ) :   0.9738
B( 28-C , 30-H ) :   0.9694 B( 28-C , 31-H ) :   0.9707

Dispersion correction           -0.014988211
FINAL SINGLE POINT ENERGY     -1339.869896716662

DIPOLE MOMENT
-------------
                                X             Y             Z
Electronic contribution:      5.50407       3.50579       6.96746
Nuclear contribution   :     -5.58049      -3.48582      -7.37422
                        -----------------------------------------
Total Dipole Moment    :     -0.07642       0.01997      -0.40676
                        -----------------------------------------
Magnitude (a.u.)       :      0.41435
Magnitude (Debye)      :      1.05320

Rotational constants in cm-1:     0.024890     0.007698     0.006821
Rotational constants in MHz :   746.172141   230.788678   204.501470

                             ****ORCA TERMINATED NORMALLY****
TOTAL RUN TIME: 0 days 0 hours 0 minutes 21 seconds 580 msec
