                         Program Version 4.2.1 -  RELEASE  -
|  1> ! wB97X-D3 SP def2-SVP
|  2> %pal
|  3> nprocs 24
|  4> end
|  5>
|  6> * xyz 0 1
|  7> S 	 -128.125 	 26.4083 	 -22.8478
|  8> C 	 -129.582 	 25.3985 	 -22.7778
|  9> C 	 -130.783 	 25.9903 	 -23.2436
| 10> C 	 -130.429 	 27.2979 	 -23.7168
| 11> C 	 -129.105 	 27.698 	 -23.5598
| 12> H 	 -131.036 	 28.0067 	 -24.1519
| 13> C 	 -132.238 	 25.5278 	 -23.2816
| 14> H 	 -132.313 	 24.5283 	 -22.7544
| 15> H 	 -132.51 	 25.3958 	 -24.2897
| 16> C 	 -133.211 	 26.476 	 -22.5563
| 17> H 	 -132.653 	 26.8477 	 -21.639
| 18> H 	 -133.441 	 27.4137 	 -23.1147
| 19> C 	 -134.513 	 25.7283 	 -22.1174
| 20> H 	 -134.695 	 24.7609 	 -22.5594
| 21> H 	 -134.447 	 25.5466 	 -21.0562
| 22> H 	 -135.342 	 26.4516 	 -22.3147
| 23> S 	 -127.36 	 29.5675 	 -22.5307
| 24> C 	 -127.333 	 31.1573 	 -23.1368
| 25> C 	 -128 	 31.3252 	 -24.3245
| 26> C 	 -128.737 	 30.0433 	 -24.6903
| 27> C 	 -128.529 	 29.0345 	 -23.687
| 28> H 	 -127.859 	 32.2568 	 -24.8515
| 29> C 	 -129.48 	 29.9147 	 -26.0469
| 30> H 	 -130.076 	 29.0033 	 -26.1581
| 31> H 	 -128.772 	 29.8984 	 -26.8505
| 32> C 	 -130.504 	 31.0356 	 -26.29
| 33> H 	 -131.004 	 30.8895 	 -27.2504
| 34> H 	 -129.959 	 31.9883 	 -26.3308
| 35> C 	 -131.634 	 31.2027 	 -25.198
| 36> H 	 -132.27 	 30.3899 	 -25.024
| 37> H 	 -132.358 	 31.911 	 -25.6062
| 38> H 	 -131.267 	 31.6206 	 -24.2898
| 39> H 	 -129.532 	 24.3609 	 -22.5554
| 40> H 	 -126.813 	 32.0124 	 -22.6957
| 41> *
| 42>
| 43>                          ****END OF INPUT****

CARTESIAN COORDINATES (ANGSTROEM)
---------------------------------
  S    -128.125000   26.408300  -22.847800
  C    -129.582000   25.398500  -22.777800
  C    -130.783000   25.990300  -23.243600
  C    -130.429000   27.297900  -23.716800
  C    -129.105000   27.698000  -23.559800
  H    -131.036000   28.006700  -24.151900
  C    -132.238000   25.527800  -23.281600
  H    -132.313000   24.528300  -22.754400
  H    -132.510000   25.395800  -24.289700
  C    -133.211000   26.476000  -22.556300
  H    -132.653000   26.847700  -21.639000
  H    -133.441000   27.413700  -23.114700
  C    -134.513000   25.728300  -22.117400
  H    -134.695000   24.760900  -22.559400
  H    -134.447000   25.546600  -21.056200
  H    -135.342000   26.451600  -22.314700
  S    -127.360000   29.567500  -22.530700
  C    -127.333000   31.157300  -23.136800
  C    -128.000000   31.325200  -24.324500
  C    -128.737000   30.043300  -24.690300
  C    -128.529000   29.034500  -23.687000
  H    -127.859000   32.256800  -24.851500
  C    -129.480000   29.914700  -26.046900
  H    -130.076000   29.003300  -26.158100
  H    -128.772000   29.898400  -26.850500
  C    -130.504000   31.035600  -26.290000
  H    -131.004000   30.889500  -27.250400
  H    -129.959000   31.988300  -26.330800
  C    -131.634000   31.202700  -25.198000
  H    -132.270000   30.389900  -25.024000
  H    -132.358000   31.911000  -25.606200
  H    -131.267000   31.620600  -24.289800
  H    -129.532000   24.360900  -22.555400
  H    -126.813000   32.012400  -22.695700

 Total Charge           Charge          ....    0
 Multiplicity           Mult            ....    1
 Number of Electrons    NEL             ....  134
 Basis Dimension        Dim             ....  322

ORBITAL ENERGIES
----------------

  NO   OCC          E(Eh)            E(eV)
   0   2.0000     -88.968235     -2420.9488
   1   2.0000     -88.965973     -2420.8872
   2   2.0000     -10.331704      -281.1400
   3   2.0000     -10.330352      -281.1032
   4   2.0000     -10.318747      -280.7874
   5   2.0000     -10.316913      -280.7375
   6   2.0000     -10.313594      -280.6472
   7   2.0000     -10.308335      -280.5041
   8   2.0000     -10.300130      -280.2808
   9   2.0000     -10.299233      -280.2564
  10   2.0000     -10.296477      -280.1814
  11   2.0000     -10.292763      -280.0803
  12   2.0000     -10.289751      -279.9984
  13   2.0000     -10.287774      -279.9446
  14   2.0000     -10.282302      -279.7957
  15   2.0000     -10.270612      -279.4775
  16   2.0000      -8.082229      -219.9286
  17   2.0000      -8.081943      -219.9208
  18   2.0000      -6.040749      -164.3772
  19   2.0000      -6.040543      -164.3715
  20   2.0000      -6.036993      -164.2749
  21   2.0000      -6.036288      -164.2557
  22   2.0000      -6.032889      -164.1633
  23   2.0000      -6.032511      -164.1530
  24   2.0000      -1.002159       -27.2701
  25   2.0000      -0.977334       -26.5946
  26   2.0000      -0.909403       -24.7461
  27   2.0000      -0.902528       -24.5590
  28   2.0000      -0.866366       -23.5750
  29   2.0000      -0.847557       -23.0632
  30   2.0000      -0.837006       -22.7761
  31   2.0000      -0.812879       -22.1196
  32   2.0000      -0.786056       -21.3897
  33   2.0000      -0.774166       -21.0661
  34   2.0000      -0.707913       -19.2633
  35   2.0000      -0.695841       -18.9348
  36   2.0000      -0.687608       -18.7108
  37   2.0000      -0.656754       -17.8712
  38   2.0000      -0.638318       -17.3695
  39   2.0000      -0.621630       -16.9154
  40   2.0000      -0.596492       -16.2314
  41   2.0000      -0.570246       -15.5172
  42   2.0000      -0.560795       -15.2600
  43   2.0000      -0.546134       -14.8611
  44   2.0000      -0.542820       -14.7709
  45   2.0000      -0.521756       -14.1977
  46   2.0000      -0.511178       -13.9099
  47   2.0000      -0.509780       -13.8718
  48   2.0000      -0.504932       -13.7399
  49   2.0000      -0.494398       -13.4533
  50   2.0000      -0.490031       -13.3344
  51   2.0000      -0.478119       -13.0103
  52   2.0000      -0.473327       -12.8799
  53   2.0000      -0.463928       -12.6241
  54   2.0000      -0.455077       -12.3833
  55   2.0000      -0.451329       -12.2813
  56   2.0000      -0.441719       -12.0198
  57   2.0000      -0.436865       -11.8877
  58   2.0000      -0.434443       -11.8218
  59   2.0000      -0.426195       -11.5973
  60   2.0000      -0.420044       -11.4300
  61   2.0000      -0.416007       -11.3201
  62   2.0000      -0.412762       -11.2318
  63   2.0000      -0.354747        -9.6532
  64   2.0000      -0.333015        -9.0618
  65   2.0000      -0.323864        -8.8128
  66   2.0000      -0.280856        -7.6425
  67   0.0000       0.027401         0.7456
  68   0.0000       0.072455         1.9716
  69   0.0000       0.103712         2.8221
  70   0.0000       0.116929         3.1818
  71   0.0000       0.128276         3.4906

MULLIKEN ATOMIC CHARGES
-----------------------
   0 S :    0.099123
   1 C :   -0.115852
   2 C :   -0.081930
   3 C :    0.049167
   4 C :   -0.146119
   5 H :   -0.040187
   6 C :    0.091766
   7 H :    0.030442
   8 H :    0.035960
   9 C :   -0.142539
  10 H :    0.052649
  11 H :    0.044050
  12 C :   -0.047722
  13 H :    0.038746
  14 H :    0.036691
  15 H :    0.042397
  16 S :    0.117095
  17 C :   -0.096320
  18 C :   -0.044237
  19 C :   -0.064744
  20 C :   -0.130163
  21 H :    0.027574
  22 C :    0.094537
  23 H :    0.019073
  24 H :    0.036118
  25 C :   -0.107657
  26 H :    0.031448
  27 H :    0.029099
  28 C :   -0.036307
  29 H :    0.018912
  30 H :    0.020909
  31 H :    0.040127
  32 H :    0.035744
  33 H :    0.062149
Sum of atomic charges:   -0.0000000

LOEWDIN ATOMIC CHARGES
----------------------
   0 S :    0.383830
   1 C :   -0.186297
   2 C :   -0.054354
   3 C :   -0.052657
   4 C :   -0.180638
   5 H :    0.012481
   6 C :   -0.029282
   7 H :    0.037171
   8 H :    0.027405
   9 C :   -0.048197
  10 H :    0.035027
  11 H :    0.024538
  12 C :   -0.067981
  13 H :    0.023327
  14 H :    0.027935
  15 H :    0.034477
  16 S :    0.428556
  17 C :   -0.205300
  18 C :   -0.074946
  19 C :   -0.047417
  20 C :   -0.210406
  21 H :    0.032544
  22 C :   -0.033119
  23 H :    0.028621
  24 H :    0.031650
  25 C :   -0.037464
  26 H :    0.024037
  27 H :    0.021021
  28 C :   -0.064287
  29 H :    0.014104
  30 H :    0.029782
  31 H :    0.023933
  32 H :    0.016618
  33 H :    0.035286

  Mayer bond orders larger than 0.100000
B(  0-S ,  1-C ) :   1.1388 B(  0-S ,  4-C ) :   1.1291 B(  1-C ,  2-C ) :   1.6176
B(  1-C , 32-H ) :   0.9656 B(  2-C ,  3-C ) :   1.2209 B(  2-C ,  6-C ) :   1.0254
B(  3-C ,  4-C ) :   1.6001 B(  3-C ,  5-H ) :   0.9968 B(  4-C , 20-C ) :   1.0624
B(  6-C ,  7-H ) :   0.9463 B(  6-C ,  8-H ) :   0.9314 B(  6-C ,  9-C ) :   1.0514
B(  9-C , 10-H ) :   0.9662 B(  9-C , 11-H ) :   0.9602 B(  9-C , 12-C ) :   1.0565
B( 12-C , 13-H ) :   0.9799 B( 12-C , 14-H ) :   0.9789 B( 12-C , 15-H ) :   0.9791
B( 16-S , 17-C ) :   1.1566 B( 16-S , 20-C ) :   1.1395 B( 17-C , 18-C ) :   1.6459
B( 17-C , 33-H ) :   0.9614 B( 18-C , 19-C ) :   1.1976 B( 18-C , 21-H ) :   0.9880
B( 19-C , 20-C ) :   1.5822 B( 19-C , 22-C ) :   1.0353 B( 22-C , 23-H ) :   0.9399
B( 22-C , 24-H ) :   0.9392 B( 22-C , 25-C ) :   1.0702 B( 25-C , 26-H ) :   0.9600
B( 25-C , 27-H ) :   0.9556 B( 25-C , 28-C ) :   1.0756 B( 28-C , 29-H ) :   0.9744
B( 28-C , 30-H ) :   0.9709 B( 28-C , 31-H ) :   0.9752

Dispersion correction           -0.014231667
FINAL SINGLE POINT ENERGY     -1339.862930470150

DIPOLE MOMENT
-------------
                                X             Y             Z
Electronic contribution:     28.89933      -3.24734       7.82450
Nuclear contribution   :    -29.50023       3.42652      -8.13161
                        -----------------------------------------
Total Dipole Moment    :     -0.60090       0.17919      -0.30711
                        -----------------------------------------
Magnitude (a.u.)       :      0.69821
Magnitude (Debye)      :      1.77472

Rotational constants in cm-1:     0.017340     0.009010     0.006709
Rotational constants in MHz :   519.832325   270.116952   201.127598

                             ****ORCA TERMINATED NORMALLY****
TOTAL RUN TIME: 0 days 0 hours 0 minutes 21 seconds 479 msec
