                         Program Version 4.2.1 -  RELEASE  -
|  1> ! wB97X-D3 SP def2-SVP
|  2> %pal
|  3> nprocs 24
|  4> end
|  5>
|  6> * xyz 0 1
|  7> S 	 -76.9164 	 8.03412 	 -111.953
|  8> C 	 -78.2751 	 8.25391 	 -110.901
|  9> C 	 -77.8358 	 8.41841 	 -109.579
| 10> C 	 -76.4233 	 8.47881 	 -109.448
| 11> C 	 -75.7968 	 8.49067 	 -110.665
| 12> H 	 -75.9001 	 8.54433 	 -108.549
| 13> C 	 -78.7587 	 8.64287 	 -108.378
| 14> H 	 -78.4029 	 8.05874 	 -107.522
| 15> H 	 -79.7682 	 8.29556 	 -108.593
| 16> C 	 -78.9782 	 10.1493 	 -107.872
| 17> H 	 -79.7502 	 10.1385 	 -107.122
| 18> H 	 -78.1575 	 10.6861 	 -107.418
| 19> C 	 -79.429 	 11.1055 	 -108.987
| 20> H 	 -78.5995 	 11.3684 	 -109.636
| 21> H 	 -80.3655 	 10.8578 	 -109.511
| 22> H 	 -79.6034 	 12.001 	 -108.428
| 23> S 	 -73.6041 	 7.6487 	 -112.121
| 24> C 	 -72.0164 	 8.10397 	 -111.554
| 25> C 	 -71.9985 	 9.04621 	 -110.557
| 26> C 	 -73.3287 	 9.23066 	 -110.037
| 27> C 	 -74.3205 	 8.62599 	 -110.84
| 28> H 	 -71.0288 	 9.33762 	 -110.267
| 29> C 	 -73.5403 	 9.93771 	 -108.712
| 30> H 	 -72.5678 	 10.203 	 -108.316
| 31> H 	 -74.0494 	 9.32789 	 -107.94
| 32> C 	 -74.348 	 11.2812 	 -108.675
| 33> H 	 -74.1645 	 11.6366 	 -107.624
| 34> H 	 -75.4306 	 10.9887 	 -108.85
| 35> C 	 -73.9622 	 12.3494 	 -109.657
| 36> H 	 -73.957 	 11.9463 	 -110.637
| 37> H 	 -72.9112 	 12.6572 	 -109.496
| 38> H 	 -74.69 	 13.1576 	 -109.68
| 39> H 	 -79.2488 	 8.34614 	 -111.235
| 40> H 	 -71.1032 	 7.87015 	 -112.044
| 41> *
| 42>
| 43>                          ****END OF INPUT****

CARTESIAN COORDINATES (ANGSTROEM)
---------------------------------
  S    -76.916400    8.034120  -111.953000
  C    -78.275100    8.253910  -110.901000
  C    -77.835800    8.418410  -109.579000
  C    -76.423300    8.478810  -109.448000
  C    -75.796800    8.490670  -110.665000
  H    -75.900100    8.544330  -108.549000
  C    -78.758700    8.642870  -108.378000
  H    -78.402900    8.058740  -107.522000
  H    -79.768200    8.295560  -108.593000
  C    -78.978200   10.149300  -107.872000
  H    -79.750200   10.138500  -107.122000
  H    -78.157500   10.686100  -107.418000
  C    -79.429000   11.105500  -108.987000
  H    -78.599500   11.368400  -109.636000
  H    -80.365500   10.857800  -109.511000
  H    -79.603400   12.001000  -108.428000
  S    -73.604100    7.648700  -112.121000
  C    -72.016400    8.103970  -111.554000
  C    -71.998500    9.046210  -110.557000
  C    -73.328700    9.230660  -110.037000
  C    -74.320500    8.625990  -110.840000
  H    -71.028800    9.337620  -110.267000
  C    -73.540300    9.937710  -108.712000
  H    -72.567800   10.203000  -108.316000
  H    -74.049400    9.327890  -107.940000
  C    -74.348000   11.281200  -108.675000
  H    -74.164500   11.636600  -107.624000
  H    -75.430600   10.988700  -108.850000
  C    -73.962200   12.349400  -109.657000
  H    -73.957000   11.946300  -110.637000
  H    -72.911200   12.657200  -109.496000
  H    -74.690000   13.157600  -109.680000
  H    -79.248800    8.346140  -111.235000
  H    -71.103200    7.870150  -112.044000

 Total Charge           Charge          ....    0
 Multiplicity           Mult            ....    1
 Number of Electrons    NEL             ....  134
 Basis Dimension        Dim             ....  322

ORBITAL ENERGIES
----------------

  NO   OCC          E(Eh)            E(eV)
   0   2.0000     -88.968686     -2420.9610
   1   2.0000     -88.968039     -2420.9434
   2   2.0000     -10.334005      -281.2026
   3   2.0000     -10.333582      -281.1911
   4   2.0000     -10.313691      -280.6498
   5   2.0000     -10.312060      -280.6054
   6   2.0000     -10.310937      -280.5749
   7   2.0000     -10.303576      -280.3746
   8   2.0000     -10.296590      -280.1844
   9   2.0000     -10.295288      -280.1490
  10   2.0000     -10.294262      -280.1211
  11   2.0000     -10.290390      -280.0157
  12   2.0000     -10.288300      -279.9589
  13   2.0000     -10.288111      -279.9537
  14   2.0000     -10.272430      -279.5270
  15   2.0000     -10.269538      -279.4483
  16   2.0000      -8.083341      -219.9589
  17   2.0000      -8.082800      -219.9442
  18   2.0000      -6.041839      -164.4068
  19   2.0000      -6.041429      -164.3956
  20   2.0000      -6.037946      -164.3009
  21   2.0000      -6.037395      -164.2859
  22   2.0000      -6.034055      -164.1950
  23   2.0000      -6.033359      -164.1761
  24   2.0000      -1.006273       -27.3821
  25   2.0000      -0.984936       -26.8015
  26   2.0000      -0.906616       -24.6703
  27   2.0000      -0.901551       -24.5324
  28   2.0000      -0.869414       -23.6580
  29   2.0000      -0.854913       -23.2634
  30   2.0000      -0.846980       -23.0475
  31   2.0000      -0.818310       -22.2673
  32   2.0000      -0.784905       -21.3583
  33   2.0000      -0.773117       -21.0376
  34   2.0000      -0.708048       -19.2670
  35   2.0000      -0.696738       -18.9592
  36   2.0000      -0.681138       -18.5347
  37   2.0000      -0.665093       -18.0981
  38   2.0000      -0.645219       -17.5573
  39   2.0000      -0.624588       -16.9959
  40   2.0000      -0.589650       -16.0452
  41   2.0000      -0.570239       -15.5170
  42   2.0000      -0.558979       -15.2106
  43   2.0000      -0.548211       -14.9176
  44   2.0000      -0.540213       -14.6999
  45   2.0000      -0.537884       -14.6366
  46   2.0000      -0.523855       -14.2548
  47   2.0000      -0.511118       -13.9082
  48   2.0000      -0.499919       -13.6035
  49   2.0000      -0.496928       -13.5221
  50   2.0000      -0.492715       -13.4075
  51   2.0000      -0.479753       -13.0547
  52   2.0000      -0.472270       -12.8511
  53   2.0000      -0.466332       -12.6895
  54   2.0000      -0.460628       -12.5343
  55   2.0000      -0.453865       -12.3503
  56   2.0000      -0.439426       -11.9574
  57   2.0000      -0.437089       -11.8938
  58   2.0000      -0.430496       -11.7144
  59   2.0000      -0.421215       -11.4619
  60   2.0000      -0.419288       -11.4094
  61   2.0000      -0.415120       -11.2960
  62   2.0000      -0.411287       -11.1917
  63   2.0000      -0.357843        -9.7374
  64   2.0000      -0.336395        -9.1538
  65   2.0000      -0.326290        -8.8788
  66   2.0000      -0.283264        -7.7080
  67   0.0000       0.019897         0.5414
  68   0.0000       0.073023         1.9871
  69   0.0000       0.098827         2.6892
  70   0.0000       0.116195         3.1618
  71   0.0000       0.125624         3.4184

MULLIKEN ATOMIC CHARGES
-----------------------
   0 S :    0.103364
   1 C :   -0.088211
   2 C :   -0.080358
   3 C :    0.029715
   4 C :   -0.102989
   5 H :   -0.022710
   6 C :    0.069576
   7 H :    0.033364
   8 H :    0.018660
   9 C :   -0.077675
  10 H :    0.023052
  11 H :    0.025414
  12 C :   -0.059414
  13 H :    0.045338
  14 H :    0.035255
  15 H :    0.017397
  16 S :    0.100277
  17 C :   -0.080436
  18 C :   -0.015299
  19 C :   -0.051628
  20 C :   -0.117007
  21 H :    0.006628
  22 C :    0.035971
  23 H :    0.009398
  24 H :    0.047784
  25 C :   -0.122756
  26 H :    0.035965
  27 H :    0.045799
  28 C :   -0.016852
  29 H :    0.026114
  30 H :    0.023988
  31 H :    0.037030
  32 H :    0.023431
  33 H :    0.041816
Sum of atomic charges:   -0.0000000

LOEWDIN ATOMIC CHARGES
----------------------
   0 S :    0.399783
   1 C :   -0.190276
   2 C :   -0.056672
   3 C :   -0.057713
   4 C :   -0.177810
   5 H :    0.021535
   6 C :   -0.032168
   7 H :    0.031889
   8 H :    0.028177
   9 C :   -0.036256
  10 H :    0.020528
  11 H :    0.021505
  12 C :   -0.068544
  13 H :    0.026994
  14 H :    0.023465
  15 H :    0.024463
  16 S :    0.399032
  17 C :   -0.175844
  18 C :   -0.063342
  19 C :   -0.055817
  20 C :   -0.187312
  21 H :    0.029571
  22 C :   -0.037352
  23 H :    0.026231
  24 H :    0.034157
  25 C :   -0.047009
  26 H :    0.027012
  27 H :    0.025944
  28 C :   -0.067335
  29 H :    0.022337
  30 H :    0.026310
  31 H :    0.029035
  32 H :    0.014168
  33 H :    0.021314

  Mayer bond orders larger than 0.100000
B(  0-S ,  1-C ) :   1.1336 B(  0-S ,  4-C ) :   1.1519 B(  1-C ,  2-C ) :   1.5868
B(  1-C , 32-H ) :   0.9824 B(  2-C ,  3-C ) :   1.2377 B(  2-C ,  6-C ) :   1.0401
B(  3-C ,  4-C ) :   1.5497 B(  3-C ,  5-H ) :   1.0069 B(  4-C , 20-C ) :   1.0542
B(  6-C ,  7-H ) :   0.9419 B(  6-C ,  8-H ) :   0.9431 B(  6-C ,  9-C ) :   1.0534
B(  9-C , 10-H ) :   0.9602 B(  9-C , 11-H ) :   0.9602 B(  9-C , 12-C ) :   1.0799
B( 12-C , 13-H ) :   0.9734 B( 12-C , 14-H ) :   0.9766 B( 12-C , 15-H ) :   0.9715
B( 16-S , 17-C ) :   1.1548 B( 16-S , 20-C ) :   1.1337 B( 17-C , 18-C ) :   1.6546
B( 17-C , 33-H ) :   0.9616 B( 18-C , 19-C ) :   1.2119 B( 18-C , 21-H ) :   0.9948
B( 19-C , 20-C ) :   1.5897 B( 19-C , 22-C ) :   1.0394 B( 22-C , 23-H ) :   0.9310
B( 22-C , 24-H ) :   0.9387 B( 22-C , 25-C ) :   1.0648 B( 25-C , 26-H ) :   0.9571
B( 25-C , 27-H ) :   0.9482 B( 25-C , 28-C ) :   1.0882 B( 28-C , 29-H ) :   0.9672
B( 28-C , 30-H ) :   0.9728 B( 28-C , 31-H ) :   0.9717

Dispersion correction           -0.015558036
FINAL SINGLE POINT ENERGY     -1339.869389533445

DIPOLE MOMENT
-------------
                                X             Y             Z
Electronic contribution:      8.78827     -20.19241     -19.87372
Nuclear contribution   :     -8.73575      20.51093      20.46781
                        -----------------------------------------
Total Dipole Moment    :      0.05251       0.31852       0.59409
                        -----------------------------------------
Magnitude (a.u.)       :      0.67614
Magnitude (Debye)      :      1.71861

Rotational constants in cm-1:     0.019619     0.009957     0.007397
Rotational constants in MHz :   588.151430   298.492127   221.761421

                             ****ORCA TERMINATED NORMALLY****
TOTAL RUN TIME: 0 days 0 hours 0 minutes 23 seconds 13 msec
