                         Program Version 4.2.1 -  RELEASE  -
|  1> ! wB97X-D3 SP def2-SVP
|  2> %pal
|  3> nprocs 24
|  4> end
|  5>
|  6> * xyz 0 1
|  7> S 	 -47.1366 	 11.8546 	 -17.5045
|  8> C 	 -45.8369 	 11.1934 	 -16.5246
|  9> C 	 -44.6599 	 11.8618 	 -16.7328
| 10> C 	 -44.7696 	 12.8485 	 -17.7824
| 11> C 	 -46.081 	 12.9466 	 -18.2577
| 12> H 	 -43.982 	 13.4479 	 -18.1732
| 13> C 	 -43.4028 	 11.5952 	 -15.9301
| 14> H 	 -43.3228 	 10.5349 	 -15.6707
| 15> H 	 -43.3781 	 12.2096 	 -15.0099
| 16> C 	 -42.1219 	 11.9723 	 -16.7947
| 17> H 	 -42.1193 	 11.509 	 -17.8075
| 18> H 	 -42.0631 	 12.9866 	 -16.9632
| 19> C 	 -40.8771 	 11.5715 	 -16.026
| 20> H 	 -40.8381 	 10.5261 	 -15.9884
| 21> H 	 -39.9422 	 11.9908 	 -16.4159
| 22> H 	 -40.9448 	 11.9064 	 -14.923
| 23> S 	 -47.0367 	 13.1238 	 -20.8868
| 24> C 	 -47.3227 	 14.7161 	 -21.5104
| 25> C 	 -47.1205 	 15.7258 	 -20.6064
| 26> C 	 -46.609 	 15.1935 	 -19.3256
| 27> C 	 -46.5574 	 13.7905 	 -19.3025
| 28> H 	 -47.2881 	 16.7877 	 -20.8835
| 29> C 	 -46.201 	 16.1625 	 -18.188
| 30> H 	 -45.8589 	 15.6125 	 -17.2695
| 31> H 	 -47.1571 	 16.6919 	 -18.0332
| 32> C 	 -45.3764 	 17.3939 	 -18.5203
| 33> H 	 -45.7653 	 17.9662 	 -19.3739
| 34> H 	 -44.3442 	 17.1759 	 -18.9114
| 35> C 	 -45.0692 	 18.4173 	 -17.3731
| 36> H 	 -44.9178 	 17.8601 	 -16.4703
| 37> H 	 -45.8106 	 19.1701 	 -17.2417
| 38> H 	 -44.1638 	 18.94 	 -17.6449
| 39> H 	 -45.919 	 10.499 	 -15.6906
| 40> H 	 -47.5135 	 14.9045 	 -22.6053
| 41> *
| 42>
| 43>                          ****END OF INPUT****

CARTESIAN COORDINATES (ANGSTROEM)
---------------------------------
  S    -47.136600   11.854600  -17.504500
  C    -45.836900   11.193400  -16.524600
  C    -44.659900   11.861800  -16.732800
  C    -44.769600   12.848500  -17.782400
  C    -46.081000   12.946600  -18.257700
  H    -43.982000   13.447900  -18.173200
  C    -43.402800   11.595200  -15.930100
  H    -43.322800   10.534900  -15.670700
  H    -43.378100   12.209600  -15.009900
  C    -42.121900   11.972300  -16.794700
  H    -42.119300   11.509000  -17.807500
  H    -42.063100   12.986600  -16.963200
  C    -40.877100   11.571500  -16.026000
  H    -40.838100   10.526100  -15.988400
  H    -39.942200   11.990800  -16.415900
  H    -40.944800   11.906400  -14.923000
  S    -47.036700   13.123800  -20.886800
  C    -47.322700   14.716100  -21.510400
  C    -47.120500   15.725800  -20.606400
  C    -46.609000   15.193500  -19.325600
  C    -46.557400   13.790500  -19.302500
  H    -47.288100   16.787700  -20.883500
  C    -46.201000   16.162500  -18.188000
  H    -45.858900   15.612500  -17.269500
  H    -47.157100   16.691900  -18.033200
  C    -45.376400   17.393900  -18.520300
  H    -45.765300   17.966200  -19.373900
  H    -44.344200   17.175900  -18.911400
  C    -45.069200   18.417300  -17.373100
  H    -44.917800   17.860100  -16.470300
  H    -45.810600   19.170100  -17.241700
  H    -44.163800   18.940000  -17.644900
  H    -45.919000   10.499000  -15.690600
  H    -47.513500   14.904500  -22.605300

 Total Charge           Charge          ....    0
 Multiplicity           Mult            ....    1
 Number of Electrons    NEL             ....  134
 Basis Dimension        Dim             ....  322

ORBITAL ENERGIES
----------------

  NO   OCC          E(Eh)            E(eV)
   0   2.0000     -88.965454     -2420.8731
   1   2.0000     -88.964348     -2420.8430
   2   2.0000     -10.324808      -280.9523
   3   2.0000     -10.322704      -280.8950
   4   2.0000     -10.320979      -280.8481
   5   2.0000     -10.314062      -280.6599
   6   2.0000     -10.308630      -280.5121
   7   2.0000     -10.299917      -280.2750
   8   2.0000     -10.299444      -280.2621
   9   2.0000     -10.298775      -280.2439
  10   2.0000     -10.298696      -280.2418
  11   2.0000     -10.292702      -280.0787
  12   2.0000     -10.291906      -280.0570
  13   2.0000     -10.283954      -279.8406
  14   2.0000     -10.278411      -279.6898
  15   2.0000     -10.276374      -279.6343
  16   2.0000      -8.080985      -219.8948
  17   2.0000      -8.078975      -219.8401
  18   2.0000      -6.039338      -164.3387
  19   2.0000      -6.037567      -164.2905
  20   2.0000      -6.035327      -164.2296
  21   2.0000      -6.033568      -164.1817
  22   2.0000      -6.031910      -164.1366
  23   2.0000      -6.029580      -164.0732
  24   2.0000      -1.006912       -27.3995
  25   2.0000      -0.980075       -26.6692
  26   2.0000      -0.911553       -24.8046
  27   2.0000      -0.904928       -24.6243
  28   2.0000      -0.872310       -23.7368
  29   2.0000      -0.848838       -23.0981
  30   2.0000      -0.843328       -22.9481
  31   2.0000      -0.812097       -22.0983
  32   2.0000      -0.784046       -21.3350
  33   2.0000      -0.769344       -20.9349
  34   2.0000      -0.713241       -19.4083
  35   2.0000      -0.696034       -18.9400
  36   2.0000      -0.687171       -18.6989
  37   2.0000      -0.651277       -17.7221
  38   2.0000      -0.639307       -17.3964
  39   2.0000      -0.617481       -16.8025
  40   2.0000      -0.594973       -16.1900
  41   2.0000      -0.572016       -15.5653
  42   2.0000      -0.566527       -15.4160
  43   2.0000      -0.560471       -15.2512
  44   2.0000      -0.525990       -14.3129
  45   2.0000      -0.522828       -14.2269
  46   2.0000      -0.517853       -14.0915
  47   2.0000      -0.506963       -13.7952
  48   2.0000      -0.501571       -13.6485
  49   2.0000      -0.497416       -13.5354
  50   2.0000      -0.493348       -13.4247
  51   2.0000      -0.476260       -12.9597
  52   2.0000      -0.469795       -12.7838
  53   2.0000      -0.465394       -12.6640
  54   2.0000      -0.460236       -12.5237
  55   2.0000      -0.454240       -12.3605
  56   2.0000      -0.450247       -12.2519
  57   2.0000      -0.438737       -11.9386
  58   2.0000      -0.434631       -11.8269
  59   2.0000      -0.428863       -11.6700
  60   2.0000      -0.419706       -11.4208
  61   2.0000      -0.413835       -11.2610
  62   2.0000      -0.405819       -11.0429
  63   2.0000      -0.337776        -9.1914
  64   2.0000      -0.331049        -9.0083
  65   2.0000      -0.323562        -8.8046
  66   2.0000      -0.298513        -8.1229
  67   0.0000       0.042120         1.1461
  68   0.0000       0.062507         1.7009
  69   0.0000       0.118879         3.2349
  70   0.0000       0.121388         3.3031
  71   0.0000       0.125649         3.4191

MULLIKEN ATOMIC CHARGES
-----------------------
   0 S :    0.126926
   1 C :   -0.115805
   2 C :   -0.097224
   3 C :    0.048912
   4 C :   -0.189575
   5 H :    0.002769
   6 C :    0.049856
   7 H :    0.032287
   8 H :    0.050633
   9 C :   -0.104268
  10 H :    0.044338
  11 H :    0.020586
  12 C :   -0.033765
  13 H :    0.019880
  14 H :    0.036274
  15 H :    0.027882
  16 S :    0.114381
  17 C :   -0.113534
  18 C :   -0.045174
  19 C :   -0.014176
  20 C :   -0.169116
  21 H :    0.038337
  22 C :    0.085106
  23 H :    0.049135
  24 H :    0.035035
  25 C :   -0.132114
  26 H :    0.023311
  27 H :    0.023342
  28 C :   -0.022791
  29 H :    0.027883
  30 H :    0.029505
  31 H :    0.029257
  32 H :    0.042363
  33 H :    0.079547
Sum of atomic charges:    0.0000000

LOEWDIN ATOMIC CHARGES
----------------------
   0 S :    0.433682
   1 C :   -0.204616
   2 C :   -0.065149
   3 C :   -0.058139
   4 C :   -0.213271
   5 H :    0.027147
   6 C :   -0.025019
   7 H :    0.031330
   8 H :    0.037626
   9 C :   -0.039521
  10 H :    0.031301
  11 H :    0.009603
  12 C :   -0.064815
  13 H :    0.014867
  14 H :    0.025764
  15 H :    0.031371
  16 S :    0.393912
  17 C :   -0.192453
  18 C :   -0.081833
  19 C :   -0.038104
  20 C :   -0.209930
  21 H :    0.038537
  22 C :   -0.041191
  23 H :    0.037508
  24 H :    0.043653
  25 C :   -0.051838
  26 H :    0.021628
  27 H :    0.021504
  28 C :   -0.055624
  29 H :    0.023079
  30 H :    0.018646
  31 H :    0.028787
  32 H :    0.029601
  33 H :    0.041960

  Mayer bond orders larger than 0.100000
B(  0-S ,  1-C ) :   1.1278 B(  0-S ,  4-C ) :   1.1842 B(  1-C ,  2-C ) :   1.6376
B(  1-C , 32-H ) :   0.9678 B(  2-C ,  3-C ) :   1.2321 B(  2-C ,  6-C ) :   1.0164
B(  3-C ,  4-C ) :   1.5469 B(  3-C ,  5-H ) :   1.0044 B(  4-C , 20-C ) :   1.0389
B(  6-C ,  7-H ) :   0.9509 B(  6-C ,  8-H ) :   0.9305 B(  6-C ,  9-C ) :   1.0702
B(  9-C , 10-H ) :   0.9605 B(  9-C , 11-H ) :   0.9469 B(  9-C , 12-C ) :   1.0876
B( 12-C , 13-H ) :   0.9762 B( 12-C , 14-H ) :   0.9725 B( 12-C , 15-H ) :   0.9696
B( 16-S , 17-C ) :   1.1557 B( 16-S , 20-C ) :   1.1147 B( 17-C , 18-C ) :   1.6453
B( 17-C , 33-H ) :   0.9554 B( 18-C , 19-C ) :   1.1995 B( 18-C , 21-H ) :   0.9821
B( 19-C , 20-C ) :   1.6259 B( 19-C , 22-C ) :   1.0461 B( 22-C , 23-H ) :   0.9369
B( 22-C , 24-H ) :   0.9274 B( 22-C , 25-C ) :   1.0508 B( 25-C , 26-H ) :   0.9514
B( 25-C , 27-H ) :   0.9598 B( 25-C , 28-C ) :   1.0775 B( 28-C , 29-H ) :   0.9769
B( 28-C , 30-H ) :   0.9786 B( 28-C , 31-H ) :   0.9763

Dispersion correction           -0.013455616
FINAL SINGLE POINT ENERGY     -1339.875585927206

DIPOLE MOMENT
-------------
                                X             Y             Z
Electronic contribution:    -22.99563     -14.16428     -13.48389
Nuclear contribution   :     23.50169      14.68053      13.69512
                        -----------------------------------------
Total Dipole Moment    :      0.50606       0.51625       0.21123
                        -----------------------------------------
Magnitude (a.u.)       :      0.75315
Magnitude (Debye)      :      1.91435

Rotational constants in cm-1:     0.015681     0.008645     0.006630
Rotational constants in MHz :   470.090195   259.163040   198.750436

                             ****ORCA TERMINATED NORMALLY****
TOTAL RUN TIME: 0 days 0 hours 0 minutes 21 seconds 82 msec
