                         Program Version 4.2.1 -  RELEASE  -
|  1> ! wB97X-D3 SP def2-SVP
|  2> %pal
|  3> nprocs 24
|  4> end
|  5>
|  6> * xyz 0 1
|  7> S 	 -33.5304 	 -48.0654 	 -77.1874
|  8> C 	 -33.2573 	 -46.7594 	 -78.2466
|  9> C 	 -32.2189 	 -45.9523 	 -77.7453
| 10> C 	 -31.7431 	 -46.4041 	 -76.4444
| 11> C 	 -32.4263 	 -47.5433 	 -75.9016
| 12> H 	 -30.9089 	 -45.9969 	 -75.9177
| 13> C 	 -31.6553 	 -44.7213 	 -78.4997
| 14> H 	 -32.4821 	 -44.4152 	 -79.1561
| 15> H 	 -30.8556 	 -45.2168 	 -79.1144
| 16> C 	 -31.191 	 -43.4307 	 -77.8237
| 17> H 	 -30.2821 	 -43.6656 	 -77.3075
| 18> H 	 -30.9513 	 -42.65 	 -78.5353
| 19> C 	 -32.2234 	 -42.8515 	 -76.8581
| 20> H 	 -32.4658 	 -43.5291 	 -76.0579
| 21> H 	 -31.9595 	 -41.9482 	 -76.4215
| 22> H 	 -33.1599 	 -42.6683 	 -77.3368
| 23> S 	 -31.7578 	 -49.8055 	 -74.6337
| 24> C 	 -31.584 	 -49.8043 	 -72.892
| 25> C 	 -31.7094 	 -48.5296 	 -72.3452
| 26> C 	 -32.1447 	 -47.5635 	 -73.3095
| 27> C 	 -32.2317 	 -48.1396 	 -74.5601
| 28> H 	 -31.4727 	 -48.4431 	 -71.2824
| 29> C 	 -32.2682 	 -46.0221 	 -72.9893
| 30> H 	 -32.1901 	 -45.6525 	 -73.9795
| 31> H 	 -31.4558 	 -45.6659 	 -72.4283
| 32> C 	 -33.6839 	 -45.6095 	 -72.4974
| 33> H 	 -33.7199 	 -45.8913 	 -71.459
| 34> H 	 -34.4309 	 -46.2004 	 -73.0231
| 35> C 	 -34.0466 	 -44.1168 	 -72.587
| 36> H 	 -35.1125 	 -43.9 	 -72.342
| 37> H 	 -33.8963 	 -43.8994 	 -73.6351
| 38> H 	 -33.3279 	 -43.4744 	 -72.0175
| 39> H 	 -33.6147 	 -46.5503 	 -79.2513
| 40> H 	 -31.1529 	 -50.6362 	 -72.3972
| 41> *
| 42>
| 43>                          ****END OF INPUT****

CARTESIAN COORDINATES (ANGSTROEM)
---------------------------------
  S    -33.530400  -48.065400  -77.187400
  C    -33.257300  -46.759400  -78.246600
  C    -32.218900  -45.952300  -77.745300
  C    -31.743100  -46.404100  -76.444400
  C    -32.426300  -47.543300  -75.901600
  H    -30.908900  -45.996900  -75.917700
  C    -31.655300  -44.721300  -78.499700
  H    -32.482100  -44.415200  -79.156100
  H    -30.855600  -45.216800  -79.114400
  C    -31.191000  -43.430700  -77.823700
  H    -30.282100  -43.665600  -77.307500
  H    -30.951300  -42.650000  -78.535300
  C    -32.223400  -42.851500  -76.858100
  H    -32.465800  -43.529100  -76.057900
  H    -31.959500  -41.948200  -76.421500
  H    -33.159900  -42.668300  -77.336800
  S    -31.757800  -49.805500  -74.633700
  C    -31.584000  -49.804300  -72.892000
  C    -31.709400  -48.529600  -72.345200
  C    -32.144700  -47.563500  -73.309500
  C    -32.231700  -48.139600  -74.560100
  H    -31.472700  -48.443100  -71.282400
  C    -32.268200  -46.022100  -72.989300
  H    -32.190100  -45.652500  -73.979500
  H    -31.455800  -45.665900  -72.428300
  C    -33.683900  -45.609500  -72.497400
  H    -33.719900  -45.891300  -71.459000
  H    -34.430900  -46.200400  -73.023100
  C    -34.046600  -44.116800  -72.587000
  H    -35.112500  -43.900000  -72.342000
  H    -33.896300  -43.899400  -73.635100
  H    -33.327900  -43.474400  -72.017500
  H    -33.614700  -46.550300  -79.251300
  H    -31.152900  -50.636200  -72.397200

 Total Charge           Charge          ....    0
 Multiplicity           Mult            ....    1
 Number of Electrons    NEL             ....  134
 Basis Dimension        Dim             ....  322

ORBITAL ENERGIES
----------------

  NO   OCC          E(Eh)            E(eV)
   0   2.0000     -88.968939     -2420.9679
   1   2.0000     -88.967596     -2420.9314
   2   2.0000     -10.337680      -281.3026
   3   2.0000     -10.330701      -281.1127
   4   2.0000     -10.315439      -280.6974
   5   2.0000     -10.314967      -280.6845
   6   2.0000     -10.311305      -280.5849
   7   2.0000     -10.307787      -280.4892
   8   2.0000     -10.298844      -280.2458
   9   2.0000     -10.298806      -280.2448
  10   2.0000     -10.298669      -280.2410
  11   2.0000     -10.290031      -280.0060
  12   2.0000     -10.287354      -279.9331
  13   2.0000     -10.282341      -279.7967
  14   2.0000     -10.281023      -279.7609
  15   2.0000     -10.266575      -279.3677
  16   2.0000      -8.083323      -219.9584
  17   2.0000      -8.082867      -219.9460
  18   2.0000      -6.041844      -164.4069
  19   2.0000      -6.041217      -164.3899
  20   2.0000      -6.037619      -164.2920
  21   2.0000      -6.037414      -164.2864
  22   2.0000      -6.034313      -164.2020
  23   2.0000      -6.033644      -164.1838
  24   2.0000      -1.005382       -27.3578
  25   2.0000      -0.982728       -26.7414
  26   2.0000      -0.909434       -24.7470
  27   2.0000      -0.903801       -24.5937
  28   2.0000      -0.869349       -23.6562
  29   2.0000      -0.851170       -23.1615
  30   2.0000      -0.842447       -22.9242
  31   2.0000      -0.813481       -22.1359
  32   2.0000      -0.783993       -21.3335
  33   2.0000      -0.774698       -21.0806
  34   2.0000      -0.710195       -19.3254
  35   2.0000      -0.696191       -18.9443
  36   2.0000      -0.693216       -18.8634
  37   2.0000      -0.663743       -18.0614
  38   2.0000      -0.635366       -17.2892
  39   2.0000      -0.616860       -16.7856
  40   2.0000      -0.591089       -16.0843
  41   2.0000      -0.571467       -15.5504
  42   2.0000      -0.564897       -15.3716
  43   2.0000      -0.555291       -15.1102
  44   2.0000      -0.547711       -14.9040
  45   2.0000      -0.523064       -14.2333
  46   2.0000      -0.516238       -14.0475
  47   2.0000      -0.509033       -13.8515
  48   2.0000      -0.502965       -13.6864
  49   2.0000      -0.494935       -13.4679
  50   2.0000      -0.492364       -13.3979
  51   2.0000      -0.484452       -13.1826
  52   2.0000      -0.473573       -12.8866
  53   2.0000      -0.464327       -12.6350
  54   2.0000      -0.456698       -12.4274
  55   2.0000      -0.447837       -12.1863
  56   2.0000      -0.446870       -12.1600
  57   2.0000      -0.439706       -11.9650
  58   2.0000      -0.435695       -11.8559
  59   2.0000      -0.427451       -11.6315
  60   2.0000      -0.416469       -11.3327
  61   2.0000      -0.413572       -11.2539
  62   2.0000      -0.408677       -11.1207
  63   2.0000      -0.345462        -9.4005
  64   2.0000      -0.335049        -9.1172
  65   2.0000      -0.323763        -8.8100
  66   2.0000      -0.293991        -7.9999
  67   0.0000       0.029347         0.7986
  68   0.0000       0.065021         1.7693
  69   0.0000       0.103978         2.8294
  70   0.0000       0.126691         3.4474
  71   0.0000       0.128989         3.5100

MULLIKEN ATOMIC CHARGES
-----------------------
   0 S :    0.125753
   1 C :   -0.102414
   2 C :   -0.145123
   3 C :    0.046281
   4 C :   -0.171006
   5 H :    0.013985
   6 C :    0.021793
   7 H :    0.021855
   8 H :    0.059040
   9 C :   -0.034136
  10 H :    0.020661
  11 H :    0.033600
  12 C :   -0.018590
  13 H :    0.028557
  14 H :    0.015539
  15 H :    0.014094
  16 S :    0.112840
  17 C :   -0.085427
  18 C :   -0.054221
  19 C :   -0.050895
  20 C :   -0.162140
  21 H :    0.030285
  22 C :    0.133274
  23 H :   -0.017594
  24 H :    0.023971
  25 C :   -0.071126
  26 H :    0.020529
  27 H :    0.036610
  28 C :   -0.056083
  29 H :    0.049541
  30 H :    0.026242
  31 H :    0.035410
  32 H :    0.051577
  33 H :    0.047318
Sum of atomic charges:   -0.0000000

LOEWDIN ATOMIC CHARGES
----------------------
   0 S :    0.425744
   1 C :   -0.224116
   2 C :   -0.066859
   3 C :   -0.067469
   4 C :   -0.204225
   5 H :    0.023757
   6 C :   -0.039508
   7 H :    0.029038
   8 H :    0.043035
   9 C :   -0.037650
  10 H :    0.019111
  11 H :    0.030047
  12 C :   -0.057064
  13 H :    0.023274
  14 H :    0.017122
  15 H :    0.022916
  16 S :    0.419717
  17 C :   -0.180374
  18 C :   -0.068717
  19 C :   -0.047080
  20 C :   -0.203028
  21 H :    0.036896
  22 C :   -0.016204
  23 H :    0.021835
  24 H :    0.023431
  25 C :   -0.038087
  26 H :    0.016382
  27 H :    0.028560
  28 C :   -0.069349
  29 H :    0.033785
  30 H :    0.021667
  31 H :    0.027719
  32 H :    0.036646
  33 H :    0.019050

  Mayer bond orders larger than 0.100000
B(  0-S ,  1-C ) :   1.1604 B(  0-S ,  4-C ) :   1.1654 B(  1-C ,  2-C ) :   1.5771
B(  1-C ,  4-C ) :   0.1077 B(  1-C , 32-H ) :   0.9636 B(  2-C ,  3-C ) :   1.2803
B(  2-C ,  6-C ) :   1.0019 B(  3-C ,  4-C ) :   1.5219 B(  3-C ,  5-H ) :   0.9878
B(  4-C , 20-C ) :   1.0158 B(  6-C ,  7-H ) :   0.9463 B(  6-C ,  8-H ) :   0.9397
B(  6-C ,  9-C ) :   1.0775 B(  9-C , 10-H ) :   0.9489 B(  9-C , 11-H ) :   0.9530
B(  9-C , 12-C ) :   1.0849 B( 12-C , 13-H ) :   0.9726 B( 12-C , 14-H ) :   0.9713
B( 12-C , 15-H ) :   0.9713 B( 16-S , 17-C ) :   1.1545 B( 16-S , 20-C ) :   1.1690
B( 17-C , 18-C ) :   1.6194 B( 17-C , 33-H ) :   0.9711 B( 18-C , 19-C ) :   1.2194
B( 18-C , 21-H ) :   0.9915 B( 19-C , 20-C ) :   1.6121 B( 19-C , 22-C ) :   1.0174
B( 22-C , 23-H ) :   0.9235 B( 22-C , 24-H ) :   0.9419 B( 22-C , 25-C ) :   1.0604
B( 25-C , 26-H ) :   0.9576 B( 25-C , 27-H ) :   0.9555 B( 25-C , 28-C ) :   1.0809
B( 28-C , 29-H ) :   0.9726 B( 28-C , 30-H ) :   0.9780 B( 28-C , 31-H ) :   0.9737

Dispersion correction           -0.014798483
FINAL SINGLE POINT ENERGY     -1339.865966147526

DIPOLE MOMENT
-------------
                                X             Y             Z
Electronic contribution:      0.50770     -30.31907      -4.57801
Nuclear contribution   :     -0.12366      30.91902       4.70860
                        -----------------------------------------
Total Dipole Moment    :      0.38404       0.59995       0.13059
                        -----------------------------------------
Magnitude (a.u.)       :      0.72421
Magnitude (Debye)      :      1.84080

Rotational constants in cm-1:     0.016537     0.009993     0.007226
Rotational constants in MHz :   495.769940   299.571893   216.639831

                             ****ORCA TERMINATED NORMALLY****
TOTAL RUN TIME: 0 days 0 hours 0 minutes 22 seconds 133 msec
