                         Program Version 4.2.1 -  RELEASE  -
|  1> ! wB97X-D3 SP def2-SVP
|  2> %pal
|  3> nprocs 24
|  4> end
|  5>
|  6> * xyz 0 1
|  7> S 	 -97.7256 	 14.3914 	 -120.163
|  8> C 	 -97.1606 	 14.1533 	 -118.53
|  9> C 	 -97.8326 	 14.9162 	 -117.58
| 10> C 	 -99.0052 	 15.4191 	 -118.191
| 11> C 	 -99.1827 	 15.157 	 -119.516
| 12> H 	 -99.8359 	 15.9559 	 -117.634
| 13> C 	 -97.4933 	 15.0561 	 -116.14
| 14> H 	 -97.8485 	 16.0266 	 -115.754
| 15> H 	 -96.3928 	 14.9934 	 -116.004
| 16> C 	 -98.0767 	 13.9428 	 -115.294
| 17> H 	 -99.1342 	 13.7133 	 -115.367
| 18> H 	 -97.6143 	 13.017 	 -115.579
| 19> C 	 -97.5991 	 14.1225 	 -113.854
| 20> H 	 -97.7416 	 13.2397 	 -113.225
| 21> H 	 -96.5437 	 14.2692 	 -113.861
| 22> H 	 -98.1018 	 14.8888 	 -113.299
| 23> S 	 -99.6244 	 16.4441 	 -121.845
| 24> C 	 -101.188 	 16.6225 	 -122.469
| 25> C 	 -102.19 	 16.3399 	 -121.569
| 26> C 	 -101.634 	 15.6534 	 -120.435
| 27> C 	 -100.211 	 15.6117 	 -120.419
| 28> H 	 -103.225 	 16.4398 	 -121.743
| 29> C 	 -102.543 	 15.0285 	 -119.403
| 30> H 	 -102.083 	 14.5378 	 -118.505
| 31> H 	 -103.108 	 14.2789 	 -119.809
| 32> C 	 -103.542 	 16.0101 	 -118.75
| 33> H 	 -104.336 	 15.4027 	 -118.295
| 34> H 	 -103.911 	 16.6293 	 -119.563
| 35> C 	 -102.978 	 17.0098 	 -117.705
| 36> H 	 -102.453 	 17.8515 	 -118.271
| 37> H 	 -102.212 	 16.587 	 -117.035
| 38> H 	 -103.844 	 17.6013 	 -117.347
| 39> H 	 -96.3095 	 13.5619 	 -118.229
| 40> H 	 -101.617 	 16.9835 	 -123.434
| 41> *
| 42>
| 43>                          ****END OF INPUT****

CARTESIAN COORDINATES (ANGSTROEM)
---------------------------------
  S    -97.725600   14.391400  -120.163000
  C    -97.160600   14.153300  -118.530000
  C    -97.832600   14.916200  -117.580000
  C    -99.005200   15.419100  -118.191000
  C    -99.182700   15.157000  -119.516000
  H    -99.835900   15.955900  -117.634000
  C    -97.493300   15.056100  -116.140000
  H    -97.848500   16.026600  -115.754000
  H    -96.392800   14.993400  -116.004000
  C    -98.076700   13.942800  -115.294000
  H    -99.134200   13.713300  -115.367000
  H    -97.614300   13.017000  -115.579000
  C    -97.599100   14.122500  -113.854000
  H    -97.741600   13.239700  -113.225000
  H    -96.543700   14.269200  -113.861000
  H    -98.101800   14.888800  -113.299000
  S    -99.624400   16.444100  -121.845000
  C    -101.188000   16.622500  -122.469000
  C    -102.190000   16.339900  -121.569000
  C    -101.634000   15.653400  -120.435000
  C    -100.211000   15.611700  -120.419000
  H    -103.225000   16.439800  -121.743000
  C    -102.543000   15.028500  -119.403000
  H    -102.083000   14.537800  -118.505000
  H    -103.108000   14.278900  -119.809000
  C    -103.542000   16.010100  -118.750000
  H    -104.336000   15.402700  -118.295000
  H    -103.911000   16.629300  -119.563000
  C    -102.978000   17.009800  -117.705000
  H    -102.453000   17.851500  -118.271000
  H    -102.212000   16.587000  -117.035000
  H    -103.844000   17.601300  -117.347000
  H    -96.309500   13.561900  -118.229000
  H    -101.617000   16.983500  -123.434000

 Total Charge           Charge          ....    0
 Multiplicity           Mult            ....    1
 Number of Electrons    NEL             ....  134
 Basis Dimension        Dim             ....  322

ORBITAL ENERGIES
----------------

  NO   OCC          E(Eh)            E(eV)
   0   2.0000     -88.967257     -2420.9221
   1   2.0000     -88.966883     -2420.9120
   2   2.0000     -10.326882      -281.0087
   3   2.0000     -10.326590      -281.0008
   4   2.0000     -10.314843      -280.6811
   5   2.0000     -10.313778      -280.6522
   6   2.0000     -10.306434      -280.4523
   7   2.0000     -10.299443      -280.2621
   8   2.0000     -10.297448      -280.2078
   9   2.0000     -10.295823      -280.1636
  10   2.0000     -10.289586      -279.9939
  11   2.0000     -10.286505      -279.9100
  12   2.0000     -10.285471      -279.8819
  13   2.0000     -10.283887      -279.8388
  14   2.0000     -10.283769      -279.8356
  15   2.0000     -10.273284      -279.5503
  16   2.0000      -8.082727      -219.9422
  17   2.0000      -8.081442      -219.9072
  18   2.0000      -6.041230      -164.3902
  19   2.0000      -6.039947      -164.3553
  20   2.0000      -6.037081      -164.2773
  21   2.0000      -6.036181      -164.2528
  22   2.0000      -6.033481      -164.1794
  23   2.0000      -6.032001      -164.1391
  24   2.0000      -1.010217       -27.4894
  25   2.0000      -0.988137       -26.8886
  26   2.0000      -0.921763       -25.0824
  27   2.0000      -0.908509       -24.7218
  28   2.0000      -0.873320       -23.7642
  29   2.0000      -0.850631       -23.1468
  30   2.0000      -0.845070       -22.9955
  31   2.0000      -0.815533       -22.1918
  32   2.0000      -0.785102       -21.3637
  33   2.0000      -0.771592       -20.9961
  34   2.0000      -0.708669       -19.2839
  35   2.0000      -0.704043       -19.1580
  36   2.0000      -0.687547       -18.7091
  37   2.0000      -0.657821       -17.9002
  38   2.0000      -0.643471       -17.5097
  39   2.0000      -0.620485       -16.8843
  40   2.0000      -0.601724       -16.3738
  41   2.0000      -0.574261       -15.6264
  42   2.0000      -0.568795       -15.4777
  43   2.0000      -0.552981       -15.0474
  44   2.0000      -0.538104       -14.6426
  45   2.0000      -0.528044       -14.3688
  46   2.0000      -0.518227       -14.1017
  47   2.0000      -0.507647       -13.8138
  48   2.0000      -0.504113       -13.7176
  49   2.0000      -0.501607       -13.6494
  50   2.0000      -0.495535       -13.4842
  51   2.0000      -0.478898       -13.0315
  52   2.0000      -0.466963       -12.7067
  53   2.0000      -0.462369       -12.5817
  54   2.0000      -0.459459       -12.5025
  55   2.0000      -0.448845       -12.2137
  56   2.0000      -0.444326       -12.0907
  57   2.0000      -0.437469       -11.9041
  58   2.0000      -0.436936       -11.8896
  59   2.0000      -0.432027       -11.7560
  60   2.0000      -0.420508       -11.4426
  61   2.0000      -0.414837       -11.2883
  62   2.0000      -0.406892       -11.0721
  63   2.0000      -0.348384        -9.4800
  64   2.0000      -0.331237        -9.0134
  65   2.0000      -0.329922        -8.9776
  66   2.0000      -0.284823        -7.7504
  67   0.0000       0.028244         0.7686
  68   0.0000       0.066273         1.8034
  69   0.0000       0.103875         2.8266
  70   0.0000       0.124706         3.3934
  71   0.0000       0.129703         3.5294

MULLIKEN ATOMIC CHARGES
-----------------------
   0 S :    0.113210
   1 C :   -0.109805
   2 C :   -0.069816
   3 C :    0.013241
   4 C :   -0.144854
   5 H :    0.018487
   6 C :    0.057335
   7 H :    0.032517
   8 H :    0.029886
   9 C :   -0.060145
  10 H :    0.031278
  11 H :    0.011711
  12 C :   -0.028491
  13 H :    0.025524
  14 H :    0.016599
  15 H :    0.026877
  16 S :    0.119395
  17 C :   -0.072489
  18 C :   -0.052006
  19 C :   -0.031425
  20 C :   -0.153053
  21 H :    0.012280
  22 C :    0.090753
  23 H :    0.022025
  24 H :    0.009090
  25 C :   -0.112844
  26 H :    0.034805
  27 H :    0.018748
  28 C :   -0.076004
  29 H :    0.034781
  30 H :    0.048893
  31 H :    0.043997
  32 H :    0.037382
  33 H :    0.062118
Sum of atomic charges:   -0.0000000

LOEWDIN ATOMIC CHARGES
----------------------
   0 S :    0.397793
   1 C :   -0.189284
   2 C :   -0.065029
   3 C :   -0.061823
   4 C :   -0.195772
   5 H :    0.038435
   6 C :   -0.030746
   7 H :    0.034744
   8 H :    0.036988
   9 C :   -0.037717
  10 H :    0.024322
  11 H :    0.022490
  12 C :   -0.062645
  13 H :    0.026753
  14 H :    0.020438
  15 H :    0.019848
  16 S :    0.431384
  17 C :   -0.210209
  18 C :   -0.072805
  19 C :   -0.050946
  20 C :   -0.201674
  21 H :    0.024296
  22 C :   -0.033090
  23 H :    0.033128
  24 H :    0.019788
  25 C :   -0.039933
  26 H :    0.023503
  27 H :    0.019019
  28 C :   -0.080521
  29 H :    0.033507
  30 H :    0.023108
  31 H :    0.034807
  32 H :    0.023712
  33 H :    0.044133

  Mayer bond orders larger than 0.100000
B(  0-S ,  1-C ) :   1.1472 B(  0-S ,  4-C ) :   1.1254 B(  1-C ,  2-C ) :   1.6033
B(  1-C ,  4-C ) :   0.1017 B(  1-C , 32-H ) :   0.9658 B(  2-C ,  3-C ) :   1.2396
B(  2-C ,  6-C ) :   1.0375 B(  3-C ,  4-C ) :   1.5937 B(  3-C ,  5-H ) :   0.9819
B(  4-C , 20-C ) :   1.0583 B(  6-C ,  7-H ) :   0.9404 B(  6-C ,  8-H ) :   0.9322
B(  6-C ,  9-C ) :   1.0677 B(  9-C , 10-H ) :   0.9585 B(  9-C , 11-H ) :   0.9502
B(  9-C , 12-C ) :   1.0835 B( 12-C , 13-H ) :   0.9728 B( 12-C , 14-H ) :   0.9706
B( 12-C , 15-H ) :   0.9760 B( 16-S , 17-C ) :   1.1677 B( 16-S , 20-C ) :   1.1353
B( 17-C , 18-C ) :   1.6043 B( 17-C , 33-H ) :   0.9557 B( 18-C , 19-C ) :   1.2541
B( 18-C , 21-H ) :   0.9878 B( 19-C , 20-C ) :   1.5756 B( 19-C , 22-C ) :   1.0437
B( 22-C , 23-H ) :   0.9427 B( 22-C , 24-H ) :   0.9294 B( 22-C , 25-C ) :   1.0715
B( 25-C , 26-H ) :   0.9587 B( 25-C , 27-H ) :   0.9559 B( 25-C , 28-C ) :   1.0724
B( 28-C , 29-H ) :   0.9745 B( 28-C , 30-H ) :   0.9710 B( 28-C , 31-H ) :   0.9695

Dispersion correction           -0.014072657
FINAL SINGLE POINT ENERGY     -1339.860126984760

DIPOLE MOMENT
-------------
                                X             Y             Z
Electronic contribution:     10.42189       0.64678     -28.51962
Nuclear contribution   :    -10.76640      -0.69185      29.07401
                        -----------------------------------------
Total Dipole Moment    :     -0.34450      -0.04507       0.55439
                        -----------------------------------------
Magnitude (a.u.)       :      0.65426
Magnitude (Debye)      :      1.66300

Rotational constants in cm-1:     0.019259     0.008662     0.006368
Rotational constants in MHz :   577.367381   259.666374   190.904554

                             ****ORCA TERMINATED NORMALLY****
TOTAL RUN TIME: 0 days 0 hours 0 minutes 21 seconds 574 msec
