                         Program Version 4.2.1 -  RELEASE  -
|  1> ! wB97X-D3 SP def2-SVP
|  2> %pal
|  3> nprocs 24
|  4> end
|  5>
|  6> * xyz 0 1
|  7> S 	 -64.3016 	 12.2897 	 -120.974
|  8> C 	 -63.9059 	 11.7614 	 -119.386
|  9> C 	 -63.4056 	 12.8583 	 -118.614
| 10> C 	 -63.5085 	 14.1214 	 -119.316
| 11> C 	 -64.0177 	 13.9657 	 -120.58
| 12> H 	 -63.1517 	 15.1525 	 -119.085
| 13> C 	 -62.8295 	 12.7753 	 -117.198
| 14> H 	 -63.58 	 12.8189 	 -116.418
| 15> H 	 -62.1217 	 13.5648 	 -117.037
| 16> C 	 -62.0299 	 11.5194 	 -116.8
| 17> H 	 -62.6708 	 10.6521 	 -116.995
| 18> H 	 -61.198 	 11.3481 	 -117.55
| 19> C 	 -61.5486 	 11.6186 	 -115.327
| 20> H 	 -62.4656 	 11.7085 	 -114.752
| 21> H 	 -61.0029 	 10.7275 	 -114.931
| 22> H 	 -61.0072 	 12.5791 	 -115.19
| 23> S 	 -63.5101 	 14.7068 	 -123.297
| 24> C 	 -63.6552 	 16.3989 	 -123.7
| 25> C 	 -64.2593 	 17.1493 	 -122.628
| 26> C 	 -64.4702 	 16.3301 	 -121.451
| 27> C 	 -64.062 	 15.0154 	 -121.608
| 28> H 	 -64.5162 	 18.1563 	 -122.816
| 29> C 	 -65.0754 	 16.7699 	 -120.16
| 30> H 	 -65.4009 	 15.8883 	 -119.536
| 31> H 	 -66.0695 	 17.268 	 -120.231
| 32> C 	 -64.1976 	 17.697 	 -119.309
| 33> H 	 -64.3964 	 18.7271 	 -119.647
| 34> H 	 -63.1302 	 17.6036 	 -119.403
| 35> C 	 -64.5604 	 17.7153 	 -117.773
| 36> H 	 -64.294 	 16.7807 	 -117.277
| 37> H 	 -65.5456 	 17.9493 	 -117.569
| 38> H 	 -63.9656 	 18.5166 	 -117.359
| 39> H 	 -63.9018 	 10.7834 	 -118.881
| 40> H 	 -63.4266 	 16.8595 	 -124.688
| 41> *
| 42>
| 43>                          ****END OF INPUT****

CARTESIAN COORDINATES (ANGSTROEM)
---------------------------------
  S    -64.301600   12.289700  -120.974000
  C    -63.905900   11.761400  -119.386000
  C    -63.405600   12.858300  -118.614000
  C    -63.508500   14.121400  -119.316000
  C    -64.017700   13.965700  -120.580000
  H    -63.151700   15.152500  -119.085000
  C    -62.829500   12.775300  -117.198000
  H    -63.580000   12.818900  -116.418000
  H    -62.121700   13.564800  -117.037000
  C    -62.029900   11.519400  -116.800000
  H    -62.670800   10.652100  -116.995000
  H    -61.198000   11.348100  -117.550000
  C    -61.548600   11.618600  -115.327000
  H    -62.465600   11.708500  -114.752000
  H    -61.002900   10.727500  -114.931000
  H    -61.007200   12.579100  -115.190000
  S    -63.510100   14.706800  -123.297000
  C    -63.655200   16.398900  -123.700000
  C    -64.259300   17.149300  -122.628000
  C    -64.470200   16.330100  -121.451000
  C    -64.062000   15.015400  -121.608000
  H    -64.516200   18.156300  -122.816000
  C    -65.075400   16.769900  -120.160000
  H    -65.400900   15.888300  -119.536000
  H    -66.069500   17.268000  -120.231000
  C    -64.197600   17.697000  -119.309000
  H    -64.396400   18.727100  -119.647000
  H    -63.130200   17.603600  -119.403000
  C    -64.560400   17.715300  -117.773000
  H    -64.294000   16.780700  -117.277000
  H    -65.545600   17.949300  -117.569000
  H    -63.965600   18.516600  -117.359000
  H    -63.901800   10.783400  -118.881000
  H    -63.426600   16.859500  -124.688000

 Total Charge           Charge          ....    0
 Multiplicity           Mult            ....    1
 Number of Electrons    NEL             ....  134
 Basis Dimension        Dim             ....  322

ORBITAL ENERGIES
----------------

  NO   OCC          E(Eh)            E(eV)
   0   2.0000     -88.971692     -2421.0428
   1   2.0000     -88.970184     -2421.0018
   2   2.0000     -10.331245      -281.1275
   3   2.0000     -10.329294      -281.0744
   4   2.0000     -10.328478      -281.0522
   5   2.0000     -10.320208      -280.8271
   6   2.0000     -10.311155      -280.5808
   7   2.0000     -10.307162      -280.4721
   8   2.0000     -10.301928      -280.3297
   9   2.0000     -10.298914      -280.2477
  10   2.0000     -10.293142      -280.0906
  11   2.0000     -10.292372      -280.0697
  12   2.0000     -10.291298      -280.0404
  13   2.0000     -10.288725      -279.9704
  14   2.0000     -10.288579      -279.9665
  15   2.0000     -10.274504      -279.5835
  16   2.0000      -8.086438      -220.0432
  17   2.0000      -8.083861      -219.9730
  18   2.0000      -6.045025      -164.4935
  19   2.0000      -6.042486      -164.4244
  20   2.0000      -6.040868      -164.3804
  21   2.0000      -6.038516      -164.3164
  22   2.0000      -6.037201      -164.2806
  23   2.0000      -6.034569      -164.2090
  24   2.0000      -1.004788       -27.3417
  25   2.0000      -0.978113       -26.6158
  26   2.0000      -0.910569       -24.7778
  27   2.0000      -0.906822       -24.6759
  28   2.0000      -0.866433       -23.5769
  29   2.0000      -0.851444       -23.1690
  30   2.0000      -0.846142       -23.0247
  31   2.0000      -0.810070       -22.0431
  32   2.0000      -0.782338       -21.2885
  33   2.0000      -0.768680       -20.9168
  34   2.0000      -0.706626       -19.2283
  35   2.0000      -0.702885       -19.1265
  36   2.0000      -0.689548       -18.7636
  37   2.0000      -0.662210       -18.0197
  38   2.0000      -0.639272       -17.3955
  39   2.0000      -0.612251       -16.6602
  40   2.0000      -0.597125       -16.2486
  41   2.0000      -0.573379       -15.6024
  42   2.0000      -0.566360       -15.4114
  43   2.0000      -0.556179       -15.1344
  44   2.0000      -0.529038       -14.3959
  45   2.0000      -0.523037       -14.2325
  46   2.0000      -0.511728       -13.9248
  47   2.0000      -0.509995       -13.8777
  48   2.0000      -0.501626       -13.6499
  49   2.0000      -0.496322       -13.5056
  50   2.0000      -0.492853       -13.4112
  51   2.0000      -0.478702       -13.0261
  52   2.0000      -0.474405       -12.9092
  53   2.0000      -0.463707       -12.6181
  54   2.0000      -0.462022       -12.5722
  55   2.0000      -0.451723       -12.2920
  56   2.0000      -0.447222       -12.1695
  57   2.0000      -0.439844       -11.9688
  58   2.0000      -0.431704       -11.7473
  59   2.0000      -0.426662       -11.6101
  60   2.0000      -0.422882       -11.5072
  61   2.0000      -0.415901       -11.3172
  62   2.0000      -0.407220       -11.0810
  63   2.0000      -0.353687        -9.6243
  64   2.0000      -0.331367        -9.0170
  65   2.0000      -0.329522        -8.9667
  66   2.0000      -0.285268        -7.7625
  67   0.0000       0.024733         0.6730
  68   0.0000       0.066855         1.8192
  69   0.0000       0.108593         2.9550
  70   0.0000       0.116417         3.1679
  71   0.0000       0.126948         3.4544

MULLIKEN ATOMIC CHARGES
-----------------------
   0 S :    0.125536
   1 C :   -0.102702
   2 C :   -0.093382
   3 C :    0.008680
   4 C :   -0.157156
   5 H :    0.030892
   6 C :    0.061356
   7 H :    0.032803
   8 H :    0.019410
   9 C :   -0.128976
  10 H :    0.021930
  11 H :    0.037973
  12 C :   -0.049473
  13 H :    0.024631
  14 H :    0.054804
  15 H :    0.039730
  16 S :    0.111541
  17 C :   -0.124603
  18 C :   -0.016745
  19 C :   -0.004995
  20 C :   -0.132303
  21 H :    0.009203
  22 C :    0.009768
  23 H :    0.046786
  24 H :    0.032550
  25 C :   -0.105853
  26 H :    0.025699
  27 H :    0.037198
  28 C :   -0.023997
  29 H :    0.031951
  30 H :    0.017033
  31 H :    0.027622
  32 H :    0.054968
  33 H :    0.078121
Sum of atomic charges:   -0.0000000

LOEWDIN ATOMIC CHARGES
----------------------
   0 S :    0.427031
   1 C :   -0.221247
   2 C :   -0.056764
   3 C :   -0.066465
   4 C :   -0.194130
   5 H :    0.044730
   6 C :   -0.034673
   7 H :    0.030056
   8 H :    0.026708
   9 C :   -0.048879
  10 H :    0.015042
  11 H :    0.025461
  12 C :   -0.068419
  13 H :    0.024396
  14 H :    0.034897
  15 H :    0.030256
  16 S :    0.387460
  17 C :   -0.193345
  18 C :   -0.063664
  19 C :   -0.055331
  20 C :   -0.182181
  21 H :    0.025080
  22 C :   -0.048388
  23 H :    0.037381
  24 H :    0.036700
  25 C :   -0.042974
  26 H :    0.025300
  27 H :    0.019371
  28 C :   -0.054942
  29 H :    0.022882
  30 H :    0.013228
  31 H :    0.027728
  32 H :    0.038077
  33 H :    0.039618

  Mayer bond orders larger than 0.100000
B(  0-S ,  1-C ) :   1.1438 B(  0-S ,  4-C ) :   1.1488 B(  1-C ,  2-C ) :   1.5939
B(  1-C , 32-H ) :   0.9652 B(  2-C ,  3-C ) :   1.2440 B(  2-C ,  6-C ) :   1.0163
B(  3-C ,  4-C ) :   1.5624 B(  3-C ,  5-H ) :   0.9827 B(  4-C , 20-C ) :   1.0554
B(  6-C ,  7-H ) :   0.9379 B(  6-C ,  8-H ) :   0.9508 B(  6-C ,  9-C ) :   1.0542
B(  9-C , 10-H ) :   0.9531 B(  9-C , 11-H ) :   0.9600 B(  9-C , 12-C ) :   1.0692
B( 12-C , 13-H ) :   0.9724 B( 12-C , 14-H ) :   0.9734 B( 12-C , 15-H ) :   0.9752
B( 16-S , 17-C ) :   1.1645 B( 16-S , 20-C ) :   1.1164 B( 17-C , 18-C ) :   1.5931
B( 17-C , 33-H ) :   0.9625 B( 18-C , 19-C ) :   1.2233 B( 18-C , 21-H ) :   1.0007
B( 19-C , 20-C ) :   1.5972 B( 19-C , 22-C ) :   1.0522 B( 22-C , 23-H ) :   0.9440
B( 22-C , 24-H ) :   0.9290 B( 22-C , 25-C ) :   1.0349 B( 25-C , 26-H ) :   0.9531
B( 25-C , 27-H ) :   0.9626 B( 25-C , 28-C ) :   1.0842 B( 28-C , 29-H ) :   0.9765
B( 28-C , 30-H ) :   0.9753 B( 28-C , 31-H ) :   0.9740

Dispersion correction           -0.014105599
FINAL SINGLE POINT ENERGY     -1339.872186213043

DIPOLE MOMENT
-------------
                                X             Y             Z
Electronic contribution:     -4.76250      -7.08591     -30.48859
Nuclear contribution   :      4.81680       7.49449      31.02736
                        -----------------------------------------
Total Dipole Moment    :      0.05430       0.40858       0.53877
                        -----------------------------------------
Magnitude (a.u.)       :      0.67835
Magnitude (Debye)      :      1.72423

Rotational constants in cm-1:     0.019067     0.008358     0.006275
Rotational constants in MHz :   571.614571   250.573890   188.116570

                             ****ORCA TERMINATED NORMALLY****
TOTAL RUN TIME: 0 days 0 hours 0 minutes 21 seconds 412 msec
