                         Program Version 4.2.1 -  RELEASE  -
|  1> ! wB97X-D3 SP def2-SVP
|  2> %pal
|  3> nprocs 24
|  4> end
|  5>
|  6> * xyz 0 1
|  7> S 	 -109.302 	 28.5779 	 -21.8165
|  8> C 	 -110.215 	 29.0453 	 -23.2174
|  9> C 	 -111.292 	 29.8431 	 -22.8022
| 10> C 	 -111.231 	 30.2032 	 -21.4287
| 11> C 	 -110.282 	 29.4694 	 -20.7193
| 12> H 	 -111.95 	 30.7839 	 -20.8767
| 13> C 	 -112.456 	 30.2652 	 -23.7317
| 14> H 	 -112.522 	 29.3705 	 -24.3725
| 15> H 	 -112.303 	 31.1522 	 -24.3697
| 16> C 	 -113.865 	 30.5266 	 -23.047
| 17> H 	 -114.192 	 29.6201 	 -22.6253
| 18> H 	 -113.746 	 31.0854 	 -22.1424
| 19> C 	 -114.905 	 31.1539 	 -24.0436
| 20> H 	 -114.445 	 32.1023 	 -24.4185
| 21> H 	 -114.968 	 30.5298 	 -24.9296
| 22> H 	 -115.829 	 31.4992 	 -23.7105
| 23> S 	 -108.412 	 29.6091 	 -18.5932
| 24> C 	 -108.956 	 29.6422 	 -16.9676
| 25> C 	 -110.347 	 29.5718 	 -16.9448
| 26> C 	 -110.964 	 29.596 	 -18.2429
| 27> C 	 -110.031 	 29.6011 	 -19.2813
| 28> H 	 -110.858 	 29.3815 	 -16.044
| 29> C 	 -112.496 	 29.4723 	 -18.3869
| 30> H 	 -112.536 	 28.7754 	 -19.2183
| 31> H 	 -113.001 	 30.4138 	 -18.7694
| 32> C 	 -113.237 	 28.8958 	 -17.1421
| 33> H 	 -113.081 	 29.6673 	 -16.3683
| 34> H 	 -112.827 	 28.0119 	 -16.612
| 35> C 	 -114.734 	 28.6086 	 -17.3114
| 36> H 	 -114.976 	 28.2046 	 -18.3033
| 37> H 	 -115.405 	 29.4511 	 -17.2009
| 38> H 	 -114.914 	 27.7406 	 -16.6881
| 39> H 	 -110.111 	 28.5225 	 -24.151
| 40> H 	 -108.302 	 29.5164 	 -16.1085
| 41> *
| 42>
| 43>                          ****END OF INPUT****

CARTESIAN COORDINATES (ANGSTROEM)
---------------------------------
  S    -109.302000   28.577900  -21.816500
  C    -110.215000   29.045300  -23.217400
  C    -111.292000   29.843100  -22.802200
  C    -111.231000   30.203200  -21.428700
  C    -110.282000   29.469400  -20.719300
  H    -111.950000   30.783900  -20.876700
  C    -112.456000   30.265200  -23.731700
  H    -112.522000   29.370500  -24.372500
  H    -112.303000   31.152200  -24.369700
  C    -113.865000   30.526600  -23.047000
  H    -114.192000   29.620100  -22.625300
  H    -113.746000   31.085400  -22.142400
  C    -114.905000   31.153900  -24.043600
  H    -114.445000   32.102300  -24.418500
  H    -114.968000   30.529800  -24.929600
  H    -115.829000   31.499200  -23.710500
  S    -108.412000   29.609100  -18.593200
  C    -108.956000   29.642200  -16.967600
  C    -110.347000   29.571800  -16.944800
  C    -110.964000   29.596000  -18.242900
  C    -110.031000   29.601100  -19.281300
  H    -110.858000   29.381500  -16.044000
  C    -112.496000   29.472300  -18.386900
  H    -112.536000   28.775400  -19.218300
  H    -113.001000   30.413800  -18.769400
  C    -113.237000   28.895800  -17.142100
  H    -113.081000   29.667300  -16.368300
  H    -112.827000   28.011900  -16.612000
  C    -114.734000   28.608600  -17.311400
  H    -114.976000   28.204600  -18.303300
  H    -115.405000   29.451100  -17.200900
  H    -114.914000   27.740600  -16.688100
  H    -110.111000   28.522500  -24.151000
  H    -108.302000   29.516400  -16.108500

 Total Charge           Charge          ....    0
 Multiplicity           Mult            ....    1
 Number of Electrons    NEL             ....  134
 Basis Dimension        Dim             ....  322

ORBITAL ENERGIES
----------------

  NO   OCC          E(Eh)            E(eV)
   0   2.0000     -88.968750     -2420.9628
   1   2.0000     -88.966220     -2420.8939
   2   2.0000     -10.331913      -281.1456
   3   2.0000     -10.329754      -281.0869
   4   2.0000     -10.317265      -280.7471
   5   2.0000     -10.315712      -280.7048
   6   2.0000     -10.308704      -280.5141
   7   2.0000     -10.307012      -280.4681
   8   2.0000     -10.302036      -280.3327
   9   2.0000     -10.300201      -280.2827
  10   2.0000     -10.294174      -280.1187
  11   2.0000     -10.293693      -280.1056
  12   2.0000     -10.290920      -280.0302
  13   2.0000     -10.288554      -279.9658
  14   2.0000     -10.282033      -279.7883
  15   2.0000     -10.279523      -279.7200
  16   2.0000      -8.083988      -219.9765
  17   2.0000      -8.081235      -219.9016
  18   2.0000      -6.042470      -164.4240
  19   2.0000      -6.039774      -164.3506
  20   2.0000      -6.038169      -164.3069
  21   2.0000      -6.035563      -164.2360
  22   2.0000      -6.035008      -164.2209
  23   2.0000      -6.032087      -164.1414
  24   2.0000      -1.009558       -27.4715
  25   2.0000      -0.987500       -26.8712
  26   2.0000      -0.905607       -24.6428
  27   2.0000      -0.903178       -24.5767
  28   2.0000      -0.871417       -23.7125
  29   2.0000      -0.852679       -23.2026
  30   2.0000      -0.844545       -22.9812
  31   2.0000      -0.814904       -22.1747
  32   2.0000      -0.782506       -21.2931
  33   2.0000      -0.772629       -21.0243
  34   2.0000      -0.717465       -19.5232
  35   2.0000      -0.706932       -19.2366
  36   2.0000      -0.695574       -18.9275
  37   2.0000      -0.653213       -17.7748
  38   2.0000      -0.643188       -17.5020
  39   2.0000      -0.621155       -16.9025
  40   2.0000      -0.597640       -16.2626
  41   2.0000      -0.573222       -15.5982
  42   2.0000      -0.566168       -15.4062
  43   2.0000      -0.557167       -15.1613
  44   2.0000      -0.533208       -14.5093
  45   2.0000      -0.524766       -14.2796
  46   2.0000      -0.519149       -14.1268
  47   2.0000      -0.511430       -13.9167
  48   2.0000      -0.503523       -13.7016
  49   2.0000      -0.498603       -13.5677
  50   2.0000      -0.490122       -13.3369
  51   2.0000      -0.480938       -13.0870
  52   2.0000      -0.473907       -12.8957
  53   2.0000      -0.469588       -12.7781
  54   2.0000      -0.460994       -12.5443
  55   2.0000      -0.453099       -12.3294
  56   2.0000      -0.448075       -12.1928
  57   2.0000      -0.436118       -11.8674
  58   2.0000      -0.431120       -11.7314
  59   2.0000      -0.428908       -11.6712
  60   2.0000      -0.417411       -11.3583
  61   2.0000      -0.416320       -11.3286
  62   2.0000      -0.411255       -11.1908
  63   2.0000      -0.352823        -9.6008
  64   2.0000      -0.332436        -9.0460
  65   2.0000      -0.329702        -8.9716
  66   2.0000      -0.289401        -7.8750
  67   0.0000       0.023475         0.6388
  68   0.0000       0.075536         2.0554
  69   0.0000       0.113874         3.0987
  70   0.0000       0.127134         3.4595
  71   0.0000       0.131752         3.5852

MULLIKEN ATOMIC CHARGES
-----------------------
   0 S :    0.115952
   1 C :   -0.122930
   2 C :   -0.081979
   3 C :    0.021734
   4 C :   -0.158532
   5 H :    0.004700
   6 C :    0.038923
   7 H :    0.030642
   8 H :    0.047559
   9 C :   -0.070431
  10 H :    0.013950
  11 H :    0.021170
  12 C :   -0.026804
  13 H :    0.021622
  14 H :    0.033711
  15 H :    0.026513
  16 S :    0.111272
  17 C :   -0.090903
  18 C :   -0.031813
  19 C :   -0.057839
  20 C :   -0.139118
  21 H :    0.003825
  22 C :    0.054862
  23 H :    0.035673
  24 H :    0.058709
  25 C :   -0.136119
  26 H :    0.036418
  27 H :    0.040144
  28 C :   -0.012463
  29 H :    0.018558
  30 H :    0.041571
  31 H :    0.029453
  32 H :    0.056185
  33 H :    0.065783
Sum of atomic charges:   -0.0000000

LOEWDIN ATOMIC CHARGES
----------------------
   0 S :    0.432177
   1 C :   -0.207701
   2 C :   -0.058435
   3 C :   -0.066466
   4 C :   -0.199308
   5 H :    0.026978
   6 C :   -0.031127
   7 H :    0.033239
   8 H :    0.032471
   9 C :   -0.037589
  10 H :    0.015844
  11 H :    0.016937
  12 C :   -0.060586
  13 H :    0.030034
  14 H :    0.027191
  15 H :    0.018031
  16 S :    0.419930
  17 C :   -0.197819
  18 C :   -0.072419
  19 C :   -0.053210
  20 C :   -0.203536
  21 H :    0.022048
  22 C :   -0.037167
  23 H :    0.030767
  24 H :    0.038586
  25 C :   -0.052825
  26 H :    0.025376
  27 H :    0.030038
  28 C :   -0.066497
  29 H :    0.026381
  30 H :    0.025619
  31 H :    0.030994
  32 H :    0.028107
  33 H :    0.033936

  Mayer bond orders larger than 0.100000
B(  0-S ,  1-C ) :   1.1545 B(  0-S ,  4-C ) :   1.1784 B(  1-C ,  2-C ) :   1.5695
B(  1-C ,  4-C ) :   0.1025 B(  1-C , 32-H ) :   0.9721 B(  2-C ,  3-C ) :   1.2804
B(  2-C ,  6-C ) :   0.9998 B(  3-C ,  4-C ) :   1.5246 B(  3-C ,  5-H ) :   0.9872
B(  4-C , 20-C ) :   1.0633 B(  6-C ,  7-H ) :   0.9451 B(  6-C ,  8-H ) :   0.9499
B(  6-C ,  9-C ) :   1.0548 B(  9-C , 10-H ) :   0.9561 B(  9-C , 11-H ) :   0.9553
B(  9-C , 12-C ) :   1.0725 B( 12-C , 13-H ) :   0.9730 B( 12-C , 14-H ) :   0.9778
B( 12-C , 15-H ) :   0.9769 B( 16-S , 17-C ) :   1.1750 B( 16-S , 20-C ) :   1.1427
B( 17-C , 18-C ) :   1.5650 B( 17-C , 33-H ) :   0.9651 B( 18-C , 19-C ) :   1.2850
B( 18-C , 21-H ) :   0.9916 B( 19-C , 20-C ) :   1.5693 B( 19-C , 22-C ) :   1.0174
B( 22-C , 23-H ) :   0.9291 B( 22-C , 24-H ) :   0.9328 B( 22-C , 25-C ) :   1.0651
B( 25-C , 26-H ) :   0.9454 B( 25-C , 27-H ) :   0.9662 B( 25-C , 28-C ) :   1.0745
B( 28-C , 29-H ) :   0.9733 B( 28-C , 30-H ) :   0.9753 B( 28-C , 31-H ) :   0.9766

Dispersion correction           -0.013574265
FINAL SINGLE POINT ENERGY     -1339.869197677052

DIPOLE MOMENT
-------------
                                X             Y             Z
Electronic contribution:     32.75511      -3.76331       2.57124
Nuclear contribution   :    -33.51749       3.64167      -2.48221
                        -----------------------------------------
Total Dipole Moment    :     -0.76237      -0.12164       0.08904
                        -----------------------------------------
Magnitude (a.u.)       :      0.77713
Magnitude (Debye)      :      1.97531

Rotational constants in cm-1:     0.015660     0.009275     0.006259
Rotational constants in MHz :   469.483716   278.056740   187.631024

                             ****ORCA TERMINATED NORMALLY****
TOTAL RUN TIME: 0 days 0 hours 0 minutes 20 seconds 157 msec
