                         Program Version 4.2.1 -  RELEASE  -
|  1> ! wB97X-D3 SP def2-SVP
|  2> %pal
|  3> nprocs 24
|  4> end
|  5>
|  6> * xyz 0 1
|  7> S 	 -39.796 	 -12.5585 	 12.3954
|  8> C 	 -41.0966 	 -12.5567 	 13.5498
|  9> C 	 -40.7004 	 -12.3576 	 14.8779
| 10> C 	 -39.374 	 -12.8506 	 15.002
| 11> C 	 -38.7275 	 -13.095 	 13.7572
| 12> H 	 -38.8404 	 -13.0753 	 15.9383
| 13> C 	 -41.6257 	 -12.0129 	 16.0243
| 14> H 	 -41.1667 	 -12.5712 	 16.7551
| 15> H 	 -42.5574 	 -12.4962 	 15.9135
| 16> C 	 -41.8379 	 -10.4574 	 16.3089
| 17> H 	 -42.7264 	 -10.241 	 16.8528
| 18> H 	 -41.0083 	 -9.9095 	 16.7582
| 19> C 	 -42.1876 	 -9.75491 	 14.9924
| 20> H 	 -43.0342 	 -10.1636 	 14.4794
| 21> H 	 -42.4436 	 -8.70656 	 15.0997
| 22> H 	 -41.3737 	 -9.75506 	 14.2597
| 23> S 	 -37.1526 	 -15.3012 	 14.069
| 24> C 	 -35.5771 	 -15.4235 	 13.3831
| 25> C 	 -35.1679 	 -14.1504 	 12.9981
| 26> C 	 -36.1972 	 -13.0877 	 13.0691
| 27> C 	 -37.3885 	 -13.6298 	 13.5609
| 28> H 	 -34.126 	 -14.0594 	 12.6598
| 29> C 	 -35.9267 	 -11.6788 	 12.6425
| 30> H 	 -36.7729 	 -11.285 	 12.1828
| 31> H 	 -35.1549 	 -11.702 	 11.8841
| 32> C 	 -35.4513 	 -10.6872 	 13.7055
| 33> H 	 -35.4106 	 -9.6647 	 13.3628
| 34> H 	 -34.4479 	 -10.9067 	 14.1281
| 35> C 	 -36.4156 	 -10.7399 	 14.8617
| 36> H 	 -37.4157 	 -10.8904 	 14.4036
| 37> H 	 -36.4351 	 -9.81452 	 15.3338
| 38> H 	 -36.099 	 -11.6272 	 15.4554
| 39> H 	 -42.0136 	 -12.2242 	 13.2009
| 40> H 	 -34.9941 	 -16.2365 	 13.3368
| 41> *
| 42>
| 43>                          ****END OF INPUT****

CARTESIAN COORDINATES (ANGSTROEM)
---------------------------------
  S    -39.796000  -12.558500   12.395400
  C    -41.096600  -12.556700   13.549800
  C    -40.700400  -12.357600   14.877900
  C    -39.374000  -12.850600   15.002000
  C    -38.727500  -13.095000   13.757200
  H    -38.840400  -13.075300   15.938300
  C    -41.625700  -12.012900   16.024300
  H    -41.166700  -12.571200   16.755100
  H    -42.557400  -12.496200   15.913500
  C    -41.837900  -10.457400   16.308900
  H    -42.726400  -10.241000   16.852800
  H    -41.008300   -9.909500   16.758200
  C    -42.187600   -9.754910   14.992400
  H    -43.034200  -10.163600   14.479400
  H    -42.443600   -8.706560   15.099700
  H    -41.373700   -9.755060   14.259700
  S    -37.152600  -15.301200   14.069000
  C    -35.577100  -15.423500   13.383100
  C    -35.167900  -14.150400   12.998100
  C    -36.197200  -13.087700   13.069100
  C    -37.388500  -13.629800   13.560900
  H    -34.126000  -14.059400   12.659800
  C    -35.926700  -11.678800   12.642500
  H    -36.772900  -11.285000   12.182800
  H    -35.154900  -11.702000   11.884100
  C    -35.451300  -10.687200   13.705500
  H    -35.410600   -9.664700   13.362800
  H    -34.447900  -10.906700   14.128100
  C    -36.415600  -10.739900   14.861700
  H    -37.415700  -10.890400   14.403600
  H    -36.435100   -9.814520   15.333800
  H    -36.099000  -11.627200   15.455400
  H    -42.013600  -12.224200   13.200900
  H    -34.994100  -16.236500   13.336800

 Total Charge           Charge          ....    0
 Multiplicity           Mult            ....    1
 Number of Electrons    NEL             ....  134
 Basis Dimension        Dim             ....  322

ORBITAL ENERGIES
----------------

  NO   OCC          E(Eh)            E(eV)
   0   2.0000     -88.969283     -2420.9773
   1   2.0000     -88.961396     -2420.7627
   2   2.0000     -10.334838      -281.2252
   3   2.0000     -10.327862      -281.0354
   4   2.0000     -10.308956      -280.5209
   5   2.0000     -10.308801      -280.5167
   6   2.0000     -10.308502      -280.5086
   7   2.0000     -10.305238      -280.4198
   8   2.0000     -10.303008      -280.3591
   9   2.0000     -10.297807      -280.2176
  10   2.0000     -10.293274      -280.0942
  11   2.0000     -10.290925      -280.0303
  12   2.0000     -10.283248      -279.8214
  13   2.0000     -10.277774      -279.6725
  14   2.0000     -10.272345      -279.5247
  15   2.0000     -10.261333      -279.2251
  16   2.0000      -8.083110      -219.9526
  17   2.0000      -8.076490      -219.7725
  18   2.0000      -6.041486      -164.3972
  19   2.0000      -6.038133      -164.3060
  20   2.0000      -6.035032      -164.2216
  21   2.0000      -6.033693      -164.1851
  22   2.0000      -6.030884      -164.1087
  23   2.0000      -6.027230      -164.0093
  24   2.0000      -1.000721       -27.2310
  25   2.0000      -0.980874       -26.6909
  26   2.0000      -0.915597       -24.9147
  27   2.0000      -0.909719       -24.7547
  28   2.0000      -0.866473       -23.5779
  29   2.0000      -0.853910       -23.2361
  30   2.0000      -0.844754       -22.9869
  31   2.0000      -0.810010       -22.0415
  32   2.0000      -0.785707       -21.3802
  33   2.0000      -0.774279       -21.0692
  34   2.0000      -0.710794       -19.3417
  35   2.0000      -0.701686       -19.0939
  36   2.0000      -0.691207       -18.8087
  37   2.0000      -0.660300       -17.9677
  38   2.0000      -0.640488       -17.4286
  39   2.0000      -0.615667       -16.7531
  40   2.0000      -0.597317       -16.2538
  41   2.0000      -0.570295       -15.5185
  42   2.0000      -0.561256       -15.2726
  43   2.0000      -0.554795       -15.0968
  44   2.0000      -0.549602       -14.9554
  45   2.0000      -0.545113       -14.8333
  46   2.0000      -0.516443       -14.0531
  47   2.0000      -0.510963       -13.9040
  48   2.0000      -0.498441       -13.5633
  49   2.0000      -0.492494       -13.4014
  50   2.0000      -0.487081       -13.2542
  51   2.0000      -0.473519       -12.8851
  52   2.0000      -0.469447       -12.7743
  53   2.0000      -0.467062       -12.7094
  54   2.0000      -0.458991       -12.4898
  55   2.0000      -0.445359       -12.1188
  56   2.0000      -0.441763       -12.0210
  57   2.0000      -0.436357       -11.8739
  58   2.0000      -0.429632       -11.6909
  59   2.0000      -0.423190       -11.5156
  60   2.0000      -0.422126       -11.4866
  61   2.0000      -0.416710       -11.3393
  62   2.0000      -0.412854       -11.2343
  63   2.0000      -0.337644        -9.1878
  64   2.0000      -0.331355        -9.0166
  65   2.0000      -0.323220        -8.7953
  66   2.0000      -0.290297        -7.8994
  67   0.0000       0.027452         0.7470
  68   0.0000       0.049759         1.3540
  69   0.0000       0.091997         2.5034
  70   0.0000       0.118448         3.2231
  71   0.0000       0.124245         3.3809

MULLIKEN ATOMIC CHARGES
-----------------------
   0 S :    0.110929
   1 C :   -0.070461
   2 C :   -0.128064
   3 C :    0.031624
   4 C :   -0.172424
   5 H :    0.028728
   6 C :    0.127349
   7 H :   -0.002494
   8 H :    0.022912
   9 C :   -0.027224
  10 H :    0.028624
  11 H :    0.042637
  12 C :   -0.087637
  13 H :    0.017347
  14 H :    0.026163
  15 H :    0.038298
  16 S :    0.109876
  17 C :   -0.039231
  18 C :   -0.060379
  19 C :   -0.040438
  20 C :   -0.182600
  21 H :    0.026535
  22 C :    0.120761
  23 H :    0.005936
  24 H :    0.013216
  25 C :   -0.074934
  26 H :    0.022776
  27 H :    0.024064
  28 C :   -0.043402
  29 H :    0.032119
  30 H :    0.015147
  31 H :    0.053801
  32 H :    0.020747
  33 H :    0.009697
Sum of atomic charges:    0.0000000

LOEWDIN ATOMIC CHARGES
----------------------
   0 S :    0.387950
   1 C :   -0.176595
   2 C :   -0.055876
   3 C :   -0.050493
   4 C :   -0.185416
   5 H :    0.035848
   6 C :   -0.020431
   7 H :    0.021401
   8 H :    0.032970
   9 C :   -0.028641
  10 H :    0.024986
  11 H :    0.028685
  12 C :   -0.070130
  13 H :    0.017048
  14 H :    0.024187
  15 H :    0.022629
  16 S :    0.414552
  17 C :   -0.178092
  18 C :   -0.070409
  19 C :   -0.052640
  20 C :   -0.198127
  21 H :    0.031623
  22 C :   -0.028912
  23 H :    0.021006
  24 H :    0.030336
  25 C :   -0.038200
  26 H :    0.020819
  27 H :    0.022106
  28 C :   -0.064007
  29 H :    0.026749
  30 H :    0.013026
  31 H :    0.033240
  32 H :    0.002482
  33 H :    0.006327

  Mayer bond orders larger than 0.100000
B(  0-S ,  1-C ) :   1.1572 B(  0-S ,  4-C ) :   1.1256 B(  1-C ,  2-C ) :   1.5891
B(  1-C ,  4-C ) :   0.1073 B(  1-C , 32-H ) :   0.9685 B(  2-C ,  3-C ) :   1.2365
B(  2-C ,  6-C ) :   1.0126 B(  3-C ,  4-C ) :   1.5705 B(  3-C ,  5-H ) :   0.9836
B(  4-C , 20-C ) :   1.0631 B(  6-C ,  7-H ) :   0.9399 B(  6-C ,  8-H ) :   0.9434
B(  6-C ,  9-C ) :   1.0515 B(  9-C , 10-H ) :   0.9598 B(  9-C , 11-H ) :   0.9609
B(  9-C , 12-C ) :   1.0780 B( 12-C , 13-H ) :   0.9752 B( 12-C , 14-H ) :   0.9721
B( 12-C , 15-H ) :   0.9697 B( 16-S , 17-C ) :   1.1483 B( 16-S , 20-C ) :   1.1466
B( 17-C , 18-C ) :   1.6177 B( 17-C , 33-H ) :   0.9855 B( 18-C , 19-C ) :   1.2152
B( 18-C , 21-H ) :   0.9842 B( 19-C , 20-C ) :   1.5733 B( 19-C , 22-C ) :   1.0549
B( 22-C , 23-H ) :   0.9268 B( 22-C , 24-H ) :   0.9248 B( 22-C , 25-C ) :   1.0811
B( 25-C , 26-H ) :   0.9561 B( 25-C , 27-H ) :   0.9570 B( 25-C , 28-C ) :   1.0807
B( 28-C , 29-H ) :   0.9747 B( 28-C , 30-H ) :   0.9697 B( 28-C , 31-H ) :   0.9708

Dispersion correction           -0.016108921
FINAL SINGLE POINT ENERGY     -1339.835856510651

DIPOLE MOMENT
-------------
                                X             Y             Z
Electronic contribution:      3.78558     -20.87291      -9.58188
Nuclear contribution   :     -3.81172      21.33433       9.85516
                        -----------------------------------------
Total Dipole Moment    :     -0.02614       0.46143       0.27328
                        -----------------------------------------
Magnitude (a.u.)       :      0.53692
Magnitude (Debye)      :      1.36474

Rotational constants in cm-1:     0.022750     0.008544     0.007530
Rotational constants in MHz :   682.015585   256.146334   225.740977

                             ****ORCA TERMINATED NORMALLY****
TOTAL RUN TIME: 0 days 0 hours 0 minutes 25 seconds 37 msec
