                         Program Version 4.2.1 -  RELEASE  -
|  1> ! wB97X-D3 SP def2-SVP
|  2> %pal
|  3> nprocs 24
|  4> end
|  5>
|  6> * xyz 0 1
|  7> S 	 -148.241 	 27.8793 	 -13.1044
|  8> C 	 -147.348 	 27.2614 	 -14.5089
|  9> C 	 -146.191 	 27.9485 	 -14.69
| 10> C 	 -145.903 	 28.8461 	 -13.5891
| 11> C 	 -146.925 	 28.8847 	 -12.6246
| 12> H 	 -145.082 	 29.5205 	 -13.568
| 13> C 	 -145.249 	 27.7439 	 -15.8659
| 14> H 	 -144.293 	 28.2117 	 -15.485
| 15> H 	 -145.592 	 28.376 	 -16.6852
| 16> C 	 -144.888 	 26.3168 	 -16.2516
| 17> H 	 -144.499 	 25.7777 	 -15.3505
| 18> H 	 -145.724 	 25.7404 	 -16.6107
| 19> C 	 -143.741 	 26.1838 	 -17.2877
| 20> H 	 -144.055 	 26.3798 	 -18.3553
| 21> H 	 -143.011 	 26.8806 	 -17.0386
| 22> H 	 -143.263 	 25.2134 	 -17.1738
| 23> S 	 -146.06 	 28.7198 	 -10.032
| 24> C 	 -146.687 	 29.9125 	 -8.87142
| 25> C 	 -147.357 	 30.9578 	 -9.47908
| 26> C 	 -147.489 	 30.7814 	 -10.885
| 27> C 	 -146.895 	 29.5717 	 -11.3418
| 28> H 	 -147.744 	 31.7883 	 -8.90162
| 29> C 	 -148.105 	 31.8319 	 -11.79
| 30> H 	 -148.996 	 32.2013 	 -11.3523
| 31> H 	 -148.367 	 31.3557 	 -12.7768
| 32> C 	 -147.12 	 33.0343 	 -12.1136
| 33> H 	 -147.533 	 33.5359 	 -12.9948
| 34> H 	 -146.12 	 32.6223 	 -12.3093
| 35> C 	 -147.025 	 34.1707 	 -11.0903
| 36> H 	 -146.952 	 35.1782 	 -11.6404
| 37> H 	 -146.236 	 34.2092 	 -10.3287
| 38> H 	 -147.927 	 34.0462 	 -10.4278
| 39> H 	 -147.639 	 26.4471 	 -15.1727
| 40> H 	 -146.599 	 29.8042 	 -7.80044
| 41> *
| 42>
| 43>                          ****END OF INPUT****

CARTESIAN COORDINATES (ANGSTROEM)
---------------------------------
  S    -148.241000   27.879300  -13.104400
  C    -147.348000   27.261400  -14.508900
  C    -146.191000   27.948500  -14.690000
  C    -145.903000   28.846100  -13.589100
  C    -146.925000   28.884700  -12.624600
  H    -145.082000   29.520500  -13.568000
  C    -145.249000   27.743900  -15.865900
  H    -144.293000   28.211700  -15.485000
  H    -145.592000   28.376000  -16.685200
  C    -144.888000   26.316800  -16.251600
  H    -144.499000   25.777700  -15.350500
  H    -145.724000   25.740400  -16.610700
  C    -143.741000   26.183800  -17.287700
  H    -144.055000   26.379800  -18.355300
  H    -143.011000   26.880600  -17.038600
  H    -143.263000   25.213400  -17.173800
  S    -146.060000   28.719800  -10.032000
  C    -146.687000   29.912500   -8.871420
  C    -147.357000   30.957800   -9.479080
  C    -147.489000   30.781400  -10.885000
  C    -146.895000   29.571700  -11.341800
  H    -147.744000   31.788300   -8.901620
  C    -148.105000   31.831900  -11.790000
  H    -148.996000   32.201300  -11.352300
  H    -148.367000   31.355700  -12.776800
  C    -147.120000   33.034300  -12.113600
  H    -147.533000   33.535900  -12.994800
  H    -146.120000   32.622300  -12.309300
  C    -147.025000   34.170700  -11.090300
  H    -146.952000   35.178200  -11.640400
  H    -146.236000   34.209200  -10.328700
  H    -147.927000   34.046200  -10.427800
  H    -147.639000   26.447100  -15.172700
  H    -146.599000   29.804200   -7.800440

 Total Charge           Charge          ....    0
 Multiplicity           Mult            ....    1
 Number of Electrons    NEL             ....  134
 Basis Dimension        Dim             ....  322

ORBITAL ENERGIES
----------------

  NO   OCC          E(Eh)            E(eV)
   0   2.0000     -88.966746     -2420.9082
   1   2.0000     -88.965170     -2420.8653
   2   2.0000     -10.328621      -281.0561
   3   2.0000     -10.328373      -281.0493
   4   2.0000     -10.319840      -280.8171
   5   2.0000     -10.311017      -280.5770
   6   2.0000     -10.307242      -280.4743
   7   2.0000     -10.297880      -280.2196
   8   2.0000     -10.296564      -280.1838
   9   2.0000     -10.295001      -280.1412
  10   2.0000     -10.294439      -280.1259
  11   2.0000     -10.294322      -280.1227
  12   2.0000     -10.290503      -280.0188
  13   2.0000     -10.290172      -280.0098
  14   2.0000     -10.286638      -279.9136
  15   2.0000     -10.278249      -279.6854
  16   2.0000      -8.080677      -219.8864
  17   2.0000      -8.079780      -219.8620
  18   2.0000      -6.039190      -164.3347
  19   2.0000      -6.038317      -164.3109
  20   2.0000      -6.035326      -164.2296
  21   2.0000      -6.034257      -164.2005
  22   2.0000      -6.031454      -164.1242
  23   2.0000      -6.030549      -164.0996
  24   2.0000      -1.001208       -27.2443
  25   2.0000      -0.978365       -26.6227
  26   2.0000      -0.911203       -24.7951
  27   2.0000      -0.901013       -24.5178
  28   2.0000      -0.867963       -23.6185
  29   2.0000      -0.847212       -23.0538
  30   2.0000      -0.843274       -22.9466
  31   2.0000      -0.811235       -22.0748
  32   2.0000      -0.782591       -21.2954
  33   2.0000      -0.767764       -20.8919
  34   2.0000      -0.707834       -19.2611
  35   2.0000      -0.700781       -19.0692
  36   2.0000      -0.687692       -18.7131
  37   2.0000      -0.659939       -17.9578
  38   2.0000      -0.637992       -17.3606
  39   2.0000      -0.610150       -16.6030
  40   2.0000      -0.592048       -16.1104
  41   2.0000      -0.572053       -15.5663
  42   2.0000      -0.565529       -15.3888
  43   2.0000      -0.548341       -14.9211
  44   2.0000      -0.542486       -14.7618
  45   2.0000      -0.525188       -14.2911
  46   2.0000      -0.515810       -14.0359
  47   2.0000      -0.507965       -13.8224
  48   2.0000      -0.507213       -13.8020
  49   2.0000      -0.493839       -13.4380
  50   2.0000      -0.484259       -13.1774
  51   2.0000      -0.479071       -13.0362
  52   2.0000      -0.472608       -12.8603
  53   2.0000      -0.464995       -12.6531
  54   2.0000      -0.456237       -12.4148
  55   2.0000      -0.445383       -12.1195
  56   2.0000      -0.440732       -11.9929
  57   2.0000      -0.437282       -11.8990
  58   2.0000      -0.429213       -11.6795
  59   2.0000      -0.422006       -11.4834
  60   2.0000      -0.419956       -11.4276
  61   2.0000      -0.416139       -11.3237
  62   2.0000      -0.414982       -11.2922
  63   2.0000      -0.337142        -9.1741
  64   2.0000      -0.326908        -8.8956
  65   2.0000      -0.321424        -8.7464
  66   2.0000      -0.303622        -8.2620
  67   0.0000       0.042597         1.1591
  68   0.0000       0.047351         1.2885
  69   0.0000       0.108823         2.9612
  70   0.0000       0.118525         3.2252
  71   0.0000       0.128601         3.4994

MULLIKEN ATOMIC CHARGES
-----------------------
   0 S :    0.126162
   1 C :   -0.142175
   2 C :   -0.085269
   3 C :    0.045967
   4 C :   -0.169461
   5 H :    0.002717
   6 C :    0.067683
   7 H :    0.020692
   8 H :    0.048703
   9 C :   -0.105789
  10 H :    0.038875
  11 H :    0.030598
  12 C :   -0.033100
  13 H :    0.043169
  14 H :    0.008272
  15 H :    0.036222
  16 S :    0.117845
  17 C :   -0.094370
  18 C :   -0.029754
  19 C :   -0.017060
  20 C :   -0.189141
  21 H :    0.020403
  22 C :    0.062150
  23 H :    0.017798
  24 H :    0.040080
  25 C :   -0.059910
  26 H :    0.037604
  27 H :    0.038276
  28 C :   -0.094870
  29 H :    0.052049
  30 H :    0.036227
  31 H :    0.023683
  32 H :    0.049347
  33 H :    0.056378
Sum of atomic charges:   -0.0000000

LOEWDIN ATOMIC CHARGES
----------------------
   0 S :    0.411832
   1 C :   -0.193058
   2 C :   -0.067534
   3 C :   -0.058696
   4 C :   -0.211490
   5 H :    0.024704
   6 C :   -0.036109
   7 H :    0.034539
   8 H :    0.034542
   9 C :   -0.044041
  10 H :    0.033780
  11 H :    0.017502
  12 C :   -0.061982
  13 H :    0.030850
  14 H :    0.013333
  15 H :    0.029415
  16 S :    0.396480
  17 C :   -0.170896
  18 C :   -0.073572
  19 C :   -0.050043
  20 C :   -0.203385
  21 H :    0.033419
  22 C :   -0.028647
  23 H :    0.021077
  24 H :    0.039498
  25 C :   -0.039144
  26 H :    0.029505
  27 H :    0.027518
  28 C :   -0.084930
  29 H :    0.038119
  30 H :    0.022613
  31 H :    0.025953
  32 H :    0.031507
  33 H :    0.027343

  Mayer bond orders larger than 0.100000
B(  0-S ,  1-C ) :   1.1290 B(  0-S ,  4-C ) :   1.1610 B(  1-C ,  2-C ) :   1.6287
B(  1-C , 32-H ) :   0.9692 B(  2-C ,  3-C ) :   1.2436 B(  2-C ,  6-C ) :   1.0090
B(  3-C ,  4-C ) :   1.5692 B(  3-C ,  5-H ) :   0.9958 B(  4-C , 20-C ) :   1.0229
B(  6-C ,  7-H ) :   0.9418 B(  6-C ,  8-H ) :   0.9323 B(  6-C ,  9-C ) :   1.0706
B(  9-C , 10-H ) :   0.9588 B(  9-C , 11-H ) :   0.9536 B(  9-C , 12-C ) :   1.0847
B( 12-C , 13-H ) :   0.9756 B( 12-C , 14-H ) :   0.9733 B( 12-C , 15-H ) :   0.9759
B( 16-S , 17-C ) :   1.1552 B( 16-S , 20-C ) :   1.1443 B( 17-C , 18-C ) :   1.6091
B( 17-C , 20-C ) :   0.1057 B( 17-C , 33-H ) :   0.9668 B( 18-C , 19-C ) :   1.2412
B( 18-C , 21-H ) :   0.9886 B( 19-C , 20-C ) :   1.5843 B( 19-C , 22-C ) :   1.0562
B( 22-C , 23-H ) :   0.9342 B( 22-C , 24-H ) :   0.9312 B( 22-C , 25-C ) :   1.0729
B( 25-C , 26-H ) :   0.9617 B( 25-C , 27-H ) :   0.9556 B( 25-C , 28-C ) :   1.0542
B( 28-C , 29-H ) :   0.9779 B( 28-C , 30-H ) :   0.9766 B( 28-C , 31-H ) :   0.9749

Dispersion correction           -0.013950630
FINAL SINGLE POINT ENERGY     -1339.876044502347

DIPOLE MOMENT
-------------
                                X             Y             Z
Electronic contribution:     -9.00254     -10.05446      15.96594
Nuclear contribution   :      9.19198      10.35656     -16.23309
                        -----------------------------------------
Total Dipole Moment    :      0.18944       0.30210      -0.26715
                        -----------------------------------------
Magnitude (a.u.)       :      0.44556
Magnitude (Debye)      :      1.13252

Rotational constants in cm-1:     0.022663     0.006704     0.006114
Rotational constants in MHz :   679.430691   200.975888   183.306514

                             ****ORCA TERMINATED NORMALLY****
TOTAL RUN TIME: 0 days 0 hours 0 minutes 20 seconds 759 msec
