                         Program Version 4.2.1 -  RELEASE  -
|  1> ! wB97X-D3 SP def2-SVP
|  2> %pal
|  3> nprocs 24
|  4> end
|  5>
|  6> * xyz 0 1
|  7> S 	 -111.101 	 50.1102 	 -86.4941
|  8> C 	 -109.816 	 49.5564 	 -87.6207
|  9> C 	 -110.058 	 50.0309 	 -88.8991
| 10> C 	 -111.343 	 50.6878 	 -89.0137
| 11> C 	 -112.027 	 50.7737 	 -87.7998
| 12> H 	 -111.832 	 51.0152 	 -89.9808
| 13> C 	 -109.123 	 49.9385 	 -90.1149
| 14> H 	 -109.464 	 50.6167 	 -90.8819
| 15> H 	 -109.108 	 48.9587 	 -90.478
| 16> C 	 -107.696 	 50.304 	 -89.8829
| 17> H 	 -107.685 	 51.3298 	 -89.6081
| 18> H 	 -107.362 	 49.7548 	 -88.9397
| 19> C 	 -106.767 	 49.8991 	 -91.0521
| 20> H 	 -106.975 	 48.8088 	 -91.2113
| 21> H 	 -106.926 	 50.5491 	 -91.9086
| 22> H 	 -105.674 	 50.1169 	 -90.8759
| 23> S 	 -114.576 	 50.5848 	 -86.9815
| 24> C 	 -115.685 	 51.9008 	 -87.0927
| 25> C 	 -115.044 	 52.985 	 -87.6252
| 26> C 	 -113.646 	 52.7587 	 -87.9056
| 27> C 	 -113.254 	 51.4501 	 -87.5586
| 28> H 	 -115.664 	 53.9695 	 -87.8528
| 29> C 	 -112.774 	 53.897 	 -88.4187
| 30> H 	 -113.458 	 54.5585 	 -88.9117
| 31> H 	 -112.016 	 53.5172 	 -89.1295
| 32> C 	 -112.144 	 54.685 	 -87.298
| 33> H 	 -111.267 	 55.3259 	 -87.578
| 34> H 	 -111.773 	 54.0137 	 -86.4891
| 35> C 	 -113.152 	 55.6753 	 -86.5851
| 36> H 	 -113.913 	 55.0114 	 -86.1605
| 37> H 	 -113.581 	 56.3403 	 -87.3071
| 38> H 	 -112.588 	 56.2225 	 -85.8304
| 39> H 	 -108.852 	 49.1419 	 -87.2923
| 40> H 	 -116.763 	 51.7696 	 -86.9895
| 41> *
| 42>
| 43>                          ****END OF INPUT****

CARTESIAN COORDINATES (ANGSTROEM)
---------------------------------
  S    -111.101000   50.110200  -86.494100
  C    -109.816000   49.556400  -87.620700
  C    -110.058000   50.030900  -88.899100
  C    -111.343000   50.687800  -89.013700
  C    -112.027000   50.773700  -87.799800
  H    -111.832000   51.015200  -89.980800
  C    -109.123000   49.938500  -90.114900
  H    -109.464000   50.616700  -90.881900
  H    -109.108000   48.958700  -90.478000
  C    -107.696000   50.304000  -89.882900
  H    -107.685000   51.329800  -89.608100
  H    -107.362000   49.754800  -88.939700
  C    -106.767000   49.899100  -91.052100
  H    -106.975000   48.808800  -91.211300
  H    -106.926000   50.549100  -91.908600
  H    -105.674000   50.116900  -90.875900
  S    -114.576000   50.584800  -86.981500
  C    -115.685000   51.900800  -87.092700
  C    -115.044000   52.985000  -87.625200
  C    -113.646000   52.758700  -87.905600
  C    -113.254000   51.450100  -87.558600
  H    -115.664000   53.969500  -87.852800
  C    -112.774000   53.897000  -88.418700
  H    -113.458000   54.558500  -88.911700
  H    -112.016000   53.517200  -89.129500
  C    -112.144000   54.685000  -87.298000
  H    -111.267000   55.325900  -87.578000
  H    -111.773000   54.013700  -86.489100
  C    -113.152000   55.675300  -86.585100
  H    -113.913000   55.011400  -86.160500
  H    -113.581000   56.340300  -87.307100
  H    -112.588000   56.222500  -85.830400
  H    -108.852000   49.141900  -87.292300
  H    -116.763000   51.769600  -86.989500

 Total Charge           Charge          ....    0
 Multiplicity           Mult            ....    1
 Number of Electrons    NEL             ....  134
 Basis Dimension        Dim             ....  322

ORBITAL ENERGIES
----------------

  NO   OCC          E(Eh)            E(eV)
   0   2.0000     -88.968486     -2420.9556
   1   2.0000     -88.964541     -2420.8482
   2   2.0000     -10.329241      -281.0730
   3   2.0000     -10.321793      -280.8703
   4   2.0000     -10.320146      -280.8255
   5   2.0000     -10.316057      -280.7142
   6   2.0000     -10.307412      -280.4789
   7   2.0000     -10.306430      -280.4522
   8   2.0000     -10.304300      -280.3943
   9   2.0000     -10.301777      -280.3256
  10   2.0000     -10.290052      -280.0066
  11   2.0000     -10.289116      -279.9811
  12   2.0000     -10.286215      -279.9021
  13   2.0000     -10.285631      -279.8862
  14   2.0000     -10.285476      -279.8820
  15   2.0000     -10.273224      -279.5486
  16   2.0000      -8.082753      -219.9429
  17   2.0000      -8.081136      -219.8989
  18   2.0000      -6.041330      -164.3930
  19   2.0000      -6.039431      -164.3413
  20   2.0000      -6.037313      -164.2836
  21   2.0000      -6.035162      -164.2251
  22   2.0000      -6.033465      -164.1789
  23   2.0000      -6.032205      -164.1446
  24   2.0000      -1.015057       -27.6211
  25   2.0000      -0.984689       -26.7948
  26   2.0000      -0.919708       -25.0265
  27   2.0000      -0.909157       -24.7394
  28   2.0000      -0.874396       -23.7935
  29   2.0000      -0.845569       -23.0091
  30   2.0000      -0.840688       -22.8763
  31   2.0000      -0.811210       -22.0741
  32   2.0000      -0.783725       -21.3263
  33   2.0000      -0.772885       -21.0313
  34   2.0000      -0.708366       -19.2756
  35   2.0000      -0.698799       -19.0153
  36   2.0000      -0.684495       -18.6260
  37   2.0000      -0.659637       -17.9496
  38   2.0000      -0.637381       -17.3440
  39   2.0000      -0.615771       -16.7560
  40   2.0000      -0.593682       -16.1549
  41   2.0000      -0.578177       -15.7330
  42   2.0000      -0.567512       -15.4428
  43   2.0000      -0.548853       -14.9350
  44   2.0000      -0.546579       -14.8732
  45   2.0000      -0.521029       -14.1779
  46   2.0000      -0.516480       -14.0541
  47   2.0000      -0.509072       -13.8526
  48   2.0000      -0.505091       -13.7442
  49   2.0000      -0.501445       -13.6450
  50   2.0000      -0.486125       -13.2281
  51   2.0000      -0.480255       -13.0684
  52   2.0000      -0.475646       -12.9430
  53   2.0000      -0.465095       -12.6559
  54   2.0000      -0.460823       -12.5396
  55   2.0000      -0.448379       -12.2010
  56   2.0000      -0.443418       -12.0660
  57   2.0000      -0.436771       -11.8851
  58   2.0000      -0.433472       -11.7954
  59   2.0000      -0.426287       -11.5999
  60   2.0000      -0.413891       -11.2626
  61   2.0000      -0.412899       -11.2356
  62   2.0000      -0.406630       -11.0650
  63   2.0000      -0.346569        -9.4306
  64   2.0000      -0.333268        -9.0687
  65   2.0000      -0.327724        -8.9178
  66   2.0000      -0.297919        -8.1068
  67   0.0000       0.031878         0.8674
  68   0.0000       0.064986         1.7684
  69   0.0000       0.106941         2.9100
  70   0.0000       0.120810         3.2874
  71   0.0000       0.134227         3.6525

MULLIKEN ATOMIC CHARGES
-----------------------
   0 S :    0.110919
   1 C :   -0.135672
   2 C :   -0.094120
   3 C :    0.013194
   4 C :   -0.161411
   5 H :    0.043171
   6 C :    0.124084
   7 H :    0.014614
   8 H :    0.017055
   9 C :   -0.116679
  10 H :    0.023026
  11 H :    0.026072
  12 C :   -0.061898
  13 H :    0.047999
  14 H :    0.032614
  15 H :    0.044672
  16 S :    0.122142
  17 C :   -0.105199
  18 C :   -0.080516
  19 C :   -0.073655
  20 C :   -0.159492
  21 H :    0.063650
  22 C :    0.132504
  23 H :    0.006738
  24 H :    0.030263
  25 C :   -0.112706
  26 H :    0.035067
  27 H :    0.038060
  28 C :   -0.060830
  29 H :    0.044534
  30 H :    0.023933
  31 H :    0.039035
  32 H :    0.061012
  33 H :    0.067823
Sum of atomic charges:    0.0000000

LOEWDIN ATOMIC CHARGES
----------------------
   0 S :    0.401471
   1 C :   -0.193511
   2 C :   -0.055514
   3 C :   -0.069954
   4 C :   -0.201254
   5 H :    0.043357
   6 C :   -0.026270
   7 H :    0.028325
   8 H :    0.023734
   9 C :   -0.044616
  10 H :    0.017591
  11 H :    0.023770
  12 C :   -0.071115
  13 H :    0.033808
  14 H :    0.024407
  15 H :    0.034656
  16 S :    0.454339
  17 C :   -0.204423
  18 C :   -0.089985
  19 C :   -0.054586
  20 C :   -0.233807
  21 H :    0.051964
  22 C :   -0.032207
  23 H :    0.025842
  24 H :    0.033997
  25 C :   -0.044455
  26 H :    0.024435
  27 H :    0.027427
  28 C :   -0.062909
  29 H :    0.026502
  30 H :    0.015956
  31 H :    0.026797
  32 H :    0.031120
  33 H :    0.035109

  Mayer bond orders larger than 0.100000
B(  0-S ,  1-C ) :   1.1176 B(  0-S ,  4-C ) :   1.1646 B(  1-C ,  2-C ) :   1.6278
B(  1-C , 32-H ) :   0.9649 B(  2-C ,  3-C ) :   1.2359 B(  2-C ,  6-C ) :   1.0075
B(  3-C ,  4-C ) :   1.5818 B(  3-C ,  5-H ) :   0.9810 B(  4-C , 20-C ) :   1.0288
B(  6-C ,  7-H ) :   0.9450 B(  6-C ,  8-H ) :   0.9306 B(  6-C ,  9-C ) :   1.0626
B(  9-C , 10-H ) :   0.9590 B(  9-C , 11-H ) :   0.9557 B(  9-C , 12-C ) :   1.0728
B( 12-C , 13-H ) :   0.9729 B( 12-C , 14-H ) :   0.9748 B( 12-C , 15-H ) :   0.9735
B( 16-S , 17-C ) :   1.1750 B( 16-S , 20-C ) :   1.1836 B( 17-C , 18-C ) :   1.5822
B( 17-C , 20-C ) :   0.1012 B( 17-C , 33-H ) :   0.9676 B( 18-C , 19-C ) :   1.2798
B( 18-C , 21-H ) :   0.9636 B( 19-C , 20-C ) :   1.5441 B( 19-C , 22-C ) :   1.0485
B( 22-C , 23-H ) :   0.9289 B( 22-C , 24-H ) :   0.9275 B( 22-C , 25-C ) :   1.0631
B( 25-C , 26-H ) :   0.9595 B( 25-C , 27-H ) :   0.9586 B( 25-C , 28-C ) :   1.0710
B( 28-C , 29-H ) :   0.9757 B( 28-C , 30-H ) :   0.9775 B( 28-C , 31-H ) :   0.9751

Dispersion correction           -0.014220907
FINAL SINGLE POINT ENERGY     -1339.878706290189

DIPOLE MOMENT
-------------
                                X             Y             Z
Electronic contribution:    -17.38536     -14.02082      12.73594
Nuclear contribution   :     17.61090      14.37763     -13.26916
                        -----------------------------------------
Total Dipole Moment    :      0.22554       0.35681      -0.53322
                        -----------------------------------------
Magnitude (a.u.)       :      0.68008
Magnitude (Debye)      :      1.72862

Rotational constants in cm-1:     0.022122     0.007477     0.006407
Rotational constants in MHz :   663.192171   224.148986   192.078194

                             ****ORCA TERMINATED NORMALLY****
TOTAL RUN TIME: 0 days 0 hours 0 minutes 21 seconds 373 msec
