                         Program Version 4.2.1 -  RELEASE  -
|  1> ! wB97X-D3 SP def2-SVP
|  2> %pal
|  3> nprocs 24
|  4> end
|  5>
|  6> * xyz 0 1
|  7> S 	 -30.2035 	 -37.3393 	 -96.1507
|  8> C 	 -30.7143 	 -35.7586 	 -96.643
|  9> C 	 -31.4227 	 -35.0868 	 -95.6324
| 10> C 	 -31.3614 	 -35.8434 	 -94.4432
| 11> C 	 -30.8477 	 -37.1174 	 -94.5461
| 12> H 	 -31.8378 	 -35.5386 	 -93.5101
| 13> C 	 -32.1315 	 -33.6934 	 -95.7863
| 14> H 	 -33.1289 	 -34.0047 	 -96.0167
| 15> H 	 -31.7356 	 -33.1338 	 -96.6276
| 16> C 	 -32.2306 	 -32.768 	 -94.5464
| 17> H 	 -32.7917 	 -31.8552 	 -94.742
| 18> H 	 -32.7704 	 -33.2711 	 -93.7547
| 19> C 	 -30.9079 	 -32.4429 	 -93.7978
| 20> H 	 -30.3642 	 -33.3632 	 -93.5782
| 21> H 	 -30.3293 	 -31.9066 	 -94.5036
| 22> H 	 -31.1902 	 -31.9625 	 -92.8403
| 23> S 	 -29.3894 	 -39.1769 	 -93.5973
| 24> C 	 -29.8617 	 -40.0291 	 -92.2063
| 25> C 	 -30.9473 	 -39.3994 	 -91.5972
| 26> C 	 -31.476 	 -38.3411 	 -92.3539
| 27> C 	 -30.7078 	 -38.0308 	 -93.4352
| 28> H 	 -31.415 	 -39.8156 	 -90.7934
| 29> C 	 -32.7515 	 -37.7937 	 -91.9997
| 30> H 	 -32.5419 	 -36.7039 	 -91.8377
| 31> H 	 -33.0636 	 -38.1586 	 -91.0116
| 32> C 	 -33.953 	 -37.9684 	 -92.9276
| 33> H 	 -33.9492 	 -37.2944 	 -93.795
| 34> H 	 -34.7227 	 -37.4542 	 -92.4158
| 35> C 	 -34.4611 	 -39.3838 	 -93.173
| 36> H 	 -35.2904 	 -39.4529 	 -93.9131
| 37> H 	 -34.7705 	 -39.8734 	 -92.2653
| 38> H 	 -33.6686 	 -39.961 	 -93.6545
| 39> H 	 -30.7595 	 -35.4463 	 -97.6721
| 40> H 	 -29.5322 	 -41.0327 	 -91.8697
| 41> *
| 42>
| 43>                          ****END OF INPUT****

CARTESIAN COORDINATES (ANGSTROEM)
---------------------------------
  S    -30.203500  -37.339300  -96.150700
  C    -30.714300  -35.758600  -96.643000
  C    -31.422700  -35.086800  -95.632400
  C    -31.361400  -35.843400  -94.443200
  C    -30.847700  -37.117400  -94.546100
  H    -31.837800  -35.538600  -93.510100
  C    -32.131500  -33.693400  -95.786300
  H    -33.128900  -34.004700  -96.016700
  H    -31.735600  -33.133800  -96.627600
  C    -32.230600  -32.768000  -94.546400
  H    -32.791700  -31.855200  -94.742000
  H    -32.770400  -33.271100  -93.754700
  C    -30.907900  -32.442900  -93.797800
  H    -30.364200  -33.363200  -93.578200
  H    -30.329300  -31.906600  -94.503600
  H    -31.190200  -31.962500  -92.840300
  S    -29.389400  -39.176900  -93.597300
  C    -29.861700  -40.029100  -92.206300
  C    -30.947300  -39.399400  -91.597200
  C    -31.476000  -38.341100  -92.353900
  C    -30.707800  -38.030800  -93.435200
  H    -31.415000  -39.815600  -90.793400
  C    -32.751500  -37.793700  -91.999700
  H    -32.541900  -36.703900  -91.837700
  H    -33.063600  -38.158600  -91.011600
  C    -33.953000  -37.968400  -92.927600
  H    -33.949200  -37.294400  -93.795000
  H    -34.722700  -37.454200  -92.415800
  C    -34.461100  -39.383800  -93.173000
  H    -35.290400  -39.452900  -93.913100
  H    -34.770500  -39.873400  -92.265300
  H    -33.668600  -39.961000  -93.654500
  H    -30.759500  -35.446300  -97.672100
  H    -29.532200  -41.032700  -91.869700

 Total Charge           Charge          ....    0
 Multiplicity           Mult            ....    1
 Number of Electrons    NEL             ....  134
 Basis Dimension        Dim             ....  322

ORBITAL ENERGIES
----------------

  NO   OCC          E(Eh)            E(eV)
   0   2.0000     -88.969272     -2420.9770
   1   2.0000     -88.964337     -2420.8427
   2   2.0000     -10.327438      -281.0239
   3   2.0000     -10.321325      -280.8575
   4   2.0000     -10.315904      -280.7100
   5   2.0000     -10.312751      -280.6242
   6   2.0000     -10.306738      -280.4606
   7   2.0000     -10.298718      -280.2424
   8   2.0000     -10.291851      -280.0555
   9   2.0000     -10.290820      -280.0275
  10   2.0000     -10.290207      -280.0108
  11   2.0000     -10.288058      -279.9523
  12   2.0000     -10.282543      -279.8022
  13   2.0000     -10.281604      -279.7767
  14   2.0000     -10.277522      -279.6656
  15   2.0000     -10.274480      -279.5828
  16   2.0000      -8.084011      -219.9771
  17   2.0000      -8.080044      -219.8692
  18   2.0000      -6.042517      -164.4252
  19   2.0000      -6.038468      -164.3151
  20   2.0000      -6.038439      -164.3143
  21   2.0000      -6.034860      -164.2169
  22   2.0000      -6.034281      -164.2011
  23   2.0000      -6.030980      -164.1113
  24   2.0000      -1.015139       -27.6233
  25   2.0000      -0.990234       -26.9456
  26   2.0000      -0.918524       -24.9943
  27   2.0000      -0.907032       -24.6816
  28   2.0000      -0.871547       -23.7160
  29   2.0000      -0.858560       -23.3626
  30   2.0000      -0.845821       -23.0160
  31   2.0000      -0.814496       -22.1636
  32   2.0000      -0.787894       -21.4397
  33   2.0000      -0.776999       -21.1432
  34   2.0000      -0.714856       -19.4522
  35   2.0000      -0.698728       -19.0134
  36   2.0000      -0.690190       -18.7810
  37   2.0000      -0.672349       -18.2956
  38   2.0000      -0.637080       -17.3358
  39   2.0000      -0.624400       -16.9908
  40   2.0000      -0.591918       -16.1069
  41   2.0000      -0.569412       -15.4945
  42   2.0000      -0.558448       -15.1961
  43   2.0000      -0.551547       -15.0084
  44   2.0000      -0.546974       -14.8839
  45   2.0000      -0.536926       -14.6105
  46   2.0000      -0.521695       -14.1960
  47   2.0000      -0.515129       -14.0174
  48   2.0000      -0.506306       -13.7773
  49   2.0000      -0.495865       -13.4932
  50   2.0000      -0.492461       -13.4006
  51   2.0000      -0.482750       -13.1363
  52   2.0000      -0.475515       -12.9394
  53   2.0000      -0.470250       -12.7962
  54   2.0000      -0.465913       -12.6781
  55   2.0000      -0.449071       -12.2199
  56   2.0000      -0.442936       -12.0529
  57   2.0000      -0.437088       -11.8938
  58   2.0000      -0.429777       -11.6948
  59   2.0000      -0.424680       -11.5561
  60   2.0000      -0.418650       -11.3920
  61   2.0000      -0.413514       -11.2523
  62   2.0000      -0.408626       -11.1193
  63   2.0000      -0.356464        -9.6999
  64   2.0000      -0.334258        -9.0956
  65   2.0000      -0.330161        -8.9841
  66   2.0000      -0.280833        -7.6419
  67   0.0000       0.021325         0.5803
  68   0.0000       0.082944         2.2570
  69   0.0000       0.106390         2.8950
  70   0.0000       0.117844         3.2067
  71   0.0000       0.133527         3.6334

MULLIKEN ATOMIC CHARGES
-----------------------
   0 S :    0.120886
   1 C :   -0.127183
   2 C :   -0.107767
   3 C :   -0.012035
   4 C :   -0.110480
   5 H :   -0.001085
   6 C :    0.110367
   7 H :    0.036931
   8 H :    0.028399
   9 C :   -0.104512
  10 H :    0.035463
  11 H :    0.014753
  12 C :   -0.046639
  13 H :    0.037884
  14 H :    0.026799
  15 H :    0.044872
  16 S :    0.105249
  17 C :   -0.095211
  18 C :   -0.003808
  19 C :   -0.032982
  20 C :   -0.141240
  21 H :   -0.025856
  22 C :    0.019690
  23 H :    0.038787
  24 H :    0.007825
  25 C :   -0.023790
  26 H :    0.022613
  27 H :    0.004367
  28 C :   -0.041717
  29 H :    0.036565
  30 H :    0.026667
  31 H :    0.039668
  32 H :    0.047792
  33 H :    0.068728
Sum of atomic charges:   -0.0000000

LOEWDIN ATOMIC CHARGES
----------------------
   0 S :    0.418351
   1 C :   -0.208850
   2 C :   -0.056379
   3 C :   -0.074141
   4 C :   -0.197334
   5 H :    0.026010
   6 C :   -0.024344
   7 H :    0.035386
   8 H :    0.029082
   9 C :   -0.045570
  10 H :    0.026951
  11 H :    0.017404
  12 C :   -0.061462
  13 H :    0.026671
  14 H :    0.017707
  15 H :    0.032238
  16 S :    0.425356
  17 C :   -0.203485
  18 C :   -0.061724
  19 C :   -0.067137
  20 C :   -0.190454
  21 H :    0.012670
  22 C :   -0.035291
  23 H :    0.039707
  24 H :    0.031220
  25 C :   -0.044972
  26 H :    0.027171
  27 H :    0.021467
  28 C :   -0.064570
  29 H :    0.033164
  30 H :    0.021987
  31 H :    0.028028
  32 H :    0.025650
  33 H :    0.039496

  Mayer bond orders larger than 0.100000
B(  0-S ,  1-C ) :   1.1518 B(  0-S ,  4-C ) :   1.1505 B(  1-C ,  2-C ) :   1.5880
B(  1-C ,  4-C ) :   0.1006 B(  1-C , 32-H ) :   0.9642 B(  2-C ,  3-C ) :   1.2835
B(  2-C ,  6-C ) :   0.9934 B(  3-C ,  4-C ) :   1.5429 B(  3-C ,  5-H ) :   0.9822
B(  4-C , 20-C ) :   1.0841 B(  6-C ,  7-H ) :   0.9319 B(  6-C ,  8-H ) :   0.9491
B(  6-C ,  9-C ) :   1.0795 B(  9-C , 10-H ) :   0.9562 B(  9-C , 11-H ) :   0.9523
B(  9-C , 12-C ) :   1.0740 B( 12-C , 13-H ) :   0.9726 B( 12-C , 14-H ) :   0.9790
B( 12-C , 15-H ) :   0.9756 B( 16-S , 17-C ) :   1.1819 B( 16-S , 20-C ) :   1.1260
B( 17-C , 18-C ) :   1.5710 B( 17-C , 33-H ) :   0.9620 B( 18-C , 19-C ) :   1.2756
B( 18-C , 21-H ) :   1.0014 B( 19-C , 20-C ) :   1.5635 B( 19-C , 22-C ) :   1.0617
B( 22-C , 23-H ) :   0.9173 B( 22-C , 24-H ) :   0.9253 B( 22-C , 25-C ) :   1.0891
B( 25-C , 26-H ) :   0.9448 B( 25-C , 27-H ) :   0.9421 B( 25-C , 28-C ) :   1.0724
B( 28-C , 29-H ) :   0.9721 B( 28-C , 30-H ) :   0.9736 B( 28-C , 31-H ) :   0.9777

Dispersion correction           -0.015176245
FINAL SINGLE POINT ENERGY     -1339.870259362053

DIPOLE MOMENT
-------------
                                X             Y             Z
Electronic contribution:     19.14356     -15.49718      -7.51922
Nuclear contribution   :    -19.87695      15.71627       7.73225
                        -----------------------------------------
Total Dipole Moment    :     -0.73339       0.21909       0.21303
                        -----------------------------------------
Magnitude (a.u.)       :      0.79451
Magnitude (Debye)      :      2.01948

Rotational constants in cm-1:     0.018907     0.009335     0.007856
Rotational constants in MHz :   566.803062   279.846261   235.514345

                             ****ORCA TERMINATED NORMALLY****
TOTAL RUN TIME: 0 days 0 hours 0 minutes 22 seconds 593 msec
