                         Program Version 4.2.1 -  RELEASE  -
|  1> ! wB97X-D3 SP def2-SVP
|  2> %pal
|  3> nprocs 24
|  4> end
|  5>
|  6> * xyz 0 1
|  7> S 	 -129.479 	 65.8396 	 -35.9414
|  8> C 	 -128.733 	 64.8444 	 -37.1099
|  9> C 	 -127.376 	 64.9557 	 -37.1493
| 10> C 	 -126.914 	 65.8657 	 -36.164
| 11> C 	 -127.942 	 66.393 	 -35.375
| 12> H 	 -125.818 	 65.9835 	 -35.9105
| 13> C 	 -126.388 	 64.2298 	 -38.1056
| 14> H 	 -126.95 	 63.3289 	 -38.3715
| 15> H 	 -125.474 	 63.8628 	 -37.6708
| 16> C 	 -126.258 	 64.8818 	 -39.4472
| 17> H 	 -125.629 	 64.3424 	 -40.1731
| 18> H 	 -127.263 	 64.9143 	 -39.841
| 19> C 	 -125.729 	 66.3405 	 -39.4458
| 20> H 	 -124.69 	 66.4795 	 -39.1859
| 21> H 	 -125.856 	 66.7654 	 -40.3866
| 22> H 	 -126.265 	 67.0436 	 -38.8517
| 23> S 	 -129.093 	 67.495 	 -33.203
| 24> C 	 -128.364 	 68.8491 	 -32.3329
| 25> C 	 -127.262 	 69.2522 	 -32.9681
| 26> C 	 -126.961 	 68.4812 	 -34.1395
| 27> C 	 -127.89 	 67.4498 	 -34.4056
| 28> H 	 -126.738 	 70.1561 	 -32.6584
| 29> C 	 -125.763 	 68.7056 	 -34.9667
| 30> H 	 -125.6 	 69.8123 	 -35.0585
| 31> H 	 -125.955 	 68.4053 	 -35.9556
| 32> C 	 -124.488 	 68.1474 	 -34.3704
| 33> H 	 -124.396 	 67.0762 	 -34.3208
| 34> H 	 -124.42 	 68.6385 	 -33.3606
| 35> C 	 -123.405 	 68.4298 	 -35.3859
| 36> H 	 -123.126 	 69.4752 	 -35.3582
| 37> H 	 -123.752 	 68.3268 	 -36.3785
| 38> H 	 -122.519 	 67.8876 	 -35.192
| 39> H 	 -129.289 	 64.1711 	 -37.8039
| 40> H 	 -128.807 	 69.4357 	 -31.547
| 41> *
| 42>
| 43>                          ****END OF INPUT****

CARTESIAN COORDINATES (ANGSTROEM)
---------------------------------
  S    -129.479000   65.839600  -35.941400
  C    -128.733000   64.844400  -37.109900
  C    -127.376000   64.955700  -37.149300
  C    -126.914000   65.865700  -36.164000
  C    -127.942000   66.393000  -35.375000
  H    -125.818000   65.983500  -35.910500
  C    -126.388000   64.229800  -38.105600
  H    -126.950000   63.328900  -38.371500
  H    -125.474000   63.862800  -37.670800
  C    -126.258000   64.881800  -39.447200
  H    -125.629000   64.342400  -40.173100
  H    -127.263000   64.914300  -39.841000
  C    -125.729000   66.340500  -39.445800
  H    -124.690000   66.479500  -39.185900
  H    -125.856000   66.765400  -40.386600
  H    -126.265000   67.043600  -38.851700
  S    -129.093000   67.495000  -33.203000
  C    -128.364000   68.849100  -32.332900
  C    -127.262000   69.252200  -32.968100
  C    -126.961000   68.481200  -34.139500
  C    -127.890000   67.449800  -34.405600
  H    -126.738000   70.156100  -32.658400
  C    -125.763000   68.705600  -34.966700
  H    -125.600000   69.812300  -35.058500
  H    -125.955000   68.405300  -35.955600
  C    -124.488000   68.147400  -34.370400
  H    -124.396000   67.076200  -34.320800
  H    -124.420000   68.638500  -33.360600
  C    -123.405000   68.429800  -35.385900
  H    -123.126000   69.475200  -35.358200
  H    -123.752000   68.326800  -36.378500
  H    -122.519000   67.887600  -35.192000
  H    -129.289000   64.171100  -37.803900
  H    -128.807000   69.435700  -31.547000

 Total Charge           Charge          ....    0
 Multiplicity           Mult            ....    1
 Number of Electrons    NEL             ....  134
 Basis Dimension        Dim             ....  322

ORBITAL ENERGIES
----------------

  NO   OCC          E(Eh)            E(eV)
   0   2.0000     -88.969777     -2420.9907
   1   2.0000     -88.960409     -2420.7358
   2   2.0000     -10.330049      -281.0949
   3   2.0000     -10.323462      -280.9157
   4   2.0000     -10.314504      -280.6719
   5   2.0000     -10.312277      -280.6113
   6   2.0000     -10.301368      -280.3145
   7   2.0000     -10.298746      -280.2431
   8   2.0000     -10.297892      -280.2199
   9   2.0000     -10.293183      -280.0918
  10   2.0000     -10.290312      -280.0136
  11   2.0000     -10.287823      -279.9459
  12   2.0000     -10.284823      -279.8643
  13   2.0000     -10.281492      -279.7736
  14   2.0000     -10.267270      -279.3866
  15   2.0000     -10.264376      -279.3079
  16   2.0000      -8.085675      -220.0224
  17   2.0000      -8.076048      -219.7604
  18   2.0000      -6.044089      -164.4680
  19   2.0000      -6.040003      -164.3568
  20   2.0000      -6.036484      -164.2611
  21   2.0000      -6.034648      -164.2111
  22   2.0000      -6.030279      -164.0922
  23   2.0000      -6.026819      -163.9981
  24   2.0000      -1.016888       -27.6709
  25   2.0000      -0.992303       -27.0019
  26   2.0000      -0.921007       -25.0619
  27   2.0000      -0.915756       -24.9190
  28   2.0000      -0.878076       -23.8937
  29   2.0000      -0.854500       -23.2521
  30   2.0000      -0.846271       -23.0282
  31   2.0000      -0.819647       -22.3037
  32   2.0000      -0.791662       -21.5422
  33   2.0000      -0.768156       -20.9026
  34   2.0000      -0.707912       -19.2633
  35   2.0000      -0.702094       -19.1049
  36   2.0000      -0.699242       -19.0274
  37   2.0000      -0.665505       -18.1093
  38   2.0000      -0.633678       -17.2432
  39   2.0000      -0.621538       -16.9129
  40   2.0000      -0.599622       -16.3165
  41   2.0000      -0.580448       -15.7948
  42   2.0000      -0.573356       -15.6018
  43   2.0000      -0.549989       -14.9660
  44   2.0000      -0.544148       -14.8070
  45   2.0000      -0.531914       -14.4741
  46   2.0000      -0.520435       -14.1618
  47   2.0000      -0.510902       -13.9023
  48   2.0000      -0.509628       -13.8677
  49   2.0000      -0.500568       -13.6212
  50   2.0000      -0.494817       -13.4647
  51   2.0000      -0.480771       -13.0824
  52   2.0000      -0.471449       -12.8288
  53   2.0000      -0.467179       -12.7126
  54   2.0000      -0.455490       -12.3945
  55   2.0000      -0.451833       -12.2950
  56   2.0000      -0.445776       -12.1302
  57   2.0000      -0.439051       -11.9472
  58   2.0000      -0.435896       -11.8613
  59   2.0000      -0.426466       -11.6047
  60   2.0000      -0.422349       -11.4927
  61   2.0000      -0.415769       -11.3136
  62   2.0000      -0.404563       -11.0087
  63   2.0000      -0.364509        -9.9188
  64   2.0000      -0.337683        -9.1888
  65   2.0000      -0.325694        -8.8626
  66   2.0000      -0.283981        -7.7275
  67   0.0000       0.023088         0.6283
  68   0.0000       0.086478         2.3532
  69   0.0000       0.108932         2.9642
  70   0.0000       0.122145         3.3237
  71   0.0000       0.127898         3.4803

MULLIKEN ATOMIC CHARGES
-----------------------
   0 S :    0.123172
   1 C :   -0.129971
   2 C :   -0.101019
   3 C :   -0.032691
   4 C :   -0.111779
   5 H :    0.033131
   6 C :    0.105451
   7 H :    0.013289
   8 H :    0.030260
   9 C :   -0.062495
  10 H :    0.036863
  11 H :    0.018770
  12 C :   -0.032883
  13 H :    0.022533
  14 H :    0.008878
  15 H :    0.022930
  16 S :    0.079108
  17 C :   -0.071499
  18 C :   -0.026344
  19 C :   -0.058888
  20 C :   -0.104734
  21 H :    0.021212
  22 C :    0.021059
  23 H :    0.021433
  24 H :    0.007311
  25 C :   -0.069600
  26 H :    0.029542
  27 H :    0.039328
  28 C :    0.009870
  29 H :    0.010973
  30 H :    0.014708
  31 H :    0.024024
  32 H :    0.055538
  33 H :    0.052523
Sum of atomic charges:    0.0000000

LOEWDIN ATOMIC CHARGES
----------------------
   0 S :    0.437836
   1 C :   -0.214256
   2 C :   -0.064875
   3 C :   -0.070357
   4 C :   -0.198635
   5 H :    0.041490
   6 C :   -0.028433
   7 H :    0.034732
   8 H :    0.026990
   9 C :   -0.035985
  10 H :    0.028625
  11 H :    0.024336
  12 C :   -0.068772
  13 H :    0.021224
  14 H :    0.018997
  15 H :    0.021048
  16 S :    0.407514
  17 C :   -0.178516
  18 C :   -0.073165
  19 C :   -0.058723
  20 C :   -0.211563
  21 H :    0.035329
  22 C :   -0.039187
  23 H :    0.035529
  24 H :    0.019050
  25 C :   -0.036646
  26 H :    0.020144
  27 H :    0.032741
  28 C :   -0.057387
  29 H :    0.023193
  30 H :    0.021301
  31 H :    0.018886
  32 H :    0.035460
  33 H :    0.032075

  Mayer bond orders larger than 0.100000
B(  0-S ,  1-C ) :   1.1540 B(  0-S ,  4-C ) :   1.1629 B(  1-C ,  2-C ) :   1.6197
B(  1-C , 32-H ) :   0.9544 B(  2-C ,  3-C ) :   1.2690 B(  2-C ,  6-C ) :   1.0052
B(  3-C ,  4-C ) :   1.5417 B(  3-C ,  5-H ) :   0.9838 B(  4-C , 20-C ) :   1.0639
B(  6-C ,  7-H ) :   0.9325 B(  6-C ,  8-H ) :   0.9505 B(  6-C ,  9-C ) :   1.0757
B(  9-C , 10-H ) :   0.9561 B(  9-C , 11-H ) :   0.9525 B(  9-C , 12-C ) :   1.0852
B( 12-C , 13-H ) :   0.9754 B( 12-C , 14-H ) :   0.9689 B( 12-C , 15-H ) :   0.9703
B( 16-S , 17-C ) :   1.1434 B( 16-S , 20-C ) :   1.1359 B( 17-C , 18-C ) :   1.6179
B( 17-C , 33-H ) :   0.9655 B( 18-C , 19-C ) :   1.2506 B( 18-C , 21-H ) :   0.9874
B( 19-C , 20-C ) :   1.5632 B( 19-C , 22-C ) :   1.0635 B( 22-C , 23-H ) :   0.9297
B( 22-C , 24-H ) :   0.9278 B( 22-C , 25-C ) :   1.0654 B( 25-C , 26-H ) :   0.9567
B( 25-C , 27-H ) :   0.9518 B( 25-C , 28-C ) :   1.0737 B( 28-C , 29-H ) :   0.9671
B( 28-C , 30-H ) :   0.9669 B( 28-C , 31-H ) :   0.9757

Dispersion correction           -0.015016823
FINAL SINGLE POINT ENERGY     -1339.873339536622

DIPOLE MOMENT
-------------
                                X             Y             Z
Electronic contribution:    -26.19415      -2.35249      16.71941
Nuclear contribution   :     26.74323       2.49214     -17.08729
                        -----------------------------------------
Total Dipole Moment    :      0.54908       0.13965      -0.36788
                        -----------------------------------------
Magnitude (a.u.)       :      0.67552
Magnitude (Debye)      :      1.71703

Rotational constants in cm-1:     0.018193     0.010443     0.007039
Rotational constants in MHz :   545.417652   313.065047   211.022039

                             ****ORCA TERMINATED NORMALLY****
TOTAL RUN TIME: 0 days 0 hours 0 minutes 22 seconds 806 msec
