                         Program Version 4.2.1 -  RELEASE  -
|  1> ! wB97X-D3 SP def2-SVP
|  2> %pal
|  3> nprocs 24
|  4> end
|  5>
|  6> * xyz 0 1
|  7> S 	 -131.743 	 28.7906 	 -14.1297
|  8> C 	 -132.029 	 27.3919 	 -13.149
|  9> C 	 -131.904 	 26.2608 	 -13.9565
| 10> C 	 -131.86 	 26.5471 	 -15.3205
| 11> C 	 -131.923 	 27.8666 	 -15.6015
| 12> H 	 -131.886 	 25.8772 	 -16.1643
| 13> C 	 -131.84 	 24.8246 	 -13.3419
| 14> H 	 -132.042 	 24.1498 	 -14.169
| 15> H 	 -132.556 	 24.7 	 -12.5491
| 16> C 	 -130.465 	 24.4483 	 -12.796
| 17> H 	 -130.661 	 23.4061 	 -12.5741
| 18> H 	 -129.779 	 24.4738 	 -13.5463
| 19> C 	 -130.054 	 25.1403 	 -11.4856
| 20> H 	 -129.305 	 24.5928 	 -10.9397
| 21> H 	 -129.659 	 26.1472 	 -11.4981
| 22> H 	 -130.904 	 25.118 	 -10.737
| 23> S 	 -130.649 	 29.6376 	 -17.1565
| 24> C 	 -131.212 	 30.0635 	 -18.7705
| 25> C 	 -132.148 	 29.1344 	 -19.1196
| 26> C 	 -132.565 	 28.2609 	 -18.0661
| 27> C 	 -131.877 	 28.5153 	 -16.8997
| 28> H 	 -132.51 	 29.1234 	 -20.1374
| 29> C 	 -133.444 	 27.1136 	 -18.4323
| 30> H 	 -134.149 	 27.5846 	 -19.1598
| 31> H 	 -133.974 	 26.7764 	 -17.545
| 32> C 	 -132.641 	 25.9537 	 -19.0656
| 33> H 	 -131.796 	 25.7367 	 -18.5193
| 34> H 	 -132.271 	 26.2998 	 -20.0638
| 35> C 	 -133.43 	 24.5842 	 -19.375
| 36> H 	 -132.688 	 23.8111 	 -19.5407
| 37> H 	 -134.084 	 24.6993 	 -20.2034
| 38> H 	 -134.015 	 24.1807 	 -18.553
| 39> H 	 -132.182 	 27.4515 	 -12.0986
| 40> H 	 -130.813 	 30.7728 	 -19.485
| 41> *
| 42>
| 43>                          ****END OF INPUT****

CARTESIAN COORDINATES (ANGSTROEM)
---------------------------------
  S    -131.743000   28.790600  -14.129700
  C    -132.029000   27.391900  -13.149000
  C    -131.904000   26.260800  -13.956500
  C    -131.860000   26.547100  -15.320500
  C    -131.923000   27.866600  -15.601500
  H    -131.886000   25.877200  -16.164300
  C    -131.840000   24.824600  -13.341900
  H    -132.042000   24.149800  -14.169000
  H    -132.556000   24.700000  -12.549100
  C    -130.465000   24.448300  -12.796000
  H    -130.661000   23.406100  -12.574100
  H    -129.779000   24.473800  -13.546300
  C    -130.054000   25.140300  -11.485600
  H    -129.305000   24.592800  -10.939700
  H    -129.659000   26.147200  -11.498100
  H    -130.904000   25.118000  -10.737000
  S    -130.649000   29.637600  -17.156500
  C    -131.212000   30.063500  -18.770500
  C    -132.148000   29.134400  -19.119600
  C    -132.565000   28.260900  -18.066100
  C    -131.877000   28.515300  -16.899700
  H    -132.510000   29.123400  -20.137400
  C    -133.444000   27.113600  -18.432300
  H    -134.149000   27.584600  -19.159800
  H    -133.974000   26.776400  -17.545000
  C    -132.641000   25.953700  -19.065600
  H    -131.796000   25.736700  -18.519300
  H    -132.271000   26.299800  -20.063800
  C    -133.430000   24.584200  -19.375000
  H    -132.688000   23.811100  -19.540700
  H    -134.084000   24.699300  -20.203400
  H    -134.015000   24.180700  -18.553000
  H    -132.182000   27.451500  -12.098600
  H    -130.813000   30.772800  -19.485000

 Total Charge           Charge          ....    0
 Multiplicity           Mult            ....    1
 Number of Electrons    NEL             ....  134
 Basis Dimension        Dim             ....  322

ORBITAL ENERGIES
----------------

  NO   OCC          E(Eh)            E(eV)
   0   2.0000     -88.962706     -2420.7983
   1   2.0000     -88.961818     -2420.7741
   2   2.0000     -10.323789      -280.9246
   3   2.0000     -10.320360      -280.8313
   4   2.0000     -10.312567      -280.6192
   5   2.0000     -10.311501      -280.5902
   6   2.0000     -10.300521      -280.2914
   7   2.0000     -10.295174      -280.1459
   8   2.0000     -10.292284      -280.0673
   9   2.0000     -10.291191      -280.0375
  10   2.0000     -10.291082      -280.0346
  11   2.0000     -10.289399      -279.9888
  12   2.0000     -10.287763      -279.9443
  13   2.0000     -10.280300      -279.7412
  14   2.0000     -10.279971      -279.7322
  15   2.0000     -10.279934      -279.7312
  16   2.0000      -8.078026      -219.8143
  17   2.0000      -8.077669      -219.8045
  18   2.0000      -6.036404      -164.2589
  19   2.0000      -6.036217      -164.2538
  20   2.0000      -6.032506      -164.1528
  21   2.0000      -6.032003      -164.1391
  22   2.0000      -6.028827      -164.0527
  23   2.0000      -6.028320      -164.0389
  24   2.0000      -1.017203       -27.6795
  25   2.0000      -0.992268       -27.0010
  26   2.0000      -0.912332       -24.8258
  27   2.0000      -0.906220       -24.6595
  28   2.0000      -0.873369       -23.7656
  29   2.0000      -0.851460       -23.1694
  30   2.0000      -0.843498       -22.9527
  31   2.0000      -0.817699       -22.2507
  32   2.0000      -0.784718       -21.3533
  33   2.0000      -0.774170       -21.0662
  34   2.0000      -0.711407       -19.3584
  35   2.0000      -0.703521       -19.1438
  36   2.0000      -0.696632       -18.9563
  37   2.0000      -0.665735       -18.1156
  38   2.0000      -0.648395       -17.6437
  39   2.0000      -0.622795       -16.9471
  40   2.0000      -0.590993       -16.0817
  41   2.0000      -0.571857       -15.5610
  42   2.0000      -0.563774       -15.3411
  43   2.0000      -0.553245       -15.0546
  44   2.0000      -0.542396       -14.7593
  45   2.0000      -0.521933       -14.2025
  46   2.0000      -0.521195       -14.1824
  47   2.0000      -0.513506       -13.9732
  48   2.0000      -0.506120       -13.7722
  49   2.0000      -0.499497       -13.5920
  50   2.0000      -0.492247       -13.3947
  51   2.0000      -0.486834       -13.2474
  52   2.0000      -0.472687       -12.8625
  53   2.0000      -0.464980       -12.6527
  54   2.0000      -0.463440       -12.6109
  55   2.0000      -0.447073       -12.1655
  56   2.0000      -0.444425       -12.0934
  57   2.0000      -0.441117       -12.0034
  58   2.0000      -0.436689       -11.8829
  59   2.0000      -0.432960       -11.7814
  60   2.0000      -0.423316       -11.5190
  61   2.0000      -0.416212       -11.3257
  62   2.0000      -0.404359       -11.0032
  63   2.0000      -0.352296        -9.5865
  64   2.0000      -0.331420        -9.0184
  65   2.0000      -0.323685        -8.8079
  66   2.0000      -0.290438        -7.9032
  67   0.0000       0.030450         0.8286
  68   0.0000       0.071203         1.9375
  69   0.0000       0.109764         2.9868
  70   0.0000       0.127763         3.4766
  71   0.0000       0.134593         3.6625

MULLIKEN ATOMIC CHARGES
-----------------------
   0 S :    0.106584
   1 C :   -0.109354
   2 C :   -0.078321
   3 C :    0.035224
   4 C :   -0.147431
   5 H :   -0.006014
   6 C :    0.060383
   7 H :    0.014880
   8 H :    0.024358
   9 C :   -0.000271
  10 H :    0.024224
  11 H :    0.006562
  12 C :   -0.062802
  13 H :    0.024196
  14 H :    0.043194
  15 H :    0.019410
  16 S :    0.102418
  17 C :   -0.087884
  18 C :   -0.054792
  19 C :   -0.051693
  20 C :   -0.138016
  21 H :    0.016219
  22 C :    0.069403
  23 H :    0.033950
  24 H :    0.025723
  25 C :   -0.069129
  26 H :    0.016302
  27 H :    0.026936
  28 C :   -0.033081
  29 H :    0.031282
  30 H :    0.033271
  31 H :    0.026025
  32 H :    0.042970
  33 H :    0.055273
Sum of atomic charges:   -0.0000000

LOEWDIN ATOMIC CHARGES
----------------------
   0 S :    0.413389
   1 C :   -0.190880
   2 C :   -0.062817
   3 C :   -0.067535
   4 C :   -0.190302
   5 H :    0.031245
   6 C :   -0.021410
   7 H :    0.027278
   8 H :    0.025916
   9 C :   -0.027466
  10 H :    0.029546
  11 H :    0.010786
  12 C :   -0.072594
  13 H :    0.025159
  14 H :    0.024735
  15 H :    0.028607
  16 S :    0.425992
  17 C :   -0.189954
  18 C :   -0.069278
  19 C :   -0.069047
  20 C :   -0.215025
  21 H :    0.029100
  22 C :   -0.034025
  23 H :    0.036893
  24 H :    0.027392
  25 C :   -0.030039
  26 H :    0.008583
  27 H :    0.029957
  28 C :   -0.062043
  29 H :    0.027736
  30 H :    0.020549
  31 H :    0.022718
  32 H :    0.022869
  33 H :    0.033968

  Mayer bond orders larger than 0.100000
B(  0-S ,  1-C ) :   1.1534 B(  0-S ,  4-C ) :   1.1589 B(  1-C ,  2-C ) :   1.5690
B(  1-C ,  4-C ) :   0.1094 B(  1-C , 32-H ) :   0.9802 B(  2-C ,  3-C ) :   1.2608
B(  2-C ,  6-C ) :   1.0137 B(  3-C ,  4-C ) :   1.5625 B(  3-C ,  5-H ) :   1.0009
B(  4-C , 20-C ) :   1.0180 B(  6-C ,  7-H ) :   0.9404 B(  6-C ,  8-H ) :   0.9453
B(  6-C ,  9-C ) :   1.0850 B(  9-C , 10-H ) :   0.9524 B(  9-C , 11-H ) :   0.9538
B(  9-C , 12-C ) :   1.0737 B( 12-C , 13-H ) :   0.9721 B( 12-C , 14-H ) :   0.9746
B( 12-C , 15-H ) :   0.9719 B( 16-S , 17-C ) :   1.1364 B( 16-S , 20-C ) :   1.1720
B( 17-C , 18-C ) :   1.6144 B( 17-C , 33-H ) :   0.9702 B( 18-C , 19-C ) :   1.2401
B( 18-C , 21-H ) :   0.9871 B( 19-C , 20-C ) :   1.5821 B( 19-C , 22-C ) :   1.0657
B( 22-C , 23-H ) :   0.9319 B( 22-C , 24-H ) :   0.9282 B( 22-C , 25-C ) :   1.0572
B( 25-C , 26-H ) :   0.9606 B( 25-C , 27-H ) :   0.9510 B( 25-C , 28-C ) :   1.0715
B( 28-C , 29-H ) :   0.9763 B( 28-C , 30-H ) :   0.9802 B( 28-C , 31-H ) :   0.9779

Dispersion correction           -0.014441636
FINAL SINGLE POINT ENERGY     -1339.866562307175

DIPOLE MOMENT
-------------
                                X             Y             Z
Electronic contribution:      3.35145      25.78633      -0.17642
Nuclear contribution   :     -3.36996     -26.50476       0.00466
                        -----------------------------------------
Total Dipole Moment    :     -0.01851      -0.71843      -0.17177
                        -----------------------------------------
Magnitude (a.u.)       :      0.73891
Magnitude (Debye)      :      1.87817

Rotational constants in cm-1:     0.019367     0.008748     0.006591
Rotational constants in MHz :   580.595684   262.256601   197.594941

                             ****ORCA TERMINATED NORMALLY****
TOTAL RUN TIME: 0 days 0 hours 0 minutes 20 seconds 662 msec
