                         Program Version 4.2.1 -  RELEASE  -
|  1> ! wB97X-D3 SP def2-SVP
|  2> %pal
|  3> nprocs 24
|  4> end
|  5>
|  6> * xyz 0 1
|  7> S 	 -46.7132 	 -5.99445 	 19.6909
|  8> C 	 -48.3624 	 -6.44012 	 19.7199
|  9> C 	 -48.9845 	 -6.31746 	 18.4617
| 10> C 	 -47.9844 	 -6.00511 	 17.4657
| 11> C 	 -46.7367 	 -5.68832 	 18.0149
| 12> H 	 -48.2143 	 -5.94403 	 16.4259
| 13> C 	 -50.457 	 -6.66429 	 18.0862
| 14> H 	 -50.8917 	 -5.7378 	 17.6975
| 15> H 	 -50.9984 	 -6.96491 	 19.0196
| 16> C 	 -50.5847 	 -7.83862 	 17.1172
| 17> H 	 -50.1938 	 -7.45503 	 16.1609
| 18> H 	 -49.9367 	 -8.69203 	 17.3277
| 19> C 	 -52.0475 	 -8.13015 	 16.7698
| 20> H 	 -52.2018 	 -9.21966 	 16.4172
| 21> H 	 -52.7097 	 -7.9105 	 17.6043
| 22> H 	 -52.328 	 -7.55061 	 15.8629
| 23> S 	 -44.438 	 -6.17102 	 16.7062
| 24> C 	 -43.4472 	 -4.81552 	 16.3126
| 25> C 	 -44.0754 	 -3.57966 	 16.51
| 26> C 	 -45.3824 	 -3.75798 	 17.1101
| 27> C 	 -45.5466 	 -5.11472 	 17.39
| 28> H 	 -43.5921 	 -2.63398 	 16.2396
| 29> C 	 -46.3338 	 -2.65869 	 17.5638
| 30> H 	 -45.8957 	 -1.92451 	 18.2979
| 31> H 	 -47.1628 	 -3.11889 	 18.1127
| 32> C 	 -46.9588 	 -1.78704 	 16.4603
| 33> H 	 -46.2892 	 -1.24037 	 15.8504
| 34> H 	 -47.5491 	 -1.04418 	 17.0488
| 35> C 	 -47.8097 	 -2.52118 	 15.4413
| 36> H 	 -48.3014 	 -1.85431 	 14.7968
| 37> H 	 -48.6445 	 -2.95668 	 15.9923
| 38> H 	 -47.3031 	 -3.2869 	 14.8897
| 39> H 	 -48.9273 	 -6.67414 	 20.6056
| 40> H 	 -42.5053 	 -4.92811 	 15.8206
| 41> *
| 42>
| 43>                          ****END OF INPUT****

CARTESIAN COORDINATES (ANGSTROEM)
---------------------------------
  S    -46.713200   -5.994450   19.690900
  C    -48.362400   -6.440120   19.719900
  C    -48.984500   -6.317460   18.461700
  C    -47.984400   -6.005110   17.465700
  C    -46.736700   -5.688320   18.014900
  H    -48.214300   -5.944030   16.425900
  C    -50.457000   -6.664290   18.086200
  H    -50.891700   -5.737800   17.697500
  H    -50.998400   -6.964910   19.019600
  C    -50.584700   -7.838620   17.117200
  H    -50.193800   -7.455030   16.160900
  H    -49.936700   -8.692030   17.327700
  C    -52.047500   -8.130150   16.769800
  H    -52.201800   -9.219660   16.417200
  H    -52.709700   -7.910500   17.604300
  H    -52.328000   -7.550610   15.862900
  S    -44.438000   -6.171020   16.706200
  C    -43.447200   -4.815520   16.312600
  C    -44.075400   -3.579660   16.510000
  C    -45.382400   -3.757980   17.110100
  C    -45.546600   -5.114720   17.390000
  H    -43.592100   -2.633980   16.239600
  C    -46.333800   -2.658690   17.563800
  H    -45.895700   -1.924510   18.297900
  H    -47.162800   -3.118890   18.112700
  C    -46.958800   -1.787040   16.460300
  H    -46.289200   -1.240370   15.850400
  H    -47.549100   -1.044180   17.048800
  C    -47.809700   -2.521180   15.441300
  H    -48.301400   -1.854310   14.796800
  H    -48.644500   -2.956680   15.992300
  H    -47.303100   -3.286900   14.889700
  H    -48.927300   -6.674140   20.605600
  H    -42.505300   -4.928110   15.820600

 Total Charge           Charge          ....    0
 Multiplicity           Mult            ....    1
 Number of Electrons    NEL             ....  134
 Basis Dimension        Dim             ....  322

ORBITAL ENERGIES
----------------

  NO   OCC          E(Eh)            E(eV)
   0   2.0000     -88.968246     -2420.9491
   1   2.0000     -88.965008     -2420.8610
   2   2.0000     -10.320949      -280.8473
   3   2.0000     -10.316530      -280.7271
   4   2.0000     -10.312652      -280.6215
   5   2.0000     -10.309238      -280.5286
   6   2.0000     -10.304287      -280.3939
   7   2.0000     -10.302975      -280.3582
   8   2.0000     -10.300285      -280.2850
   9   2.0000     -10.298519      -280.2370
  10   2.0000     -10.293446      -280.0989
  11   2.0000     -10.291908      -280.0571
  12   2.0000     -10.286997      -279.9234
  13   2.0000     -10.286879      -279.9202
  14   2.0000     -10.282034      -279.7884
  15   2.0000     -10.264954      -279.3236
  16   2.0000      -8.084740      -219.9970
  17   2.0000      -8.080965      -219.8942
  18   2.0000      -6.042870      -164.4348
  19   2.0000      -6.039249      -164.3363
  20   2.0000      -6.039145      -164.3335
  21   2.0000      -6.035656      -164.2386
  22   2.0000      -6.035143      -164.2246
  23   2.0000      -6.032067      -164.1409
  24   2.0000      -1.013223       -27.5712
  25   2.0000      -0.987388       -26.8682
  26   2.0000      -0.910098       -24.7650
  27   2.0000      -0.908033       -24.7088
  28   2.0000      -0.865449       -23.5501
  29   2.0000      -0.852500       -23.1977
  30   2.0000      -0.845714       -23.0131
  31   2.0000      -0.808506       -22.0006
  32   2.0000      -0.783655       -21.3243
  33   2.0000      -0.769374       -20.9357
  34   2.0000      -0.702298       -19.1105
  35   2.0000      -0.695451       -18.9242
  36   2.0000      -0.685957       -18.6658
  37   2.0000      -0.655174       -17.8282
  38   2.0000      -0.641905       -17.4671
  39   2.0000      -0.619340       -16.8531
  40   2.0000      -0.600683       -16.3454
  41   2.0000      -0.567164       -15.4333
  42   2.0000      -0.560596       -15.2546
  43   2.0000      -0.546840       -14.8803
  44   2.0000      -0.545248       -14.8370
  45   2.0000      -0.524353       -14.2684
  46   2.0000      -0.519294       -14.1307
  47   2.0000      -0.502976       -13.6867
  48   2.0000      -0.499754       -13.5990
  49   2.0000      -0.496120       -13.5001
  50   2.0000      -0.490569       -13.3491
  51   2.0000      -0.478145       -13.0110
  52   2.0000      -0.465421       -12.6647
  53   2.0000      -0.461685       -12.5631
  54   2.0000      -0.456432       -12.4201
  55   2.0000      -0.453857       -12.3501
  56   2.0000      -0.450522       -12.2593
  57   2.0000      -0.439558       -11.9610
  58   2.0000      -0.436056       -11.8657
  59   2.0000      -0.423087       -11.5128
  60   2.0000      -0.422165       -11.4877
  61   2.0000      -0.411983       -11.2106
  62   2.0000      -0.407972       -11.1015
  63   2.0000      -0.336042        -9.1442
  64   2.0000      -0.328608        -8.9419
  65   2.0000      -0.313139        -8.5209
  66   2.0000      -0.310983        -8.4623
  67   0.0000       0.051966         1.4141
  68   0.0000       0.058164         1.5827
  69   0.0000       0.112155         3.0519
  70   0.0000       0.125378         3.4117
  71   0.0000       0.130900         3.5620

MULLIKEN ATOMIC CHARGES
-----------------------
   0 S :    0.139594
   1 C :   -0.116854
   2 C :   -0.113834
   3 C :    0.056681
   4 C :   -0.210259
   5 H :    0.001133
   6 C :    0.050688
   7 H :    0.040918
   8 H :    0.026648
   9 C :   -0.087394
  10 H :    0.022265
  11 H :    0.045894
  12 C :   -0.069949
  13 H :    0.044502
  14 H :    0.037578
  15 H :    0.039345
  16 S :    0.149548
  17 C :   -0.093473
  18 C :   -0.037118
  19 C :    0.007797
  20 C :   -0.190321
  21 H :    0.026661
  22 C :    0.054596
  23 H :    0.044562
  24 H :    0.033139
  25 C :   -0.085124
  26 H :    0.018151
  27 H :    0.029429
  28 C :   -0.020932
  29 H :    0.016266
  30 H :    0.012041
  31 H :    0.041297
  32 H :    0.041160
  33 H :    0.045365
Sum of atomic charges:   -0.0000000

LOEWDIN ATOMIC CHARGES
----------------------
   0 S :    0.452426
   1 C :   -0.218720
   2 C :   -0.062710
   3 C :   -0.061522
   4 C :   -0.220053
   5 H :    0.023891
   6 C :   -0.030182
   7 H :    0.033573
   8 H :    0.029561
   9 C :   -0.050838
  10 H :    0.024794
  11 H :    0.028393
  12 C :   -0.072792
  13 H :    0.037278
  14 H :    0.021354
  15 H :    0.030125
  16 S :    0.457139
  17 C :   -0.195542
  18 C :   -0.064916
  19 C :   -0.051472
  20 C :   -0.236591
  21 H :    0.034563
  22 C :   -0.035108
  23 H :    0.039708
  24 H :    0.033567
  25 C :   -0.039039
  26 H :    0.013794
  27 H :    0.029821
  28 C :   -0.061073
  29 H :    0.019637
  30 H :    0.022779
  31 H :    0.024052
  32 H :    0.023944
  33 H :    0.020161

  Mayer bond orders larger than 0.100000
B(  0-S ,  1-C ) :   1.1659 B(  0-S ,  4-C ) :   1.1877 B(  1-C ,  2-C ) :   1.5933
B(  1-C , 32-H ) :   0.9665 B(  2-C ,  3-C ) :   1.2579 B(  2-C ,  6-C ) :   1.0171
B(  3-C ,  4-C ) :   1.5617 B(  3-C ,  5-H ) :   1.0016 B(  4-C , 20-C ) :   0.9781
B(  6-C ,  7-H ) :   0.9397 B(  6-C ,  8-H ) :   0.9459 B(  6-C ,  9-C ) :   1.0626
B(  9-C , 10-H ) :   0.9549 B(  9-C , 11-H ) :   0.9643 B(  9-C , 12-C ) :   1.0632
B( 12-C , 13-H ) :   0.9745 B( 12-C , 14-H ) :   0.9771 B( 12-C , 15-H ) :   0.9801
B( 16-S , 17-C ) :   1.1624 B( 16-S , 20-C ) :   1.1913 B( 17-C , 18-C ) :   1.5990
B( 17-C , 33-H ) :   0.9721 B( 18-C , 19-C ) :   1.2351 B( 18-C , 21-H ) :   0.9902
B( 19-C , 20-C ) :   1.5746 B( 19-C , 22-C ) :   1.0451 B( 22-C , 23-H ) :   0.9414
B( 22-C , 24-H ) :   0.9277 B( 22-C , 25-C ) :   1.0686 B( 25-C , 26-H ) :   0.9606
B( 25-C , 27-H ) :   0.9559 B( 25-C , 28-C ) :   1.0793 B( 28-C , 29-H ) :   0.9697
B( 28-C , 30-H ) :   0.9715 B( 28-C , 31-H ) :   0.9742

Dispersion correction           -0.014999882
FINAL SINGLE POINT ENERGY     -1339.881330746834

DIPOLE MOMENT
-------------
                                X             Y             Z
Electronic contribution:     24.47096      -6.28783      10.09265
Nuclear contribution   :    -24.86634       6.54445     -10.39733
                        -----------------------------------------
Total Dipole Moment    :     -0.39538       0.25662      -0.30468
                        -----------------------------------------
Magnitude (a.u.)       :      0.56125
Magnitude (Debye)      :      1.42659

Rotational constants in cm-1:     0.019347     0.008332     0.007337
Rotational constants in MHz :   580.017305   249.786321   219.966015

                             ****ORCA TERMINATED NORMALLY****
TOTAL RUN TIME: 0 days 0 hours 0 minutes 21 seconds 927 msec
