                         Program Version 4.2.1 -  RELEASE  -
|  1> ! wB97X-D3 SP def2-SVP
|  2> %pal
|  3> nprocs 24
|  4> end
|  5>
|  6> * xyz 0 1
|  7> S 	 -139.836 	 4.90459 	 2.16458
|  8> C 	 -139.414 	 6.34393 	 1.23571
|  9> C 	 -138.372 	 7.0346 	 1.78644
| 10> C 	 -137.967 	 6.49727 	 3.05299
| 11> C 	 -138.618 	 5.31213 	 3.37614
| 12> H 	 -137.117 	 6.89084 	 3.61138
| 13> C 	 -137.607 	 8.12138 	 1.03939
| 14> H 	 -137.788 	 9.05752 	 1.63335
| 15> H 	 -137.944 	 8.09209 	 0.00883735
| 16> C 	 -136.131 	 7.88103 	 0.8976
| 17> H 	 -135.661 	 8.69783 	 0.453804
| 18> H 	 -135.649 	 7.90603 	 1.88684
| 19> C 	 -135.758 	 6.6294 	 0.00113417
| 20> H 	 -135.967 	 6.72852 	 -1.11403
| 21> H 	 -134.764 	 6.40083 	 0.205167
| 22> H 	 -136.289 	 5.7861 	 0.266901
| 23> S 	 -139.063 	 4.74437 	 6.10825
| 24> C 	 -137.882 	 3.67292 	 6.83072
| 25> C 	 -137.086 	 3.04963 	 5.94246
| 26> C 	 -137.401 	 3.4466 	 4.63372
| 27> C 	 -138.279 	 4.4881 	 4.55001
| 28> H 	 -136.299 	 2.30842 	 6.2448
| 29> C 	 -136.584 	 3.00678 	 3.41083
| 30> H 	 -135.523 	 3.3086 	 3.48757
| 31> H 	 -136.932 	 3.62158 	 2.61523
| 32> C 	 -136.833 	 1.56999 	 3.00727
| 33> H 	 -136.814 	 1.55307 	 1.91042
| 34> H 	 -137.82 	 1.25405 	 3.26424
| 35> C 	 -135.84 	 0.633104 	 3.6799
| 36> H 	 -135.989 	 -0.440722 	 3.53642
| 37> H 	 -135.917 	 0.746124 	 4.73461
| 38> H 	 -134.831 	 0.907269 	 3.40848
| 39> H 	 -139.763 	 6.40112 	 0.257038
| 40> H 	 -137.859 	 3.39257 	 7.86231
| 41> *
| 42>
| 43>                          ****END OF INPUT****

CARTESIAN COORDINATES (ANGSTROEM)
---------------------------------
  S    -139.836000    4.904590    2.164580
  C    -139.414000    6.343930    1.235710
  C    -138.372000    7.034600    1.786440
  C    -137.967000    6.497270    3.052990
  C    -138.618000    5.312130    3.376140
  H    -137.117000    6.890840    3.611380
  C    -137.607000    8.121380    1.039390
  H    -137.788000    9.057520    1.633350
  H    -137.944000    8.092090    0.008837
  C    -136.131000    7.881030    0.897600
  H    -135.661000    8.697830    0.453804
  H    -135.649000    7.906030    1.886840
  C    -135.758000    6.629400    0.001134
  H    -135.967000    6.728520   -1.114030
  H    -134.764000    6.400830    0.205167
  H    -136.289000    5.786100    0.266901
  S    -139.063000    4.744370    6.108250
  C    -137.882000    3.672920    6.830720
  C    -137.086000    3.049630    5.942460
  C    -137.401000    3.446600    4.633720
  C    -138.279000    4.488100    4.550010
  H    -136.299000    2.308420    6.244800
  C    -136.584000    3.006780    3.410830
  H    -135.523000    3.308600    3.487570
  H    -136.932000    3.621580    2.615230
  C    -136.833000    1.569990    3.007270
  H    -136.814000    1.553070    1.910420
  H    -137.820000    1.254050    3.264240
  C    -135.840000    0.633104    3.679900
  H    -135.989000   -0.440722    3.536420
  H    -135.917000    0.746124    4.734610
  H    -134.831000    0.907269    3.408480
  H    -139.763000    6.401120    0.257038
  H    -137.859000    3.392570    7.862310

 Total Charge           Charge          ....    0
 Multiplicity           Mult            ....    1
 Number of Electrons    NEL             ....  134
 Basis Dimension        Dim             ....  322

ORBITAL ENERGIES
----------------

  NO   OCC          E(Eh)            E(eV)
   0   2.0000     -88.965464     -2420.8733
   1   2.0000     -88.963854     -2420.8296
   2   2.0000     -10.332604      -281.1644
   3   2.0000     -10.321687      -280.8674
   4   2.0000     -10.311356      -280.5863
   5   2.0000     -10.308850      -280.5181
   6   2.0000     -10.299719      -280.2696
   7   2.0000     -10.297048      -280.1969
   8   2.0000     -10.295638      -280.1586
   9   2.0000     -10.294757      -280.1346
  10   2.0000     -10.290290      -280.0130
  11   2.0000     -10.285389      -279.8797
  12   2.0000     -10.281451      -279.7725
  13   2.0000     -10.279174      -279.7105
  14   2.0000     -10.274996      -279.5968
  15   2.0000     -10.271539      -279.5028
  16   2.0000      -8.079780      -219.8620
  17   2.0000      -8.078606      -219.8300
  18   2.0000      -6.038255      -164.3093
  19   2.0000      -6.037057      -164.2767
  20   2.0000      -6.034399      -164.2044
  21   2.0000      -6.033299      -164.1744
  22   2.0000      -6.030555      -164.0998
  23   2.0000      -6.029240      -164.0640
  24   2.0000      -1.006871       -27.3984
  25   2.0000      -0.985919       -26.8282
  26   2.0000      -0.914034       -24.8721
  27   2.0000      -0.910540       -24.7770
  28   2.0000      -0.869491       -23.6600
  29   2.0000      -0.847240       -23.0546
  30   2.0000      -0.843942       -22.9648
  31   2.0000      -0.817206       -22.2373
  32   2.0000      -0.786776       -21.4093
  33   2.0000      -0.775351       -21.0984
  34   2.0000      -0.712788       -19.3959
  35   2.0000      -0.699613       -19.0374
  36   2.0000      -0.694826       -18.9072
  37   2.0000      -0.658693       -17.9239
  38   2.0000      -0.642172       -17.4744
  39   2.0000      -0.619483       -16.8570
  40   2.0000      -0.601429       -16.3657
  41   2.0000      -0.564644       -15.3647
  42   2.0000      -0.559451       -15.2234
  43   2.0000      -0.548146       -14.9158
  44   2.0000      -0.541044       -14.7225
  45   2.0000      -0.537565       -14.6279
  46   2.0000      -0.520383       -14.1603
  47   2.0000      -0.512775       -13.9533
  48   2.0000      -0.500586       -13.6216
  49   2.0000      -0.499444       -13.5906
  50   2.0000      -0.487111       -13.2550
  51   2.0000      -0.480586       -13.0774
  52   2.0000      -0.473848       -12.8941
  53   2.0000      -0.464879       -12.6500
  54   2.0000      -0.462576       -12.5873
  55   2.0000      -0.449981       -12.2446
  56   2.0000      -0.442316       -12.0360
  57   2.0000      -0.438529       -11.9330
  58   2.0000      -0.437153       -11.8955
  59   2.0000      -0.429157       -11.6779
  60   2.0000      -0.420150       -11.4329
  61   2.0000      -0.410824       -11.1791
  62   2.0000      -0.407486       -11.0883
  63   2.0000      -0.337326        -9.1791
  64   2.0000      -0.330690        -8.9985
  65   2.0000      -0.319806        -8.7024
  66   2.0000      -0.314658        -8.5623
  67   0.0000       0.045564         1.2399
  68   0.0000       0.054253         1.4763
  69   0.0000       0.116243         3.1631
  70   0.0000       0.119504         3.2519
  71   0.0000       0.129573         3.5259

MULLIKEN ATOMIC CHARGES
-----------------------
   0 S :    0.103982
   1 C :   -0.111884
   2 C :   -0.092452
   3 C :    0.047912
   4 C :   -0.193546
   5 H :    0.021734
   6 C :    0.081257
   7 H :    0.050250
   8 H :    0.015525
   9 C :   -0.066004
  10 H :    0.015521
  11 H :    0.020777
  12 C :   -0.033565
  13 H :    0.042708
  14 H :    0.022556
  15 H :    0.018024
  16 S :    0.115140
  17 C :   -0.075471
  18 C :   -0.050520
  19 C :   -0.015693
  20 C :   -0.183221
  21 H :    0.044645
  22 C :    0.056405
  23 H :    0.034703
  24 H :    0.010837
  25 C :   -0.038786
  26 H :    0.026988
  27 H :    0.019683
  28 C :   -0.013973
  29 H :    0.032779
  30 H :    0.000425
  31 H :    0.019772
  32 H :    0.031348
  33 H :    0.042144
Sum of atomic charges:   -0.0000000

LOEWDIN ATOMIC CHARGES
----------------------
   0 S :    0.388866
   1 C :   -0.182982
   2 C :   -0.064050
   3 C :   -0.054598
   4 C :   -0.189403
   5 H :    0.034455
   6 C :   -0.029246
   7 H :    0.042043
   8 H :    0.029775
   9 C :   -0.038920
  10 H :    0.018384
  11 H :    0.022861
  12 C :   -0.057963
  13 H :    0.035914
  14 H :    0.020590
  15 H :    0.013854
  16 S :    0.395760
  17 C :   -0.173072
  18 C :   -0.082248
  19 C :   -0.051552
  20 C :   -0.201526
  21 H :    0.043154
  22 C :   -0.029228
  23 H :    0.032849
  24 H :    0.023765
  25 C :   -0.035040
  26 H :    0.025637
  27 H :    0.022441
  28 C :   -0.061980
  29 H :    0.026261
  30 H :    0.016643
  31 H :    0.021340
  32 H :    0.012730
  33 H :    0.024487

  Mayer bond orders larger than 0.100000
B(  0-S ,  1-C ) :   1.1313 B(  0-S ,  4-C ) :   1.1490 B(  1-C ,  2-C ) :   1.6307
B(  1-C , 32-H ) :   0.9712 B(  2-C ,  3-C ) :   1.2260 B(  2-C ,  6-C ) :   1.0213
B(  3-C ,  4-C ) :   1.5952 B(  3-C ,  5-H ) :   0.9894 B(  4-C , 20-C ) :   1.0173
B(  6-C ,  7-H ) :   0.9305 B(  6-C ,  8-H ) :   0.9447 B(  6-C ,  9-C ) :   1.0912
B(  9-C , 10-H ) :   0.9508 B(  9-C , 11-H ) :   0.9509 B(  9-C , 12-C ) :   1.0591
B( 12-C , 13-H ) :   0.9733 B( 12-C , 14-H ) :   0.9730 B( 12-C , 15-H ) :   0.9800
B( 16-S , 17-C ) :   1.1516 B( 16-S , 20-C ) :   1.1288 B( 17-C , 18-C ) :   1.6386
B( 17-C , 33-H ) :   0.9626 B( 18-C , 19-C ) :   1.2273 B( 18-C , 21-H ) :   0.9787
B( 19-C , 20-C ) :   1.6310 B( 19-C , 22-C ) :   1.0460 B( 22-C , 23-H ) :   0.9448
B( 22-C , 24-H ) :   0.9212 B( 22-C , 25-C ) :   1.0562 B( 25-C , 26-H ) :   0.9582
B( 25-C , 27-H ) :   0.9544 B( 25-C , 28-C ) :   1.0773 B( 28-C , 29-H ) :   0.9709
B( 28-C , 30-H ) :   0.9707 B( 28-C , 31-H ) :   0.9756

Dispersion correction           -0.015462226
FINAL SINGLE POINT ENERGY     -1339.871180114136

DIPOLE MOMENT
-------------
                                X             Y             Z
Electronic contribution:    -20.82677       3.80379      14.30788
Nuclear contribution   :     21.51372      -3.79724     -14.59504
                        -----------------------------------------
Total Dipole Moment    :      0.68695       0.00654      -0.28716
                        -----------------------------------------
Magnitude (a.u.)       :      0.74458
Magnitude (Debye)      :      1.89258

Rotational constants in cm-1:     0.018399     0.009105     0.007606
Rotational constants in MHz :   551.585187   272.946298   228.020721

                             ****ORCA TERMINATED NORMALLY****
TOTAL RUN TIME: 0 days 0 hours 0 minutes 22 seconds 427 msec
