                         Program Version 4.2.1 -  RELEASE  -
|  1> ! wB97X-D3 SP def2-SVP
|  2> %pal
|  3> nprocs 24
|  4> end
|  5>
|  6> * xyz 0 1
|  7> S 	 -96.3861 	 49.5372 	 -100.581
|  8> C 	 -96.0798 	 49.3743 	 -98.8646
|  9> C 	 -95.4186 	 50.4885 	 -98.3233
| 10> C 	 -95.1545 	 51.4603 	 -99.3374
| 11> C 	 -95.8012 	 51.1706 	 -100.546
| 12> H 	 -94.6082 	 52.4111 	 -99.2672
| 13> C 	 -94.9632 	 50.6351 	 -96.8783
| 14> H 	 -95.7166 	 49.948 	 -96.3811
| 15> H 	 -95.1966 	 51.5839 	 -96.5024
| 16> C 	 -93.4604 	 50.2164 	 -96.6778
| 17> H 	 -93.43 	 49.2021 	 -97.0152
| 18> H 	 -92.8549 	 50.8982 	 -97.2487
| 19> C 	 -93.0967 	 50.158 	 -95.2204
| 20> H 	 -92.0773 	 49.8912 	 -95.0087
| 21> H 	 -93.2495 	 51.1626 	 -94.8069
| 22> H 	 -93.7803 	 49.5082 	 -94.6482
| 23> S 	 -95.0637 	 51.5189 	 -103.21
| 24> C 	 -95.3501 	 52.9435 	 -103.976
| 25> C 	 -96.2883 	 53.7111 	 -103.298
| 26> C 	 -96.4862 	 53.2893 	 -101.931
| 27> C 	 -95.9498 	 52.0264 	 -101.75
| 28> H 	 -96.6345 	 54.6882 	 -103.613
| 29> C 	 -97.23 	 54.0752 	 -100.908
| 30> H 	 -97.8392 	 53.4085 	 -100.377
| 31> H 	 -97.9695 	 54.6557 	 -101.476
| 32> C 	 -96.412 	 54.9441 	 -99.9267
| 33> H 	 -95.5817 	 55.3261 	 -100.461
| 34> H 	 -96.1428 	 54.2325 	 -99.136
| 35> C 	 -97.1996 	 56.149 	 -99.4722
| 36> H 	 -96.6493 	 56.8871 	 -98.8794
| 37> H 	 -98.1387 	 55.7554 	 -99.0877
| 38> H 	 -97.607 	 56.6811 	 -100.409
| 39> H 	 -96.1982 	 48.5047 	 -98.319
| 40> H 	 -95.0311 	 53.1078 	 -104.939
| 41> *
| 42>
| 43>                          ****END OF INPUT****

CARTESIAN COORDINATES (ANGSTROEM)
---------------------------------
  S    -96.386100   49.537200  -100.581000
  C    -96.079800   49.374300  -98.864600
  C    -95.418600   50.488500  -98.323300
  C    -95.154500   51.460300  -99.337400
  C    -95.801200   51.170600  -100.546000
  H    -94.608200   52.411100  -99.267200
  C    -94.963200   50.635100  -96.878300
  H    -95.716600   49.948000  -96.381100
  H    -95.196600   51.583900  -96.502400
  C    -93.460400   50.216400  -96.677800
  H    -93.430000   49.202100  -97.015200
  H    -92.854900   50.898200  -97.248700
  C    -93.096700   50.158000  -95.220400
  H    -92.077300   49.891200  -95.008700
  H    -93.249500   51.162600  -94.806900
  H    -93.780300   49.508200  -94.648200
  S    -95.063700   51.518900  -103.210000
  C    -95.350100   52.943500  -103.976000
  C    -96.288300   53.711100  -103.298000
  C    -96.486200   53.289300  -101.931000
  C    -95.949800   52.026400  -101.750000
  H    -96.634500   54.688200  -103.613000
  C    -97.230000   54.075200  -100.908000
  H    -97.839200   53.408500  -100.377000
  H    -97.969500   54.655700  -101.476000
  C    -96.412000   54.944100  -99.926700
  H    -95.581700   55.326100  -100.461000
  H    -96.142800   54.232500  -99.136000
  C    -97.199600   56.149000  -99.472200
  H    -96.649300   56.887100  -98.879400
  H    -98.138700   55.755400  -99.087700
  H    -97.607000   56.681100  -100.409000
  H    -96.198200   48.504700  -98.319000
  H    -95.031100   53.107800  -104.939000

 Total Charge           Charge          ....    0
 Multiplicity           Mult            ....    1
 Number of Electrons    NEL             ....  134
 Basis Dimension        Dim             ....  322

ORBITAL ENERGIES
----------------

  NO   OCC          E(Eh)            E(eV)
   0   2.0000     -88.966872     -2420.9117
   1   2.0000     -88.962061     -2420.7808
   2   2.0000     -10.329050      -281.0677
   3   2.0000     -10.323677      -280.9215
   4   2.0000     -10.309141      -280.5260
   5   2.0000     -10.307755      -280.4883
   6   2.0000     -10.303016      -280.3593
   7   2.0000     -10.302588      -280.3477
   8   2.0000     -10.295814      -280.1634
   9   2.0000     -10.294343      -280.1233
  10   2.0000     -10.292103      -280.0623
  11   2.0000     -10.286144      -279.9002
  12   2.0000     -10.284437      -279.8538
  13   2.0000     -10.284267      -279.8491
  14   2.0000     -10.283255      -279.8216
  15   2.0000     -10.276668      -279.6424
  16   2.0000      -8.081705      -219.9144
  17   2.0000      -8.078886      -219.8377
  18   2.0000      -6.040071      -164.3587
  19   2.0000      -6.037137      -164.2788
  20   2.0000      -6.036285      -164.2557
  21   2.0000      -6.032998      -164.1662
  22   2.0000      -6.032538      -164.1537
  23   2.0000      -6.029880      -164.0814
  24   2.0000      -1.008855       -27.4523
  25   2.0000      -0.986796       -26.8521
  26   2.0000      -0.917878       -24.9767
  27   2.0000      -0.911970       -24.8160
  28   2.0000      -0.867954       -23.6182
  29   2.0000      -0.857696       -23.3391
  30   2.0000      -0.846189       -23.0260
  31   2.0000      -0.810495       -22.0547
  32   2.0000      -0.784556       -21.3489
  33   2.0000      -0.771087       -20.9823
  34   2.0000      -0.705600       -19.2003
  35   2.0000      -0.702816       -19.1246
  36   2.0000      -0.694167       -18.8892
  37   2.0000      -0.663399       -18.0520
  38   2.0000      -0.643700       -17.5160
  39   2.0000      -0.615350       -16.7445
  40   2.0000      -0.603740       -16.4286
  41   2.0000      -0.576899       -15.6982
  42   2.0000      -0.565416       -15.3858
  43   2.0000      -0.557530       -15.1712
  44   2.0000      -0.539461       -14.6795
  45   2.0000      -0.526575       -14.3288
  46   2.0000      -0.519918       -14.1477
  47   2.0000      -0.511261       -13.9121
  48   2.0000      -0.504940       -13.7401
  49   2.0000      -0.503211       -13.6931
  50   2.0000      -0.496423       -13.5083
  51   2.0000      -0.477184       -12.9848
  52   2.0000      -0.467061       -12.7094
  53   2.0000      -0.465563       -12.6686
  54   2.0000      -0.457615       -12.4523
  55   2.0000      -0.447330       -12.1725
  56   2.0000      -0.445107       -12.1120
  57   2.0000      -0.437409       -11.9025
  58   2.0000      -0.432008       -11.7555
  59   2.0000      -0.427496       -11.6328
  60   2.0000      -0.424487       -11.5509
  61   2.0000      -0.419464       -11.4142
  62   2.0000      -0.416812       -11.3420
  63   2.0000      -0.335704        -9.1350
  64   2.0000      -0.332881        -9.0582
  65   2.0000      -0.327433        -8.9099
  66   2.0000      -0.294614        -8.0169
  67   0.0000       0.038125         1.0374
  68   0.0000       0.060622         1.6496
  69   0.0000       0.115774         3.1504
  70   0.0000       0.121956         3.3186
  71   0.0000       0.128911         3.5078

MULLIKEN ATOMIC CHARGES
-----------------------
   0 S :    0.120187
   1 C :   -0.082244
   2 C :   -0.114903
   3 C :    0.037092
   4 C :   -0.183045
   5 H :    0.027305
   6 C :    0.046292
   7 H :    0.025057
   8 H :    0.013720
   9 C :   -0.034700
  10 H :    0.024453
  11 H :    0.034769
  12 C :   -0.027522
  13 H :    0.036014
  14 H :    0.017181
  15 H :    0.027829
  16 S :    0.117894
  17 C :   -0.052011
  18 C :   -0.024090
  19 C :   -0.073942
  20 C :   -0.162365
  21 H :    0.011846
  22 C :    0.067498
  23 H :    0.017895
  24 H :    0.007030
  25 C :   -0.030866
  26 H :    0.021519
  27 H :    0.040407
  28 C :   -0.062810
  29 H :    0.052157
  30 H :    0.025878
  31 H :    0.027642
  32 H :    0.015996
  33 H :    0.032838
Sum of atomic charges:   -0.0000000

LOEWDIN ATOMIC CHARGES
----------------------
   0 S :    0.416194
   1 C :   -0.193799
   2 C :   -0.058418
   3 C :   -0.067965
   4 C :   -0.200692
   5 H :    0.034494
   6 C :   -0.028130
   7 H :    0.036923
   8 H :    0.017824
   9 C :   -0.029034
  10 H :    0.024150
  11 H :    0.024638
  12 C :   -0.065609
  13 H :    0.023508
  14 H :    0.023167
  15 H :    0.027350
  16 S :    0.440433
  17 C :   -0.198731
  18 C :   -0.076964
  19 C :   -0.047313
  20 C :   -0.204177
  21 H :    0.025477
  22 C :   -0.028856
  23 H :    0.026820
  24 H :    0.029460
  25 C :   -0.035979
  26 H :    0.018900
  27 H :    0.026781
  28 C :   -0.069018
  29 H :    0.028263
  30 H :    0.024338
  31 H :    0.031899
  32 H :    0.010394
  33 H :    0.013676

  Mayer bond orders larger than 0.100000
B(  0-S ,  1-C ) :   1.1413 B(  0-S ,  4-C ) :   1.1739 B(  1-C ,  2-C ) :   1.6043
B(  1-C ,  4-C ) :   0.1042 B(  1-C , 32-H ) :   0.9735 B(  2-C ,  3-C ) :   1.2399
B(  2-C ,  6-C ) :   1.0191 B(  3-C ,  4-C ) :   1.5714 B(  3-C ,  5-H ) :   0.9853
B(  4-C , 20-C ) :   0.9960 B(  6-C ,  7-H ) :   0.9427 B(  6-C ,  8-H ) :   0.9414
B(  6-C ,  9-C ) :   1.0507 B(  9-C , 10-H ) :   0.9554 B(  9-C , 11-H ) :   0.9577
B(  9-C , 12-C ) :   1.0905 B( 12-C , 13-H ) :   0.9736 B( 12-C , 14-H ) :   0.9712
B( 12-C , 15-H ) :   0.9731 B( 16-S , 17-C ) :   1.2079 B( 16-S , 20-C ) :   1.1459
B( 17-C , 18-C ) :   1.5611 B( 17-C , 33-H ) :   0.9756 B( 18-C , 19-C ) :   1.2591
B( 18-C , 21-H ) :   0.9842 B( 19-C , 20-C ) :   1.6029 B( 19-C , 22-C ) :   1.0566
B( 22-C , 23-H ) :   0.9224 B( 22-C , 24-H ) :   0.9365 B( 22-C , 25-C ) :   1.0438
B( 25-C , 26-H ) :   0.9607 B( 25-C , 27-H ) :   0.9449 B( 25-C , 28-C ) :   1.0849
B( 28-C , 29-H ) :   0.9733 B( 28-C , 30-H ) :   0.9714 B( 28-C , 31-H ) :   0.9725

Dispersion correction           -0.014085010
FINAL SINGLE POINT ENERGY     -1339.866795405302

DIPOLE MOMENT
-------------
                                X             Y             Z
Electronic contribution:     -2.63631     -14.18229     -25.06614
Nuclear contribution   :      2.76451      14.61239      25.46378
                        -----------------------------------------
Total Dipole Moment    :      0.12819       0.43010       0.39764
                        -----------------------------------------
Magnitude (a.u.)       :      0.59961
Magnitude (Debye)      :      1.52409

Rotational constants in cm-1:     0.017782     0.008322     0.006497
Rotational constants in MHz :   533.100757   249.476033   194.782109

                             ****ORCA TERMINATED NORMALLY****
TOTAL RUN TIME: 0 days 0 hours 0 minutes 21 seconds 444 msec
