                         Program Version 4.2.1 -  RELEASE  -
|  1> ! wB97X-D3 SP def2-SVP
|  2> %pal
|  3> nprocs 24
|  4> end
|  5>
|  6> * xyz 0 1
|  7> S 	 -115.864 	 48.3974 	 -114.24
|  8> C 	 -117.145 	 47.2475 	 -114.019
|  9> C 	 -116.742 	 46.1517 	 -113.246
| 10> C 	 -115.319 	 46.1255 	 -113.038
| 11> C 	 -114.658 	 47.2058 	 -113.61
| 12> H 	 -114.71 	 45.3674 	 -112.567
| 13> C 	 -117.658 	 45.0455 	 -112.797
| 14> H 	 -117.101 	 44.1435 	 -112.625
| 15> H 	 -118.252 	 44.831 	 -113.638
| 16> C 	 -118.563 	 45.4128 	 -111.607
| 17> H 	 -117.929 	 45.8049 	 -110.839
| 18> H 	 -119.342 	 46.1725 	 -111.893
| 19> C 	 -119.353 	 44.21 	 -111.089
| 20> H 	 -119.948 	 43.6377 	 -111.832
| 21> H 	 -118.648 	 43.4832 	 -110.655
| 22> H 	 -120.14 	 44.4702 	 -110.396
| 23> S 	 -112.632 	 48.8413 	 -112.963
| 24> C 	 -111.05 	 48.4008 	 -113.391
| 25> C 	 -110.961 	 47.1963 	 -114.014
| 26> C 	 -112.251 	 46.6107 	 -114.136
| 27> C 	 -113.263 	 47.4706 	 -113.727
| 28> H 	 -110.062 	 46.7832 	 -114.385
| 29> C 	 -112.491 	 45.2334 	 -114.785
| 30> H 	 -113.564 	 45.0462 	 -114.905
| 31> H 	 -112.124 	 44.4912 	 -114.161
| 32> C 	 -111.762 	 45.0925 	 -116.141
| 33> H 	 -112.019 	 44.0405 	 -116.328
| 34> H 	 -110.66 	 45.0925 	 -116.021
| 35> C 	 -112.363 	 46.0837 	 -117.177
| 36> H 	 -111.954 	 45.9396 	 -118.145
| 37> H 	 -112.134 	 47.0595 	 -116.811
| 38> H 	 -113.443 	 46.0463 	 -117.315
| 39> H 	 -118.184 	 47.411 	 -114.25
| 40> H 	 -110.194 	 48.9979 	 -113.112
| 41> *
| 42>
| 43>                          ****END OF INPUT****

CARTESIAN COORDINATES (ANGSTROEM)
---------------------------------
  S    -115.864000   48.397400  -114.240000
  C    -117.145000   47.247500  -114.019000
  C    -116.742000   46.151700  -113.246000
  C    -115.319000   46.125500  -113.038000
  C    -114.658000   47.205800  -113.610000
  H    -114.710000   45.367400  -112.567000
  C    -117.658000   45.045500  -112.797000
  H    -117.101000   44.143500  -112.625000
  H    -118.252000   44.831000  -113.638000
  C    -118.563000   45.412800  -111.607000
  H    -117.929000   45.804900  -110.839000
  H    -119.342000   46.172500  -111.893000
  C    -119.353000   44.210000  -111.089000
  H    -119.948000   43.637700  -111.832000
  H    -118.648000   43.483200  -110.655000
  H    -120.140000   44.470200  -110.396000
  S    -112.632000   48.841300  -112.963000
  C    -111.050000   48.400800  -113.391000
  C    -110.961000   47.196300  -114.014000
  C    -112.251000   46.610700  -114.136000
  C    -113.263000   47.470600  -113.727000
  H    -110.062000   46.783200  -114.385000
  C    -112.491000   45.233400  -114.785000
  H    -113.564000   45.046200  -114.905000
  H    -112.124000   44.491200  -114.161000
  C    -111.762000   45.092500  -116.141000
  H    -112.019000   44.040500  -116.328000
  H    -110.660000   45.092500  -116.021000
  C    -112.363000   46.083700  -117.177000
  H    -111.954000   45.939600  -118.145000
  H    -112.134000   47.059500  -116.811000
  H    -113.443000   46.046300  -117.315000
  H    -118.184000   47.411000  -114.250000
  H    -110.194000   48.997900  -113.112000

 Total Charge           Charge          ....    0
 Multiplicity           Mult            ....    1
 Number of Electrons    NEL             ....  134
 Basis Dimension        Dim             ....  322

ORBITAL ENERGIES
----------------

  NO   OCC          E(Eh)            E(eV)
   0   2.0000     -88.963694     -2420.8252
   1   2.0000     -88.963030     -2420.8071
   2   2.0000     -10.327942      -281.0376
   3   2.0000     -10.314348      -280.6677
   4   2.0000     -10.312574      -280.6194
   5   2.0000     -10.310435      -280.5612
   6   2.0000     -10.301404      -280.3154
   7   2.0000     -10.298767      -280.2437
   8   2.0000     -10.295666      -280.1593
   9   2.0000     -10.288743      -279.9709
  10   2.0000     -10.288732      -279.9706
  11   2.0000     -10.287868      -279.9471
  12   2.0000     -10.284591      -279.8580
  13   2.0000     -10.283913      -279.8395
  14   2.0000     -10.279230      -279.7121
  15   2.0000     -10.268417      -279.4178
  16   2.0000      -8.080194      -219.8733
  17   2.0000      -8.077897      -219.8107
  18   2.0000      -6.038437      -164.3142
  19   2.0000      -6.036454      -164.2603
  20   2.0000      -6.034379      -164.2038
  21   2.0000      -6.032536      -164.1536
  22   2.0000      -6.031078      -164.1140
  23   2.0000      -6.028595      -164.0464
  24   2.0000      -1.015583       -27.6354
  25   2.0000      -0.982813       -26.7437
  26   2.0000      -0.911590       -24.8056
  27   2.0000      -0.908011       -24.7082
  28   2.0000      -0.873587       -23.7715
  29   2.0000      -0.849082       -23.1047
  30   2.0000      -0.844174       -22.9711
  31   2.0000      -0.814257       -22.1571
  32   2.0000      -0.785751       -21.3814
  33   2.0000      -0.769383       -20.9360
  34   2.0000      -0.705994       -19.2111
  35   2.0000      -0.701853       -19.0984
  36   2.0000      -0.695679       -18.9304
  37   2.0000      -0.660339       -17.9687
  38   2.0000      -0.641990       -17.4694
  39   2.0000      -0.617308       -16.7978
  40   2.0000      -0.601806       -16.3760
  41   2.0000      -0.572369       -15.5750
  42   2.0000      -0.561331       -15.2746
  43   2.0000      -0.554501       -15.0887
  44   2.0000      -0.536043       -14.5865
  45   2.0000      -0.520910       -14.1747
  46   2.0000      -0.516809       -14.0631
  47   2.0000      -0.512395       -13.9430
  48   2.0000      -0.503689       -13.7061
  49   2.0000      -0.500544       -13.6205
  50   2.0000      -0.494973       -13.4689
  51   2.0000      -0.480213       -13.0673
  52   2.0000      -0.468743       -12.7552
  53   2.0000      -0.464168       -12.6307
  54   2.0000      -0.458786       -12.4842
  55   2.0000      -0.449960       -12.2440
  56   2.0000      -0.441466       -12.0129
  57   2.0000      -0.436895       -11.8885
  58   2.0000      -0.433473       -11.7954
  59   2.0000      -0.429373       -11.6838
  60   2.0000      -0.427242       -11.6258
  61   2.0000      -0.416490       -11.3333
  62   2.0000      -0.408032       -11.1031
  63   2.0000      -0.349058        -9.4983
  64   2.0000      -0.330074        -8.9818
  65   2.0000      -0.327196        -8.9034
  66   2.0000      -0.288296        -7.8449
  67   0.0000       0.033414         0.9092
  68   0.0000       0.067631         1.8403
  69   0.0000       0.117201         3.1892
  70   0.0000       0.125414         3.4127
  71   0.0000       0.135298         3.6817

MULLIKEN ATOMIC CHARGES
-----------------------
   0 S :    0.101132
   1 C :   -0.094195
   2 C :   -0.115714
   3 C :    0.049120
   4 C :   -0.181942
   5 H :    0.013279
   6 C :    0.098995
   7 H :    0.009279
   8 H :    0.012721
   9 C :   -0.070043
  10 H :    0.033252
  11 H :    0.035232
  12 C :   -0.057262
  13 H :    0.024109
  14 H :    0.031835
  15 H :    0.033068
  16 S :    0.127284
  17 C :   -0.080632
  18 C :   -0.014965
  19 C :   -0.068771
  20 C :   -0.149746
  21 H :   -0.000707
  22 C :    0.087261
  23 H :    0.033632
  24 H :    0.011811
  25 C :   -0.103957
  26 H :    0.022985
  27 H :    0.036888
  28 C :   -0.009873
  29 H :    0.025141
  30 H :    0.034344
  31 H :    0.032982
  32 H :    0.041742
  33 H :    0.051714
Sum of atomic charges:    0.0000000

LOEWDIN ATOMIC CHARGES
----------------------
   0 S :    0.383284
   1 C :   -0.198560
   2 C :   -0.061092
   3 C :   -0.059299
   4 C :   -0.174530
   5 H :    0.032561
   6 C :   -0.030002
   7 H :    0.026254
   8 H :    0.027073
   9 C :   -0.035887
  10 H :    0.023513
  11 H :    0.029374
  12 C :   -0.073624
  13 H :    0.026233
  14 H :    0.025251
  15 H :    0.025053
  16 S :    0.453169
  17 C :   -0.193047
  18 C :   -0.069083
  19 C :   -0.050779
  20 C :   -0.235266
  21 H :    0.025827
  22 C :   -0.025614
  23 H :    0.031802
  24 H :    0.019836
  25 C :   -0.039604
  26 H :    0.023874
  27 H :    0.023594
  28 C :   -0.058092
  29 H :    0.019964
  30 H :    0.024932
  31 H :    0.030457
  32 H :    0.025456
  33 H :    0.026972

  Mayer bond orders larger than 0.100000
B(  0-S ,  1-C ) :   1.1391 B(  0-S ,  4-C ) :   1.1342 B(  1-C ,  2-C ) :   1.6155
B(  1-C ,  4-C ) :   0.1050 B(  1-C , 32-H ) :   0.9677 B(  2-C ,  3-C ) :   1.2188
B(  2-C ,  6-C ) :   1.0249 B(  3-C ,  4-C ) :   1.5832 B(  3-C ,  5-H ) :   0.9979
B(  4-C , 20-C ) :   1.0360 B(  6-C ,  7-H ) :   0.9448 B(  6-C ,  8-H ) :   0.9310
B(  6-C ,  9-C ) :   1.0589 B(  9-C , 10-H ) :   0.9590 B(  9-C , 11-H ) :   0.9558
B(  9-C , 12-C ) :   1.0839 B( 12-C , 13-H ) :   0.9727 B( 12-C , 14-H ) :   0.9746
B( 12-C , 15-H ) :   0.9746 B( 16-S , 17-C ) :   1.1802 B( 16-S , 20-C ) :   1.1654
B( 17-C , 18-C ) :   1.5807 B( 17-C , 33-H ) :   0.9675 B( 18-C , 19-C ) :   1.2505
B( 18-C , 21-H ) :   1.0045 B( 19-C , 20-C ) :   1.5776 B( 19-C , 22-C ) :   1.0350
B( 22-C , 23-H ) :   0.9379 B( 22-C , 24-H ) :   0.9258 B( 22-C , 25-C ) :   1.0810
B( 25-C , 26-H ) :   0.9563 B( 25-C , 27-H ) :   0.9550 B( 25-C , 28-C ) :   1.0602
B( 28-C , 29-H ) :   0.9761 B( 28-C , 30-H ) :   0.9743 B( 28-C , 31-H ) :   0.9747

Dispersion correction           -0.014511550
FINAL SINGLE POINT ENERGY     -1339.885037301605

DIPOLE MOMENT
-------------
                                X             Y             Z
Electronic contribution:      8.84229      21.60897       2.55085
Nuclear contribution   :     -8.82218     -22.24547      -2.49481
                        -----------------------------------------
Total Dipole Moment    :      0.02011      -0.63650       0.05604
                        -----------------------------------------
Magnitude (a.u.)       :      0.63928
Magnitude (Debye)      :      1.62492

Rotational constants in cm-1:     0.022075     0.007430     0.006678
Rotational constants in MHz :   661.787776   222.747394   200.212341

                             ****ORCA TERMINATED NORMALLY****
TOTAL RUN TIME: 0 days 0 hours 0 minutes 21 seconds 532 msec
