                         Program Version 4.2.1 -  RELEASE  -
|  1> ! wB97X-D3 SP def2-SVP
|  2> %pal
|  3> nprocs 24
|  4> end
|  5>
|  6> * xyz 0 1
|  7> S 	 -109.445 	 36.8281 	 -16.5759
|  8> C 	 -107.923 	 37.2953 	 -15.9178
|  9> C 	 -106.89 	 36.6716 	 -16.5316
| 10> C 	 -107.324 	 35.7376 	 -17.5491
| 11> C 	 -108.666 	 35.6055 	 -17.5502
| 12> H 	 -106.842 	 35.1244 	 -18.2921
| 13> C 	 -105.436 	 36.9209 	 -16.3268
| 14> H 	 -105.279 	 37.2204 	 -15.2038
| 15> H 	 -105.122 	 37.7518 	 -16.9486
| 16> C 	 -104.478 	 35.7444 	 -16.4732
| 17> H 	 -104.704 	 34.9086 	 -15.815
| 18> H 	 -104.582 	 35.2737 	 -17.4
| 19> C 	 -103.041 	 36.1738 	 -16.2443
| 20> H 	 -102.749 	 36.7814 	 -17.0388
| 21> H 	 -102.933 	 36.6748 	 -15.3224
| 22> H 	 -102.329 	 35.3366 	 -16.3374
| 23> S 	 -110.095 	 35.7706 	 -19.7738
| 24> C 	 -110.782 	 34.247 	 -20.3902
| 25> C 	 -110.245 	 33.1127 	 -19.8835
| 26> C 	 -109.485 	 33.4024 	 -18.728
| 27> C 	 -109.397 	 34.8127 	 -18.4551
| 28> H 	 -110.472 	 32.1469 	 -20.2544
| 29> C 	 -108.941 	 32.2702 	 -17.8299
| 30> H 	 -108.952 	 32.6389 	 -16.8887
| 31> H 	 -107.888 	 32.1257 	 -17.9162
| 32> C 	 -109.532 	 30.8433 	 -17.8174
| 33> H 	 -109.602 	 30.4167 	 -18.7838
| 34> H 	 -110.522 	 30.9807 	 -17.4547
| 35> C 	 -108.848 	 29.8768 	 -16.837
| 36> H 	 -107.826 	 29.6822 	 -17.1504
| 37> H 	 -109.406 	 28.9171 	 -16.8484
| 38> H 	 -108.902 	 30.2703 	 -15.8865
| 39> H 	 -107.826 	 37.9185 	 -15.0063
| 40> H 	 -111.519 	 34.2714 	 -21.2086
| 41> *
| 42>
| 43>                          ****END OF INPUT****

CARTESIAN COORDINATES (ANGSTROEM)
---------------------------------
  S    -109.445000   36.828100  -16.575900
  C    -107.923000   37.295300  -15.917800
  C    -106.890000   36.671600  -16.531600
  C    -107.324000   35.737600  -17.549100
  C    -108.666000   35.605500  -17.550200
  H    -106.842000   35.124400  -18.292100
  C    -105.436000   36.920900  -16.326800
  H    -105.279000   37.220400  -15.203800
  H    -105.122000   37.751800  -16.948600
  C    -104.478000   35.744400  -16.473200
  H    -104.704000   34.908600  -15.815000
  H    -104.582000   35.273700  -17.400000
  C    -103.041000   36.173800  -16.244300
  H    -102.749000   36.781400  -17.038800
  H    -102.933000   36.674800  -15.322400
  H    -102.329000   35.336600  -16.337400
  S    -110.095000   35.770600  -19.773800
  C    -110.782000   34.247000  -20.390200
  C    -110.245000   33.112700  -19.883500
  C    -109.485000   33.402400  -18.728000
  C    -109.397000   34.812700  -18.455100
  H    -110.472000   32.146900  -20.254400
  C    -108.941000   32.270200  -17.829900
  H    -108.952000   32.638900  -16.888700
  H    -107.888000   32.125700  -17.916200
  C    -109.532000   30.843300  -17.817400
  H    -109.602000   30.416700  -18.783800
  H    -110.522000   30.980700  -17.454700
  C    -108.848000   29.876800  -16.837000
  H    -107.826000   29.682200  -17.150400
  H    -109.406000   28.917100  -16.848400
  H    -108.902000   30.270300  -15.886500
  H    -107.826000   37.918500  -15.006300
  H    -111.519000   34.271400  -21.208600

 Total Charge           Charge          ....    0
 Multiplicity           Mult            ....    1
 Number of Electrons    NEL             ....  134
 Basis Dimension        Dim             ....  322

ORBITAL ENERGIES
----------------

  NO   OCC          E(Eh)            E(eV)
   0   2.0000     -88.963772     -2420.8273
   1   2.0000     -88.960293     -2420.7326
   2   2.0000     -10.323032      -280.9040
   3   2.0000     -10.316261      -280.7197
   4   2.0000     -10.316179      -280.7175
   5   2.0000     -10.311338      -280.5858
   6   2.0000     -10.310535      -280.5639
   7   2.0000     -10.298303      -280.2311
   8   2.0000     -10.295139      -280.1450
   9   2.0000     -10.288839      -279.9735
  10   2.0000     -10.288550      -279.9657
  11   2.0000     -10.281091      -279.7627
  12   2.0000     -10.280202      -279.7385
  13   2.0000     -10.277648      -279.6690
  14   2.0000     -10.276501      -279.6378
  15   2.0000     -10.269360      -279.4435
  16   2.0000      -8.078065      -219.8153
  17   2.0000      -8.076106      -219.7620
  18   2.0000      -6.036432      -164.2597
  19   2.0000      -6.034566      -164.2089
  20   2.0000      -6.032962      -164.1652
  21   2.0000      -6.030573      -164.1002
  22   2.0000      -6.028662      -164.0482
  23   2.0000      -6.026740      -163.9959
  24   2.0000      -1.011405       -27.5217
  25   2.0000      -0.982113       -26.7246
  26   2.0000      -0.916508       -24.9395
  27   2.0000      -0.908884       -24.7320
  28   2.0000      -0.879967       -23.9451
  29   2.0000      -0.852372       -23.1942
  30   2.0000      -0.849105       -23.1053
  31   2.0000      -0.817239       -22.2382
  32   2.0000      -0.783467       -21.3192
  33   2.0000      -0.769004       -20.9257
  34   2.0000      -0.715024       -19.4568
  35   2.0000      -0.705405       -19.1950
  36   2.0000      -0.693242       -18.8641
  37   2.0000      -0.655812       -17.8456
  38   2.0000      -0.648376       -17.6432
  39   2.0000      -0.616594       -16.7784
  40   2.0000      -0.600448       -16.3390
  41   2.0000      -0.574020       -15.6199
  42   2.0000      -0.572125       -15.5683
  43   2.0000      -0.564956       -15.3732
  44   2.0000      -0.527751       -14.3608
  45   2.0000      -0.525733       -14.3059
  46   2.0000      -0.519183       -14.1277
  47   2.0000      -0.507513       -13.8101
  48   2.0000      -0.504974       -13.7410
  49   2.0000      -0.496067       -13.4987
  50   2.0000      -0.491540       -13.3755
  51   2.0000      -0.479715       -13.0537
  52   2.0000      -0.474452       -12.9105
  53   2.0000      -0.469500       -12.7758
  54   2.0000      -0.459331       -12.4990
  55   2.0000      -0.454550       -12.3689
  56   2.0000      -0.448140       -12.1945
  57   2.0000      -0.433394       -11.7933
  58   2.0000      -0.430944       -11.7266
  59   2.0000      -0.428166       -11.6510
  60   2.0000      -0.423891       -11.5347
  61   2.0000      -0.420654       -11.4466
  62   2.0000      -0.414893       -11.2898
  63   2.0000      -0.344000        -9.3607
  64   2.0000      -0.327444        -8.9102
  65   2.0000      -0.322979        -8.7887
  66   2.0000      -0.293581        -7.9887
  67   0.0000       0.032283         0.8785
  68   0.0000       0.062182         1.6921
  69   0.0000       0.105061         2.8589
  70   0.0000       0.126752         3.4491
  71   0.0000       0.137634         3.7452

MULLIKEN ATOMIC CHARGES
-----------------------
   0 S :    0.107056
   1 C :   -0.129800
   2 C :   -0.034582
   3 C :    0.034485
   4 C :   -0.183523
   5 H :    0.016614
   6 C :    0.017877
   7 H :    0.031652
   8 H :    0.045861
   9 C :   -0.070034
  10 H :    0.022696
  11 H :    0.008370
  12 C :    0.000412
  13 H :    0.010692
  14 H :    0.023093
  15 H :    0.028309
  16 S :    0.100191
  17 C :   -0.085409
  18 C :   -0.018134
  19 C :   -0.010423
  20 C :   -0.181233
  21 H :    0.007633
  22 C :    0.115666
  23 H :   -0.010964
  24 H :    0.007004
  25 C :   -0.078606
  26 H :    0.025032
  27 H :    0.021035
  28 C :   -0.029974
  29 H :    0.032783
  30 H :    0.039066
  31 H :    0.021300
  32 H :    0.059809
  33 H :    0.056045
Sum of atomic charges:    0.0000000

LOEWDIN ATOMIC CHARGES
----------------------
   0 S :    0.406648
   1 C :   -0.204516
   2 C :   -0.067614
   3 C :   -0.054653
   4 C :   -0.208300
   5 H :    0.035555
   6 C :   -0.036150
   7 H :    0.039845
   8 H :    0.033967
   9 C :   -0.042406
  10 H :    0.024782
  11 H :    0.011733
  12 C :   -0.052929
  13 H :    0.017348
  14 H :    0.019200
  15 H :    0.030738
  16 S :    0.385241
  17 C :   -0.164311
  18 C :   -0.069412
  19 C :   -0.039099
  20 C :   -0.198800
  21 H :    0.029653
  22 C :   -0.031703
  23 H :    0.019372
  24 H :    0.027290
  25 C :   -0.033551
  26 H :    0.014382
  27 H :    0.021195
  28 C :   -0.050689
  29 H :    0.023994
  30 H :    0.034833
  31 H :    0.015112
  32 H :    0.037082
  33 H :    0.026163

  Mayer bond orders larger than 0.100000
B(  0-S ,  1-C ) :   1.1260 B(  0-S ,  4-C ) :   1.1375 B(  1-C ,  2-C ) :   1.6497
B(  1-C , 32-H ) :   0.9645 B(  2-C ,  3-C ) :   1.1736 B(  2-C ,  6-C ) :   1.0229
B(  3-C ,  4-C ) :   1.6243 B(  3-C ,  5-H ) :   0.9943 B(  4-C , 20-C ) :   1.0448
B(  6-C ,  7-H ) :   0.9445 B(  6-C ,  8-H ) :   0.9381 B(  6-C ,  9-C ) :   1.0653
B(  9-C , 10-H ) :   0.9553 B(  9-C , 11-H ) :   0.9442 B(  9-C , 12-C ) :   1.0937
B( 12-C , 13-H ) :   0.9723 B( 12-C , 14-H ) :   0.9744 B( 12-C , 15-H ) :   0.9698
B( 16-S , 17-C ) :   1.1447 B( 16-S , 20-C ) :   1.1453 B( 17-C , 18-C ) :   1.6191
B( 17-C , 20-C ) :   0.1092 B( 17-C , 33-H ) :   0.9629 B( 18-C , 19-C ) :   1.2393
B( 18-C , 21-H ) :   0.9963 B( 19-C , 20-C ) :   1.5869 B( 19-C , 22-C ) :   1.0270
B( 22-C , 23-H ) :   0.9237 B( 22-C , 24-H ) :   0.9215 B( 22-C , 25-C ) :   1.0678
B( 25-C , 26-H ) :   0.9521 B( 25-C , 27-H ) :   0.9545 B( 25-C , 28-C ) :   1.0928
B( 28-C , 29-H ) :   0.9756 B( 28-C , 30-H ) :   0.9723 B( 28-C , 31-H ) :   0.9769

Dispersion correction           -0.013244346
FINAL SINGLE POINT ENERGY     -1339.847952633588

DIPOLE MOMENT
-------------
                                X             Y             Z
Electronic contribution:    -20.84544      18.07952      -8.72017
Nuclear contribution   :     21.31416     -18.55975       8.74990
                        -----------------------------------------
Total Dipole Moment    :      0.46872      -0.48023       0.02973
                        -----------------------------------------
Magnitude (a.u.)       :      0.67171
Magnitude (Debye)      :      1.70736

Rotational constants in cm-1:     0.015790     0.008460     0.006494
Rotational constants in MHz :   473.380665   253.627724   194.681450

                             ****ORCA TERMINATED NORMALLY****
TOTAL RUN TIME: 0 days 0 hours 0 minutes 21 seconds 74 msec
