                         Program Version 4.2.1 -  RELEASE  -
|  1> ! wB97X-D3 SP def2-SVP
|  2> %pal
|  3> nprocs 24
|  4> end
|  5>
|  6> * xyz 0 1
|  7> S 	 -61.1206 	 9.73634 	 -94.166
|  8> C 	 -59.9688 	 10.9663 	 -93.5888
|  9> C 	 -60.6848 	 11.822 	 -92.704
| 10> C 	 -62.1122 	 11.5455 	 -92.6346
| 11> C 	 -62.4908 	 10.4768 	 -93.4134
| 12> H 	 -62.7784 	 12.162 	 -92.0525
| 13> C 	 -60.0605 	 12.8816 	 -91.8362
| 14> H 	 -60.8633 	 13.6639 	 -91.6142
| 15> H 	 -59.3755 	 13.4375 	 -92.5055
| 16> C 	 -59.4264 	 12.3465 	 -90.5437
| 17> H 	 -58.594 	 11.6763 	 -90.8209
| 18> H 	 -58.9568 	 13.1889 	 -89.9139
| 19> C 	 -60.3638 	 11.4978 	 -89.6417
| 20> H 	 -59.9598 	 11.2361 	 -88.6659
| 21> H 	 -61.2676 	 11.903 	 -89.5822
| 22> H 	 -60.4149 	 10.4693 	 -90.1019
| 23> S 	 -64.2895 	 10.0757 	 -95.3564
| 24> C 	 -65.9804 	 9.88572 	 -95.0727
| 25> C 	 -66.191 	 9.51968 	 -93.7837
| 26> C 	 -64.981 	 9.78154 	 -92.9729
| 27> C 	 -63.8521 	 10.0421 	 -93.7271
| 28> H 	 -67.1535 	 9.17885 	 -93.4099
| 29> C 	 -65.052 	 9.42137 	 -91.5728
| 30> H 	 -64.0446 	 9.6751 	 -91.2956
| 31> H 	 -65.2537 	 8.34162 	 -91.3002
| 32> C 	 -65.7125 	 10.4135 	 -90.6288
| 33> H 	 -66.7564 	 10.5763 	 -90.7732
| 34> H 	 -65.2824 	 11.4541 	 -90.7716
| 35> C 	 -65.4406 	 10.0376 	 -89.1519
| 36> H 	 -65.7507 	 9.02866 	 -88.8128
| 37> H 	 -65.9277 	 10.7794 	 -88.5324
| 38> H 	 -64.3606 	 10.0751 	 -88.9619
| 39> H 	 -58.8747 	 10.9692 	 -93.6404
| 40> H 	 -66.6584 	 9.78936 	 -95.8804
| 41> *
| 42>
| 43>                          ****END OF INPUT****

CARTESIAN COORDINATES (ANGSTROEM)
---------------------------------
  S    -61.120600    9.736340  -94.166000
  C    -59.968800   10.966300  -93.588800
  C    -60.684800   11.822000  -92.704000
  C    -62.112200   11.545500  -92.634600
  C    -62.490800   10.476800  -93.413400
  H    -62.778400   12.162000  -92.052500
  C    -60.060500   12.881600  -91.836200
  H    -60.863300   13.663900  -91.614200
  H    -59.375500   13.437500  -92.505500
  C    -59.426400   12.346500  -90.543700
  H    -58.594000   11.676300  -90.820900
  H    -58.956800   13.188900  -89.913900
  C    -60.363800   11.497800  -89.641700
  H    -59.959800   11.236100  -88.665900
  H    -61.267600   11.903000  -89.582200
  H    -60.414900   10.469300  -90.101900
  S    -64.289500   10.075700  -95.356400
  C    -65.980400    9.885720  -95.072700
  C    -66.191000    9.519680  -93.783700
  C    -64.981000    9.781540  -92.972900
  C    -63.852100   10.042100  -93.727100
  H    -67.153500    9.178850  -93.409900
  C    -65.052000    9.421370  -91.572800
  H    -64.044600    9.675100  -91.295600
  H    -65.253700    8.341620  -91.300200
  C    -65.712500   10.413500  -90.628800
  H    -66.756400   10.576300  -90.773200
  H    -65.282400   11.454100  -90.771600
  C    -65.440600   10.037600  -89.151900
  H    -65.750700    9.028660  -88.812800
  H    -65.927700   10.779400  -88.532400
  H    -64.360600   10.075100  -88.961900
  H    -58.874700   10.969200  -93.640400
  H    -66.658400    9.789360  -95.880400

 Total Charge           Charge          ....    0
 Multiplicity           Mult            ....    1
 Number of Electrons    NEL             ....  134
 Basis Dimension        Dim             ....  322

ORBITAL ENERGIES
----------------

  NO   OCC          E(Eh)            E(eV)
   0   2.0000     -88.970078     -2420.9989
   1   2.0000     -88.959065     -2420.6992
   2   2.0000     -10.334754      -281.2230
   3   2.0000     -10.325262      -280.9647
   4   2.0000     -10.323624      -280.9201
   5   2.0000     -10.311694      -280.5954
   6   2.0000     -10.307789      -280.4892
   7   2.0000     -10.300877      -280.3011
   8   2.0000     -10.300107      -280.2801
   9   2.0000     -10.297500      -280.2092
  10   2.0000     -10.297266      -280.2029
  11   2.0000     -10.294489      -280.1273
  12   2.0000     -10.287266      -279.9307
  13   2.0000     -10.283095      -279.8172
  14   2.0000     -10.278785      -279.7000
  15   2.0000     -10.271843      -279.5111
  16   2.0000      -8.084357      -219.9865
  17   2.0000      -8.076067      -219.7609
  18   2.0000      -6.043025      -164.4391
  19   2.0000      -6.038810      -164.3244
  20   2.0000      -6.035067      -164.2225
  21   2.0000      -6.034587      -164.2095
  22   2.0000      -6.030159      -164.0890
  23   2.0000      -6.026727      -163.9956
  24   2.0000      -1.015693       -27.6384
  25   2.0000      -0.986352       -26.8400
  26   2.0000      -0.916480       -24.9387
  27   2.0000      -0.911043       -24.7907
  28   2.0000      -0.871516       -23.7152
  29   2.0000      -0.850316       -23.1383
  30   2.0000      -0.843288       -22.9470
  31   2.0000      -0.821106       -22.3434
  32   2.0000      -0.781842       -21.2750
  33   2.0000      -0.769593       -20.9417
  34   2.0000      -0.704880       -19.1808
  35   2.0000      -0.702304       -19.1107
  36   2.0000      -0.695199       -18.9173
  37   2.0000      -0.664916       -18.0933
  38   2.0000      -0.636873       -17.3302
  39   2.0000      -0.618733       -16.8366
  40   2.0000      -0.601315       -16.3626
  41   2.0000      -0.573259       -15.5992
  42   2.0000      -0.565908       -15.3991
  43   2.0000      -0.554978       -15.1017
  44   2.0000      -0.542161       -14.7529
  45   2.0000      -0.528299       -14.3758
  46   2.0000      -0.519620       -14.1396
  47   2.0000      -0.514111       -13.9897
  48   2.0000      -0.510310       -13.8862
  49   2.0000      -0.502229       -13.6663
  50   2.0000      -0.490352       -13.3432
  51   2.0000      -0.474534       -12.9127
  52   2.0000      -0.470176       -12.7941
  53   2.0000      -0.468441       -12.7469
  54   2.0000      -0.457476       -12.4485
  55   2.0000      -0.451334       -12.2814
  56   2.0000      -0.444779       -12.1031
  57   2.0000      -0.436477       -11.8772
  58   2.0000      -0.432193       -11.7606
  59   2.0000      -0.420315       -11.4374
  60   2.0000      -0.415849       -11.3158
  61   2.0000      -0.409215       -11.1353
  62   2.0000      -0.403104       -10.9690
  63   2.0000      -0.352874        -9.6022
  64   2.0000      -0.329417        -8.9639
  65   2.0000      -0.321565        -8.7502
  66   2.0000      -0.299727        -8.1560
  67   0.0000       0.032600         0.8871
  68   0.0000       0.067742         1.8433
  69   0.0000       0.104448         2.8422
  70   0.0000       0.114378         3.1124
  71   0.0000       0.122793         3.3414

MULLIKEN ATOMIC CHARGES
-----------------------
   0 S :    0.110994
   1 C :   -0.112839
   2 C :   -0.142389
   3 C :    0.054798
   4 C :   -0.140704
   5 H :    0.007555
   6 C :    0.029678
   7 H :    0.033674
   8 H :    0.038925
   9 C :   -0.087033
  10 H :    0.026421
  11 H :    0.045114
  12 C :   -0.020682
  13 H :    0.032531
  14 H :    0.004850
  15 H :    0.042733
  16 S :    0.099838
  17 C :   -0.070209
  18 C :   -0.013098
  19 C :   -0.076676
  20 C :   -0.098678
  21 H :    0.025941
  22 C :    0.046653
  23 H :    0.000633
  24 H :    0.056889
  25 C :   -0.092381
  26 H :    0.017427
  27 H :    0.029053
  28 C :   -0.051712
  29 H :    0.032170
  30 H :    0.032732
  31 H :    0.028439
  32 H :    0.061495
  33 H :    0.047858
Sum of atomic charges:   -0.0000000

LOEWDIN ATOMIC CHARGES
----------------------
   0 S :    0.409846
   1 C :   -0.203144
   2 C :   -0.057666
   3 C :   -0.063923
   4 C :   -0.196416
   5 H :    0.028701
   6 C :   -0.045756
   7 H :    0.035015
   8 H :    0.036577
   9 C :   -0.043733
  10 H :    0.023489
  11 H :    0.030572
  12 C :   -0.058063
  13 H :    0.029261
  14 H :    0.000069
  15 H :    0.037688
  16 S :    0.439821
  17 C :   -0.182021
  18 C :   -0.062581
  19 C :   -0.062431
  20 C :   -0.218534
  21 H :    0.032934
  22 C :   -0.050607
  23 H :    0.031873
  24 H :    0.042939
  25 C :   -0.038748
  26 H :    0.009883
  27 H :    0.029747
  28 C :   -0.066302
  29 H :    0.024889
  30 H :    0.024924
  31 H :    0.024183
  32 H :    0.035902
  33 H :    0.021611

  Mayer bond orders larger than 0.100000
B(  0-S ,  1-C ) :   1.1236 B(  0-S ,  4-C ) :   1.1679 B(  1-C ,  2-C ) :   1.5955
B(  1-C , 32-H ) :   0.9687 B(  2-C ,  3-C ) :   1.2499 B(  2-C ,  6-C ) :   1.0210
B(  3-C ,  4-C ) :   1.5582 B(  3-C ,  5-H ) :   0.9945 B(  4-C , 20-C ) :   0.9929
B(  6-C ,  7-H ) :   0.9442 B(  6-C ,  8-H ) :   0.9429 B(  6-C ,  9-C ) :   1.0601
B(  9-C , 10-H ) :   0.9592 B(  9-C , 11-H ) :   0.9586 B(  9-C , 12-C ) :   1.0732
B( 12-C , 13-H ) :   0.9729 B( 12-C , 14-H ) :   0.9799 B( 12-C , 15-H ) :   0.9699
B( 16-S , 17-C ) :   1.1669 B( 16-S , 20-C ) :   1.1521 B( 17-C , 18-C ) :   1.5994
B( 17-C , 33-H ) :   0.9726 B( 18-C , 19-C ) :   1.2126 B( 18-C , 21-H ) :   0.9929
B( 19-C , 20-C ) :   1.5942 B( 19-C , 22-C ) :   1.0707 B( 22-C , 23-H ) :   0.9265
B( 22-C , 24-H ) :   0.9450 B( 22-C , 25-C ) :   1.0404 B( 25-C , 26-H ) :   0.9572
B( 25-C , 27-H ) :   0.9531 B( 25-C , 28-C ) :   1.0814 B( 28-C , 29-H ) :   0.9746
B( 28-C , 30-H ) :   0.9742 B( 28-C , 31-H ) :   0.9757

Dispersion correction           -0.014837950
FINAL SINGLE POINT ENERGY     -1339.857396091235

DIPOLE MOMENT
-------------
                                X             Y             Z
Electronic contribution:     -0.57243      -7.01082     -29.26045
Nuclear contribution   :      0.47097       7.14718      29.81447
                        -----------------------------------------
Total Dipole Moment    :     -0.10146       0.13636       0.55402
                        -----------------------------------------
Magnitude (a.u.)       :      0.57951
Magnitude (Debye)      :      1.47299

Rotational constants in cm-1:     0.017393     0.010082     0.006939
Rotational constants in MHz :   521.423572   302.243328   208.020854

                             ****ORCA TERMINATED NORMALLY****
TOTAL RUN TIME: 0 days 0 hours 0 minutes 22 seconds 187 msec
