                         Program Version 4.2.1 -  RELEASE  -
|  1> ! wB97X-D3 SP def2-SVP
|  2> %pal
|  3> nprocs 24
|  4> end
|  5>
|  6> * xyz 0 1
|  7> S 	 -106.107 	 65.549 	 -11.913
|  8> C 	 -104.995 	 66.9016 	 -12.1188
|  9> C 	 -103.925 	 66.8479 	 -11.2852
| 10> C 	 -104.059 	 65.7704 	 -10.3359
| 11> C 	 -105.127 	 64.9456 	 -10.6129
| 12> H 	 -103.395 	 65.5086 	 -9.52429
| 13> C 	 -102.686 	 67.801 	 -11.2706
| 14> H 	 -101.86 	 67.2993 	 -10.8555
| 15> H 	 -102.969 	 68.6679 	 -10.5646
| 16> C 	 -102.262 	 68.3802 	 -12.6788
| 17> H 	 -101.968 	 67.4672 	 -13.2629
| 18> H 	 -103.015 	 68.8672 	 -13.2598
| 19> C 	 -101.095 	 69.3322 	 -12.561
| 20> H 	 -100.828 	 69.6768 	 -13.5418
| 21> H 	 -101.379 	 70.2241 	 -11.9556
| 22> H 	 -100.275 	 68.9027 	 -11.9524
| 23> S 	 -106.039 	 62.2724 	 -10.7531
| 24> C 	 -106.141 	 61.4037 	 -9.23475
| 25> C 	 -105.85 	 62.1533 	 -8.21059
| 26> C 	 -105.541 	 63.553 	 -8.51333
| 27> C 	 -105.549 	 63.7515 	 -9.90109
| 28> H 	 -105.917 	 61.6331 	 -7.23961
| 29> C 	 -105.257 	 64.5947 	 -7.43559
| 30> H 	 -105.053 	 65.5666 	 -7.93134
| 31> H 	 -104.296 	 64.3788 	 -6.92447
| 32> C 	 -106.241 	 64.7404 	 -6.26452
| 33> H 	 -105.771 	 65.3118 	 -5.45322
| 34> H 	 -106.467 	 63.8334 	 -5.79619
| 35> C 	 -107.537 	 65.3756 	 -6.68424
| 36> H 	 -107.439 	 66.4216 	 -6.86866
| 37> H 	 -108.155 	 65.1019 	 -5.80384
| 38> H 	 -107.889 	 64.8787 	 -7.58495
| 39> H 	 -105.127 	 67.6378 	 -12.9438
| 40> H 	 -106.596 	 60.4498 	 -9.30829
| 41> *
| 42>
| 43>                          ****END OF INPUT****

CARTESIAN COORDINATES (ANGSTROEM)
---------------------------------
  S    -106.107000   65.549000  -11.913000
  C    -104.995000   66.901600  -12.118800
  C    -103.925000   66.847900  -11.285200
  C    -104.059000   65.770400  -10.335900
  C    -105.127000   64.945600  -10.612900
  H    -103.395000   65.508600   -9.524290
  C    -102.686000   67.801000  -11.270600
  H    -101.860000   67.299300  -10.855500
  H    -102.969000   68.667900  -10.564600
  C    -102.262000   68.380200  -12.678800
  H    -101.968000   67.467200  -13.262900
  H    -103.015000   68.867200  -13.259800
  C    -101.095000   69.332200  -12.561000
  H    -100.828000   69.676800  -13.541800
  H    -101.379000   70.224100  -11.955600
  H    -100.275000   68.902700  -11.952400
  S    -106.039000   62.272400  -10.753100
  C    -106.141000   61.403700   -9.234750
  C    -105.850000   62.153300   -8.210590
  C    -105.541000   63.553000   -8.513330
  C    -105.549000   63.751500   -9.901090
  H    -105.917000   61.633100   -7.239610
  C    -105.257000   64.594700   -7.435590
  H    -105.053000   65.566600   -7.931340
  H    -104.296000   64.378800   -6.924470
  C    -106.241000   64.740400   -6.264520
  H    -105.771000   65.311800   -5.453220
  H    -106.467000   63.833400   -5.796190
  C    -107.537000   65.375600   -6.684240
  H    -107.439000   66.421600   -6.868660
  H    -108.155000   65.101900   -5.803840
  H    -107.889000   64.878700   -7.584950
  H    -105.127000   67.637800  -12.943800
  H    -106.596000   60.449800   -9.308290

 Total Charge           Charge          ....    0
 Multiplicity           Mult            ....    1
 Number of Electrons    NEL             ....  134
 Basis Dimension        Dim             ....  322

ORBITAL ENERGIES
----------------

  NO   OCC          E(Eh)            E(eV)
   0   2.0000     -88.964107     -2420.8364
   1   2.0000     -88.958665     -2420.6883
   2   2.0000     -10.329061      -281.0680
   3   2.0000     -10.326439      -280.9967
   4   2.0000     -10.314193      -280.6635
   5   2.0000     -10.310119      -280.5526
   6   2.0000     -10.308261      -280.5021
   7   2.0000     -10.304516      -280.4001
   8   2.0000     -10.303646      -280.3765
   9   2.0000     -10.294623      -280.1309
  10   2.0000     -10.293350      -280.0963
  11   2.0000     -10.291982      -280.0591
  12   2.0000     -10.291258      -280.0394
  13   2.0000     -10.281391      -279.7709
  14   2.0000     -10.278032      -279.6795
  15   2.0000     -10.267523      -279.3935
  16   2.0000      -8.079184      -219.8458
  17   2.0000      -8.073864      -219.7010
  18   2.0000      -6.037673      -164.2934
  19   2.0000      -6.033754      -164.1868
  20   2.0000      -6.032483      -164.1522
  21   2.0000      -6.029839      -164.0803
  22   2.0000      -6.028446      -164.0424
  23   2.0000      -6.024344      -163.9307
  24   2.0000      -1.006441       -27.3867
  25   2.0000      -0.984484       -26.7892
  26   2.0000      -0.910403       -24.7733
  27   2.0000      -0.907631       -24.6979
  28   2.0000      -0.874235       -23.7891
  29   2.0000      -0.852820       -23.2064
  30   2.0000      -0.842600       -22.9283
  31   2.0000      -0.816211       -22.2102
  32   2.0000      -0.782860       -21.3027
  33   2.0000      -0.771907       -21.0047
  34   2.0000      -0.706927       -19.2365
  35   2.0000      -0.701190       -19.0803
  36   2.0000      -0.691835       -18.8258
  37   2.0000      -0.653772       -17.7900
  38   2.0000      -0.636796       -17.3281
  39   2.0000      -0.616135       -16.7659
  40   2.0000      -0.602348       -16.3907
  41   2.0000      -0.572793       -15.5865
  42   2.0000      -0.557468       -15.1695
  43   2.0000      -0.549141       -14.9429
  44   2.0000      -0.541165       -14.7258
  45   2.0000      -0.530611       -14.4387
  46   2.0000      -0.527363       -14.3503
  47   2.0000      -0.507434       -13.8080
  48   2.0000      -0.501377       -13.6432
  49   2.0000      -0.499177       -13.5833
  50   2.0000      -0.488305       -13.2874
  51   2.0000      -0.482155       -13.1201
  52   2.0000      -0.473220       -12.8770
  53   2.0000      -0.467275       -12.7152
  54   2.0000      -0.457764       -12.4564
  55   2.0000      -0.448934       -12.2161
  56   2.0000      -0.439093       -11.9483
  57   2.0000      -0.437130       -11.8949
  58   2.0000      -0.430509       -11.7147
  59   2.0000      -0.423660       -11.5284
  60   2.0000      -0.416172       -11.3246
  61   2.0000      -0.415128       -11.2962
  62   2.0000      -0.414584       -11.2814
  63   2.0000      -0.353830        -9.6282
  64   2.0000      -0.331337        -9.0161
  65   2.0000      -0.327079        -8.9003
  66   2.0000      -0.293435        -7.9848
  67   0.0000       0.030709         0.8356
  68   0.0000       0.082247         2.2381
  69   0.0000       0.110801         3.0150
  70   0.0000       0.124288         3.3820
  71   0.0000       0.132167         3.5964

MULLIKEN ATOMIC CHARGES
-----------------------
   0 S :    0.105474
   1 C :   -0.149963
   2 C :   -0.064331
   3 C :    0.010222
   4 C :   -0.151533
   5 H :    0.016037
   6 C :    0.054953
   7 H :    0.019089
   8 H :    0.053139
   9 C :   -0.104014
  10 H :    0.042851
  11 H :    0.028995
  12 C :   -0.034115
  13 H :    0.035597
  14 H :    0.026462
  15 H :    0.030990
  16 S :    0.078423
  17 C :   -0.086530
  18 C :   -0.021594
  19 C :   -0.040682
  20 C :   -0.135064
  21 H :    0.029914
  22 C :    0.044087
  23 H :    0.024732
  24 H :    0.032470
  25 C :   -0.060835
  26 H :    0.021441
  27 H :    0.008014
  28 C :   -0.032394
  29 H :    0.031720
  30 H :    0.034155
  31 H :    0.040274
  32 H :    0.060075
  33 H :    0.051940
Sum of atomic charges:   -0.0000000

LOEWDIN ATOMIC CHARGES
----------------------
   0 S :    0.400953
   1 C :   -0.197983
   2 C :   -0.063774
   3 C :   -0.063990
   4 C :   -0.190188
   5 H :    0.031950
   6 C :   -0.025396
   7 H :    0.021966
   8 H :    0.041694
   9 C :   -0.044384
  10 H :    0.031552
  11 H :    0.018057
  12 C :   -0.065560
  13 H :    0.024958
  14 H :    0.027354
  15 H :    0.027166
  16 S :    0.371609
  17 C :   -0.168417
  18 C :   -0.076632
  19 C :   -0.052101
  20 C :   -0.191260
  21 H :    0.039896
  22 C :   -0.041307
  23 H :    0.032303
  24 H :    0.034690
  25 C :   -0.040543
  26 H :    0.026586
  27 H :    0.012963
  28 C :   -0.059737
  29 H :    0.020811
  30 H :    0.032380
  31 H :    0.027693
  32 H :    0.032995
  33 H :    0.023694

  Mayer bond orders larger than 0.100000
B(  0-S ,  1-C ) :   1.1225 B(  0-S ,  4-C ) :   1.1517 B(  1-C ,  2-C ) :   1.6549
B(  1-C , 32-H ) :   0.9618 B(  2-C ,  3-C ) :   1.2133 B(  2-C ,  6-C ) :   1.0025
B(  3-C ,  4-C ) :   1.5973 B(  3-C ,  5-H ) :   0.9942 B(  4-C , 20-C ) :   1.0401
B(  6-C ,  7-H ) :   0.9478 B(  6-C ,  8-H ) :   0.9394 B(  6-C ,  9-C ) :   1.0577
B(  9-C , 10-H ) :   0.9575 B(  9-C , 11-H ) :   0.9549 B(  9-C , 12-C ) :   1.0930
B( 12-C , 13-H ) :   0.9721 B( 12-C , 14-H ) :   0.9721 B( 12-C , 15-H ) :   0.9726
B( 16-S , 17-C ) :   1.1214 B( 16-S , 20-C ) :   1.1275 B( 17-C , 18-C ) :   1.6752
B( 17-C , 33-H ) :   0.9711 B( 18-C , 19-C ) :   1.1727 B( 18-C , 21-H ) :   0.9860
B( 19-C , 20-C ) :   1.6142 B( 19-C , 22-C ) :   1.0509 B( 22-C , 23-H ) :   0.9311
B( 22-C , 24-H ) :   0.9288 B( 22-C , 25-C ) :   1.0778 B( 25-C , 26-H ) :   0.9488
B( 25-C , 27-H ) :   0.9574 B( 25-C , 28-C ) :   1.0739 B( 28-C , 29-H ) :   0.9752
B( 28-C , 30-H ) :   0.9766 B( 28-C , 31-H ) :   0.9772

Dispersion correction           -0.013828021
FINAL SINGLE POINT ENERGY     -1339.882208744891

DIPOLE MOMENT
-------------
                                X             Y             Z
Electronic contribution:    -11.38652     -18.99622     -11.06112
Nuclear contribution   :     11.76889      19.27544      11.51956
                        -----------------------------------------
Total Dipole Moment    :      0.38237       0.27922       0.45844
                        -----------------------------------------
Magnitude (a.u.)       :      0.65904
Magnitude (Debye)      :      1.67515

Rotational constants in cm-1:     0.021760     0.007196     0.006226
Rotational constants in MHz :   652.337809   215.728473   186.658245

                             ****ORCA TERMINATED NORMALLY****
TOTAL RUN TIME: 0 days 0 hours 0 minutes 21 seconds 236 msec
