                         Program Version 4.2.1 -  RELEASE  -
|  1> ! wB97X-D3 SP def2-SVP
|  2> %pal
|  3> nprocs 24
|  4> end
|  5>
|  6> * xyz 0 1
|  7> S 	 -134.901 	 68.821 	 -62.2694
|  8> C 	 -136.083 	 69.6765 	 -63.2886
|  9> C 	 -137.083 	 70.2245 	 -62.4716
| 10> C 	 -136.86 	 69.9987 	 -61.1037
| 11> C 	 -135.686 	 69.3388 	 -60.8006
| 12> H 	 -137.51 	 70.4272 	 -60.3652
| 13> C 	 -138.262 	 70.9332 	 -63.1494
| 14> H 	 -139.159 	 70.7156 	 -62.6
| 15> H 	 -138.501 	 70.4684 	 -64.123
| 16> C 	 -138.209 	 72.4541 	 -63.3154
| 17> H 	 -137.352 	 72.7888 	 -63.9012
| 18> H 	 -139.134 	 72.7099 	 -63.8299
| 19> C 	 -138.173 	 73.3024 	 -62.0975
| 20> H 	 -137.487 	 72.8564 	 -61.3734
| 21> H 	 -137.748 	 74.2476 	 -62.3012
| 22> H 	 -139.172 	 73.3457 	 -61.6358
| 23> S 	 -134.755 	 67.3587 	 -59.1541
| 24> C 	 -134.667 	 67.6476 	 -57.4632
| 25> C 	 -134.908 	 68.9553 	 -57.1198
| 26> C 	 -135.296 	 69.7553 	 -58.2812
| 27> C 	 -135.355 	 68.959 	 -59.4253
| 28> H 	 -134.829 	 69.1339 	 -55.9994
| 29> C 	 -135.589 	 71.2775 	 -58.204
| 30> H 	 -136.645 	 71.5108 	 -58.3222
| 31> H 	 -135.044 	 71.6872 	 -59.0727
| 32> C 	 -135.095 	 71.9897 	 -56.9975
| 33> H 	 -135.043 	 73.071 	 -57.2067
| 34> H 	 -134.059 	 71.7356 	 -56.8507
| 35> C 	 -135.925 	 71.8356 	 -55.676
| 36> H 	 -136.347 	 70.874 	 -55.5792
| 37> H 	 -136.828 	 72.5652 	 -55.7025
| 38> H 	 -135.25 	 72.1859 	 -54.7867
| 39> H 	 -136.131 	 69.672 	 -64.35
| 40> H 	 -134.394 	 66.8719 	 -56.7896
| 41> *
| 42>
| 43>                          ****END OF INPUT****

CARTESIAN COORDINATES (ANGSTROEM)
---------------------------------
  S    -134.901000   68.821000  -62.269400
  C    -136.083000   69.676500  -63.288600
  C    -137.083000   70.224500  -62.471600
  C    -136.860000   69.998700  -61.103700
  C    -135.686000   69.338800  -60.800600
  H    -137.510000   70.427200  -60.365200
  C    -138.262000   70.933200  -63.149400
  H    -139.159000   70.715600  -62.600000
  H    -138.501000   70.468400  -64.123000
  C    -138.209000   72.454100  -63.315400
  H    -137.352000   72.788800  -63.901200
  H    -139.134000   72.709900  -63.829900
  C    -138.173000   73.302400  -62.097500
  H    -137.487000   72.856400  -61.373400
  H    -137.748000   74.247600  -62.301200
  H    -139.172000   73.345700  -61.635800
  S    -134.755000   67.358700  -59.154100
  C    -134.667000   67.647600  -57.463200
  C    -134.908000   68.955300  -57.119800
  C    -135.296000   69.755300  -58.281200
  C    -135.355000   68.959000  -59.425300
  H    -134.829000   69.133900  -55.999400
  C    -135.589000   71.277500  -58.204000
  H    -136.645000   71.510800  -58.322200
  H    -135.044000   71.687200  -59.072700
  C    -135.095000   71.989700  -56.997500
  H    -135.043000   73.071000  -57.206700
  H    -134.059000   71.735600  -56.850700
  C    -135.925000   71.835600  -55.676000
  H    -136.347000   70.874000  -55.579200
  H    -136.828000   72.565200  -55.702500
  H    -135.250000   72.185900  -54.786700
  H    -136.131000   69.672000  -64.350000
  H    -134.394000   66.871900  -56.789600

 Total Charge           Charge          ....    0
 Multiplicity           Mult            ....    1
 Number of Electrons    NEL             ....  134
 Basis Dimension        Dim             ....  322

ORBITAL ENERGIES
----------------

  NO   OCC          E(Eh)            E(eV)
   0   2.0000     -88.970330     -2421.0058
   1   2.0000     -88.964400     -2420.8444
   2   2.0000     -10.330413      -281.1048
   3   2.0000     -10.326962      -281.0109
   4   2.0000     -10.315504      -280.6991
   5   2.0000     -10.312017      -280.6043
   6   2.0000     -10.311193      -280.5818
   7   2.0000     -10.301434      -280.3163
   8   2.0000     -10.300999      -280.3044
   9   2.0000     -10.293694      -280.1057
  10   2.0000     -10.292851      -280.0827
  11   2.0000     -10.291874      -280.0561
  12   2.0000     -10.290302      -280.0133
  13   2.0000     -10.284685      -279.8605
  14   2.0000     -10.280775      -279.7541
  15   2.0000     -10.270475      -279.4738
  16   2.0000      -8.084247      -219.9835
  17   2.0000      -8.080383      -219.8784
  18   2.0000      -6.042830      -164.4338
  19   2.0000      -6.038753      -164.3228
  20   2.0000      -6.038688      -164.3211
  21   2.0000      -6.035096      -164.2233
  22   2.0000      -6.034820      -164.2158
  23   2.0000      -6.031185      -164.1169
  24   2.0000      -1.008515       -27.4431
  25   2.0000      -0.984891       -26.8002
  26   2.0000      -0.914286       -24.8790
  27   2.0000      -0.911260       -24.7966
  28   2.0000      -0.871412       -23.7123
  29   2.0000      -0.851339       -23.1661
  30   2.0000      -0.840687       -22.8763
  31   2.0000      -0.817422       -22.2432
  32   2.0000      -0.787210       -21.4211
  33   2.0000      -0.775258       -21.0958
  34   2.0000      -0.705339       -19.1932
  35   2.0000      -0.696769       -18.9600
  36   2.0000      -0.692190       -18.8355
  37   2.0000      -0.653457       -17.7815
  38   2.0000      -0.636907       -17.3311
  39   2.0000      -0.621893       -16.9226
  40   2.0000      -0.599795       -16.3212
  41   2.0000      -0.579180       -15.7603
  42   2.0000      -0.553307       -15.0562
  43   2.0000      -0.549253       -14.9459
  44   2.0000      -0.544490       -14.8163
  45   2.0000      -0.534404       -14.5419
  46   2.0000      -0.516179       -14.0459
  47   2.0000      -0.510592       -13.8939
  48   2.0000      -0.504687       -13.7332
  49   2.0000      -0.500909       -13.6304
  50   2.0000      -0.497297       -13.5321
  51   2.0000      -0.474106       -12.9011
  52   2.0000      -0.472883       -12.8678
  53   2.0000      -0.469258       -12.7691
  54   2.0000      -0.461085       -12.5468
  55   2.0000      -0.445749       -12.1294
  56   2.0000      -0.441673       -12.0185
  57   2.0000      -0.440150       -11.9771
  58   2.0000      -0.430365       -11.7108
  59   2.0000      -0.428489       -11.6598
  60   2.0000      -0.418264       -11.3815
  61   2.0000      -0.411209       -11.1896
  62   2.0000      -0.407732       -11.0949
  63   2.0000      -0.350897        -9.5484
  64   2.0000      -0.334906        -9.1133
  65   2.0000      -0.330388        -8.9903
  66   2.0000      -0.288981        -7.8636
  67   0.0000       0.027143         0.7386
  68   0.0000       0.073218         1.9924
  69   0.0000       0.110383         3.0037
  70   0.0000       0.123744         3.3672
  71   0.0000       0.132375         3.6021

MULLIKEN ATOMIC CHARGES
-----------------------
   0 S :    0.111356
   1 C :   -0.116267
   2 C :   -0.081198
   3 C :    0.020595
   4 C :   -0.130238
   5 H :    0.004281
   6 C :    0.066942
   7 H :    0.010302
   8 H :    0.025834
   9 C :   -0.061123
  10 H :    0.024215
  11 H :    0.026178
  12 C :   -0.033632
  13 H :    0.018618
  14 H :    0.026524
  15 H :    0.029887
  16 S :    0.113530
  17 C :   -0.093950
  18 C :   -0.067301
  19 C :   -0.050865
  20 C :   -0.154781
  21 H :    0.053269
  22 C :    0.077572
  23 H :    0.037638
  24 H :    0.044736
  25 C :   -0.082827
  26 H :    0.032202
  27 H :    0.024568
  28 C :   -0.093404
  29 H :    0.036922
  30 H :    0.039549
  31 H :    0.055945
  32 H :    0.039782
  33 H :    0.045141
Sum of atomic charges:   -0.0000000

LOEWDIN ATOMIC CHARGES
----------------------
   0 S :    0.400291
   1 C :   -0.184644
   2 C :   -0.061636
   3 C :   -0.064835
   4 C :   -0.196511
   5 H :    0.028107
   6 C :   -0.032208
   7 H :    0.026453
   8 H :    0.035281
   9 C :   -0.043875
  10 H :    0.023548
  11 H :    0.025614
  12 C :   -0.064208
  13 H :    0.023884
  14 H :    0.023405
  15 H :    0.025631
  16 S :    0.422130
  17 C :   -0.191094
  18 C :   -0.086022
  19 C :   -0.051954
  20 C :   -0.202049
  21 H :    0.049573
  22 C :   -0.034557
  23 H :    0.028863
  24 H :    0.042582
  25 C :   -0.051687
  26 H :    0.031338
  27 H :    0.021484
  28 C :   -0.074774
  29 H :    0.012755
  30 H :    0.032723
  31 H :    0.041331
  32 H :    0.023320
  33 H :    0.021743

  Mayer bond orders larger than 0.100000
B(  0-S ,  1-C ) :   1.1371 B(  0-S ,  4-C ) :   1.1553 B(  1-C ,  2-C ) :   1.5788
B(  1-C ,  4-C ) :   0.1008 B(  1-C , 32-H ) :   0.9739 B(  2-C ,  3-C ) :   1.2852
B(  2-C ,  6-C ) :   1.0167 B(  3-C ,  4-C ) :   1.5243 B(  3-C ,  5-H ) :   0.9963
B(  4-C , 20-C ) :   1.0613 B(  6-C ,  7-H ) :   0.9379 B(  6-C ,  8-H ) :   0.9420
B(  6-C ,  9-C ) :   1.0755 B(  9-C , 10-H ) :   0.9566 B(  9-C , 11-H ) :   0.9527
B(  9-C , 12-C ) :   1.0902 B( 12-C , 13-H ) :   0.9707 B( 12-C , 14-H ) :   0.9713
B( 12-C , 15-H ) :   0.9744 B( 16-S , 17-C ) :   1.1641 B( 16-S , 20-C ) :   1.1456
B( 17-C , 18-C ) :   1.6329 B( 17-C , 33-H ) :   0.9672 B( 18-C , 19-C ) :   1.2150
B( 18-C , 21-H ) :   0.9756 B( 19-C , 20-C ) :   1.6086 B( 19-C , 22-C ) :   1.0204
B( 22-C , 23-H ) :   0.9319 B( 22-C , 24-H ) :   0.9257 B( 22-C , 25-C ) :   1.1014
B( 25-C , 26-H ) :   0.9515 B( 25-C , 27-H ) :   0.9531 B( 25-C , 28-C ) :   1.0580
B( 28-C , 29-H ) :   0.9802 B( 28-C , 30-H ) :   0.9727 B( 28-C , 31-H ) :   0.9745

Dispersion correction           -0.014351444
FINAL SINGLE POINT ENERGY     -1339.877313081405

DIPOLE MOMENT
-------------
                                X             Y             Z
Electronic contribution:     13.19874     -26.12217      -6.99496
Nuclear contribution   :    -13.53863      26.60355       7.15442
                        -----------------------------------------
Total Dipole Moment    :     -0.33989       0.48138       0.15946
                        -----------------------------------------
Magnitude (a.u.)       :      0.61047
Magnitude (Debye)      :      1.55170

Rotational constants in cm-1:     0.017590     0.009323     0.006478
Rotational constants in MHz :   527.340819   279.496523   194.214003

                             ****ORCA TERMINATED NORMALLY****
TOTAL RUN TIME: 0 days 0 hours 0 minutes 21 seconds 917 msec
