                         Program Version 4.2.1 -  RELEASE  -
|  1> ! wB97X-D3 SP def2-SVP
|  2> %pal
|  3> nprocs 24
|  4> end
|  5>
|  6> * xyz 0 1
|  7> S 	 -137.408 	 15.3155 	 -2.1169
|  8> C 	 -138.261 	 14.0271 	 -1.3297
|  9> C 	 -137.561 	 13.588 	 -0.249378
| 10> C 	 -136.326 	 14.304 	 -0.0113745
| 11> C 	 -136.105 	 15.299 	 -0.98314
| 12> H 	 -135.511 	 14.0615 	 0.664616
| 13> C 	 -138.053 	 12.5703 	 0.86392
| 14> H 	 -139.173 	 12.5988 	 0.986779
| 15> H 	 -137.66 	 12.8574 	 1.83559
| 16> C 	 -137.521 	 11.0753 	 0.669284
| 17> H 	 -136.421 	 11.1088 	 0.701839
| 18> H 	 -137.858 	 10.3287 	 1.41556
| 19> C 	 -137.974 	 10.5156 	 -0.619793
| 20> H 	 -137.806 	 9.43357 	 -0.677862
| 21> H 	 -139.01 	 10.6799 	 -0.693122
| 22> H 	 -137.486 	 11.0633 	 -1.44409
| 23> S 	 -135.073 	 17.9863 	 -1.06757
| 24> C 	 -133.331 	 18.153 	 -1.20918
| 25> C 	 -132.696 	 16.9361 	 -1.43323
| 26> C 	 -133.67 	 15.8476 	 -1.50984
| 27> C 	 -134.917 	 16.203 	 -1.10574
| 28> H 	 -131.67 	 16.9601 	 -1.66279
| 29> C 	 -133.163 	 14.4144 	 -1.88383
| 30> H 	 -132.333 	 14.5732 	 -2.5398
| 31> H 	 -133.861 	 13.9021 	 -2.51859
| 32> C 	 -132.613 	 13.5517 	 -0.698376
| 33> H 	 -133.459 	 13.1968 	 -0.0725227
| 34> H 	 -132.007 	 14.1577 	 -0.0733446
| 35> C 	 -131.782 	 12.3524 	 -1.0348
| 36> H 	 -131.205 	 11.9561 	 -0.204988
| 37> H 	 -131.167 	 12.7419 	 -1.85863
| 38> H 	 -132.441 	 11.6512 	 -1.3572
| 39> H 	 -139.28 	 13.7532 	 -1.63889
| 40> H 	 -132.785 	 19.0786 	 -1.33207
| 41> *
| 42>
| 43>                          ****END OF INPUT****

CARTESIAN COORDINATES (ANGSTROEM)
---------------------------------
  S    -137.408000   15.315500   -2.116900
  C    -138.261000   14.027100   -1.329700
  C    -137.561000   13.588000   -0.249378
  C    -136.326000   14.304000   -0.011374
  C    -136.105000   15.299000   -0.983140
  H    -135.511000   14.061500    0.664616
  C    -138.053000   12.570300    0.863920
  H    -139.173000   12.598800    0.986779
  H    -137.660000   12.857400    1.835590
  C    -137.521000   11.075300    0.669284
  H    -136.421000   11.108800    0.701839
  H    -137.858000   10.328700    1.415560
  C    -137.974000   10.515600   -0.619793
  H    -137.806000    9.433570   -0.677862
  H    -139.010000   10.679900   -0.693122
  H    -137.486000   11.063300   -1.444090
  S    -135.073000   17.986300   -1.067570
  C    -133.331000   18.153000   -1.209180
  C    -132.696000   16.936100   -1.433230
  C    -133.670000   15.847600   -1.509840
  C    -134.917000   16.203000   -1.105740
  H    -131.670000   16.960100   -1.662790
  C    -133.163000   14.414400   -1.883830
  H    -132.333000   14.573200   -2.539800
  H    -133.861000   13.902100   -2.518590
  C    -132.613000   13.551700   -0.698376
  H    -133.459000   13.196800   -0.072523
  H    -132.007000   14.157700   -0.073345
  C    -131.782000   12.352400   -1.034800
  H    -131.205000   11.956100   -0.204988
  H    -131.167000   12.741900   -1.858630
  H    -132.441000   11.651200   -1.357200
  H    -139.280000   13.753200   -1.638890
  H    -132.785000   19.078600   -1.332070

 Total Charge           Charge          ....    0
 Multiplicity           Mult            ....    1
 Number of Electrons    NEL             ....  134
 Basis Dimension        Dim             ....  322

ORBITAL ENERGIES
----------------

  NO   OCC          E(Eh)            E(eV)
   0   2.0000     -88.967216     -2420.9210
   1   2.0000     -88.966310     -2420.8964
   2   2.0000     -10.333764      -281.1960
   3   2.0000     -10.330590      -281.1096
   4   2.0000     -10.321250      -280.8555
   5   2.0000     -10.317388      -280.7504
   6   2.0000     -10.310176      -280.5541
   7   2.0000     -10.308973      -280.5214
   8   2.0000     -10.303031      -280.3597
   9   2.0000     -10.299514      -280.2640
  10   2.0000     -10.295719      -280.1608
  11   2.0000     -10.294285      -280.1217
  12   2.0000     -10.286809      -279.9183
  13   2.0000     -10.282263      -279.7946
  14   2.0000     -10.268618      -279.4233
  15   2.0000     -10.265573      -279.3404
  16   2.0000      -8.081754      -219.9157
  17   2.0000      -8.081272      -219.9026
  18   2.0000      -6.040198      -164.3621
  19   2.0000      -6.039925      -164.3547
  20   2.0000      -6.036058      -164.2495
  21   2.0000      -6.035947      -164.2465
  22   2.0000      -6.032753      -164.1596
  23   2.0000      -6.031727      -164.1316
  24   2.0000      -1.004819       -27.3425
  25   2.0000      -0.983703       -26.7679
  26   2.0000      -0.908455       -24.7203
  27   2.0000      -0.905086       -24.6286
  28   2.0000      -0.868496       -23.6330
  29   2.0000      -0.852951       -23.2100
  30   2.0000      -0.845866       -23.0172
  31   2.0000      -0.814651       -22.1678
  32   2.0000      -0.782835       -21.3020
  33   2.0000      -0.774246       -21.0683
  34   2.0000      -0.701278       -19.0828
  35   2.0000      -0.693559       -18.8727
  36   2.0000      -0.686819       -18.6893
  37   2.0000      -0.661412       -17.9979
  38   2.0000      -0.645903       -17.5759
  39   2.0000      -0.614317       -16.7164
  40   2.0000      -0.592825       -16.1316
  41   2.0000      -0.573182       -15.5971
  42   2.0000      -0.569294       -15.4913
  43   2.0000      -0.549743       -14.9593
  44   2.0000      -0.543968       -14.8021
  45   2.0000      -0.531984       -14.4760
  46   2.0000      -0.517716       -14.0878
  47   2.0000      -0.515098       -14.0165
  48   2.0000      -0.505200       -13.7472
  49   2.0000      -0.502530       -13.6745
  50   2.0000      -0.486837       -13.2475
  51   2.0000      -0.475818       -12.9477
  52   2.0000      -0.473538       -12.8856
  53   2.0000      -0.465083       -12.6555
  54   2.0000      -0.456949       -12.4342
  55   2.0000      -0.449692       -12.2367
  56   2.0000      -0.441205       -12.0058
  57   2.0000      -0.433676       -11.8009
  58   2.0000      -0.427525       -11.6335
  59   2.0000      -0.422116       -11.4864
  60   2.0000      -0.420305       -11.4371
  61   2.0000      -0.414931       -11.2908
  62   2.0000      -0.413533       -11.2528
  63   2.0000      -0.337082        -9.1725
  64   2.0000      -0.333279        -9.0690
  65   2.0000      -0.329043        -8.9537
  66   2.0000      -0.309680        -8.4268
  67   0.0000       0.035767         0.9733
  68   0.0000       0.062456         1.6995
  69   0.0000       0.110354         3.0029
  70   0.0000       0.116981         3.1832
  71   0.0000       0.128135         3.4867

MULLIKEN ATOMIC CHARGES
-----------------------
   0 S :    0.115121
   1 C :   -0.140046
   2 C :   -0.065809
   3 C :    0.037700
   4 C :   -0.173905
   5 H :    0.024858
   6 C :    0.027683
   7 H :    0.041059
   8 H :    0.028545
   9 C :   -0.090109
  10 H :    0.025970
  11 H :    0.035208
  12 C :   -0.034436
  13 H :    0.033192
  14 H :    0.008379
  15 H :    0.041305
  16 S :    0.104309
  17 C :   -0.088354
  18 C :   -0.017816
  19 C :   -0.040057
  20 C :   -0.163732
  21 H :    0.008796
  22 C :    0.101766
  23 H :    0.000349
  24 H :    0.027073
  25 C :   -0.083583
  26 H :    0.021814
  27 H :    0.014666
  28 C :    0.000610
  29 H :    0.041212
  30 H :    0.024252
  31 H :    0.011402
  32 H :    0.063152
  33 H :    0.059426
Sum of atomic charges:    0.0000000

LOEWDIN ATOMIC CHARGES
----------------------
   0 S :    0.423154
   1 C :   -0.202941
   2 C :   -0.067014
   3 C :   -0.060088
   4 C :   -0.198086
   5 H :    0.032577
   6 C :   -0.027193
   7 H :    0.032077
   8 H :    0.027957
   9 C :   -0.045936
  10 H :    0.020838
  11 H :    0.027221
  12 C :   -0.067878
  13 H :    0.026230
  14 H :    0.014681
  15 H :    0.027724
  16 S :    0.382783
  17 C :   -0.175144
  18 C :   -0.068019
  19 C :   -0.042841
  20 C :   -0.195655
  21 H :    0.025128
  22 C :   -0.022998
  23 H :    0.023847
  24 H :    0.028137
  25 C :   -0.038323
  26 H :    0.020382
  27 H :    0.016824
  28 C :   -0.054329
  29 H :    0.030860
  30 H :    0.027715
  31 H :    0.011520
  32 H :    0.035527
  33 H :    0.031262

  Mayer bond orders larger than 0.100000
B(  0-S ,  1-C ) :   1.1462 B(  0-S ,  4-C ) :   1.1744 B(  1-C ,  2-C ) :   1.6086
B(  1-C , 32-H ) :   0.9693 B(  2-C ,  3-C ) :   1.2405 B(  2-C ,  6-C ) :   0.9997
B(  3-C ,  4-C ) :   1.5802 B(  3-C ,  5-H ) :   0.9881 B(  4-C , 20-C ) :   1.0194
B(  6-C ,  7-H ) :   0.9557 B(  6-C ,  8-H ) :   0.9521 B(  6-C ,  9-C ) :   1.0586
B(  9-C , 10-H ) :   0.9576 B(  9-C , 11-H ) :   0.9591 B(  9-C , 12-C ) :   1.0858
B( 12-C , 13-H ) :   0.9729 B( 12-C , 14-H ) :   0.9733 B( 12-C , 15-H ) :   0.9699
B( 16-S , 17-C ) :   1.1495 B( 16-S , 20-C ) :   1.1076 B( 17-C , 18-C ) :   1.6472
B( 17-C , 33-H ) :   0.9639 B( 18-C , 19-C ) :   1.2010 B( 18-C , 21-H ) :   0.9932
B( 19-C , 20-C ) :   1.6511 B( 19-C , 22-C ) :   1.0447 B( 22-C , 23-H ) :   0.9289
B( 22-C , 24-H ) :   0.9328 B( 22-C , 25-C ) :   1.0613 B( 25-C , 26-H ) :   0.9508
B( 25-C , 27-H ) :   0.9579 B( 25-C , 28-C ) :   1.0831 B( 28-C , 29-H ) :   0.9721
B( 28-C , 30-H ) :   0.9738 B( 28-C , 31-H ) :   0.9762

Dispersion correction           -0.014643308
FINAL SINGLE POINT ENERGY     -1339.867214165289

DIPOLE MOMENT
-------------
                                X             Y             Z
Electronic contribution:     -7.30082      28.99271      -6.28010
Nuclear contribution   :      7.63813     -29.44535       6.34433
                        -----------------------------------------
Total Dipole Moment    :      0.33732      -0.45263       0.06422
                        -----------------------------------------
Magnitude (a.u.)       :      0.56814
Magnitude (Debye)      :      1.44411

Rotational constants in cm-1:     0.018159     0.009165     0.006739
Rotational constants in MHz :   544.381360   274.751062   202.029939

                             ****ORCA TERMINATED NORMALLY****
TOTAL RUN TIME: 0 days 0 hours 0 minutes 21 seconds 777 msec
