                         Program Version 4.2.1 -  RELEASE  -
|  1> ! wB97X-D3 SP def2-SVP
|  2> %pal
|  3> nprocs 24
|  4> end
|  5>
|  6> * xyz 0 1
|  7> S 	 -106.425 	 20.95 	 -115.473
|  8> C 	 -104.851 	 20.2574 	 -115.266
|  9> C 	 -104.253 	 20.7837 	 -114.122
| 10> C 	 -105.145 	 21.6281 	 -113.364
| 11> C 	 -106.354 	 21.8135 	 -113.992
| 12> H 	 -104.852 	 22.1368 	 -112.453
| 13> C 	 -102.851 	 20.6293 	 -113.606
| 14> H 	 -102.697 	 21.5806 	 -113.067
| 15> H 	 -102.135 	 20.5631 	 -114.409
| 16> C 	 -102.548 	 19.4217 	 -112.747
| 17> H 	 -101.535 	 19.4547 	 -112.33
| 18> H 	 -103.269 	 19.4333 	 -111.925
| 19> C 	 -102.772 	 18.0675 	 -113.525
| 20> H 	 -101.81 	 17.6768 	 -113.94
| 21> H 	 -103.212 	 17.309 	 -112.879
| 22> H 	 -103.466 	 18.1275 	 -114.38
| 23> S 	 -108.904 	 21.7273 	 -112.996
| 24> C 	 -109.824 	 23.2277 	 -112.926
| 25> C 	 -109.04 	 24.3384 	 -113.22
| 26> C 	 -107.647 	 23.9998 	 -113.44
| 27> C 	 -107.509 	 22.6068 	 -113.566
| 28> H 	 -109.5 	 25.2906 	 -113.224
| 29> C 	 -106.605 	 25.027 	 -113.849
| 30> H 	 -105.837 	 24.578 	 -114.436
| 31> H 	 -106.329 	 25.4827 	 -112.931
| 32> C 	 -107.046 	 26.1663 	 -114.778
| 33> H 	 -107.95 	 26.6867 	 -114.321
| 34> H 	 -107.349 	 25.7566 	 -115.772
| 35> C 	 -105.992 	 27.2751 	 -114.887
| 36> H 	 -105.751 	 27.5656 	 -113.89
| 37> H 	 -106.24 	 28.1396 	 -115.497
| 38> H 	 -105.06 	 26.8413 	 -115.307
| 39> H 	 -104.475 	 19.5665 	 -116.015
| 40> H 	 -110.783 	 23.3135 	 -112.426
| 41> *
| 42>
| 43>                          ****END OF INPUT****

CARTESIAN COORDINATES (ANGSTROEM)
---------------------------------
  S    -106.425000   20.950000  -115.473000
  C    -104.851000   20.257400  -115.266000
  C    -104.253000   20.783700  -114.122000
  C    -105.145000   21.628100  -113.364000
  C    -106.354000   21.813500  -113.992000
  H    -104.852000   22.136800  -112.453000
  C    -102.851000   20.629300  -113.606000
  H    -102.697000   21.580600  -113.067000
  H    -102.135000   20.563100  -114.409000
  C    -102.548000   19.421700  -112.747000
  H    -101.535000   19.454700  -112.330000
  H    -103.269000   19.433300  -111.925000
  C    -102.772000   18.067500  -113.525000
  H    -101.810000   17.676800  -113.940000
  H    -103.212000   17.309000  -112.879000
  H    -103.466000   18.127500  -114.380000
  S    -108.904000   21.727300  -112.996000
  C    -109.824000   23.227700  -112.926000
  C    -109.040000   24.338400  -113.220000
  C    -107.647000   23.999800  -113.440000
  C    -107.509000   22.606800  -113.566000
  H    -109.500000   25.290600  -113.224000
  C    -106.605000   25.027000  -113.849000
  H    -105.837000   24.578000  -114.436000
  H    -106.329000   25.482700  -112.931000
  C    -107.046000   26.166300  -114.778000
  H    -107.950000   26.686700  -114.321000
  H    -107.349000   25.756600  -115.772000
  C    -105.992000   27.275100  -114.887000
  H    -105.751000   27.565600  -113.890000
  H    -106.240000   28.139600  -115.497000
  H    -105.060000   26.841300  -115.307000
  H    -104.475000   19.566500  -116.015000
  H    -110.783000   23.313500  -112.426000

 Total Charge           Charge          ....    0
 Multiplicity           Mult            ....    1
 Number of Electrons    NEL             ....  134
 Basis Dimension        Dim             ....  322

ORBITAL ENERGIES
----------------

  NO   OCC          E(Eh)            E(eV)
   0   2.0000     -88.965368     -2420.8707
   1   2.0000     -88.963272     -2420.8137
   2   2.0000     -10.326810      -281.0068
   3   2.0000     -10.324806      -280.9523
   4   2.0000     -10.316859      -280.7360
   5   2.0000     -10.315455      -280.6978
   6   2.0000     -10.308687      -280.5136
   7   2.0000     -10.302123      -280.3350
   8   2.0000     -10.294880      -280.1379
   9   2.0000     -10.293131      -280.0903
  10   2.0000     -10.292350      -280.0691
  11   2.0000     -10.288252      -279.9576
  12   2.0000     -10.287949      -279.9493
  13   2.0000     -10.287329      -279.9324
  14   2.0000     -10.280416      -279.7443
  15   2.0000     -10.278311      -279.6871
  16   2.0000      -8.080068      -219.8698
  17   2.0000      -8.079185      -219.8458
  18   2.0000      -6.038507      -164.3161
  19   2.0000      -6.037541      -164.2898
  20   2.0000      -6.034627      -164.2105
  21   2.0000      -6.033419      -164.1777
  22   2.0000      -6.030851      -164.1078
  23   2.0000      -6.030145      -164.0886
  24   2.0000      -1.007919       -27.4269
  25   2.0000      -0.982972       -26.7480
  26   2.0000      -0.912804       -24.8387
  27   2.0000      -0.910965       -24.7886
  28   2.0000      -0.865162       -23.5422
  29   2.0000      -0.849808       -23.1244
  30   2.0000      -0.844998       -22.9936
  31   2.0000      -0.811128       -22.0719
  32   2.0000      -0.782465       -21.2920
  33   2.0000      -0.772437       -21.0191
  34   2.0000      -0.703434       -19.1414
  35   2.0000      -0.695297       -18.9200
  36   2.0000      -0.691661       -18.8211
  37   2.0000      -0.655824       -17.8459
  38   2.0000      -0.646304       -17.5868
  39   2.0000      -0.622247       -16.9322
  40   2.0000      -0.597192       -16.2504
  41   2.0000      -0.578249       -15.7349
  42   2.0000      -0.567283       -15.4365
  43   2.0000      -0.544170       -14.8076
  44   2.0000      -0.543083       -14.7780
  45   2.0000      -0.523632       -14.2488
  46   2.0000      -0.519630       -14.1398
  47   2.0000      -0.512893       -13.9565
  48   2.0000      -0.501731       -13.6528
  49   2.0000      -0.493518       -13.4293
  50   2.0000      -0.486800       -13.2465
  51   2.0000      -0.479649       -13.0519
  52   2.0000      -0.467881       -12.7317
  53   2.0000      -0.463632       -12.6161
  54   2.0000      -0.461253       -12.5513
  55   2.0000      -0.452192       -12.3048
  56   2.0000      -0.446700       -12.1553
  57   2.0000      -0.435396       -11.8477
  58   2.0000      -0.432861       -11.7787
  59   2.0000      -0.425715       -11.5843
  60   2.0000      -0.416426       -11.3315
  61   2.0000      -0.415494       -11.3062
  62   2.0000      -0.409419       -11.1409
  63   2.0000      -0.338468        -9.2102
  64   2.0000      -0.328965        -8.9516
  65   2.0000      -0.325435        -8.8555
  66   2.0000      -0.301889        -8.2148
  67   0.0000       0.039643         1.0787
  68   0.0000       0.061426         1.6715
  69   0.0000       0.115187         3.1344
  70   0.0000       0.116537         3.1711
  71   0.0000       0.129117         3.5134

MULLIKEN ATOMIC CHARGES
-----------------------
   0 S :    0.118710
   1 C :   -0.139856
   2 C :   -0.100685
   3 C :    0.045274
   4 C :   -0.174101
   5 H :    0.013281
   6 C :    0.064032
   7 H :    0.026838
   8 H :    0.019167
   9 C :   -0.041989
  10 H :    0.040626
  11 H :    0.021816
  12 C :   -0.085186
  13 H :    0.036849
  14 H :    0.036948
  15 H :    0.024973
  16 S :    0.119421
  17 C :   -0.095511
  18 C :   -0.038867
  19 C :    0.007027
  20 C :   -0.187452
  21 H :    0.011605
  22 C :    0.102948
  23 H :    0.032750
  24 H :    0.019831
  25 C :   -0.138390
  26 H :    0.030677
  27 H :    0.043709
  28 C :   -0.022318
  29 H :    0.015034
  30 H :    0.043518
  31 H :    0.023456
  32 H :    0.063557
  33 H :    0.062308
Sum of atomic charges:    0.0000000

LOEWDIN ATOMIC CHARGES
----------------------
   0 S :    0.432359
   1 C :   -0.207672
   2 C :   -0.061837
   3 C :   -0.061934
   4 C :   -0.212164
   5 H :    0.032766
   6 C :   -0.035921
   7 H :    0.033979
   8 H :    0.026419
   9 C :   -0.036718
  10 H :    0.027674
  11 H :    0.021302
  12 C :   -0.073642
  13 H :    0.027473
  14 H :    0.027736
  15 H :    0.024396
  16 S :    0.407594
  17 C :   -0.186167
  18 C :   -0.064346
  19 C :   -0.046810
  20 C :   -0.206637
  21 H :    0.025037
  22 C :   -0.027037
  23 H :    0.031429
  24 H :    0.029828
  25 C :   -0.044260
  26 H :    0.022278
  27 H :    0.026477
  28 C :   -0.063064
  29 H :    0.019453
  30 H :    0.028409
  31 H :    0.025603
  32 H :    0.027990
  33 H :    0.030007

  Mayer bond orders larger than 0.100000
B(  0-S ,  1-C ) :   1.1496 B(  0-S ,  4-C ) :   1.1842 B(  1-C ,  2-C ) :   1.5782
B(  1-C , 32-H ) :   0.9702 B(  2-C ,  3-C ) :   1.2514 B(  2-C ,  6-C ) :   1.0222
B(  3-C ,  4-C ) :   1.5681 B(  3-C ,  5-H ) :   0.9977 B(  4-C , 20-C ) :   0.9981
B(  6-C ,  7-H ) :   0.9389 B(  6-C ,  8-H ) :   0.9408 B(  6-C ,  9-C ) :   1.0776
B(  9-C , 10-H ) :   0.9589 B(  9-C , 11-H ) :   0.9585 B(  9-C , 12-C ) :   1.0571
B( 12-C , 13-H ) :   0.9770 B( 12-C , 14-H ) :   0.9781 B( 12-C , 15-H ) :   0.9777
B( 16-S , 17-C ) :   1.1452 B( 16-S , 20-C ) :   1.1643 B( 17-C , 18-C ) :   1.6248
B( 17-C , 20-C ) :   0.1008 B( 17-C , 33-H ) :   0.9633 B( 18-C , 19-C ) :   1.2224
B( 18-C , 21-H ) :   0.9922 B( 19-C , 20-C ) :   1.5878 B( 19-C , 22-C ) :   1.0447
B( 22-C , 23-H ) :   0.9437 B( 22-C , 24-H ) :   0.9154 B( 22-C , 25-C ) :   1.0718
B( 25-C , 26-H ) :   0.9487 B( 25-C , 27-H ) :   0.9587 B( 25-C , 28-C ) :   1.0778
B( 28-C , 29-H ) :   0.9725 B( 28-C , 30-H ) :   0.9747 B( 28-C , 31-H ) :   0.9735

Dispersion correction           -0.013867734
FINAL SINGLE POINT ENERGY     -1339.883525480291

DIPOLE MOMENT
-------------
                                X             Y             Z
Electronic contribution:    -19.31713      -8.39441      -1.11033
Nuclear contribution   :     19.71667       8.79559       1.27044
                        -----------------------------------------
Total Dipole Moment    :      0.39954       0.40117       0.16010
                        -----------------------------------------
Magnitude (a.u.)       :      0.58839
Magnitude (Debye)      :      1.49557

Rotational constants in cm-1:     0.020089     0.007754     0.006431
Rotational constants in MHz :   602.257445   232.470418   192.787164

                             ****ORCA TERMINATED NORMALLY****
TOTAL RUN TIME: 0 days 0 hours 0 minutes 21 seconds 108 msec
