                         Program Version 4.2.1 -  RELEASE  -
|  1> ! wB97X-D3 SP def2-SVP
|  2> %pal
|  3> nprocs 24
|  4> end
|  5>
|  6> * xyz 0 1
|  7> S 	 -99.1817 	 13.0892 	 -119.951
|  8> C 	 -98.4447 	 12.9321 	 -118.393
|  9> C 	 -98.8217 	 13.9328 	 -117.516
| 10> C 	 -99.6316 	 14.9191 	 -118.202
| 11> C 	 -99.791 	 14.6891 	 -119.596
| 12> H 	 -99.9632 	 15.8131 	 -117.806
| 13> C 	 -98.592 	 13.8835 	 -116.05
| 14> H 	 -98.5477 	 14.9014 	 -115.691
| 15> H 	 -97.6131 	 13.4085 	 -115.915
| 16> C 	 -99.613 	 13.052 	 -115.328
| 17> H 	 -100.558 	 13.5277 	 -115.36
| 18> H 	 -99.8484 	 12.1791 	 -115.909
| 19> C 	 -99.2901 	 12.6632 	 -113.87
| 20> H 	 -100.146 	 12.1222 	 -113.569
| 21> H 	 -98.4082 	 12.0456 	 -113.806
| 22> H 	 -99.1058 	 13.5499 	 -113.289
| 23> S 	 -99.3718 	 16.4869 	 -121.588
| 24> C 	 -100.75 	 17.1199 	 -122.408
| 25> C 	 -101.944 	 16.5537 	 -122.052
| 26> C 	 -101.848 	 15.6576 	 -120.923
| 27> C 	 -100.493 	 15.4583 	 -120.62
| 28> H 	 -102.872 	 16.9298 	 -122.425
| 29> C 	 -102.922 	 14.8629 	 -120.228
| 30> H 	 -102.422 	 14.0723 	 -119.64
| 31> H 	 -103.353 	 14.4173 	 -121.075
| 32> C 	 -103.875 	 15.6881 	 -119.495
| 33> H 	 -104.6 	 15.0801 	 -119.062
| 34> H 	 -104.253 	 16.4578 	 -120.113
| 35> C 	 -103.308 	 16.3881 	 -118.272
| 36> H 	 -102.936 	 17.4293 	 -118.353
| 37> H 	 -102.672 	 15.7195 	 -117.669
| 38> H 	 -104.152 	 16.5094 	 -117.602
| 39> H 	 -97.8836 	 12.0683 	 -118.081
| 40> H 	 -100.718 	 17.7642 	 -123.199
| 41> *
| 42>
| 43>                          ****END OF INPUT****

CARTESIAN COORDINATES (ANGSTROEM)
---------------------------------
  S    -99.181700   13.089200  -119.951000
  C    -98.444700   12.932100  -118.393000
  C    -98.821700   13.932800  -117.516000
  C    -99.631600   14.919100  -118.202000
  C    -99.791000   14.689100  -119.596000
  H    -99.963200   15.813100  -117.806000
  C    -98.592000   13.883500  -116.050000
  H    -98.547700   14.901400  -115.691000
  H    -97.613100   13.408500  -115.915000
  C    -99.613000   13.052000  -115.328000
  H    -100.558000   13.527700  -115.360000
  H    -99.848400   12.179100  -115.909000
  C    -99.290100   12.663200  -113.870000
  H    -100.146000   12.122200  -113.569000
  H    -98.408200   12.045600  -113.806000
  H    -99.105800   13.549900  -113.289000
  S    -99.371800   16.486900  -121.588000
  C    -100.750000   17.119900  -122.408000
  C    -101.944000   16.553700  -122.052000
  C    -101.848000   15.657600  -120.923000
  C    -100.493000   15.458300  -120.620000
  H    -102.872000   16.929800  -122.425000
  C    -102.922000   14.862900  -120.228000
  H    -102.422000   14.072300  -119.640000
  H    -103.353000   14.417300  -121.075000
  C    -103.875000   15.688100  -119.495000
  H    -104.600000   15.080100  -119.062000
  H    -104.253000   16.457800  -120.113000
  C    -103.308000   16.388100  -118.272000
  H    -102.936000   17.429300  -118.353000
  H    -102.672000   15.719500  -117.669000
  H    -104.152000   16.509400  -117.602000
  H    -97.883600   12.068300  -118.081000
  H    -100.718000   17.764200  -123.199000

 Total Charge           Charge          ....    0
 Multiplicity           Mult            ....    1
 Number of Electrons    NEL             ....  134
 Basis Dimension        Dim             ....  322

ORBITAL ENERGIES
----------------

  NO   OCC          E(Eh)            E(eV)
   0   2.0000     -88.962845     -2420.8021
   1   2.0000     -88.962429     -2420.7908
   2   2.0000     -10.327737      -281.0320
   3   2.0000     -10.324335      -280.9394
   4   2.0000     -10.308523      -280.5092
   5   2.0000     -10.308433      -280.5067
   6   2.0000     -10.305662      -280.4313
   7   2.0000     -10.297749      -280.2160
   8   2.0000     -10.292259      -280.0666
   9   2.0000     -10.291495      -280.0458
  10   2.0000     -10.286652      -279.9140
  11   2.0000     -10.282736      -279.8075
  12   2.0000     -10.276933      -279.6496
  13   2.0000     -10.274226      -279.5759
  14   2.0000     -10.274127      -279.5732
  15   2.0000     -10.273736      -279.5626
  16   2.0000      -8.077502      -219.8000
  17   2.0000      -8.077409      -219.7975
  18   2.0000      -6.035859      -164.2441
  19   2.0000      -6.035787      -164.2421
  20   2.0000      -6.032150      -164.1431
  21   2.0000      -6.031793      -164.1334
  22   2.0000      -6.028394      -164.0409
  23   2.0000      -6.028282      -164.0379
  24   2.0000      -1.000601       -27.2277
  25   2.0000      -0.980997       -26.6943
  26   2.0000      -0.925284       -25.1783
  27   2.0000      -0.917691       -24.9716
  28   2.0000      -0.866999       -23.5922
  29   2.0000      -0.852496       -23.1976
  30   2.0000      -0.846409       -23.0320
  31   2.0000      -0.813547       -22.1377
  32   2.0000      -0.789075       -21.4718
  33   2.0000      -0.773705       -21.0536
  34   2.0000      -0.708724       -19.2854
  35   2.0000      -0.703160       -19.1339
  36   2.0000      -0.696633       -18.9563
  37   2.0000      -0.656876       -17.8745
  38   2.0000      -0.645113       -17.5544
  39   2.0000      -0.615859       -16.7584
  40   2.0000      -0.603434       -16.4203
  41   2.0000      -0.574256       -15.6263
  42   2.0000      -0.563665       -15.3381
  43   2.0000      -0.558499       -15.1975
  44   2.0000      -0.554638       -15.0925
  45   2.0000      -0.532523       -14.4907
  46   2.0000      -0.523227       -14.2377
  47   2.0000      -0.511127       -13.9085
  48   2.0000      -0.505533       -13.7562
  49   2.0000      -0.491030       -13.3616
  50   2.0000      -0.488217       -13.2851
  51   2.0000      -0.477034       -12.9808
  52   2.0000      -0.471012       -12.8169
  53   2.0000      -0.465588       -12.6693
  54   2.0000      -0.459493       -12.5034
  55   2.0000      -0.448193       -12.1959
  56   2.0000      -0.446188       -12.1414
  57   2.0000      -0.439349       -11.9553
  58   2.0000      -0.436479       -11.8772
  59   2.0000      -0.427586       -11.6352
  60   2.0000      -0.424084       -11.5399
  61   2.0000      -0.415307       -11.3011
  62   2.0000      -0.410014       -11.1571
  63   2.0000      -0.333962        -9.0876
  64   2.0000      -0.324205        -8.8221
  65   2.0000      -0.315607        -8.5881
  66   2.0000      -0.308533        -8.3956
  67   0.0000       0.044160         1.2017
  68   0.0000       0.054060         1.4711
  69   0.0000       0.114458         3.1146
  70   0.0000       0.118415         3.2222
  71   0.0000       0.127469         3.4686

MULLIKEN ATOMIC CHARGES
-----------------------
   0 S :    0.117030
   1 C :   -0.113327
   2 C :   -0.117780
   3 C :    0.089999
   4 C :   -0.200598
   5 H :   -0.019384
   6 C :    0.101146
   7 H :    0.020428
   8 H :    0.017269
   9 C :   -0.069719
  10 H :    0.004533
  11 H :    0.011873
  12 C :   -0.000405
  13 H :    0.031037
  14 H :    0.027151
  15 H :    0.028717
  16 S :    0.112304
  17 C :   -0.031958
  18 C :   -0.034421
  19 C :   -0.039177
  20 C :   -0.208733
  21 H :    0.008173
  22 C :    0.119503
  23 H :    0.034312
  24 H :    0.016562
  25 C :   -0.007364
  26 H :    0.015296
  27 H :    0.018186
  28 C :   -0.073431
  29 H :    0.047098
  30 H :    0.024079
  31 H :    0.012104
  32 H :    0.041455
  33 H :    0.018042
Sum of atomic charges:   -0.0000000

LOEWDIN ATOMIC CHARGES
----------------------
   0 S :    0.417127
   1 C :   -0.201684
   2 C :   -0.063085
   3 C :   -0.048645
   4 C :   -0.209758
   5 H :    0.014980
   6 C :   -0.031952
   7 H :    0.028641
   8 H :    0.032414
   9 C :   -0.039873
  10 H :    0.018211
  11 H :    0.021717
  12 C :   -0.052021
  13 H :    0.025425
  14 H :    0.022202
  15 H :    0.023818
  16 S :    0.398492
  17 C :   -0.169414
  18 C :   -0.073986
  19 C :   -0.035362
  20 C :   -0.196772
  21 H :    0.025268
  22 C :   -0.026174
  23 H :    0.036120
  24 H :    0.030552
  25 C :   -0.034569
  26 H :    0.022229
  27 H :    0.023821
  28 C :   -0.071116
  29 H :    0.029708
  30 H :    0.024954
  31 H :    0.024846
  32 H :    0.024124
  33 H :    0.009760

  Mayer bond orders larger than 0.100000
B(  0-S ,  1-C ) :   1.1563 B(  0-S ,  4-C ) :   1.1643 B(  1-C ,  2-C ) :   1.5870
B(  1-C ,  4-C ) :   0.1016 B(  1-C , 32-H ) :   0.9679 B(  2-C ,  3-C ) :   1.2495
B(  2-C ,  6-C ) :   1.0419 B(  3-C ,  4-C ) :   1.5579 B(  3-C ,  5-H ) :   1.0054
B(  4-C , 20-C ) :   1.0081 B(  6-C ,  7-H ) :   0.9299 B(  6-C ,  8-H ) :   0.9332
B(  6-C ,  9-C ) :   1.0690 B(  9-C , 10-H ) :   0.9466 B(  9-C , 11-H ) :   0.9527
B(  9-C , 12-C ) :   1.0810 B( 12-C , 13-H ) :   0.9733 B( 12-C , 14-H ) :   0.9768
B( 12-C , 15-H ) :   0.9747 B( 16-S , 17-C ) :   1.1570 B( 16-S , 20-C ) :   1.1342
B( 17-C , 18-C ) :   1.6405 B( 17-C , 33-H ) :   0.9710 B( 18-C , 19-C ) :   1.2154
B( 18-C , 21-H ) :   0.9837 B( 19-C , 20-C ) :   1.6174 B( 19-C , 22-C ) :   1.0147
B( 22-C , 23-H ) :   0.9315 B( 22-C , 24-H ) :   0.9231 B( 22-C , 25-C ) :   1.0972
B( 25-C , 26-H ) :   0.9509 B( 25-C , 27-H ) :   0.9517 B( 25-C , 28-C ) :   1.0769
B( 28-C , 29-H ) :   0.9737 B( 28-C , 30-H ) :   0.9694 B( 28-C , 31-H ) :   0.9721

Dispersion correction           -0.014929106
FINAL SINGLE POINT ENERGY     -1339.865228241812

DIPOLE MOMENT
-------------
                                X             Y             Z
Electronic contribution:     12.53566       2.54237     -25.20750
Nuclear contribution   :    -13.08605      -2.52541      25.66749
                        -----------------------------------------
Total Dipole Moment    :     -0.55039       0.01696       0.45999
                        -----------------------------------------
Magnitude (a.u.)       :      0.71750
Magnitude (Debye)      :      1.82375

Rotational constants in cm-1:     0.021100     0.008314     0.006792
Rotational constants in MHz :   632.568993   249.258166   203.615227

                             ****ORCA TERMINATED NORMALLY****
TOTAL RUN TIME: 0 days 0 hours 0 minutes 22 seconds 62 msec
