                         Program Version 4.2.1 -  RELEASE  -
|  1> ! wB97X-D3 SP def2-SVP
|  2> %pal
|  3> nprocs 24
|  4> end
|  5>
|  6> * xyz 0 1
|  7> S 	 -94.6944 	 43.6198 	 -91.2811
|  8> C 	 -94.2582 	 41.9451 	 -91.3484
|  9> C 	 -95.3925 	 41.1286 	 -91.3422
| 10> C 	 -96.5701 	 41.853 	 -91.189
| 11> C 	 -96.3198 	 43.1687 	 -90.9786
| 12> H 	 -97.5309 	 41.3994 	 -90.9999
| 13> C 	 -95.3285 	 39.5724 	 -91.41
| 14> H 	 -94.7713 	 39.3537 	 -92.365
| 15> H 	 -96.3311 	 39.2478 	 -91.4976
| 16> C 	 -94.8089 	 38.7112 	 -90.1954
| 17> H 	 -93.7951 	 38.461 	 -90.5335
| 18> H 	 -94.6607 	 39.3383 	 -89.3131
| 19> C 	 -95.527 	 37.4134 	 -89.8701
| 20> H 	 -96.544 	 37.6866 	 -89.5955
| 21> H 	 -95.4532 	 36.7064 	 -90.7697
| 22> H 	 -95.0129 	 36.9224 	 -89.0097
| 23> S 	 -97.3023 	 44.6008 	 -88.8083
| 24> C 	 -98.6467 	 45.7347 	 -89.0949
| 25> C 	 -98.8669 	 45.9339 	 -90.4432
| 26> C 	 -98.0085 	 45.0597 	 -91.2518
| 27> C 	 -97.2642 	 44.1874 	 -90.5166
| 28> H 	 -99.6246 	 46.6491 	 -90.8306
| 29> C 	 -97.9441 	 45.1699 	 -92.7775
| 30> H 	 -98.9678 	 45.2387 	 -93.0662
| 31> H 	 -97.6277 	 44.1839 	 -93.0767
| 32> C 	 -97.1445 	 46.3013 	 -93.4404
| 33> H 	 -96.2711 	 45.8112 	 -93.9587
| 34> H 	 -96.7538 	 46.8879 	 -92.6321
| 35> C 	 -97.9302 	 47.1713 	 -94.4092
| 36> H 	 -97.3479 	 48.0702 	 -94.6832
| 37> H 	 -98.8672 	 47.6019 	 -93.9178
| 38> H 	 -98.181 	 46.7134 	 -95.3761
| 39> H 	 -93.2943 	 41.5381 	 -91.5776
| 40> H 	 -99.1119 	 46.3939 	 -88.3476
| 41> *
| 42>
| 43>                          ****END OF INPUT****

CARTESIAN COORDINATES (ANGSTROEM)
---------------------------------
  S    -94.694400   43.619800  -91.281100
  C    -94.258200   41.945100  -91.348400
  C    -95.392500   41.128600  -91.342200
  C    -96.570100   41.853000  -91.189000
  C    -96.319800   43.168700  -90.978600
  H    -97.530900   41.399400  -90.999900
  C    -95.328500   39.572400  -91.410000
  H    -94.771300   39.353700  -92.365000
  H    -96.331100   39.247800  -91.497600
  C    -94.808900   38.711200  -90.195400
  H    -93.795100   38.461000  -90.533500
  H    -94.660700   39.338300  -89.313100
  C    -95.527000   37.413400  -89.870100
  H    -96.544000   37.686600  -89.595500
  H    -95.453200   36.706400  -90.769700
  H    -95.012900   36.922400  -89.009700
  S    -97.302300   44.600800  -88.808300
  C    -98.646700   45.734700  -89.094900
  C    -98.866900   45.933900  -90.443200
  C    -98.008500   45.059700  -91.251800
  C    -97.264200   44.187400  -90.516600
  H    -99.624600   46.649100  -90.830600
  C    -97.944100   45.169900  -92.777500
  H    -98.967800   45.238700  -93.066200
  H    -97.627700   44.183900  -93.076700
  C    -97.144500   46.301300  -93.440400
  H    -96.271100   45.811200  -93.958700
  H    -96.753800   46.887900  -92.632100
  C    -97.930200   47.171300  -94.409200
  H    -97.347900   48.070200  -94.683200
  H    -98.867200   47.601900  -93.917800
  H    -98.181000   46.713400  -95.376100
  H    -93.294300   41.538100  -91.577600
  H    -99.111900   46.393900  -88.347600

 Total Charge           Charge          ....    0
 Multiplicity           Mult            ....    1
 Number of Electrons    NEL             ....  134
 Basis Dimension        Dim             ....  322

ORBITAL ENERGIES
----------------

  NO   OCC          E(Eh)            E(eV)
   0   2.0000     -88.968779     -2420.9636
   1   2.0000     -88.963089     -2420.8087
   2   2.0000     -10.322068      -280.8778
   3   2.0000     -10.320942      -280.8471
   4   2.0000     -10.320043      -280.8226
   5   2.0000     -10.308617      -280.5117
   6   2.0000     -10.300974      -280.3038
   7   2.0000     -10.299070      -280.2519
   8   2.0000     -10.298958      -280.2489
   9   2.0000     -10.294568      -280.1294
  10   2.0000     -10.289014      -279.9783
  11   2.0000     -10.288417      -279.9621
  12   2.0000     -10.286202      -279.9018
  13   2.0000     -10.285981      -279.8958
  14   2.0000     -10.284865      -279.8654
  15   2.0000     -10.280584      -279.7489
  16   2.0000      -8.084253      -219.9837
  17   2.0000      -8.077304      -219.7946
  18   2.0000      -6.042506      -164.4249
  19   2.0000      -6.038702      -164.3214
  20   2.0000      -6.035960      -164.2468
  21   2.0000      -6.035199      -164.2261
  22   2.0000      -6.032073      -164.1411
  23   2.0000      -6.027743      -164.0232
  24   2.0000      -1.012468       -27.5506
  25   2.0000      -0.982705       -26.7407
  26   2.0000      -0.904097       -24.6017
  27   2.0000      -0.903335       -24.5810
  28   2.0000      -0.867152       -23.5964
  29   2.0000      -0.855658       -23.2836
  30   2.0000      -0.843917       -22.9642
  31   2.0000      -0.815319       -22.1859
  32   2.0000      -0.780604       -21.2413
  33   2.0000      -0.767583       -20.8870
  34   2.0000      -0.701722       -19.0948
  35   2.0000      -0.696140       -18.9429
  36   2.0000      -0.690126       -18.7793
  37   2.0000      -0.657521       -17.8921
  38   2.0000      -0.643285       -17.5047
  39   2.0000      -0.615958       -16.7611
  40   2.0000      -0.588829       -16.0228
  41   2.0000      -0.566533       -15.4161
  42   2.0000      -0.561422       -15.2771
  43   2.0000      -0.555467       -15.1150
  44   2.0000      -0.528317       -14.3762
  45   2.0000      -0.525248       -14.2927
  46   2.0000      -0.515989       -14.0408
  47   2.0000      -0.507725       -13.8159
  48   2.0000      -0.506670       -13.7872
  49   2.0000      -0.493632       -13.4324
  50   2.0000      -0.491237       -13.3673
  51   2.0000      -0.476311       -12.9611
  52   2.0000      -0.470581       -12.8052
  53   2.0000      -0.463245       -12.6055
  54   2.0000      -0.456497       -12.4219
  55   2.0000      -0.453686       -12.3454
  56   2.0000      -0.449059       -12.2195
  57   2.0000      -0.437095       -11.8940
  58   2.0000      -0.425802       -11.5867
  59   2.0000      -0.422562       -11.4985
  60   2.0000      -0.417770       -11.3681
  61   2.0000      -0.410733       -11.1766
  62   2.0000      -0.407738       -11.0951
  63   2.0000      -0.341970        -9.3055
  64   2.0000      -0.327493        -8.9115
  65   2.0000      -0.317651        -8.6437
  66   2.0000      -0.310488        -8.4488
  67   0.0000       0.046280         1.2593
  68   0.0000       0.052708         1.4343
  69   0.0000       0.110128         2.9967
  70   0.0000       0.116017         3.1570
  71   0.0000       0.132257         3.5989

MULLIKEN ATOMIC CHARGES
-----------------------
   0 S :    0.142284
   1 C :   -0.108018
   2 C :   -0.120547
   3 C :    0.069364
   4 C :   -0.211088
   5 H :    0.013041
   6 C :    0.063988
   7 H :    0.047603
   8 H :   -0.001699
   9 C :   -0.073492
  10 H :    0.020267
  11 H :    0.037463
  12 C :   -0.078213
  13 H :    0.042089
  14 H :    0.049227
  15 H :    0.049098
  16 S :    0.103271
  17 C :   -0.098326
  18 C :   -0.038031
  19 C :   -0.080223
  20 C :   -0.156405
  21 H :    0.036496
  22 C :    0.104951
  23 H :    0.009632
  24 H :    0.019330
  25 C :   -0.041137
  26 H :    0.041701
  27 H :    0.029132
  28 C :   -0.084995
  29 H :    0.034101
  30 H :    0.037337
  31 H :    0.042171
  32 H :    0.033588
  33 H :    0.066040
Sum of atomic charges:   -0.0000000

LOEWDIN ATOMIC CHARGES
----------------------
   0 S :    0.437983
   1 C :   -0.206224
   2 C :   -0.062935
   3 C :   -0.059286
   4 C :   -0.204645
   5 H :    0.035630
   6 C :   -0.032001
   7 H :    0.038532
   8 H :    0.018298
   9 C :   -0.050175
  10 H :    0.022464
  11 H :    0.025467
  12 C :   -0.069749
  13 H :    0.023695
  14 H :    0.035028
  15 H :    0.035766
  16 S :    0.383152
  17 C :   -0.177885
  18 C :   -0.076522
  19 C :   -0.053603
  20 C :   -0.206782
  21 H :    0.038756
  22 C :   -0.032457
  23 H :    0.024741
  24 H :    0.028759
  25 C :   -0.044229
  26 H :    0.034975
  27 H :    0.024094
  28 C :   -0.073897
  29 H :    0.029297
  30 H :    0.029935
  31 H :    0.026395
  32 H :    0.022098
  33 H :    0.035326

  Mayer bond orders larger than 0.100000
B(  0-S ,  1-C ) :   1.1485 B(  0-S ,  4-C ) :   1.1847 B(  1-C ,  2-C ) :   1.5878
B(  1-C ,  4-C ) :   0.1027 B(  1-C , 32-H ) :   0.9734 B(  2-C ,  3-C ) :   1.2810
B(  2-C ,  6-C ) :   1.0180 B(  3-C ,  4-C ) :   1.5697 B(  3-C ,  5-H ) :   0.9933
B(  4-C , 20-C ) :   0.9915 B(  6-C ,  7-H ) :   0.9429 B(  6-C ,  8-H ) :   0.9481
B(  6-C ,  9-C ) :   1.0302 B(  9-C , 10-H ) :   0.9553 B(  9-C , 11-H ) :   0.9625
B(  9-C , 12-C ) :   1.0906 B( 12-C , 13-H ) :   0.9733 B( 12-C , 14-H ) :   0.9754
B( 12-C , 15-H ) :   0.9715 B( 16-S , 17-C ) :   1.1380 B( 16-S , 20-C ) :   1.1184
B( 17-C , 18-C ) :   1.6482 B( 17-C , 33-H ) :   0.9617 B( 18-C , 19-C ) :   1.1989
B( 18-C , 21-H ) :   0.9834 B( 19-C , 20-C ) :   1.6598 B( 19-C , 22-C ) :   1.0488
B( 22-C , 23-H ) :   0.9390 B( 22-C , 24-H ) :   0.9217 B( 22-C , 25-C ) :   1.0357
B( 25-C , 26-H ) :   0.9536 B( 25-C , 27-H ) :   0.9635 B( 25-C , 28-C ) :   1.0849
B( 28-C , 29-H ) :   0.9722 B( 28-C , 30-H ) :   0.9734 B( 28-C , 31-H ) :   0.9759

Dispersion correction           -0.013986922
FINAL SINGLE POINT ENERGY     -1339.869314845453

DIPOLE MOMENT
-------------
                                X             Y             Z
Electronic contribution:      2.39621      10.83785      12.22055
Nuclear contribution   :     -2.49982     -10.98408     -12.52221
                        -----------------------------------------
Total Dipole Moment    :     -0.10361      -0.14622      -0.30166
                        -----------------------------------------
Magnitude (a.u.)       :      0.35088
Magnitude (Debye)      :      0.89186

Rotational constants in cm-1:     0.022212     0.007133     0.006186
Rotational constants in MHz :   665.912752   213.835228   185.458927

                             ****ORCA TERMINATED NORMALLY****
TOTAL RUN TIME: 0 days 0 hours 0 minutes 19 seconds 852 msec
