                         Program Version 4.2.1 -  RELEASE  -
|  1> ! wB97X-D3 SP def2-SVP
|  2> %pal
|  3> nprocs 24
|  4> end
|  5>
|  6> * xyz 0 1
|  7> S 	 -127.565 	 65.457 	 -56.5643
|  8> C 	 -126.726 	 66.9863 	 -56.198
|  9> C 	 -126.526 	 67.7955 	 -57.3676
| 10> C 	 -127.174 	 67.1401 	 -58.4802
| 11> C 	 -127.872 	 66.0038 	 -58.2104
| 12> H 	 -127.007 	 67.5273 	 -59.4562
| 13> C 	 -125.684 	 69.0484 	 -57.5122
| 14> H 	 -125.829 	 69.4205 	 -58.4904
| 15> H 	 -124.652 	 68.8725 	 -57.4096
| 16> C 	 -126.085 	 70.089 	 -56.5051
| 17> H 	 -125.91 	 69.6797 	 -55.4815
| 18> H 	 -125.503 	 70.993 	 -56.4308
| 19> C 	 -127.55 	 70.506 	 -56.5402
| 20> H 	 -128.069 	 70.1675 	 -57.4599
| 21> H 	 -127.979 	 70.0091 	 -55.6149
| 22> H 	 -127.805 	 71.5379 	 -56.4286
| 23> S 	 -129.515 	 63.7766 	 -58.4699
| 24> C 	 -130.036 	 63.1895 	 -60.0335
| 25> C 	 -129.494 	 63.9559 	 -61.0727
| 26> C 	 -128.648 	 64.9899 	 -60.6255
| 27> C 	 -128.491 	 65.0665 	 -59.2044
| 28> H 	 -129.787 	 63.7546 	 -62.0311
| 29> C 	 -128.102 	 66.0088 	 -61.5892
| 30> H 	 -128.061 	 65.5031 	 -62.539
| 31> H 	 -127.063 	 66.1731 	 -61.3777
| 32> C 	 -128.969 	 67.2627 	 -61.715
| 33> H 	 -129.05 	 67.5023 	 -60.6409
| 34> H 	 -129.968 	 66.9178 	 -62.1537
| 35> C 	 -128.358 	 68.3598 	 -62.5813
| 36> H 	 -127.435 	 68.6702 	 -62.0783
| 37> H 	 -129.022 	 69.2768 	 -62.6526
| 38> H 	 -128.09 	 67.9802 	 -63.5899
| 39> H 	 -126.188 	 67.2052 	 -55.2887
| 40> H 	 -130.736 	 62.3682 	 -60.1346
| 41> *
| 42>
| 43>                          ****END OF INPUT****

CARTESIAN COORDINATES (ANGSTROEM)
---------------------------------
  S    -127.565000   65.457000  -56.564300
  C    -126.726000   66.986300  -56.198000
  C    -126.526000   67.795500  -57.367600
  C    -127.174000   67.140100  -58.480200
  C    -127.872000   66.003800  -58.210400
  H    -127.007000   67.527300  -59.456200
  C    -125.684000   69.048400  -57.512200
  H    -125.829000   69.420500  -58.490400
  H    -124.652000   68.872500  -57.409600
  C    -126.085000   70.089000  -56.505100
  H    -125.910000   69.679700  -55.481500
  H    -125.503000   70.993000  -56.430800
  C    -127.550000   70.506000  -56.540200
  H    -128.069000   70.167500  -57.459900
  H    -127.979000   70.009100  -55.614900
  H    -127.805000   71.537900  -56.428600
  S    -129.515000   63.776600  -58.469900
  C    -130.036000   63.189500  -60.033500
  C    -129.494000   63.955900  -61.072700
  C    -128.648000   64.989900  -60.625500
  C    -128.491000   65.066500  -59.204400
  H    -129.787000   63.754600  -62.031100
  C    -128.102000   66.008800  -61.589200
  H    -128.061000   65.503100  -62.539000
  H    -127.063000   66.173100  -61.377700
  C    -128.969000   67.262700  -61.715000
  H    -129.050000   67.502300  -60.640900
  H    -129.968000   66.917800  -62.153700
  C    -128.358000   68.359800  -62.581300
  H    -127.435000   68.670200  -62.078300
  H    -129.022000   69.276800  -62.652600
  H    -128.090000   67.980200  -63.589900
  H    -126.188000   67.205200  -55.288700
  H    -130.736000   62.368200  -60.134600

 Total Charge           Charge          ....    0
 Multiplicity           Mult            ....    1
 Number of Electrons    NEL             ....  134
 Basis Dimension        Dim             ....  322

ORBITAL ENERGIES
----------------

  NO   OCC          E(Eh)            E(eV)
   0   2.0000     -88.973091     -2421.0809
   1   2.0000     -88.966140     -2420.8917
   2   2.0000     -10.339610      -281.3551
   3   2.0000     -10.337381      -281.2944
   4   2.0000     -10.322628      -280.8930
   5   2.0000     -10.321765      -280.8695
   6   2.0000     -10.310460      -280.5619
   7   2.0000     -10.308305      -280.5032
   8   2.0000     -10.293556      -280.1019
   9   2.0000     -10.292694      -280.0784
  10   2.0000     -10.291335      -280.0414
  11   2.0000     -10.291158      -280.0366
  12   2.0000     -10.288841      -279.9736
  13   2.0000     -10.285756      -279.8897
  14   2.0000     -10.284847      -279.8649
  15   2.0000     -10.274362      -279.5796
  16   2.0000      -8.086647      -220.0489
  17   2.0000      -8.080066      -219.8698
  18   2.0000      -6.045329      -164.5018
  19   2.0000      -6.041500      -164.3976
  20   2.0000      -6.038527      -164.3167
  21   2.0000      -6.037110      -164.2781
  22   2.0000      -6.034575      -164.2091
  23   2.0000      -6.031075      -164.1139
  24   2.0000      -1.000173       -27.2161
  25   2.0000      -0.978511       -26.6266
  26   2.0000      -0.920464       -25.0471
  27   2.0000      -0.912624       -24.8338
  28   2.0000      -0.861831       -23.4516
  29   2.0000      -0.852158       -23.1884
  30   2.0000      -0.845637       -23.0109
  31   2.0000      -0.813627       -22.1399
  32   2.0000      -0.786700       -21.4072
  33   2.0000      -0.772253       -21.0141
  34   2.0000      -0.707574       -19.2541
  35   2.0000      -0.699701       -19.0398
  36   2.0000      -0.687903       -18.7188
  37   2.0000      -0.669425       -18.2160
  38   2.0000      -0.637449       -17.3459
  39   2.0000      -0.624792       -17.0015
  40   2.0000      -0.594967       -16.1899
  41   2.0000      -0.576911       -15.6985
  42   2.0000      -0.569990       -15.5102
  43   2.0000      -0.563905       -15.3446
  44   2.0000      -0.543192       -14.7810
  45   2.0000      -0.521812       -14.1992
  46   2.0000      -0.513503       -13.9731
  47   2.0000      -0.512083       -13.9345
  48   2.0000      -0.508426       -13.8350
  49   2.0000      -0.497557       -13.5392
  50   2.0000      -0.489774       -13.3274
  51   2.0000      -0.481724       -13.1084
  52   2.0000      -0.466851       -12.7037
  53   2.0000      -0.464000       -12.6261
  54   2.0000      -0.458428       -12.4745
  55   2.0000      -0.454030       -12.3548
  56   2.0000      -0.446778       -12.1574
  57   2.0000      -0.440333       -11.9821
  58   2.0000      -0.430219       -11.7068
  59   2.0000      -0.427956       -11.6453
  60   2.0000      -0.420258       -11.4358
  61   2.0000      -0.411639       -11.2013
  62   2.0000      -0.402147       -10.9430
  63   2.0000      -0.357675        -9.7328
  64   2.0000      -0.337144        -9.1742
  65   2.0000      -0.329805        -8.9744
  66   2.0000      -0.280019        -7.6197
  67   0.0000       0.013717         0.3732
  68   0.0000       0.074618         2.0305
  69   0.0000       0.084629         2.3029
  70   0.0000       0.116481         3.1696
  71   0.0000       0.124648         3.3919

MULLIKEN ATOMIC CHARGES
-----------------------
   0 S :    0.103757
   1 C :   -0.113094
   2 C :   -0.132813
   3 C :   -0.025937
   4 C :   -0.032783
   5 H :   -0.013836
   6 C :    0.164727
   7 H :    0.006087
   8 H :    0.032388
   9 C :   -0.104226
  10 H :    0.020498
  11 H :    0.022016
  12 C :   -0.068623
  13 H :    0.039305
  14 H :    0.040530
  15 H :    0.028655
  16 S :    0.072729
  17 C :   -0.087763
  18 C :    0.006299
  19 C :   -0.072097
  20 C :   -0.128105
  21 H :   -0.016777
  22 C :    0.047711
  23 H :    0.001071
  24 H :    0.025254
  25 C :   -0.079925
  26 H :    0.035999
  27 H :    0.037231
  28 C :   -0.034527
  29 H :    0.022270
  30 H :    0.053527
  31 H :    0.037363
  32 H :    0.050475
  33 H :    0.062614
Sum of atomic charges:   -0.0000000

LOEWDIN ATOMIC CHARGES
----------------------
   0 S :    0.395478
   1 C :   -0.189677
   2 C :   -0.046520
   3 C :   -0.070167
   4 C :   -0.184556
   5 H :    0.022376
   6 C :   -0.020665
   7 H :    0.023916
   8 H :    0.032543
   9 C :   -0.048962
  10 H :    0.023921
  11 H :    0.021438
  12 C :   -0.074348
  13 H :    0.028356
  14 H :    0.038195
  15 H :    0.020059
  16 S :    0.384741
  17 C :   -0.176761
  18 C :   -0.061704
  19 C :   -0.053930
  20 C :   -0.176593
  21 H :    0.018166
  22 C :   -0.038873
  23 H :    0.023674
  24 H :    0.024696
  25 C :   -0.045344
  26 H :    0.026799
  27 H :    0.032124
  28 C :   -0.070034
  29 H :    0.022704
  30 H :    0.036052
  31 H :    0.028546
  32 H :    0.024772
  33 H :    0.029577

  Mayer bond orders larger than 0.100000
B(  0-S ,  1-C ) :   1.1391 B(  0-S ,  4-C ) :   1.1338 B(  1-C ,  2-C ) :   1.5979
B(  1-C , 32-H ) :   0.9653 B(  2-C ,  3-C ) :   1.2588 B(  2-C ,  6-C ) :   1.0121
B(  3-C ,  4-C ) :   1.5713 B(  3-C ,  5-H ) :   0.9950 B(  4-C , 20-C ) :   1.0504
B(  6-C ,  7-H ) :   0.9388 B(  6-C ,  8-H ) :   0.9309 B(  6-C ,  9-C ) :   1.0789
B(  9-C , 10-H ) :   0.9657 B(  9-C , 11-H ) :   0.9588 B(  9-C , 12-C ) :   1.0488
B( 12-C , 13-H ) :   0.9815 B( 12-C , 14-H ) :   0.9796 B( 12-C , 15-H ) :   0.9796
B( 16-S , 17-C ) :   1.1744 B( 16-S , 20-C ) :   1.1376 B( 17-C , 18-C ) :   1.5618
B( 17-C , 20-C ) :   0.1082 B( 17-C , 33-H ) :   0.9678 B( 18-C , 19-C ) :   1.2831
B( 18-C , 21-H ) :   1.0075 B( 19-C , 20-C ) :   1.5440 B( 19-C , 22-C ) :   1.0493
B( 22-C , 23-H ) :   0.9199 B( 22-C , 24-H ) :   0.9336 B( 22-C , 25-C ) :   1.0480
B( 25-C , 26-H ) :   0.9582 B( 25-C , 27-H ) :   0.9498 B( 25-C , 28-C ) :   1.0780
B( 28-C , 29-H ) :   0.9723 B( 28-C , 30-H ) :   0.9725 B( 28-C , 31-H ) :   0.9711

Dispersion correction           -0.014607728
FINAL SINGLE POINT ENERGY     -1339.863335596402

DIPOLE MOMENT
-------------
                                X             Y             Z
Electronic contribution:     -5.30131     -26.52233      11.01046
Nuclear contribution   :      5.60233      26.98128     -11.47387
                        -----------------------------------------
Total Dipole Moment    :      0.30102       0.45895      -0.46341
                        -----------------------------------------
Magnitude (a.u.)       :      0.71834
Magnitude (Debye)      :      1.82586

Rotational constants in cm-1:     0.018504     0.009339     0.006661
Rotational constants in MHz :   554.735098   279.963522   199.702018

                             ****ORCA TERMINATED NORMALLY****
TOTAL RUN TIME: 0 days 0 hours 0 minutes 22 seconds 57 msec
