                         Program Version 4.2.1 -  RELEASE  -
|  1> ! wB97X-D3 SP def2-SVP
|  2> %pal
|  3> nprocs 24
|  4> end
|  5>
|  6> * xyz 0 1
|  7> S 	 -145.154 	 6.50542 	 12.5466
|  8> C 	 -145.408 	 5.99056 	 10.8253
|  9> C 	 -144.633 	 4.88081 	 10.5112
| 10> C 	 -143.88 	 4.42302 	 11.6994
| 11> C 	 -143.999 	 5.20119 	 12.8515
| 12> H 	 -143.098 	 3.65605 	 11.6922
| 13> C 	 -144.586 	 4.16666 	 9.13818
| 14> H 	 -143.5 	 3.97214 	 9.00826
| 15> H 	 -144.989 	 4.99256 	 8.45378
| 16> C 	 -145.569 	 2.84997 	 9.02678
| 17> H 	 -145.285 	 2.09305 	 9.84124
| 18> H 	 -146.609 	 3.15122 	 9.21088
| 19> C 	 -145.486 	 2.23128 	 7.63023
| 20> H 	 -145.623 	 2.91696 	 6.78911
| 21> H 	 -144.596 	 1.78938 	 7.39214
| 22> H 	 -146.268 	 1.48883 	 7.49349
| 23> S 	 -142.941 	 3.32528 	 14.4765
| 24> C 	 -142.147 	 3.75927 	 15.9979
| 25> C 	 -142.327 	 5.1472 	 16.2028
| 26> C 	 -143.015 	 5.8533 	 15.2044
| 27> C 	 -143.377 	 4.99055 	 14.1756
| 28> H 	 -141.994 	 5.54666 	 17.1351
| 29> C 	 -143.541 	 7.22737 	 15.4119
| 30> H 	 -143.655 	 7.2719 	 16.4914
| 31> H 	 -144.511 	 7.33712 	 15.1214
| 32> C 	 -142.64 	 8.34818 	 14.8547
| 33> H 	 -142.333 	 7.85711 	 13.8946
| 34> H 	 -141.85 	 8.45621 	 15.5269
| 35> C 	 -143.435 	 9.69986 	 14.6473
| 36> H 	 -143.76 	 10.0756 	 15.5712
| 37> H 	 -144.245 	 9.553 	 13.9373
| 38> H 	 -142.768 	 10.4176 	 14.2079
| 39> H 	 -145.932 	 6.59626 	 10.0741
| 40> H 	 -141.768 	 3.16354 	 16.8294
| 41> *
| 42>
| 43>                          ****END OF INPUT****

CARTESIAN COORDINATES (ANGSTROEM)
---------------------------------
  S    -145.154000    6.505420   12.546600
  C    -145.408000    5.990560   10.825300
  C    -144.633000    4.880810   10.511200
  C    -143.880000    4.423020   11.699400
  C    -143.999000    5.201190   12.851500
  H    -143.098000    3.656050   11.692200
  C    -144.586000    4.166660    9.138180
  H    -143.500000    3.972140    9.008260
  H    -144.989000    4.992560    8.453780
  C    -145.569000    2.849970    9.026780
  H    -145.285000    2.093050    9.841240
  H    -146.609000    3.151220    9.210880
  C    -145.486000    2.231280    7.630230
  H    -145.623000    2.916960    6.789110
  H    -144.596000    1.789380    7.392140
  H    -146.268000    1.488830    7.493490
  S    -142.941000    3.325280   14.476500
  C    -142.147000    3.759270   15.997900
  C    -142.327000    5.147200   16.202800
  C    -143.015000    5.853300   15.204400
  C    -143.377000    4.990550   14.175600
  H    -141.994000    5.546660   17.135100
  C    -143.541000    7.227370   15.411900
  H    -143.655000    7.271900   16.491400
  H    -144.511000    7.337120   15.121400
  C    -142.640000    8.348180   14.854700
  H    -142.333000    7.857110   13.894600
  H    -141.850000    8.456210   15.526900
  C    -143.435000    9.699860   14.647300
  H    -143.760000   10.075600   15.571200
  H    -144.245000    9.553000   13.937300
  H    -142.768000   10.417600   14.207900
  H    -145.932000    6.596260   10.074100
  H    -141.768000    3.163540   16.829400

 Total Charge           Charge          ....    0
 Multiplicity           Mult            ....    1
 Number of Electrons    NEL             ....  134
 Basis Dimension        Dim             ....  322

ORBITAL ENERGIES
----------------

  NO   OCC          E(Eh)            E(eV)
   0   2.0000     -88.971746     -2421.0443
   1   2.0000     -88.966399     -2420.8988
   2   2.0000     -10.338141      -281.3151
   3   2.0000     -10.332188      -281.1531
   4   2.0000     -10.321812      -280.8708
   5   2.0000     -10.320971      -280.8479
   6   2.0000     -10.312217      -280.6097
   7   2.0000     -10.311289      -280.5844
   8   2.0000     -10.305200      -280.4187
   9   2.0000     -10.300811      -280.2993
  10   2.0000     -10.299463      -280.2626
  11   2.0000     -10.293696      -280.1057
  12   2.0000     -10.283501      -279.8283
  13   2.0000     -10.279036      -279.7068
  14   2.0000     -10.272314      -279.5239
  15   2.0000     -10.272168      -279.5199
  16   2.0000      -8.085520      -220.0182
  17   2.0000      -8.079316      -219.8494
  18   2.0000      -6.044092      -164.4681
  19   2.0000      -6.040047      -164.3580
  20   2.0000      -6.038118      -164.3055
  21   2.0000      -6.036384      -164.2584
  22   2.0000      -6.034095      -164.1961
  23   2.0000      -6.029878      -164.0813
  24   2.0000      -1.003461       -27.3056
  25   2.0000      -0.973794       -26.4983
  26   2.0000      -0.911294       -24.7976
  27   2.0000      -0.896832       -24.4040
  28   2.0000      -0.866523       -23.5793
  29   2.0000      -0.851481       -23.1700
  30   2.0000      -0.839976       -22.8569
  31   2.0000      -0.809479       -22.0270
  32   2.0000      -0.783867       -21.3301
  33   2.0000      -0.770237       -20.9592
  34   2.0000      -0.709191       -19.2981
  35   2.0000      -0.704282       -19.1645
  36   2.0000      -0.693901       -18.8820
  37   2.0000      -0.670204       -18.2372
  38   2.0000      -0.629963       -17.1422
  39   2.0000      -0.612451       -16.6656
  40   2.0000      -0.594806       -16.1855
  41   2.0000      -0.568855       -15.4793
  42   2.0000      -0.560322       -15.2471
  43   2.0000      -0.552290       -15.0286
  44   2.0000      -0.522211       -14.2101
  45   2.0000      -0.519923       -14.1478
  46   2.0000      -0.518656       -14.1134
  47   2.0000      -0.511362       -13.9149
  48   2.0000      -0.505151       -13.7458
  49   2.0000      -0.500003       -13.6058
  50   2.0000      -0.487954       -13.2779
  51   2.0000      -0.479877       -13.0581
  52   2.0000      -0.472545       -12.8586
  53   2.0000      -0.462552       -12.5867
  54   2.0000      -0.460828       -12.5398
  55   2.0000      -0.446608       -12.1528
  56   2.0000      -0.440862       -11.9965
  57   2.0000      -0.436935       -11.8896
  58   2.0000      -0.432827       -11.7778
  59   2.0000      -0.427165       -11.6238
  60   2.0000      -0.425042       -11.5660
  61   2.0000      -0.418190       -11.3795
  62   2.0000      -0.408838       -11.1251
  63   2.0000      -0.353530        -9.6200
  64   2.0000      -0.334629        -9.1057
  65   2.0000      -0.327129        -8.9016
  66   2.0000      -0.285210        -7.7610
  67   0.0000       0.017628         0.4797
  68   0.0000       0.078987         2.1493
  69   0.0000       0.103588         2.8188
  70   0.0000       0.116194         3.1618
  71   0.0000       0.122325         3.3286

MULLIKEN ATOMIC CHARGES
-----------------------
   0 S :    0.065977
   1 C :   -0.126120
   2 C :   -0.090621
   3 C :   -0.017007
   4 C :   -0.105742
   5 H :    0.022196
   6 C :    0.015341
   7 H :    0.051365
   8 H :    0.039732
   9 C :   -0.085098
  10 H :    0.052817
  11 H :    0.040190
  12 C :   -0.009214
  13 H :    0.020820
  14 H :    0.009932
  15 H :    0.030986
  16 S :    0.109418
  17 C :   -0.094415
  18 C :   -0.045375
  19 C :   -0.039786
  20 C :   -0.132512
  21 H :    0.005480
  22 C :    0.075784
  23 H :    0.010666
  24 H :    0.000536
  25 C :   -0.065966
  26 H :    0.044707
  27 H :    0.018800
  28 C :   -0.011829
  29 H :    0.022241
  30 H :    0.033750
  31 H :    0.029663
  32 H :    0.059854
  33 H :    0.063432
Sum of atomic charges:   -0.0000000

LOEWDIN ATOMIC CHARGES
----------------------
   0 S :    0.368701
   1 C :   -0.189555
   2 C :   -0.059391
   3 C :   -0.085244
   4 C :   -0.179784
   5 H :    0.024679
   6 C :   -0.035795
   7 H :    0.036681
   8 H :    0.039044
   9 C :   -0.034206
  10 H :    0.035588
  11 H :    0.028152
  12 C :   -0.066965
  13 H :    0.027432
  14 H :    0.012120
  15 H :    0.028839
  16 S :    0.420109
  17 C :   -0.196479
  18 C :   -0.061099
  19 C :   -0.062068
  20 C :   -0.187026
  21 H :    0.024701
  22 C :   -0.031899
  23 H :    0.031962
  24 H :    0.008427
  25 C :   -0.026168
  26 H :    0.031556
  27 H :    0.013976
  28 C :   -0.054425
  29 H :    0.017256
  30 H :    0.025762
  31 H :    0.025189
  32 H :    0.032336
  33 H :    0.037597

  Mayer bond orders larger than 0.100000
B(  0-S ,  1-C ) :   1.1054 B(  0-S ,  4-C ) :   1.1247 B(  1-C ,  2-C ) :   1.6562
B(  1-C , 32-H ) :   0.9599 B(  2-C ,  3-C ) :   1.2082 B(  2-C ,  6-C ) :   1.0152
B(  3-C ,  4-C ) :   1.6057 B(  3-C ,  5-H ) :   0.9757 B(  4-C , 20-C ) :   1.0534
B(  6-C ,  7-H ) :   0.9457 B(  6-C ,  8-H ) :   0.9442 B(  6-C ,  9-C ) :   1.0401
B(  9-C , 10-H ) :   0.9589 B(  9-C , 11-H ) :   0.9595 B(  9-C , 12-C ) :   1.0775
B( 12-C , 13-H ) :   0.9714 B( 12-C , 14-H ) :   0.9752 B( 12-C , 15-H ) :   0.9733
B( 16-S , 17-C ) :   1.1465 B( 16-S , 20-C ) :   1.1583 B( 17-C , 18-C ) :   1.5945
B( 17-C , 20-C ) :   0.1038 B( 17-C , 33-H ) :   0.9653 B( 18-C , 19-C ) :   1.2810
B( 18-C , 21-H ) :   0.9834 B( 19-C , 20-C ) :   1.5331 B( 19-C , 22-C ) :   1.0335
B( 22-C , 23-H ) :   0.9246 B( 22-C , 24-H ) :   0.9439 B( 22-C , 25-C ) :   1.0257
B( 25-C , 26-H ) :   0.9652 B( 25-C , 27-H ) :   0.9581 B( 25-C , 28-C ) :   1.0784
B( 28-C , 29-H ) :   0.9743 B( 28-C , 30-H ) :   0.9757 B( 28-C , 31-H ) :   0.9756

Dispersion correction           -0.013888330
FINAL SINGLE POINT ENERGY     -1339.858998539625

DIPOLE MOMENT
-------------
                                X             Y             Z
Electronic contribution:      2.10271      -5.49848      12.38937
Nuclear contribution   :     -2.05467       5.51608     -12.49162
                        -----------------------------------------
Total Dipole Moment    :      0.04804       0.01760      -0.10226
                        -----------------------------------------
Magnitude (a.u.)       :      0.11434
Magnitude (Debye)      :      0.29063

Rotational constants in cm-1:     0.021084     0.007737     0.005902
Rotational constants in MHz :   632.085473   231.955171   176.943977

                             ****ORCA TERMINATED NORMALLY****
TOTAL RUN TIME: 0 days 0 hours 0 minutes 19 seconds 651 msec
