                         Program Version 4.2.1 -  RELEASE  -
|  1> ! wB97X-D3 SP def2-SVP
|  2> %pal
|  3> nprocs 24
|  4> end
|  5>
|  6> * xyz 0 1
|  7> S 	 -98.0781 	 2.42228 	 -118.723
|  8> C 	 -99.0986 	 1.8647 	 -120.045
|  9> C 	 -100.437 	 1.87591 	 -119.717
| 10> C 	 -100.656 	 2.50927 	 -118.452
| 11> C 	 -99.4761 	 2.66978 	 -117.742
| 12> H 	 -101.615 	 2.67944 	 -118.014
| 13> C 	 -101.541 	 1.46656 	 -120.598
| 14> H 	 -101.075 	 1.12933 	 -121.485
| 15> H 	 -102.114 	 2.29096 	 -120.839
| 16> C 	 -102.459 	 0.285124 	 -120.134
| 17> H 	 -103.081 	 0.577602 	 -119.294
| 18> H 	 -103.143 	 0.0722075 	 -120.936
| 19> C 	 -101.65 	 -0.903449 	 -119.733
| 20> H 	 -100.929 	 -1.1229 	 -120.521
| 21> H 	 -100.99 	 -0.693232 	 -118.903
| 22> H 	 -102.28 	 -1.78577 	 -119.575
| 23> S 	 -98.1652 	 4.57241 	 -116.209
| 24> C 	 -98.4602 	 4.72035 	 -114.556
| 25> C 	 -99.2165 	 3.65592 	 -114.098
| 26> C 	 -99.8108 	 2.94188 	 -115.198
| 27> C 	 -99.2493 	 3.18811 	 -116.387
| 28> H 	 -99.4903 	 3.62105 	 -113.066
| 29> C 	 -100.894 	 1.87038 	 -114.922
| 30> H 	 -100.429 	 1.29434 	 -114.118
| 31> H 	 -101.003 	 1.2915 	 -115.859
| 32> C 	 -102.273 	 2.35135 	 -114.379
| 33> H 	 -102.721 	 3.06981 	 -115.087
| 34> H 	 -102.072 	 3.01423 	 -113.525
| 35> C 	 -103.239 	 1.1719 	 -113.923
| 36> H 	 -103.754 	 0.647699 	 -114.753
| 37> H 	 -103.909 	 1.65891 	 -113.232
| 38> H 	 -102.624 	 0.390715 	 -113.375
| 39> H 	 -98.7607 	 1.66971 	 -121.015
| 40> H 	 -97.9916 	 5.54808 	 -113.989
| 41> *
| 42>
| 43>                          ****END OF INPUT****

CARTESIAN COORDINATES (ANGSTROEM)
---------------------------------
  S    -98.078100    2.422280  -118.723000
  C    -99.098600    1.864700  -120.045000
  C    -100.437000    1.875910  -119.717000
  C    -100.656000    2.509270  -118.452000
  C    -99.476100    2.669780  -117.742000
  H    -101.615000    2.679440  -118.014000
  C    -101.541000    1.466560  -120.598000
  H    -101.075000    1.129330  -121.485000
  H    -102.114000    2.290960  -120.839000
  C    -102.459000    0.285124  -120.134000
  H    -103.081000    0.577602  -119.294000
  H    -103.143000    0.072207  -120.936000
  C    -101.650000   -0.903449  -119.733000
  H    -100.929000   -1.122900  -120.521000
  H    -100.990000   -0.693232  -118.903000
  H    -102.280000   -1.785770  -119.575000
  S    -98.165200    4.572410  -116.209000
  C    -98.460200    4.720350  -114.556000
  C    -99.216500    3.655920  -114.098000
  C    -99.810800    2.941880  -115.198000
  C    -99.249300    3.188110  -116.387000
  H    -99.490300    3.621050  -113.066000
  C    -100.894000    1.870380  -114.922000
  H    -100.429000    1.294340  -114.118000
  H    -101.003000    1.291500  -115.859000
  C    -102.273000    2.351350  -114.379000
  H    -102.721000    3.069810  -115.087000
  H    -102.072000    3.014230  -113.525000
  C    -103.239000    1.171900  -113.923000
  H    -103.754000    0.647699  -114.753000
  H    -103.909000    1.658910  -113.232000
  H    -102.624000    0.390715  -113.375000
  H    -98.760700    1.669710  -121.015000
  H    -97.991600    5.548080  -113.989000

 Total Charge           Charge          ....    0
 Multiplicity           Mult            ....    1
 Number of Electrons    NEL             ....  134
 Basis Dimension        Dim             ....  322

ORBITAL ENERGIES
----------------

  NO   OCC          E(Eh)            E(eV)
   0   2.0000     -88.966125     -2420.8913
   1   2.0000     -88.958823     -2420.6926
   2   2.0000     -10.329990      -281.0933
   3   2.0000     -10.320475      -280.8344
   4   2.0000     -10.318656      -280.7849
   5   2.0000     -10.308378      -280.5052
   6   2.0000     -10.301198      -280.3099
   7   2.0000     -10.297499      -280.2092
   8   2.0000     -10.294716      -280.1335
   9   2.0000     -10.293733      -280.1067
  10   2.0000     -10.292553      -280.0746
  11   2.0000     -10.292035      -280.0605
  12   2.0000     -10.290968      -280.0315
  13   2.0000     -10.283775      -279.8357
  14   2.0000     -10.280241      -279.7396
  15   2.0000     -10.270641      -279.4784
  16   2.0000      -8.081197      -219.9006
  17   2.0000      -8.075197      -219.7373
  18   2.0000      -6.039669      -164.3477
  19   2.0000      -6.035729      -164.2405
  20   2.0000      -6.033576      -164.1819
  21   2.0000      -6.031911      -164.1366
  22   2.0000      -6.029434      -164.0692
  23   2.0000      -6.026006      -163.9760
  24   2.0000      -1.013168       -27.5697
  25   2.0000      -0.990405       -26.9503
  26   2.0000      -0.919164       -25.0117
  27   2.0000      -0.900593       -24.5064
  28   2.0000      -0.870598       -23.6902
  29   2.0000      -0.852356       -23.1938
  30   2.0000      -0.843054       -22.9407
  31   2.0000      -0.816694       -22.2234
  32   2.0000      -0.783988       -21.3334
  33   2.0000      -0.774908       -21.0863
  34   2.0000      -0.709701       -19.3120
  35   2.0000      -0.698735       -19.0135
  36   2.0000      -0.694131       -18.8883
  37   2.0000      -0.663284       -18.0489
  38   2.0000      -0.641706       -17.4617
  39   2.0000      -0.623876       -16.9765
  40   2.0000      -0.593770       -16.1573
  41   2.0000      -0.569168       -15.4879
  42   2.0000      -0.562925       -15.3180
  43   2.0000      -0.554812       -15.0972
  44   2.0000      -0.548329       -14.9208
  45   2.0000      -0.526375       -14.3234
  46   2.0000      -0.518480       -14.1086
  47   2.0000      -0.512118       -13.9354
  48   2.0000      -0.504483       -13.7277
  49   2.0000      -0.499700       -13.5975
  50   2.0000      -0.489033       -13.3073
  51   2.0000      -0.478988       -13.0339
  52   2.0000      -0.473186       -12.8761
  53   2.0000      -0.466796       -12.7022
  54   2.0000      -0.457362       -12.4454
  55   2.0000      -0.453263       -12.3339
  56   2.0000      -0.442818       -12.0497
  57   2.0000      -0.439800       -11.9676
  58   2.0000      -0.436764       -11.8849
  59   2.0000      -0.427057       -11.6208
  60   2.0000      -0.421514       -11.4700
  61   2.0000      -0.417498       -11.3607
  62   2.0000      -0.410152       -11.1608
  63   2.0000      -0.346909        -9.4399
  64   2.0000      -0.331312        -9.0155
  65   2.0000      -0.327147        -8.9021
  66   2.0000      -0.294939        -8.0257
  67   0.0000       0.036312         0.9881
  68   0.0000       0.070627         1.9219
  69   0.0000       0.114989         3.1290
  70   0.0000       0.118496         3.2244
  71   0.0000       0.128781         3.5043

MULLIKEN ATOMIC CHARGES
-----------------------
   0 S :    0.108259
   1 C :   -0.089605
   2 C :   -0.134053
   3 C :    0.054097
   4 C :   -0.159736
   5 H :    0.003741
   6 C :    0.121823
   7 H :   -0.005835
   8 H :    0.018590
   9 C :   -0.064454
  10 H :    0.022295
  11 H :    0.027198
  12 C :   -0.042801
  13 H :    0.012659
  14 H :    0.043104
  15 H :    0.039866
  16 S :    0.097265
  17 C :   -0.109241
  18 C :   -0.016285
  19 C :   -0.064620
  20 C :   -0.122537
  21 H :    0.017366
  22 C :    0.047808
  23 H :    0.029011
  24 H :    0.035087
  25 C :   -0.094405
  26 H :    0.030348
  27 H :    0.020171
  28 C :   -0.055549
  29 H :    0.050716
  30 H :    0.041987
  31 H :    0.038208
  32 H :    0.022536
  33 H :    0.076983
Sum of atomic charges:   -0.0000000

LOEWDIN ATOMIC CHARGES
----------------------
   0 S :    0.412043
   1 C :   -0.189226
   2 C :   -0.058576
   3 C :   -0.059687
   4 C :   -0.188315
   5 H :    0.026683
   6 C :   -0.023362
   7 H :    0.024210
   8 H :    0.025116
   9 C :   -0.034594
  10 H :    0.018954
  11 H :    0.023501
  12 C :   -0.065964
  13 H :    0.022979
  14 H :    0.028223
  15 H :    0.028293
  16 S :    0.413776
  17 C :   -0.194127
  18 C :   -0.078727
  19 C :   -0.054837
  20 C :   -0.205154
  21 H :    0.026802
  22 C :   -0.032933
  23 H :    0.031924
  24 H :    0.029222
  25 C :   -0.045824
  26 H :    0.023280
  27 H :    0.021768
  28 C :   -0.066583
  29 H :    0.029650
  30 H :    0.027092
  31 H :    0.032206
  32 H :    0.014911
  33 H :    0.037275

  Mayer bond orders larger than 0.100000
B(  0-S ,  1-C ) :   1.1254 B(  0-S ,  4-C ) :   1.1657 B(  1-C ,  2-C ) :   1.6190
B(  1-C , 32-H ) :   0.9699 B(  2-C ,  3-C ) :   1.2191 B(  2-C ,  6-C ) :   1.0406
B(  3-C ,  4-C ) :   1.5735 B(  3-C ,  5-H ) :   0.9969 B(  4-C , 20-C ) :   1.0062
B(  6-C ,  7-H ) :   0.9291 B(  6-C ,  8-H ) :   0.9299 B(  6-C ,  9-C ) :   1.0727
B(  9-C , 10-H ) :   0.9534 B(  9-C , 11-H ) :   0.9557 B(  9-C , 12-C ) :   1.0847
B( 12-C , 13-H ) :   0.9730 B( 12-C , 14-H ) :   0.9668 B( 12-C , 15-H ) :   0.9718
B( 16-S , 17-C ) :   1.1892 B( 16-S , 20-C ) :   1.1179 B( 17-C , 18-C ) :   1.5914
B( 17-C , 33-H ) :   0.9638 B( 18-C , 19-C ) :   1.2166 B( 18-C , 21-H ) :   0.9916
B( 19-C , 20-C ) :   1.6599 B( 19-C , 22-C ) :   1.0360 B( 22-C , 23-H ) :   0.9337
B( 22-C , 24-H ) :   0.9400 B( 22-C , 25-C ) :   1.0635 B( 25-C , 26-H ) :   0.9544
B( 25-C , 27-H ) :   0.9573 B( 25-C , 28-C ) :   1.0614 B( 28-C , 29-H ) :   0.9781
B( 28-C , 30-H ) :   0.9775 B( 28-C , 31-H ) :   0.9758

Dispersion correction           -0.014392823
FINAL SINGLE POINT ENERGY     -1339.881525500356

DIPOLE MOMENT
-------------
                                X             Y             Z
Electronic contribution:     25.09550      17.05442      -2.03770
Nuclear contribution   :    -25.72973     -17.15215       2.17530
                        -----------------------------------------
Total Dipole Moment    :     -0.63423      -0.09773       0.13760
                        -----------------------------------------
Magnitude (a.u.)       :      0.65630
Magnitude (Debye)      :      1.66819

Rotational constants in cm-1:     0.016577     0.010110     0.006715
Rotational constants in MHz :   496.977123   303.077465   201.306235

                             ****ORCA TERMINATED NORMALLY****
TOTAL RUN TIME: 0 days 0 hours 0 minutes 22 seconds 16 msec
