                         Program Version 4.2.1 -  RELEASE  -
|  1> ! wB97X-D3 SP def2-SVP
|  2> %pal
|  3> nprocs 24
|  4> end
|  5>
|  6> * xyz 0 1
|  7> S 	 -102.419 	 67.9684 	 -7.78063
|  8> C 	 -102.006 	 68.6826 	 -6.20025
|  9> C 	 -102.742 	 68.1101 	 -5.18119
| 10> C 	 -103.702 	 67.1903 	 -5.68337
| 11> C 	 -103.715 	 67.0928 	 -7.06229
| 12> H 	 -104.364 	 66.6511 	 -5.06129
| 13> C 	 -102.59 	 68.4205 	 -3.68922
| 14> H 	 -103.473 	 68.932 	 -3.39681
| 15> H 	 -101.674 	 68.9955 	 -3.51742
| 16> C 	 -102.301 	 67.1024 	 -2.8691
| 17> H 	 -103.098 	 66.4014 	 -2.98049
| 18> H 	 -101.479 	 66.5796 	 -3.3754
| 19> C 	 -102.071 	 67.1742 	 -1.34739
| 20> H 	 -101.33 	 67.9438 	 -1.07666
| 21> H 	 -102.955 	 67.4686 	 -0.844522
| 22> H 	 -101.862 	 66.1803 	 -0.928559
| 23> S 	 -103.776 	 65.1878 	 -8.88253
| 24> C 	 -105.226 	 64.3987 	 -9.38591
| 25> C 	 -106.315 	 64.763 	 -8.62063
| 26> C 	 -105.919 	 65.7593 	 -7.64722
| 27> C 	 -104.594 	 66.1891 	 -7.82805
| 28> H 	 -107.282 	 64.2478 	 -8.66161
| 29> C 	 -106.85 	 66.2718 	 -6.62217
| 30> H 	 -106.242 	 66.7476 	 -5.85117
| 31> H 	 -107.549 	 65.4975 	 -6.29914
| 32> C 	 -107.82 	 67.3592 	 -7.10585
| 33> H 	 -108.414 	 67.6849 	 -6.22473
| 34> H 	 -108.487 	 66.9342 	 -7.82032
| 35> C 	 -107.18 	 68.5736 	 -7.7102
| 36> H 	 -107.942 	 69.1544 	 -8.2513
| 37> H 	 -106.41 	 68.2059 	 -8.37249
| 38> H 	 -106.643 	 69.2662 	 -6.97464
| 39> H 	 -101.242 	 69.4761 	 -6.03553
| 40> H 	 -105.339 	 63.5646 	 -10.1018
| 41> *
| 42>
| 43>                          ****END OF INPUT****

CARTESIAN COORDINATES (ANGSTROEM)
---------------------------------
  S    -102.419000   67.968400   -7.780630
  C    -102.006000   68.682600   -6.200250
  C    -102.742000   68.110100   -5.181190
  C    -103.702000   67.190300   -5.683370
  C    -103.715000   67.092800   -7.062290
  H    -104.364000   66.651100   -5.061290
  C    -102.590000   68.420500   -3.689220
  H    -103.473000   68.932000   -3.396810
  H    -101.674000   68.995500   -3.517420
  C    -102.301000   67.102400   -2.869100
  H    -103.098000   66.401400   -2.980490
  H    -101.479000   66.579600   -3.375400
  C    -102.071000   67.174200   -1.347390
  H    -101.330000   67.943800   -1.076660
  H    -102.955000   67.468600   -0.844522
  H    -101.862000   66.180300   -0.928559
  S    -103.776000   65.187800   -8.882530
  C    -105.226000   64.398700   -9.385910
  C    -106.315000   64.763000   -8.620630
  C    -105.919000   65.759300   -7.647220
  C    -104.594000   66.189100   -7.828050
  H    -107.282000   64.247800   -8.661610
  C    -106.850000   66.271800   -6.622170
  H    -106.242000   66.747600   -5.851170
  H    -107.549000   65.497500   -6.299140
  C    -107.820000   67.359200   -7.105850
  H    -108.414000   67.684900   -6.224730
  H    -108.487000   66.934200   -7.820320
  C    -107.180000   68.573600   -7.710200
  H    -107.942000   69.154400   -8.251300
  H    -106.410000   68.205900   -8.372490
  H    -106.643000   69.266200   -6.974640
  H    -101.242000   69.476100   -6.035530
  H    -105.339000   63.564600  -10.101800

 Total Charge           Charge          ....    0
 Multiplicity           Mult            ....    1
 Number of Electrons    NEL             ....  134
 Basis Dimension        Dim             ....  322

ORBITAL ENERGIES
----------------

  NO   OCC          E(Eh)            E(eV)
   0   2.0000     -88.970690     -2421.0156
   1   2.0000     -88.966141     -2420.8918
   2   2.0000     -10.331295      -281.1288
   3   2.0000     -10.322653      -280.8937
   4   2.0000     -10.318658      -280.7849
   5   2.0000     -10.315595      -280.7016
   6   2.0000     -10.302513      -280.3456
   7   2.0000     -10.301754      -280.3250
   8   2.0000     -10.297605      -280.2121
   9   2.0000     -10.296623      -280.1854
  10   2.0000     -10.289979      -280.0046
  11   2.0000     -10.288071      -279.9526
  12   2.0000     -10.284867      -279.8655
  13   2.0000     -10.279956      -279.7318
  14   2.0000     -10.277345      -279.6608
  15   2.0000     -10.269081      -279.4359
  16   2.0000      -8.085180      -220.0089
  17   2.0000      -8.082791      -219.9439
  18   2.0000      -6.043717      -164.4579
  19   2.0000      -6.041225      -164.3901
  20   2.0000      -6.039754      -164.3501
  21   2.0000      -6.036906      -164.2726
  22   2.0000      -6.035896      -164.2451
  23   2.0000      -6.033636      -164.1836
  24   2.0000      -1.017066       -27.6758
  25   2.0000      -0.989190       -26.9172
  26   2.0000      -0.915670       -24.9167
  27   2.0000      -0.908484       -24.7211
  28   2.0000      -0.871063       -23.7028
  29   2.0000      -0.850531       -23.1441
  30   2.0000      -0.846642       -23.0383
  31   2.0000      -0.815479       -22.1903
  32   2.0000      -0.784701       -21.3528
  33   2.0000      -0.772137       -21.0109
  34   2.0000      -0.708336       -19.2748
  35   2.0000      -0.695205       -18.9175
  36   2.0000      -0.687694       -18.7131
  37   2.0000      -0.661021       -17.9873
  38   2.0000      -0.637399       -17.3445
  39   2.0000      -0.628071       -17.0907
  40   2.0000      -0.592671       -16.1274
  41   2.0000      -0.567758       -15.4495
  42   2.0000      -0.564937       -15.3727
  43   2.0000      -0.552992       -15.0477
  44   2.0000      -0.545966       -14.8565
  45   2.0000      -0.522273       -14.2118
  46   2.0000      -0.516774       -14.0621
  47   2.0000      -0.511143       -13.9089
  48   2.0000      -0.504065       -13.7163
  49   2.0000      -0.503061       -13.6890
  50   2.0000      -0.495968       -13.4960
  51   2.0000      -0.483356       -13.1528
  52   2.0000      -0.470245       -12.7960
  53   2.0000      -0.463802       -12.6207
  54   2.0000      -0.461034       -12.5454
  55   2.0000      -0.452009       -12.2998
  56   2.0000      -0.445523       -12.1233
  57   2.0000      -0.432162       -11.7597
  58   2.0000      -0.429420       -11.6851
  59   2.0000      -0.425253       -11.5717
  60   2.0000      -0.422281       -11.4909
  61   2.0000      -0.419238       -11.4080
  62   2.0000      -0.407973       -11.1015
  63   2.0000      -0.353061        -9.6073
  64   2.0000      -0.334912        -9.1134
  65   2.0000      -0.326646        -8.8885
  66   2.0000      -0.288670        -7.8551
  67   0.0000       0.029526         0.8034
  68   0.0000       0.076149         2.0721
  69   0.0000       0.101784         2.7697
  70   0.0000       0.115908         3.1540
  71   0.0000       0.140974         3.8361

MULLIKEN ATOMIC CHARGES
-----------------------
   0 S :    0.115167
   1 C :   -0.144200
   2 C :   -0.087493
   3 C :    0.018957
   4 C :   -0.138884
   5 H :    0.007666
   6 C :    0.112683
   7 H :    0.036966
   8 H :    0.021753
   9 C :   -0.123901
  10 H :    0.017311
  11 H :    0.034944
  12 C :   -0.018679
  13 H :    0.031179
  14 H :    0.015461
  15 H :    0.039593
  16 S :    0.120162
  17 C :   -0.088130
  18 C :   -0.044103
  19 C :   -0.092889
  20 C :   -0.128411
  21 H :    0.028959
  22 C :    0.093317
  23 H :    0.008390
  24 H :    0.025525
  25 C :   -0.072207
  26 H :    0.030326
  27 H :    0.015064
  28 C :   -0.067960
  29 H :    0.037055
  30 H :    0.038650
  31 H :    0.038229
  32 H :    0.058758
  33 H :    0.060743
Sum of atomic charges:    0.0000000

LOEWDIN ATOMIC CHARGES
----------------------
   0 S :    0.405893
   1 C :   -0.197789
   2 C :   -0.058887
   3 C :   -0.064323
   4 C :   -0.199651
   5 H :    0.021966
   6 C :   -0.019960
   7 H :    0.027249
   8 H :    0.031436
   9 C :   -0.043552
  10 H :    0.015636
  11 H :    0.027971
  12 C :   -0.064330
  13 H :    0.025255
  14 H :    0.018733
  15 H :    0.033177
  16 S :    0.455151
  17 C :   -0.202610
  18 C :   -0.071045
  19 C :   -0.060459
  20 C :   -0.227268
  21 H :    0.036853
  22 C :   -0.036948
  23 H :    0.028407
  24 H :    0.036527
  25 C :   -0.039780
  26 H :    0.025567
  27 H :    0.015809
  28 C :   -0.073251
  29 H :    0.027811
  30 H :    0.023656
  31 H :    0.031139
  32 H :    0.036186
  33 H :    0.035433

  Mayer bond orders larger than 0.100000
B(  0-S ,  1-C ) :   1.1203 B(  0-S ,  4-C ) :   1.1651 B(  1-C ,  2-C ) :   1.6257
B(  1-C , 32-H ) :   0.9626 B(  2-C ,  3-C ) :   1.2439 B(  2-C ,  6-C ) :   1.0223
B(  3-C ,  4-C ) :   1.5586 B(  3-C ,  5-H ) :   0.9916 B(  4-C , 20-C ) :   1.0147
B(  6-C ,  7-H ) :   0.9403 B(  6-C ,  8-H ) :   0.9421 B(  6-C ,  9-C ) :   1.0493
B(  9-C , 10-H ) :   0.9563 B(  9-C , 11-H ) :   0.9592 B(  9-C , 12-C ) :   1.0887
B( 12-C , 13-H ) :   0.9752 B( 12-C , 14-H ) :   0.9719 B( 12-C , 15-H ) :   0.9721
B( 16-S , 17-C ) :   1.1679 B( 16-S , 20-C ) :   1.1761 B( 17-C , 18-C ) :   1.5966
B( 17-C , 33-H ) :   0.9632 B( 18-C , 19-C ) :   1.2509 B( 18-C , 21-H ) :   0.9877
B( 19-C , 20-C ) :   1.5552 B( 19-C , 22-C ) :   1.0757 B( 22-C , 23-H ) :   0.9229
B( 22-C , 24-H ) :   0.9244 B( 22-C , 25-C ) :   1.0797 B( 25-C , 26-H ) :   0.9538
B( 25-C , 27-H ) :   0.9547 B( 25-C , 28-C ) :   1.0838 B( 28-C , 29-H ) :   0.9723
B( 28-C , 30-H ) :   0.9719 B( 28-C , 31-H ) :   0.9725

Dispersion correction           -0.014689125
FINAL SINGLE POINT ENERGY     -1339.881059089805

DIPOLE MOMENT
-------------
                                X             Y             Z
Electronic contribution:      9.96072      -6.15063     -22.60453
Nuclear contribution   :    -10.26481       6.00106      23.20772
                        -----------------------------------------
Total Dipole Moment    :     -0.30409      -0.14957       0.60318
                        -----------------------------------------
Magnitude (a.u.)       :      0.69186
Magnitude (Debye)      :      1.75857

Rotational constants in cm-1:     0.019185     0.008384     0.007468
Rotational constants in MHz :   575.138372   251.335867   223.877533

                             ****ORCA TERMINATED NORMALLY****
TOTAL RUN TIME: 0 days 0 hours 0 minutes 22 seconds 77 msec
