                         Program Version 4.2.1 -  RELEASE  -
|  1> ! wB97X-D3 SP def2-SVP
|  2> %pal
|  3> nprocs 24
|  4> end
|  5>
|  6> * xyz 0 1
|  7> S 	 -70.5335 	 15.4429 	 -77.1988
|  8> C 	 -68.9278 	 15.3923 	 -77.831
|  9> C 	 -68.2316 	 14.2499 	 -77.3611
| 10> C 	 -69.0152 	 13.5731 	 -76.377
| 11> C 	 -70.2873 	 14.1425 	 -76.0652
| 12> H 	 -68.7929 	 12.6526 	 -75.8946
| 13> C 	 -66.9171 	 13.7719 	 -77.875
| 14> H 	 -67.1201 	 13.1897 	 -78.7996
| 15> H 	 -66.6248 	 12.9624 	 -77.1704
| 16> C 	 -65.8303 	 14.8217 	 -77.9769
| 17> H 	 -64.9344 	 14.4059 	 -78.4585
| 18> H 	 -66.0901 	 15.529 	 -78.7538
| 19> C 	 -65.5505 	 15.6434 	 -76.664
| 20> H 	 -64.9593 	 15.0612 	 -75.9983
| 21> H 	 -65.0105 	 16.5993 	 -76.9011
| 22> H 	 -66.4404 	 15.8502 	 -76.1193
| 23> S 	 -72.9809 	 13.8129 	 -75.6169
| 24> C 	 -73.5171 	 13.2789 	 -74.0533
| 25> C 	 -72.4435 	 12.8666 	 -73.3035
| 26> C 	 -71.1853 	 13.1329 	 -73.8546
| 27> C 	 -71.2759 	 13.6477 	 -75.1349
| 28> H 	 -72.6886 	 12.4124 	 -72.3323
| 29> C 	 -69.9409 	 12.8045 	 -73.0018
| 30> H 	 -69.1164 	 12.6932 	 -73.7429
| 31> H 	 -70.0814 	 11.8208 	 -72.4905
| 32> C 	 -69.5443 	 13.9644 	 -72.1017
| 33> H 	 -70.3882 	 14.3249 	 -71.4099
| 34> H 	 -69.2142 	 14.7937 	 -72.6825
| 35> C 	 -68.403 	 13.6922 	 -71.089
| 36> H 	 -68.0048 	 14.6648 	 -70.7716
| 37> H 	 -67.5843 	 13.1424 	 -71.5334
| 38> H 	 -68.7768 	 13.157 	 -70.1894
| 39> H 	 -68.5138 	 15.9467 	 -78.6146
| 40> H 	 -74.5268 	 13.2778 	 -73.6931
| 41> *
| 42>
| 43>                          ****END OF INPUT****

CARTESIAN COORDINATES (ANGSTROEM)
---------------------------------
  S    -70.533500   15.442900  -77.198800
  C    -68.927800   15.392300  -77.831000
  C    -68.231600   14.249900  -77.361100
  C    -69.015200   13.573100  -76.377000
  C    -70.287300   14.142500  -76.065200
  H    -68.792900   12.652600  -75.894600
  C    -66.917100   13.771900  -77.875000
  H    -67.120100   13.189700  -78.799600
  H    -66.624800   12.962400  -77.170400
  C    -65.830300   14.821700  -77.976900
  H    -64.934400   14.405900  -78.458500
  H    -66.090100   15.529000  -78.753800
  C    -65.550500   15.643400  -76.664000
  H    -64.959300   15.061200  -75.998300
  H    -65.010500   16.599300  -76.901100
  H    -66.440400   15.850200  -76.119300
  S    -72.980900   13.812900  -75.616900
  C    -73.517100   13.278900  -74.053300
  C    -72.443500   12.866600  -73.303500
  C    -71.185300   13.132900  -73.854600
  C    -71.275900   13.647700  -75.134900
  H    -72.688600   12.412400  -72.332300
  C    -69.940900   12.804500  -73.001800
  H    -69.116400   12.693200  -73.742900
  H    -70.081400   11.820800  -72.490500
  C    -69.544300   13.964400  -72.101700
  H    -70.388200   14.324900  -71.409900
  H    -69.214200   14.793700  -72.682500
  C    -68.403000   13.692200  -71.089000
  H    -68.004800   14.664800  -70.771600
  H    -67.584300   13.142400  -71.533400
  H    -68.776800   13.157000  -70.189400
  H    -68.513800   15.946700  -78.614600
  H    -74.526800   13.277800  -73.693100

 Total Charge           Charge          ....    0
 Multiplicity           Mult            ....    1
 Number of Electrons    NEL             ....  134
 Basis Dimension        Dim             ....  322

ORBITAL ENERGIES
----------------

  NO   OCC          E(Eh)            E(eV)
   0   2.0000     -88.970217     -2421.0027
   1   2.0000     -88.965444     -2420.8728
   2   2.0000     -10.332673      -281.1663
   3   2.0000     -10.331169      -281.1254
   4   2.0000     -10.314519      -280.6723
   5   2.0000     -10.310714      -280.5688
   6   2.0000     -10.303635      -280.3762
   7   2.0000     -10.302909      -280.3564
   8   2.0000     -10.300194      -280.2825
   9   2.0000     -10.295978      -280.1678
  10   2.0000     -10.294595      -280.1302
  11   2.0000     -10.290947      -280.0309
  12   2.0000     -10.290136      -280.0088
  13   2.0000     -10.287492      -279.9369
  14   2.0000     -10.278383      -279.6890
  15   2.0000     -10.277709      -279.6707
  16   2.0000      -8.084709      -219.9961
  17   2.0000      -8.080120      -219.8712
  18   2.0000      -6.043140      -164.4422
  19   2.0000      -6.039090      -164.3320
  20   2.0000      -6.038658      -164.3202
  21   2.0000      -6.035711      -164.2400
  22   2.0000      -6.034654      -164.2113
  23   2.0000      -6.030841      -164.1075
  24   2.0000      -1.007415       -27.4132
  25   2.0000      -0.985453       -26.8156
  26   2.0000      -0.914424       -24.8827
  27   2.0000      -0.906167       -24.6580
  28   2.0000      -0.868185       -23.6245
  29   2.0000      -0.852201       -23.1896
  30   2.0000      -0.844049       -22.9678
  31   2.0000      -0.810481       -22.0543
  32   2.0000      -0.784135       -21.3374
  33   2.0000      -0.775451       -21.1011
  34   2.0000      -0.713490       -19.4151
  35   2.0000      -0.706616       -19.2280
  36   2.0000      -0.688325       -18.7303
  37   2.0000      -0.663623       -18.0581
  38   2.0000      -0.639001       -17.3881
  39   2.0000      -0.611167       -16.6307
  40   2.0000      -0.591975       -16.1084
  41   2.0000      -0.574000       -15.6193
  42   2.0000      -0.563770       -15.3410
  43   2.0000      -0.555815       -15.1245
  44   2.0000      -0.538450       -14.6520
  45   2.0000      -0.524453       -14.2711
  46   2.0000      -0.516245       -14.0477
  47   2.0000      -0.509955       -13.8766
  48   2.0000      -0.507520       -13.8103
  49   2.0000      -0.503378       -13.6976
  50   2.0000      -0.492156       -13.3923
  51   2.0000      -0.479556       -13.0494
  52   2.0000      -0.474889       -12.9224
  53   2.0000      -0.462492       -12.5851
  54   2.0000      -0.458722       -12.4825
  55   2.0000      -0.446182       -12.1412
  56   2.0000      -0.442827       -12.0499
  57   2.0000      -0.439865       -11.9693
  58   2.0000      -0.433811       -11.8046
  59   2.0000      -0.430427       -11.7125
  60   2.0000      -0.418241       -11.3809
  61   2.0000      -0.410918       -11.1817
  62   2.0000      -0.408962       -11.1284
  63   2.0000      -0.353495        -9.6191
  64   2.0000      -0.334713        -9.1080
  65   2.0000      -0.328050        -8.9267
  66   2.0000      -0.282336        -7.6827
  67   0.0000       0.018650         0.5075
  68   0.0000       0.075299         2.0490
  69   0.0000       0.104703         2.8491
  70   0.0000       0.125955         3.4274
  71   0.0000       0.130491         3.5508

MULLIKEN ATOMIC CHARGES
-----------------------
   0 S :    0.127454
   1 C :   -0.086790
   2 C :   -0.134613
   3 C :    0.016232
   4 C :   -0.150645
   5 H :    0.006038
   6 C :    0.075926
   7 H :    0.051967
   8 H :    0.017650
   9 C :   -0.068269
  10 H :    0.025568
  11 H :    0.015663
  12 C :   -0.044411
  13 H :    0.023608
  14 H :    0.045266
  15 H :    0.041849
  16 S :    0.097846
  17 C :   -0.087363
  18 C :   -0.050273
  19 C :   -0.030486
  20 C :   -0.154402
  21 H :    0.023600
  22 C :    0.080889
  23 H :    0.010952
  24 H :    0.042098
  25 C :   -0.096649
  26 H :    0.038427
  27 H :    0.033364
  28 C :   -0.047166
  29 H :    0.033122
  30 H :    0.024825
  31 H :    0.038314
  32 H :    0.028097
  33 H :    0.052317
Sum of atomic charges:   -0.0000000

LOEWDIN ATOMIC CHARGES
----------------------
   0 S :    0.433857
   1 C :   -0.204759
   2 C :   -0.063127
   3 C :   -0.066432
   4 C :   -0.203759
   5 H :    0.020693
   6 C :   -0.040392
   7 H :    0.043081
   8 H :    0.031755
   9 C :   -0.044646
  10 H :    0.027980
  11 H :    0.019177
  12 C :   -0.059605
  13 H :    0.019629
  14 H :    0.035114
  15 H :    0.024157
  16 S :    0.395377
  17 C :   -0.183831
  18 C :   -0.075368
  19 C :   -0.056970
  20 C :   -0.187310
  21 H :    0.035343
  22 C :   -0.031155
  23 H :    0.030601
  24 H :    0.036440
  25 C :   -0.044491
  26 H :    0.031602
  27 H :    0.023976
  28 C :   -0.067280
  29 H :    0.028472
  30 H :    0.018744
  31 H :    0.026242
  32 H :    0.017879
  33 H :    0.029004

  Mayer bond orders larger than 0.100000
B(  0-S ,  1-C ) :   1.1647 B(  0-S ,  4-C ) :   1.1669 B(  1-C ,  2-C ) :   1.5365
B(  1-C ,  4-C ) :   0.1103 B(  1-C , 32-H ) :   0.9769 B(  2-C ,  3-C ) :   1.3012
B(  2-C ,  6-C ) :   1.0162 B(  3-C ,  4-C ) :   1.5039 B(  3-C ,  5-H ) :   0.9878
B(  4-C , 20-C ) :   1.0917 B(  6-C ,  7-H ) :   0.9297 B(  6-C ,  8-H ) :   0.9421
B(  6-C ,  9-C ) :   1.0759 B(  9-C , 10-H ) :   0.9535 B(  9-C , 11-H ) :   0.9546
B(  9-C , 12-C ) :   1.0595 B( 12-C , 13-H ) :   0.9779 B( 12-C , 14-H ) :   0.9768
B( 12-C , 15-H ) :   0.9754 B( 16-S , 17-C ) :   1.1522 B( 16-S , 20-C ) :   1.1313
B( 17-C , 18-C ) :   1.6103 B( 17-C , 20-C ) :   0.1011 B( 17-C , 33-H ) :   0.9695
B( 18-C , 19-C ) :   1.2480 B( 18-C , 21-H ) :   0.9875 B( 19-C , 20-C ) :   1.5901
B( 19-C , 22-C ) :   1.0298 B( 22-C , 23-H ) :   0.9226 B( 22-C , 24-H ) :   0.9434
B( 22-C , 25-C ) :   1.0679 B( 25-C , 26-H ) :   0.9602 B( 25-C , 27-H ) :   0.9547
B( 25-C , 28-C ) :   1.0809 B( 28-C , 29-H ) :   0.9755 B( 28-C , 30-H ) :   0.9734
B( 28-C , 31-H ) :   0.9788

Dispersion correction           -0.014047100
FINAL SINGLE POINT ENERGY     -1339.880838517130

DIPOLE MOMENT
-------------
                                X             Y             Z
Electronic contribution:    -27.09501       1.24624     -11.95427
Nuclear contribution   :     27.56391      -1.49907      12.18711
                        -----------------------------------------
Total Dipole Moment    :      0.46890      -0.25282       0.23284
                        -----------------------------------------
Magnitude (a.u.)       :      0.58138
Magnitude (Debye)      :      1.47774

Rotational constants in cm-1:     0.018141     0.009007     0.006538
Rotational constants in MHz :   543.858540   270.018339   196.004670

                             ****ORCA TERMINATED NORMALLY****
TOTAL RUN TIME: 0 days 0 hours 0 minutes 21 seconds 491 msec
