                         Program Version 4.2.1 -  RELEASE  -
|  1> ! wB97X-D3 SP def2-SVP
|  2> %pal
|  3> nprocs 24
|  4> end
|  5>
|  6> * xyz 0 1
|  7> S 	 -52.7163 	 -45.8431 	 -78.7337
|  8> C 	 -54.1206 	 -44.6859 	 -78.6741
|  9> C 	 -53.7204 	 -43.4242 	 -78.3033
| 10> C 	 -52.3336 	 -43.3207 	 -78.0401
| 11> C 	 -51.6388 	 -44.5007 	 -78.3196
| 12> H 	 -51.8781 	 -42.4385 	 -77.5828
| 13> C 	 -54.6837 	 -42.2393 	 -78.256
| 14> H 	 -54.6743 	 -41.6686 	 -77.2878
| 15> H 	 -55.6357 	 -42.7026 	 -78.3028
| 16> C 	 -54.6713 	 -41.2631 	 -79.486
| 17> H 	 -54.1674 	 -41.7688 	 -80.2317
| 18> H 	 -55.6629 	 -41.0658 	 -79.8672
| 19> C 	 -53.8729 	 -39.9512 	 -79.1313
| 20> H 	 -52.8229 	 -40.1609 	 -78.8567
| 21> H 	 -53.938 	 -39.3734 	 -80.0951
| 22> H 	 -54.2708 	 -39.454 	 -78.223
| 23> S 	 -49.5062 	 -45.6564 	 -76.9921
| 24> C 	 -47.904 	 -45.2507 	 -77.4535
| 25> C 	 -47.8926 	 -44.283 	 -78.47
| 26> C 	 -49.2139 	 -43.9471 	 -78.8965
| 27> C 	 -50.1914 	 -44.7268 	 -78.2801
| 28> H 	 -46.9818 	 -43.8652 	 -78.8763
| 29> C 	 -49.5578 	 -42.8756 	 -79.967
| 30> H 	 -50.5049 	 -43.0622 	 -80.3469
| 31> H 	 -48.8411 	 -42.9316 	 -80.8274
| 32> C 	 -49.5909 	 -41.4293 	 -79.5574
| 33> H 	 -50.5035 	 -41.1578 	 -79.0377
| 34> H 	 -49.7368 	 -40.8659 	 -80.4765
| 35> C 	 -48.3362 	 -40.8723 	 -78.8515
| 36> H 	 -47.3386 	 -40.9765 	 -79.3341
| 37> H 	 -48.322 	 -41.3942 	 -77.8819
| 38> H 	 -48.4202 	 -39.8462 	 -78.5795
| 39> H 	 -55.1309 	 -45.0561 	 -78.9677
| 40> H 	 -47.0713 	 -45.7924 	 -76.9587
| 41> *
| 42>
| 43>                          ****END OF INPUT****

CARTESIAN COORDINATES (ANGSTROEM)
---------------------------------
  S    -52.716300  -45.843100  -78.733700
  C    -54.120600  -44.685900  -78.674100
  C    -53.720400  -43.424200  -78.303300
  C    -52.333600  -43.320700  -78.040100
  C    -51.638800  -44.500700  -78.319600
  H    -51.878100  -42.438500  -77.582800
  C    -54.683700  -42.239300  -78.256000
  H    -54.674300  -41.668600  -77.287800
  H    -55.635700  -42.702600  -78.302800
  C    -54.671300  -41.263100  -79.486000
  H    -54.167400  -41.768800  -80.231700
  H    -55.662900  -41.065800  -79.867200
  C    -53.872900  -39.951200  -79.131300
  H    -52.822900  -40.160900  -78.856700
  H    -53.938000  -39.373400  -80.095100
  H    -54.270800  -39.454000  -78.223000
  S    -49.506200  -45.656400  -76.992100
  C    -47.904000  -45.250700  -77.453500
  C    -47.892600  -44.283000  -78.470000
  C    -49.213900  -43.947100  -78.896500
  C    -50.191400  -44.726800  -78.280100
  H    -46.981800  -43.865200  -78.876300
  C    -49.557800  -42.875600  -79.967000
  H    -50.504900  -43.062200  -80.346900
  H    -48.841100  -42.931600  -80.827400
  C    -49.590900  -41.429300  -79.557400
  H    -50.503500  -41.157800  -79.037700
  H    -49.736800  -40.865900  -80.476500
  C    -48.336200  -40.872300  -78.851500
  H    -47.338600  -40.976500  -79.334100
  H    -48.322000  -41.394200  -77.881900
  H    -48.420200  -39.846200  -78.579500
  H    -55.130900  -45.056100  -78.967700
  H    -47.071300  -45.792400  -76.958700

 Total Charge           Charge          ....    0
 Multiplicity           Mult            ....    1
 Number of Electrons    NEL             ....  134
 Basis Dimension        Dim             ....  322

ORBITAL ENERGIES
----------------

  NO   OCC          E(Eh)            E(eV)
   0   2.0000     -88.966282     -2420.8956
   1   2.0000     -88.964631     -2420.8507
   2   2.0000     -10.333695      -281.1941
   3   2.0000     -10.322971      -280.9023
   4   2.0000     -10.321726      -280.8684
   5   2.0000     -10.321241      -280.8553
   6   2.0000     -10.305219      -280.4193
   7   2.0000     -10.303365      -280.3688
   8   2.0000     -10.298185      -280.2279
   9   2.0000     -10.297818      -280.2179
  10   2.0000     -10.292751      -280.0800
  11   2.0000     -10.289774      -279.9990
  12   2.0000     -10.287762      -279.9442
  13   2.0000     -10.285227      -279.8752
  14   2.0000     -10.283726      -279.8344
  15   2.0000     -10.276243      -279.6308
  16   2.0000      -8.080490      -219.8813
  17   2.0000      -8.079890      -219.8650
  18   2.0000      -6.038793      -164.3239
  19   2.0000      -6.038360      -164.3121
  20   2.0000      -6.034763      -164.2143
  21   2.0000      -6.034692      -164.2123
  22   2.0000      -6.031486      -164.1251
  23   2.0000      -6.030625      -164.1017
  24   2.0000      -1.005663       -27.3655
  25   2.0000      -0.980506       -26.6809
  26   2.0000      -0.909531       -24.7496
  27   2.0000      -0.906204       -24.6591
  28   2.0000      -0.864686       -23.5293
  29   2.0000      -0.847666       -23.0662
  30   2.0000      -0.841574       -22.9004
  31   2.0000      -0.810955       -22.0672
  32   2.0000      -0.788063       -21.4443
  33   2.0000      -0.769941       -20.9512
  34   2.0000      -0.706277       -19.2188
  35   2.0000      -0.700499       -19.0615
  36   2.0000      -0.690065       -18.7776
  37   2.0000      -0.660937       -17.9850
  38   2.0000      -0.639514       -17.4020
  39   2.0000      -0.618534       -16.8312
  40   2.0000      -0.594737       -16.1836
  41   2.0000      -0.565786       -15.3958
  42   2.0000      -0.558637       -15.2013
  43   2.0000      -0.549767       -14.9599
  44   2.0000      -0.544983       -14.8297
  45   2.0000      -0.528713       -14.3870
  46   2.0000      -0.516463       -14.0537
  47   2.0000      -0.510184       -13.8828
  48   2.0000      -0.502262       -13.6672
  49   2.0000      -0.492521       -13.4022
  50   2.0000      -0.487853       -13.2752
  51   2.0000      -0.478200       -13.0125
  52   2.0000      -0.474915       -12.9231
  53   2.0000      -0.467824       -12.7301
  54   2.0000      -0.456344       -12.4177
  55   2.0000      -0.443874       -12.0784
  56   2.0000      -0.442818       -12.0497
  57   2.0000      -0.441036       -12.0012
  58   2.0000      -0.436168       -11.8687
  59   2.0000      -0.429016       -11.6741
  60   2.0000      -0.423274       -11.5179
  61   2.0000      -0.411700       -11.2029
  62   2.0000      -0.405328       -11.0295
  63   2.0000      -0.338391        -9.2081
  64   2.0000      -0.334034        -9.0895
  65   2.0000      -0.326991        -8.8979
  66   2.0000      -0.299845        -8.1592
  67   0.0000       0.030768         0.8372
  68   0.0000       0.062912         1.7119
  69   0.0000       0.106021         2.8850
  70   0.0000       0.118812         3.2330
  71   0.0000       0.127743         3.4761

MULLIKEN ATOMIC CHARGES
-----------------------
   0 S :    0.095554
   1 C :   -0.149913
   2 C :   -0.083636
   3 C :    0.036472
   4 C :   -0.177249
   5 H :    0.027276
   6 C :    0.058522
   7 H :    0.038729
   8 H :    0.000504
   9 C :   -0.025318
  10 H :    0.013953
  11 H :    0.032650
  12 C :   -0.094033
  13 H :    0.031979
  14 H :    0.052559
  15 H :    0.040935
  16 S :    0.117912
  17 C :   -0.118726
  18 C :   -0.018106
  19 C :   -0.054326
  20 C :   -0.141431
  21 H :    0.018854
  22 C :    0.108861
  23 H :    0.012230
  24 H :    0.029760
  25 C :   -0.065577
  26 H :    0.009836
  27 H :    0.019460
  28 C :   -0.064062
  29 H :    0.038616
  30 H :    0.038434
  31 H :    0.024531
  32 H :    0.066658
  33 H :    0.078094
Sum of atomic charges:   -0.0000000

LOEWDIN ATOMIC CHARGES
----------------------
   0 S :    0.369696
   1 C :   -0.179134
   2 C :   -0.065726
   3 C :   -0.062624
   4 C :   -0.180850
   5 H :    0.035184
   6 C :   -0.031772
   7 H :    0.033865
   8 H :    0.024725
   9 C :   -0.028676
  10 H :    0.015189
  11 H :    0.024131
  12 C :   -0.071130
  13 H :    0.022296
  14 H :    0.034502
  15 H :    0.025994
  16 S :    0.433778
  17 C :   -0.198147
  18 C :   -0.070987
  19 C :   -0.049963
  20 C :   -0.223441
  21 H :    0.031312
  22 C :   -0.024546
  23 H :    0.024019
  24 H :    0.035759
  25 C :   -0.041293
  26 H :    0.017485
  27 H :    0.024845
  28 C :   -0.073540
  29 H :    0.027923
  30 H :    0.029294
  31 H :    0.021918
  32 H :    0.034242
  33 H :    0.035671

  Mayer bond orders larger than 0.100000
B(  0-S ,  1-C ) :   1.1197 B(  0-S ,  4-C ) :   1.1575 B(  1-C ,  2-C ) :   1.6267
B(  1-C ,  4-C ) :   0.1010 B(  1-C , 32-H ) :   0.9634 B(  2-C ,  3-C ) :   1.2270
B(  2-C ,  6-C ) :   1.0360 B(  3-C ,  4-C ) :   1.5759 B(  3-C ,  5-H ) :   0.9909
B(  4-C , 20-C ) :   1.0012 B(  6-C ,  7-H ) :   0.9488 B(  6-C ,  8-H ) :   0.9328
B(  6-C ,  9-C ) :   1.0449 B(  9-C , 10-H ) :   0.9572 B(  9-C , 11-H ) :   0.9620
B(  9-C , 12-C ) :   1.0672 B( 12-C , 13-H ) :   0.9762 B( 12-C , 14-H ) :   0.9747
B( 12-C , 15-H ) :   0.9774 B( 16-S , 17-C ) :   1.1911 B( 16-S , 20-C ) :   1.1660
B( 17-C , 18-C ) :   1.5439 B( 17-C , 20-C ) :   0.1036 B( 17-C , 33-H ) :   0.9663
B( 18-C , 19-C ) :   1.2700 B( 18-C , 21-H ) :   0.9978 B( 19-C , 20-C ) :   1.5733
B( 19-C , 22-C ) :   1.0368 B( 22-C , 23-H ) :   0.9213 B( 22-C , 24-H ) :   0.9407
B( 22-C , 25-C ) :   1.0898 B( 25-C , 26-H ) :   0.9457 B( 25-C , 27-H ) :   0.9478
B( 25-C , 28-C ) :   1.0783 B( 28-C , 29-H ) :   0.9757 B( 28-C , 30-H ) :   0.9701
B( 28-C , 31-H ) :   0.9718

Dispersion correction           -0.015829078
FINAL SINGLE POINT ENERGY     -1339.877045340405

DIPOLE MOMENT
-------------
                                X             Y             Z
Electronic contribution:      3.30146     -29.76979       8.05302
Nuclear contribution   :     -3.38233      30.40346      -8.21600
                        -----------------------------------------
Total Dipole Moment    :     -0.08087       0.63367      -0.16299
                        -----------------------------------------
Magnitude (a.u.)       :      0.65927
Magnitude (Debye)      :      1.67574

Rotational constants in cm-1:     0.017818     0.010389     0.007176
Rotational constants in MHz :   534.184235   311.451819   215.118105

                             ****ORCA TERMINATED NORMALLY****
TOTAL RUN TIME: 0 days 0 hours 0 minutes 22 seconds 898 msec
