                         Program Version 4.2.1 -  RELEASE  -
|  1> ! wB97X-D3 SP def2-SVP
|  2> %pal
|  3> nprocs 24
|  4> end
|  5>
|  6> * xyz 0 1
|  7> S 	 46.8639 	 -34.4479 	 -120.823
|  8> C 	 46.8837 	 -33.311 	 -122.137
|  9> C 	 45.8399 	 -32.3899 	 -122.058
| 10> C 	 45.1742 	 -32.531 	 -120.762
| 11> C 	 45.5272 	 -33.6244 	 -120.01
| 12> H 	 44.3967 	 -31.8277 	 -120.458
| 13> C 	 45.5577 	 -31.4393 	 -123.193
| 14> H 	 45.8565 	 -31.8908 	 -124.134
| 15> H 	 46.2727 	 -30.6891 	 -123.252
| 16> C 	 44.106 	 -30.9225 	 -123.292
| 17> H 	 43.657 	 -31.8418 	 -123.383
| 18> H 	 43.7647 	 -30.5277 	 -122.301
| 19> C 	 43.6992 	 -30.0231 	 -124.463
| 20> H 	 43.943 	 -30.5652 	 -125.358
| 21> H 	 42.6701 	 -29.7289 	 -124.377
| 22> H 	 44.3013 	 -29.0909 	 -124.418
| 23> S 	 45.899 	 -34.6062 	 -117.51
| 24> C 	 44.5246 	 -35.0473 	 -116.487
| 25> C 	 43.3631 	 -34.6111 	 -117.083
| 26> C 	 43.596 	 -34.0975 	 -118.366
| 27> C 	 44.9149 	 -34.0698 	 -118.791
| 28> H 	 42.4201 	 -34.8128 	 -116.673
| 29> C 	 42.4423 	 -33.6879 	 -119.209
| 30> H 	 41.723 	 -34.5147 	 -119.153
| 31> H 	 42.6125 	 -33.6853 	 -120.227
| 32> C 	 41.8134 	 -32.3323 	 -118.941
| 33> H 	 42.6294 	 -31.654 	 -118.905
| 34> H 	 41.2499 	 -32.2266 	 -117.984
| 35> C 	 40.7964 	 -31.974 	 -120
| 36> H 	 41.2456 	 -32.0097 	 -121.01
| 37> H 	 40.4431 	 -30.9358 	 -119.932
| 38> H 	 39.9105 	 -32.6434 	 -120.037
| 39> H 	 47.341 	 -33.5674 	 -123.09
| 40> H 	 44.54 	 -35.4205 	 -115.466
| 41> *
| 42>
| 43>                          ****END OF INPUT****

CARTESIAN COORDINATES (ANGSTROEM)
---------------------------------
  S     46.863900  -34.447900  -120.823000
  C     46.883700  -33.311000  -122.137000
  C     45.839900  -32.389900  -122.058000
  C     45.174200  -32.531000  -120.762000
  C     45.527200  -33.624400  -120.010000
  H     44.396700  -31.827700  -120.458000
  C     45.557700  -31.439300  -123.193000
  H     45.856500  -31.890800  -124.134000
  H     46.272700  -30.689100  -123.252000
  C     44.106000  -30.922500  -123.292000
  H     43.657000  -31.841800  -123.383000
  H     43.764700  -30.527700  -122.301000
  C     43.699200  -30.023100  -124.463000
  H     43.943000  -30.565200  -125.358000
  H     42.670100  -29.728900  -124.377000
  H     44.301300  -29.090900  -124.418000
  S     45.899000  -34.606200  -117.510000
  C     44.524600  -35.047300  -116.487000
  C     43.363100  -34.611100  -117.083000
  C     43.596000  -34.097500  -118.366000
  C     44.914900  -34.069800  -118.791000
  H     42.420100  -34.812800  -116.673000
  C     42.442300  -33.687900  -119.209000
  H     41.723000  -34.514700  -119.153000
  H     42.612500  -33.685300  -120.227000
  C     41.813400  -32.332300  -118.941000
  H     42.629400  -31.654000  -118.905000
  H     41.249900  -32.226600  -117.984000
  C     40.796400  -31.974000  -120.000000
  H     41.245600  -32.009700  -121.010000
  H     40.443100  -30.935800  -119.932000
  H     39.910500  -32.643400  -120.037000
  H     47.341000  -33.567400  -123.090000
  H     44.540000  -35.420500  -115.466000

 Total Charge           Charge          ....    0
 Multiplicity           Mult            ....    1
 Number of Electrons    NEL             ....  134
 Basis Dimension        Dim             ....  322

ORBITAL ENERGIES
----------------

  NO   OCC          E(Eh)            E(eV)
   0   2.0000     -88.966567     -2420.9034
   1   2.0000     -88.965214     -2420.8666
   2   2.0000     -10.332845      -281.1710
   3   2.0000     -10.323368      -280.9131
   4   2.0000     -10.318709      -280.7863
   5   2.0000     -10.312969      -280.6301
   6   2.0000     -10.308275      -280.5024
   7   2.0000     -10.299859      -280.2734
   8   2.0000     -10.296627      -280.1855
   9   2.0000     -10.289801      -279.9997
  10   2.0000     -10.288305      -279.9590
  11   2.0000     -10.285034      -279.8700
  12   2.0000     -10.284321      -279.8506
  13   2.0000     -10.282992      -279.8144
  14   2.0000     -10.281196      -279.7656
  15   2.0000     -10.277678      -279.6698
  16   2.0000      -8.081158      -219.8995
  17   2.0000      -8.080499      -219.8815
  18   2.0000      -6.039744      -164.3498
  19   2.0000      -6.039009      -164.3298
  20   2.0000      -6.035591      -164.2368
  21   2.0000      -6.034798      -164.2152
  22   2.0000      -6.031931      -164.1372
  23   2.0000      -6.031333      -164.1209
  24   2.0000      -1.013180       -27.5700
  25   2.0000      -0.986889       -26.8546
  26   2.0000      -0.917551       -24.9678
  27   2.0000      -0.915382       -24.9088
  28   2.0000      -0.878027       -23.8923
  29   2.0000      -0.854390       -23.2491
  30   2.0000      -0.847411       -23.0592
  31   2.0000      -0.822120       -22.3710
  32   2.0000      -0.785600       -21.3773
  33   2.0000      -0.771128       -20.9834
  34   2.0000      -0.718599       -19.5541
  35   2.0000      -0.701378       -19.0855
  36   2.0000      -0.694044       -18.8859
  37   2.0000      -0.669531       -18.2189
  38   2.0000      -0.644031       -17.5250
  39   2.0000      -0.624219       -16.9859
  40   2.0000      -0.603984       -16.4352
  41   2.0000      -0.573212       -15.5979
  42   2.0000      -0.570069       -15.5124
  43   2.0000      -0.566496       -15.4151
  44   2.0000      -0.532525       -14.4907
  45   2.0000      -0.529108       -14.3977
  46   2.0000      -0.520912       -14.1747
  47   2.0000      -0.510988       -13.9047
  48   2.0000      -0.508065       -13.8252
  49   2.0000      -0.499860       -13.6019
  50   2.0000      -0.496688       -13.5156
  51   2.0000      -0.490660       -13.3515
  52   2.0000      -0.471369       -12.8266
  53   2.0000      -0.466119       -12.6837
  54   2.0000      -0.459013       -12.4904
  55   2.0000      -0.453208       -12.3324
  56   2.0000      -0.448917       -12.2157
  57   2.0000      -0.436791       -11.8857
  58   2.0000      -0.428589       -11.6625
  59   2.0000      -0.428261       -11.6536
  60   2.0000      -0.420730       -11.4486
  61   2.0000      -0.419269       -11.4089
  62   2.0000      -0.412102       -11.2139
  63   2.0000      -0.357562        -9.7298
  64   2.0000      -0.331501        -9.0206
  65   2.0000      -0.327543        -8.9129
  66   2.0000      -0.289735        -7.8841
  67   0.0000       0.024631         0.6702
  68   0.0000       0.072511         1.9731
  69   0.0000       0.115390         3.1399
  70   0.0000       0.118928         3.2362
  71   0.0000       0.123485         3.3602

MULLIKEN ATOMIC CHARGES
-----------------------
   0 S :    0.111987
   1 C :   -0.114312
   2 C :   -0.117022
   3 C :    0.014333
   4 C :   -0.120920
   5 H :    0.004010
   6 C :    0.112656
   7 H :   -0.001354
   8 H :    0.009076
   9 C :   -0.115203
  10 H :    0.017707
  11 H :    0.037559
  12 C :   -0.009118
  13 H :    0.030681
  14 H :    0.040316
  15 H :    0.033812
  16 S :    0.105998
  17 C :   -0.095203
  18 C :   -0.002773
  19 C :   -0.037069
  20 C :   -0.129369
  21 H :    0.001825
  22 C :    0.064492
  23 H :    0.015352
  24 H :   -0.012176
  25 C :   -0.046242
  26 H :    0.020245
  27 H :    0.030541
  28 C :   -0.066930
  29 H :    0.021779
  30 H :    0.035293
  31 H :    0.038673
  32 H :    0.059081
  33 H :    0.062274
Sum of atomic charges:    0.0000000

LOEWDIN ATOMIC CHARGES
----------------------
   0 S :    0.403883
   1 C :   -0.204908
   2 C :   -0.052820
   3 C :   -0.063021
   4 C :   -0.187858
   5 H :    0.028327
   6 C :   -0.032325
   7 H :    0.031576
   8 H :    0.021686
   9 C :   -0.042396
  10 H :    0.014696
  11 H :    0.024246
  12 C :   -0.055835
  13 H :    0.024940
  14 H :    0.028867
  15 H :    0.029400
  16 S :    0.423830
  17 C :   -0.179218
  18 C :   -0.060166
  19 C :   -0.058445
  20 C :   -0.213740
  21 H :    0.026188
  22 C :   -0.034383
  23 H :    0.031607
  24 H :    0.017521
  25 C :   -0.037849
  26 H :    0.016747
  27 H :    0.027731
  28 C :   -0.070808
  29 H :    0.022297
  30 H :    0.027832
  31 H :    0.029123
  32 H :    0.029202
  33 H :    0.034073

  Mayer bond orders larger than 0.100000
B(  0-S ,  1-C ) :   1.1424 B(  0-S ,  4-C ) :   1.1425 B(  1-C ,  2-C ) :   1.6159
B(  1-C , 32-H ) :   0.9592 B(  2-C ,  3-C ) :   1.2396 B(  2-C ,  6-C ) :   1.0284
B(  3-C ,  4-C ) :   1.5650 B(  3-C ,  5-H ) :   0.9900 B(  4-C , 20-C ) :   1.0616
B(  6-C ,  7-H ) :   0.9288 B(  6-C ,  8-H ) :   0.9250 B(  6-C ,  9-C ) :   1.0430
B(  9-C , 10-H ) :   0.9612 B(  9-C , 11-H ) :   0.9526 B(  9-C , 12-C ) :   1.0891
B( 12-C , 13-H ) :   0.9732 B( 12-C , 14-H ) :   0.9724 B( 12-C , 15-H ) :   0.9754
B( 16-S , 17-C ) :   1.1612 B( 16-S , 20-C ) :   1.1456 B( 17-C , 18-C ) :   1.5755
B( 17-C , 20-C ) :   0.1008 B( 17-C , 33-H ) :   0.9667 B( 18-C , 19-C ) :   1.2768
B( 18-C , 21-H ) :   0.9992 B( 19-C , 20-C ) :   1.5590 B( 19-C , 22-C ) :   1.0603
B( 22-C , 23-H ) :   0.9251 B( 22-C , 24-H ) :   0.9293 B( 22-C , 25-C ) :   1.0552
B( 25-C , 26-H ) :   0.9498 B( 25-C , 27-H ) :   0.9490 B( 25-C , 28-C ) :   1.0918
B( 28-C , 29-H ) :   0.9698 B( 28-C , 30-H ) :   0.9723 B( 28-C , 31-H ) :   0.9735

Dispersion correction           -0.014551488
FINAL SINGLE POINT ENERGY     -1339.871734396728

DIPOLE MOMENT
-------------
                                X             Y             Z
Electronic contribution:     22.87390     -19.02580      16.94847
Nuclear contribution   :    -23.54252      19.35066     -17.31808
                        -----------------------------------------
Total Dipole Moment    :     -0.66862       0.32486      -0.36960
                        -----------------------------------------
Magnitude (a.u.)       :      0.83017
Magnitude (Debye)      :      2.11013

Rotational constants in cm-1:     0.017871     0.009685     0.006515
Rotational constants in MHz :   535.770954   290.348113   195.307829

                             ****ORCA TERMINATED NORMALLY****
TOTAL RUN TIME: 0 days 0 hours 0 minutes 21 seconds 114 msec
