                         Program Version 4.2.1 -  RELEASE  -
|  1> ! wB97X-D3 SP def2-SVP
|  2> %pal
|  3> nprocs 24
|  4> end
|  5>
|  6> * xyz 0 1
|  7> S 	 -44.2405 	 -7.60545 	 -18.0299
|  8> C 	 -45.1172 	 -9.05076 	 -18.3276
|  9> C 	 -45.9347 	 -9.42196 	 -17.2482
| 10> C 	 -46.1053 	 -8.26944 	 -16.4153
| 11> C 	 -45.156 	 -7.29915 	 -16.559
| 12> H 	 -46.7483 	 -8.2008 	 -15.5751
| 13> C 	 -46.8884 	 -10.5183 	 -17.0891
| 14> H 	 -47.2045 	 -10.5791 	 -16.0567
| 15> H 	 -46.4259 	 -11.4201 	 -17.4012
| 16> C 	 -48.2153 	 -10.3695 	 -17.9347
| 17> H 	 -48.6747 	 -9.39435 	 -17.8137
| 18> H 	 -47.8607 	 -10.3946 	 -18.973
| 19> C 	 -49.2543 	 -11.5032 	 -17.639
| 20> H 	 -49.0075 	 -12.555 	 -17.9275
| 21> H 	 -49.3058 	 -11.4187 	 -16.5338
| 22> H 	 -50.2752 	 -11.3067 	 -18.1232
| 23> S 	 -45.3722 	 -4.56854 	 -17.0698
| 24> C 	 -45.7356 	 -3.49973 	 -15.7763
| 25> C 	 -45.5608 	 -4.10178 	 -14.5191
| 26> C 	 -45.2302 	 -5.53913 	 -14.6293
| 27> C 	 -45.1904 	 -5.94963 	 -15.9411
| 28> H 	 -45.7389 	 -3.49992 	 -13.698
| 29> C 	 -44.802 	 -6.38298 	 -13.418
| 30> H 	 -44.1689 	 -5.60718 	 -12.9636
| 31> H 	 -44.079 	 -7.15131 	 -13.758
| 32> C 	 -45.8786 	 -6.76469 	 -12.3854
| 33> H 	 -46.7181 	 -7.10475 	 -12.9175
| 34> H 	 -46.2826 	 -5.79919 	 -11.9774
| 35> C 	 -45.4642 	 -7.80942 	 -11.3219
| 36> H 	 -44.4058 	 -7.74014 	 -11.0403
| 37> H 	 -45.5805 	 -8.88422 	 -11.5201
| 38> H 	 -45.9822 	 -7.61851 	 -10.4408
| 39> H 	 -44.9634 	 -9.78298 	 -19.163
| 40> H 	 -45.8185 	 -2.43346 	 -15.916
| 41> *
| 42>
| 43>                          ****END OF INPUT****

CARTESIAN COORDINATES (ANGSTROEM)
---------------------------------
  S    -44.240500   -7.605450  -18.029900
  C    -45.117200   -9.050760  -18.327600
  C    -45.934700   -9.421960  -17.248200
  C    -46.105300   -8.269440  -16.415300
  C    -45.156000   -7.299150  -16.559000
  H    -46.748300   -8.200800  -15.575100
  C    -46.888400  -10.518300  -17.089100
  H    -47.204500  -10.579100  -16.056700
  H    -46.425900  -11.420100  -17.401200
  C    -48.215300  -10.369500  -17.934700
  H    -48.674700   -9.394350  -17.813700
  H    -47.860700  -10.394600  -18.973000
  C    -49.254300  -11.503200  -17.639000
  H    -49.007500  -12.555000  -17.927500
  H    -49.305800  -11.418700  -16.533800
  H    -50.275200  -11.306700  -18.123200
  S    -45.372200   -4.568540  -17.069800
  C    -45.735600   -3.499730  -15.776300
  C    -45.560800   -4.101780  -14.519100
  C    -45.230200   -5.539130  -14.629300
  C    -45.190400   -5.949630  -15.941100
  H    -45.738900   -3.499920  -13.698000
  C    -44.802000   -6.382980  -13.418000
  H    -44.168900   -5.607180  -12.963600
  H    -44.079000   -7.151310  -13.758000
  C    -45.878600   -6.764690  -12.385400
  H    -46.718100   -7.104750  -12.917500
  H    -46.282600   -5.799190  -11.977400
  C    -45.464200   -7.809420  -11.321900
  H    -44.405800   -7.740140  -11.040300
  H    -45.580500   -8.884220  -11.520100
  H    -45.982200   -7.618510  -10.440800
  H    -44.963400   -9.782980  -19.163000
  H    -45.818500   -2.433460  -15.916000

 Total Charge           Charge          ....    0
 Multiplicity           Mult            ....    1
 Number of Electrons    NEL             ....  134
 Basis Dimension        Dim             ....  322

ORBITAL ENERGIES
----------------

  NO   OCC          E(Eh)            E(eV)
   0   2.0000     -88.967587     -2420.9311
   1   2.0000     -88.960555     -2420.7398
   2   2.0000     -10.327938      -281.0375
   3   2.0000     -10.325942      -280.9832
   4   2.0000     -10.319322      -280.8030
   5   2.0000     -10.316542      -280.7274
   6   2.0000     -10.309795      -280.5438
   7   2.0000     -10.298895      -280.2472
   8   2.0000     -10.295288      -280.1490
   9   2.0000     -10.294896      -280.1384
  10   2.0000     -10.292914      -280.0844
  11   2.0000     -10.292024      -280.0602
  12   2.0000     -10.291115      -280.0355
  13   2.0000     -10.288641      -279.9682
  14   2.0000     -10.288129      -279.9542
  15   2.0000     -10.277756      -279.6719
  16   2.0000      -8.082569      -219.9379
  17   2.0000      -8.075553      -219.7470
  18   2.0000      -6.041088      -164.3864
  19   2.0000      -6.037010      -164.2754
  20   2.0000      -6.034083      -164.1957
  21   2.0000      -6.033345      -164.1757
  22   2.0000      -6.030066      -164.0864
  23   2.0000      -6.026219      -163.9818
  24   2.0000      -1.005790       -27.3689
  25   2.0000      -0.981601       -26.7107
  26   2.0000      -0.911918       -24.8146
  27   2.0000      -0.904973       -24.6256
  28   2.0000      -0.864574       -23.5263
  29   2.0000      -0.851361       -23.1667
  30   2.0000      -0.846072       -23.0228
  31   2.0000      -0.812575       -22.1113
  32   2.0000      -0.783559       -21.3217
  33   2.0000      -0.770457       -20.9652
  34   2.0000      -0.710699       -19.3391
  35   2.0000      -0.702141       -19.1062
  36   2.0000      -0.691144       -18.8070
  37   2.0000      -0.663166       -18.0457
  38   2.0000      -0.641329       -17.4514
  39   2.0000      -0.621196       -16.9036
  40   2.0000      -0.589586       -16.0435
  41   2.0000      -0.573703       -15.6112
  42   2.0000      -0.561806       -15.2875
  43   2.0000      -0.551184       -14.9985
  44   2.0000      -0.526082       -14.3154
  45   2.0000      -0.523034       -14.2325
  46   2.0000      -0.513055       -13.9609
  47   2.0000      -0.507175       -13.8009
  48   2.0000      -0.506389       -13.7795
  49   2.0000      -0.500739       -13.6258
  50   2.0000      -0.489918       -13.3313
  51   2.0000      -0.479898       -13.0587
  52   2.0000      -0.471610       -12.8332
  53   2.0000      -0.463224       -12.6050
  54   2.0000      -0.459109       -12.4930
  55   2.0000      -0.446737       -12.1563
  56   2.0000      -0.442939       -12.0530
  57   2.0000      -0.439155       -11.9500
  58   2.0000      -0.434007       -11.8099
  59   2.0000      -0.430536       -11.7155
  60   2.0000      -0.427119       -11.6225
  61   2.0000      -0.418991       -11.4013
  62   2.0000      -0.405582       -11.0365
  63   2.0000      -0.346482        -9.4283
  64   2.0000      -0.326520        -8.8851
  65   2.0000      -0.324278        -8.8241
  66   2.0000      -0.294362        -8.0100
  67   0.0000       0.032772         0.8918
  68   0.0000       0.067251         1.8300
  69   0.0000       0.105450         2.8695
  70   0.0000       0.121647         3.3102
  71   0.0000       0.122285         3.3276

MULLIKEN ATOMIC CHARGES
-----------------------
   0 S :    0.112279
   1 C :   -0.133485
   2 C :   -0.078266
   3 C :    0.024101
   4 C :   -0.138419
   5 H :    0.000171
   6 C :    0.072453
   7 H :    0.017206
   8 H :    0.018103
   9 C :   -0.075581
  10 H :    0.034466
  11 H :    0.022422
  12 C :   -0.083795
  13 H :    0.045376
  14 H :    0.033687
  15 H :    0.053517
  16 S :    0.098459
  17 C :   -0.096096
  18 C :   -0.023220
  19 C :   -0.043626
  20 C :   -0.152126
  21 H :   -0.003221
  22 C :    0.035982
  23 H :    0.032094
  24 H :    0.043854
  25 C :   -0.046003
  26 H :    0.015632
  27 H :    0.027618
  28 C :   -0.024695
  29 H :    0.024369
  30 H :    0.040870
  31 H :    0.018844
  32 H :    0.065846
  33 H :    0.061183
Sum of atomic charges:   -0.0000000

LOEWDIN ATOMIC CHARGES
----------------------
   0 S :    0.413794
   1 C :   -0.209213
   2 C :   -0.067233
   3 C :   -0.046552
   4 C :   -0.198286
   5 H :    0.024557
   6 C :   -0.031452
   7 H :    0.027631
   8 H :    0.026743
   9 C :   -0.034294
  10 H :    0.024883
  11 H :    0.019992
  12 C :   -0.079363
  13 H :    0.028150
  14 H :    0.026971
  15 H :    0.036615
  16 S :    0.392476
  17 C :   -0.189163
  18 C :   -0.068561
  19 C :   -0.052272
  20 C :   -0.187697
  21 H :    0.017408
  22 C :   -0.037208
  23 H :    0.037677
  24 H :    0.036215
  25 C :   -0.039743
  26 H :    0.015733
  27 H :    0.031829
  28 C :   -0.065593
  29 H :    0.028116
  30 H :    0.031468
  31 H :    0.020145
  32 H :    0.038007
  33 H :    0.028219

  Mayer bond orders larger than 0.100000
B(  0-S ,  1-C ) :   1.1631 B(  0-S ,  4-C ) :   1.1295 B(  1-C ,  2-C ) :   1.5800
B(  1-C , 32-H ) :   0.9578 B(  2-C ,  3-C ) :   1.2300 B(  2-C ,  6-C ) :   1.0742
B(  3-C ,  4-C ) :   1.6113 B(  3-C ,  5-H ) :   0.9867 B(  4-C , 20-C ) :   1.0136
B(  6-C ,  7-H ) :   0.9342 B(  6-C ,  8-H ) :   0.9304 B(  6-C ,  9-C ) :   1.0515
B(  9-C , 10-H ) :   0.9607 B(  9-C , 11-H ) :   0.9556 B(  9-C , 12-C ) :   1.0596
B( 12-C , 13-H ) :   0.9773 B( 12-C , 14-H ) :   0.9761 B( 12-C , 15-H ) :   0.9747
B( 16-S , 17-C ) :   1.1621 B( 16-S , 20-C ) :   1.1191 B( 17-C , 18-C ) :   1.6303
B( 17-C , 33-H ) :   0.9651 B( 18-C , 19-C ) :   1.1959 B( 18-C , 21-H ) :   1.0010
B( 19-C , 20-C ) :   1.6448 B( 19-C , 22-C ) :   1.0235 B( 22-C , 23-H ) :   0.9355
B( 22-C , 24-H ) :   0.9485 B( 22-C , 25-C ) :   1.0463 B( 25-C , 26-H ) :   0.9617
B( 25-C , 27-H ) :   0.9540 B( 25-C , 28-C ) :   1.0659 B( 28-C , 29-H ) :   0.9761
B( 28-C , 30-H ) :   0.9775 B( 28-C , 31-H ) :   0.9743

Dispersion correction           -0.013635143
FINAL SINGLE POINT ENERGY     -1339.857403021885

DIPOLE MOMENT
-------------
                                X             Y             Z
Electronic contribution:     14.22108      18.52574     -16.52480
Nuclear contribution   :    -14.56663     -18.80838      16.99897
                        -----------------------------------------
Total Dipole Moment    :     -0.34555      -0.28264       0.47418
                        -----------------------------------------
Magnitude (a.u.)       :      0.65126
Magnitude (Debye)      :      1.65536

Rotational constants in cm-1:     0.015910     0.008573     0.006610
Rotational constants in MHz :   476.976760   257.002163   198.161694

                             ****ORCA TERMINATED NORMALLY****
TOTAL RUN TIME: 0 days 0 hours 0 minutes 21 seconds 55 msec
