                         Program Version 4.2.1 -  RELEASE  -
|  1> ! wB97X-D3 SP def2-SVP
|  2> %pal
|  3> nprocs 24
|  4> end
|  5>
|  6> * xyz 0 1
|  7> S 	 30.6955 	 -37.2893 	 -127.461
|  8> C 	 31.7525 	 -36.5308 	 -126.303
|  9> C 	 31.5537 	 -35.1887 	 -126.206
| 10> C 	 30.7555 	 -34.7015 	 -127.265
| 11> C 	 29.9846 	 -35.7064 	 -127.869
| 12> H 	 30.4644 	 -33.6282 	 -127.47
| 13> C 	 32.3444 	 -34.2128 	 -125.282
| 14> H 	 31.905 	 -34.3946 	 -124.264
| 15> H 	 32.2033 	 -33.179 	 -125.663
| 16> C 	 33.8654 	 -34.3662 	 -125.237
| 17> H 	 34.2594 	 -33.6572 	 -124.478
| 18> H 	 34.1425 	 -35.3914 	 -124.957
| 19> C 	 34.5107 	 -33.9452 	 -126.589
| 20> H 	 35.5405 	 -33.6687 	 -126.442
| 21> H 	 34.4257 	 -34.8095 	 -127.215
| 22> H 	 33.9998 	 -33.106 	 -127.093
| 23> S 	 27.6434 	 -36.5781 	 -128.871
| 24> C 	 26.9278 	 -35.8861 	 -130.269
| 25> C 	 27.9218 	 -35.219 	 -130.989
| 26> C 	 29.1199 	 -35.0158 	 -130.185
| 27> C 	 29.003 	 -35.5338 	 -128.912
| 28> H 	 27.7688 	 -34.7166 	 -131.966
| 29> C 	 30.3088 	 -34.144 	 -130.526
| 30> H 	 30.2502 	 -33.3579 	 -129.803
| 31> H 	 30.0462 	 -33.6135 	 -131.487
| 32> C 	 31.6815 	 -34.7438 	 -130.568
| 33> H 	 31.6175 	 -35.4568 	 -131.4
| 34> H 	 31.8296 	 -35.2574 	 -129.587
| 35> C 	 32.7583 	 -33.7234 	 -130.853
| 36> H 	 32.8779 	 -33.1054 	 -130.04
| 37> H 	 32.5814 	 -33.1493 	 -131.818
| 38> H 	 33.8033 	 -34.0428 	 -130.913
| 39> H 	 32.5057 	 -37.0782 	 -125.688
| 40> H 	 25.9238 	 -36.0155 	 -130.637
| 41> *
| 42>
| 43>                          ****END OF INPUT****

CARTESIAN COORDINATES (ANGSTROEM)
---------------------------------
  S     30.695500  -37.289300  -127.461000
  C     31.752500  -36.530800  -126.303000
  C     31.553700  -35.188700  -126.206000
  C     30.755500  -34.701500  -127.265000
  C     29.984600  -35.706400  -127.869000
  H     30.464400  -33.628200  -127.470000
  C     32.344400  -34.212800  -125.282000
  H     31.905000  -34.394600  -124.264000
  H     32.203300  -33.179000  -125.663000
  C     33.865400  -34.366200  -125.237000
  H     34.259400  -33.657200  -124.478000
  H     34.142500  -35.391400  -124.957000
  C     34.510700  -33.945200  -126.589000
  H     35.540500  -33.668700  -126.442000
  H     34.425700  -34.809500  -127.215000
  H     33.999800  -33.106000  -127.093000
  S     27.643400  -36.578100  -128.871000
  C     26.927800  -35.886100  -130.269000
  C     27.921800  -35.219000  -130.989000
  C     29.119900  -35.015800  -130.185000
  C     29.003000  -35.533800  -128.912000
  H     27.768800  -34.716600  -131.966000
  C     30.308800  -34.144000  -130.526000
  H     30.250200  -33.357900  -129.803000
  H     30.046200  -33.613500  -131.487000
  C     31.681500  -34.743800  -130.568000
  H     31.617500  -35.456800  -131.400000
  H     31.829600  -35.257400  -129.587000
  C     32.758300  -33.723400  -130.853000
  H     32.877900  -33.105400  -130.040000
  H     32.581400  -33.149300  -131.818000
  H     33.803300  -34.042800  -130.913000
  H     32.505700  -37.078200  -125.688000
  H     25.923800  -36.015500  -130.637000

 Total Charge           Charge          ....    0
 Multiplicity           Mult            ....    1
 Number of Electrons    NEL             ....  134
 Basis Dimension        Dim             ....  322

ORBITAL ENERGIES
----------------

  NO   OCC          E(Eh)            E(eV)
   0   2.0000     -88.970987     -2421.0236
   1   2.0000     -88.961891     -2420.7761
   2   2.0000     -10.333059      -281.1768
   3   2.0000     -10.319457      -280.8067
   4   2.0000     -10.318607      -280.7836
   5   2.0000     -10.316118      -280.7158
   6   2.0000     -10.303619      -280.3757
   7   2.0000     -10.301847      -280.3275
   8   2.0000     -10.301836      -280.3272
   9   2.0000     -10.301032      -280.3053
  10   2.0000     -10.300504      -280.2910
  11   2.0000     -10.292736      -280.0796
  12   2.0000     -10.286578      -279.9120
  13   2.0000     -10.280882      -279.7570
  14   2.0000     -10.276838      -279.6470
  15   2.0000     -10.272789      -279.5368
  16   2.0000      -8.084901      -220.0013
  17   2.0000      -8.078154      -219.8177
  18   2.0000      -6.043480      -164.4515
  19   2.0000      -6.039516      -164.3436
  20   2.0000      -6.036598      -164.2642
  21   2.0000      -6.035629      -164.2378
  22   2.0000      -6.032462      -164.1516
  23   2.0000      -6.028866      -164.0538
  24   2.0000      -1.013800       -27.5869
  25   2.0000      -0.989183       -26.9170
  26   2.0000      -0.913946       -24.8697
  27   2.0000      -0.909754       -24.7557
  28   2.0000      -0.871442       -23.7131
  29   2.0000      -0.852007       -23.1843
  30   2.0000      -0.845515       -23.0076
  31   2.0000      -0.812461       -22.1082
  32   2.0000      -0.782001       -21.2793
  33   2.0000      -0.773090       -21.0368
  34   2.0000      -0.707613       -19.2551
  35   2.0000      -0.699653       -19.0385
  36   2.0000      -0.689900       -18.7731
  37   2.0000      -0.665102       -18.0983
  38   2.0000      -0.635644       -17.2967
  39   2.0000      -0.608691       -16.5633
  40   2.0000      -0.590308       -16.0631
  41   2.0000      -0.578404       -15.7392
  42   2.0000      -0.571547       -15.5526
  43   2.0000      -0.555242       -15.1089
  44   2.0000      -0.541156       -14.7256
  45   2.0000      -0.518886       -14.1196
  46   2.0000      -0.514102       -13.9894
  47   2.0000      -0.512067       -13.9341
  48   2.0000      -0.504533       -13.7290
  49   2.0000      -0.498948       -13.5771
  50   2.0000      -0.487067       -13.2538
  51   2.0000      -0.479187       -13.0393
  52   2.0000      -0.477753       -13.0003
  53   2.0000      -0.468890       -12.7592
  54   2.0000      -0.459594       -12.5062
  55   2.0000      -0.449662       -12.2359
  56   2.0000      -0.447583       -12.1793
  57   2.0000      -0.436001       -11.8642
  58   2.0000      -0.431439       -11.7400
  59   2.0000      -0.422907       -11.5079
  60   2.0000      -0.416038       -11.3210
  61   2.0000      -0.411213       -11.1897
  62   2.0000      -0.409477       -11.1424
  63   2.0000      -0.347449        -9.4546
  64   2.0000      -0.336467        -9.1557
  65   2.0000      -0.325768        -8.8646
  66   2.0000      -0.289662        -7.8821
  67   0.0000       0.028271         0.7693
  68   0.0000       0.052817         1.4372
  69   0.0000       0.112499         3.0613
  70   0.0000       0.116146         3.1605
  71   0.0000       0.122410         3.3309

MULLIKEN ATOMIC CHARGES
-----------------------
   0 S :    0.121629
   1 C :   -0.151101
   2 C :   -0.053266
   3 C :   -0.050054
   4 C :   -0.139198
   5 H :    0.046001
   6 C :    0.044384
   7 H :    0.053565
   8 H :    0.028154
   9 C :   -0.088500
  10 H :    0.036822
  11 H :    0.029593
  12 C :   -0.052152
  13 H :    0.035728
  14 H :    0.038075
  15 H :    0.030323
  16 S :    0.103329
  17 C :   -0.080109
  18 C :   -0.033513
  19 C :   -0.048996
  20 C :   -0.164398
  21 H :    0.031760
  22 C :    0.039396
  23 H :    0.014559
  24 H :    0.009932
  25 C :   -0.053962
  26 H :    0.027165
  27 H :    0.060963
  28 C :   -0.018976
  29 H :    0.000477
  30 H :    0.035573
  31 H :    0.024509
  32 H :    0.063042
  33 H :    0.059244
Sum of atomic charges:   -0.0000000

LOEWDIN ATOMIC CHARGES
----------------------
   0 S :    0.401310
   1 C :   -0.208138
   2 C :   -0.070351
   3 C :   -0.074013
   4 C :   -0.184246
   5 H :    0.040977
   6 C :   -0.031567
   7 H :    0.040366
   8 H :    0.030838
   9 C :   -0.042039
  10 H :    0.027610
  11 H :    0.020368
  12 C :   -0.063725
  13 H :    0.024323
  14 H :    0.024570
  15 H :    0.025142
  16 S :    0.431423
  17 C :   -0.189771
  18 C :   -0.074958
  19 C :   -0.051553
  20 C :   -0.218095
  21 H :    0.035708
  22 C :   -0.038091
  23 H :    0.023739
  24 H :    0.029550
  25 C :   -0.043248
  26 H :    0.025793
  27 H :    0.033881
  28 C :   -0.067853
  29 H :    0.012215
  30 H :    0.032847
  31 H :    0.029426
  32 H :    0.035898
  33 H :    0.031662

  Mayer bond orders larger than 0.100000
B(  0-S ,  1-C ) :   1.1387 B(  0-S ,  4-C ) :   1.1393 B(  1-C ,  2-C ) :   1.6130
B(  1-C ,  4-C ) :   0.1019 B(  1-C , 32-H ) :   0.9597 B(  2-C ,  3-C ) :   1.2405
B(  2-C ,  6-C ) :   1.0029 B(  3-C ,  4-C ) :   1.5843 B(  3-C ,  5-H ) :   0.9764
B(  4-C , 20-C ) :   1.0626 B(  6-C ,  7-H ) :   0.9351 B(  6-C ,  8-H ) :   0.9513
B(  6-C ,  9-C ) :   1.0851 B(  9-C , 10-H ) :   0.9572 B(  9-C , 11-H ) :   0.9551
B(  9-C , 12-C ) :   1.0612 B( 12-C , 13-H ) :   0.9767 B( 12-C , 14-H ) :   0.9771
B( 12-C , 15-H ) :   0.9770 B( 16-S , 17-C ) :   1.1788 B( 16-S , 20-C ) :   1.1360
B( 17-C , 18-C ) :   1.5659 B( 17-C , 20-C ) :   0.1035 B( 17-C , 33-H ) :   0.9739
B( 18-C , 19-C ) :   1.2640 B( 18-C , 21-H ) :   0.9834 B( 19-C , 20-C ) :   1.5623
B( 19-C , 22-C ) :   1.0300 B( 22-C , 23-H ) :   0.9382 B( 22-C , 24-H ) :   0.9295
B( 22-C , 25-C ) :   1.0520 B( 25-C , 26-H ) :   0.9522 B( 25-C , 27-H ) :   0.9486
B( 25-C , 28-C ) :   1.0891 B( 28-C , 29-H ) :   0.9687 B( 28-C , 30-H ) :   0.9705
B( 28-C , 31-H ) :   0.9699

Dispersion correction           -0.015851317
FINAL SINGLE POINT ENERGY     -1339.862501806710

DIPOLE MOMENT
-------------
                                X             Y             Z
Electronic contribution:    -24.60660     -17.84853       1.16828
Nuclear contribution   :     25.00872      18.33982      -1.22058
                        -----------------------------------------
Total Dipole Moment    :      0.40212       0.49129      -0.05230
                        -----------------------------------------
Magnitude (a.u.)       :      0.63703
Magnitude (Debye)      :      1.61919

Rotational constants in cm-1:     0.021823     0.009380     0.007346
Rotational constants in MHz :   654.239256   281.206506   220.231576

                             ****ORCA TERMINATED NORMALLY****
TOTAL RUN TIME: 0 days 0 hours 0 minutes 23 seconds 36 msec
