                         Program Version 4.2.1 -  RELEASE  -
|  1> ! wB97X-D3 SP def2-SVP
|  2> %pal
|  3> nprocs 24
|  4> end
|  5>
|  6> * xyz 0 1
|  7> S 	 -134.301 	 29.854 	 -20.5
|  8> C 	 -132.979 	 28.777 	 -20.3832
|  9> C 	 -132.943 	 27.9559 	 -19.2663
| 10> C 	 -134.136 	 28.1887 	 -18.4966
| 11> C 	 -134.951 	 29.2041 	 -18.9937
| 12> H 	 -134.339 	 27.7031 	 -17.5729
| 13> C 	 -131.916 	 26.9199 	 -18.8805
| 14> H 	 -132.13 	 25.9905 	 -19.3513
| 15> H 	 -131.987 	 26.7013 	 -17.8101
| 16> C 	 -130.471 	 27.329 	 -19.2268
| 17> H 	 -130.406 	 27.4112 	 -20.3222
| 18> H 	 -130.499 	 28.3787 	 -18.9437
| 19> C 	 -129.292 	 26.4026 	 -18.7711
| 20> H 	 -129.353 	 25.4142 	 -19.2542
| 21> H 	 -128.265 	 26.7866 	 -18.9123
| 22> H 	 -129.326 	 26.3116 	 -17.6765
| 23> S 	 -137.517 	 30.1637 	 -19.4803
| 24> C 	 -138.598 	 30.4303 	 -18.1809
| 25> C 	 -138.126 	 29.7759 	 -17.0806
| 26> C 	 -136.772 	 29.3691 	 -17.113
| 27> C 	 -136.243 	 29.5888 	 -18.4238
| 28> H 	 -138.719 	 29.7427 	 -16.2202
| 29> C 	 -136.065 	 28.9168 	 -15.8737
| 30> H 	 -136.499 	 29.5246 	 -14.9974
| 31> H 	 -135.024 	 29.2137 	 -15.8665
| 32> C 	 -136.349 	 27.4077 	 -15.5551
| 33> H 	 -136.076 	 26.7807 	 -16.4268
| 34> H 	 -137.453 	 27.2092 	 -15.412
| 35> C 	 -135.608 	 26.9076 	 -14.331
| 36> H 	 -135.998 	 27.5629 	 -13.5323
| 37> H 	 -134.558 	 27.1169 	 -14.4435
| 38> H 	 -135.733 	 25.7974 	 -14.1984
| 39> H 	 -132.15 	 28.8665 	 -21.0934
| 40> H 	 -139.671 	 30.6701 	 -18.3872
| 41> *
| 42>
| 43>                          ****END OF INPUT****

CARTESIAN COORDINATES (ANGSTROEM)
---------------------------------
  S    -134.301000   29.854000  -20.500000
  C    -132.979000   28.777000  -20.383200
  C    -132.943000   27.955900  -19.266300
  C    -134.136000   28.188700  -18.496600
  C    -134.951000   29.204100  -18.993700
  H    -134.339000   27.703100  -17.572900
  C    -131.916000   26.919900  -18.880500
  H    -132.130000   25.990500  -19.351300
  H    -131.987000   26.701300  -17.810100
  C    -130.471000   27.329000  -19.226800
  H    -130.406000   27.411200  -20.322200
  H    -130.499000   28.378700  -18.943700
  C    -129.292000   26.402600  -18.771100
  H    -129.353000   25.414200  -19.254200
  H    -128.265000   26.786600  -18.912300
  H    -129.326000   26.311600  -17.676500
  S    -137.517000   30.163700  -19.480300
  C    -138.598000   30.430300  -18.180900
  C    -138.126000   29.775900  -17.080600
  C    -136.772000   29.369100  -17.113000
  C    -136.243000   29.588800  -18.423800
  H    -138.719000   29.742700  -16.220200
  C    -136.065000   28.916800  -15.873700
  H    -136.499000   29.524600  -14.997400
  H    -135.024000   29.213700  -15.866500
  C    -136.349000   27.407700  -15.555100
  H    -136.076000   26.780700  -16.426800
  H    -137.453000   27.209200  -15.412000
  C    -135.608000   26.907600  -14.331000
  H    -135.998000   27.562900  -13.532300
  H    -134.558000   27.116900  -14.443500
  H    -135.733000   25.797400  -14.198400
  H    -132.150000   28.866500  -21.093400
  H    -139.671000   30.670100  -18.387200

 Total Charge           Charge          ....    0
 Multiplicity           Mult            ....    1
 Number of Electrons    NEL             ....  134
 Basis Dimension        Dim             ....  322

ORBITAL ENERGIES
----------------

  NO   OCC          E(Eh)            E(eV)
   0   2.0000     -88.970490     -2421.0101
   1   2.0000     -88.962823     -2420.8015
   2   2.0000     -10.331981      -281.1475
   3   2.0000     -10.331481      -281.1339
   4   2.0000     -10.313772      -280.6520
   5   2.0000     -10.313175      -280.6357
   6   2.0000     -10.303604      -280.3753
   7   2.0000     -10.303551      -280.3739
   8   2.0000     -10.301830      -280.3270
   9   2.0000     -10.294925      -280.1391
  10   2.0000     -10.293555      -280.1019
  11   2.0000     -10.292824      -280.0820
  12   2.0000     -10.290899      -280.0296
  13   2.0000     -10.289967      -280.0042
  14   2.0000     -10.285869      -279.8927
  15   2.0000     -10.283262      -279.8218
  16   2.0000      -8.085535      -220.0186
  17   2.0000      -8.078463      -219.8262
  18   2.0000      -6.043988      -164.4653
  19   2.0000      -6.040034      -164.3577
  20   2.0000      -6.036851      -164.2711
  21   2.0000      -6.036315      -164.2565
  22   2.0000      -6.032866      -164.1626
  23   2.0000      -6.029277      -164.0650
  24   2.0000      -1.008468       -27.4418
  25   2.0000      -0.988569       -26.9003
  26   2.0000      -0.912028       -24.8175
  27   2.0000      -0.910653       -24.7801
  28   2.0000      -0.867457       -23.6047
  29   2.0000      -0.856844       -23.3159
  30   2.0000      -0.849684       -23.1211
  31   2.0000      -0.811545       -22.0833
  32   2.0000      -0.784498       -21.3473
  33   2.0000      -0.770142       -20.9566
  34   2.0000      -0.712183       -19.3795
  35   2.0000      -0.697438       -18.9783
  36   2.0000      -0.689001       -18.7487
  37   2.0000      -0.666279       -18.1304
  38   2.0000      -0.637077       -17.3357
  39   2.0000      -0.619948       -16.8696
  40   2.0000      -0.599545       -16.3144
  41   2.0000      -0.568245       -15.4627
  42   2.0000      -0.566526       -15.4159
  43   2.0000      -0.562846       -15.3158
  44   2.0000      -0.532663       -14.4945
  45   2.0000      -0.521361       -14.1870
  46   2.0000      -0.514851       -14.0098
  47   2.0000      -0.509600       -13.8669
  48   2.0000      -0.503364       -13.6972
  49   2.0000      -0.497949       -13.5499
  50   2.0000      -0.490288       -13.3414
  51   2.0000      -0.485242       -13.2041
  52   2.0000      -0.477593       -12.9960
  53   2.0000      -0.469667       -12.7803
  54   2.0000      -0.458737       -12.4829
  55   2.0000      -0.449791       -12.2394
  56   2.0000      -0.443416       -12.0660
  57   2.0000      -0.440619       -11.9898
  58   2.0000      -0.436083       -11.8664
  59   2.0000      -0.426736       -11.6121
  60   2.0000      -0.422498       -11.4967
  61   2.0000      -0.417635       -11.3644
  62   2.0000      -0.413776       -11.2594
  63   2.0000      -0.361346        -9.8327
  64   2.0000      -0.333916        -9.0863
  65   2.0000      -0.327646        -8.9157
  66   2.0000      -0.280273        -7.6266
  67   0.0000       0.019989         0.5439
  68   0.0000       0.084375         2.2960
  69   0.0000       0.103653         2.8205
  70   0.0000       0.118962         3.2371
  71   0.0000       0.126287         3.4364

MULLIKEN ATOMIC CHARGES
-----------------------
   0 S :    0.127252
   1 C :   -0.141232
   2 C :   -0.084754
   3 C :    0.013937
   4 C :   -0.129326
   5 H :   -0.021300
   6 C :    0.111497
   7 H :    0.030671
   8 H :    0.017484
   9 C :   -0.128628
  10 H :    0.029857
  11 H :    0.031190
  12 C :   -0.041005
  13 H :    0.043910
  14 H :    0.041960
  15 H :    0.030135
  16 S :    0.095152
  17 C :   -0.101308
  18 C :   -0.017353
  19 C :   -0.031419
  20 C :   -0.125487
  21 H :   -0.004976
  22 C :    0.009398
  23 H :    0.035454
  24 H :    0.035584
  25 C :   -0.120387
  26 H :    0.035579
  27 H :    0.039054
  28 C :   -0.020249
  29 H :    0.031354
  30 H :    0.021953
  31 H :    0.053381
  32 H :    0.053731
  33 H :    0.078890
Sum of atomic charges:   -0.0000000

LOEWDIN ATOMIC CHARGES
----------------------
   0 S :    0.419202
   1 C :   -0.208615
   2 C :   -0.060904
   3 C :   -0.053677
   4 C :   -0.189953
   5 H :    0.023012
   6 C :   -0.027482
   7 H :    0.028817
   8 H :    0.029286
   9 C :   -0.049179
  10 H :    0.021752
  11 H :    0.024403
  12 C :   -0.069741
  13 H :    0.030868
  14 H :    0.032842
  15 H :    0.025537
  16 S :    0.416160
  17 C :   -0.210010
  18 C :   -0.064644
  19 C :   -0.060287
  20 C :   -0.191031
  21 H :    0.019832
  22 C :   -0.038993
  23 H :    0.039546
  24 H :    0.029288
  25 C :   -0.048640
  26 H :    0.020278
  27 H :    0.030260
  28 C :   -0.068297
  29 H :    0.028834
  30 H :    0.019241
  31 H :    0.035683
  32 H :    0.025897
  33 H :    0.040713

  Mayer bond orders larger than 0.100000
B(  0-S ,  1-C ) :   1.1527 B(  0-S ,  4-C ) :   1.1432 B(  1-C ,  2-C ) :   1.5965
B(  1-C , 32-H ) :   0.9596 B(  2-C ,  3-C ) :   1.2607 B(  2-C ,  6-C ) :   1.0244
B(  3-C ,  4-C ) :   1.5548 B(  3-C ,  5-H ) :   0.9899 B(  4-C , 20-C ) :   1.0850
B(  6-C ,  7-H ) :   0.9268 B(  6-C ,  8-H ) :   0.9396 B(  6-C ,  9-C ) :   1.0565
B(  9-C , 10-H ) :   0.9510 B(  9-C , 11-H ) :   0.9674 B(  9-C , 12-C ) :   1.0681
B( 12-C , 13-H ) :   0.9734 B( 12-C , 14-H ) :   0.9755 B( 12-C , 15-H ) :   0.9769
B( 16-S , 17-C ) :   1.1555 B( 16-S , 20-C ) :   1.1674 B( 17-C , 18-C ) :   1.5851
B( 17-C , 20-C ) :   0.1006 B( 17-C , 33-H ) :   0.9600 B( 18-C , 19-C ) :   1.2888
B( 18-C , 21-H ) :   0.9903 B( 19-C , 20-C ) :   1.5271 B( 19-C , 22-C ) :   1.0436
B( 22-C , 23-H ) :   0.9336 B( 22-C , 24-H ) :   0.9426 B( 22-C , 25-C ) :   1.0428
B( 25-C , 26-H ) :   0.9550 B( 25-C , 27-H ) :   0.9543 B( 25-C , 28-C ) :   1.0791
B( 28-C , 29-H ) :   0.9717 B( 28-C , 30-H ) :   0.9730 B( 28-C , 31-H ) :   0.9721

Dispersion correction           -0.013796969
FINAL SINGLE POINT ENERGY     -1339.883625807407

DIPOLE MOMENT
-------------
                                X             Y             Z
Electronic contribution:    -18.22917      18.39925     -18.87816
Nuclear contribution   :     18.47657     -18.88344      19.36162
                        -----------------------------------------
Total Dipole Moment    :      0.24739      -0.48419       0.48347
                        -----------------------------------------
Magnitude (a.u.)       :      0.72759
Magnitude (Debye)      :      1.84938

Rotational constants in cm-1:     0.018662     0.008395     0.005938
Rotational constants in MHz :   559.469385   251.679474   178.008209

                             ****ORCA TERMINATED NORMALLY****
TOTAL RUN TIME: 0 days 0 hours 0 minutes 21 seconds 356 msec
