                         Program Version 4.2.1 -  RELEASE  -
|  1> ! wB97X-D3 SP def2-SVP
|  2> %pal
|  3> nprocs 24
|  4> end
|  5>
|  6> * xyz 0 1
|  7> S 	 -132.377 	 7.9584 	 -0.997525
|  8> C 	 -130.889 	 8.78075 	 -0.5832
|  9> C 	 -129.817 	 8.21281 	 -1.26949
| 10> C 	 -130.21 	 7.1009 	 -2.14803
| 11> C 	 -131.544 	 6.72561 	 -1.8729
| 12> H 	 -129.61 	 6.45708 	 -2.67998
| 13> C 	 -128.387 	 8.65725 	 -1.29763
| 14> H 	 -128.144 	 9.43621 	 -0.542716
| 15> H 	 -128.417 	 9.11515 	 -2.24258
| 16> C 	 -127.354 	 7.50694 	 -1.2262
| 17> H 	 -127.574 	 6.97485 	 -0.299636
| 18> H 	 -127.304 	 6.78847 	 -2.03437
| 19> C 	 -125.936 	 8.07727 	 -1.36478
| 20> H 	 -125.295 	 7.18272 	 -1.51149
| 21> H 	 -125.701 	 8.6695 	 -2.2631
| 22> H 	 -125.685 	 8.67576 	 -0.50868
| 23> S 	 -133.835 	 5.72131 	 -3.00562
| 24> C 	 -134.037 	 3.99949 	 -3.18609
| 25> C 	 -132.926 	 3.2862 	 -2.75379
| 26> C 	 -131.917 	 4.17147 	 -2.19786
| 27> C 	 -132.32 	 5.50692 	 -2.23705
| 28> H 	 -132.933 	 2.22216 	 -2.69926
| 29> C 	 -130.659 	 3.68229 	 -1.49673
| 30> H 	 -131.022 	 2.89295 	 -0.813518
| 31> H 	 -130.403 	 4.54792 	 -0.903281
| 32> C 	 -129.531 	 3.11366 	 -2.36742
| 33> H 	 -128.563 	 3.21717 	 -1.77419
| 34> H 	 -129.329 	 3.79577 	 -3.22077
| 35> C 	 -129.717 	 1.66187 	 -2.91344
| 36> H 	 -130.539 	 1.56666 	 -3.5834
| 37> H 	 -129.872 	 0.951014 	 -2.06504
| 38> H 	 -128.907 	 1.26503 	 -3.44372
| 39> H 	 -130.848 	 9.68039 	 0.0177352
| 40> H 	 -134.882 	 3.55447 	 -3.6458
| 41> *
| 42>
| 43>                          ****END OF INPUT****

CARTESIAN COORDINATES (ANGSTROEM)
---------------------------------
  S    -132.377000    7.958400   -0.997525
  C    -130.889000    8.780750   -0.583200
  C    -129.817000    8.212810   -1.269490
  C    -130.210000    7.100900   -2.148030
  C    -131.544000    6.725610   -1.872900
  H    -129.610000    6.457080   -2.679980
  C    -128.387000    8.657250   -1.297630
  H    -128.144000    9.436210   -0.542716
  H    -128.417000    9.115150   -2.242580
  C    -127.354000    7.506940   -1.226200
  H    -127.574000    6.974850   -0.299636
  H    -127.304000    6.788470   -2.034370
  C    -125.936000    8.077270   -1.364780
  H    -125.295000    7.182720   -1.511490
  H    -125.701000    8.669500   -2.263100
  H    -125.685000    8.675760   -0.508680
  S    -133.835000    5.721310   -3.005620
  C    -134.037000    3.999490   -3.186090
  C    -132.926000    3.286200   -2.753790
  C    -131.917000    4.171470   -2.197860
  C    -132.320000    5.506920   -2.237050
  H    -132.933000    2.222160   -2.699260
  C    -130.659000    3.682290   -1.496730
  H    -131.022000    2.892950   -0.813518
  H    -130.403000    4.547920   -0.903281
  C    -129.531000    3.113660   -2.367420
  H    -128.563000    3.217170   -1.774190
  H    -129.329000    3.795770   -3.220770
  C    -129.717000    1.661870   -2.913440
  H    -130.539000    1.566660   -3.583400
  H    -129.872000    0.951014   -2.065040
  H    -128.907000    1.265030   -3.443720
  H    -130.848000    9.680390    0.017735
  H    -134.882000    3.554470   -3.645800

 Total Charge           Charge          ....    0
 Multiplicity           Mult            ....    1
 Number of Electrons    NEL             ....  134
 Basis Dimension        Dim             ....  322

ORBITAL ENERGIES
----------------

  NO   OCC          E(Eh)            E(eV)
   0   2.0000     -88.966321     -2420.8967
   1   2.0000     -88.961498     -2420.7654
   2   2.0000     -10.332934      -281.1734
   3   2.0000     -10.324771      -280.9513
   4   2.0000     -10.315970      -280.7118
   5   2.0000     -10.311878      -280.6005
   6   2.0000     -10.305844      -280.4363
   7   2.0000     -10.303711      -280.3782
   8   2.0000     -10.298117      -280.2260
   9   2.0000     -10.295487      -280.1545
  10   2.0000     -10.294092      -280.1165
  11   2.0000     -10.290931      -280.0305
  12   2.0000     -10.290142      -280.0090
  13   2.0000     -10.289848      -280.0010
  14   2.0000     -10.280652      -279.7508
  15   2.0000     -10.278843      -279.7015
  16   2.0000      -8.081905      -219.9198
  17   2.0000      -8.076855      -219.7824
  18   2.0000      -6.040305      -164.3651
  19   2.0000      -6.036312      -164.2564
  20   2.0000      -6.035355      -164.2303
  21   2.0000      -6.032717      -164.1586
  22   2.0000      -6.031241      -164.1184
  23   2.0000      -6.027643      -164.0205
  24   2.0000      -1.006377       -27.3849
  25   2.0000      -0.982198       -26.7270
  26   2.0000      -0.914819       -24.8935
  27   2.0000      -0.904976       -24.6256
  28   2.0000      -0.867321       -23.6010
  29   2.0000      -0.849707       -23.1217
  30   2.0000      -0.844997       -22.9935
  31   2.0000      -0.815996       -22.2044
  32   2.0000      -0.784768       -21.3546
  33   2.0000      -0.771561       -20.9953
  34   2.0000      -0.709614       -19.3096
  35   2.0000      -0.701559       -19.0904
  36   2.0000      -0.689467       -18.7614
  37   2.0000      -0.664096       -18.0710
  38   2.0000      -0.643711       -17.5163
  39   2.0000      -0.619203       -16.8494
  40   2.0000      -0.589534       -16.0420
  41   2.0000      -0.575817       -15.6688
  42   2.0000      -0.564122       -15.3505
  43   2.0000      -0.552507       -15.0345
  44   2.0000      -0.538729       -14.6596
  45   2.0000      -0.525702       -14.3051
  46   2.0000      -0.516244       -14.0477
  47   2.0000      -0.513617       -13.9762
  48   2.0000      -0.503291       -13.6953
  49   2.0000      -0.500175       -13.6104
  50   2.0000      -0.494851       -13.4656
  51   2.0000      -0.479157       -13.0385
  52   2.0000      -0.475704       -12.9446
  53   2.0000      -0.466841       -12.7034
  54   2.0000      -0.456767       -12.4293
  55   2.0000      -0.451515       -12.2863
  56   2.0000      -0.449189       -12.2230
  57   2.0000      -0.439655       -11.9636
  58   2.0000      -0.435515       -11.8510
  59   2.0000      -0.427060       -11.6209
  60   2.0000      -0.423680       -11.5289
  61   2.0000      -0.410500       -11.1703
  62   2.0000      -0.408309       -11.1107
  63   2.0000      -0.345191        -9.3931
  64   2.0000      -0.328801        -8.9471
  65   2.0000      -0.323762        -8.8100
  66   2.0000      -0.291514        -7.9325
  67   0.0000       0.030701         0.8354
  68   0.0000       0.074316         2.0223
  69   0.0000       0.108673         2.9571
  70   0.0000       0.118158         3.2152
  71   0.0000       0.132642         3.6094

MULLIKEN ATOMIC CHARGES
-----------------------
   0 S :    0.097221
   1 C :   -0.112275
   2 C :   -0.113799
   3 C :    0.088278
   4 C :   -0.178334
   5 H :   -0.024981
   6 C :    0.079334
   7 H :    0.027682
   8 H :    0.031694
   9 C :   -0.096374
  10 H :    0.042776
  11 H :    0.030667
  12 C :   -0.055369
  13 H :    0.032800
  14 H :    0.035146
  15 H :    0.031028
  16 S :    0.117459
  17 C :   -0.083466
  18 C :   -0.018914
  19 C :   -0.067643
  20 C :   -0.138022
  21 H :    0.014968
  22 C :    0.067621
  23 H :    0.031677
  24 H :    0.034835
  25 C :   -0.088051
  26 H :    0.038662
  27 H :    0.032213
  28 C :   -0.030869
  29 H :    0.029384
  30 H :    0.029180
  31 H :    0.023126
  32 H :    0.046043
  33 H :    0.046303
Sum of atomic charges:    0.0000000

LOEWDIN ATOMIC CHARGES
----------------------
   0 S :    0.407615
   1 C :   -0.211771
   2 C :   -0.053075
   3 C :   -0.056386
   4 C :   -0.187239
   5 H :    0.013244
   6 C :   -0.034844
   7 H :    0.033814
   8 H :    0.033295
   9 C :   -0.040320
  10 H :    0.029149
  11 H :    0.023577
  12 C :   -0.066322
  13 H :    0.029875
  14 H :    0.028761
  15 H :    0.018938
  16 S :    0.425055
  17 C :   -0.179429
  18 C :   -0.066556
  19 C :   -0.054508
  20 C :   -0.221284
  21 H :    0.027370
  22 C :   -0.035342
  23 H :    0.035075
  24 H :    0.033617
  25 C :   -0.045636
  26 H :    0.032126
  27 H :    0.023582
  28 C :   -0.064019
  29 H :    0.021306
  30 H :    0.029392
  31 H :    0.021266
  32 H :    0.028016
  33 H :    0.021658

  Mayer bond orders larger than 0.100000
B(  0-S ,  1-C ) :   1.1173 B(  0-S ,  4-C ) :   1.1783 B(  1-C ,  2-C ) :   1.6193
B(  1-C , 32-H ) :   0.9740 B(  2-C ,  3-C ) :   1.2051 B(  2-C ,  6-C ) :   1.0200
B(  3-C ,  4-C ) :   1.5702 B(  3-C ,  5-H ) :   0.9995 B(  4-C , 20-C ) :   0.9949
B(  6-C ,  7-H ) :   0.9493 B(  6-C ,  8-H ) :   0.9277 B(  6-C ,  9-C ) :   1.0613
B(  9-C , 10-H ) :   0.9603 B(  9-C , 11-H ) :   0.9555 B(  9-C , 12-C ) :   1.0755
B( 12-C , 13-H ) :   0.9780 B( 12-C , 14-H ) :   0.9746 B( 12-C , 15-H ) :   0.9752
B( 16-S , 17-C ) :   1.1591 B( 16-S , 20-C ) :   1.1555 B( 17-C , 18-C ) :   1.6043
B( 17-C , 33-H ) :   0.9721 B( 18-C , 19-C ) :   1.2356 B( 18-C , 21-H ) :   0.9913
B( 19-C , 20-C ) :   1.6064 B( 19-C , 22-C ) :   1.0337 B( 22-C , 23-H ) :   0.9398
B( 22-C , 24-H ) :   0.9315 B( 22-C , 25-C ) :   1.0567 B( 25-C , 26-H ) :   0.9570
B( 25-C , 27-H ) :   0.9546 B( 25-C , 28-C ) :   1.0711 B( 28-C , 29-H ) :   0.9742
B( 28-C , 30-H ) :   0.9750 B( 28-C , 31-H ) :   0.9724

Dispersion correction           -0.014581747
FINAL SINGLE POINT ENERGY     -1339.871294570747

DIPOLE MOMENT
-------------
                                X             Y             Z
Electronic contribution:    -30.18081      10.09412      -0.74448
Nuclear contribution   :     30.82918     -10.40977       0.68552
                        -----------------------------------------
Total Dipole Moment    :      0.64837      -0.31565      -0.05896
                        -----------------------------------------
Magnitude (a.u.)       :      0.72353
Magnitude (Debye)      :      1.83906

Rotational constants in cm-1:     0.017175     0.009600     0.006476
Rotational constants in MHz :   514.891489   287.789177   194.133788

                             ****ORCA TERMINATED NORMALLY****
TOTAL RUN TIME: 0 days 0 hours 0 minutes 21 seconds 936 msec
