                         Program Version 4.2.1 -  RELEASE  -
|  1> ! wB97X-D3 SP def2-SVP
|  2> %pal
|  3> nprocs 24
|  4> end
|  5>
|  6> * xyz 0 1
|  7> S 	 -35.2829 	 10.1237 	 2.3963
|  8> C 	 -35.4938 	 9.13427 	 0.973907
|  9> C 	 -34.3355 	 9.02937 	 0.207532
| 10> C 	 -33.2908 	 9.86659 	 0.760349
| 11> C 	 -33.6226 	 10.502 	 1.96679
| 12> H 	 -32.2824 	 10.0297 	 0.41907
| 13> C 	 -34.0302 	 8.14098 	 -0.995015
| 14> H 	 -33.0157 	 7.74666 	 -0.89763
| 15> H 	 -33.9811 	 8.75167 	 -1.87386
| 16> C 	 -35.1932 	 7.08353 	 -1.17836
| 17> H 	 -35.2475 	 6.3717 	 -0.293552
| 18> H 	 -36.1174 	 7.70885 	 -1.10248
| 19> C 	 -35.1008 	 6.41593 	 -2.5517
| 20> H 	 -34.0298 	 6.11253 	 -2.6041
| 21> H 	 -35.5515 	 5.5001 	 -2.72361
| 22> H 	 -35.2752 	 7.0584 	 -3.36044
| 23> S 	 -31.3238 	 10.9399 	 3.32671
| 24> C 	 -31.0941 	 12.3925 	 4.24823
| 25> C 	 -32.2098 	 13.2111 	 4.22563
| 26> C 	 -33.2543 	 12.6506 	 3.35947
| 27> C 	 -32.8353 	 11.5029 	 2.6718
| 28> H 	 -32.2388 	 14.1176 	 4.83227
| 29> C 	 -34.6032 	 13.3162 	 3.19903
| 30> H 	 -35.2572 	 12.8407 	 3.87059
| 31> H 	 -35.242 	 13.0333 	 2.39563
| 32> C 	 -34.6551 	 14.8669 	 3.4555
| 33> H 	 -34.4985 	 15.1007 	 4.4822
| 34> H 	 -35.751 	 15.1581 	 3.37797
| 35> C 	 -33.8604 	 15.6806 	 2.55973
| 36> H 	 -34.0308 	 15.3928 	 1.51848
| 37> H 	 -32.8373 	 15.473 	 2.86239
| 38> H 	 -33.9403 	 16.7679 	 2.6161
| 39> H 	 -36.312 	 8.46239 	 0.757503
| 40> H 	 -30.1479 	 12.4671 	 4.79794
| 41> *
| 42>
| 43>                          ****END OF INPUT****

CARTESIAN COORDINATES (ANGSTROEM)
---------------------------------
  S    -35.282900   10.123700    2.396300
  C    -35.493800    9.134270    0.973907
  C    -34.335500    9.029370    0.207532
  C    -33.290800    9.866590    0.760349
  C    -33.622600   10.502000    1.966790
  H    -32.282400   10.029700    0.419070
  C    -34.030200    8.140980   -0.995015
  H    -33.015700    7.746660   -0.897630
  H    -33.981100    8.751670   -1.873860
  C    -35.193200    7.083530   -1.178360
  H    -35.247500    6.371700   -0.293552
  H    -36.117400    7.708850   -1.102480
  C    -35.100800    6.415930   -2.551700
  H    -34.029800    6.112530   -2.604100
  H    -35.551500    5.500100   -2.723610
  H    -35.275200    7.058400   -3.360440
  S    -31.323800   10.939900    3.326710
  C    -31.094100   12.392500    4.248230
  C    -32.209800   13.211100    4.225630
  C    -33.254300   12.650600    3.359470
  C    -32.835300   11.502900    2.671800
  H    -32.238800   14.117600    4.832270
  C    -34.603200   13.316200    3.199030
  H    -35.257200   12.840700    3.870590
  H    -35.242000   13.033300    2.395630
  C    -34.655100   14.866900    3.455500
  H    -34.498500   15.100700    4.482200
  H    -35.751000   15.158100    3.377970
  C    -33.860400   15.680600    2.559730
  H    -34.030800   15.392800    1.518480
  H    -32.837300   15.473000    2.862390
  H    -33.940300   16.767900    2.616100
  H    -36.312000    8.462390    0.757503
  H    -30.147900   12.467100    4.797940

 Total Charge           Charge          ....    0
 Multiplicity           Mult            ....    1
 Number of Electrons    NEL             ....  134
 Basis Dimension        Dim             ....  322

ORBITAL ENERGIES
----------------

  NO   OCC          E(Eh)            E(eV)
   0   2.0000     -88.968609     -2420.9589
   1   2.0000     -88.961889     -2420.7761
   2   2.0000     -10.329609      -281.0829
   3   2.0000     -10.324126      -280.9338
   4   2.0000     -10.321162      -280.8531
   5   2.0000     -10.314199      -280.6636
   6   2.0000     -10.312443      -280.6158
   7   2.0000     -10.305200      -280.4187
   8   2.0000     -10.302848      -280.3547
   9   2.0000     -10.300656      -280.2951
  10   2.0000     -10.297150      -280.1997
  11   2.0000     -10.293826      -280.1093
  12   2.0000     -10.285062      -279.8708
  13   2.0000     -10.283404      -279.8256
  14   2.0000     -10.273010      -279.5428
  15   2.0000     -10.267517      -279.3934
  16   2.0000      -8.082656      -219.9403
  17   2.0000      -8.077441      -219.7983
  18   2.0000      -6.041236      -164.3904
  19   2.0000      -6.037205      -164.2807
  20   2.0000      -6.035884      -164.2448
  21   2.0000      -6.033453      -164.1786
  22   2.0000      -6.031792      -164.1334
  23   2.0000      -6.028254      -164.0371
  24   2.0000      -1.004633       -27.3375
  25   2.0000      -0.981040       -26.6954
  26   2.0000      -0.912562       -24.8321
  27   2.0000      -0.909715       -24.7546
  28   2.0000      -0.868814       -23.6416
  29   2.0000      -0.853003       -23.2114
  30   2.0000      -0.846743       -23.0410
  31   2.0000      -0.813242       -22.1294
  32   2.0000      -0.787729       -21.4352
  33   2.0000      -0.773926       -21.0596
  34   2.0000      -0.717343       -19.5199
  35   2.0000      -0.698692       -19.0124
  36   2.0000      -0.688627       -18.7385
  37   2.0000      -0.658252       -17.9119
  38   2.0000      -0.636769       -17.3274
  39   2.0000      -0.616683       -16.7808
  40   2.0000      -0.600179       -16.3317
  41   2.0000      -0.572131       -15.5685
  42   2.0000      -0.566466       -15.4143
  43   2.0000      -0.556817       -15.1518
  44   2.0000      -0.535344       -14.5675
  45   2.0000      -0.521455       -14.1895
  46   2.0000      -0.518211       -14.1012
  47   2.0000      -0.513123       -13.9628
  48   2.0000      -0.511732       -13.9249
  49   2.0000      -0.496558       -13.5120
  50   2.0000      -0.489735       -13.3264
  51   2.0000      -0.478810       -13.0291
  52   2.0000      -0.475022       -12.9260
  53   2.0000      -0.471151       -12.8207
  54   2.0000      -0.457992       -12.4626
  55   2.0000      -0.450032       -12.2460
  56   2.0000      -0.441836       -12.0230
  57   2.0000      -0.434905       -11.8344
  58   2.0000      -0.432572       -11.7709
  59   2.0000      -0.429221       -11.6797
  60   2.0000      -0.418096       -11.3770
  61   2.0000      -0.413993       -11.2653
  62   2.0000      -0.403225       -10.9723
  63   2.0000      -0.349638        -9.5141
  64   2.0000      -0.329968        -8.9789
  65   2.0000      -0.322965        -8.7883
  66   2.0000      -0.291871        -7.9422
  67   0.0000       0.030023         0.8170
  68   0.0000       0.073018         1.9869
  69   0.0000       0.110132         2.9969
  70   0.0000       0.118226         3.2171
  71   0.0000       0.124601         3.3906

MULLIKEN ATOMIC CHARGES
-----------------------
   0 S :    0.108053
   1 C :   -0.125178
   2 C :   -0.096565
   3 C :    0.013598
   4 C :   -0.145018
   5 H :    0.007597
   6 C :    0.083530
   7 H :    0.037304
   8 H :    0.032849
   9 C :   -0.148554
  10 H :    0.053004
  11 H :    0.043494
  12 C :    0.014102
  13 H :    0.017392
  14 H :    0.017062
  15 H :    0.027369
  16 S :    0.093881
  17 C :   -0.106598
  18 C :   -0.024949
  19 C :   -0.071303
  20 C :   -0.120047
  21 H :    0.034293
  22 C :    0.086367
  23 H :    0.012850
  24 H :    0.013153
  25 C :   -0.084198
  26 H :    0.014320
  27 H :    0.018811
  28 C :   -0.008892
  29 H :    0.033686
  30 H :    0.016790
  31 H :    0.032421
  32 H :    0.048211
  33 H :    0.071163
Sum of atomic charges:   -0.0000000

LOEWDIN ATOMIC CHARGES
----------------------
   0 S :    0.413293
   1 C :   -0.209696
   2 C :   -0.058933
   3 C :   -0.061100
   4 C :   -0.194381
   5 H :    0.027271
   6 C :   -0.026252
   7 H :    0.033092
   8 H :    0.032216
   9 C :   -0.044606
  10 H :    0.032367
  11 H :    0.024858
  12 C :   -0.062096
  13 H :    0.032791
  14 H :    0.017388
  15 H :    0.020970
  16 S :    0.415485
  17 C :   -0.184116
  18 C :   -0.075120
  19 C :   -0.045076
  20 C :   -0.211165
  21 H :    0.036439
  22 C :   -0.045058
  23 H :    0.032515
  24 H :    0.027983
  25 C :   -0.044540
  26 H :    0.015117
  27 H :    0.028587
  28 C :   -0.068078
  29 H :    0.029603
  30 H :    0.024657
  31 H :    0.027671
  32 H :    0.026476
  33 H :    0.031437

  Mayer bond orders larger than 0.100000
B(  0-S ,  1-C ) :   1.1346 B(  0-S ,  4-C ) :   1.1360 B(  1-C ,  2-C ) :   1.6258
B(  1-C , 32-H ) :   0.9562 B(  2-C ,  3-C ) :   1.2314 B(  2-C ,  6-C ) :   1.0059
B(  3-C ,  4-C ) :   1.5762 B(  3-C ,  5-H ) :   0.9947 B(  4-C , 20-C ) :   1.0360
B(  6-C ,  7-H ) :   0.9418 B(  6-C ,  8-H ) :   0.9360 B(  6-C ,  9-C ) :   1.0543
B(  9-C , 10-H ) :   0.9613 B(  9-C , 11-H ) :   0.9497 B(  9-C , 12-C ) :   1.0731
B( 12-C , 13-H ) :   0.9697 B( 12-C , 14-H ) :   0.9728 B( 12-C , 15-H ) :   0.9756
B( 16-S , 17-C ) :   1.1784 B( 16-S , 20-C ) :   1.1399 B( 17-C , 18-C ) :   1.5832
B( 17-C , 33-H ) :   0.9665 B( 18-C , 19-C ) :   1.2279 B( 18-C , 21-H ) :   0.9880
B( 19-C , 20-C ) :   1.5842 B( 19-C , 22-C ) :   1.0318 B( 22-C , 23-H ) :   0.9071
B( 22-C , 24-H ) :   0.9291 B( 22-C , 25-C ) :   1.0819 B( 25-C , 26-H ) :   0.9480
B( 25-C , 27-H ) :   0.9462 B( 25-C , 28-C ) :   1.0925 B( 28-C , 29-H ) :   0.9696
B( 28-C , 30-H ) :   0.9659 B( 28-C , 31-H ) :   0.9700

Dispersion correction           -0.013785237
FINAL SINGLE POINT ENERGY     -1339.862548301019

DIPOLE MOMENT
-------------
                                X             Y             Z
Electronic contribution:      8.20113      -2.29957      14.21250
Nuclear contribution   :     -8.26616       2.29250     -14.38044
                        -----------------------------------------
Total Dipole Moment    :     -0.06503      -0.00707      -0.16794
                        -----------------------------------------
Magnitude (a.u.)       :      0.18023
Magnitude (Debye)      :      0.45810

Rotational constants in cm-1:     0.026080     0.006627     0.005855
Rotational constants in MHz :   781.855467   198.671125   175.540467

                             ****ORCA TERMINATED NORMALLY****
TOTAL RUN TIME: 0 days 0 hours 0 minutes 20 seconds 873 msec
