                         Program Version 4.2.1 -  RELEASE  -
|  1> ! wB97X-D3 SP def2-SVP
|  2> %pal
|  3> nprocs 24
|  4> end
|  5>
|  6> * xyz 0 1
|  7> S 	 -39.2551 	 -49.5724 	 -70.2217
|  8> C 	 -39.1655 	 -50.2812 	 -68.6339
|  9> C 	 -40.4457 	 -50.8425 	 -68.3668
| 10> C 	 -41.3916 	 -50.7547 	 -69.412
| 11> C 	 -40.8887 	 -50.1053 	 -70.5731
| 12> H 	 -42.4459 	 -51.0222 	 -69.3579
| 13> C 	 -40.9576 	 -51.26 	 -66.9753
| 14> H 	 -41.8541 	 -51.8381 	 -67.126
| 15> H 	 -41.1529 	 -50.4134 	 -66.3897
| 16> C 	 -39.9817 	 -52.1814 	 -66.2438
| 17> H 	 -39.5619 	 -53.0154 	 -66.7517
| 18> H 	 -39.1315 	 -51.5446 	 -65.9547
| 19> C 	 -40.6019 	 -52.7729 	 -65.0151
| 20> H 	 -41.3302 	 -53.5348 	 -65.4468
| 21> H 	 -39.8003 	 -53.1572 	 -64.3802
| 22> H 	 -41.2062 	 -52.061 	 -64.4635
| 23> S 	 -41.2363 	 -48.3811 	 -72.6846
| 24> C 	 -42.0876 	 -49.0106 	 -74.1146
| 25> C 	 -42.6822 	 -50.1945 	 -73.8596
| 26> C 	 -42.3448 	 -50.7699 	 -72.5959
| 27> C 	 -41.4946 	 -49.9483 	 -71.8884
| 28> H 	 -43.2274 	 -50.6705 	 -74.5991
| 29> C 	 -42.854 	 -52.1011 	 -72.1304
| 30> H 	 -42.1499 	 -52.5114 	 -71.4555
| 31> H 	 -42.7348 	 -52.8447 	 -72.929
| 32> C 	 -44.2445 	 -52.1369 	 -71.514
| 33> H 	 -44.9983 	 -52.0331 	 -72.2558
| 34> H 	 -44.5414 	 -51.3401 	 -70.8403
| 35> C 	 -44.4321 	 -53.4549 	 -70.784
| 36> H 	 -45.4237 	 -53.4948 	 -70.3041
| 37> H 	 -43.6532 	 -53.8329 	 -70.0977
| 38> H 	 -44.4395 	 -54.1822 	 -71.5333
| 39> H 	 -38.4489 	 -50.0528 	 -67.8099
| 40> H 	 -42.3308 	 -48.4588 	 -74.9871
| 41> *
| 42>
| 43>                          ****END OF INPUT****

CARTESIAN COORDINATES (ANGSTROEM)
---------------------------------
  S    -39.255100  -49.572400  -70.221700
  C    -39.165500  -50.281200  -68.633900
  C    -40.445700  -50.842500  -68.366800
  C    -41.391600  -50.754700  -69.412000
  C    -40.888700  -50.105300  -70.573100
  H    -42.445900  -51.022200  -69.357900
  C    -40.957600  -51.260000  -66.975300
  H    -41.854100  -51.838100  -67.126000
  H    -41.152900  -50.413400  -66.389700
  C    -39.981700  -52.181400  -66.243800
  H    -39.561900  -53.015400  -66.751700
  H    -39.131500  -51.544600  -65.954700
  C    -40.601900  -52.772900  -65.015100
  H    -41.330200  -53.534800  -65.446800
  H    -39.800300  -53.157200  -64.380200
  H    -41.206200  -52.061000  -64.463500
  S    -41.236300  -48.381100  -72.684600
  C    -42.087600  -49.010600  -74.114600
  C    -42.682200  -50.194500  -73.859600
  C    -42.344800  -50.769900  -72.595900
  C    -41.494600  -49.948300  -71.888400
  H    -43.227400  -50.670500  -74.599100
  C    -42.854000  -52.101100  -72.130400
  H    -42.149900  -52.511400  -71.455500
  H    -42.734800  -52.844700  -72.929000
  C    -44.244500  -52.136900  -71.514000
  H    -44.998300  -52.033100  -72.255800
  H    -44.541400  -51.340100  -70.840300
  C    -44.432100  -53.454900  -70.784000
  H    -45.423700  -53.494800  -70.304100
  H    -43.653200  -53.832900  -70.097700
  H    -44.439500  -54.182200  -71.533300
  H    -38.448900  -50.052800  -67.809900
  H    -42.330800  -48.458800  -74.987100

 Total Charge           Charge          ....    0
 Multiplicity           Mult            ....    1
 Number of Electrons    NEL             ....  134
 Basis Dimension        Dim             ....  322

ORBITAL ENERGIES
----------------

  NO   OCC          E(Eh)            E(eV)
   0   2.0000     -88.967749     -2420.9355
   1   2.0000     -88.965238     -2420.8672
   2   2.0000     -10.333443      -281.1873
   3   2.0000     -10.329223      -281.0725
   4   2.0000     -10.319410      -280.8054
   5   2.0000     -10.314452      -280.6705
   6   2.0000     -10.302690      -280.3504
   7   2.0000     -10.302411      -280.3429
   8   2.0000     -10.295249      -280.1480
   9   2.0000     -10.288756      -279.9713
  10   2.0000     -10.286820      -279.9186
  11   2.0000     -10.286092      -279.8988
  12   2.0000     -10.285517      -279.8832
  13   2.0000     -10.278806      -279.7005
  14   2.0000     -10.277654      -279.6692
  15   2.0000     -10.275884      -279.6210
  16   2.0000      -8.081918      -219.9202
  17   2.0000      -8.079380      -219.8511
  18   2.0000      -6.040426      -164.3684
  19   2.0000      -6.038007      -164.3025
  20   2.0000      -6.036216      -164.2538
  21   2.0000      -6.034182      -164.1984
  22   2.0000      -6.032970      -164.1655
  23   2.0000      -6.029840      -164.0803
  24   2.0000      -1.004449       -27.3324
  25   2.0000      -0.981735       -26.7144
  26   2.0000      -0.917168       -24.9574
  27   2.0000      -0.915766       -24.9193
  28   2.0000      -0.871146       -23.7051
  29   2.0000      -0.856537       -23.3075
  30   2.0000      -0.847750       -23.0685
  31   2.0000      -0.814468       -22.1628
  32   2.0000      -0.781854       -21.2753
  33   2.0000      -0.769005       -20.9257
  34   2.0000      -0.713312       -19.4102
  35   2.0000      -0.705226       -19.1902
  36   2.0000      -0.691874       -18.8268
  37   2.0000      -0.667233       -18.1563
  38   2.0000      -0.636983       -17.3332
  39   2.0000      -0.617503       -16.8031
  40   2.0000      -0.602652       -16.3990
  41   2.0000      -0.575905       -15.6712
  42   2.0000      -0.567722       -15.4485
  43   2.0000      -0.560543       -15.2531
  44   2.0000      -0.537152       -14.6167
  45   2.0000      -0.527000       -14.3404
  46   2.0000      -0.520888       -14.1741
  47   2.0000      -0.512340       -13.9415
  48   2.0000      -0.507507       -13.8100
  49   2.0000      -0.501562       -13.6482
  50   2.0000      -0.494868       -13.4661
  51   2.0000      -0.480966       -13.0878
  52   2.0000      -0.477502       -12.9935
  53   2.0000      -0.462563       -12.5870
  54   2.0000      -0.460454       -12.5296
  55   2.0000      -0.452891       -12.3238
  56   2.0000      -0.446834       -12.1590
  57   2.0000      -0.441069       -12.0021
  58   2.0000      -0.430271       -11.7083
  59   2.0000      -0.424352       -11.5472
  60   2.0000      -0.413698       -11.2573
  61   2.0000      -0.412135       -11.2148
  62   2.0000      -0.409905       -11.1541
  63   2.0000      -0.352515        -9.5924
  64   2.0000      -0.332810        -9.0562
  65   2.0000      -0.329834        -8.9753
  66   2.0000      -0.286962        -7.8086
  67   0.0000       0.019316         0.5256
  68   0.0000       0.075162         2.0453
  69   0.0000       0.103768         2.8237
  70   0.0000       0.125023         3.4020
  71   0.0000       0.130984         3.5643

MULLIKEN ATOMIC CHARGES
-----------------------
   0 S :    0.113928
   1 C :   -0.125973
   2 C :   -0.105408
   3 C :    0.013517
   4 C :   -0.145529
   5 H :    0.017922
   6 C :    0.078730
   7 H :    0.010183
   8 H :    0.036630
   9 C :   -0.097160
  10 H :    0.027399
  11 H :    0.015655
  12 C :   -0.047025
  13 H :    0.037920
  14 H :    0.041962
  15 H :    0.021738
  16 S :    0.091900
  17 C :   -0.062864
  18 C :   -0.004537
  19 C :   -0.038380
  20 C :   -0.135571
  21 H :   -0.010047
  22 C :    0.071414
  23 H :    0.008660
  24 H :    0.020552
  25 C :   -0.034490
  26 H :    0.013640
  27 H :    0.027621
  28 C :   -0.042987
  29 H :    0.035292
  30 H :    0.037299
  31 H :    0.005894
  32 H :    0.077469
  33 H :    0.044645
Sum of atomic charges:    0.0000000

LOEWDIN ATOMIC CHARGES
----------------------
   0 S :    0.423738
   1 C :   -0.225999
   2 C :   -0.061485
   3 C :   -0.073476
   4 C :   -0.193468
   5 H :    0.033626
   6 C :   -0.019745
   7 H :    0.023655
   8 H :    0.028167
   9 C :   -0.045684
  10 H :    0.022088
  11 H :    0.017367
  12 C :   -0.064862
  13 H :    0.032521
  14 H :    0.028977
  15 H :    0.018418
  16 S :    0.375429
  17 C :   -0.163478
  18 C :   -0.058798
  19 C :   -0.049880
  20 C :   -0.183136
  21 H :    0.020958
  22 C :   -0.032424
  23 H :    0.026704
  24 H :    0.035183
  25 C :   -0.035955
  26 H :    0.021832
  27 H :    0.022723
  28 C :   -0.064939
  29 H :    0.029551
  30 H :    0.028324
  31 H :    0.016232
  32 H :    0.042938
  33 H :    0.024897

  Mayer bond orders larger than 0.100000
B(  0-S ,  1-C ) :   1.1507 B(  0-S ,  4-C ) :   1.1832 B(  1-C ,  2-C ) :   1.5388
B(  1-C ,  4-C ) :   0.1187 B(  1-C , 32-H ) :   0.9641 B(  2-C ,  3-C ) :   1.3123
B(  2-C ,  6-C ) :   1.0163 B(  3-C ,  4-C ) :   1.4900 B(  3-C ,  5-H ) :   0.9946
B(  4-C , 20-C ) :   1.0497 B(  6-C ,  7-H ) :   0.9498 B(  6-C ,  8-H ) :   0.9371
B(  6-C ,  9-C ) :   1.0668 B(  9-C , 10-H ) :   0.9639 B(  9-C , 11-H ) :   0.9481
B(  9-C , 12-C ) :   1.0890 B( 12-C , 13-H ) :   0.9761 B( 12-C , 14-H ) :   0.9717
B( 12-C , 15-H ) :   0.9725 B( 16-S , 17-C ) :   1.1232 B( 16-S , 20-C ) :   1.1264
B( 17-C , 18-C ) :   1.6505 B( 17-C , 33-H ) :   0.9676 B( 18-C , 19-C ) :   1.2142
B( 18-C , 21-H ) :   0.9987 B( 19-C , 20-C ) :   1.6200 B( 19-C , 22-C ) :   1.0507
B( 22-C , 23-H ) :   0.9317 B( 22-C , 24-H ) :   0.9228 B( 22-C , 25-C ) :   1.0500
B( 25-C , 26-H ) :   0.9456 B( 25-C , 27-H ) :   0.9598 B( 25-C , 28-C ) :   1.0803
B( 28-C , 29-H ) :   0.9720 B( 28-C , 30-H ) :   0.9763 B( 28-C , 31-H ) :   0.9711

Dispersion correction           -0.013926411
FINAL SINGLE POINT ENERGY     -1339.867882739818

DIPOLE MOMENT
-------------
                                X             Y             Z
Electronic contribution:     12.77184      22.63187     -19.44479
Nuclear contribution   :    -13.35094     -23.04603      19.63886
                        -----------------------------------------
Total Dipole Moment    :     -0.57911      -0.41415       0.19407
                        -----------------------------------------
Magnitude (a.u.)       :      0.73794
Magnitude (Debye)      :      1.87569

Rotational constants in cm-1:     0.019311     0.008557     0.006168
Rotational constants in MHz :   578.918869   256.546267   184.922538

                             ****ORCA TERMINATED NORMALLY****
TOTAL RUN TIME: 0 days 0 hours 0 minutes 21 seconds 557 msec
