                         Program Version 4.2.1 -  RELEASE  -
|  1> ! wB97X-D3 SP def2-SVP
|  2> %pal
|  3> nprocs 24
|  4> end
|  5>
|  6> * xyz 0 1
|  7> S 	 -98.8192 	 -3.29673 	 -120.506
|  8> C 	 -99.4751 	 -4.46865 	 -121.599
|  9> C 	 -100.148 	 -3.85589 	 -122.651
| 10> C 	 -100.077 	 -2.42192 	 -122.633
| 11> C 	 -99.2725 	 -1.95432 	 -121.637
| 12> H 	 -100.561 	 -1.7862 	 -123.355
| 13> C 	 -100.996 	 -4.57772 	 -123.739
| 14> H 	 -100.372 	 -5.19219 	 -124.409
| 15> H 	 -101.509 	 -3.79193 	 -124.399
| 16> C 	 -102.165 	 -5.56234 	 -123.253
| 17> H 	 -102.851 	 -5.16084 	 -122.436
| 18> H 	 -102.773 	 -5.67289 	 -124.124
| 19> C 	 -101.619 	 -6.93511 	 -122.903
| 20> H 	 -101.23 	 -6.95651 	 -121.898
| 21> H 	 -102.392 	 -7.67682 	 -122.981
| 22> H 	 -100.796 	 -7.22362 	 -123.593
| 23> S 	 -98.6845 	 -0.163176 	 -119.635
| 24> C 	 -98.6731 	 1.52476 	 -119.868
| 25> C 	 -98.8272 	 1.81771 	 -121.225
| 26> C 	 -99.2078 	 0.703068 	 -122.016
| 27> C 	 -99.0933 	 -0.502882 	 -121.331
| 28> H 	 -98.7354 	 2.85933 	 -121.624
| 29> C 	 -99.2302 	 0.829931 	 -123.502
| 30> H 	 -99.1658 	 1.86544 	 -123.778
| 31> H 	 -100.209 	 0.652857 	 -123.901
| 32> C 	 -98.2939 	 -0.0279483 	 -124.321
| 33> H 	 -98.3702 	 -1.11719 	 -124.087
| 34> H 	 -97.2114 	 0.0551085 	 -124.039
| 35> C 	 -98.5348 	 0.175141 	 -125.785
| 36> H 	 -98.6722 	 1.21587 	 -126.017
| 37> H 	 -99.4457 	 -0.288 	 -126.195
| 38> H 	 -97.7457 	 -0.28499 	 -126.381
| 39> H 	 -99.5722 	 -5.53903 	 -121.368
| 40> H 	 -98.3006 	 2.30106 	 -119.19
| 41> *
| 42>
| 43>                          ****END OF INPUT****

CARTESIAN COORDINATES (ANGSTROEM)
---------------------------------
  S    -98.819200   -3.296730  -120.506000
  C    -99.475100   -4.468650  -121.599000
  C    -100.148000   -3.855890  -122.651000
  C    -100.077000   -2.421920  -122.633000
  C    -99.272500   -1.954320  -121.637000
  H    -100.561000   -1.786200  -123.355000
  C    -100.996000   -4.577720  -123.739000
  H    -100.372000   -5.192190  -124.409000
  H    -101.509000   -3.791930  -124.399000
  C    -102.165000   -5.562340  -123.253000
  H    -102.851000   -5.160840  -122.436000
  H    -102.773000   -5.672890  -124.124000
  C    -101.619000   -6.935110  -122.903000
  H    -101.230000   -6.956510  -121.898000
  H    -102.392000   -7.676820  -122.981000
  H    -100.796000   -7.223620  -123.593000
  S    -98.684500   -0.163176  -119.635000
  C    -98.673100    1.524760  -119.868000
  C    -98.827200    1.817710  -121.225000
  C    -99.207800    0.703068  -122.016000
  C    -99.093300   -0.502882  -121.331000
  H    -98.735400    2.859330  -121.624000
  C    -99.230200    0.829931  -123.502000
  H    -99.165800    1.865440  -123.778000
  H    -100.209000    0.652857  -123.901000
  C    -98.293900   -0.027948  -124.321000
  H    -98.370200   -1.117190  -124.087000
  H    -97.211400    0.055108  -124.039000
  C    -98.534800    0.175141  -125.785000
  H    -98.672200    1.215870  -126.017000
  H    -99.445700   -0.288000  -126.195000
  H    -97.745700   -0.284990  -126.381000
  H    -99.572200   -5.539030  -121.368000
  H    -98.300600    2.301060  -119.190000

 Total Charge           Charge          ....    0
 Multiplicity           Mult            ....    1
 Number of Electrons    NEL             ....  134
 Basis Dimension        Dim             ....  322

ORBITAL ENERGIES
----------------

  NO   OCC          E(Eh)            E(eV)
   0   2.0000     -88.971021     -2421.0246
   1   2.0000     -88.965558     -2420.8759
   2   2.0000     -10.338067      -281.3131
   3   2.0000     -10.333986      -281.2021
   4   2.0000     -10.317284      -280.7476
   5   2.0000     -10.315685      -280.7040
   6   2.0000     -10.306218      -280.4464
   7   2.0000     -10.306015      -280.4409
   8   2.0000     -10.302091      -280.3341
   9   2.0000     -10.296371      -280.1785
  10   2.0000     -10.295022      -280.1418
  11   2.0000     -10.292900      -280.0841
  12   2.0000     -10.285793      -279.8906
  13   2.0000     -10.283407      -279.8257
  14   2.0000     -10.278600      -279.6949
  15   2.0000     -10.274270      -279.5771
  16   2.0000      -8.084833      -219.9995
  17   2.0000      -8.080663      -219.8860
  18   2.0000      -6.043673      -164.4567
  19   2.0000      -6.039542      -164.3443
  20   2.0000      -6.039123      -164.3329
  21   2.0000      -6.035221      -164.2267
  22   2.0000      -6.035049      -164.2220
  23   2.0000      -6.031528      -164.1262
  24   2.0000      -1.006057       -27.3762
  25   2.0000      -0.984801       -26.7978
  26   2.0000      -0.917001       -24.9529
  27   2.0000      -0.901693       -24.5363
  28   2.0000      -0.866805       -23.5870
  29   2.0000      -0.857128       -23.3236
  30   2.0000      -0.849917       -23.1274
  31   2.0000      -0.810931       -22.0665
  32   2.0000      -0.780835       -21.2476
  33   2.0000      -0.771113       -20.9830
  34   2.0000      -0.708969       -19.2920
  35   2.0000      -0.697071       -18.9683
  36   2.0000      -0.692406       -18.8413
  37   2.0000      -0.664143       -18.0723
  38   2.0000      -0.637951       -17.3595
  39   2.0000      -0.621547       -16.9132
  40   2.0000      -0.601526       -16.3684
  41   2.0000      -0.568127       -15.4595
  42   2.0000      -0.555594       -15.1185
  43   2.0000      -0.539872       -14.6907
  44   2.0000      -0.537327       -14.6214
  45   2.0000      -0.528064       -14.3694
  46   2.0000      -0.515225       -14.0200
  47   2.0000      -0.510806       -13.8997
  48   2.0000      -0.504957       -13.7406
  49   2.0000      -0.498825       -13.5737
  50   2.0000      -0.489359       -13.3161
  51   2.0000      -0.483346       -13.1525
  52   2.0000      -0.481138       -13.0924
  53   2.0000      -0.465295       -12.6613
  54   2.0000      -0.459574       -12.5056
  55   2.0000      -0.452574       -12.3152
  56   2.0000      -0.446959       -12.1624
  57   2.0000      -0.439326       -11.9547
  58   2.0000      -0.434455       -11.8221
  59   2.0000      -0.425654       -11.5826
  60   2.0000      -0.417172       -11.3518
  61   2.0000      -0.413905       -11.2629
  62   2.0000      -0.401465       -10.9244
  63   2.0000      -0.360997        -9.8232
  64   2.0000      -0.334128        -9.0921
  65   2.0000      -0.328290        -8.9332
  66   2.0000      -0.282901        -7.6981
  67   0.0000       0.017170         0.4672
  68   0.0000       0.078197         2.1279
  69   0.0000       0.094992         2.5849
  70   0.0000       0.121106         3.2955
  71   0.0000       0.132779         3.6131

MULLIKEN ATOMIC CHARGES
-----------------------
   0 S :    0.103746
   1 C :   -0.120416
   2 C :   -0.060779
   3 C :   -0.009219
   4 C :   -0.077081
   5 H :    0.018306
   6 C :    0.004111
   7 H :    0.040745
   8 H :    0.035199
   9 C :   -0.083636
  10 H :    0.050959
  11 H :    0.023765
  12 C :   -0.049167
  13 H :    0.031870
  14 H :    0.030720
  15 H :    0.029448
  16 S :    0.094381
  17 C :   -0.081345
  18 C :   -0.076271
  19 C :   -0.008612
  20 C :   -0.159122
  21 H :    0.036414
  22 C :    0.059439
  23 H :   -0.000934
  24 H :    0.009212
  25 C :   -0.079134
  26 H :    0.037643
  27 H :    0.032232
  28 C :   -0.033966
  29 H :    0.020582
  30 H :    0.021563
  31 H :    0.034218
  32 H :    0.057161
  33 H :    0.067971
Sum of atomic charges:   -0.0000000

LOEWDIN ATOMIC CHARGES
----------------------
   0 S :    0.387266
   1 C :   -0.207139
   2 C :   -0.064210
   3 C :   -0.059553
   4 C :   -0.171314
   5 H :    0.032900
   6 C :   -0.034299
   7 H :    0.031116
   8 H :    0.034609
   9 C :   -0.043388
  10 H :    0.034476
  11 H :    0.019913
  12 C :   -0.067469
  13 H :    0.019563
  14 H :    0.024438
  15 H :    0.027549
  16 S :    0.415733
  17 C :   -0.210793
  18 C :   -0.074837
  19 C :   -0.066013
  20 C :   -0.174707
  21 H :    0.037999
  22 C :   -0.036953
  23 H :    0.027640
  24 H :    0.027638
  25 C :   -0.052499
  26 H :    0.031051
  27 H :    0.030030
  28 C :   -0.065432
  29 H :    0.020049
  30 H :    0.024767
  31 H :    0.030001
  32 H :    0.033827
  33 H :    0.038041

  Mayer bond orders larger than 0.100000
B(  0-S ,  1-C ) :   1.1299 B(  0-S ,  4-C ) :   1.1320 B(  1-C ,  2-C ) :   1.6194
B(  1-C , 32-H ) :   0.9615 B(  2-C ,  3-C ) :   1.2500 B(  2-C ,  6-C ) :   1.0082
B(  3-C ,  4-C ) :   1.5664 B(  3-C ,  5-H ) :   0.9932 B(  4-C , 20-C ) :   1.0681
B(  6-C ,  7-H ) :   0.9435 B(  6-C ,  8-H ) :   0.9527 B(  6-C ,  9-C ) :   1.0605
B(  9-C , 10-H ) :   0.9585 B(  9-C , 11-H ) :   0.9571 B(  9-C , 12-C ) :   1.0770
B( 12-C , 13-H ) :   0.9735 B( 12-C , 14-H ) :   0.9706 B( 12-C , 15-H ) :   0.9744
B( 16-S , 17-C ) :   1.1761 B( 16-S , 20-C ) :   1.1429 B( 17-C , 18-C ) :   1.5852
B( 17-C , 20-C ) :   0.1004 B( 17-C , 33-H ) :   0.9619 B( 18-C , 19-C ) :   1.2808
B( 18-C , 21-H ) :   0.9759 B( 19-C , 20-C ) :   1.5554 B( 19-C , 22-C ) :   1.0519
B( 22-C , 23-H ) :   0.9304 B( 22-C , 24-H ) :   0.9166 B( 22-C , 25-C ) :   1.0612
B( 25-C , 26-H ) :   0.9414 B( 25-C , 27-H ) :   0.9519 B( 25-C , 28-C ) :   1.0826
B( 28-C , 29-H ) :   0.9753 B( 28-C , 30-H ) :   0.9705 B( 28-C , 31-H ) :   0.9700

Dispersion correction           -0.014306391
FINAL SINGLE POINT ENERGY     -1339.873219639546

DIPOLE MOMENT
-------------
                                X             Y             Z
Electronic contribution:      8.61934       8.35589      25.15575
Nuclear contribution   :     -8.91558      -8.39089     -25.77126
                        -----------------------------------------
Total Dipole Moment    :     -0.29624      -0.03500      -0.61551
                        -----------------------------------------
Magnitude (a.u.)       :      0.68399
Magnitude (Debye)      :      1.73856

Rotational constants in cm-1:     0.020226     0.008438     0.006431
Rotational constants in MHz :   606.363829   252.951549   192.792858

                             ****ORCA TERMINATED NORMALLY****
TOTAL RUN TIME: 0 days 0 hours 0 minutes 20 seconds 614 msec
