                         Program Version 4.2.1 -  RELEASE  -
|  1> ! wB97X-D3 SP def2-SVP
|  2> %pal
|  3> nprocs 24
|  4> end
|  5>
|  6> * xyz 0 1
|  7> S 	 -100.184 	 13.7432 	 -121.19
|  8> C 	 -99.1848 	 14.4961 	 -120.015
|  9> C 	 -99.7648 	 14.4435 	 -118.722
| 10> C 	 -100.953 	 13.6907 	 -118.731
| 11> C 	 -101.359 	 13.2174 	 -119.952
| 12> H 	 -101.54 	 13.5365 	 -117.778
| 13> C 	 -99.1119 	 14.9982 	 -117.418
| 14> H 	 -98.0578 	 14.6005 	 -117.321
| 15> H 	 -99.6558 	 14.6135 	 -116.592
| 16> C 	 -99.1987 	 16.5463 	 -117.234
| 17> H 	 -98.7395 	 17.0471 	 -118.062
| 18> H 	 -100.3 	 16.7799 	 -117.267
| 19> C 	 -98.5567 	 17.1728 	 -115.974
| 20> H 	 -97.4118 	 17.2314 	 -115.998
| 21> H 	 -98.9458 	 18.2335 	 -115.843
| 22> H 	 -98.7164 	 16.681 	 -114.987
| 23> S 	 -103.357 	 13.0994 	 -121.719
| 24> C 	 -104.534 	 11.8076 	 -121.677
| 25> C 	 -104.179 	 10.8402 	 -120.732
| 26> C 	 -102.963 	 11.163 	 -120.028
| 27> C 	 -102.482 	 12.4352 	 -120.386
| 28> H 	 -104.774 	 9.95726 	 -120.647
| 29> C 	 -102.498 	 10.266 	 -118.906
| 30> H 	 -101.383 	 10.3007 	 -118.899
| 31> H 	 -102.626 	 9.25835 	 -119.243
| 32> C 	 -103.23 	 10.5878 	 -117.654
| 33> H 	 -104.298 	 10.1922 	 -117.776
| 34> H 	 -103.112 	 11.6308 	 -117.409
| 35> C 	 -102.558 	 9.83034 	 -116.501
| 36> H 	 -101.727 	 10.3633 	 -116.064
| 37> H 	 -102.155 	 8.91329 	 -116.921
| 38> H 	 -103.287 	 9.70858 	 -115.716
| 39> H 	 -98.1689 	 14.8928 	 -120.162
| 40> H 	 -105.351 	 11.7064 	 -122.386
| 41> *
| 42>
| 43>                          ****END OF INPUT****

CARTESIAN COORDINATES (ANGSTROEM)
---------------------------------
  S    -100.184000   13.743200  -121.190000
  C    -99.184800   14.496100  -120.015000
  C    -99.764800   14.443500  -118.722000
  C    -100.953000   13.690700  -118.731000
  C    -101.359000   13.217400  -119.952000
  H    -101.540000   13.536500  -117.778000
  C    -99.111900   14.998200  -117.418000
  H    -98.057800   14.600500  -117.321000
  H    -99.655800   14.613500  -116.592000
  C    -99.198700   16.546300  -117.234000
  H    -98.739500   17.047100  -118.062000
  H    -100.300000   16.779900  -117.267000
  C    -98.556700   17.172800  -115.974000
  H    -97.411800   17.231400  -115.998000
  H    -98.945800   18.233500  -115.843000
  H    -98.716400   16.681000  -114.987000
  S    -103.357000   13.099400  -121.719000
  C    -104.534000   11.807600  -121.677000
  C    -104.179000   10.840200  -120.732000
  C    -102.963000   11.163000  -120.028000
  C    -102.482000   12.435200  -120.386000
  H    -104.774000    9.957260  -120.647000
  C    -102.498000   10.266000  -118.906000
  H    -101.383000   10.300700  -118.899000
  H    -102.626000    9.258350  -119.243000
  C    -103.230000   10.587800  -117.654000
  H    -104.298000   10.192200  -117.776000
  H    -103.112000   11.630800  -117.409000
  C    -102.558000    9.830340  -116.501000
  H    -101.727000   10.363300  -116.064000
  H    -102.155000    8.913290  -116.921000
  H    -103.287000    9.708580  -115.716000
  H    -98.168900   14.892800  -120.162000
  H    -105.351000   11.706400  -122.386000

 Total Charge           Charge          ....    0
 Multiplicity           Mult            ....    1
 Number of Electrons    NEL             ....  134
 Basis Dimension        Dim             ....  322

ORBITAL ENERGIES
----------------

  NO   OCC          E(Eh)            E(eV)
   0   2.0000     -88.968652     -2420.9601
   1   2.0000     -88.964567     -2420.8489
   2   2.0000     -10.329631      -281.0836
   3   2.0000     -10.324200      -280.9358
   4   2.0000     -10.317230      -280.7461
   5   2.0000     -10.317055      -280.7413
   6   2.0000     -10.303987      -280.3857
   7   2.0000     -10.303449      -280.3711
   8   2.0000     -10.298890      -280.2470
   9   2.0000     -10.298496      -280.2363
  10   2.0000     -10.293699      -280.1058
  11   2.0000     -10.292939      -280.0851
  12   2.0000     -10.292651      -280.0773
  13   2.0000     -10.287889      -279.9477
  14   2.0000     -10.286901      -279.9208
  15   2.0000     -10.272242      -279.5219
  16   2.0000      -8.083158      -219.9539
  17   2.0000      -8.079717      -219.8603
  18   2.0000      -6.041577      -164.3997
  19   2.0000      -6.038201      -164.3078
  20   2.0000      -6.037590      -164.2912
  21   2.0000      -6.034118      -164.1967
  22   2.0000      -6.034021      -164.1941
  23   2.0000      -6.030630      -164.1018
  24   2.0000      -1.007821       -27.4242
  25   2.0000      -0.982585       -26.7375
  26   2.0000      -0.919604       -25.0237
  27   2.0000      -0.901640       -24.5349
  28   2.0000      -0.867982       -23.6190
  29   2.0000      -0.852047       -23.1854
  30   2.0000      -0.846515       -23.0348
  31   2.0000      -0.811495       -22.0819
  32   2.0000      -0.780087       -21.2272
  33   2.0000      -0.766682       -20.8625
  34   2.0000      -0.702617       -19.1192
  35   2.0000      -0.696677       -18.9575
  36   2.0000      -0.693349       -18.8670
  37   2.0000      -0.665441       -18.1076
  38   2.0000      -0.637950       -17.3595
  39   2.0000      -0.619217       -16.8498
  40   2.0000      -0.595458       -16.2032
  41   2.0000      -0.572452       -15.5772
  42   2.0000      -0.565512       -15.3884
  43   2.0000      -0.552335       -15.0298
  44   2.0000      -0.535298       -14.5662
  45   2.0000      -0.522308       -14.2127
  46   2.0000      -0.515914       -14.0387
  47   2.0000      -0.512508       -13.9461
  48   2.0000      -0.503955       -13.7133
  49   2.0000      -0.496699       -13.5159
  50   2.0000      -0.491515       -13.3748
  51   2.0000      -0.477403       -12.9908
  52   2.0000      -0.469027       -12.7629
  53   2.0000      -0.461482       -12.5576
  54   2.0000      -0.457588       -12.4516
  55   2.0000      -0.447486       -12.1767
  56   2.0000      -0.444655       -12.0997
  57   2.0000      -0.436438       -11.8761
  58   2.0000      -0.428613       -11.6631
  59   2.0000      -0.424477       -11.5506
  60   2.0000      -0.419178       -11.4064
  61   2.0000      -0.417880       -11.3711
  62   2.0000      -0.414018       -11.2660
  63   2.0000      -0.348513        -9.4835
  64   2.0000      -0.333272        -9.0688
  65   2.0000      -0.328518        -8.9394
  66   2.0000      -0.287212        -7.8154
  67   0.0000       0.031647         0.8611
  68   0.0000       0.060599         1.6490
  69   0.0000       0.111327         3.0293
  70   0.0000       0.122844         3.3428
  71   0.0000       0.127147         3.4598

MULLIKEN ATOMIC CHARGES
-----------------------
   0 S :    0.122198
   1 C :   -0.121433
   2 C :   -0.118276
   3 C :    0.018690
   4 C :   -0.146823
   5 H :    0.030170
   6 C :    0.070955
   7 H :    0.044019
   8 H :    0.004125
   9 C :   -0.068234
  10 H :    0.028908
  11 H :    0.039844
  12 C :   -0.103036
  13 H :    0.040945
  14 H :    0.049592
  15 H :    0.033169
  16 S :    0.108836
  17 C :   -0.092604
  18 C :   -0.040962
  19 C :   -0.027053
  20 C :   -0.173446
  21 H :    0.012873
  22 C :    0.050851
  23 H :    0.032056
  24 H :    0.011992
  25 C :   -0.067263
  26 H :    0.046850
  27 H :    0.031369
  28 C :   -0.017284
  29 H :    0.028117
  30 H :    0.024591
  31 H :    0.029096
  32 H :    0.058558
  33 H :    0.058609
Sum of atomic charges:   -0.0000000

LOEWDIN ATOMIC CHARGES
----------------------
   0 S :    0.414684
   1 C :   -0.210420
   2 C :   -0.069302
   3 C :   -0.070256
   4 C :   -0.189456
   5 H :    0.040422
   6 C :   -0.030749
   7 H :    0.036020
   8 H :    0.021121
   9 C :   -0.044440
  10 H :    0.020777
  11 H :    0.032623
  12 C :   -0.085609
  13 H :    0.030870
  14 H :    0.036648
  15 H :    0.023852
  16 S :    0.419822
  17 C :   -0.189059
  18 C :   -0.068655
  19 C :   -0.048554
  20 C :   -0.214659
  21 H :    0.027485
  22 C :   -0.042294
  23 H :    0.035356
  24 H :    0.027037
  25 C :   -0.037252
  26 H :    0.037558
  27 H :    0.023354
  28 C :   -0.059885
  29 H :    0.023171
  30 H :    0.023017
  31 H :    0.023078
  32 H :    0.034590
  33 H :    0.029105

  Mayer bond orders larger than 0.100000
B(  0-S ,  1-C ) :   1.1680 B(  0-S ,  4-C ) :   1.1451 B(  1-C ,  2-C ) :   1.5724
B(  1-C ,  4-C ) :   0.1114 B(  1-C , 32-H ) :   0.9641 B(  2-C ,  3-C ) :   1.2918
B(  2-C ,  6-C ) :   1.0162 B(  3-C ,  4-C ) :   1.5658 B(  3-C ,  5-H ) :   0.9815
B(  4-C , 20-C ) :   1.0475 B(  6-C ,  7-H ) :   0.9471 B(  6-C ,  8-H ) :   0.9399
B(  6-C ,  9-C ) :   1.0531 B(  9-C , 10-H ) :   0.9596 B(  9-C , 11-H ) :   0.9575
B(  9-C , 12-C ) :   1.0709 B( 12-C , 13-H ) :   0.9749 B( 12-C , 14-H ) :   0.9743
B( 12-C , 15-H ) :   0.9763 B( 16-S , 17-C ) :   1.1584 B( 16-S , 20-C ) :   1.1546
B( 17-C , 18-C ) :   1.5939 B( 17-C , 20-C ) :   0.1054 B( 17-C , 33-H ) :   0.9685
B( 18-C , 19-C ) :   1.2405 B( 18-C , 21-H ) :   0.9929 B( 19-C , 20-C ) :   1.5620
B( 19-C , 22-C ) :   1.0569 B( 22-C , 23-H ) :   0.9314 B( 22-C , 24-H ) :   0.9178
B( 22-C , 25-C ) :   1.0757 B( 25-C , 26-H ) :   0.9498 B( 25-C , 27-H ) :   0.9565
B( 25-C , 28-C ) :   1.0797 B( 28-C , 29-H ) :   0.9768 B( 28-C , 30-H ) :   0.9724
B( 28-C , 31-H ) :   0.9736

Dispersion correction           -0.013762309
FINAL SINGLE POINT ENERGY     -1339.878712527511

DIPOLE MOMENT
-------------
                                X             Y             Z
Electronic contribution:     -6.65505      -0.24087     -28.45141
Nuclear contribution   :      6.71284       0.00135      29.00625
                        -----------------------------------------
Total Dipole Moment    :      0.05779      -0.23952       0.55484
                        -----------------------------------------
Magnitude (a.u.)       :      0.60709
Magnitude (Debye)      :      1.54311

Rotational constants in cm-1:     0.018795     0.007994     0.006210
Rotational constants in MHz :   563.460339   239.667738   186.168106

                             ****ORCA TERMINATED NORMALLY****
TOTAL RUN TIME: 0 days 0 hours 0 minutes 20 seconds 37 msec
