                         Program Version 4.2.1 -  RELEASE  -
|  1> ! wB97X-D3 SP def2-SVP
|  2> %pal
|  3> nprocs 24
|  4> end
|  5>
|  6> * xyz 0 1
|  7> S 	 -67.3685 	 19.1107 	 -115.919
|  8> C 	 -67.8318 	 19.3227 	 -117.62
|  9> C 	 -66.7415 	 19.1169 	 -118.441
| 10> C 	 -65.5979 	 18.6728 	 -117.728
| 11> C 	 -65.7824 	 18.5221 	 -116.365
| 12> H 	 -64.6521 	 18.4092 	 -118.124
| 13> C 	 -66.9038 	 19.1384 	 -119.935
| 14> H 	 -66.352 	 19.9673 	 -120.325
| 15> H 	 -68.0232 	 19.2371 	 -120.142
| 16> C 	 -66.5468 	 17.8549 	 -120.734
| 17> H 	 -65.5381 	 17.6173 	 -120.539
| 18> H 	 -67.235 	 17.0649 	 -120.362
| 19> C 	 -66.7513 	 17.9745 	 -122.285
| 20> H 	 -67.6739 	 18.5108 	 -122.428
| 21> H 	 -65.9743 	 18.535 	 -122.785
| 22> H 	 -66.9401 	 17.0064 	 -122.713
| 23> S 	 -65.0172 	 16.4694 	 -114.779
| 24> C 	 -63.3681 	 16.4529 	 -114.222
| 25> C 	 -62.6791 	 17.6234 	 -114.534
| 26> C 	 -63.4603 	 18.5574 	 -115.256
| 27> C 	 -64.762 	 18.0185 	 -115.464
| 28> H 	 -61.7162 	 17.6975 	 -114.234
| 29> C 	 -62.9214 	 19.8249 	 -115.906
| 30> H 	 -63.8271 	 20.2171 	 -116.483
| 31> H 	 -62.1722 	 19.5924 	 -116.635
| 32> C 	 -62.3482 	 20.8527 	 -114.961
| 33> H 	 -61.4152 	 20.5496 	 -114.578
| 34> H 	 -63.0912 	 21.0031 	 -114.1
| 35> C 	 -62.1409 	 22.2237 	 -115.638
| 36> H 	 -63.0112 	 22.8888 	 -115.652
| 37> H 	 -61.8358 	 22.0265 	 -116.722
| 38> H 	 -61.3545 	 22.7468 	 -115.222
| 39> H 	 -68.8906 	 19.509 	 -117.96
| 40> H 	 -62.9744 	 15.6281 	 -113.553
| 41> *
| 42>
| 43>                          ****END OF INPUT****

CARTESIAN COORDINATES (ANGSTROEM)
---------------------------------
  S    -67.368500   19.110700  -115.919000
  C    -67.831800   19.322700  -117.620000
  C    -66.741500   19.116900  -118.441000
  C    -65.597900   18.672800  -117.728000
  C    -65.782400   18.522100  -116.365000
  H    -64.652100   18.409200  -118.124000
  C    -66.903800   19.138400  -119.935000
  H    -66.352000   19.967300  -120.325000
  H    -68.023200   19.237100  -120.142000
  C    -66.546800   17.854900  -120.734000
  H    -65.538100   17.617300  -120.539000
  H    -67.235000   17.064900  -120.362000
  C    -66.751300   17.974500  -122.285000
  H    -67.673900   18.510800  -122.428000
  H    -65.974300   18.535000  -122.785000
  H    -66.940100   17.006400  -122.713000
  S    -65.017200   16.469400  -114.779000
  C    -63.368100   16.452900  -114.222000
  C    -62.679100   17.623400  -114.534000
  C    -63.460300   18.557400  -115.256000
  C    -64.762000   18.018500  -115.464000
  H    -61.716200   17.697500  -114.234000
  C    -62.921400   19.824900  -115.906000
  H    -63.827100   20.217100  -116.483000
  H    -62.172200   19.592400  -116.635000
  C    -62.348200   20.852700  -114.961000
  H    -61.415200   20.549600  -114.578000
  H    -63.091200   21.003100  -114.100000
  C    -62.140900   22.223700  -115.638000
  H    -63.011200   22.888800  -115.652000
  H    -61.835800   22.026500  -116.722000
  H    -61.354500   22.746800  -115.222000
  H    -68.890600   19.509000  -117.960000
  H    -62.974400   15.628100  -113.553000

 Total Charge           Charge          ....    0
 Multiplicity           Mult            ....    1
 Number of Electrons    NEL             ....  134
 Basis Dimension        Dim             ....  322

ORBITAL ENERGIES
----------------

  NO   OCC          E(Eh)            E(eV)
   0   2.0000     -88.969575     -2420.9852
   1   2.0000     -88.963641     -2420.8237
   2   2.0000     -10.325507      -280.9713
   3   2.0000     -10.323550      -280.9181
   4   2.0000     -10.320726      -280.8412
   5   2.0000     -10.318267      -280.7743
   6   2.0000     -10.306006      -280.4407
   7   2.0000     -10.299435      -280.2619
   8   2.0000     -10.293349      -280.0963
   9   2.0000     -10.291490      -280.0457
  10   2.0000     -10.289603      -279.9943
  11   2.0000     -10.287829      -279.9461
  12   2.0000     -10.286458      -279.9087
  13   2.0000     -10.286025      -279.8970
  14   2.0000     -10.276846      -279.6472
  15   2.0000     -10.275753      -279.6174
  16   2.0000      -8.084974      -220.0033
  17   2.0000      -8.078016      -219.8140
  18   2.0000      -6.043207      -164.4440
  19   2.0000      -6.039378      -164.3398
  20   2.0000      -6.036513      -164.2619
  21   2.0000      -6.036009      -164.2482
  22   2.0000      -6.032537      -164.1537
  23   2.0000      -6.028850      -164.0534
  24   2.0000      -1.007553       -27.4169
  25   2.0000      -0.983613       -26.7655
  26   2.0000      -0.910572       -24.7779
  27   2.0000      -0.907371       -24.6908
  28   2.0000      -0.868717       -23.6390
  29   2.0000      -0.853847       -23.2343
  30   2.0000      -0.845228       -22.9998
  31   2.0000      -0.812905       -22.1203
  32   2.0000      -0.782550       -21.2943
  33   2.0000      -0.767757       -20.8917
  34   2.0000      -0.707081       -19.2407
  35   2.0000      -0.695988       -18.9388
  36   2.0000      -0.688978       -18.7481
  37   2.0000      -0.660610       -17.9761
  38   2.0000      -0.639793       -17.4097
  39   2.0000      -0.619339       -16.8531
  40   2.0000      -0.596576       -16.2337
  41   2.0000      -0.574229       -15.6256
  42   2.0000      -0.571116       -15.5408
  43   2.0000      -0.559410       -15.2223
  44   2.0000      -0.527886       -14.3645
  45   2.0000      -0.520175       -14.1547
  46   2.0000      -0.515564       -14.0292
  47   2.0000      -0.511342       -13.9143
  48   2.0000      -0.504573       -13.7301
  49   2.0000      -0.497415       -13.5354
  50   2.0000      -0.489259       -13.3134
  51   2.0000      -0.476492       -12.9660
  52   2.0000      -0.468517       -12.7490
  53   2.0000      -0.464328       -12.6350
  54   2.0000      -0.459918       -12.5150
  55   2.0000      -0.452780       -12.3208
  56   2.0000      -0.447049       -12.1648
  57   2.0000      -0.435893       -11.8613
  58   2.0000      -0.431775       -11.7492
  59   2.0000      -0.423334       -11.5195
  60   2.0000      -0.417869       -11.3708
  61   2.0000      -0.417549       -11.3621
  62   2.0000      -0.415968       -11.3191
  63   2.0000      -0.341548        -9.2940
  64   2.0000      -0.329533        -8.9670
  65   2.0000      -0.325540        -8.8584
  66   2.0000      -0.299153        -8.1404
  67   0.0000       0.034392         0.9359
  68   0.0000       0.065227         1.7749
  69   0.0000       0.121367         3.3026
  70   0.0000       0.124409         3.3853
  71   0.0000       0.125655         3.4192

MULLIKEN ATOMIC CHARGES
-----------------------
   0 S :    0.106209
   1 C :   -0.158945
   2 C :   -0.045608
   3 C :    0.045968
   4 C :   -0.174891
   5 H :   -0.001283
   6 C :    0.044439
   7 H :    0.031180
   8 H :    0.022898
   9 C :   -0.090375
  10 H :    0.023854
  11 H :    0.037615
  12 C :   -0.027653
  13 H :    0.013334
  14 H :    0.037609
  15 H :    0.035249
  16 S :    0.137214
  17 C :   -0.130497
  18 C :    0.005479
  19 C :   -0.005334
  20 C :   -0.189651
  21 H :   -0.024624
  22 C :    0.045957
  23 H :    0.047841
  24 H :    0.030228
  25 C :   -0.077886
  26 H :    0.019695
  27 H :    0.045223
  28 C :   -0.038543
  29 H :    0.043893
  30 H :    0.024717
  31 H :    0.015588
  32 H :    0.072554
  33 H :    0.078545
Sum of atomic charges:    0.0000000

LOEWDIN ATOMIC CHARGES
----------------------
   0 S :    0.390207
   1 C :   -0.197141
   2 C :   -0.068478
   3 C :   -0.057462
   4 C :   -0.200267
   5 H :    0.024595
   6 C :   -0.032949
   7 H :    0.026003
   8 H :    0.034802
   9 C :   -0.035453
  10 H :    0.012198
  11 H :    0.029795
  12 C :   -0.060886
  13 H :    0.021494
  14 H :    0.024674
  15 H :    0.027339
  16 S :    0.440749
  17 C :   -0.198462
  18 C :   -0.058655
  19 C :   -0.046411
  20 C :   -0.219844
  21 H :    0.013325
  22 C :   -0.038976
  23 H :    0.041987
  24 H :    0.027190
  25 C :   -0.040152
  26 H :    0.015313
  27 H :    0.035271
  28 C :   -0.062546
  29 H :    0.028501
  30 H :    0.030161
  31 H :    0.013437
  32 H :    0.040801
  33 H :    0.039839

  Mayer bond orders larger than 0.100000
B(  0-S ,  1-C ) :   1.1329 B(  0-S ,  4-C ) :   1.1533 B(  1-C ,  2-C ) :   1.6065
B(  1-C , 32-H ) :   0.9594 B(  2-C ,  3-C ) :   1.2302 B(  2-C ,  6-C ) :   1.0308
B(  3-C ,  4-C ) :   1.5675 B(  3-C ,  5-H ) :   1.0047 B(  4-C , 20-C ) :   1.0229
B(  6-C ,  7-H ) :   0.9315 B(  6-C ,  8-H ) :   0.9457 B(  6-C ,  9-C ) :   1.0647
B(  9-C , 10-H ) :   0.9572 B(  9-C , 11-H ) :   0.9598 B(  9-C , 12-C ) :   1.0797
B( 12-C , 13-H ) :   0.9736 B( 12-C , 14-H ) :   0.9768 B( 12-C , 15-H ) :   0.9761
B( 16-S , 17-C ) :   1.1699 B( 16-S , 20-C ) :   1.1821 B( 17-C , 18-C ) :   1.5839
B( 17-C , 20-C ) :   0.1043 B( 17-C , 33-H ) :   0.9594 B( 18-C , 19-C ) :   1.2520
B( 18-C , 21-H ) :   1.0105 B( 19-C , 20-C ) :   1.5462 B( 19-C , 22-C ) :   1.0413
B( 22-C , 23-H ) :   0.9324 B( 22-C , 24-H ) :   0.9281 B( 22-C , 25-C ) :   1.0660
B( 25-C , 26-H ) :   0.9543 B( 25-C , 27-H ) :   0.9590 B( 25-C , 28-C ) :   1.0838
B( 28-C , 29-H ) :   0.9771 B( 28-C , 30-H ) :   0.9712 B( 28-C , 31-H ) :   0.9750

Dispersion correction           -0.013697815
FINAL SINGLE POINT ENERGY     -1339.875178067666

DIPOLE MOMENT
-------------
                                X             Y             Z
Electronic contribution:     -9.40544     -12.11448      20.31930
Nuclear contribution   :      9.83618      12.17526     -20.74277
                        -----------------------------------------
Total Dipole Moment    :      0.43074       0.06078      -0.42347
                        -----------------------------------------
Magnitude (a.u.)       :      0.60709
Magnitude (Debye)      :      1.54309

Rotational constants in cm-1:     0.016663     0.007943     0.006924
Rotational constants in MHz :   499.544503   238.133763   207.581464

                             ****ORCA TERMINATED NORMALLY****
TOTAL RUN TIME: 0 days 0 hours 0 minutes 21 seconds 215 msec
