                         Program Version 4.2.1 -  RELEASE  -
|  1> ! wB97X-D3 SP def2-SVP
|  2> %pal
|  3> nprocs 24
|  4> end
|  5>
|  6> * xyz 0 1
|  7> S 	 -133.266 	 29.0468 	 -13.7193
|  8> C 	 -131.917 	 28.463 	 -14.7779
|  9> C 	 -132.382 	 28.1127 	 -16.0228
| 10> C 	 -133.777 	 28.5401 	 -16.1913
| 11> C 	 -134.354 	 29.0852 	 -15.0475
| 12> H 	 -134.371 	 28.5433 	 -17.1008
| 13> C 	 -131.442 	 27.4923 	 -17.0268
| 14> H 	 -131.059 	 26.507 	 -16.6425
| 15> H 	 -130.644 	 28.2089 	 -17.2335
| 16> C 	 -132.073 	 27.282 	 -18.4188
| 17> H 	 -132.837 	 26.5765 	 -18.2508
| 18> H 	 -132.588 	 28.2125 	 -18.6506
| 19> C 	 -131.177 	 26.8008 	 -19.4761
| 20> H 	 -131.886 	 26.4593 	 -20.2643
| 21> H 	 -130.585 	 27.6254 	 -19.8978
| 22> H 	 -130.574 	 26.0096 	 -19.0584
| 23> S 	 -136.056 	 31.1007 	 -15.784
| 24> C 	 -137.578 	 31.2136 	 -15.0316
| 25> C 	 -137.866 	 30.1616 	 -14.1837
| 26> C 	 -136.78 	 29.2314 	 -14.1194
| 27> C 	 -135.707 	 29.6155 	 -14.9326
| 28> H 	 -138.761 	 30.2482 	 -13.6639
| 29> C 	 -136.75 	 28.0123 	 -13.2028
| 30> H 	 -136.594 	 28.4162 	 -12.2473
| 31> H 	 -135.744 	 27.5169 	 -13.372
| 32> C 	 -137.872 	 26.9732 	 -13.3354
| 33> H 	 -137.988 	 26.7685 	 -14.4476
| 34> H 	 -138.812 	 27.3722 	 -12.9545
| 35> C 	 -137.685 	 25.6998 	 -12.5377
| 36> H 	 -138.486 	 25.0775 	 -12.5663
| 37> H 	 -137.633 	 26.012 	 -11.4858
| 38> H 	 -136.79 	 25.1457 	 -12.7646
| 39> H 	 -130.924 	 28.3705 	 -14.4167
| 40> H 	 -138.26 	 32.015 	 -15.2024
| 41> *
| 42>
| 43>                          ****END OF INPUT****

CARTESIAN COORDINATES (ANGSTROEM)
---------------------------------
  S    -133.266000   29.046800  -13.719300
  C    -131.917000   28.463000  -14.777900
  C    -132.382000   28.112700  -16.022800
  C    -133.777000   28.540100  -16.191300
  C    -134.354000   29.085200  -15.047500
  H    -134.371000   28.543300  -17.100800
  C    -131.442000   27.492300  -17.026800
  H    -131.059000   26.507000  -16.642500
  H    -130.644000   28.208900  -17.233500
  C    -132.073000   27.282000  -18.418800
  H    -132.837000   26.576500  -18.250800
  H    -132.588000   28.212500  -18.650600
  C    -131.177000   26.800800  -19.476100
  H    -131.886000   26.459300  -20.264300
  H    -130.585000   27.625400  -19.897800
  H    -130.574000   26.009600  -19.058400
  S    -136.056000   31.100700  -15.784000
  C    -137.578000   31.213600  -15.031600
  C    -137.866000   30.161600  -14.183700
  C    -136.780000   29.231400  -14.119400
  C    -135.707000   29.615500  -14.932600
  H    -138.761000   30.248200  -13.663900
  C    -136.750000   28.012300  -13.202800
  H    -136.594000   28.416200  -12.247300
  H    -135.744000   27.516900  -13.372000
  C    -137.872000   26.973200  -13.335400
  H    -137.988000   26.768500  -14.447600
  H    -138.812000   27.372200  -12.954500
  C    -137.685000   25.699800  -12.537700
  H    -138.486000   25.077500  -12.566300
  H    -137.633000   26.012000  -11.485800
  H    -136.790000   25.145700  -12.764600
  H    -130.924000   28.370500  -14.416700
  H    -138.260000   32.015000  -15.202400

 Total Charge           Charge          ....    0
 Multiplicity           Mult            ....    1
 Number of Electrons    NEL             ....  134
 Basis Dimension        Dim             ....  322

ORBITAL ENERGIES
----------------

  NO   OCC          E(Eh)            E(eV)
   0   2.0000     -88.964496     -2420.8470
   1   2.0000     -88.963271     -2420.8137
   2   2.0000     -10.326591      -281.0008
   3   2.0000     -10.322501      -280.8895
   4   2.0000     -10.313108      -280.6339
   5   2.0000     -10.309898      -280.5466
   6   2.0000     -10.305834      -280.4360
   7   2.0000     -10.305174      -280.4180
   8   2.0000     -10.297749      -280.2160
   9   2.0000     -10.294392      -280.1246
  10   2.0000     -10.288635      -279.9680
  11   2.0000     -10.287615      -279.9402
  12   2.0000     -10.287395      -279.9342
  13   2.0000     -10.278028      -279.6794
  14   2.0000     -10.274406      -279.5808
  15   2.0000     -10.266929      -279.3773
  16   2.0000      -8.080209      -219.8737
  17   2.0000      -8.077560      -219.8016
  18   2.0000      -6.038511      -164.3162
  19   2.0000      -6.036099      -164.2506
  20   2.0000      -6.034549      -164.2084
  21   2.0000      -6.032117      -164.1422
  22   2.0000      -6.031170      -164.1165
  23   2.0000      -6.028330      -164.0392
  24   2.0000      -1.005758       -27.3681
  25   2.0000      -0.981317       -26.7030
  26   2.0000      -0.919346       -25.0167
  27   2.0000      -0.906965       -24.6798
  28   2.0000      -0.873906       -23.7802
  29   2.0000      -0.854927       -23.2638
  30   2.0000      -0.843854       -22.9624
  31   2.0000      -0.814511       -22.1640
  32   2.0000      -0.785569       -21.3764
  33   2.0000      -0.772653       -21.0250
  34   2.0000      -0.709029       -19.2937
  35   2.0000      -0.698874       -19.0173
  36   2.0000      -0.682874       -18.5819
  37   2.0000      -0.659305       -17.9406
  38   2.0000      -0.639676       -17.4065
  39   2.0000      -0.613023       -16.6812
  40   2.0000      -0.594224       -16.1697
  41   2.0000      -0.581760       -15.8305
  42   2.0000      -0.571377       -15.5480
  43   2.0000      -0.564672       -15.3655
  44   2.0000      -0.529327       -14.4037
  45   2.0000      -0.527501       -14.3540
  46   2.0000      -0.521471       -14.1899
  47   2.0000      -0.510107       -13.8807
  48   2.0000      -0.506857       -13.7923
  49   2.0000      -0.503127       -13.6908
  50   2.0000      -0.487222       -13.2580
  51   2.0000      -0.481700       -13.1077
  52   2.0000      -0.471618       -12.8334
  53   2.0000      -0.469200       -12.7676
  54   2.0000      -0.457539       -12.4503
  55   2.0000      -0.453820       -12.3491
  56   2.0000      -0.450812       -12.2672
  57   2.0000      -0.429557       -11.6888
  58   2.0000      -0.428150       -11.6505
  59   2.0000      -0.422954       -11.5092
  60   2.0000      -0.420247       -11.4355
  61   2.0000      -0.414061       -11.2672
  62   2.0000      -0.405777       -11.0417
  63   2.0000      -0.336834        -9.1657
  64   2.0000      -0.331004        -9.0071
  65   2.0000      -0.326949        -8.8967
  66   2.0000      -0.297436        -8.0937
  67   0.0000       0.041169         1.1203
  68   0.0000       0.062913         1.7120
  69   0.0000       0.108070         2.9407
  70   0.0000       0.124063         3.3759
  71   0.0000       0.131485         3.5779

MULLIKEN ATOMIC CHARGES
-----------------------
   0 S :    0.106659
   1 C :   -0.125444
   2 C :   -0.063484
   3 C :    0.012423
   4 C :   -0.156771
   5 H :    0.015059
   6 C :    0.039770
   7 H :    0.047425
   8 H :    0.037745
   9 C :   -0.119449
  10 H :    0.014712
  11 H :    0.026861
  12 C :    0.003096
  13 H :    0.039818
  14 H :    0.037339
  15 H :    0.030578
  16 S :    0.127177
  17 C :   -0.093550
  18 C :   -0.015652
  19 C :   -0.027690
  20 C :   -0.178962
  21 H :   -0.005989
  22 C :    0.082312
  23 H :    0.018461
  24 H :    0.022750
  25 C :   -0.089835
  26 H :    0.043773
  27 H :    0.024232
  28 C :    0.005307
  29 H :    0.011035
  30 H :    0.017361
  31 H :    0.029782
  32 H :    0.037154
  33 H :    0.045998
Sum of atomic charges:   -0.0000000

LOEWDIN ATOMIC CHARGES
----------------------
   0 S :    0.394705
   1 C :   -0.169106
   2 C :   -0.059161
   3 C :   -0.069559
   4 C :   -0.206721
   5 H :    0.030430
   6 C :   -0.034672
   7 H :    0.036751
   8 H :    0.034184
   9 C :   -0.049923
  10 H :    0.015272
  11 H :    0.022440
  12 C :   -0.059975
  13 H :    0.037545
  14 H :    0.028076
  15 H :    0.025611
  16 S :    0.432622
  17 C :   -0.191046
  18 C :   -0.067787
  19 C :   -0.047933
  20 C :   -0.210855
  21 H :    0.022826
  22 C :   -0.037722
  23 H :    0.024268
  24 H :    0.032152
  25 C :   -0.040873
  26 H :    0.032192
  27 H :    0.022401
  28 C :   -0.055260
  29 H :    0.013097
  30 H :    0.029222
  31 H :    0.023452
  32 H :    0.020400
  33 H :    0.022947

  Mayer bond orders larger than 0.100000
B(  0-S ,  1-C ) :   1.1236 B(  0-S ,  4-C ) :   1.1473 B(  1-C ,  2-C ) :   1.6311
B(  1-C , 32-H ) :   0.9812 B(  2-C ,  3-C ) :   1.2036 B(  2-C ,  6-C ) :   1.0171
B(  3-C ,  4-C ) :   1.5873 B(  3-C ,  5-H ) :   0.9942 B(  4-C , 20-C ) :   1.0112
B(  6-C ,  7-H ) :   0.9342 B(  6-C ,  8-H ) :   0.9427 B(  6-C ,  9-C ) :   1.0918
B(  9-C , 10-H ) :   0.9516 B(  9-C , 11-H ) :   0.9467 B(  9-C , 12-C ) :   1.0914
B( 12-C , 13-H ) :   0.9688 B( 12-C , 14-H ) :   0.9717 B( 12-C , 15-H ) :   0.9692
B( 16-S , 17-C ) :   1.1768 B( 16-S , 20-C ) :   1.1527 B( 17-C , 18-C ) :   1.6047
B( 17-C , 33-H ) :   0.9674 B( 18-C , 19-C ) :   1.2218 B( 18-C , 21-H ) :   1.0086
B( 19-C , 20-C ) :   1.5892 B( 19-C , 22-C ) :   1.0384 B( 22-C , 23-H ) :   0.9265
B( 22-C , 24-H ) :   0.9278 B( 22-C , 25-C ) :   1.0565 B( 25-C , 26-H ) :   0.9577
B( 25-C , 27-H ) :   0.9516 B( 25-C , 28-C ) :   1.0952 B( 28-C , 29-H ) :   0.9720
B( 28-C , 30-H ) :   0.9688 B( 28-C , 31-H ) :   0.9744

Dispersion correction           -0.013487209
FINAL SINGLE POINT ENERGY     -1339.876004735573

DIPOLE MOMENT
-------------
                                X             Y             Z
Electronic contribution:     -1.20101      20.30142       6.39979
Nuclear contribution   :      1.14462     -20.59645      -6.50573
                        -----------------------------------------
Total Dipole Moment    :     -0.05639      -0.29503      -0.10593
                        -----------------------------------------
Magnitude (a.u.)       :      0.31850
Magnitude (Debye)      :      0.80957

Rotational constants in cm-1:     0.017997     0.007557     0.006637
Rotational constants in MHz :   539.549773   226.547246   198.986281

                             ****ORCA TERMINATED NORMALLY****
TOTAL RUN TIME: 0 days 0 hours 0 minutes 20 seconds 824 msec
