                         Program Version 4.2.1 -  RELEASE  -
|  1> ! wB97X-D3 SP def2-SVP
|  2> %pal
|  3> nprocs 24
|  4> end
|  5>
|  6> * xyz 0 1
|  7> S 	 15.3826 	 -13.3565 	 -121.822
|  8> C 	 14.9372 	 -11.8899 	 -120.892
|  9> C 	 14.569 	 -12.2686 	 -119.633
| 10> C 	 14.5366 	 -13.721 	 -119.436
| 11> C 	 15.0926 	 -14.4607 	 -120.48
| 12> H 	 14.3029 	 -14.1041 	 -118.438
| 13> C 	 14.1636 	 -11.4027 	 -118.518
| 14> H 	 14.9092 	 -10.596 	 -118.593
| 15> H 	 14.3022 	 -11.8966 	 -117.602
| 16> C 	 12.7271 	 -10.8179 	 -118.53
| 17> H 	 12.6167 	 -10.4065 	 -119.487
| 18> H 	 11.9505 	 -11.4743 	 -118.404
| 19> C 	 12.5943 	 -9.75282 	 -117.558
| 20> H 	 11.5328 	 -9.31534 	 -117.698
| 21> H 	 12.6417 	 -10.0572 	 -116.529
| 22> H 	 13.2958 	 -8.91514 	 -117.589
| 23> S 	 14.3525 	 -16.6631 	 -121.933
| 24> C 	 14.8155 	 -18.2591 	 -121.514
| 25> C 	 15.4579 	 -18.2272 	 -120.244
| 26> C 	 15.6051 	 -16.9323 	 -119.709
| 27> C 	 15.2615 	 -15.917 	 -120.623
| 28> H 	 15.8276 	 -19.2431 	 -119.876
| 29> C 	 16.2958 	 -16.7316 	 -118.412
| 30> H 	 16.1155 	 -15.654 	 -118.125
| 31> H 	 17.4203 	 -16.9097 	 -118.459
| 32> C 	 15.7884 	 -17.5541 	 -117.18
| 33> H 	 15.8401 	 -18.636 	 -117.537
| 34> H 	 14.713 	 -17.425 	 -117.203
| 35> C 	 16.3208 	 -17.2012 	 -115.81
| 36> H 	 17.4246 	 -17.3433 	 -115.82
| 37> H 	 15.962 	 -17.8606 	 -114.998
| 38> H 	 16.0851 	 -16.1899 	 -115.525
| 39> H 	 14.8155 	 -10.9358 	 -121.258
| 40> H 	 14.7771 	 -19.0945 	 -122.189
| 41> *
| 42>
| 43>                          ****END OF INPUT****

CARTESIAN COORDINATES (ANGSTROEM)
---------------------------------
  S     15.382600  -13.356500  -121.822000
  C     14.937200  -11.889900  -120.892000
  C     14.569000  -12.268600  -119.633000
  C     14.536600  -13.721000  -119.436000
  C     15.092600  -14.460700  -120.480000
  H     14.302900  -14.104100  -118.438000
  C     14.163600  -11.402700  -118.518000
  H     14.909200  -10.596000  -118.593000
  H     14.302200  -11.896600  -117.602000
  C     12.727100  -10.817900  -118.530000
  H     12.616700  -10.406500  -119.487000
  H     11.950500  -11.474300  -118.404000
  C     12.594300   -9.752820  -117.558000
  H     11.532800   -9.315340  -117.698000
  H     12.641700  -10.057200  -116.529000
  H     13.295800   -8.915140  -117.589000
  S     14.352500  -16.663100  -121.933000
  C     14.815500  -18.259100  -121.514000
  C     15.457900  -18.227200  -120.244000
  C     15.605100  -16.932300  -119.709000
  C     15.261500  -15.917000  -120.623000
  H     15.827600  -19.243100  -119.876000
  C     16.295800  -16.731600  -118.412000
  H     16.115500  -15.654000  -118.125000
  H     17.420300  -16.909700  -118.459000
  C     15.788400  -17.554100  -117.180000
  H     15.840100  -18.636000  -117.537000
  H     14.713000  -17.425000  -117.203000
  C     16.320800  -17.201200  -115.810000
  H     17.424600  -17.343300  -115.820000
  H     15.962000  -17.860600  -114.998000
  H     16.085100  -16.189900  -115.525000
  H     14.815500  -10.935800  -121.258000
  H     14.777100  -19.094500  -122.189000

 Total Charge           Charge          ....    0
 Multiplicity           Mult            ....    1
 Number of Electrons    NEL             ....  134
 Basis Dimension        Dim             ....  322

ORBITAL ENERGIES
----------------

  NO   OCC          E(Eh)            E(eV)
   0   2.0000     -88.965881     -2420.8847
   1   2.0000     -88.964505     -2420.8473
   2   2.0000     -10.337615      -281.3008
   3   2.0000     -10.333188      -281.1803
   4   2.0000     -10.320152      -280.8256
   5   2.0000     -10.312023      -280.6044
   6   2.0000     -10.308817      -280.5172
   7   2.0000     -10.303090      -280.3613
   8   2.0000     -10.298469      -280.2356
   9   2.0000     -10.298234      -280.2292
  10   2.0000     -10.297049      -280.1970
  11   2.0000     -10.290685      -280.0238
  12   2.0000     -10.285554      -279.8841
  13   2.0000     -10.285377      -279.8793
  14   2.0000     -10.277659      -279.6693
  15   2.0000     -10.273601      -279.5589
  16   2.0000      -8.081061      -219.8968
  17   2.0000      -8.078372      -219.8237
  18   2.0000      -6.039446      -164.3417
  19   2.0000      -6.037147      -164.2791
  20   2.0000      -6.035293      -164.2287
  21   2.0000      -6.032909      -164.1638
  22   2.0000      -6.032111      -164.1421
  23   2.0000      -6.028966      -164.0565
  24   2.0000      -1.005610       -27.3640
  25   2.0000      -0.983051       -26.7502
  26   2.0000      -0.923824       -25.1385
  27   2.0000      -0.908133       -24.7115
  28   2.0000      -0.875087       -23.8123
  29   2.0000      -0.855753       -23.2862
  30   2.0000      -0.846361       -23.0307
  31   2.0000      -0.812656       -22.1135
  32   2.0000      -0.780604       -21.2413
  33   2.0000      -0.773273       -21.0418
  34   2.0000      -0.711350       -19.3568
  35   2.0000      -0.706628       -19.2283
  36   2.0000      -0.697467       -18.9791
  37   2.0000      -0.654147       -17.8002
  38   2.0000      -0.640888       -17.4395
  39   2.0000      -0.621595       -16.9145
  40   2.0000      -0.597154       -16.2494
  41   2.0000      -0.580819       -15.8049
  42   2.0000      -0.566442       -15.4137
  43   2.0000      -0.562036       -15.2938
  44   2.0000      -0.533253       -14.5106
  45   2.0000      -0.523293       -14.2395
  46   2.0000      -0.518553       -14.1106
  47   2.0000      -0.516551       -14.0561
  48   2.0000      -0.510756       -13.8984
  49   2.0000      -0.505696       -13.7607
  50   2.0000      -0.497525       -13.5383
  51   2.0000      -0.483784       -13.1644
  52   2.0000      -0.476123       -12.9560
  53   2.0000      -0.465095       -12.6559
  54   2.0000      -0.461202       -12.5499
  55   2.0000      -0.453217       -12.3327
  56   2.0000      -0.442132       -12.0310
  57   2.0000      -0.437594       -11.9075
  58   2.0000      -0.425919       -11.5898
  59   2.0000      -0.419195       -11.4069
  60   2.0000      -0.415685       -11.3114
  61   2.0000      -0.412101       -11.2138
  62   2.0000      -0.407491       -11.0884
  63   2.0000      -0.344067        -9.3625
  64   2.0000      -0.330707        -8.9990
  65   2.0000      -0.324169        -8.8211
  66   2.0000      -0.296694        -8.0735
  67   0.0000       0.019522         0.5312
  68   0.0000       0.069265         1.8848
  69   0.0000       0.107694         2.9305
  70   0.0000       0.112976         3.0742
  71   0.0000       0.126559         3.4439

MULLIKEN ATOMIC CHARGES
-----------------------
   0 S :    0.091779
   1 C :   -0.079291
   2 C :   -0.112901
   3 C :    0.039457
   4 C :   -0.151558
   5 H :    0.016478
   6 C :    0.050141
   7 H :    0.028965
   8 H :    0.002223
   9 C :    0.037853
  10 H :    0.001993
  11 H :    0.009679
  12 C :   -0.071734
  13 H :    0.037188
  14 H :    0.019963
  15 H :    0.026259
  16 S :    0.109026
  17 C :   -0.096891
  18 C :   -0.076964
  19 C :   -0.012375
  20 C :   -0.110100
  21 H :    0.052702
  22 C :    0.009970
  23 H :    0.020347
  24 H :    0.055651
  25 C :   -0.115768
  26 H :    0.029790
  27 H :    0.018497
  28 C :   -0.019305
  29 H :    0.033077
  30 H :    0.042733
  31 H :    0.032046
  32 H :    0.018146
  33 H :    0.062924
Sum of atomic charges:    0.0000000

LOEWDIN ATOMIC CHARGES
----------------------
   0 S :    0.384906
   1 C :   -0.174070
   2 C :   -0.060618
   3 C :   -0.063941
   4 C :   -0.190878
   5 H :    0.028225
   6 C :   -0.029564
   7 H :    0.038532
   8 H :    0.020502
   9 C :   -0.028361
  10 H :    0.019600
  11 H :    0.018479
  12 C :   -0.066898
  13 H :    0.036786
  14 H :    0.019066
  15 H :    0.022529
  16 S :    0.430773
  17 C :   -0.195904
  18 C :   -0.080709
  19 C :   -0.061109
  20 C :   -0.198117
  21 H :    0.044459
  22 C :   -0.042498
  23 H :    0.029913
  24 H :    0.039285
  25 C :   -0.054126
  26 H :    0.025958
  27 H :    0.019761
  28 C :   -0.065051
  29 H :    0.029628
  30 H :    0.034664
  31 H :    0.024915
  32 H :    0.015020
  33 H :    0.028845

  Mayer bond orders larger than 0.100000
B(  0-S ,  1-C ) :   1.1116 B(  0-S ,  4-C ) :   1.1503 B(  1-C ,  2-C ) :   1.6217
B(  1-C , 32-H ) :   0.9825 B(  2-C ,  3-C ) :   1.2393 B(  2-C ,  6-C ) :   1.0356
B(  3-C ,  4-C ) :   1.5610 B(  3-C ,  5-H ) :   0.9810 B(  4-C , 20-C ) :   1.0236
B(  6-C ,  7-H ) :   0.9396 B(  6-C ,  8-H ) :   0.9353 B(  6-C ,  9-C ) :   1.0654
B(  9-C , 10-H ) :   0.9474 B(  9-C , 11-H ) :   0.9473 B(  9-C , 12-C ) :   1.0984
B( 12-C , 13-H ) :   0.9692 B( 12-C , 14-H ) :   0.9716 B( 12-C , 15-H ) :   0.9734
B( 16-S , 17-C ) :   1.1942 B( 16-S , 20-C ) :   1.1636 B( 17-C , 18-C ) :   1.5523
B( 17-C , 20-C ) :   0.1171 B( 17-C , 33-H ) :   0.9698 B( 18-C , 19-C ) :   1.2651
B( 18-C , 21-H ) :   0.9806 B( 19-C , 20-C ) :   1.5345 B( 19-C , 22-C ) :   1.0642
B( 22-C , 23-H ) :   0.9342 B( 22-C , 24-H ) :   0.9376 B( 22-C , 25-C ) :   1.0460
B( 25-C , 26-H ) :   0.9527 B( 25-C , 27-H ) :   0.9545 B( 25-C , 28-C ) :   1.0825
B( 28-C , 29-H ) :   0.9732 B( 28-C , 30-H ) :   0.9716 B( 28-C , 31-H ) :   0.9716

Dispersion correction           -0.013237586
FINAL SINGLE POINT ENERGY     -1339.854467499401

DIPOLE MOMENT
-------------
                                X             Y             Z
Electronic contribution:      2.57643      -8.23085     -28.45353
Nuclear contribution   :     -2.69971       8.25308      29.12584
                        -----------------------------------------
Total Dipole Moment    :     -0.12328       0.02224       0.67231
                        -----------------------------------------
Magnitude (a.u.)       :      0.68388
Magnitude (Debye)      :      1.73829

Rotational constants in cm-1:     0.017190     0.008078     0.006036
Rotational constants in MHz :   515.355425   242.170843   180.949637

                             ****ORCA TERMINATED NORMALLY****
TOTAL RUN TIME: 0 days 0 hours 0 minutes 20 seconds 961 msec
