                         Program Version 4.2.1 -  RELEASE  -
|  1> ! wB97X-D3 SP def2-SVP
|  2> %pal
|  3> nprocs 24
|  4> end
|  5>
|  6> * xyz 0 1
|  7> S 	 -60.3345 	 8.11787 	 -95.8257
|  8> C 	 -60.0617 	 9.62821 	 -95.1239
|  9> C 	 -61.1848 	 10.496 	 -95.2367
| 10> C 	 -62.3189 	 9.87242 	 -95.871
| 11> C 	 -62.0358 	 8.54802 	 -96.2613
| 12> H 	 -63.2515 	 10.1751 	 -96.412
| 13> C 	 -61.06 	 12.0826 	 -94.9885
| 14> H 	 -60.1613 	 12.227 	 -94.4016
| 15> H 	 -61.841 	 12.343 	 -94.2539
| 16> C 	 -61.228 	 12.9225 	 -96.1855
| 17> H 	 -60.2926 	 12.8599 	 -96.8346
| 18> H 	 -62.1406 	 12.6313 	 -96.673
| 19> C 	 -61.4268 	 14.3813 	 -95.7277
| 20> H 	 -60.7118 	 14.7873 	 -95.0273
| 21> H 	 -61.4782 	 15.1246 	 -96.5468
| 22> H 	 -62.3806 	 14.45 	 -95.1173
| 23> S 	 -62.0248 	 6.80858 	 -98.4829
| 24> C 	 -63.4935 	 6.0004 	 -98.9656
| 25> C 	 -64.559 	 6.30881 	 -98.1235
| 26> C 	 -64.1391 	 7.33515 	 -97.1644
| 27> C 	 -62.8282 	 7.67887 	 -97.1973
| 28> H 	 -65.4229 	 5.7215 	 -98.1874
| 29> C 	 -65.1632 	 7.84079 	 -96.1253
| 30> H 	 -66.1347 	 7.8355 	 -96.6715
| 31> H 	 -64.8328 	 8.88416 	 -95.9484
| 32> C 	 -65.1819 	 6.95288 	 -94.8176
| 33> H 	 -64.1585 	 6.69007 	 -94.532
| 34> H 	 -65.7514 	 6.04142 	 -95.0594
| 35> C 	 -65.9478 	 7.6115 	 -93.6952
| 36> H 	 -65.41 	 8.45047 	 -93.2413
| 37> H 	 -66.3122 	 6.9906 	 -92.8281
| 38> H 	 -66.7809 	 8.14276 	 -94.1465
| 39> H 	 -59.1329 	 9.8478 	 -94.5792
| 40> H 	 -63.4538 	 5.26152 	 -99.7288
| 41> *
| 42>
| 43>                          ****END OF INPUT****

CARTESIAN COORDINATES (ANGSTROEM)
---------------------------------
  S    -60.334500    8.117870  -95.825700
  C    -60.061700    9.628210  -95.123900
  C    -61.184800   10.496000  -95.236700
  C    -62.318900    9.872420  -95.871000
  C    -62.035800    8.548020  -96.261300
  H    -63.251500   10.175100  -96.412000
  C    -61.060000   12.082600  -94.988500
  H    -60.161300   12.227000  -94.401600
  H    -61.841000   12.343000  -94.253900
  C    -61.228000   12.922500  -96.185500
  H    -60.292600   12.859900  -96.834600
  H    -62.140600   12.631300  -96.673000
  C    -61.426800   14.381300  -95.727700
  H    -60.711800   14.787300  -95.027300
  H    -61.478200   15.124600  -96.546800
  H    -62.380600   14.450000  -95.117300
  S    -62.024800    6.808580  -98.482900
  C    -63.493500    6.000400  -98.965600
  C    -64.559000    6.308810  -98.123500
  C    -64.139100    7.335150  -97.164400
  C    -62.828200    7.678870  -97.197300
  H    -65.422900    5.721500  -98.187400
  C    -65.163200    7.840790  -96.125300
  H    -66.134700    7.835500  -96.671500
  H    -64.832800    8.884160  -95.948400
  C    -65.181900    6.952880  -94.817600
  H    -64.158500    6.690070  -94.532000
  H    -65.751400    6.041420  -95.059400
  C    -65.947800    7.611500  -93.695200
  H    -65.410000    8.450470  -93.241300
  H    -66.312200    6.990600  -92.828100
  H    -66.780900    8.142760  -94.146500
  H    -59.132900    9.847800  -94.579200
  H    -63.453800    5.261520  -99.728800

 Total Charge           Charge          ....    0
 Multiplicity           Mult            ....    1
 Number of Electrons    NEL             ....  134
 Basis Dimension        Dim             ....  322

ORBITAL ENERGIES
----------------

  NO   OCC          E(Eh)            E(eV)
   0   2.0000     -88.970287     -2421.0046
   1   2.0000     -88.963213     -2420.8121
   2   2.0000     -10.340497      -281.3792
   3   2.0000     -10.327812      -281.0341
   4   2.0000     -10.319761      -280.8150
   5   2.0000     -10.318253      -280.7739
   6   2.0000     -10.315114      -280.6885
   7   2.0000     -10.307290      -280.4756
   8   2.0000     -10.303963      -280.3851
   9   2.0000     -10.298003      -280.2229
  10   2.0000     -10.296760      -280.1891
  11   2.0000     -10.294502      -280.1276
  12   2.0000     -10.290395      -280.0159
  13   2.0000     -10.288525      -279.9650
  14   2.0000     -10.283392      -279.8253
  15   2.0000     -10.275558      -279.6121
  16   2.0000      -8.085010      -220.0043
  17   2.0000      -8.078362      -219.8234
  18   2.0000      -6.043337      -164.4476
  19   2.0000      -6.039404      -164.3405
  20   2.0000      -6.036923      -164.2730
  21   2.0000      -6.036075      -164.2500
  22   2.0000      -6.032765      -164.1599
  23   2.0000      -6.029090      -164.0599
  24   2.0000      -1.003464       -27.3056
  25   2.0000      -0.982409       -26.7327
  26   2.0000      -0.913715       -24.8635
  27   2.0000      -0.902060       -24.5463
  28   2.0000      -0.868942       -23.6451
  29   2.0000      -0.850262       -23.1368
  30   2.0000      -0.844376       -22.9766
  31   2.0000      -0.814026       -22.1508
  32   2.0000      -0.775300       -21.0970
  33   2.0000      -0.765437       -20.8286
  34   2.0000      -0.703236       -19.1360
  35   2.0000      -0.695440       -18.9239
  36   2.0000      -0.689297       -18.7567
  37   2.0000      -0.666620       -18.1397
  38   2.0000      -0.648624       -17.6500
  39   2.0000      -0.612116       -16.6565
  40   2.0000      -0.586854       -15.9691
  41   2.0000      -0.570087       -15.5129
  42   2.0000      -0.567607       -15.4454
  43   2.0000      -0.559050       -15.2125
  44   2.0000      -0.526139       -14.3170
  45   2.0000      -0.524385       -14.2692
  46   2.0000      -0.514610       -14.0033
  47   2.0000      -0.509517       -13.8647
  48   2.0000      -0.501539       -13.6476
  49   2.0000      -0.499301       -13.5867
  50   2.0000      -0.492503       -13.4017
  51   2.0000      -0.476905       -12.9773
  52   2.0000      -0.468811       -12.7570
  53   2.0000      -0.464230       -12.6323
  54   2.0000      -0.456951       -12.4343
  55   2.0000      -0.444433       -12.0936
  56   2.0000      -0.443512       -12.0686
  57   2.0000      -0.436318       -11.8728
  58   2.0000      -0.428818       -11.6687
  59   2.0000      -0.424180       -11.5425
  60   2.0000      -0.416628       -11.3370
  61   2.0000      -0.414697       -11.2845
  62   2.0000      -0.410894       -11.1810
  63   2.0000      -0.358813        -9.7638
  64   2.0000      -0.332138        -9.0379
  65   2.0000      -0.328105        -8.9282
  66   2.0000      -0.288884        -7.8609
  67   0.0000       0.027306         0.7430
  68   0.0000       0.069132         1.8812
  69   0.0000       0.107743         2.9318
  70   0.0000       0.120660         3.2833
  71   0.0000       0.129785         3.5316

MULLIKEN ATOMIC CHARGES
-----------------------
   0 S :    0.115436
   1 C :   -0.127056
   2 C :   -0.080443
   3 C :    0.007340
   4 C :   -0.179916
   5 H :    0.062029
   6 C :    0.039351
   7 H :    0.012338
   8 H :    0.022454
   9 C :   -0.029089
  10 H :    0.050411
  11 H :    0.034315
  12 C :   -0.083022
  13 H :    0.025120
  14 H :    0.040241
  15 H :    0.028576
  16 S :    0.092093
  17 C :   -0.090585
  18 C :   -0.003018
  19 C :   -0.096088
  20 C :   -0.130342
  21 H :    0.010447
  22 C :    0.047783
  23 H :    0.036600
  24 H :    0.010450
  25 C :   -0.042621
  26 H :    0.044407
  27 H :    0.028726
  28 C :   -0.058012
  29 H :    0.027582
  30 H :    0.047734
  31 H :    0.018251
  32 H :    0.067823
  33 H :    0.050685
Sum of atomic charges:    0.0000000

LOEWDIN ATOMIC CHARGES
----------------------
   0 S :    0.413497
   1 C :   -0.222203
   2 C :   -0.062884
   3 C :   -0.076626
   4 C :   -0.174100
   5 H :    0.047770
   6 C :   -0.030682
   7 H :    0.024909
   8 H :    0.028914
   9 C :   -0.042204
  10 H :    0.036946
  11 H :    0.027348
  12 C :   -0.072445
  13 H :    0.020530
  14 H :    0.026812
  15 H :    0.029182
  16 S :    0.399749
  17 C :   -0.171807
  18 C :   -0.064668
  19 C :   -0.059814
  20 C :   -0.209176
  21 H :    0.025882
  22 C :   -0.032487
  23 H :    0.033915
  24 H :    0.025579
  25 C :   -0.035836
  26 H :    0.027802
  27 H :    0.027314
  28 C :   -0.077728
  29 H :    0.024761
  30 H :    0.032481
  31 H :    0.023517
  32 H :    0.035021
  33 H :    0.020733

  Mayer bond orders larger than 0.100000
B(  0-S ,  1-C ) :   1.1696 B(  0-S ,  4-C ) :   1.1528 B(  1-C ,  2-C ) :   1.5840
B(  1-C ,  4-C ) :   0.1029 B(  1-C , 32-H ) :   0.9643 B(  2-C ,  3-C ) :   1.2451
B(  2-C ,  6-C ) :   1.0097 B(  3-C ,  4-C ) :   1.5775 B(  3-C ,  5-H ) :   0.9603
B(  4-C , 20-C ) :   1.0323 B(  6-C ,  7-H ) :   0.9450 B(  6-C ,  8-H ) :   0.9426
B(  6-C ,  9-C ) :   1.0711 B(  9-C , 10-H ) :   0.9519 B(  9-C , 11-H ) :   0.9500
B(  9-C , 12-C ) :   1.0729 B( 12-C , 13-H ) :   0.9765 B( 12-C , 14-H ) :   0.9750
B( 12-C , 15-H ) :   0.9730 B( 16-S , 17-C ) :   1.1644 B( 16-S , 20-C ) :   1.1178
B( 17-C , 18-C ) :   1.6097 B( 17-C , 33-H ) :   0.9713 B( 18-C , 19-C ) :   1.2138
B( 18-C , 21-H ) :   1.0038 B( 19-C , 20-C ) :   1.6399 B( 19-C , 22-C ) :   1.0354
B( 22-C , 23-H ) :   0.9319 B( 22-C , 24-H ) :   0.9368 B( 22-C , 25-C ) :   1.0542
B( 25-C , 26-H ) :   0.9625 B( 25-C , 27-H ) :   0.9527 B( 25-C , 28-C ) :   1.0792
B( 28-C , 29-H ) :   0.9741 B( 28-C , 30-H ) :   0.9750 B( 28-C , 31-H ) :   0.9683

Dispersion correction           -0.013747660
FINAL SINGLE POINT ENERGY     -1339.864360243876

DIPOLE MOMENT
-------------
                                X             Y             Z
Electronic contribution:     13.68666     -19.43960     -12.91605
Nuclear contribution   :    -13.97245      19.70252      13.03725
                        -----------------------------------------
Total Dipole Moment    :     -0.28579       0.26292       0.12120
                        -----------------------------------------
Magnitude (a.u.)       :      0.40681
Magnitude (Debye)      :      1.03403

Rotational constants in cm-1:     0.017480     0.008112     0.006836
Rotational constants in MHz :   524.048318   243.194398   204.951734

                             ****ORCA TERMINATED NORMALLY****
TOTAL RUN TIME: 0 days 0 hours 0 minutes 21 seconds 129 msec
