                         Program Version 4.2.1 -  RELEASE  -
|  1> ! wB97X-D3 SP def2-SVP
|  2> %pal
|  3> nprocs 24
|  4> end
|  5>
|  6> * xyz 0 1
|  7> S 	 -139.272 	 6.8143 	 3.81483
|  8> C 	 -139.808 	 7.56872 	 2.30611
|  9> C 	 -140.474 	 8.79873 	 2.56199
| 10> C 	 -140.673 	 8.97826 	 3.96743
| 11> C 	 -140.143 	 7.94551 	 4.75486
| 12> H 	 -141.238 	 9.81159 	 4.43262
| 13> C 	 -141.088 	 9.67807 	 1.57792
| 14> H 	 -140.312 	 9.78357 	 0.776052
| 15> H 	 -141.183 	 10.7316 	 1.91017
| 16> C 	 -142.457 	 9.2223 	 1.08678
| 17> H 	 -142.335 	 8.25016 	 0.629128
| 18> H 	 -143.042 	 9.01038 	 1.93274
| 19> C 	 -143.088 	 10.1464 	 0.0142201
| 20> H 	 -142.473 	 10.6246 	 -0.73038
| 21> H 	 -143.999 	 9.69432 	 -0.498265
| 22> H 	 -143.555 	 11.0138 	 0.555314
| 23> S 	 -138.254 	 7.64164 	 6.79506
| 24> C 	 -138.758 	 8.1323 	 8.37784
| 25> C 	 -140.151 	 8.28221 	 8.45355
| 26> C 	 -140.848 	 8.07124 	 7.19917
| 27> C 	 -139.888 	 7.99347 	 6.16071
| 28> H 	 -140.552 	 8.73551 	 9.3876
| 29> C 	 -142.343 	 8.04083 	 7.1031
| 30> H 	 -142.473 	 8.00017 	 5.99179
| 31> H 	 -142.756 	 8.94125 	 7.44321
| 32> C 	 -143.075 	 6.93237 	 7.83138
| 33> H 	 -142.599 	 6.90979 	 8.81474
| 34> H 	 -142.722 	 6.09066 	 7.29893
| 35> C 	 -144.613 	 7.03963 	 7.85735
| 36> H 	 -145.002 	 6.5165 	 8.74128
| 37> H 	 -145.1 	 6.61428 	 6.99167
| 38> H 	 -145.006 	 8.06226 	 7.93943
| 39> H 	 -139.659 	 7.10862 	 1.33558
| 40> H 	 -138.026 	 8.45039 	 9.06986
| 41> *
| 42>
| 43>                          ****END OF INPUT****

CARTESIAN COORDINATES (ANGSTROEM)
---------------------------------
  S    -139.272000    6.814300    3.814830
  C    -139.808000    7.568720    2.306110
  C    -140.474000    8.798730    2.561990
  C    -140.673000    8.978260    3.967430
  C    -140.143000    7.945510    4.754860
  H    -141.238000    9.811590    4.432620
  C    -141.088000    9.678070    1.577920
  H    -140.312000    9.783570    0.776052
  H    -141.183000   10.731600    1.910170
  C    -142.457000    9.222300    1.086780
  H    -142.335000    8.250160    0.629128
  H    -143.042000    9.010380    1.932740
  C    -143.088000   10.146400    0.014220
  H    -142.473000   10.624600   -0.730380
  H    -143.999000    9.694320   -0.498265
  H    -143.555000   11.013800    0.555314
  S    -138.254000    7.641640    6.795060
  C    -138.758000    8.132300    8.377840
  C    -140.151000    8.282210    8.453550
  C    -140.848000    8.071240    7.199170
  C    -139.888000    7.993470    6.160710
  H    -140.552000    8.735510    9.387600
  C    -142.343000    8.040830    7.103100
  H    -142.473000    8.000170    5.991790
  H    -142.756000    8.941250    7.443210
  C    -143.075000    6.932370    7.831380
  H    -142.599000    6.909790    8.814740
  H    -142.722000    6.090660    7.298930
  C    -144.613000    7.039630    7.857350
  H    -145.002000    6.516500    8.741280
  H    -145.100000    6.614280    6.991670
  H    -145.006000    8.062260    7.939430
  H    -139.659000    7.108620    1.335580
  H    -138.026000    8.450390    9.069860

 Total Charge           Charge          ....    0
 Multiplicity           Mult            ....    1
 Number of Electrons    NEL             ....  134
 Basis Dimension        Dim             ....  322

ORBITAL ENERGIES
----------------

  NO   OCC          E(Eh)            E(eV)
   0   2.0000     -88.968597     -2420.9586
   1   2.0000     -88.964758     -2420.8541
   2   2.0000     -10.329660      -281.0843
   3   2.0000     -10.325025      -280.9582
   4   2.0000     -10.319745      -280.8145
   5   2.0000     -10.313758      -280.6516
   6   2.0000     -10.307097      -280.4704
   7   2.0000     -10.304860      -280.4095
   8   2.0000     -10.299163      -280.2545
   9   2.0000     -10.298473      -280.2357
  10   2.0000     -10.292115      -280.0627
  11   2.0000     -10.287694      -279.9424
  12   2.0000     -10.285717      -279.8886
  13   2.0000     -10.284294      -279.8499
  14   2.0000     -10.281619      -279.7771
  15   2.0000     -10.281407      -279.7713
  16   2.0000      -8.083644      -219.9671
  17   2.0000      -8.079404      -219.8517
  18   2.0000      -6.042055      -164.4127
  19   2.0000      -6.038004      -164.3025
  20   2.0000      -6.037980      -164.3018
  21   2.0000      -6.034600      -164.2098
  22   2.0000      -6.034059      -164.1951
  23   2.0000      -6.029980      -164.0841
  24   2.0000      -1.007119       -27.4051
  25   2.0000      -0.979315       -26.6485
  26   2.0000      -0.918991       -25.0070
  27   2.0000      -0.912813       -24.8389
  28   2.0000      -0.866877       -23.5889
  29   2.0000      -0.853069       -23.2132
  30   2.0000      -0.842989       -22.9389
  31   2.0000      -0.808151       -21.9909
  32   2.0000      -0.785533       -21.3755
  33   2.0000      -0.770529       -20.9672
  34   2.0000      -0.712322       -19.3833
  35   2.0000      -0.706165       -19.2157
  36   2.0000      -0.697797       -18.9880
  37   2.0000      -0.655541       -17.8382
  38   2.0000      -0.640629       -17.4324
  39   2.0000      -0.617140       -16.7932
  40   2.0000      -0.595161       -16.1951
  41   2.0000      -0.571562       -15.5530
  42   2.0000      -0.568116       -15.4592
  43   2.0000      -0.553346       -15.0573
  44   2.0000      -0.527504       -14.3541
  45   2.0000      -0.524974       -14.2853
  46   2.0000      -0.522775       -14.2254
  47   2.0000      -0.509305       -13.8589
  48   2.0000      -0.504186       -13.7196
  49   2.0000      -0.500765       -13.6265
  50   2.0000      -0.494999       -13.4696
  51   2.0000      -0.477877       -13.0037
  52   2.0000      -0.469612       -12.7788
  53   2.0000      -0.464358       -12.6358
  54   2.0000      -0.458351       -12.4724
  55   2.0000      -0.450178       -12.2500
  56   2.0000      -0.443128       -12.0581
  57   2.0000      -0.438940       -11.9442
  58   2.0000      -0.433637       -11.7999
  59   2.0000      -0.428377       -11.6567
  60   2.0000      -0.422254       -11.4901
  61   2.0000      -0.415892       -11.3170
  62   2.0000      -0.407706       -11.0942
  63   2.0000      -0.346196        -9.4205
  64   2.0000      -0.331888        -9.0311
  65   2.0000      -0.327073        -8.9001
  66   2.0000      -0.281502        -7.6601
  67   0.0000       0.023016         0.6263
  68   0.0000       0.058758         1.5989
  69   0.0000       0.102871         2.7993
  70   0.0000       0.113042         3.0760
  71   0.0000       0.133057         3.6207

MULLIKEN ATOMIC CHARGES
-----------------------
   0 S :    0.104974
   1 C :   -0.126494
   2 C :   -0.080652
   3 C :    0.018074
   4 C :   -0.158993
   5 H :    0.030307
   6 C :    0.024153
   7 H :    0.030880
   8 H :    0.023861
   9 C :   -0.016920
  10 H :    0.017187
  11 H :    0.017426
  12 C :   -0.070704
  13 H :    0.038483
  14 H :    0.044996
  15 H :    0.027160
  16 S :    0.099052
  17 C :   -0.095218
  18 C :   -0.044115
  19 C :   -0.061523
  20 C :   -0.143213
  21 H :    0.039435
  22 C :    0.085209
  23 H :    0.024212
  24 H :    0.005123
  25 C :   -0.057883
  26 H :    0.028288
  27 H :    0.022764
  28 C :   -0.035268
  29 H :    0.037490
  30 H :    0.037329
  31 H :    0.026716
  32 H :    0.053029
  33 H :    0.054837
Sum of atomic charges:   -0.0000000

LOEWDIN ATOMIC CHARGES
----------------------
   0 S :    0.422218
   1 C :   -0.193773
   2 C :   -0.059788
   3 C :   -0.062523
   4 C :   -0.212575
   5 H :    0.037521
   6 C :   -0.044180
   7 H :    0.036011
   8 H :    0.032314
   9 C :   -0.033465
  10 H :    0.022581
  11 H :    0.021596
  12 C :   -0.076275
  13 H :    0.024555
  14 H :    0.035390
  15 H :    0.028409
  16 S :    0.387031
  17 C :   -0.187833
  18 C :   -0.073737
  19 C :   -0.052117
  20 C :   -0.185444
  21 H :    0.036902
  22 C :   -0.035035
  23 H :    0.032845
  24 H :    0.017881
  25 C :   -0.036224
  26 H :    0.025723
  27 H :    0.024367
  28 C :   -0.065493
  29 H :    0.032297
  30 H :    0.027435
  31 H :    0.025976
  32 H :    0.026575
  33 H :    0.020834

  Mayer bond orders larger than 0.100000
B(  0-S ,  1-C ) :   1.1476 B(  0-S ,  4-C ) :   1.1666 B(  1-C ,  2-C ) :   1.5538
B(  1-C ,  4-C ) :   0.1015 B(  1-C , 32-H ) :   0.9750 B(  2-C ,  3-C ) :   1.2769
B(  2-C ,  6-C ) :   1.0494 B(  3-C ,  4-C ) :   1.5200 B(  3-C ,  5-H ) :   0.9869
B(  4-C , 20-C ) :   1.0707 B(  6-C ,  7-H ) :   0.9312 B(  6-C ,  8-H ) :   0.9395
B(  6-C ,  9-C ) :   1.0573 B(  9-C , 10-H ) :   0.9549 B(  9-C , 11-H ) :   0.9548
B(  9-C , 12-C ) :   1.0655 B( 12-C , 13-H ) :   0.9781 B( 12-C , 14-H ) :   0.9757
B( 12-C , 15-H ) :   0.9743 B( 16-S , 17-C ) :   1.1442 B( 16-S , 20-C ) :   1.1309
B( 17-C , 18-C ) :   1.6252 B( 17-C , 33-H ) :   0.9718 B( 18-C , 19-C ) :   1.2024
B( 18-C , 21-H ) :   0.9795 B( 19-C , 20-C ) :   1.5864 B( 19-C , 22-C ) :   1.0543
B( 22-C , 23-H ) :   0.9254 B( 22-C , 24-H ) :   0.9258 B( 22-C , 25-C ) :   1.0587
B( 25-C , 26-H ) :   0.9606 B( 25-C , 27-H ) :   0.9537 B( 25-C , 28-C ) :   1.0714
B( 28-C , 29-H ) :   0.9752 B( 28-C , 30-H ) :   0.9763 B( 28-C , 31-H ) :   0.9759

Dispersion correction           -0.013503034
FINAL SINGLE POINT ENERGY     -1339.861992864817

DIPOLE MOMENT
-------------
                                X             Y             Z
Electronic contribution:     27.37671      -8.09338       7.57067
Nuclear contribution   :    -27.93728       8.48123      -7.67305
                        -----------------------------------------
Total Dipole Moment    :     -0.56057       0.38785      -0.10238
                        -----------------------------------------
Magnitude (a.u.)       :      0.68931
Magnitude (Debye)      :      1.75209

Rotational constants in cm-1:     0.017396     0.008198     0.006218
Rotational constants in MHz :   521.510995   245.756856   186.403403

                             ****ORCA TERMINATED NORMALLY****
TOTAL RUN TIME: 0 days 0 hours 0 minutes 19 seconds 907 msec
