                         Program Version 4.2.1 -  RELEASE  -
|  1> ! wB97X-D3 SP def2-SVP
|  2> %pal
|  3> nprocs 24
|  4> end
|  5>
|  6> * xyz 0 1
|  7> S 	 -115.199 	 15.6179 	 -115.158
|  8> C 	 -113.873 	 15.9859 	 -116.201
|  9> C 	 -114.298 	 16.6631 	 -117.276
| 10> C 	 -115.731 	 16.9046 	 -117.279
| 11> C 	 -116.354 	 16.4859 	 -116.141
| 12> H 	 -116.29 	 17.3357 	 -118.067
| 13> C 	 -113.446 	 17.0825 	 -118.444
| 14> H 	 -113.978 	 16.8217 	 -119.343
| 15> H 	 -112.598 	 16.4093 	 -118.481
| 16> C 	 -113 	 18.5468 	 -118.448
| 17> H 	 -114.011 	 19.0023 	 -118.493
| 18> H 	 -112.517 	 18.9803 	 -117.57
| 19> C 	 -112.189 	 18.7602 	 -119.714
| 20> H 	 -111.39 	 18.0134 	 -119.667
| 21> H 	 -112.805 	 18.6171 	 -120.585
| 22> H 	 -111.698 	 19.7244 	 -119.8
| 23> S 	 -118.364 	 14.6862 	 -116.224
| 24> C 	 -120.015 	 15.1319 	 -116.072
| 25> C 	 -120.074 	 16.5414 	 -116.024
| 26> C 	 -118.834 	 17.219 	 -115.93
| 27> C 	 -117.787 	 16.2983 	 -115.97
| 28> H 	 -120.984 	 17.0385 	 -116.027
| 29> C 	 -118.669 	 18.6822 	 -115.793
| 30> H 	 -117.618 	 19.0004 	 -115.748
| 31> H 	 -119.163 	 18.9756 	 -114.858
| 32> C 	 -119.235 	 19.5109 	 -116.99
| 33> H 	 -119.077 	 20.5714 	 -116.771
| 34> H 	 -120.3 	 19.4524 	 -117.041
| 35> C 	 -118.451 	 19.1628 	 -118.301
| 36> H 	 -118.878 	 19.7063 	 -119.212
| 37> H 	 -118.335 	 18.1024 	 -118.532
| 38> H 	 -117.429 	 19.3632 	 -118.195
| 39> H 	 -112.904 	 15.5992 	 -116.057
| 40> H 	 -120.883 	 14.4014 	 -115.962
| 41> *
| 42>
| 43>                          ****END OF INPUT****

CARTESIAN COORDINATES (ANGSTROEM)
---------------------------------
  S    -115.199000   15.617900  -115.158000
  C    -113.873000   15.985900  -116.201000
  C    -114.298000   16.663100  -117.276000
  C    -115.731000   16.904600  -117.279000
  C    -116.354000   16.485900  -116.141000
  H    -116.290000   17.335700  -118.067000
  C    -113.446000   17.082500  -118.444000
  H    -113.978000   16.821700  -119.343000
  H    -112.598000   16.409300  -118.481000
  C    -113.000000   18.546800  -118.448000
  H    -114.011000   19.002300  -118.493000
  H    -112.517000   18.980300  -117.570000
  C    -112.189000   18.760200  -119.714000
  H    -111.390000   18.013400  -119.667000
  H    -112.805000   18.617100  -120.585000
  H    -111.698000   19.724400  -119.800000
  S    -118.364000   14.686200  -116.224000
  C    -120.015000   15.131900  -116.072000
  C    -120.074000   16.541400  -116.024000
  C    -118.834000   17.219000  -115.930000
  C    -117.787000   16.298300  -115.970000
  H    -120.984000   17.038500  -116.027000
  C    -118.669000   18.682200  -115.793000
  H    -117.618000   19.000400  -115.748000
  H    -119.163000   18.975600  -114.858000
  C    -119.235000   19.510900  -116.990000
  H    -119.077000   20.571400  -116.771000
  H    -120.300000   19.452400  -117.041000
  C    -118.451000   19.162800  -118.301000
  H    -118.878000   19.706300  -119.212000
  H    -118.335000   18.102400  -118.532000
  H    -117.429000   19.363200  -118.195000
  H    -112.904000   15.599200  -116.057000
  H    -120.883000   14.401400  -115.962000

 Total Charge           Charge          ....    0
 Multiplicity           Mult            ....    1
 Number of Electrons    NEL             ....  134
 Basis Dimension        Dim             ....  322

ORBITAL ENERGIES
----------------

  NO   OCC          E(Eh)            E(eV)
   0   2.0000     -88.963426     -2420.8179
   1   2.0000     -88.959850     -2420.7206
   2   2.0000     -10.324930      -280.9556
   3   2.0000     -10.322552      -280.8909
   4   2.0000     -10.321609      -280.8653
   5   2.0000     -10.306771      -280.4615
   6   2.0000     -10.299861      -280.2735
   7   2.0000     -10.295480      -280.1542
   8   2.0000     -10.292061      -280.0612
   9   2.0000     -10.291308      -280.0407
  10   2.0000     -10.291020      -280.0329
  11   2.0000     -10.289241      -279.9845
  12   2.0000     -10.287482      -279.9366
  13   2.0000     -10.287296      -279.9315
  14   2.0000     -10.281266      -279.7675
  15   2.0000     -10.276635      -279.6414
  16   2.0000      -8.078965      -219.8398
  17   2.0000      -8.075522      -219.7461
  18   2.0000      -6.037380      -164.2855
  19   2.0000      -6.034114      -164.1966
  20   2.0000      -6.033166      -164.1708
  21   2.0000      -6.029958      -164.0835
  22   2.0000      -6.029779      -164.0786
  23   2.0000      -6.026245      -163.9824
  24   2.0000      -1.012676       -27.5563
  25   2.0000      -0.989528       -26.9264
  26   2.0000      -0.917188       -24.9580
  27   2.0000      -0.910272       -24.7698
  28   2.0000      -0.874054       -23.7842
  29   2.0000      -0.848576       -23.0909
  30   2.0000      -0.846560       -23.0361
  31   2.0000      -0.814686       -22.1687
  32   2.0000      -0.781543       -21.2669
  33   2.0000      -0.772479       -21.0202
  34   2.0000      -0.713907       -19.4264
  35   2.0000      -0.702618       -19.1192
  36   2.0000      -0.695245       -18.9186
  37   2.0000      -0.660536       -17.9741
  38   2.0000      -0.651509       -17.7285
  39   2.0000      -0.620857       -16.8944
  40   2.0000      -0.598306       -16.2807
  41   2.0000      -0.574960       -15.6455
  42   2.0000      -0.562378       -15.3031
  43   2.0000      -0.553558       -15.0631
  44   2.0000      -0.538282       -14.6474
  45   2.0000      -0.526569       -14.3287
  46   2.0000      -0.520994       -14.1770
  47   2.0000      -0.515639       -14.0313
  48   2.0000      -0.507854       -13.8194
  49   2.0000      -0.499071       -13.5804
  50   2.0000      -0.496012       -13.4972
  51   2.0000      -0.480118       -13.0647
  52   2.0000      -0.472076       -12.8458
  53   2.0000      -0.464317       -12.6347
  54   2.0000      -0.460779       -12.5384
  55   2.0000      -0.449216       -12.2238
  56   2.0000      -0.443446       -12.0668
  57   2.0000      -0.440683       -11.9916
  58   2.0000      -0.434448       -11.8219
  59   2.0000      -0.424952       -11.5635
  60   2.0000      -0.420634       -11.4460
  61   2.0000      -0.416717       -11.3394
  62   2.0000      -0.409810       -11.1515
  63   2.0000      -0.341420        -9.2905
  64   2.0000      -0.328903        -8.9499
  65   2.0000      -0.322881        -8.7860
  66   2.0000      -0.303591        -8.2611
  67   0.0000       0.036716         0.9991
  68   0.0000       0.067980         1.8498
  69   0.0000       0.119808         3.2601
  70   0.0000       0.122809         3.3418
  71   0.0000       0.132119         3.5951

MULLIKEN ATOMIC CHARGES
-----------------------
   0 S :    0.092564
   1 C :   -0.095264
   2 C :   -0.082460
   3 C :    0.060974
   4 C :   -0.150218
   5 H :   -0.025397
   6 C :    0.052404
   7 H :    0.021526
   8 H :    0.002181
   9 C :   -0.071098
  10 H :    0.022942
  11 H :    0.039705
  12 C :   -0.015500
  13 H :    0.024291
  14 H :    0.027344
  15 H :    0.032560
  16 S :    0.123718
  17 C :   -0.121572
  18 C :   -0.021299
  19 C :   -0.018032
  20 C :   -0.169248
  21 H :   -0.012947
  22 C :    0.051571
  23 H :    0.031610
  24 H :    0.038861
  25 C :   -0.059415
  26 H :    0.030844
  27 H :    0.024697
  28 C :   -0.072934
  29 H :    0.051170
  30 H :    0.049902
  31 H :    0.014719
  32 H :    0.031137
  33 H :    0.090665
Sum of atomic charges:   -0.0000000

LOEWDIN ATOMIC CHARGES
----------------------
   0 S :    0.407946
   1 C :   -0.186662
   2 C :   -0.066552
   3 C :   -0.051755
   4 C :   -0.200468
   5 H :    0.021300
   6 C :   -0.030875
   7 H :    0.030751
   8 H :    0.020804
   9 C :   -0.041756
  10 H :    0.025186
  11 H :    0.027270
  12 C :   -0.061180
  13 H :    0.025587
  14 H :    0.024343
  15 H :    0.024364
  16 S :    0.436694
  17 C :   -0.211209
  18 C :   -0.065626
  19 C :   -0.059005
  20 C :   -0.211174
  21 H :    0.015607
  22 C :   -0.030992
  23 H :    0.034306
  24 H :    0.036152
  25 C :   -0.032733
  26 H :    0.027260
  27 H :    0.015610
  28 C :   -0.071726
  29 H :    0.037482
  30 H :    0.024952
  31 H :    0.014504
  32 H :    0.022854
  33 H :    0.048740

  Mayer bond orders larger than 0.100000
B(  0-S ,  1-C ) :   1.1345 B(  0-S ,  4-C ) :   1.1470 B(  1-C ,  2-C ) :   1.6369
B(  1-C , 32-H ) :   0.9755 B(  2-C ,  3-C ) :   1.2227 B(  2-C ,  6-C ) :   1.0205
B(  3-C ,  4-C ) :   1.5868 B(  3-C ,  5-H ) :   0.9957 B(  4-C , 20-C ) :   1.0025
B(  6-C ,  7-H ) :   0.9425 B(  6-C ,  8-H ) :   0.9381 B(  6-C ,  9-C ) :   1.0436
B(  9-C , 10-H ) :   0.9554 B(  9-C , 11-H ) :   0.9605 B(  9-C , 12-C ) :   1.0774
B( 12-C , 13-H ) :   0.9736 B( 12-C , 14-H ) :   0.9739 B( 12-C , 15-H ) :   0.9745
B( 16-S , 17-C ) :   1.1775 B( 16-S , 20-C ) :   1.1777 B( 17-C , 18-C ) :   1.5490
B( 17-C , 20-C ) :   0.1060 B( 17-C , 33-H ) :   0.9624 B( 18-C , 19-C ) :   1.2742
B( 18-C , 21-H ) :   1.0023 B( 19-C , 20-C ) :   1.5512 B( 19-C , 22-C ) :   1.0564
B( 22-C , 23-H ) :   0.9375 B( 22-C , 24-H ) :   0.9302 B( 22-C , 25-C ) :   1.0740
B( 25-C , 26-H ) :   0.9571 B( 25-C , 27-H ) :   0.9603 B( 25-C , 28-C ) :   1.0560
B( 28-C , 29-H ) :   0.9693 B( 28-C , 30-H ) :   0.9714 B( 28-C , 31-H ) :   0.9711

Dispersion correction           -0.015032035
FINAL SINGLE POINT ENERGY     -1339.879336450388

DIPOLE MOMENT
-------------
                                X             Y             Z
Electronic contribution:     -7.34977     -22.02117      17.34942
Nuclear contribution   :      7.34721      22.43313     -17.78798
                        -----------------------------------------
Total Dipole Moment    :     -0.00256       0.41196      -0.43856
                        -----------------------------------------
Magnitude (a.u.)       :      0.60171
Magnitude (Debye)      :      1.52942

Rotational constants in cm-1:     0.019806     0.008969     0.006922
Rotational constants in MHz :   593.779374   268.873098   207.515314

                             ****ORCA TERMINATED NORMALLY****
TOTAL RUN TIME: 0 days 0 hours 0 minutes 21 seconds 319 msec
