                         Program Version 4.2.1 -  RELEASE  -
|  1> ! wB97X-D3 SP def2-SVP
|  2> %pal
|  3> nprocs 24
|  4> end
|  5>
|  6> * xyz 0 1
|  7> S 	 -22.6949 	 -34.0641 	 -93.2585
|  8> C 	 -21.1223 	 -34.8188 	 -92.8677
|  9> C 	 -20.9027 	 -35.9272 	 -93.7347
| 10> C 	 -21.821 	 -35.8668 	 -94.7999
| 11> C 	 -22.8301 	 -34.9339 	 -94.7425
| 12> H 	 -21.8859 	 -36.5367 	 -95.5921
| 13> C 	 -19.6567 	 -36.7475 	 -93.636
| 14> H 	 -19.6752 	 -37.6209 	 -94.2189
| 15> H 	 -19.5955 	 -37.1987 	 -92.6877
| 16> C 	 -18.4452 	 -35.8859 	 -93.9901
| 17> H 	 -18.4838 	 -35.6304 	 -95.0919
| 18> H 	 -18.4195 	 -34.8892 	 -93.4922
| 19> C 	 -17.1203 	 -36.5753 	 -93.5259
| 20> H 	 -17.0866 	 -36.6747 	 -92.4121
| 21> H 	 -17.0731 	 -37.592 	 -93.9338
| 22> H 	 -16.3582 	 -35.9498 	 -94.0195
| 23> S 	 -24.1959 	 -36.0396 	 -96.8174
| 24> C 	 -25.2425 	 -35.0557 	 -97.7731
| 25> C 	 -25.2837 	 -33.7755 	 -97.3287
| 26> C 	 -24.5112 	 -33.4967 	 -96.1408
| 27> C 	 -23.8298 	 -34.6491 	 -95.7379
| 28> H 	 -26.0494 	 -33.1286 	 -97.8987
| 29> C 	 -24.4816 	 -32.0976 	 -95.4848
| 30> H 	 -24.2855 	 -31.5312 	 -96.362
| 31> H 	 -23.6192 	 -31.9524 	 -94.8247
| 32> C 	 -25.7656 	 -31.7129 	 -94.7506
| 33> H 	 -26.0496 	 -32.4424 	 -94.0193
| 34> H 	 -26.5935 	 -31.5824 	 -95.4787
| 35> C 	 -25.7739 	 -30.3953 	 -94.0923
| 36> H 	 -25.2946 	 -29.6294 	 -94.76
| 37> H 	 -25.3116 	 -30.3518 	 -93.1195
| 38> H 	 -26.7857 	 -30.0429 	 -93.8951
| 39> H 	 -20.4819 	 -34.7821 	 -91.9808
| 40> H 	 -25.7351 	 -35.3389 	 -98.6849
| 41> *
| 42>
| 43>                          ****END OF INPUT****

CARTESIAN COORDINATES (ANGSTROEM)
---------------------------------
  S    -22.694900  -34.064100  -93.258500
  C    -21.122300  -34.818800  -92.867700
  C    -20.902700  -35.927200  -93.734700
  C    -21.821000  -35.866800  -94.799900
  C    -22.830100  -34.933900  -94.742500
  H    -21.885900  -36.536700  -95.592100
  C    -19.656700  -36.747500  -93.636000
  H    -19.675200  -37.620900  -94.218900
  H    -19.595500  -37.198700  -92.687700
  C    -18.445200  -35.885900  -93.990100
  H    -18.483800  -35.630400  -95.091900
  H    -18.419500  -34.889200  -93.492200
  C    -17.120300  -36.575300  -93.525900
  H    -17.086600  -36.674700  -92.412100
  H    -17.073100  -37.592000  -93.933800
  H    -16.358200  -35.949800  -94.019500
  S    -24.195900  -36.039600  -96.817400
  C    -25.242500  -35.055700  -97.773100
  C    -25.283700  -33.775500  -97.328700
  C    -24.511200  -33.496700  -96.140800
  C    -23.829800  -34.649100  -95.737900
  H    -26.049400  -33.128600  -97.898700
  C    -24.481600  -32.097600  -95.484800
  H    -24.285500  -31.531200  -96.362000
  H    -23.619200  -31.952400  -94.824700
  C    -25.765600  -31.712900  -94.750600
  H    -26.049600  -32.442400  -94.019300
  H    -26.593500  -31.582400  -95.478700
  C    -25.773900  -30.395300  -94.092300
  H    -25.294600  -29.629400  -94.760000
  H    -25.311600  -30.351800  -93.119500
  H    -26.785700  -30.042900  -93.895100
  H    -20.481900  -34.782100  -91.980800
  H    -25.735100  -35.338900  -98.684900

 Total Charge           Charge          ....    0
 Multiplicity           Mult            ....    1
 Number of Electrons    NEL             ....  134
 Basis Dimension        Dim             ....  322

ORBITAL ENERGIES
----------------

  NO   OCC          E(Eh)            E(eV)
   0   2.0000     -88.969363     -2420.9795
   1   2.0000     -88.963772     -2420.8273
   2   2.0000     -10.332550      -281.1630
   3   2.0000     -10.326008      -280.9850
   4   2.0000     -10.315713      -280.7048
   5   2.0000     -10.313363      -280.6409
   6   2.0000     -10.312229      -280.6100
   7   2.0000     -10.301137      -280.3082
   8   2.0000     -10.298648      -280.2405
   9   2.0000     -10.292745      -280.0798
  10   2.0000     -10.292151      -280.0637
  11   2.0000     -10.285081      -279.8713
  12   2.0000     -10.284022      -279.8425
  13   2.0000     -10.283670      -279.8329
  14   2.0000     -10.281500      -279.7738
  15   2.0000     -10.272889      -279.5395
  16   2.0000      -8.083024      -219.9503
  17   2.0000      -8.078448      -219.8257
  18   2.0000      -6.041611      -164.4006
  19   2.0000      -6.037614      -164.2918
  20   2.0000      -6.037018      -164.2756
  21   2.0000      -6.033835      -164.1890
  22   2.0000      -6.033061      -164.1679
  23   2.0000      -6.029060      -164.0591
  24   2.0000      -1.006916       -27.3996
  25   2.0000      -0.982745       -26.7418
  26   2.0000      -0.916450       -24.9379
  27   2.0000      -0.913393       -24.8547
  28   2.0000      -0.868414       -23.6308
  29   2.0000      -0.856810       -23.3150
  30   2.0000      -0.844855       -22.9897
  31   2.0000      -0.811427       -22.0801
  32   2.0000      -0.787587       -21.4313
  33   2.0000      -0.772517       -21.0212
  34   2.0000      -0.706443       -19.2233
  35   2.0000      -0.699153       -19.0249
  36   2.0000      -0.692738       -18.8504
  37   2.0000      -0.665211       -18.1013
  38   2.0000      -0.629312       -17.1244
  39   2.0000      -0.618696       -16.8356
  40   2.0000      -0.596194       -16.2233
  41   2.0000      -0.574513       -15.6333
  42   2.0000      -0.569573       -15.4989
  43   2.0000      -0.553618       -15.0647
  44   2.0000      -0.534569       -14.5464
  45   2.0000      -0.528912       -14.3924
  46   2.0000      -0.518646       -14.1131
  47   2.0000      -0.516011       -14.0414
  48   2.0000      -0.508056       -13.8249
  49   2.0000      -0.499790       -13.6000
  50   2.0000      -0.494187       -13.4475
  51   2.0000      -0.473852       -12.8942
  52   2.0000      -0.466402       -12.6915
  53   2.0000      -0.464143       -12.6300
  54   2.0000      -0.459316       -12.4986
  55   2.0000      -0.451368       -12.2823
  56   2.0000      -0.445590       -12.1251
  57   2.0000      -0.433411       -11.7937
  58   2.0000      -0.429897       -11.6981
  59   2.0000      -0.424021       -11.5382
  60   2.0000      -0.418685       -11.3930
  61   2.0000      -0.415892       -11.3170
  62   2.0000      -0.407612       -11.0917
  63   2.0000      -0.355925        -9.6852
  64   2.0000      -0.332677        -9.0526
  65   2.0000      -0.329643        -8.9700
  66   2.0000      -0.280715        -7.6386
  67   0.0000       0.019459         0.5295
  68   0.0000       0.080650         2.1946
  69   0.0000       0.109146         2.9700
  70   0.0000       0.115284         3.1370
  71   0.0000       0.129391         3.5209

MULLIKEN ATOMIC CHARGES
-----------------------
   0 S :    0.115845
   1 C :   -0.127182
   2 C :   -0.096102
   3 C :    0.017433
   4 C :   -0.120860
   5 H :   -0.018394
   6 C :    0.125299
   7 H :    0.003178
   8 H :    0.007697
   9 C :   -0.131849
  10 H :    0.044143
  11 H :    0.039681
  12 C :   -0.049210
  13 H :    0.046677
  14 H :    0.028646
  15 H :    0.045120
  16 S :    0.078358
  17 C :   -0.071257
  18 C :   -0.077104
  19 C :   -0.052017
  20 C :   -0.131371
  21 H :    0.047064
  22 C :    0.088094
  23 H :    0.021819
  24 H :    0.026075
  25 C :   -0.054646
  26 H :    0.029683
  27 H :    0.025650
  28 C :   -0.047808
  29 H :    0.027526
  30 H :    0.028468
  31 H :    0.027164
  32 H :    0.053113
  33 H :    0.051068
Sum of atomic charges:    0.0000000

LOEWDIN ATOMIC CHARGES
----------------------
   0 S :    0.418460
   1 C :   -0.201203
   2 C :   -0.050278
   3 C :   -0.071997
   4 C :   -0.199156
   5 H :    0.009257
   6 C :   -0.033495
   7 H :    0.026219
   8 H :    0.025936
   9 C :   -0.041097
  10 H :    0.032563
  11 H :    0.026593
  12 C :   -0.069816
  13 H :    0.030406
  14 H :    0.021385
  15 H :    0.031728
  16 S :    0.393250
  17 C :   -0.189126
  18 C :   -0.085970
  19 C :   -0.050163
  20 C :   -0.174406
  21 H :    0.046413
  22 C :   -0.030139
  23 H :    0.031185
  24 H :    0.022224
  25 C :   -0.043911
  26 H :    0.025184
  27 H :    0.029421
  28 C :   -0.067593
  29 H :    0.028730
  30 H :    0.020293
  31 H :    0.026762
  32 H :    0.031826
  33 H :    0.030515

  Mayer bond orders larger than 0.100000
B(  0-S ,  1-C ) :   1.1450 B(  0-S ,  4-C ) :   1.1448 B(  1-C ,  2-C ) :   1.5612
B(  1-C ,  4-C ) :   0.1071 B(  1-C , 32-H ) :   0.9613 B(  2-C ,  3-C ) :   1.2806
B(  2-C ,  6-C ) :   1.0440 B(  3-C ,  4-C ) :   1.5444 B(  3-C ,  5-H ) :   0.9912
B(  4-C , 20-C ) :   1.0834 B(  6-C ,  7-H ) :   0.9305 B(  6-C ,  8-H ) :   0.9287
B(  6-C ,  9-C ) :   1.0515 B(  9-C , 10-H ) :   0.9560 B(  9-C , 11-H ) :   0.9619
B(  9-C , 12-C ) :   1.0640 B( 12-C , 13-H ) :   0.9762 B( 12-C , 14-H ) :   0.9752
B( 12-C , 15-H ) :   0.9743 B( 16-S , 17-C ) :   1.1377 B( 16-S , 20-C ) :   1.1247
B( 17-C , 18-C ) :   1.6690 B( 17-C , 33-H ) :   0.9634 B( 18-C , 19-C ) :   1.2093
B( 18-C , 21-H ) :   0.9713 B( 19-C , 20-C ) :   1.5916 B( 19-C , 22-C ) :   1.0268
B( 22-C , 23-H ) :   0.9214 B( 22-C , 24-H ) :   0.9355 B( 22-C , 25-C ) :   1.0701
B( 25-C , 26-H ) :   0.9534 B( 25-C , 27-H ) :   0.9528 B( 25-C , 28-C ) :   1.0990
B( 28-C , 29-H ) :   0.9695 B( 28-C , 30-H ) :   0.9716 B( 28-C , 31-H ) :   0.9732

Dispersion correction           -0.013543841
FINAL SINGLE POINT ENERGY     -1339.864176316470

DIPOLE MOMENT
-------------
                                X             Y             Z
Electronic contribution:    -10.84929      -8.54255      -5.70272
Nuclear contribution   :     10.98147       8.62560       5.59241
                        -----------------------------------------
Total Dipole Moment    :      0.13218       0.08304      -0.11032
                        -----------------------------------------
Magnitude (a.u.)       :      0.19115
Magnitude (Debye)      :      0.48586

Rotational constants in cm-1:     0.021814     0.007436     0.005910
Rotational constants in MHz :   653.975440   222.924553   177.169532

                             ****ORCA TERMINATED NORMALLY****
TOTAL RUN TIME: 0 days 0 hours 0 minutes 21 seconds 833 msec
