                         Program Version 4.2.1 -  RELEASE  -
|  1> ! wB97X-D3 SP def2-SVP
|  2> %pal
|  3> nprocs 24
|  4> end
|  5>
|  6> * xyz 0 1
|  7> S 	 -54.0673 	 -55.5051 	 -82.2186
|  8> C 	 -55.6733 	 -55.0016 	 -82.4946
|  9> C 	 -56.0956 	 -55.4194 	 -83.7692
| 10> C 	 -55.158 	 -56.2748 	 -84.3901
| 11> C 	 -53.9042 	 -56.4013 	 -83.75
| 12> H 	 -55.3552 	 -56.705 	 -85.332
| 13> C 	 -57.3731 	 -54.9748 	 -84.5102
| 14> H 	 -58.0039 	 -55.0429 	 -83.6046
| 15> H 	 -57.634 	 -55.7748 	 -85.1357
| 16> C 	 -57.3039 	 -53.5642 	 -85.1006
| 17> H 	 -57.2994 	 -52.8672 	 -84.272
| 18> H 	 -56.2984 	 -53.3924 	 -85.5198
| 19> C 	 -58.5052 	 -53.3152 	 -86.0052
| 20> H 	 -59.3634 	 -53.1267 	 -85.3315
| 21> H 	 -58.4025 	 -52.4059 	 -86.6538
| 22> H 	 -58.6105 	 -54.1648 	 -86.7125
| 23> S 	 -51.6506 	 -57.8925 	 -82.9199
| 24> C 	 -50.41 	 -58.1395 	 -84.1375
| 25> C 	 -50.6897 	 -57.6247 	 -85.3924
| 26> C 	 -51.9955 	 -57.0416 	 -85.3669
| 27> C 	 -52.6363 	 -56.9853 	 -84.1307
| 28> H 	 -50 	 -57.7158 	 -86.2106
| 29> C 	 -52.5025 	 -56.392 	 -86.5866
| 30> H 	 -53.59 	 -56.3349 	 -86.622
| 31> H 	 -52.2794 	 -56.9873 	 -87.4373
| 32> C 	 -51.9083 	 -54.9659 	 -87.0119
| 33> H 	 -52.1959 	 -54.6876 	 -88.0079
| 34> H 	 -50.8044 	 -54.9945 	 -86.9839
| 35> C 	 -52.633 	 -53.893 	 -86.1409
| 36> H 	 -52.3398 	 -54.0471 	 -85.0818
| 37> H 	 -53.697 	 -54.1329 	 -86.1734
| 38> H 	 -52.4193 	 -52.9675 	 -86.5711
| 39> H 	 -56.2503 	 -54.6737 	 -81.6554
| 40> H 	 -49.4594 	 -58.7128 	 -83.9694
| 41> *
| 42>
| 43>                          ****END OF INPUT****

CARTESIAN COORDINATES (ANGSTROEM)
---------------------------------
  S    -54.067300  -55.505100  -82.218600
  C    -55.673300  -55.001600  -82.494600
  C    -56.095600  -55.419400  -83.769200
  C    -55.158000  -56.274800  -84.390100
  C    -53.904200  -56.401300  -83.750000
  H    -55.355200  -56.705000  -85.332000
  C    -57.373100  -54.974800  -84.510200
  H    -58.003900  -55.042900  -83.604600
  H    -57.634000  -55.774800  -85.135700
  C    -57.303900  -53.564200  -85.100600
  H    -57.299400  -52.867200  -84.272000
  H    -56.298400  -53.392400  -85.519800
  C    -58.505200  -53.315200  -86.005200
  H    -59.363400  -53.126700  -85.331500
  H    -58.402500  -52.405900  -86.653800
  H    -58.610500  -54.164800  -86.712500
  S    -51.650600  -57.892500  -82.919900
  C    -50.410000  -58.139500  -84.137500
  C    -50.689700  -57.624700  -85.392400
  C    -51.995500  -57.041600  -85.366900
  C    -52.636300  -56.985300  -84.130700
  H    -50.000000  -57.715800  -86.210600
  C    -52.502500  -56.392000  -86.586600
  H    -53.590000  -56.334900  -86.622000
  H    -52.279400  -56.987300  -87.437300
  C    -51.908300  -54.965900  -87.011900
  H    -52.195900  -54.687600  -88.007900
  H    -50.804400  -54.994500  -86.983900
  C    -52.633000  -53.893000  -86.140900
  H    -52.339800  -54.047100  -85.081800
  H    -53.697000  -54.132900  -86.173400
  H    -52.419300  -52.967500  -86.571100
  H    -56.250300  -54.673700  -81.655400
  H    -49.459400  -58.712800  -83.969400

 Total Charge           Charge          ....    0
 Multiplicity           Mult            ....    1
 Number of Electrons    NEL             ....  134
 Basis Dimension        Dim             ....  322

ORBITAL ENERGIES
----------------

  NO   OCC          E(Eh)            E(eV)
   0   2.0000     -88.969667     -2420.9877
   1   2.0000     -88.962878     -2420.8030
   2   2.0000     -10.335574      -281.2453
   3   2.0000     -10.332824      -281.1704
   4   2.0000     -10.326243      -280.9914
   5   2.0000     -10.312101      -280.6065
   6   2.0000     -10.306301      -280.4487
   7   2.0000     -10.301945      -280.3302
   8   2.0000     -10.297274      -280.2031
   9   2.0000     -10.292500      -280.0732
  10   2.0000     -10.289863      -280.0014
  11   2.0000     -10.288418      -279.9621
  12   2.0000     -10.288117      -279.9539
  13   2.0000     -10.287165      -279.9280
  14   2.0000     -10.284373      -279.8520
  15   2.0000     -10.268156      -279.4107
  16   2.0000      -8.083441      -219.9616
  17   2.0000      -8.077937      -219.8119
  18   2.0000      -6.042007      -164.4114
  19   2.0000      -6.038175      -164.3071
  20   2.0000      -6.036362      -164.2578
  21   2.0000      -6.034088      -164.1959
  22   2.0000      -6.032077      -164.1412
  23   2.0000      -6.029085      -164.0597
  24   2.0000      -1.003066       -27.2948
  25   2.0000      -0.983081       -26.7510
  26   2.0000      -0.911970       -24.8160
  27   2.0000      -0.903902       -24.5964
  28   2.0000      -0.870169       -23.6785
  29   2.0000      -0.851304       -23.1652
  30   2.0000      -0.846892       -23.0451
  31   2.0000      -0.813966       -22.1491
  32   2.0000      -0.780735       -21.2449
  33   2.0000      -0.765257       -20.8237
  34   2.0000      -0.706227       -19.2174
  35   2.0000      -0.703014       -19.1300
  36   2.0000      -0.692112       -18.8333
  37   2.0000      -0.663036       -18.0421
  38   2.0000      -0.645260       -17.5584
  39   2.0000      -0.621254       -16.9052
  40   2.0000      -0.595318       -16.1994
  41   2.0000      -0.572324       -15.5737
  42   2.0000      -0.562262       -15.2999
  43   2.0000      -0.553550       -15.0628
  44   2.0000      -0.540755       -14.7147
  45   2.0000      -0.522174       -14.2091
  46   2.0000      -0.521432       -14.1889
  47   2.0000      -0.507391       -13.8068
  48   2.0000      -0.502656       -13.6780
  49   2.0000      -0.502516       -13.6742
  50   2.0000      -0.490165       -13.3381
  51   2.0000      -0.480884       -13.0855
  52   2.0000      -0.472492       -12.8572
  53   2.0000      -0.459891       -12.5143
  54   2.0000      -0.458001       -12.4628
  55   2.0000      -0.447816       -12.1857
  56   2.0000      -0.444961       -12.1080
  57   2.0000      -0.437770       -11.9123
  58   2.0000      -0.431005       -11.7282
  59   2.0000      -0.428274       -11.6539
  60   2.0000      -0.417989       -11.3741
  61   2.0000      -0.410548       -11.1716
  62   2.0000      -0.404501       -11.0070
  63   2.0000      -0.349917        -9.5217
  64   2.0000      -0.332684        -9.0528
  65   2.0000      -0.327753        -8.9186
  66   2.0000      -0.283929        -7.7261
  67   0.0000       0.018299         0.4979
  68   0.0000       0.070663         1.9228
  69   0.0000       0.105795         2.8788
  70   0.0000       0.114588         3.1181
  71   0.0000       0.131444         3.5768

MULLIKEN ATOMIC CHARGES
-----------------------
   0 S :    0.098809
   1 C :   -0.126557
   2 C :   -0.148610
   3 C :    0.053995
   4 C :   -0.160799
   5 H :   -0.003284
   6 C :    0.071484
   7 H :    0.028825
   8 H :    0.009054
   9 C :   -0.045172
  10 H :    0.020059
  11 H :    0.038409
  12 C :   -0.056462
  13 H :    0.044226
  14 H :    0.040099
  15 H :    0.040146
  16 S :    0.110574
  17 C :   -0.101280
  18 C :   -0.025398
  19 C :   -0.011906
  20 C :   -0.126005
  21 H :    0.020820
  22 C :    0.043156
  23 H :    0.000147
  24 H :    0.009670
  25 C :   -0.079914
  26 H :    0.018746
  27 H :    0.032968
  28 C :   -0.023295
  29 H :    0.046098
  30 H :    0.024101
  31 H :    0.025148
  32 H :    0.058785
  33 H :    0.073362
Sum of atomic charges:   -0.0000000

LOEWDIN ATOMIC CHARGES
----------------------
   0 S :    0.417758
   1 C :   -0.217668
   2 C :   -0.062473
   3 C :   -0.065669
   4 C :   -0.184656
   5 H :    0.019260
   6 C :   -0.027586
   7 H :    0.036997
   8 H :    0.018878
   9 C :   -0.043215
  10 H :    0.025272
  11 H :    0.025788
  12 C :   -0.069491
  13 H :    0.032776
  14 H :    0.030487
  15 H :    0.028037
  16 S :    0.383580
  17 C :   -0.176952
  18 C :   -0.068238
  19 C :   -0.046175
  20 C :   -0.193324
  21 H :    0.034528
  22 C :   -0.036802
  23 H :    0.024544
  24 H :    0.026081
  25 C :   -0.027365
  26 H :    0.018021
  27 H :    0.021587
  28 C :   -0.058180
  29 H :    0.031226
  30 H :    0.023298
  31 H :    0.013877
  32 H :    0.026445
  33 H :    0.039357

  Mayer bond orders larger than 0.100000
B(  0-S ,  1-C ) :   1.1726 B(  0-S ,  4-C ) :   1.1657 B(  1-C ,  2-C ) :   1.5322
B(  1-C ,  4-C ) :   0.1189 B(  1-C , 32-H ) :   0.9743 B(  2-C ,  3-C ) :   1.3156
B(  2-C ,  6-C ) :   1.0029 B(  3-C ,  4-C ) :   1.4977 B(  3-C ,  5-H ) :   0.9979
B(  4-C , 20-C ) :   1.0822 B(  6-C ,  7-H ) :   0.9389 B(  6-C ,  8-H ) :   0.9472
B(  6-C ,  9-C ) :   1.0465 B(  9-C , 10-H ) :   0.9486 B(  9-C , 11-H ) :   0.9593
B(  9-C , 12-C ) :   1.0736 B( 12-C , 13-H ) :   0.9748 B( 12-C , 14-H ) :   0.9744
B( 12-C , 15-H ) :   0.9776 B( 16-S , 17-C ) :   1.1589 B( 16-S , 20-C ) :   1.1044
B( 17-C , 18-C ) :   1.6170 B( 17-C , 33-H ) :   0.9554 B( 18-C , 19-C ) :   1.2192
B( 18-C , 21-H ) :   0.9962 B( 19-C , 20-C ) :   1.5872 B( 19-C , 22-C ) :   1.0722
B( 22-C , 23-H ) :   0.9359 B( 22-C , 24-H ) :   0.9202 B( 22-C , 25-C ) :   1.0716
B( 25-C , 26-H ) :   0.9562 B( 25-C , 27-H ) :   0.9579 B( 25-C , 28-C ) :   1.0673
B( 28-C , 29-H ) :   0.9763 B( 28-C , 30-H ) :   0.9740 B( 28-C , 31-H ) :   0.9761

Dispersion correction           -0.015524751
FINAL SINGLE POINT ENERGY     -1339.865145978835

DIPOLE MOMENT
-------------
                                X             Y             Z
Electronic contribution:     14.64239     -16.45007      20.76477
Nuclear contribution   :    -14.79413      16.58747     -21.40842
                        -----------------------------------------
Total Dipole Moment    :     -0.15174       0.13740      -0.64365
                        -----------------------------------------
Magnitude (a.u.)       :      0.67541
Magnitude (Debye)      :      1.71677

Rotational constants in cm-1:     0.021912     0.008732     0.006920
Rotational constants in MHz :   656.891005   261.792940   207.448364

                             ****ORCA TERMINATED NORMALLY****
TOTAL RUN TIME: 0 days 0 hours 0 minutes 22 seconds 634 msec
