                         Program Version 4.2.1 -  RELEASE  -
|  1> ! wB97X-D3 SP def2-SVP
|  2> %pal
|  3> nprocs 24
|  4> end
|  5>
|  6> * xyz 0 1
|  7> S 	 -101.119 	 49.199 	 -101.092
|  8> C 	 -101.124 	 50.8749 	 -101.704
|  9> C 	 -100.012 	 51.6256 	 -101.2
| 10> C 	 -99.1146 	 50.8201 	 -100.383
| 11> C 	 -99.5584 	 49.4989 	 -100.298
| 12> H 	 -98.2025 	 51.0963 	 -99.8618
| 13> C 	 -99.6967 	 53.0444 	 -101.595
| 14> H 	 -99.4897 	 53.1151 	 -102.632
| 15> H 	 -98.7386 	 53.3163 	 -101.138
| 16> C 	 -100.851 	 53.9766 	 -101.153
| 17> H 	 -101.346 	 53.6829 	 -100.196
| 18> H 	 -100.412 	 54.9674 	 -100.937
| 19> C 	 -101.932 	 54.1688 	 -102.251
| 20> H 	 -102.179 	 53.3015 	 -102.82
| 21> H 	 -102.857 	 54.7201 	 -102.049
| 22> H 	 -101.478 	 54.7574 	 -103.063
| 23> S 	 -99.2952 	 48.0698 	 -98.0495
| 24> C 	 -97.9735 	 46.8294 	 -98.0277
| 25> C 	 -97.2148 	 46.8246 	 -99.1755
| 26> C 	 -97.692 	 47.7551 	 -100.126
| 27> C 	 -98.8511 	 48.441 	 -99.7073
| 28> H 	 -96.3614 	 46.2049 	 -99.34
| 29> C 	 -97.1872 	 47.7815 	 -101.592
| 30> H 	 -96.1047 	 47.5213 	 -101.506
| 31> H 	 -97.2651 	 48.8816 	 -101.62
| 32> C 	 -97.8705 	 47.0484 	 -102.715
| 33> H 	 -97.2651 	 47.2213 	 -103.617
| 34> H 	 -98.8371 	 47.5044 	 -102.978
| 35> C 	 -98.0904 	 45.59 	 -102.455
| 36> H 	 -97.092 	 45.0965 	 -102.352
| 37> H 	 -98.631 	 45.0847 	 -103.312
| 38> H 	 -98.6823 	 45.3834 	 -101.544
| 39> H 	 -101.855 	 51.251 	 -102.287
| 40> H 	 -97.7774 	 46.171 	 -97.1734
| 41> *
| 42>
| 43>                          ****END OF INPUT****

CARTESIAN COORDINATES (ANGSTROEM)
---------------------------------
  S    -101.119000   49.199000  -101.092000
  C    -101.124000   50.874900  -101.704000
  C    -100.012000   51.625600  -101.200000
  C    -99.114600   50.820100  -100.383000
  C    -99.558400   49.498900  -100.298000
  H    -98.202500   51.096300  -99.861800
  C    -99.696700   53.044400  -101.595000
  H    -99.489700   53.115100  -102.632000
  H    -98.738600   53.316300  -101.138000
  C    -100.851000   53.976600  -101.153000
  H    -101.346000   53.682900  -100.196000
  H    -100.412000   54.967400  -100.937000
  C    -101.932000   54.168800  -102.251000
  H    -102.179000   53.301500  -102.820000
  H    -102.857000   54.720100  -102.049000
  H    -101.478000   54.757400  -103.063000
  S    -99.295200   48.069800  -98.049500
  C    -97.973500   46.829400  -98.027700
  C    -97.214800   46.824600  -99.175500
  C    -97.692000   47.755100  -100.126000
  C    -98.851100   48.441000  -99.707300
  H    -96.361400   46.204900  -99.340000
  C    -97.187200   47.781500  -101.592000
  H    -96.104700   47.521300  -101.506000
  H    -97.265100   48.881600  -101.620000
  C    -97.870500   47.048400  -102.715000
  H    -97.265100   47.221300  -103.617000
  H    -98.837100   47.504400  -102.978000
  C    -98.090400   45.590000  -102.455000
  H    -97.092000   45.096500  -102.352000
  H    -98.631000   45.084700  -103.312000
  H    -98.682300   45.383400  -101.544000
  H    -101.855000   51.251000  -102.287000
  H    -97.777400   46.171000  -97.173400

 Total Charge           Charge          ....    0
 Multiplicity           Mult            ....    1
 Number of Electrons    NEL             ....  134
 Basis Dimension        Dim             ....  322

ORBITAL ENERGIES
----------------

  NO   OCC          E(Eh)            E(eV)
   0   2.0000     -88.968566     -2420.9577
   1   2.0000     -88.965655     -2420.8785
   2   2.0000     -10.325727      -280.9773
   3   2.0000     -10.321594      -280.8649
   4   2.0000     -10.319019      -280.7948
   5   2.0000     -10.313176      -280.6358
   6   2.0000     -10.309806      -280.5441
   7   2.0000     -10.302131      -280.3352
   8   2.0000     -10.300990      -280.3042
   9   2.0000     -10.295257      -280.1482
  10   2.0000     -10.292897      -280.0840
  11   2.0000     -10.291373      -280.0425
  12   2.0000     -10.290325      -280.0140
  13   2.0000     -10.282341      -279.7967
  14   2.0000     -10.279844      -279.7288
  15   2.0000     -10.278840      -279.7015
  16   2.0000      -8.081995      -219.9223
  17   2.0000      -8.079500      -219.8544
  18   2.0000      -6.040433      -164.3685
  19   2.0000      -6.037949      -164.3010
  20   2.0000      -6.036715      -164.2674
  21   2.0000      -6.034202      -164.1990
  22   2.0000      -6.032892      -164.1633
  23   2.0000      -6.030303      -164.0929
  24   2.0000      -1.000219       -27.2173
  25   2.0000      -0.971371       -26.4323
  26   2.0000      -0.911241       -24.7961
  27   2.0000      -0.905634       -24.6435
  28   2.0000      -0.868900       -23.6440
  29   2.0000      -0.847512       -23.0620
  30   2.0000      -0.845009       -22.9939
  31   2.0000      -0.810061       -22.0429
  32   2.0000      -0.783834       -21.3292
  33   2.0000      -0.766087       -20.8463
  34   2.0000      -0.708886       -19.2898
  35   2.0000      -0.706290       -19.2191
  36   2.0000      -0.685770       -18.6608
  37   2.0000      -0.664352       -18.0779
  38   2.0000      -0.650231       -17.6937
  39   2.0000      -0.610216       -16.6048
  40   2.0000      -0.580644       -15.8001
  41   2.0000      -0.570440       -15.5225
  42   2.0000      -0.553164       -15.0523
  43   2.0000      -0.547739       -14.9047
  44   2.0000      -0.544415       -14.8143
  45   2.0000      -0.528978       -14.3942
  46   2.0000      -0.518792       -14.1171
  47   2.0000      -0.514633       -14.0039
  48   2.0000      -0.502808       -13.6821
  49   2.0000      -0.488277       -13.2867
  50   2.0000      -0.484338       -13.1795
  51   2.0000      -0.481361       -13.0985
  52   2.0000      -0.472323       -12.8526
  53   2.0000      -0.464666       -12.6442
  54   2.0000      -0.454264       -12.3612
  55   2.0000      -0.444778       -12.1030
  56   2.0000      -0.443047       -12.0559
  57   2.0000      -0.439311       -11.9543
  58   2.0000      -0.435192       -11.8422
  59   2.0000      -0.428201       -11.6519
  60   2.0000      -0.413423       -11.2498
  61   2.0000      -0.410947       -11.1824
  62   2.0000      -0.403506       -10.9799
  63   2.0000      -0.339525        -9.2389
  64   2.0000      -0.331081        -9.0092
  65   2.0000      -0.313472        -8.5300
  66   2.0000      -0.299116        -8.1393
  67   0.0000       0.036586         0.9956
  68   0.0000       0.046669         1.2699
  69   0.0000       0.107122         2.9149
  70   0.0000       0.111597         3.0367
  71   0.0000       0.122940         3.3454

MULLIKEN ATOMIC CHARGES
-----------------------
   0 S :    0.114055
   1 C :   -0.078993
   2 C :   -0.097500
   3 C :    0.057695
   4 C :   -0.198102
   5 H :    0.024927
   6 C :    0.087090
   7 H :    0.033900
   8 H :    0.017477
   9 C :   -0.074726
  10 H :    0.048762
  11 H :    0.030837
  12 C :   -0.049191
  13 H :    0.008173
  14 H :    0.043898
  15 H :    0.015036
  16 S :    0.106861
  17 C :   -0.096279
  18 C :   -0.010289
  19 C :   -0.052628
  20 C :   -0.188499
  21 H :    0.010404
  22 C :    0.045757
  23 H :    0.021339
  24 H :    0.032936
  25 C :   -0.003914
  26 H :    0.030086
  27 H :    0.024909
  28 C :   -0.089157
  29 H :    0.026428
  30 H :    0.042305
  31 H :    0.053045
  32 H :    0.002984
  33 H :    0.060373
Sum of atomic charges:    0.0000000

LOEWDIN ATOMIC CHARGES
----------------------
   0 S :    0.391114
   1 C :   -0.176000
   2 C :   -0.046258
   3 C :   -0.054506
   4 C :   -0.196836
   5 H :    0.037417
   6 C :   -0.028635
   7 H :    0.030480
   8 H :    0.032219
   9 C :   -0.037875
  10 H :    0.030683
  11 H :    0.025499
  12 C :   -0.074759
  13 H :    0.015590
  14 H :    0.029873
  15 H :    0.027144
  16 S :    0.385695
  17 C :   -0.164892
  18 C :   -0.069122
  19 C :   -0.053323
  20 C :   -0.212928
  21 H :    0.030658
  22 C :   -0.040341
  23 H :    0.029763
  24 H :    0.039155
  25 C :   -0.046969
  26 H :    0.030689
  27 H :    0.025455
  28 C :   -0.073740
  29 H :    0.024405
  30 H :    0.032618
  31 H :    0.030696
  32 H :   -0.002561
  33 H :    0.029591

  Mayer bond orders larger than 0.100000
B(  0-S ,  1-C ) :   1.1331 B(  0-S ,  4-C ) :   1.1434 B(  1-C ,  2-C ) :   1.5965
B(  1-C ,  4-C ) :   0.1054 B(  1-C , 32-H ) :   0.9863 B(  2-C ,  3-C ) :   1.2225
B(  2-C ,  6-C ) :   1.0280 B(  3-C ,  4-C ) :   1.5910 B(  3-C ,  5-H ) :   0.9885
B(  4-C , 20-C ) :   1.0407 B(  6-C ,  7-H ) :   0.9425 B(  6-C ,  8-H ) :   0.9415
B(  6-C ,  9-C ) :   1.0431 B(  9-C , 10-H ) :   0.9658 B(  9-C , 11-H ) :   0.9609
B(  9-C , 12-C ) :   1.0602 B( 12-C , 13-H ) :   0.9771 B( 12-C , 14-H ) :   0.9757
B( 12-C , 15-H ) :   0.9685 B( 16-S , 17-C ) :   1.1408 B( 16-S , 20-C ) :   1.1457
B( 17-C , 18-C ) :   1.6109 B( 17-C , 20-C ) :   0.1072 B( 17-C , 33-H ) :   0.9643
B( 18-C , 19-C ) :   1.2425 B( 18-C , 21-H ) :   0.9917 B( 19-C , 20-C ) :   1.5871
B( 19-C , 22-C ) :   1.0105 B( 22-C , 23-H ) :   0.9350 B( 22-C , 24-H ) :   0.9255
B( 22-C , 25-C ) :   1.0766 B( 25-C , 26-H ) :   0.9464 B( 25-C , 27-H ) :   0.9465
B( 25-C , 28-C ) :   1.0829 B( 28-C , 29-H ) :   0.9738 B( 28-C , 30-H ) :   0.9721
B( 28-C , 31-H ) :   0.9717

Dispersion correction           -0.015269550
FINAL SINGLE POINT ENERGY     -1339.861830074106

DIPOLE MOMENT
-------------
                                X             Y             Z
Electronic contribution:     -3.59273      -9.62074      16.29369
Nuclear contribution   :      3.97404       9.95216     -16.62259
                        -----------------------------------------
Total Dipole Moment    :      0.38131       0.33142      -0.32890
                        -----------------------------------------
Magnitude (a.u.)       :      0.60284
Magnitude (Debye)      :      1.53229

Rotational constants in cm-1:     0.023936     0.007681     0.006813
Rotational constants in MHz :   717.569448   230.258293   204.258592

                             ****ORCA TERMINATED NORMALLY****
TOTAL RUN TIME: 0 days 0 hours 0 minutes 23 seconds 970 msec
