                         Program Version 4.2.1 -  RELEASE  -
|  1> ! wB97X-D3 SP def2-SVP
|  2> %pal
|  3> nprocs 24
|  4> end
|  5>
|  6> * xyz 0 1
|  7> S 	 -75.6536 	 -45.0959 	 -92.4185
|  8> C 	 -75.4034 	 -43.4353 	 -92.1604
|  9> C 	 -75.5799 	 -42.6603 	 -93.2652
| 10> C 	 -75.9413 	 -43.4784 	 -94.377
| 11> C 	 -76.131 	 -44.7757 	 -94.0991
| 12> H 	 -75.9845 	 -43.1609 	 -95.4316
| 13> C 	 -75.4013 	 -41.1462 	 -93.3991
| 14> H 	 -76.1982 	 -40.5957 	 -93.137
| 15> H 	 -75.3564 	 -41.0584 	 -94.4576
| 16> C 	 -74.0752 	 -40.6402 	 -92.7045
| 17> H 	 -73.8892 	 -39.5501 	 -92.8653
| 18> H 	 -74.1213 	 -40.6326 	 -91.5876
| 19> C 	 -72.7972 	 -41.1813 	 -93.3092
| 20> H 	 -71.873 	 -40.6797 	 -93.1282
| 21> H 	 -72.733 	 -42.1738 	 -93.0359
| 22> H 	 -72.8127 	 -41.1231 	 -94.4305
| 23> S 	 -75.4502 	 -47.1136 	 -95.2285
| 24> C 	 -76.3989 	 -47.9395 	 -96.428
| 25> C 	 -77.4719 	 -47.1675 	 -96.8085
| 26> C 	 -77.6087 	 -45.9547 	 -96.0163
| 27> C 	 -76.5846 	 -45.8117 	 -95.057
| 28> H 	 -78.1287 	 -47.3721 	 -97.7048
| 29> C 	 -78.7425 	 -44.9551 	 -96.1795
| 30> H 	 -79.4707 	 -45.5405 	 -96.7983
| 31> H 	 -78.5347 	 -43.9932 	 -96.6924
| 32> C 	 -79.4091 	 -44.6922 	 -94.8966
| 33> H 	 -80.1211 	 -43.9284 	 -94.9925
| 34> H 	 -78.8047 	 -44.2048 	 -94.1627
| 35> C 	 -80.0864 	 -45.9401 	 -94.2801
| 36> H 	 -80.8513 	 -46.2344 	 -94.9263
| 37> H 	 -80.4789 	 -45.8175 	 -93.3066
| 38> H 	 -79.4537 	 -46.8864 	 -94.3637
| 39> H 	 -75.0946 	 -43.0307 	 -91.221
| 40> H 	 -76.0429 	 -48.8578 	 -96.9487
| 41> *
| 42>
| 43>                          ****END OF INPUT****

CARTESIAN COORDINATES (ANGSTROEM)
---------------------------------
  S    -75.653600  -45.095900  -92.418500
  C    -75.403400  -43.435300  -92.160400
  C    -75.579900  -42.660300  -93.265200
  C    -75.941300  -43.478400  -94.377000
  C    -76.131000  -44.775700  -94.099100
  H    -75.984500  -43.160900  -95.431600
  C    -75.401300  -41.146200  -93.399100
  H    -76.198200  -40.595700  -93.137000
  H    -75.356400  -41.058400  -94.457600
  C    -74.075200  -40.640200  -92.704500
  H    -73.889200  -39.550100  -92.865300
  H    -74.121300  -40.632600  -91.587600
  C    -72.797200  -41.181300  -93.309200
  H    -71.873000  -40.679700  -93.128200
  H    -72.733000  -42.173800  -93.035900
  H    -72.812700  -41.123100  -94.430500
  S    -75.450200  -47.113600  -95.228500
  C    -76.398900  -47.939500  -96.428000
  C    -77.471900  -47.167500  -96.808500
  C    -77.608700  -45.954700  -96.016300
  C    -76.584600  -45.811700  -95.057000
  H    -78.128700  -47.372100  -97.704800
  C    -78.742500  -44.955100  -96.179500
  H    -79.470700  -45.540500  -96.798300
  H    -78.534700  -43.993200  -96.692400
  C    -79.409100  -44.692200  -94.896600
  H    -80.121100  -43.928400  -94.992500
  H    -78.804700  -44.204800  -94.162700
  C    -80.086400  -45.940100  -94.280100
  H    -80.851300  -46.234400  -94.926300
  H    -80.478900  -45.817500  -93.306600
  H    -79.453700  -46.886400  -94.363700
  H    -75.094600  -43.030700  -91.221000
  H    -76.042900  -48.857800  -96.948700

 Total Charge           Charge          ....    0
 Multiplicity           Mult            ....    1
 Number of Electrons    NEL             ....  134
 Basis Dimension        Dim             ....  322

ORBITAL ENERGIES
----------------

  NO   OCC          E(Eh)            E(eV)
   0   2.0000     -88.966160     -2420.8923
   1   2.0000     -88.962186     -2420.7841
   2   2.0000     -10.328273      -281.0466
   3   2.0000     -10.327694      -281.0308
   4   2.0000     -10.320015      -280.8219
   5   2.0000     -10.308090      -280.4974
   6   2.0000     -10.307688      -280.4865
   7   2.0000     -10.301826      -280.3269
   8   2.0000     -10.297934      -280.2210
   9   2.0000     -10.294793      -280.1356
  10   2.0000     -10.292468      -280.0723
  11   2.0000     -10.290291      -280.0131
  12   2.0000     -10.289290      -279.9858
  13   2.0000     -10.268930      -279.4318
  14   2.0000     -10.268188      -279.4116
  15   2.0000     -10.264580      -279.3134
  16   2.0000      -8.081554      -219.9103
  17   2.0000      -8.077562      -219.8016
  18   2.0000      -6.040017      -164.3572
  19   2.0000      -6.036058      -164.2495
  20   2.0000      -6.036007      -164.2481
  21   2.0000      -6.032225      -164.1452
  22   2.0000      -6.031791      -164.1334
  23   2.0000      -6.028536      -164.0448
  24   2.0000      -1.010949       -27.5093
  25   2.0000      -0.988366       -26.8948
  26   2.0000      -0.915569       -24.9139
  27   2.0000      -0.909937       -24.7606
  28   2.0000      -0.870025       -23.6746
  29   2.0000      -0.853473       -23.2242
  30   2.0000      -0.839539       -22.8450
  31   2.0000      -0.815879       -22.2012
  32   2.0000      -0.785709       -21.3802
  33   2.0000      -0.774603       -21.0780
  34   2.0000      -0.711903       -19.3719
  35   2.0000      -0.705843       -19.2070
  36   2.0000      -0.685152       -18.6439
  37   2.0000      -0.662080       -18.0161
  38   2.0000      -0.644301       -17.5323
  39   2.0000      -0.614837       -16.7306
  40   2.0000      -0.591438       -16.0939
  41   2.0000      -0.573427       -15.6037
  42   2.0000      -0.560344       -15.2477
  43   2.0000      -0.556079       -15.1317
  44   2.0000      -0.542339       -14.7578
  45   2.0000      -0.539190       -14.6721
  46   2.0000      -0.511941       -13.9306
  47   2.0000      -0.508823       -13.8458
  48   2.0000      -0.501590       -13.6490
  49   2.0000      -0.494725       -13.4621
  50   2.0000      -0.485673       -13.2158
  51   2.0000      -0.475082       -12.9276
  52   2.0000      -0.472613       -12.8604
  53   2.0000      -0.469809       -12.7841
  54   2.0000      -0.459446       -12.5022
  55   2.0000      -0.451982       -12.2990
  56   2.0000      -0.444663       -12.0999
  57   2.0000      -0.436265       -11.8714
  58   2.0000      -0.429259       -11.6807
  59   2.0000      -0.427349       -11.6288
  60   2.0000      -0.425028       -11.5656
  61   2.0000      -0.405715       -11.0401
  62   2.0000      -0.401160       -10.9161
  63   2.0000      -0.348542        -9.4843
  64   2.0000      -0.331281        -9.0146
  65   2.0000      -0.326499        -8.8845
  66   2.0000      -0.297429        -8.0934
  67   0.0000       0.032958         0.8968
  68   0.0000       0.070785         1.9261
  69   0.0000       0.110787         3.0147
  70   0.0000       0.125035         3.4024
  71   0.0000       0.137289         3.7358

MULLIKEN ATOMIC CHARGES
-----------------------
   0 S :    0.122845
   1 C :   -0.110546
   2 C :   -0.113895
   3 C :    0.012056
   4 C :   -0.149720
   5 H :    0.024690
   6 C :    0.191667
   7 H :    0.014276
   8 H :   -0.001534
   9 C :   -0.132920
  10 H :    0.025861
  11 H :    0.037984
  12 C :   -0.022219
  13 H :    0.028122
  14 H :    0.023005
  15 H :    0.024194
  16 S :    0.098338
  17 C :   -0.102298
  18 C :   -0.047835
  19 C :   -0.078025
  20 C :   -0.155290
  21 H :    0.044029
  22 C :    0.069014
  23 H :    0.011433
  24 H :    0.047296
  25 C :   -0.030799
  26 H :   -0.002401
  27 H :    0.025561
  28 C :   -0.039243
  29 H :    0.001478
  30 H :    0.030836
  31 H :    0.043261
  32 H :    0.034408
  33 H :    0.076367
Sum of atomic charges:    0.0000000

LOEWDIN ATOMIC CHARGES
----------------------
   0 S :    0.413568
   1 C :   -0.199042
   2 C :   -0.067058
   3 C :   -0.065146
   4 C :   -0.195136
   5 H :    0.037630
   6 C :   -0.008620
   7 H :    0.017374
   8 H :    0.028633
   9 C :   -0.049788
  10 H :    0.028217
  11 H :    0.025819
  12 C :   -0.063197
  13 H :    0.023863
  14 H :    0.012560
  15 H :    0.032410
  16 S :    0.420872
  17 C :   -0.198431
  18 C :   -0.083595
  19 C :   -0.059613
  20 C :   -0.197010
  21 H :    0.042799
  22 C :   -0.033601
  23 H :    0.032125
  24 H :    0.036352
  25 C :   -0.043468
  26 H :    0.017221
  27 H :    0.022121
  28 C :   -0.061199
  29 H :    0.013295
  30 H :    0.020813
  31 H :    0.036628
  32 H :    0.022962
  33 H :    0.039642

  Mayer bond orders larger than 0.100000
B(  0-S ,  1-C ) :   1.1484 B(  0-S ,  4-C ) :   1.1357 B(  1-C ,  2-C ) :   1.6279
B(  1-C , 32-H ) :   0.9678 B(  2-C ,  3-C ) :   1.2339 B(  2-C ,  6-C ) :   0.9929
B(  3-C ,  4-C ) :   1.6165 B(  3-C ,  5-H ) :   0.9883 B(  4-C , 20-C ) :   1.0139
B(  6-C ,  7-H ) :   0.9346 B(  6-C ,  8-H ) :   0.9351 B(  6-C ,  9-C ) :   1.0700
B(  9-C , 10-H ) :   0.9590 B(  9-C , 11-H ) :   0.9571 B(  9-C , 12-C ) :   1.0641
B( 12-C , 13-H ) :   0.9767 B( 12-C , 14-H ) :   0.9762 B( 12-C , 15-H ) :   0.9708
B( 16-S , 17-C ) :   1.1665 B( 16-S , 20-C ) :   1.1697 B( 17-C , 18-C ) :   1.5871
B( 17-C , 33-H ) :   0.9628 B( 18-C , 19-C ) :   1.2679 B( 18-C , 21-H ) :   0.9762
B( 19-C , 20-C ) :   1.5717 B( 19-C , 22-C ) :   1.0287 B( 22-C , 23-H ) :   0.9351
B( 22-C , 24-H ) :   0.9340 B( 22-C , 25-C ) :   1.0905 B( 25-C , 26-H ) :   0.9436
B( 25-C , 27-H ) :   0.9467 B( 25-C , 28-C ) :   1.0667 B( 28-C , 29-H ) :   0.9708
B( 28-C , 30-H ) :   0.9748 B( 28-C , 31-H ) :   0.9746

Dispersion correction           -0.015434588
FINAL SINGLE POINT ENERGY     -1339.858564616306

DIPOLE MOMENT
-------------
                                X             Y             Z
Electronic contribution:      6.07383     -17.89267       1.07919
Nuclear contribution   :     -6.19818      18.47355      -1.39518
                        -----------------------------------------
Total Dipole Moment    :     -0.12436       0.58088      -0.31599
                        -----------------------------------------
Magnitude (a.u.)       :      0.67286
Magnitude (Debye)      :      1.71027

Rotational constants in cm-1:     0.022901     0.008274     0.007359
Rotational constants in MHz :   686.542718   248.040483   220.606444

                             ****ORCA TERMINATED NORMALLY****
TOTAL RUN TIME: 0 days 0 hours 0 minutes 22 seconds 384 msec
