                         Program Version 4.2.1 -  RELEASE  -
|  1> ! wB97X-D3 SP def2-SVP
|  2> %pal
|  3> nprocs 24
|  4> end
|  5>
|  6> * xyz 0 1
|  7> S 	 -68.5056 	 20.8587 	 -76.8955
|  8> C 	 -67.8269 	 21.4789 	 -75.4291
|  9> C 	 -67.2218 	 20.4975 	 -74.5994
| 10> C 	 -67.3625 	 19.1823 	 -75.1626
| 11> C 	 -68.1023 	 19.21 	 -76.3615
| 12> H 	 -66.9352 	 18.2213 	 -74.8178
| 13> C 	 -66.507 	 20.7219 	 -73.3116
| 14> H 	 -65.5278 	 21.0807 	 -73.5234
| 15> H 	 -66.434 	 19.7644 	 -72.7605
| 16> C 	 -67.222 	 21.8127 	 -72.3986
| 17> H 	 -66.9186 	 22.8977 	 -72.566
| 18> H 	 -68.3063 	 21.597 	 -72.4114
| 19> C 	 -66.8903 	 21.4474 	 -70.8652
| 20> H 	 -67.1468 	 20.4249 	 -70.6305
| 21> H 	 -65.879 	 21.7948 	 -70.53
| 22> H 	 -67.5855 	 21.8789 	 -70.1768
| 23> S 	 -69.4295 	 16.9769 	 -76.1859
| 24> C 	 -69.1762 	 15.7029 	 -77.3315
| 25> C 	 -68.4718 	 16.141 	 -78.4517
| 26> C 	 -68.0634 	 17.4869 	 -78.2921
| 27> C 	 -68.5034 	 18.0408 	 -77.1068
| 28> H 	 -68.2133 	 15.4787 	 -79.2401
| 29> C 	 -67.1493 	 18.2429 	 -79.2386
| 30> H 	 -67.2265 	 19.269 	 -78.9187
| 31> H 	 -67.7285 	 18.221 	 -80.1301
| 32> C 	 -65.8261 	 17.707 	 -79.4868
| 33> H 	 -65.2954 	 18.4866 	 -80.0742
| 34> H 	 -65.8438 	 16.8237 	 -80.2381
| 35> C 	 -64.8874 	 17.4319 	 -78.2927
| 36> H 	 -65.2855 	 16.7106 	 -77.6159
| 37> H 	 -64.6096 	 18.2601 	 -77.7269
| 38> H 	 -63.9712 	 16.9242 	 -78.6047
| 39> H 	 -67.8679 	 22.4998 	 -75.1029
| 40> H 	 -69.5623 	 14.6598 	 -77.0923
| 41> *
| 42>
| 43>                          ****END OF INPUT****

CARTESIAN COORDINATES (ANGSTROEM)
---------------------------------
  S    -68.505600   20.858700  -76.895500
  C    -67.826900   21.478900  -75.429100
  C    -67.221800   20.497500  -74.599400
  C    -67.362500   19.182300  -75.162600
  C    -68.102300   19.210000  -76.361500
  H    -66.935200   18.221300  -74.817800
  C    -66.507000   20.721900  -73.311600
  H    -65.527800   21.080700  -73.523400
  H    -66.434000   19.764400  -72.760500
  C    -67.222000   21.812700  -72.398600
  H    -66.918600   22.897700  -72.566000
  H    -68.306300   21.597000  -72.411400
  C    -66.890300   21.447400  -70.865200
  H    -67.146800   20.424900  -70.630500
  H    -65.879000   21.794800  -70.530000
  H    -67.585500   21.878900  -70.176800
  S    -69.429500   16.976900  -76.185900
  C    -69.176200   15.702900  -77.331500
  C    -68.471800   16.141000  -78.451700
  C    -68.063400   17.486900  -78.292100
  C    -68.503400   18.040800  -77.106800
  H    -68.213300   15.478700  -79.240100
  C    -67.149300   18.242900  -79.238600
  H    -67.226500   19.269000  -78.918700
  H    -67.728500   18.221000  -80.130100
  C    -65.826100   17.707000  -79.486800
  H    -65.295400   18.486600  -80.074200
  H    -65.843800   16.823700  -80.238100
  C    -64.887400   17.431900  -78.292700
  H    -65.285500   16.710600  -77.615900
  H    -64.609600   18.260100  -77.726900
  H    -63.971200   16.924200  -78.604700
  H    -67.867900   22.499800  -75.102900
  H    -69.562300   14.659800  -77.092300

 Total Charge           Charge          ....    0
 Multiplicity           Mult            ....    1
 Number of Electrons    NEL             ....  134
 Basis Dimension        Dim             ....  322

ORBITAL ENERGIES
----------------

  NO   OCC          E(Eh)            E(eV)
   0   2.0000     -88.970531     -2421.0112
   1   2.0000     -88.960772     -2420.7457
   2   2.0000     -10.328652      -281.0569
   3   2.0000     -10.318535      -280.7816
   4   2.0000     -10.311939      -280.6021
   5   2.0000     -10.310954      -280.5753
   6   2.0000     -10.303333      -280.3679
   7   2.0000     -10.302414      -280.3429
   8   2.0000     -10.299041      -280.2511
   9   2.0000     -10.294744      -280.1342
  10   2.0000     -10.293685      -280.1054
  11   2.0000     -10.291151      -280.0365
  12   2.0000     -10.289572      -279.9935
  13   2.0000     -10.280649      -279.7507
  14   2.0000     -10.277471      -279.6642
  15   2.0000     -10.265579      -279.3406
  16   2.0000      -8.084387      -219.9874
  17   2.0000      -8.077250      -219.7931
  18   2.0000      -6.042772      -164.4322
  19   2.0000      -6.039053      -164.3310
  20   2.0000      -6.035525      -164.2350
  21   2.0000      -6.035330      -164.2297
  22   2.0000      -6.031317      -164.1205
  23   2.0000      -6.028336      -164.0394
  24   2.0000      -1.011235       -27.5171
  25   2.0000      -0.980429       -26.6788
  26   2.0000      -0.915561       -24.9137
  27   2.0000      -0.903683       -24.5905
  28   2.0000      -0.867121       -23.5956
  29   2.0000      -0.848759       -23.0959
  30   2.0000      -0.844872       -22.9901
  31   2.0000      -0.808756       -22.0074
  32   2.0000      -0.787810       -21.4374
  33   2.0000      -0.766996       -20.8710
  34   2.0000      -0.708580       -19.2814
  35   2.0000      -0.699744       -19.0410
  36   2.0000      -0.685946       -18.6655
  37   2.0000      -0.661674       -18.0051
  38   2.0000      -0.638152       -17.3650
  39   2.0000      -0.608336       -16.5537
  40   2.0000      -0.590703       -16.0738
  41   2.0000      -0.568939       -15.4816
  42   2.0000      -0.562514       -15.3068
  43   2.0000      -0.555174       -15.1071
  44   2.0000      -0.545878       -14.8541
  45   2.0000      -0.521278       -14.1847
  46   2.0000      -0.517743       -14.0885
  47   2.0000      -0.505684       -13.7604
  48   2.0000      -0.498582       -13.5671
  49   2.0000      -0.494640       -13.4598
  50   2.0000      -0.491687       -13.3795
  51   2.0000      -0.472546       -12.8586
  52   2.0000      -0.468748       -12.7553
  53   2.0000      -0.462712       -12.5910
  54   2.0000      -0.459619       -12.5069
  55   2.0000      -0.446731       -12.1562
  56   2.0000      -0.444199       -12.0873
  57   2.0000      -0.443286       -12.0624
  58   2.0000      -0.437483       -11.9045
  59   2.0000      -0.422341       -11.4925
  60   2.0000      -0.418296       -11.3824
  61   2.0000      -0.416602       -11.3363
  62   2.0000      -0.401710       -10.9311
  63   2.0000      -0.339515        -9.2387
  64   2.0000      -0.332894        -9.0585
  65   2.0000      -0.323046        -8.7905
  66   2.0000      -0.289321        -7.8728
  67   0.0000       0.036471         0.9924
  68   0.0000       0.067921         1.8482
  69   0.0000       0.106039         2.8855
  70   0.0000       0.123051         3.3484
  71   0.0000       0.130455         3.5499

MULLIKEN ATOMIC CHARGES
-----------------------
   0 S :    0.128889
   1 C :   -0.105432
   2 C :   -0.105854
   3 C :    0.021804
   4 C :   -0.185949
   5 H :    0.034361
   6 C :    0.097515
   7 H :    0.039896
   8 H :    0.029816
   9 C :   -0.136744
  10 H :    0.062146
  11 H :    0.050949
  12 C :   -0.072338
  13 H :    0.026218
  14 H :    0.045269
  15 H :    0.017312
  16 S :    0.120123
  17 C :   -0.139273
  18 C :   -0.018411
  19 C :   -0.063847
  20 C :   -0.175221
  21 H :    0.007151
  22 C :    0.167092
  23 H :   -0.002746
  24 H :    0.016278
  25 C :   -0.101683
  26 H :    0.031510
  27 H :    0.034708
  28 C :   -0.008475
  29 H :    0.021131
  30 H :    0.023504
  31 H :    0.021568
  32 H :    0.039230
  33 H :    0.079504
Sum of atomic charges:    0.0000000

LOEWDIN ATOMIC CHARGES
----------------------
   0 S :    0.412109
   1 C :   -0.210005
   2 C :   -0.062497
   3 C :   -0.063628
   4 C :   -0.192494
   5 H :    0.038597
   6 C :   -0.030627
   7 H :    0.032671
   8 H :    0.035095
   9 C :   -0.042389
  10 H :    0.034767
  11 H :    0.031044
  12 C :   -0.076656
  13 H :    0.023181
  14 H :    0.027897
  15 H :    0.020330
  16 S :    0.451364
  17 C :   -0.201349
  18 C :   -0.071024
  19 C :   -0.054574
  20 C :   -0.234212
  21 H :    0.027764
  22 C :   -0.036308
  23 H :    0.021224
  24 H :    0.035532
  25 C :   -0.049134
  26 H :    0.032628
  27 H :    0.032332
  28 C :   -0.061019
  29 H :    0.021024
  30 H :    0.018536
  31 H :    0.029349
  32 H :    0.022257
  33 H :    0.038215

  Mayer bond orders larger than 0.100000
B(  0-S ,  1-C ) :   1.1455 B(  0-S ,  4-C ) :   1.1514 B(  1-C ,  2-C ) :   1.5918
B(  1-C ,  4-C ) :   0.1002 B(  1-C , 32-H ) :   0.9669 B(  2-C ,  3-C ) :   1.2467
B(  2-C ,  6-C ) :   1.0309 B(  3-C ,  4-C ) :   1.5710 B(  3-C ,  5-H ) :   0.9845
B(  4-C , 20-C ) :   1.0096 B(  6-C ,  7-H ) :   0.9246 B(  6-C ,  8-H ) :   0.9504
B(  6-C ,  9-C ) :   1.0489 B(  9-C , 10-H ) :   0.9535 B(  9-C , 11-H ) :   0.9649
B(  9-C , 12-C ) :   1.0759 B( 12-C , 13-H ) :   0.9746 B( 12-C , 14-H ) :   0.9775
B( 12-C , 15-H ) :   0.9754 B( 16-S , 17-C ) :   1.1857 B( 16-S , 20-C ) :   1.1705
B( 17-C , 18-C ) :   1.5568 B( 17-C , 33-H ) :   0.9617 B( 18-C , 19-C ) :   1.2621
B( 18-C , 21-H ) :   1.0050 B( 19-C , 20-C ) :   1.5692 B( 19-C , 22-C ) :   1.0248
B( 22-C , 23-H ) :   0.9172 B( 22-C , 24-H ) :   0.9137 B( 22-C , 25-C ) :   1.0982
B( 25-C , 26-H ) :   0.9476 B( 25-C , 27-H ) :   0.9484 B( 25-C , 28-C ) :   1.0773
B( 28-C , 29-H ) :   0.9717 B( 28-C , 30-H ) :   0.9748 B( 28-C , 31-H ) :   0.9707

Dispersion correction           -0.014775502
FINAL SINGLE POINT ENERGY     -1339.862225460866

DIPOLE MOMENT
-------------
                                X             Y             Z
Electronic contribution:    -17.28553      -3.76113      -9.11456
Nuclear contribution   :     17.72733       3.68752       9.32366
                        -----------------------------------------
Total Dipole Moment    :      0.44180      -0.07361       0.20910
                        -----------------------------------------
Magnitude (a.u.)       :      0.49429
Magnitude (Debye)      :      1.25639

Rotational constants in cm-1:     0.022284     0.007563     0.006966
Rotational constants in MHz :   668.056663   226.735669   208.837594

                             ****ORCA TERMINATED NORMALLY****
TOTAL RUN TIME: 0 days 0 hours 0 minutes 20 seconds 411 msec
