                         Program Version 4.2.1 -  RELEASE  -
|  1> ! wB97X-D3 SP def2-SVP
|  2> %pal
|  3> nprocs 24
|  4> end
|  5>
|  6> * xyz 0 1
|  7> S 	 -85.2299 	 -31.7856 	 -76.8852
|  8> C 	 -85.3319 	 -31.2864 	 -78.5534
|  9> C 	 -86.4108 	 -31.9521 	 -79.1456
| 10> C 	 -87.1318 	 -32.7673 	 -78.2243
| 11> C 	 -86.6519 	 -32.7233 	 -76.9971
| 12> H 	 -87.9489 	 -33.4479 	 -78.5244
| 13> C 	 -86.6201 	 -31.8274 	 -80.6561
| 14> H 	 -86.175 	 -32.7737 	 -80.998
| 15> H 	 -86.0688 	 -30.9827 	 -81.0526
| 16> C 	 -88.0769 	 -31.8395 	 -81.2291
| 17> H 	 -87.9915 	 -31.9557 	 -82.3126
| 18> H 	 -88.6099 	 -32.7551 	 -80.979
| 19> C 	 -88.9512 	 -30.608 	 -81.0237
| 20> H 	 -89.7519 	 -30.5281 	 -81.7768
| 21> H 	 -89.3076 	 -30.5143 	 -79.9394
| 22> H 	 -88.3752 	 -29.7247 	 -81.0873
| 23> S 	 -85.8509 	 -34.5755 	 -75.2208
| 24> C 	 -86.9471 	 -35.213 	 -74.001
| 25> C 	 -88.2028 	 -34.6113 	 -74.1504
| 26> C 	 -88.331 	 -33.6399 	 -75.1983
| 27> C 	 -87.1084 	 -33.5551 	 -75.8742
| 28> H 	 -88.8363 	 -34.8923 	 -73.356
| 29> C 	 -89.5539 	 -32.808 	 -75.4214
| 30> H 	 -89.1921 	 -32.037 	 -76.1548
| 31> H 	 -89.7469 	 -32.1619 	 -74.5746
| 32> C 	 -90.807 	 -33.4628 	 -75.8194
| 33> H 	 -91.0422 	 -34.2795 	 -75.1568
| 34> H 	 -90.5613 	 -33.9238 	 -76.8504
| 35> C 	 -91.9776 	 -32.5119 	 -75.7941
| 36> H 	 -91.8735 	 -31.741 	 -76.6166
| 37> H 	 -92.1885 	 -32.066 	 -74.8347
| 38> H 	 -93.0087 	 -32.936 	 -75.9175
| 39> H 	 -84.6744 	 -30.6286 	 -79.087
| 40> H 	 -86.6528 	 -35.8305 	 -73.1569
| 41> *
| 42>
| 43>                          ****END OF INPUT****

CARTESIAN COORDINATES (ANGSTROEM)
---------------------------------
  S    -85.229900  -31.785600  -76.885200
  C    -85.331900  -31.286400  -78.553400
  C    -86.410800  -31.952100  -79.145600
  C    -87.131800  -32.767300  -78.224300
  C    -86.651900  -32.723300  -76.997100
  H    -87.948900  -33.447900  -78.524400
  C    -86.620100  -31.827400  -80.656100
  H    -86.175000  -32.773700  -80.998000
  H    -86.068800  -30.982700  -81.052600
  C    -88.076900  -31.839500  -81.229100
  H    -87.991500  -31.955700  -82.312600
  H    -88.609900  -32.755100  -80.979000
  C    -88.951200  -30.608000  -81.023700
  H    -89.751900  -30.528100  -81.776800
  H    -89.307600  -30.514300  -79.939400
  H    -88.375200  -29.724700  -81.087300
  S    -85.850900  -34.575500  -75.220800
  C    -86.947100  -35.213000  -74.001000
  C    -88.202800  -34.611300  -74.150400
  C    -88.331000  -33.639900  -75.198300
  C    -87.108400  -33.555100  -75.874200
  H    -88.836300  -34.892300  -73.356000
  C    -89.553900  -32.808000  -75.421400
  H    -89.192100  -32.037000  -76.154800
  H    -89.746900  -32.161900  -74.574600
  C    -90.807000  -33.462800  -75.819400
  H    -91.042200  -34.279500  -75.156800
  H    -90.561300  -33.923800  -76.850400
  C    -91.977600  -32.511900  -75.794100
  H    -91.873500  -31.741000  -76.616600
  H    -92.188500  -32.066000  -74.834700
  H    -93.008700  -32.936000  -75.917500
  H    -84.674400  -30.628600  -79.087000
  H    -86.652800  -35.830500  -73.156900

 Total Charge           Charge          ....    0
 Multiplicity           Mult            ....    1
 Number of Electrons    NEL             ....  134
 Basis Dimension        Dim             ....  322

ORBITAL ENERGIES
----------------

  NO   OCC          E(Eh)            E(eV)
   0   2.0000     -88.964849     -2420.8566
   1   2.0000     -88.964114     -2420.8366
   2   2.0000     -10.328378      -281.0494
   3   2.0000     -10.320568      -280.8369
   4   2.0000     -10.316620      -280.7295
   5   2.0000     -10.311126      -280.5800
   6   2.0000     -10.307098      -280.4704
   7   2.0000     -10.301725      -280.3242
   8   2.0000     -10.297465      -280.2083
   9   2.0000     -10.291707      -280.0516
  10   2.0000     -10.289273      -279.9853
  11   2.0000     -10.288853      -279.9739
  12   2.0000     -10.288548      -279.9656
  13   2.0000     -10.286959      -279.9224
  14   2.0000     -10.283954      -279.8406
  15   2.0000     -10.279255      -279.7127
  16   2.0000      -8.079765      -219.8616
  17   2.0000      -8.079463      -219.8534
  18   2.0000      -6.038211      -164.3081
  19   2.0000      -6.037912      -164.3000
  20   2.0000      -6.034135      -164.1972
  21   2.0000      -6.033905      -164.1909
  22   2.0000      -6.030518      -164.0987
  23   2.0000      -6.030373      -164.0948
  24   2.0000      -1.014363       -27.6022
  25   2.0000      -0.984567       -26.7914
  26   2.0000      -0.919555       -25.0224
  27   2.0000      -0.906926       -24.6787
  28   2.0000      -0.869297       -23.6548
  29   2.0000      -0.853844       -23.2343
  30   2.0000      -0.846255       -23.0278
  31   2.0000      -0.820020       -22.3139
  32   2.0000      -0.783336       -21.3157
  33   2.0000      -0.772434       -21.0190
  34   2.0000      -0.709715       -19.3123
  35   2.0000      -0.699005       -19.0209
  36   2.0000      -0.692480       -18.8433
  37   2.0000      -0.656882       -17.8747
  38   2.0000      -0.641163       -17.4469
  39   2.0000      -0.624431       -16.9916
  40   2.0000      -0.598649       -16.2901
  41   2.0000      -0.570658       -15.5284
  42   2.0000      -0.561001       -15.2656
  43   2.0000      -0.551476       -15.0064
  44   2.0000      -0.538803       -14.6616
  45   2.0000      -0.527694       -14.3593
  46   2.0000      -0.524035       -14.2597
  47   2.0000      -0.517377       -14.0786
  48   2.0000      -0.503842       -13.7102
  49   2.0000      -0.500978       -13.6323
  50   2.0000      -0.487040       -13.2530
  51   2.0000      -0.483202       -13.1486
  52   2.0000      -0.466218       -12.6864
  53   2.0000      -0.464259       -12.6331
  54   2.0000      -0.459669       -12.5082
  55   2.0000      -0.448505       -12.2045
  56   2.0000      -0.444488       -12.0951
  57   2.0000      -0.439901       -11.9703
  58   2.0000      -0.429019       -11.6742
  59   2.0000      -0.425818       -11.5871
  60   2.0000      -0.421479       -11.4690
  61   2.0000      -0.409421       -11.1409
  62   2.0000      -0.406690       -11.0666
  63   2.0000      -0.345933        -9.4133
  64   2.0000      -0.331069        -9.0088
  65   2.0000      -0.326144        -8.8748
  66   2.0000      -0.297410        -8.0929
  67   0.0000       0.037365         1.0167
  68   0.0000       0.070771         1.9258
  69   0.0000       0.116644         3.1740
  70   0.0000       0.121850         3.3157
  71   0.0000       0.129808         3.5323

MULLIKEN ATOMIC CHARGES
-----------------------
   0 S :    0.116288
   1 C :   -0.123348
   2 C :   -0.098975
   3 C :    0.025320
   4 C :   -0.141313
   5 H :    0.023927
   6 C :    0.061117
   7 H :    0.046755
   8 H :    0.023985
   9 C :   -0.084877
  10 H :    0.022278
  11 H :    0.023668
  12 C :   -0.040329
  13 H :    0.043337
  14 H :    0.040372
  15 H :    0.010641
  16 S :    0.106360
  17 C :   -0.113388
  18 C :   -0.036056
  19 C :    0.017378
  20 C :   -0.178441
  21 H :    0.004230
  22 C :    0.054546
  23 H :    0.025974
  24 H :    0.019872
  25 C :   -0.054539
  26 H :    0.026514
  27 H :    0.037715
  28 C :   -0.062134
  29 H :    0.042795
  30 H :    0.026195
  31 H :    0.030279
  32 H :    0.041013
  33 H :    0.062839
Sum of atomic charges:    0.0000000

LOEWDIN ATOMIC CHARGES
----------------------
   0 S :    0.423013
   1 C :   -0.204531
   2 C :   -0.060270
   3 C :   -0.072798
   4 C :   -0.211662
   5 H :    0.039148
   6 C :   -0.028241
   7 H :    0.042451
   8 H :    0.028383
   9 C :   -0.049946
  10 H :    0.027032
  11 H :    0.021327
  12 C :   -0.071644
  13 H :    0.030576
  14 H :    0.034170
  15 H :    0.017338
  16 S :    0.405045
  17 C :   -0.190900
  18 C :   -0.065653
  19 C :   -0.055858
  20 C :   -0.188579
  21 H :    0.024145
  22 C :   -0.042679
  23 H :    0.037766
  24 H :    0.030509
  25 C :   -0.046767
  26 H :    0.022841
  27 H :    0.034832
  28 C :   -0.075567
  29 H :    0.032791
  30 H :    0.024676
  31 H :    0.031650
  32 H :    0.025926
  33 H :    0.031476

  Mayer bond orders larger than 0.100000
B(  0-S ,  1-C ) :   1.1290 B(  0-S ,  4-C ) :   1.1640 B(  1-C ,  2-C ) :   1.6022
B(  1-C , 32-H ) :   0.9769 B(  2-C ,  3-C ) :   1.2383 B(  2-C ,  6-C ) :   1.0165
B(  3-C ,  4-C ) :   1.5877 B(  3-C ,  5-H ) :   0.9947 B(  4-C , 20-C ) :   0.9950
B(  6-C ,  7-H ) :   0.9320 B(  6-C ,  8-H ) :   0.9464 B(  6-C ,  9-C ) :   1.0840
B(  9-C , 10-H ) :   0.9525 B(  9-C , 11-H ) :   0.9508 B(  9-C , 12-C ) :   1.0731
B( 12-C , 13-H ) :   0.9752 B( 12-C , 14-H ) :   0.9728 B( 12-C , 15-H ) :   0.9723
B( 16-S , 17-C ) :   1.1391 B( 16-S , 20-C ) :   1.1688 B( 17-C , 18-C ) :   1.6282
B( 17-C , 20-C ) :   0.1023 B( 17-C , 33-H ) :   0.9674 B( 18-C , 19-C ) :   1.2045
B( 18-C , 21-H ) :   0.9954 B( 19-C , 20-C ) :   1.5880 B( 19-C , 22-C ) :   1.0484
B( 22-C , 23-H ) :   0.9222 B( 22-C , 24-H ) :   0.9298 B( 22-C , 25-C ) :   1.0628
B( 25-C , 26-H ) :   0.9541 B( 25-C , 27-H ) :   0.9475 B( 25-C , 28-C ) :   1.0843
B( 28-C , 29-H ) :   0.9743 B( 28-C , 30-H ) :   0.9689 B( 28-C , 31-H ) :   0.9715

Dispersion correction           -0.013866893
FINAL SINGLE POINT ENERGY     -1339.874234361140

DIPOLE MOMENT
-------------
                                X             Y             Z
Electronic contribution:     25.87258      -7.57523      14.83269
Nuclear contribution   :    -26.33118       7.62943     -15.08942
                        -----------------------------------------
Total Dipole Moment    :     -0.45860       0.05420      -0.25673
                        -----------------------------------------
Magnitude (a.u.)       :      0.52836
Magnitude (Debye)      :      1.34298

Rotational constants in cm-1:     0.016024     0.009824     0.006681
Rotational constants in MHz :   480.381764   294.510970   200.283021

                             ****ORCA TERMINATED NORMALLY****
TOTAL RUN TIME: 0 days 0 hours 0 minutes 20 seconds 317 msec
