                         Program Version 4.2.1 -  RELEASE  -
|  1> ! wB97X-D3 SP def2-SVP
|  2> %pal
|  3> nprocs 24
|  4> end
|  5>
|  6> * xyz 0 1
|  7> S 	 -49.879 	 -43.7188 	 -77.2534
|  8> C 	 -50.262 	 -42.1547 	 -77.8889
|  9> C 	 -49.1454 	 -41.3453 	 -77.7404
| 10> C 	 -47.9909 	 -42.0678 	 -77.2397
| 11> C 	 -48.1771 	 -43.3824 	 -77.0975
| 12> H 	 -47.0509 	 -41.592 	 -76.9465
| 13> C 	 -49.0715 	 -39.8949 	 -78.0229
| 14> H 	 -49.0531 	 -39.3064 	 -77.0883
| 15> H 	 -49.9778 	 -39.6083 	 -78.5053
| 16> C 	 -47.9307 	 -39.5492 	 -78.9394
| 17> H 	 -46.9399 	 -40.0205 	 -78.6956
| 18> H 	 -48.1336 	 -39.8923 	 -79.9714
| 19> C 	 -47.8532 	 -38.0022 	 -78.8666
| 20> H 	 -47.4607 	 -37.6681 	 -77.8722
| 21> H 	 -47.193 	 -37.5378 	 -79.6074
| 22> H 	 -48.8422 	 -37.5554 	 -79.0979
| 23> S 	 -47.6738 	 -44.9523 	 -74.8907
| 24> C 	 -46.5929 	 -46.3237 	 -75.0691
| 25> C 	 -45.9712 	 -46.2409 	 -76.2882
| 26> C 	 -46.3023 	 -45.1325 	 -77.0741
| 27> C 	 -47.2942 	 -44.4166 	 -76.5497
| 28> H 	 -45.2129 	 -46.9391 	 -76.5689
| 29> C 	 -45.7584 	 -44.9154 	 -78.4257
| 30> H 	 -46.2125 	 -44.0193 	 -78.8914
| 31> H 	 -46.1287 	 -45.7227 	 -79.0337
| 32> C 	 -44.2358 	 -44.9946 	 -78.5053
| 33> H 	 -43.8684 	 -45.9575 	 -78.1383
| 34> H 	 -43.6965 	 -44.2539 	 -77.9461
| 35> C 	 -43.8174 	 -44.9762 	 -80.006
| 36> H 	 -44.2153 	 -43.9693 	 -80.3081
| 37> H 	 -44.413 	 -45.6252 	 -80.554
| 38> H 	 -42.7344 	 -44.9397 	 -80.0883
| 39> H 	 -51.3311 	 -42.0152 	 -77.9983
| 40> H 	 -46.3627 	 -47.2131 	 -74.425
| 41> *
| 42>
| 43>                          ****END OF INPUT****

CARTESIAN COORDINATES (ANGSTROEM)
---------------------------------
  S    -49.879000  -43.718800  -77.253400
  C    -50.262000  -42.154700  -77.888900
  C    -49.145400  -41.345300  -77.740400
  C    -47.990900  -42.067800  -77.239700
  C    -48.177100  -43.382400  -77.097500
  H    -47.050900  -41.592000  -76.946500
  C    -49.071500  -39.894900  -78.022900
  H    -49.053100  -39.306400  -77.088300
  H    -49.977800  -39.608300  -78.505300
  C    -47.930700  -39.549200  -78.939400
  H    -46.939900  -40.020500  -78.695600
  H    -48.133600  -39.892300  -79.971400
  C    -47.853200  -38.002200  -78.866600
  H    -47.460700  -37.668100  -77.872200
  H    -47.193000  -37.537800  -79.607400
  H    -48.842200  -37.555400  -79.097900
  S    -47.673800  -44.952300  -74.890700
  C    -46.592900  -46.323700  -75.069100
  C    -45.971200  -46.240900  -76.288200
  C    -46.302300  -45.132500  -77.074100
  C    -47.294200  -44.416600  -76.549700
  H    -45.212900  -46.939100  -76.568900
  C    -45.758400  -44.915400  -78.425700
  H    -46.212500  -44.019300  -78.891400
  H    -46.128700  -45.722700  -79.033700
  C    -44.235800  -44.994600  -78.505300
  H    -43.868400  -45.957500  -78.138300
  H    -43.696500  -44.253900  -77.946100
  C    -43.817400  -44.976200  -80.006000
  H    -44.215300  -43.969300  -80.308100
  H    -44.413000  -45.625200  -80.554000
  H    -42.734400  -44.939700  -80.088300
  H    -51.331100  -42.015200  -77.998300
  H    -46.362700  -47.213100  -74.425000

 Total Charge           Charge          ....    0
 Multiplicity           Mult            ....    1
 Number of Electrons    NEL             ....  134
 Basis Dimension        Dim             ....  322

ORBITAL ENERGIES
----------------

  NO   OCC          E(Eh)            E(eV)
   0   2.0000     -88.962008     -2420.7793
   1   2.0000     -88.954776     -2420.5825
   2   2.0000     -10.323283      -280.9108
   3   2.0000     -10.319485      -280.8075
   4   2.0000     -10.318729      -280.7869
   5   2.0000     -10.314650      -280.6759
   6   2.0000     -10.301432      -280.3162
   7   2.0000     -10.291854      -280.0556
   8   2.0000     -10.290899      -280.0296
   9   2.0000     -10.289842      -280.0008
  10   2.0000     -10.287100      -279.9262
  11   2.0000     -10.285364      -279.8790
  12   2.0000     -10.285350      -279.8786
  13   2.0000     -10.283868      -279.8383
  14   2.0000     -10.283818      -279.8369
  15   2.0000     -10.276257      -279.6312
  16   2.0000      -8.076237      -219.7656
  17   2.0000      -8.070885      -219.6199
  18   2.0000      -6.034939      -164.2190
  19   2.0000      -6.030816      -164.1069
  20   2.0000      -6.029318      -164.0661
  21   2.0000      -6.026799      -163.9975
  22   2.0000      -6.025221      -163.9546
  23   2.0000      -6.021590      -163.8558
  24   2.0000      -1.012281       -27.5456
  25   2.0000      -0.990212       -26.9450
  26   2.0000      -0.919644       -25.0248
  27   2.0000      -0.914659       -24.8891
  28   2.0000      -0.871772       -23.7221
  29   2.0000      -0.853240       -23.2179
  30   2.0000      -0.843135       -22.9429
  31   2.0000      -0.818464       -22.2715
  32   2.0000      -0.778179       -21.1753
  33   2.0000      -0.766390       -20.8545
  34   2.0000      -0.707735       -19.2585
  35   2.0000      -0.704413       -19.1680
  36   2.0000      -0.691772       -18.8241
  37   2.0000      -0.659006       -17.9325
  38   2.0000      -0.653812       -17.7911
  39   2.0000      -0.625683       -17.0257
  40   2.0000      -0.598433       -16.2842
  41   2.0000      -0.570299       -15.5186
  42   2.0000      -0.567338       -15.4380
  43   2.0000      -0.559380       -15.2215
  44   2.0000      -0.536997       -14.6124
  45   2.0000      -0.523662       -14.2496
  46   2.0000      -0.522836       -14.2271
  47   2.0000      -0.514640       -14.0041
  48   2.0000      -0.507173       -13.8009
  49   2.0000      -0.501441       -13.6449
  50   2.0000      -0.488691       -13.2980
  51   2.0000      -0.476867       -12.9762
  52   2.0000      -0.467261       -12.7148
  53   2.0000      -0.460482       -12.5304
  54   2.0000      -0.455407       -12.3923
  55   2.0000      -0.450326       -12.2540
  56   2.0000      -0.445856       -12.1324
  57   2.0000      -0.442704       -12.0466
  58   2.0000      -0.439303       -11.9540
  59   2.0000      -0.422612       -11.4998
  60   2.0000      -0.418846       -11.3974
  61   2.0000      -0.411409       -11.1950
  62   2.0000      -0.408881       -11.1262
  63   2.0000      -0.339142        -9.2285
  64   2.0000      -0.331290        -9.0148
  65   2.0000      -0.318392        -8.6639
  66   2.0000      -0.306838        -8.3495
  67   0.0000       0.042222         1.1489
  68   0.0000       0.061877         1.6838
  69   0.0000       0.118492         3.2243
  70   0.0000       0.122178         3.3246
  71   0.0000       0.132490         3.6052

MULLIKEN ATOMIC CHARGES
-----------------------
   0 S :    0.085449
   1 C :   -0.127303
   2 C :   -0.092885
   3 C :    0.038920
   4 C :   -0.160605
   5 H :    0.021454
   6 C :    0.094980
   7 H :    0.041388
   8 H :    0.006045
   9 C :   -0.106600
  10 H :    0.042057
  11 H :    0.036170
  12 C :   -0.064120
  13 H :    0.041775
  14 H :    0.027153
  15 H :    0.032189
  16 S :    0.104771
  17 C :   -0.090242
  18 C :   -0.051180
  19 C :    0.035460
  20 C :   -0.196383
  21 H :    0.004467
  22 C :    0.069285
  23 H :    0.029677
  24 H :    0.024709
  25 C :   -0.104946
  26 H :    0.023805
  27 H :    0.029709
  28 C :   -0.000550
  29 H :    0.013129
  30 H :    0.014917
  31 H :    0.043650
  32 H :    0.062253
  33 H :    0.071402
Sum of atomic charges:    0.0000000

LOEWDIN ATOMIC CHARGES
----------------------
   0 S :    0.407006
   1 C :   -0.198571
   2 C :   -0.064206
   3 C :   -0.062095
   4 C :   -0.197866
   5 H :    0.035265
   6 C :   -0.036093
   7 H :    0.037112
   8 H :    0.028121
   9 C :   -0.042539
  10 H :    0.025944
  11 H :    0.028623
  12 C :   -0.070438
  13 H :    0.029149
  14 H :    0.021013
  15 H :    0.026889
  16 S :    0.384259
  17 C :   -0.189243
  18 C :   -0.073193
  19 C :   -0.061836
  20 C :   -0.186490
  21 H :    0.024311
  22 C :   -0.029869
  23 H :    0.033680
  24 H :    0.035111
  25 C :   -0.033851
  26 H :    0.019102
  27 H :    0.020539
  28 C :   -0.056731
  29 H :    0.028452
  30 H :    0.014075
  31 H :    0.027757
  32 H :    0.029425
  33 H :    0.047187

  Mayer bond orders larger than 0.100000
B(  0-S ,  1-C ) :   1.1461 B(  0-S ,  4-C ) :   1.1540 B(  1-C ,  2-C ) :   1.5894
B(  1-C , 32-H ) :   0.9775 B(  2-C ,  3-C ) :   1.2221 B(  2-C ,  6-C ) :   1.0338
B(  3-C ,  4-C ) :   1.6074 B(  3-C ,  5-H ) :   0.9931 B(  4-C , 20-C ) :   0.9935
B(  6-C ,  7-H ) :   0.9381 B(  6-C ,  8-H ) :   0.9318 B(  6-C ,  9-C ) :   1.0505
B(  9-C , 10-H ) :   0.9611 B(  9-C , 11-H ) :   0.9534 B(  9-C , 12-C ) :   1.0735
B( 12-C , 13-H ) :   0.9770 B( 12-C , 14-H ) :   0.9742 B( 12-C , 15-H ) :   0.9708
B( 16-S , 17-C ) :   1.1333 B( 16-S , 20-C ) :   1.1273 B( 17-C , 18-C ) :   1.6429
B( 17-C , 33-H ) :   0.9575 B( 18-C , 19-C ) :   1.2184 B( 18-C , 21-H ) :   0.9869
B( 19-C , 20-C ) :   1.6455 B( 19-C , 22-C ) :   1.0538 B( 22-C , 23-H ) :   0.9312
B( 22-C , 24-H ) :   0.9248 B( 22-C , 25-C ) :   1.0524 B( 25-C , 26-H ) :   0.9527
B( 25-C , 27-H ) :   0.9606 B( 25-C , 28-C ) :   1.0789 B( 28-C , 29-H ) :   0.9726
B( 28-C , 30-H ) :   0.9733 B( 28-C , 31-H ) :   0.9734

Dispersion correction           -0.013409092
FINAL SINGLE POINT ENERGY     -1339.868564440859

DIPOLE MOMENT
-------------
                                X             Y             Z
Electronic contribution:    -15.59901     -15.53158      18.29564
Nuclear contribution   :     15.94123      15.80687     -18.61382
                        -----------------------------------------
Total Dipole Moment    :      0.34222       0.27529      -0.31818
                        -----------------------------------------
Magnitude (a.u.)       :      0.54234
Magnitude (Debye)      :      1.37853

Rotational constants in cm-1:     0.017109     0.008683     0.006518
Rotational constants in MHz :   512.925855   260.300764   195.415625

                             ****ORCA TERMINATED NORMALLY****
TOTAL RUN TIME: 0 days 0 hours 0 minutes 20 seconds 180 msec
