                         Program Version 4.2.1 -  RELEASE  -
|  1> ! wB97X-D3 SP def2-SVP
|  2> %pal
|  3> nprocs 24
|  4> end
|  5>
|  6> * xyz 0 1
|  7> S 	 -67.1464 	 15.8342 	 -71.3859
|  8> C 	 -66.5445 	 14.2835 	 -70.791
|  9> C 	 -66.2057 	 14.3778 	 -69.4647
| 10> C 	 -66.3069 	 15.6872 	 -68.9499
| 11> C 	 -66.7968 	 16.627 	 -69.8813
| 12> H 	 -66.0485 	 15.9626 	 -67.9869
| 13> C 	 -65.7719 	 13.1827 	 -68.6955
| 14> H 	 -66.6297 	 12.5239 	 -68.7457
| 15> H 	 -65.6515 	 13.4821 	 -67.6473
| 16> C 	 -64.3621 	 12.5996 	 -69.1637
| 17> H 	 -64.2241 	 11.7421 	 -68.573
| 18> H 	 -64.49 	 12.2329 	 -70.1932
| 19> C 	 -63.1584 	 13.4879 	 -69.3322
| 20> H 	 -62.9016 	 14.1185 	 -68.5128
| 21> H 	 -62.2064 	 12.9243 	 -69.5586
| 22> H 	 -63.369 	 14.1341 	 -70.179
| 23> S 	 -66.4139 	 19.095 	 -71.0131
| 24> C 	 -67.0117 	 20.5067 	 -70.2128
| 25> C 	 -67.6066 	 20.1831 	 -69.0268
| 26> C 	 -67.5056 	 18.8162 	 -68.6952
| 27> C 	 -66.9136 	 18.0756 	 -69.7019
| 28> H 	 -68.0799 	 21.0058 	 -68.4176
| 29> C 	 -68.146 	 18.2463 	 -67.4854
| 30> H 	 -68.3794 	 19.0302 	 -66.8162
| 31> H 	 -67.3286 	 17.6563 	 -66.9185
| 32> C 	 -69.2481 	 17.2099 	 -67.7161
| 33> H 	 -69.5328 	 16.752 	 -66.717
| 34> H 	 -68.7369 	 16.3178 	 -68.222
| 35> C 	 -70.4833 	 17.7711 	 -68.5007
| 36> H 	 -70.8383 	 18.6913 	 -68.0084
| 37> H 	 -71.3069 	 17.0314 	 -68.3876
| 38> H 	 -70.3629 	 18.061 	 -69.5278
| 39> H 	 -66.2668 	 13.3912 	 -71.44
| 40> H 	 -67.1 	 21.4881 	 -70.602
| 41> *
| 42>
| 43>                          ****END OF INPUT****

CARTESIAN COORDINATES (ANGSTROEM)
---------------------------------
  S    -67.146400   15.834200  -71.385900
  C    -66.544500   14.283500  -70.791000
  C    -66.205700   14.377800  -69.464700
  C    -66.306900   15.687200  -68.949900
  C    -66.796800   16.627000  -69.881300
  H    -66.048500   15.962600  -67.986900
  C    -65.771900   13.182700  -68.695500
  H    -66.629700   12.523900  -68.745700
  H    -65.651500   13.482100  -67.647300
  C    -64.362100   12.599600  -69.163700
  H    -64.224100   11.742100  -68.573000
  H    -64.490000   12.232900  -70.193200
  C    -63.158400   13.487900  -69.332200
  H    -62.901600   14.118500  -68.512800
  H    -62.206400   12.924300  -69.558600
  H    -63.369000   14.134100  -70.179000
  S    -66.413900   19.095000  -71.013100
  C    -67.011700   20.506700  -70.212800
  C    -67.606600   20.183100  -69.026800
  C    -67.505600   18.816200  -68.695200
  C    -66.913600   18.075600  -69.701900
  H    -68.079900   21.005800  -68.417600
  C    -68.146000   18.246300  -67.485400
  H    -68.379400   19.030200  -66.816200
  H    -67.328600   17.656300  -66.918500
  C    -69.248100   17.209900  -67.716100
  H    -69.532800   16.752000  -66.717000
  H    -68.736900   16.317800  -68.222000
  C    -70.483300   17.771100  -68.500700
  H    -70.838300   18.691300  -68.008400
  H    -71.306900   17.031400  -68.387600
  H    -70.362900   18.061000  -69.527800
  H    -66.266800   13.391200  -71.440000
  H    -67.100000   21.488100  -70.602000

 Total Charge           Charge          ....    0
 Multiplicity           Mult            ....    1
 Number of Electrons    NEL             ....  134
 Basis Dimension        Dim             ....  322

ORBITAL ENERGIES
----------------

  NO   OCC          E(Eh)            E(eV)
   0   2.0000     -88.968545     -2420.9572
   1   2.0000     -88.967048     -2420.9165
   2   2.0000     -10.332448      -281.1602
   3   2.0000     -10.324054      -280.9318
   4   2.0000     -10.314532      -280.6727
   5   2.0000     -10.311326      -280.5854
   6   2.0000     -10.298231      -280.2291
   7   2.0000     -10.295117      -280.1444
   8   2.0000     -10.293911      -280.1116
   9   2.0000     -10.293740      -280.1069
  10   2.0000     -10.292860      -280.0830
  11   2.0000     -10.289169      -279.9825
  12   2.0000     -10.289015      -279.9783
  13   2.0000     -10.287827      -279.9460
  14   2.0000     -10.277320      -279.6601
  15   2.0000     -10.276446      -279.6363
  16   2.0000      -8.082860      -219.9458
  17   2.0000      -8.082300      -219.9306
  18   2.0000      -6.041387      -164.3945
  19   2.0000      -6.040721      -164.3764
  20   2.0000      -6.037247      -164.2819
  21   2.0000      -6.036691      -164.2667
  22   2.0000      -6.033809      -164.1883
  23   2.0000      -6.033159      -164.1706
  24   2.0000      -1.011741       -27.5309
  25   2.0000      -0.988432       -26.8966
  26   2.0000      -0.911759       -24.8102
  27   2.0000      -0.906982       -24.6802
  28   2.0000      -0.868846       -23.6425
  29   2.0000      -0.849721       -23.1221
  30   2.0000      -0.843084       -22.9415
  31   2.0000      -0.815715       -22.1967
  32   2.0000      -0.784407       -21.3448
  33   2.0000      -0.773347       -21.0438
  34   2.0000      -0.710202       -19.3256
  35   2.0000      -0.705413       -19.1953
  36   2.0000      -0.687121       -18.6975
  37   2.0000      -0.663344       -18.0505
  38   2.0000      -0.635289       -17.2871
  39   2.0000      -0.615035       -16.7359
  40   2.0000      -0.588556       -16.0154
  41   2.0000      -0.577106       -15.7039
  42   2.0000      -0.552272       -15.0281
  43   2.0000      -0.544236       -14.8094
  44   2.0000      -0.544020       -14.8035
  45   2.0000      -0.536550       -14.6003
  46   2.0000      -0.513357       -13.9692
  47   2.0000      -0.506147       -13.7730
  48   2.0000      -0.499261       -13.5856
  49   2.0000      -0.496019       -13.4974
  50   2.0000      -0.489308       -13.3147
  51   2.0000      -0.483123       -13.1465
  52   2.0000      -0.477381       -12.9902
  53   2.0000      -0.468502       -12.7486
  54   2.0000      -0.464410       -12.6372
  55   2.0000      -0.450368       -12.2551
  56   2.0000      -0.442922       -12.0525
  57   2.0000      -0.434035       -11.8107
  58   2.0000      -0.429679       -11.6921
  59   2.0000      -0.421062       -11.4577
  60   2.0000      -0.420216       -11.4347
  61   2.0000      -0.410171       -11.1613
  62   2.0000      -0.409430       -11.1411
  63   2.0000      -0.345404        -9.3989
  64   2.0000      -0.332964        -9.0604
  65   2.0000      -0.331492        -9.0203
  66   2.0000      -0.287548        -7.8246
  67   0.0000       0.021513         0.5854
  68   0.0000       0.075143         2.0447
  69   0.0000       0.111675         3.0388
  70   0.0000       0.125002         3.4015
  71   0.0000       0.133516         3.6332

MULLIKEN ATOMIC CHARGES
-----------------------
   0 S :    0.119181
   1 C :   -0.170894
   2 C :   -0.092912
   3 C :    0.049820
   4 C :   -0.154535
   5 H :   -0.026638
   6 C :    0.073725
   7 H :    0.046765
   8 H :    0.016710
   9 C :   -0.068319
  10 H :    0.022319
  11 H :    0.018574
  12 C :   -0.042572
  13 H :    0.022767
  14 H :    0.043868
  15 H :    0.039859
  16 S :    0.117336
  17 C :   -0.072328
  18 C :   -0.073606
  19 C :   -0.018177
  20 C :   -0.157041
  21 H :    0.037425
  22 C :    0.056141
  23 H :    0.005009
  24 H :    0.031856
  25 C :   -0.094016
  26 H :    0.031688
  27 H :    0.057743
  28 C :   -0.043607
  29 H :    0.019669
  30 H :    0.038579
  31 H :    0.045430
  32 H :    0.077977
  33 H :    0.042204
Sum of atomic charges:    0.0000000

LOEWDIN ATOMIC CHARGES
----------------------
   0 S :    0.412332
   1 C :   -0.215398
   2 C :   -0.069032
   3 C :   -0.060914
   4 C :   -0.192043
   5 H :    0.015387
   6 C :   -0.028685
   7 H :    0.038094
   8 H :    0.027993
   9 C :   -0.035943
  10 H :    0.015142
  11 H :    0.024242
  12 C :   -0.066617
  13 H :    0.016733
  14 H :    0.038464
  15 H :    0.029819
  16 S :    0.426265
  17 C :   -0.189827
  18 C :   -0.077936
  19 C :   -0.060949
  20 C :   -0.205374
  21 H :    0.042132
  22 C :   -0.039589
  23 H :    0.020149
  24 H :    0.040684
  25 C :   -0.049376
  26 H :    0.029245
  27 H :    0.034913
  28 C :   -0.070350
  29 H :    0.024011
  30 H :    0.031061
  31 H :    0.025352
  32 H :    0.044440
  33 H :    0.025577

  Mayer bond orders larger than 0.100000
B(  0-S ,  1-C ) :   1.1333 B(  0-S ,  4-C ) :   1.1772 B(  1-C ,  2-C ) :   1.5806
B(  1-C ,  4-C ) :   0.1012 B(  1-C , 32-H ) :   0.9594 B(  2-C ,  3-C ) :   1.2788
B(  2-C ,  6-C ) :   1.0102 B(  3-C ,  4-C ) :   1.5075 B(  3-C ,  5-H ) :   1.0079
B(  4-C , 20-C ) :   1.0561 B(  6-C ,  7-H ) :   0.9439 B(  6-C ,  8-H ) :   0.9401
B(  6-C ,  9-C ) :   1.0594 B(  9-C , 10-H ) :   0.9618 B(  9-C , 11-H ) :   0.9581
B(  9-C , 12-C ) :   1.0712 B( 12-C , 13-H ) :   0.9776 B( 12-C , 14-H ) :   0.9709
B( 12-C , 15-H ) :   0.9707 B( 16-S , 17-C ) :   1.1609 B( 16-S , 20-C ) :   1.1504
B( 17-C , 18-C ) :   1.6052 B( 17-C , 33-H ) :   0.9681 B( 18-C , 19-C ) :   1.2661
B( 18-C , 21-H ) :   0.9800 B( 19-C , 20-C ) :   1.5547 B( 19-C , 22-C ) :   1.0518
B( 22-C , 23-H ) :   0.9328 B( 22-C , 24-H ) :   0.9247 B( 22-C , 25-C ) :   1.0754
B( 25-C , 26-H ) :   0.9526 B( 25-C , 27-H ) :   0.9452 B( 25-C , 28-C ) :   1.0583
B( 28-C , 29-H ) :   0.9755 B( 28-C , 30-H ) :   0.9764 B( 28-C , 31-H ) :   0.9766

Dispersion correction           -0.015700773
FINAL SINGLE POINT ENERGY     -1339.878206572691

DIPOLE MOMENT
-------------
                                X             Y             Z
Electronic contribution:      0.31119      13.19718     -15.27723
Nuclear contribution   :     -0.30836     -13.35641      15.73854
                        -----------------------------------------
Total Dipole Moment    :      0.00284      -0.15923       0.46131
                        -----------------------------------------
Magnitude (a.u.)       :      0.48802
Magnitude (Debye)      :      1.24046

Rotational constants in cm-1:     0.022156     0.008579     0.007585
Rotational constants in MHz :   664.227559   257.179161   227.396675

                             ****ORCA TERMINATED NORMALLY****
TOTAL RUN TIME: 0 days 0 hours 0 minutes 22 seconds 576 msec
