                         Program Version 4.2.1 -  RELEASE  -
|  1> ! wB97X-D3 SP def2-SVP
|  2> %pal
|  3> nprocs 24
|  4> end
|  5>
|  6> * xyz 0 1
|  7> S 	 -110.212 	 41.061 	 -12.2336
|  8> C 	 -109.878 	 42.4543 	 -13.3569
|  9> C 	 -108.542 	 42.7441 	 -13.3401
| 10> C 	 -107.811 	 41.7984 	 -12.6063
| 11> C 	 -108.583 	 40.9331 	 -11.8175
| 12> H 	 -106.764 	 41.7225 	 -12.4123
| 13> C 	 -107.966 	 43.9544 	 -14.0493
| 14> H 	 -108.477 	 44.8242 	 -13.6212
| 15> H 	 -108.284 	 43.9292 	 -15.1252
| 16> C 	 -106.418 	 44.2718 	 -13.8625
| 17> H 	 -106.333 	 44.1522 	 -12.7983
| 18> H 	 -105.783 	 43.5587 	 -14.2653
| 19> C 	 -106.136 	 45.6739 	 -14.2519
| 20> H 	 -105.195 	 45.9862 	 -14.0336
| 21> H 	 -106.251 	 45.7812 	 -15.3491
| 22> H 	 -106.859 	 46.3007 	 -13.8576
| 23> S 	 -106.283 	 40.1366 	 -10.4153
| 24> C 	 -106.113 	 38.5767 	 -9.63604
| 25> C 	 -107.27 	 37.8203 	 -9.95845
| 26> C 	 -108.28 	 38.5024 	 -10.7091
| 27> C 	 -107.983 	 39.8883 	 -10.9406
| 28> H 	 -107.165 	 36.7699 	 -9.6846
| 29> C 	 -109.505 	 37.7204 	 -11.1917
| 30> H 	 -109.563 	 37.6977 	 -12.2659
| 31> H 	 -110.377 	 38.3581 	 -10.8104
| 32> C 	 -109.689 	 36.2297 	 -10.8338
| 33> H 	 -109.877 	 36.25 	 -9.73749
| 34> H 	 -108.815 	 35.5856 	 -10.8944
| 35> C 	 -110.841 	 35.6519 	 -11.6217
| 36> H 	 -110.954 	 35.846 	 -12.7078
| 37> H 	 -111.735 	 36.1155 	 -11.2712
| 38> H 	 -111.043 	 34.5985 	 -11.3771
| 39> H 	 -110.624 	 43.108 	 -13.7826
| 40> H 	 -105.306 	 38.1126 	 -9.05473
| 41> *
| 42>
| 43>                          ****END OF INPUT****

CARTESIAN COORDINATES (ANGSTROEM)
---------------------------------
  S    -110.212000   41.061000  -12.233600
  C    -109.878000   42.454300  -13.356900
  C    -108.542000   42.744100  -13.340100
  C    -107.811000   41.798400  -12.606300
  C    -108.583000   40.933100  -11.817500
  H    -106.764000   41.722500  -12.412300
  C    -107.966000   43.954400  -14.049300
  H    -108.477000   44.824200  -13.621200
  H    -108.284000   43.929200  -15.125200
  C    -106.418000   44.271800  -13.862500
  H    -106.333000   44.152200  -12.798300
  H    -105.783000   43.558700  -14.265300
  C    -106.136000   45.673900  -14.251900
  H    -105.195000   45.986200  -14.033600
  H    -106.251000   45.781200  -15.349100
  H    -106.859000   46.300700  -13.857600
  S    -106.283000   40.136600  -10.415300
  C    -106.113000   38.576700   -9.636040
  C    -107.270000   37.820300   -9.958450
  C    -108.280000   38.502400  -10.709100
  C    -107.983000   39.888300  -10.940600
  H    -107.165000   36.769900   -9.684600
  C    -109.505000   37.720400  -11.191700
  H    -109.563000   37.697700  -12.265900
  H    -110.377000   38.358100  -10.810400
  C    -109.689000   36.229700  -10.833800
  H    -109.877000   36.250000   -9.737490
  H    -108.815000   35.585600  -10.894400
  C    -110.841000   35.651900  -11.621700
  H    -110.954000   35.846000  -12.707800
  H    -111.735000   36.115500  -11.271200
  H    -111.043000   34.598500  -11.377100
  H    -110.624000   43.108000  -13.782600
  H    -105.306000   38.112600   -9.054730

 Total Charge           Charge          ....    0
 Multiplicity           Mult            ....    1
 Number of Electrons    NEL             ....  134
 Basis Dimension        Dim             ....  322

ORBITAL ENERGIES
----------------

  NO   OCC          E(Eh)            E(eV)
   0   2.0000     -88.970021     -2420.9974
   1   2.0000     -88.969650     -2420.9872
   2   2.0000     -10.341031      -281.3938
   3   2.0000     -10.332916      -281.1729
   4   2.0000     -10.325284      -280.9653
   5   2.0000     -10.315676      -280.7038
   6   2.0000     -10.312555      -280.6189
   7   2.0000     -10.301081      -280.3067
   8   2.0000     -10.298131      -280.2264
   9   2.0000     -10.297742      -280.2158
  10   2.0000     -10.297697      -280.2146
  11   2.0000     -10.291373      -280.0425
  12   2.0000     -10.287419      -279.9349
  13   2.0000     -10.279806      -279.7277
  14   2.0000     -10.277983      -279.6781
  15   2.0000     -10.264839      -279.3205
  16   2.0000      -8.083847      -219.9727
  17   2.0000      -8.083177      -219.9544
  18   2.0000      -6.042330      -164.4202
  19   2.0000      -6.041888      -164.4081
  20   2.0000      -6.038407      -164.3134
  21   2.0000      -6.037760      -164.2958
  22   2.0000      -6.034687      -164.2122
  23   2.0000      -6.033957      -164.1923
  24   2.0000      -1.004836       -27.3430
  25   2.0000      -0.979295       -26.6480
  26   2.0000      -0.914934       -24.8966
  27   2.0000      -0.909893       -24.7595
  28   2.0000      -0.874047       -23.7840
  29   2.0000      -0.851840       -23.1797
  30   2.0000      -0.846003       -23.0209
  31   2.0000      -0.809617       -22.0308
  32   2.0000      -0.783311       -21.3150
  33   2.0000      -0.771649       -20.9976
  34   2.0000      -0.717439       -19.5225
  35   2.0000      -0.707251       -19.2453
  36   2.0000      -0.692574       -18.8459
  37   2.0000      -0.660071       -17.9614
  38   2.0000      -0.627030       -17.0623
  39   2.0000      -0.616268       -16.7695
  40   2.0000      -0.596679       -16.2365
  41   2.0000      -0.577217       -15.7069
  42   2.0000      -0.569974       -15.5098
  43   2.0000      -0.565666       -15.3926
  44   2.0000      -0.533353       -14.5133
  45   2.0000      -0.528442       -14.3796
  46   2.0000      -0.512529       -13.9466
  47   2.0000      -0.509250       -13.8574
  48   2.0000      -0.504359       -13.7243
  49   2.0000      -0.496079       -13.4990
  50   2.0000      -0.492711       -13.4074
  51   2.0000      -0.485509       -13.2114
  52   2.0000      -0.480472       -13.0743
  53   2.0000      -0.469159       -12.7665
  54   2.0000      -0.455203       -12.3867
  55   2.0000      -0.451669       -12.2906
  56   2.0000      -0.445736       -12.1291
  57   2.0000      -0.440863       -11.9965
  58   2.0000      -0.433045       -11.7837
  59   2.0000      -0.423292       -11.5184
  60   2.0000      -0.416300       -11.3281
  61   2.0000      -0.412670       -11.2293
  62   2.0000      -0.407101       -11.0778
  63   2.0000      -0.352748        -9.5988
  64   2.0000      -0.334141        -9.0925
  65   2.0000      -0.328136        -8.9290
  66   2.0000      -0.280883        -7.6432
  67   0.0000       0.015227         0.4143
  68   0.0000       0.073628         2.0035
  69   0.0000       0.110283         3.0010
  70   0.0000       0.114141         3.1059
  71   0.0000       0.136829         3.7233

MULLIKEN ATOMIC CHARGES
-----------------------
   0 S :    0.098000
   1 C :   -0.134063
   2 C :   -0.036522
   3 C :   -0.026995
   4 C :   -0.116189
   5 H :    0.010212
   6 C :   -0.000874
   7 H :    0.032791
   8 H :    0.046748
   9 C :   -0.054971
  10 H :    0.023863
  11 H :    0.024104
  12 C :    0.042661
  13 H :    0.011484
  14 H :    0.020278
  15 H :    0.005467
  16 S :    0.076959
  17 C :   -0.087039
  18 C :   -0.076433
  19 C :   -0.026764
  20 C :   -0.115036
  21 H :    0.028051
  22 C :    0.001786
  23 H :    0.036492
  24 H :    0.055040
  25 C :   -0.074205
  26 H :    0.033062
  27 H :    0.036444
  28 C :   -0.031831
  29 H :    0.042378
  30 H :    0.008885
  31 H :    0.033312
  32 H :    0.044148
  33 H :    0.068756
Sum of atomic charges:    0.0000000

LOEWDIN ATOMIC CHARGES
----------------------
   0 S :    0.413455
   1 C :   -0.186914
   2 C :   -0.058928
   3 C :   -0.081642
   4 C :   -0.203695
   5 H :    0.014746
   6 C :   -0.031451
   7 H :    0.034682
   8 H :    0.035759
   9 C :   -0.030650
  10 H :    0.023985
  11 H :    0.014727
  12 C :   -0.046514
  13 H :    0.013903
  14 H :    0.030919
  15 H :    0.017303
  16 S :    0.404595
  17 C :   -0.195193
  18 C :   -0.082916
  19 C :   -0.054090
  20 C :   -0.184174
  21 H :    0.032896
  22 C :   -0.041134
  23 H :    0.028767
  24 H :    0.041428
  25 C :   -0.046258
  26 H :    0.030534
  27 H :    0.021656
  28 C :   -0.072570
  29 H :    0.032596
  30 H :    0.023725
  31 H :    0.030928
  32 H :    0.027502
  33 H :    0.042023

  Mayer bond orders larger than 0.100000
B(  0-S ,  1-C ) :   1.1166 B(  0-S ,  4-C ) :   1.1765 B(  1-C ,  2-C ) :   1.6089
B(  1-C , 32-H ) :   0.9723 B(  2-C ,  3-C ) :   1.2713 B(  2-C ,  6-C ) :   0.9976
B(  3-C ,  4-C ) :   1.5361 B(  3-C ,  5-H ) :   0.9791 B(  4-C , 20-C ) :   1.0523
B(  6-C ,  7-H ) :   0.9430 B(  6-C ,  8-H ) :   0.9408 B(  6-C ,  9-C ) :   1.0658
B(  9-C , 10-H ) :   0.9494 B(  9-C , 11-H ) :   0.9543 B(  9-C , 12-C ) :   1.0967
B( 12-C , 13-H ) :   0.9682 B( 12-C , 14-H ) :   0.9693 B( 12-C , 15-H ) :   0.9697
B( 16-S , 17-C ) :   1.1679 B( 16-S , 20-C ) :   1.1393 B( 17-C , 18-C ) :   1.5747
B( 17-C , 20-C ) :   0.1108 B( 17-C , 33-H ) :   0.9617 B( 18-C , 19-C ) :   1.2894
B( 18-C , 21-H ) :   0.9823 B( 19-C , 20-C ) :   1.5204 B( 19-C , 22-C ) :   1.0111
B( 22-C , 23-H ) :   0.9377 B( 22-C , 24-H ) :   0.9391 B( 22-C , 25-C ) :   1.0761
B( 25-C , 26-H ) :   0.9478 B( 25-C , 27-H ) :   0.9525 B( 25-C , 28-C ) :   1.0797
B( 28-C , 29-H ) :   0.9746 B( 28-C , 30-H ) :   0.9676 B( 28-C , 31-H ) :   0.9691

Dispersion correction           -0.013132166
FINAL SINGLE POINT ENERGY     -1339.844036621273

DIPOLE MOMENT
-------------
                                X             Y             Z
Electronic contribution:      1.27404      -0.05573       8.77771
Nuclear contribution   :     -1.19015      -0.06553      -8.94373
                        -----------------------------------------
Total Dipole Moment    :      0.08389      -0.12126      -0.16602
                        -----------------------------------------
Magnitude (a.u.)       :      0.22204
Magnitude (Debye)      :      0.56439

Rotational constants in cm-1:     0.022926     0.007152     0.005674
Rotational constants in MHz :   687.299979   214.415160   170.091601

                             ****ORCA TERMINATED NORMALLY****
TOTAL RUN TIME: 0 days 0 hours 0 minutes 20 seconds 634 msec
