                         Program Version 4.2.1 -  RELEASE  -
|  1> ! wB97X-D3 SP def2-SVP
|  2> %pal
|  3> nprocs 24
|  4> end
|  5>
|  6> * xyz 0 1
|  7> S 	 -48.2723 	 16.4078 	 21.4278
|  8> C 	 -49.9891 	 16.4861 	 21.3426
|  9> C 	 -50.4985 	 15.7928 	 20.2573
| 10> C 	 -49.4568 	 15.5203 	 19.2726
| 11> C 	 -48.2044 	 16.0278 	 19.6709
| 12> H 	 -49.5108 	 15.0154 	 18.3381
| 13> C 	 -51.9583 	 15.4247 	 20.159
| 14> H 	 -52.3875 	 15.3893 	 19.1361
| 15> H 	 -52.5166 	 16.1817 	 20.7264
| 16> C 	 -52.2948 	 14.0169 	 20.7479
| 17> H 	 -51.6839 	 13.9233 	 21.7236
| 18> H 	 -53.3514 	 13.9268 	 20.9322
| 19> C 	 -51.8999 	 12.8387 	 19.8497
| 20> H 	 -52.3891 	 12.9123 	 18.8889
| 21> H 	 -50.9043 	 12.9048 	 19.5149
| 22> H 	 -51.9211 	 11.8007 	 20.2867
| 23> S 	 -45.6775 	 14.9328 	 19.9076
| 24> C 	 -44.6885 	 14.8776 	 18.3679
| 25> C 	 -45.3325 	 15.5171 	 17.3047
| 26> C 	 -46.5863 	 16.0226 	 17.6778
| 27> C 	 -46.9431 	 15.7611 	 18.9779
| 28> H 	 -44.7444 	 15.5951 	 16.4431
| 29> C 	 -47.4619 	 16.6065 	 16.6372
| 30> H 	 -48.5191 	 16.5501 	 16.8204
| 31> H 	 -47.3455 	 16.0826 	 15.6963
| 32> C 	 -47.1544 	 18.0676 	 16.286
| 33> H 	 -47.452 	 18.3526 	 15.2747
| 34> H 	 -45.9988 	 18.1359 	 16.3505
| 35> C 	 -47.7066 	 18.9807 	 17.353
| 36> H 	 -47.632 	 20.0332 	 17.1779
| 37> H 	 -47.0881 	 18.992 	 18.2829
| 38> H 	 -48.7673 	 18.7193 	 17.5291
| 39> H 	 -50.6024 	 16.5194 	 22.1696
| 40> H 	 -43.6724 	 14.5634 	 18.3348
| 41> *
| 42>
| 43>                          ****END OF INPUT****

CARTESIAN COORDINATES (ANGSTROEM)
---------------------------------
  S    -48.272300   16.407800   21.427800
  C    -49.989100   16.486100   21.342600
  C    -50.498500   15.792800   20.257300
  C    -49.456800   15.520300   19.272600
  C    -48.204400   16.027800   19.670900
  H    -49.510800   15.015400   18.338100
  C    -51.958300   15.424700   20.159000
  H    -52.387500   15.389300   19.136100
  H    -52.516600   16.181700   20.726400
  C    -52.294800   14.016900   20.747900
  H    -51.683900   13.923300   21.723600
  H    -53.351400   13.926800   20.932200
  C    -51.899900   12.838700   19.849700
  H    -52.389100   12.912300   18.888900
  H    -50.904300   12.904800   19.514900
  H    -51.921100   11.800700   20.286700
  S    -45.677500   14.932800   19.907600
  C    -44.688500   14.877600   18.367900
  C    -45.332500   15.517100   17.304700
  C    -46.586300   16.022600   17.677800
  C    -46.943100   15.761100   18.977900
  H    -44.744400   15.595100   16.443100
  C    -47.461900   16.606500   16.637200
  H    -48.519100   16.550100   16.820400
  H    -47.345500   16.082600   15.696300
  C    -47.154400   18.067600   16.286000
  H    -47.452000   18.352600   15.274700
  H    -45.998800   18.135900   16.350500
  C    -47.706600   18.980700   17.353000
  H    -47.632000   20.033200   17.177900
  H    -47.088100   18.992000   18.282900
  H    -48.767300   18.719300   17.529100
  H    -50.602400   16.519400   22.169600
  H    -43.672400   14.563400   18.334800

 Total Charge           Charge          ....    0
 Multiplicity           Mult            ....    1
 Number of Electrons    NEL             ....  134
 Basis Dimension        Dim             ....  322

ORBITAL ENERGIES
----------------

  NO   OCC          E(Eh)            E(eV)
   0   2.0000     -88.968216     -2420.9482
   1   2.0000     -88.968037     -2420.9434
   2   2.0000     -10.335687      -281.2483
   3   2.0000     -10.329853      -281.0896
   4   2.0000     -10.322817      -280.8981
   5   2.0000     -10.307734      -280.4877
   6   2.0000     -10.306764      -280.4613
   7   2.0000     -10.301491      -280.3178
   8   2.0000     -10.300956      -280.3033
   9   2.0000     -10.299468      -280.2628
  10   2.0000     -10.294566      -280.1294
  11   2.0000     -10.294511      -280.1279
  12   2.0000     -10.288166      -279.9552
  13   2.0000     -10.283530      -279.8291
  14   2.0000     -10.274956      -279.5958
  15   2.0000     -10.269291      -279.4416
  16   2.0000      -8.082485      -219.9356
  17   2.0000      -8.081449      -219.9074
  18   2.0000      -6.040999      -164.3839
  19   2.0000      -6.040067      -164.3586
  20   2.0000      -6.037457      -164.2876
  21   2.0000      -6.036371      -164.2580
  22   2.0000      -6.032837      -164.1618
  23   2.0000      -6.031980      -164.1385
  24   2.0000      -1.003739       -27.3131
  25   2.0000      -0.981787       -26.7158
  26   2.0000      -0.912203       -24.8223
  27   2.0000      -0.908301       -24.7161
  28   2.0000      -0.871518       -23.7152
  29   2.0000      -0.849727       -23.1223
  30   2.0000      -0.843136       -22.9429
  31   2.0000      -0.817860       -22.2551
  32   2.0000      -0.782487       -21.2925
  33   2.0000      -0.772232       -21.0135
  34   2.0000      -0.706956       -19.2373
  35   2.0000      -0.699520       -19.0349
  36   2.0000      -0.689665       -18.7667
  37   2.0000      -0.666175       -18.1275
  38   2.0000      -0.644840       -17.5470
  39   2.0000      -0.616775       -16.7833
  40   2.0000      -0.602292       -16.3892
  41   2.0000      -0.579248       -15.7621
  42   2.0000      -0.557042       -15.1579
  43   2.0000      -0.545985       -14.8570
  44   2.0000      -0.544644       -14.8205
  45   2.0000      -0.534033       -14.5318
  46   2.0000      -0.513690       -13.9782
  47   2.0000      -0.512020       -13.9328
  48   2.0000      -0.501347       -13.6423
  49   2.0000      -0.496468       -13.5096
  50   2.0000      -0.485209       -13.2032
  51   2.0000      -0.480303       -13.0697
  52   2.0000      -0.467518       -12.7218
  53   2.0000      -0.463959       -12.6250
  54   2.0000      -0.458681       -12.4813
  55   2.0000      -0.447542       -12.1782
  56   2.0000      -0.440794       -11.9946
  57   2.0000      -0.432323       -11.7641
  58   2.0000      -0.428310       -11.6549
  59   2.0000      -0.422494       -11.4966
  60   2.0000      -0.420067       -11.4306
  61   2.0000      -0.418521       -11.3885
  62   2.0000      -0.412513       -11.2250
  63   2.0000      -0.351618        -9.5680
  64   2.0000      -0.335359        -9.1256
  65   2.0000      -0.324089        -8.8189
  66   2.0000      -0.288707        -7.8561
  67   0.0000       0.017987         0.4895
  68   0.0000       0.058139         1.5820
  69   0.0000       0.092180         2.5083
  70   0.0000       0.114597         3.1183
  71   0.0000       0.127853         3.4791

MULLIKEN ATOMIC CHARGES
-----------------------
   0 S :    0.093781
   1 C :   -0.036308
   2 C :   -0.119698
   3 C :    0.041920
   4 C :   -0.144401
   5 H :    0.018452
   6 C :    0.040065
   7 H :    0.031111
   8 H :    0.033588
   9 C :   -0.081656
  10 H :    0.038353
  11 H :    0.037785
  12 C :   -0.046529
  13 H :    0.016461
  14 H :    0.007604
  15 H :    0.050581
  16 S :    0.087708
  17 C :   -0.098623
  18 C :   -0.015437
  19 C :   -0.005514
  20 C :   -0.145207
  21 H :    0.008708
  22 C :    0.072047
  23 H :    0.008952
  24 H :    0.019740
  25 C :   -0.092870
  26 H :    0.032322
  27 H :    0.028911
  28 C :   -0.050101
  29 H :    0.019444
  30 H :    0.039566
  31 H :    0.036949
  32 H :    0.023011
  33 H :    0.049282
Sum of atomic charges:    0.0000000

LOEWDIN ATOMIC CHARGES
----------------------
   0 S :    0.394769
   1 C :   -0.195579
   2 C :   -0.054901
   3 C :   -0.050199
   4 C :   -0.173638
   5 H :    0.026305
   6 C :   -0.035869
   7 H :    0.031272
   8 H :    0.035734
   9 C :   -0.039935
  10 H :    0.031143
  11 H :    0.021560
  12 C :   -0.077457
  13 H :    0.021992
  14 H :    0.017622
  15 H :    0.037474
  16 S :    0.357841
  17 C :   -0.151919
  18 C :   -0.053756
  19 C :   -0.061823
  20 C :   -0.180700
  21 H :    0.028973
  22 C :   -0.033010
  23 H :    0.022211
  24 H :    0.031958
  25 C :   -0.041681
  26 H :    0.021100
  27 H :    0.029698
  28 C :   -0.076084
  29 H :    0.020450
  30 H :    0.035648
  31 H :    0.027105
  32 H :    0.012309
  33 H :    0.021388

  Mayer bond orders larger than 0.100000
B(  0-S ,  1-C ) :   1.1390 B(  0-S ,  4-C ) :   1.1386 B(  1-C ,  2-C ) :   1.6261
B(  1-C , 32-H ) :   0.9601 B(  2-C ,  3-C ) :   1.2230 B(  2-C ,  6-C ) :   1.0361
B(  3-C ,  4-C ) :   1.5598 B(  3-C ,  5-H ) :   0.9933 B(  4-C , 20-C ) :   1.0622
B(  6-C ,  7-H ) :   0.9483 B(  6-C ,  8-H ) :   0.9387 B(  6-C ,  9-C ) :   1.0560
B(  9-C , 10-H ) :   0.9557 B(  9-C , 11-H ) :   0.9591 B(  9-C , 12-C ) :   1.0731
B( 12-C , 13-H ) :   0.9701 B( 12-C , 14-H ) :   0.9711 B( 12-C , 15-H ) :   0.9727
B( 16-S , 17-C ) :   1.1255 B( 16-S , 20-C ) :   1.1189 B( 17-C , 18-C ) :   1.6434
B( 17-C , 33-H ) :   0.9682 B( 18-C , 19-C ) :   1.2044 B( 18-C , 21-H ) :   0.9986
B( 19-C , 20-C ) :   1.6231 B( 19-C , 22-C ) :   1.0489 B( 22-C , 23-H ) :   0.9370
B( 22-C , 24-H ) :   0.9305 B( 22-C , 25-C ) :   1.0672 B( 25-C , 26-H ) :   0.9577
B( 25-C , 27-H ) :   0.9565 B( 25-C , 28-C ) :   1.0765 B( 28-C , 29-H ) :   0.9714
B( 28-C , 30-H ) :   0.9702 B( 28-C , 31-H ) :   0.9748

Dispersion correction           -0.015076186
FINAL SINGLE POINT ENERGY     -1339.851728670368

DIPOLE MOMENT
-------------
                                X             Y             Z
Electronic contribution:     17.16321      -1.18555      12.39836
Nuclear contribution   :    -17.45096       1.01137     -12.88032
                        -----------------------------------------
Total Dipole Moment    :     -0.28775      -0.17417      -0.48195
                        -----------------------------------------
Magnitude (a.u.)       :      0.58772
Magnitude (Debye)      :      1.49387

Rotational constants in cm-1:     0.019506     0.008591     0.007765
Rotational constants in MHz :   584.761077   257.545720   232.788068

                             ****ORCA TERMINATED NORMALLY****
TOTAL RUN TIME: 0 days 0 hours 0 minutes 22 seconds 216 msec
