                         Program Version 4.2.1 -  RELEASE  -
|  1> ! wB97X-D3 SP def2-SVP
|  2> %pal
|  3> nprocs 24
|  4> end
|  5>
|  6> * xyz 0 1
|  7> S 	 -127.996 	 59.6349 	 -54.0203
|  8> C 	 -129.379 	 60.4438 	 -54.7556
|  9> C 	 -129.087 	 61.7902 	 -55.0195
| 10> C 	 -127.79 	 62.1464 	 -54.7759
| 11> C 	 -127.094 	 61.1053 	 -54.2073
| 12> H 	 -127.19 	 63.0659 	 -54.8538
| 13> C 	 -130.086 	 62.8576 	 -55.5666
| 14> H 	 -131.038 	 62.4183 	 -55.7261
| 15> H 	 -129.647 	 63.2659 	 -56.4754
| 16> C 	 -130.347 	 64.0762 	 -54.6989
| 17> H 	 -130.756 	 63.8045 	 -53.7782
| 18> H 	 -129.36 	 64.512 	 -54.4307
| 19> C 	 -131.224 	 65.1152 	 -55.3855
| 20> H 	 -131.456 	 65.8165 	 -54.6687
| 21> H 	 -130.755 	 65.5355 	 -56.2706
| 22> H 	 -132.111 	 64.547 	 -55.7448
| 23> S 	 -125.037 	 61.6214 	 -52.4319
| 24> C 	 -123.42 	 61.7576 	 -52.9921
| 25> C 	 -123.4 	 61.6911 	 -54.3596
| 26> C 	 -124.639 	 61.37 	 -54.9316
| 27> C 	 -125.648 	 61.246 	 -53.9655
| 28> H 	 -122.495 	 61.8515 	 -54.9819
| 29> C 	 -124.794 	 61.1762 	 -56.422
| 30> H 	 -125.765 	 60.7628 	 -56.6978
| 31> H 	 -124.056 	 60.3794 	 -56.6571
| 32> C 	 -124.663 	 62.5947 	 -57.16
| 33> H 	 -123.801 	 63.0136 	 -56.7023
| 34> H 	 -125.581 	 63.2488 	 -56.9685
| 35> C 	 -124.477 	 62.4315 	 -58.6981
| 36> H 	 -125.389 	 62.2223 	 -59.1088
| 37> H 	 -123.873 	 61.6099 	 -58.9381
| 38> H 	 -124.227 	 63.3599 	 -59.1553
| 39> H 	 -130.352 	 59.9715 	 -54.8343
| 40> H 	 -122.509 	 61.9338 	 -52.3637
| 41> *
| 42>
| 43>                          ****END OF INPUT****

CARTESIAN COORDINATES (ANGSTROEM)
---------------------------------
  S    -127.996000   59.634900  -54.020300
  C    -129.379000   60.443800  -54.755600
  C    -129.087000   61.790200  -55.019500
  C    -127.790000   62.146400  -54.775900
  C    -127.094000   61.105300  -54.207300
  H    -127.190000   63.065900  -54.853800
  C    -130.086000   62.857600  -55.566600
  H    -131.038000   62.418300  -55.726100
  H    -129.647000   63.265900  -56.475400
  C    -130.347000   64.076200  -54.698900
  H    -130.756000   63.804500  -53.778200
  H    -129.360000   64.512000  -54.430700
  C    -131.224000   65.115200  -55.385500
  H    -131.456000   65.816500  -54.668700
  H    -130.755000   65.535500  -56.270600
  H    -132.111000   64.547000  -55.744800
  S    -125.037000   61.621400  -52.431900
  C    -123.420000   61.757600  -52.992100
  C    -123.400000   61.691100  -54.359600
  C    -124.639000   61.370000  -54.931600
  C    -125.648000   61.246000  -53.965500
  H    -122.495000   61.851500  -54.981900
  C    -124.794000   61.176200  -56.422000
  H    -125.765000   60.762800  -56.697800
  H    -124.056000   60.379400  -56.657100
  C    -124.663000   62.594700  -57.160000
  H    -123.801000   63.013600  -56.702300
  H    -125.581000   63.248800  -56.968500
  C    -124.477000   62.431500  -58.698100
  H    -125.389000   62.222300  -59.108800
  H    -123.873000   61.609900  -58.938100
  H    -124.227000   63.359900  -59.155300
  H    -130.352000   59.971500  -54.834300
  H    -122.509000   61.933800  -52.363700

 Total Charge           Charge          ....    0
 Multiplicity           Mult            ....    1
 Number of Electrons    NEL             ....  134
 Basis Dimension        Dim             ....  322

ORBITAL ENERGIES
----------------

  NO   OCC          E(Eh)            E(eV)
   0   2.0000     -88.971181     -2421.0289
   1   2.0000     -88.963296     -2420.8144
   2   2.0000     -10.322993      -280.9029
   3   2.0000     -10.316638      -280.7300
   4   2.0000     -10.316592      -280.7287
   5   2.0000     -10.314604      -280.6746
   6   2.0000     -10.301738      -280.3245
   7   2.0000     -10.294565      -280.1293
   8   2.0000     -10.293623      -280.1037
   9   2.0000     -10.292062      -280.0612
  10   2.0000     -10.288768      -279.9716
  11   2.0000     -10.287979      -279.9501
  12   2.0000     -10.287888      -279.9477
  13   2.0000     -10.278035      -279.6796
  14   2.0000     -10.274492      -279.5831
  15   2.0000     -10.264022      -279.2982
  16   2.0000      -8.085592      -220.0201
  17   2.0000      -8.079470      -219.8536
  18   2.0000      -6.043825      -164.4608
  19   2.0000      -6.040221      -164.3628
  20   2.0000      -6.037790      -164.2966
  21   2.0000      -6.036599      -164.2642
  22   2.0000      -6.033618      -164.1831
  23   2.0000      -6.030519      -164.0988
  24   2.0000      -1.013430       -27.5768
  25   2.0000      -0.991377       -26.9767
  26   2.0000      -0.914036       -24.8722
  27   2.0000      -0.901691       -24.5363
  28   2.0000      -0.868121       -23.6228
  29   2.0000      -0.856986       -23.3198
  30   2.0000      -0.851073       -23.1589
  31   2.0000      -0.811950       -22.0943
  32   2.0000      -0.782967       -21.3056
  33   2.0000      -0.768908       -20.9231
  34   2.0000      -0.704104       -19.1597
  35   2.0000      -0.698327       -19.0024
  36   2.0000      -0.692754       -18.8508
  37   2.0000      -0.654862       -17.8197
  38   2.0000      -0.647136       -17.6095
  39   2.0000      -0.619629       -16.8610
  40   2.0000      -0.595855       -16.2140
  41   2.0000      -0.574296       -15.6274
  42   2.0000      -0.561765       -15.2864
  43   2.0000      -0.556527       -15.1439
  44   2.0000      -0.531446       -14.4614
  45   2.0000      -0.525909       -14.3107
  46   2.0000      -0.516961       -14.0672
  47   2.0000      -0.513034       -13.9604
  48   2.0000      -0.505683       -13.7603
  49   2.0000      -0.499744       -13.5987
  50   2.0000      -0.487982       -13.2787
  51   2.0000      -0.476239       -12.9591
  52   2.0000      -0.472558       -12.8589
  53   2.0000      -0.466591       -12.6966
  54   2.0000      -0.460392       -12.5279
  55   2.0000      -0.452370       -12.3096
  56   2.0000      -0.447972       -12.1899
  57   2.0000      -0.441321       -12.0089
  58   2.0000      -0.437628       -11.9085
  59   2.0000      -0.425173       -11.5695
  60   2.0000      -0.422265       -11.4904
  61   2.0000      -0.417636       -11.3645
  62   2.0000      -0.407320       -11.0837
  63   2.0000      -0.341637        -9.2964
  64   2.0000      -0.333233        -9.0677
  65   2.0000      -0.317147        -8.6300
  66   2.0000      -0.305168        -8.3040
  67   0.0000       0.043596         1.1863
  68   0.0000       0.062573         1.7027
  69   0.0000       0.118522         3.2252
  70   0.0000       0.123470         3.3598
  71   0.0000       0.130329         3.5464

MULLIKEN ATOMIC CHARGES
-----------------------
   0 S :    0.128923
   1 C :   -0.138429
   2 C :   -0.042310
   3 C :    0.013988
   4 C :   -0.181790
   5 H :    0.035260
   6 C :    0.097363
   7 H :    0.000295
   8 H :    0.023219
   9 C :   -0.090103
  10 H :    0.011794
  11 H :    0.019619
  12 C :   -0.005182
  13 H :    0.028165
  14 H :    0.029870
  15 H :    0.026015
  16 S :    0.124927
  17 C :   -0.112371
  18 C :   -0.046418
  19 C :   -0.044477
  20 C :   -0.190219
  21 H :    0.029316
  22 C :    0.052016
  23 H :    0.028137
  24 H :    0.042893
  25 C :   -0.113933
  26 H :    0.021158
  27 H :    0.044744
  28 C :    0.041957
  29 H :   -0.000408
  30 H :    0.018634
  31 H :    0.025019
  32 H :    0.048629
  33 H :    0.073697
Sum of atomic charges:   -0.0000000

LOEWDIN ATOMIC CHARGES
----------------------
   0 S :    0.417908
   1 C :   -0.200403
   2 C :   -0.059438
   3 C :   -0.065227
   4 C :   -0.199217
   5 H :    0.043102
   6 C :   -0.022423
   7 H :    0.018737
   8 H :    0.030700
   9 C :   -0.038695
  10 H :    0.014012
  11 H :    0.021020
  12 C :   -0.051862
  13 H :    0.018506
  14 H :    0.024867
  15 H :    0.029274
  16 S :    0.447360
  17 C :   -0.209627
  18 C :   -0.082503
  19 C :   -0.063301
  20 C :   -0.231724
  21 H :    0.035757
  22 C :   -0.032834
  23 H :    0.027498
  24 H :    0.036700
  25 C :   -0.028732
  26 H :    0.012273
  27 H :    0.033281
  28 C :   -0.054411
  29 H :    0.015332
  30 H :    0.019980
  31 H :    0.025031
  32 H :    0.026765
  33 H :    0.042293

  Mayer bond orders larger than 0.100000
B(  0-S ,  1-C ) :   1.1441 B(  0-S ,  4-C ) :   1.1756 B(  1-C ,  2-C ) :   1.5852
B(  1-C ,  4-C ) :   0.1089 B(  1-C , 32-H ) :   0.9710 B(  2-C ,  3-C ) :   1.2405
B(  2-C ,  6-C ) :   1.0219 B(  3-C ,  4-C ) :   1.5704 B(  3-C ,  5-H ) :   0.9918
B(  4-C , 20-C ) :   0.9921 B(  6-C ,  7-H ) :   0.9387 B(  6-C ,  8-H ) :   0.9398
B(  6-C ,  9-C ) :   1.0717 B(  9-C , 10-H ) :   0.9523 B(  9-C , 11-H ) :   0.9503
B(  9-C , 12-C ) :   1.0875 B( 12-C , 13-H ) :   0.9728 B( 12-C , 14-H ) :   0.9745
B( 12-C , 15-H ) :   0.9725 B( 16-S , 17-C ) :   1.1793 B( 16-S , 20-C ) :   1.1809
B( 17-C , 18-C ) :   1.5601 B( 17-C , 33-H ) :   0.9637 B( 18-C , 19-C ) :   1.2997
B( 18-C , 21-H ) :   0.9808 B( 19-C , 20-C ) :   1.5549 B( 19-C , 22-C ) :   1.0408
B( 22-C , 23-H ) :   0.9339 B( 22-C , 24-H ) :   0.9444 B( 22-C , 25-C ) :   1.0410
B( 25-C , 26-H ) :   0.9683 B( 25-C , 27-H ) :   0.9544 B( 25-C , 28-C ) :   1.0770
B( 28-C , 29-H ) :   0.9686 B( 28-C , 30-H ) :   0.9748 B( 28-C , 31-H ) :   0.9716

Dispersion correction           -0.014393159
FINAL SINGLE POINT ENERGY     -1339.868659916898

DIPOLE MOMENT
-------------
                                X             Y             Z
Electronic contribution:      7.41952     -17.47994      20.91246
Nuclear contribution   :     -7.48309      17.87082     -21.35281
                        -----------------------------------------
Total Dipole Moment    :     -0.06357       0.39088      -0.44035
                        -----------------------------------------
Magnitude (a.u.)       :      0.59223
Magnitude (Debye)      :      1.50533

Rotational constants in cm-1:     0.016180     0.008707     0.007305
Rotational constants in MHz :   485.075448   261.019225   218.986921

                             ****ORCA TERMINATED NORMALLY****
TOTAL RUN TIME: 0 days 0 hours 0 minutes 20 seconds 733 msec
