                         Program Version 4.2.1 -  RELEASE  -
|  1> ! wB97X-D3 SP def2-SVP
|  2> %pal
|  3> nprocs 24
|  4> end
|  5>
|  6> * xyz 0 1
|  7> S 	 -4.18535 	 -26.948 	 -115.886
|  8> C 	 -3.42384 	 -25.8137 	 -116.942
|  9> C 	 -2.48787 	 -25.0034 	 -116.321
| 10> C 	 -2.35906 	 -25.3068 	 -114.962
| 11> C 	 -3.22477 	 -26.2859 	 -114.545
| 12> H 	 -1.61707 	 -24.8473 	 -114.329
| 13> C 	 -1.68659 	 -23.9852 	 -117.045
| 14> H 	 -1.61559 	 -24.2019 	 -118.083
| 15> H 	 -0.600545 	 -24.2375 	 -116.771
| 16> C 	 -1.87182 	 -22.473 	 -116.673
| 17> H 	 -1.76085 	 -22.3324 	 -115.569
| 18> H 	 -1.12808 	 -21.93 	 -117.115
| 19> C 	 -3.28133 	 -21.9318 	 -117.082
| 20> H 	 -3.27922 	 -20.8987 	 -117.319
| 21> H 	 -3.71115 	 -22.4836 	 -117.926
| 22> H 	 -3.97523 	 -22.0834 	 -116.229
| 23> S 	 -2.26765 	 -28.484 	 -113.365
| 24> C 	 -2.18483 	 -28.642 	 -111.626
| 25> C 	 -2.56134 	 -27.4945 	 -111.016
| 26> C 	 -3.10006 	 -26.5091 	 -111.952
| 27> C 	 -3.12022 	 -26.9776 	 -113.246
| 28> H 	 -2.57201 	 -27.4572 	 -109.977
| 29> C 	 -3.48457 	 -25.0668 	 -111.551
| 30> H 	 -3.33054 	 -24.4039 	 -112.445
| 31> H 	 -2.73941 	 -24.7376 	 -110.841
| 32> C 	 -4.92102 	 -24.8955 	 -111.089
| 33> H 	 -4.99065 	 -25.7413 	 -110.373
| 34> H 	 -5.47296 	 -25.0763 	 -111.939
| 35> C 	 -5.24029 	 -23.5326 	 -110.424
| 36> H 	 -5.308 	 -22.7925 	 -111.202
| 37> H 	 -4.35907 	 -23.2352 	 -109.933
| 38> H 	 -6.12262 	 -23.5066 	 -109.793
| 39> H 	 -3.54508 	 -25.8412 	 -117.998
| 40> H 	 -1.75923 	 -29.5391 	 -111.168
| 41> *
| 42>
| 43>                          ****END OF INPUT****

CARTESIAN COORDINATES (ANGSTROEM)
---------------------------------
  S     -4.185350  -26.948000  -115.886000
  C     -3.423840  -25.813700  -116.942000
  C     -2.487870  -25.003400  -116.321000
  C     -2.359060  -25.306800  -114.962000
  C     -3.224770  -26.285900  -114.545000
  H     -1.617070  -24.847300  -114.329000
  C     -1.686590  -23.985200  -117.045000
  H     -1.615590  -24.201900  -118.083000
  H     -0.600545  -24.237500  -116.771000
  C     -1.871820  -22.473000  -116.673000
  H     -1.760850  -22.332400  -115.569000
  H     -1.128080  -21.930000  -117.115000
  C     -3.281330  -21.931800  -117.082000
  H     -3.279220  -20.898700  -117.319000
  H     -3.711150  -22.483600  -117.926000
  H     -3.975230  -22.083400  -116.229000
  S     -2.267650  -28.484000  -113.365000
  C     -2.184830  -28.642000  -111.626000
  C     -2.561340  -27.494500  -111.016000
  C     -3.100060  -26.509100  -111.952000
  C     -3.120220  -26.977600  -113.246000
  H     -2.572010  -27.457200  -109.977000
  C     -3.484570  -25.066800  -111.551000
  H     -3.330540  -24.403900  -112.445000
  H     -2.739410  -24.737600  -110.841000
  C     -4.921020  -24.895500  -111.089000
  H     -4.990650  -25.741300  -110.373000
  H     -5.472960  -25.076300  -111.939000
  C     -5.240290  -23.532600  -110.424000
  H     -5.308000  -22.792500  -111.202000
  H     -4.359070  -23.235200  -109.933000
  H     -6.122620  -23.506600  -109.793000
  H     -3.545080  -25.841200  -117.998000
  H     -1.759230  -29.539100  -111.168000

 Total Charge           Charge          ....    0
 Multiplicity           Mult            ....    1
 Number of Electrons    NEL             ....  134
 Basis Dimension        Dim             ....  322

ORBITAL ENERGIES
----------------

  NO   OCC          E(Eh)            E(eV)
   0   2.0000     -88.968935     -2420.9678
   1   2.0000     -88.957416     -2420.6544
   2   2.0000     -10.329033      -281.0673
   3   2.0000     -10.321801      -280.8705
   4   2.0000     -10.315383      -280.6958
   5   2.0000     -10.309132      -280.5257
   6   2.0000     -10.305783      -280.4346
   7   2.0000     -10.295409      -280.1523
   8   2.0000     -10.294861      -280.1374
   9   2.0000     -10.291448      -280.0445
  10   2.0000     -10.290965      -280.0314
  11   2.0000     -10.290375      -280.0153
  12   2.0000     -10.289253      -279.9848
  13   2.0000     -10.277428      -279.6630
  14   2.0000     -10.275403      -279.6079
  15   2.0000     -10.272592      -279.5314
  16   2.0000      -8.083551      -219.9646
  17   2.0000      -8.073175      -219.6823
  18   2.0000      -6.041948      -164.4098
  19   2.0000      -6.038119      -164.3056
  20   2.0000      -6.034417      -164.2048
  21   2.0000      -6.031677      -164.1303
  22   2.0000      -6.027609      -164.0196
  23   2.0000      -6.023781      -163.9154
  24   2.0000      -1.009166       -27.4608
  25   2.0000      -0.986681       -26.8490
  26   2.0000      -0.908290       -24.7158
  27   2.0000      -0.907658       -24.6986
  28   2.0000      -0.869951       -23.6726
  29   2.0000      -0.852689       -23.2029
  30   2.0000      -0.844238       -22.9729
  31   2.0000      -0.817135       -22.2354
  32   2.0000      -0.781987       -21.2790
  33   2.0000      -0.771629       -20.9971
  34   2.0000      -0.711577       -19.3630
  35   2.0000      -0.699724       -19.0405
  36   2.0000      -0.692163       -18.8347
  37   2.0000      -0.663486       -18.0544
  38   2.0000      -0.642325       -17.4786
  39   2.0000      -0.625798       -17.0288
  40   2.0000      -0.594404       -16.1746
  41   2.0000      -0.571545       -15.5525
  42   2.0000      -0.564911       -15.3720
  43   2.0000      -0.548678       -14.9303
  44   2.0000      -0.536003       -14.5854
  45   2.0000      -0.527400       -14.3513
  46   2.0000      -0.515705       -14.0330
  47   2.0000      -0.513767       -13.9803
  48   2.0000      -0.503014       -13.6877
  49   2.0000      -0.496521       -13.5110
  50   2.0000      -0.489271       -13.3137
  51   2.0000      -0.478768       -13.0279
  52   2.0000      -0.470650       -12.8070
  53   2.0000      -0.464394       -12.6368
  54   2.0000      -0.460845       -12.5402
  55   2.0000      -0.451880       -12.2963
  56   2.0000      -0.445986       -12.1359
  57   2.0000      -0.435891       -11.8612
  58   2.0000      -0.434456       -11.8222
  59   2.0000      -0.427909       -11.6440
  60   2.0000      -0.419675       -11.4199
  61   2.0000      -0.415896       -11.3171
  62   2.0000      -0.410986       -11.1835
  63   2.0000      -0.347370        -9.4524
  64   2.0000      -0.328307        -8.9337
  65   2.0000      -0.322981        -8.7888
  66   2.0000      -0.301535        -8.2052
  67   0.0000       0.036679         0.9981
  68   0.0000       0.066641         1.8134
  69   0.0000       0.112121         3.0510
  70   0.0000       0.117755         3.2043
  71   0.0000       0.126280         3.4362

MULLIKEN ATOMIC CHARGES
-----------------------
   0 S :    0.118156
   1 C :   -0.111811
   2 C :   -0.069732
   3 C :    0.051729
   4 C :   -0.175972
   5 H :    0.016006
   6 C :    0.025420
   7 H :    0.012469
   8 H :    0.028741
   9 C :   -0.027541
  10 H :    0.032257
  11 H :    0.012728
  12 C :   -0.056581
  13 H :    0.029251
  14 H :    0.030314
  15 H :    0.041276
  16 S :    0.090925
  17 C :   -0.099844
  18 C :    0.005203
  19 C :   -0.077043
  20 C :   -0.123803
  21 H :   -0.001789
  22 C :    0.032929
  23 H :    0.020596
  24 H :    0.018994
  25 C :   -0.045034
  26 H :    0.024932
  27 H :    0.018370
  28 C :    0.007134
  29 H :    0.017075
  30 H :    0.007710
  31 H :    0.047727
  32 H :    0.034528
  33 H :    0.064680
Sum of atomic charges:   -0.0000000

LOEWDIN ATOMIC CHARGES
----------------------
   0 S :    0.408280
   1 C :   -0.196914
   2 C :   -0.069515
   3 C :   -0.049824
   4 C :   -0.193684
   5 H :    0.033685
   6 C :   -0.036485
   7 H :    0.024264
   8 H :    0.040590
   9 C :   -0.028469
  10 H :    0.029263
  11 H :    0.010700
  12 C :   -0.067066
  13 H :    0.019747
  14 H :    0.025040
  15 H :    0.031988
  16 S :    0.405105
  17 C :   -0.177377
  18 C :   -0.067137
  19 C :   -0.052932
  20 C :   -0.204200
  21 H :    0.021563
  22 C :   -0.033085
  23 H :    0.028326
  24 H :    0.023552
  25 C :   -0.033292
  26 H :    0.025278
  27 H :    0.015197
  28 C :   -0.058114
  29 H :    0.025141
  30 H :    0.018725
  31 H :    0.029767
  32 H :    0.019725
  33 H :    0.032159

  Mayer bond orders larger than 0.100000
B(  0-S ,  1-C ) :   1.1482 B(  0-S ,  4-C ) :   1.1526 B(  1-C ,  2-C ) :   1.5953
B(  1-C , 32-H ) :   0.9685 B(  2-C ,  3-C ) :   1.2609 B(  2-C ,  6-C ) :   1.0315
B(  3-C ,  4-C ) :   1.5633 B(  3-C ,  5-H ) :   0.9945 B(  4-C , 20-C ) :   0.9939
B(  6-C ,  7-H ) :   0.9427 B(  6-C ,  8-H ) :   0.9332 B(  6-C ,  9-C ) :   1.0701
B(  9-C , 10-H ) :   0.9601 B(  9-C , 11-H ) :   0.9581 B(  9-C , 12-C ) :   1.0582
B( 12-C , 13-H ) :   0.9780 B( 12-C , 14-H ) :   0.9810 B( 12-C , 15-H ) :   0.9782
B( 16-S , 17-C ) :   1.1516 B( 16-S , 20-C ) :   1.1472 B( 17-C , 18-C ) :   1.6264
B( 17-C , 33-H ) :   0.9677 B( 18-C , 19-C ) :   1.2095 B( 18-C , 21-H ) :   1.0053
B( 19-C , 20-C ) :   1.6407 B( 19-C , 22-C ) :   1.0372 B( 22-C , 23-H ) :   0.9347
B( 22-C , 24-H ) :   0.9353 B( 22-C , 25-C ) :   1.0587 B( 25-C , 26-H ) :   0.9606
B( 25-C , 27-H ) :   0.9570 B( 25-C , 28-C ) :   1.0735 B( 28-C , 29-H ) :   0.9708
B( 28-C , 30-H ) :   0.9734 B( 28-C , 31-H ) :   0.9765

Dispersion correction           -0.014194510
FINAL SINGLE POINT ENERGY     -1339.871053113205

DIPOLE MOMENT
-------------
                                X             Y             Z
Electronic contribution:      2.02950     -27.25391      -3.99890
Nuclear contribution   :     -1.62959      27.77907       4.10242
                        -----------------------------------------
Total Dipole Moment    :      0.39990       0.52516       0.10352
                        -----------------------------------------
Magnitude (a.u.)       :      0.66815
Magnitude (Debye)      :      1.69831

Rotational constants in cm-1:     0.016771     0.009212     0.006975
Rotational constants in MHz :   502.788493   276.169947   209.099359

                             ****ORCA TERMINATED NORMALLY****
TOTAL RUN TIME: 0 days 0 hours 0 minutes 21 seconds 475 msec
