                         Program Version 4.2.1 -  RELEASE  -
|  1> ! wB97X-D3 SP def2-SVP
|  2> %pal
|  3> nprocs 24
|  4> end
|  5>
|  6> * xyz 0 1
|  7> S 	 16.5086 	 -5.95425 	 -112.183
|  8> C 	 16.8942 	 -5.51508 	 -110.553
|  9> C 	 18.23 	 -5.68954 	 -110.281
| 10> C 	 18.9601 	 -5.99413 	 -111.483
| 11> C 	 18.1528 	 -6.11095 	 -112.657
| 12> H 	 20.0352 	 -6.21212 	 -111.514
| 13> C 	 18.8705 	 -5.78612 	 -108.857
| 14> H 	 19.3597 	 -6.82738 	 -108.901
| 15> H 	 18.0567 	 -5.8719 	 -108.101
| 16> C 	 19.7972 	 -4.66993 	 -108.44
| 17> H 	 19.1728 	 -3.80843 	 -108.422
| 18> H 	 20.1201 	 -4.87193 	 -107.422
| 19> C 	 20.9904 	 -4.44171 	 -109.368
| 20> H 	 20.4963 	 -4.14974 	 -110.308
| 21> H 	 21.6091 	 -3.66112 	 -108.975
| 22> H 	 21.5583 	 -5.37726 	 -109.399
| 23> S 	 20.042 	 -5.68356 	 -114.675
| 24> C 	 20.2641 	 -6.95144 	 -115.894
| 25> C 	 19.2065 	 -7.8017 	 -115.861
| 26> C 	 18.296 	 -7.59726 	 -114.759
| 27> C 	 18.61 	 -6.49927 	 -113.971
| 28> H 	 19.2308 	 -8.55028 	 -116.665
| 29> C 	 17.0449 	 -8.37729 	 -114.64
| 30> H 	 16.6507 	 -8.35687 	 -113.654
| 31> H 	 17.3439 	 -9.39294 	 -114.974
| 32> C 	 15.9827 	 -8.02738 	 -115.67
| 33> H 	 16.321 	 -8.24543 	 -116.67
| 34> H 	 15.8684 	 -6.95164 	 -115.626
| 35> C 	 14.6789 	 -8.75795 	 -115.277
| 36> H 	 13.9134 	 -8.64922 	 -116.018
| 37> H 	 14.2543 	 -8.34874 	 -114.337
| 38> H 	 14.8221 	 -9.83828 	 -115.146
| 39> H 	 16.096 	 -5.39822 	 -109.854
| 40> H 	 21.0552 	 -6.89048 	 -116.697
| 41> *
| 42>
| 43>                          ****END OF INPUT****

CARTESIAN COORDINATES (ANGSTROEM)
---------------------------------
  S     16.508600   -5.954250  -112.183000
  C     16.894200   -5.515080  -110.553000
  C     18.230000   -5.689540  -110.281000
  C     18.960100   -5.994130  -111.483000
  C     18.152800   -6.110950  -112.657000
  H     20.035200   -6.212120  -111.514000
  C     18.870500   -5.786120  -108.857000
  H     19.359700   -6.827380  -108.901000
  H     18.056700   -5.871900  -108.101000
  C     19.797200   -4.669930  -108.440000
  H     19.172800   -3.808430  -108.422000
  H     20.120100   -4.871930  -107.422000
  C     20.990400   -4.441710  -109.368000
  H     20.496300   -4.149740  -110.308000
  H     21.609100   -3.661120  -108.975000
  H     21.558300   -5.377260  -109.399000
  S     20.042000   -5.683560  -114.675000
  C     20.264100   -6.951440  -115.894000
  C     19.206500   -7.801700  -115.861000
  C     18.296000   -7.597260  -114.759000
  C     18.610000   -6.499270  -113.971000
  H     19.230800   -8.550280  -116.665000
  C     17.044900   -8.377290  -114.640000
  H     16.650700   -8.356870  -113.654000
  H     17.343900   -9.392940  -114.974000
  C     15.982700   -8.027380  -115.670000
  H     16.321000   -8.245430  -116.670000
  H     15.868400   -6.951640  -115.626000
  C     14.678900   -8.757950  -115.277000
  H     13.913400   -8.649220  -116.018000
  H     14.254300   -8.348740  -114.337000
  H     14.822100   -9.838280  -115.146000
  H     16.096000   -5.398220  -109.854000
  H     21.055200   -6.890480  -116.697000

 Total Charge           Charge          ....    0
 Multiplicity           Mult            ....    1
 Number of Electrons    NEL             ....  134
 Basis Dimension        Dim             ....  322

ORBITAL ENERGIES
----------------

  NO   OCC          E(Eh)            E(eV)
   0   2.0000     -88.968675     -2420.9607
   1   2.0000     -88.960663     -2420.7427
   2   2.0000     -10.333270      -281.1826
   3   2.0000     -10.329272      -281.0738
   4   2.0000     -10.322908      -280.9006
   5   2.0000     -10.313114      -280.6341
   6   2.0000     -10.305921      -280.4384
   7   2.0000     -10.303362      -280.3687
   8   2.0000     -10.303133      -280.3625
   9   2.0000     -10.299473      -280.2629
  10   2.0000     -10.296295      -280.1764
  11   2.0000     -10.282961      -279.8136
  12   2.0000     -10.282454      -279.7998
  13   2.0000     -10.279795      -279.7274
  14   2.0000     -10.277908      -279.6761
  15   2.0000     -10.274352      -279.5793
  16   2.0000      -8.083851      -219.9728
  17   2.0000      -8.074676      -219.7231
  18   2.0000      -6.042250      -164.4180
  19   2.0000      -6.038197      -164.3077
  20   2.0000      -6.034820      -164.2158
  21   2.0000      -6.033307      -164.1746
  22   2.0000      -6.029314      -164.0660
  23   2.0000      -6.025293      -163.9565
  24   2.0000      -1.006695       -27.3936
  25   2.0000      -0.984111       -26.7790
  26   2.0000      -0.914265       -24.8784
  27   2.0000      -0.912744       -24.8370
  28   2.0000      -0.873817       -23.7778
  29   2.0000      -0.846877       -23.0447
  30   2.0000      -0.842706       -22.9312
  31   2.0000      -0.812495       -22.1091
  32   2.0000      -0.784208       -21.3394
  33   2.0000      -0.769877       -20.9494
  34   2.0000      -0.707297       -19.2465
  35   2.0000      -0.697475       -18.9792
  36   2.0000      -0.694087       -18.8871
  37   2.0000      -0.659651       -17.9500
  38   2.0000      -0.640842       -17.4382
  39   2.0000      -0.612630       -16.6705
  40   2.0000      -0.595452       -16.2031
  41   2.0000      -0.575388       -15.6571
  42   2.0000      -0.568906       -15.4807
  43   2.0000      -0.548513       -14.9258
  44   2.0000      -0.544844       -14.8260
  45   2.0000      -0.522848       -14.2274
  46   2.0000      -0.517513       -14.0822
  47   2.0000      -0.513448       -13.9716
  48   2.0000      -0.510053       -13.8792
  49   2.0000      -0.494925       -13.4676
  50   2.0000      -0.485970       -13.2239
  51   2.0000      -0.479100       -13.0370
  52   2.0000      -0.474407       -12.9093
  53   2.0000      -0.464197       -12.6314
  54   2.0000      -0.459276       -12.4975
  55   2.0000      -0.445857       -12.1324
  56   2.0000      -0.440087       -11.9754
  57   2.0000      -0.439506       -11.9596
  58   2.0000      -0.436876       -11.8880
  59   2.0000      -0.421192       -11.4612
  60   2.0000      -0.419833       -11.4242
  61   2.0000      -0.414226       -11.2717
  62   2.0000      -0.410664       -11.1747
  63   2.0000      -0.349385        -9.5073
  64   2.0000      -0.331219        -9.0129
  65   2.0000      -0.326002        -8.8710
  66   2.0000      -0.291689        -7.9373
  67   0.0000       0.026420         0.7189
  68   0.0000       0.073512         2.0004
  69   0.0000       0.099530         2.7084
  70   0.0000       0.114547         3.1170
  71   0.0000       0.134404         3.6573

MULLIKEN ATOMIC CHARGES
-----------------------
   0 S :    0.106294
   1 C :   -0.119876
   2 C :   -0.091469
   3 C :    0.008532
   4 C :   -0.156574
   5 H :    0.028617
   6 C :    0.013789
   7 H :    0.049475
   8 H :    0.027307
   9 C :   -0.044155
  10 H :    0.018625
  11 H :    0.025723
  12 C :   -0.048990
  13 H :    0.053048
  14 H :    0.035330
  15 H :    0.034571
  16 S :    0.082116
  17 C :   -0.123477
  18 C :   -0.033736
  19 C :   -0.022124
  20 C :   -0.135340
  21 H :    0.027586
  22 C :    0.053896
  23 H :    0.016969
  24 H :    0.018869
  25 C :   -0.048350
  26 H :    0.021606
  27 H :    0.022498
  28 C :   -0.040067
  29 H :    0.027088
  30 H :    0.036397
  31 H :    0.029361
  32 H :    0.044634
  33 H :    0.081828
Sum of atomic charges:   -0.0000000

LOEWDIN ATOMIC CHARGES
----------------------
   0 S :    0.435317
   1 C :   -0.200388
   2 C :   -0.068100
   3 C :   -0.064829
   4 C :   -0.209214
   5 H :    0.032416
   6 C :   -0.031996
   7 H :    0.039469
   8 H :    0.031927
   9 C :   -0.041623
  10 H :    0.020851
  11 H :    0.021662
  12 C :   -0.061808
  13 H :    0.033240
  14 H :    0.024160
  15 H :    0.025616
  16 S :    0.371999
  17 C :   -0.180271
  18 C :   -0.079420
  19 C :   -0.051630
  20 C :   -0.188096
  21 H :    0.037052
  22 C :   -0.035342
  23 H :    0.015997
  24 H :    0.034599
  25 C :   -0.031470
  26 H :    0.019957
  27 H :    0.020609
  28 C :   -0.063523
  29 H :    0.021025
  30 H :    0.030109
  31 H :    0.025730
  32 H :    0.021905
  33 H :    0.044071

  Mayer bond orders larger than 0.100000
B(  0-S ,  1-C ) :   1.1583 B(  0-S ,  4-C ) :   1.1705 B(  1-C ,  2-C ) :   1.5899
B(  1-C , 32-H ) :   0.9717 B(  2-C ,  3-C ) :   1.2745 B(  2-C ,  6-C ) :   0.9925
B(  3-C ,  4-C ) :   1.5236 B(  3-C ,  5-H ) :   0.9866 B(  4-C , 20-C ) :   1.0507
B(  6-C ,  7-H ) :   0.9465 B(  6-C ,  8-H ) :   0.9455 B(  6-C ,  9-C ) :   1.0736
B(  9-C , 10-H ) :   0.9503 B(  9-C , 11-H ) :   0.9522 B(  9-C , 12-C ) :   1.0844
B( 12-C , 13-H ) :   0.9678 B( 12-C , 14-H ) :   0.9720 B( 12-C , 15-H ) :   0.9751
B( 16-S , 17-C ) :   1.1421 B( 16-S , 20-C ) :   1.1160 B( 17-C , 18-C ) :   1.6404
B( 17-C , 33-H ) :   0.9575 B( 18-C , 19-C ) :   1.2022 B( 18-C , 21-H ) :   0.9869
B( 19-C , 20-C ) :   1.5900 B( 19-C , 22-C ) :   1.0738 B( 22-C , 23-H ) :   0.9385
B( 22-C , 24-H ) :   0.9171 B( 22-C , 25-C ) :   1.0585 B( 25-C , 26-H ) :   0.9537
B( 25-C , 27-H ) :   0.9545 B( 25-C , 28-C ) :   1.0805 B( 28-C , 29-H ) :   0.9742
B( 28-C , 30-H ) :   0.9743 B( 28-C , 31-H ) :   0.9735

Dispersion correction           -0.014491303
FINAL SINGLE POINT ENERGY     -1339.883441375522

DIPOLE MOMENT
-------------
                                X             Y             Z
Electronic contribution:      2.69176       5.43386      -8.09168
Nuclear contribution   :     -2.70399      -5.82144       8.26211
                        -----------------------------------------
Total Dipole Moment    :     -0.01223      -0.38759       0.17043
                        -----------------------------------------
Magnitude (a.u.)       :      0.42358
Magnitude (Debye)      :      1.07665

Rotational constants in cm-1:     0.020936     0.008580     0.006467
Rotational constants in MHz :   627.632357   257.235629   193.862640

                             ****ORCA TERMINATED NORMALLY****
TOTAL RUN TIME: 0 days 0 hours 0 minutes 21 seconds 551 msec
