                         Program Version 4.2.1 -  RELEASE  -
|  1> ! wB97X-D3 SP def2-SVP
|  2> %pal
|  3> nprocs 24
|  4> end
|  5>
|  6> * xyz 0 1
|  7> S 	 -51.9886 	 -44.5361 	 -81.2786
|  8> C 	 -53.3806 	 -44.0143 	 -80.3625
|  9> C 	 -52.9921 	 -43.6838 	 -79.0893
| 10> C 	 -51.5835 	 -43.6748 	 -78.918
| 11> C 	 -50.8638 	 -44.2769 	 -79.9395
| 12> H 	 -51.0353 	 -43.2551 	 -78.0566
| 13> C 	 -54.0073 	 -43.1929 	 -78.0153
| 14> H 	 -55.0044 	 -42.9569 	 -78.4148
| 15> H 	 -53.6805 	 -42.2182 	 -77.6066
| 16> C 	 -54.0788 	 -44.1744 	 -76.8382
| 17> H 	 -54.3737 	 -45.1779 	 -77.2092
| 18> H 	 -53.0218 	 -44.3551 	 -76.5344
| 19> C 	 -55.1691 	 -43.818 	 -75.7993
| 20> H 	 -55.5564 	 -44.6912 	 -75.2728
| 21> H 	 -54.929 	 -43.0236 	 -75.0889
| 22> H 	 -56.0454 	 -43.4666 	 -76.3879
| 23> S 	 -48.4988 	 -44.1638 	 -78.5365
| 24> C 	 -47.2498 	 -45.2028 	 -79.0238
| 25> C 	 -47.323 	 -45.5795 	 -80.3034
| 26> C 	 -48.588 	 -45.2343 	 -80.9174
| 27> C 	 -49.4041 	 -44.5238 	 -80.0152
| 28> H 	 -46.4829 	 -46.1025 	 -80.7046
| 29> C 	 -48.9393 	 -45.6442 	 -82.3354
| 30> H 	 -50.0233 	 -45.8307 	 -82.2796
| 31> H 	 -48.5081 	 -46.6427 	 -82.5306
| 32> C 	 -48.8614 	 -44.6012 	 -83.4129
| 33> H 	 -49.4111 	 -43.7146 	 -83.0521
| 34> H 	 -49.4993 	 -44.7941 	 -84.3349
| 35> C 	 -47.4282 	 -44.1405 	 -83.7792
| 36> H 	 -46.7433 	 -44.9357 	 -83.653
| 37> H 	 -47.1307 	 -43.2779 	 -83.105
| 38> H 	 -47.3741 	 -43.7923 	 -84.8061
| 39> H 	 -54.2504 	 -43.6356 	 -80.9107
| 40> H 	 -46.2929 	 -45.4219 	 -78.6033
| 41> *
| 42>
| 43>                          ****END OF INPUT****

CARTESIAN COORDINATES (ANGSTROEM)
---------------------------------
  S    -51.988600  -44.536100  -81.278600
  C    -53.380600  -44.014300  -80.362500
  C    -52.992100  -43.683800  -79.089300
  C    -51.583500  -43.674800  -78.918000
  C    -50.863800  -44.276900  -79.939500
  H    -51.035300  -43.255100  -78.056600
  C    -54.007300  -43.192900  -78.015300
  H    -55.004400  -42.956900  -78.414800
  H    -53.680500  -42.218200  -77.606600
  C    -54.078800  -44.174400  -76.838200
  H    -54.373700  -45.177900  -77.209200
  H    -53.021800  -44.355100  -76.534400
  C    -55.169100  -43.818000  -75.799300
  H    -55.556400  -44.691200  -75.272800
  H    -54.929000  -43.023600  -75.088900
  H    -56.045400  -43.466600  -76.387900
  S    -48.498800  -44.163800  -78.536500
  C    -47.249800  -45.202800  -79.023800
  C    -47.323000  -45.579500  -80.303400
  C    -48.588000  -45.234300  -80.917400
  C    -49.404100  -44.523800  -80.015200
  H    -46.482900  -46.102500  -80.704600
  C    -48.939300  -45.644200  -82.335400
  H    -50.023300  -45.830700  -82.279600
  H    -48.508100  -46.642700  -82.530600
  C    -48.861400  -44.601200  -83.412900
  H    -49.411100  -43.714600  -83.052100
  H    -49.499300  -44.794100  -84.334900
  C    -47.428200  -44.140500  -83.779200
  H    -46.743300  -44.935700  -83.653000
  H    -47.130700  -43.277900  -83.105000
  H    -47.374100  -43.792300  -84.806100
  H    -54.250400  -43.635600  -80.910700
  H    -46.292900  -45.421900  -78.603300

 Total Charge           Charge          ....    0
 Multiplicity           Mult            ....    1
 Number of Electrons    NEL             ....  134
 Basis Dimension        Dim             ....  322

ORBITAL ENERGIES
----------------

  NO   OCC          E(Eh)            E(eV)
   0   2.0000     -88.967857     -2420.9385
   1   2.0000     -88.964971     -2420.8599
   2   2.0000     -10.338910      -281.3360
   3   2.0000     -10.335767      -281.2505
   4   2.0000     -10.313552      -280.6460
   5   2.0000     -10.311791      -280.5981
   6   2.0000     -10.308276      -280.5025
   7   2.0000     -10.306322      -280.4493
   8   2.0000     -10.297334      -280.2047
   9   2.0000     -10.296585      -280.1843
  10   2.0000     -10.292745      -280.0798
  11   2.0000     -10.289573      -279.9935
  12   2.0000     -10.289095      -279.9805
  13   2.0000     -10.287802      -279.9453
  14   2.0000     -10.282516      -279.8015
  15   2.0000     -10.274236      -279.5762
  16   2.0000      -8.083260      -219.9567
  17   2.0000      -8.079093      -219.8433
  18   2.0000      -6.041868      -164.4076
  19   2.0000      -6.037884      -164.2992
  20   2.0000      -6.037701      -164.2942
  21   2.0000      -6.033680      -164.1848
  22   2.0000      -6.033602      -164.1827
  23   2.0000      -6.029875      -164.0812
  24   2.0000      -1.010287       -27.4913
  25   2.0000      -0.990122       -26.9426
  26   2.0000      -0.911700       -24.8086
  27   2.0000      -0.905573       -24.6419
  28   2.0000      -0.873472       -23.7684
  29   2.0000      -0.849839       -23.1253
  30   2.0000      -0.840872       -22.8813
  31   2.0000      -0.819165       -22.2906
  32   2.0000      -0.784222       -21.3398
  33   2.0000      -0.773601       -21.0508
  34   2.0000      -0.712068       -19.3764
  35   2.0000      -0.694163       -18.8891
  36   2.0000      -0.686934       -18.6924
  37   2.0000      -0.667579       -18.1658
  38   2.0000      -0.634202       -17.2575
  39   2.0000      -0.620802       -16.8929
  40   2.0000      -0.591859       -16.1053
  41   2.0000      -0.571308       -15.5461
  42   2.0000      -0.556941       -15.1551
  43   2.0000      -0.549893       -14.9634
  44   2.0000      -0.541234       -14.7277
  45   2.0000      -0.524089       -14.2612
  46   2.0000      -0.516601       -14.0574
  47   2.0000      -0.513613       -13.9761
  48   2.0000      -0.507684       -13.8148
  49   2.0000      -0.499895       -13.6028
  50   2.0000      -0.487504       -13.2656
  51   2.0000      -0.476381       -12.9630
  52   2.0000      -0.473127       -12.8744
  53   2.0000      -0.468873       -12.7587
  54   2.0000      -0.463319       -12.6076
  55   2.0000      -0.451355       -12.2820
  56   2.0000      -0.447808       -12.1855
  57   2.0000      -0.436913       -11.8890
  58   2.0000      -0.430979       -11.7275
  59   2.0000      -0.424273       -11.5451
  60   2.0000      -0.412636       -11.2284
  61   2.0000      -0.405081       -11.0228
  62   2.0000      -0.400985       -10.9114
  63   2.0000      -0.366383        -9.9698
  64   2.0000      -0.333724        -9.0811
  65   2.0000      -0.329732        -8.9725
  66   2.0000      -0.282275        -7.6811
  67   0.0000       0.013943         0.3794
  68   0.0000       0.084109         2.2887
  69   0.0000       0.110585         3.0092
  70   0.0000       0.116976         3.1831
  71   0.0000       0.127591         3.4719

MULLIKEN ATOMIC CHARGES
-----------------------
   0 S :    0.067089
   1 C :   -0.126618
   2 C :   -0.078637
   3 C :   -0.023941
   4 C :   -0.090357
   5 H :    0.035003
   6 C :    0.057915
   7 H :    0.014613
   8 H :    0.028270
   9 C :   -0.096152
  10 H :    0.027579
  11 H :    0.036029
  12 C :   -0.039444
  13 H :    0.038691
  14 H :    0.041191
  15 H :    0.023338
  16 S :    0.092728
  17 C :   -0.044247
  18 C :   -0.050231
  19 C :   -0.081880
  20 C :   -0.118729
  21 H :    0.010265
  22 C :    0.065394
  23 H :    0.024474
  24 H :    0.033336
  25 C :   -0.089005
  26 H :    0.026260
  27 H :    0.040599
  28 C :   -0.039203
  29 H :    0.018775
  30 H :    0.047889
  31 H :    0.032059
  32 H :    0.076172
  33 H :    0.040773
Sum of atomic charges:   -0.0000000

LOEWDIN ATOMIC CHARGES
----------------------
   0 S :    0.402503
   1 C :   -0.207304
   2 C :   -0.057237
   3 C :   -0.083551
   4 C :   -0.175522
   5 H :    0.029960
   6 C :   -0.030565
   7 H :    0.024479
   8 H :    0.029577
   9 C :   -0.049457
  10 H :    0.027606
  11 H :    0.027047
  12 C :   -0.069206
  13 H :    0.028707
  14 H :    0.024685
  15 H :    0.030055
  16 S :    0.417257
  17 C :   -0.193567
  18 C :   -0.073955
  19 C :   -0.045484
  20 C :   -0.186504
  21 H :    0.029675
  22 C :   -0.044134
  23 H :    0.025525
  24 H :    0.033173
  25 C :   -0.051863
  26 H :    0.026545
  27 H :    0.032972
  28 C :   -0.067869
  29 H :    0.014476
  30 H :    0.036286
  31 H :    0.026272
  32 H :    0.037839
  33 H :    0.031579

  Mayer bond orders larger than 0.100000
B(  0-S ,  1-C ) :   1.1344 B(  0-S ,  4-C ) :   1.1432 B(  1-C ,  2-C ) :   1.6069
B(  1-C , 32-H ) :   0.9636 B(  2-C ,  3-C ) :   1.2712 B(  2-C ,  6-C ) :   1.0187
B(  3-C ,  4-C ) :   1.5555 B(  3-C ,  5-H ) :   0.9736 B(  4-C , 20-C ) :   1.0842
B(  6-C ,  7-H ) :   0.9470 B(  6-C ,  8-H ) :   0.9445 B(  6-C ,  9-C ) :   1.0513
B(  9-C , 10-H ) :   0.9557 B(  9-C , 11-H ) :   0.9600 B(  9-C , 12-C ) :   1.0657
B( 12-C , 13-H ) :   0.9781 B( 12-C , 14-H ) :   0.9774 B( 12-C , 15-H ) :   0.9698
B( 16-S , 17-C ) :   1.1503 B( 16-S , 20-C ) :   1.1218 B( 17-C , 18-C ) :   1.6604
B( 17-C , 33-H ) :   0.9555 B( 18-C , 19-C ) :   1.2192 B( 18-C , 21-H ) :   0.9955
B( 19-C , 20-C ) :   1.5778 B( 19-C , 22-C ) :   1.0380 B( 22-C , 23-H ) :   0.9164
B( 22-C , 24-H ) :   0.9354 B( 22-C , 25-C ) :   1.0767 B( 25-C , 26-H ) :   0.9500
B( 25-C , 27-H ) :   0.9591 B( 25-C , 28-C ) :   1.0611 B( 28-C , 29-H ) :   0.9813
B( 28-C , 30-H ) :   0.9768 B( 28-C , 31-H ) :   0.9758

Dispersion correction           -0.014000300
FINAL SINGLE POINT ENERGY     -1339.865608310848

DIPOLE MOMENT
-------------
                                X             Y             Z
Electronic contribution:      7.83933      -1.49403       0.14395
Nuclear contribution   :     -7.82339       1.57198      -0.15204
                        -----------------------------------------
Total Dipole Moment    :      0.01594       0.07794      -0.00809
                        -----------------------------------------
Magnitude (a.u.)       :      0.07996
Magnitude (Debye)      :      0.20325

Rotational constants in cm-1:     0.024797     0.007443     0.006016
Rotational constants in MHz :   743.402567   223.147575   180.344899

                             ****ORCA TERMINATED NORMALLY****
TOTAL RUN TIME: 0 days 0 hours 0 minutes 21 seconds 143 msec
