                         Program Version 4.2.1 -  RELEASE  -
|  1> ! wB97X-D3 SP def2-SVP
|  2> %pal
|  3> nprocs 24
|  4> end
|  5>
|  6> * xyz 0 1
|  7> S 	 -41.7741 	 16.9416 	 -102.693
|  8> C 	 -42.6652 	 17.7292 	 -101.42
|  9> C 	 -43.224 	 18.8854 	 -101.886
| 10> C 	 -43.1189 	 19.0527 	 -103.289
| 11> C 	 -42.4512 	 18.0096 	 -103.841
| 12> H 	 -43.5285 	 19.7936 	 -103.939
| 13> C 	 -43.8747 	 19.9348 	 -101.025
| 14> H 	 -44.0352 	 20.8778 	 -101.522
| 15> H 	 -43.2017 	 20.1498 	 -100.152
| 16> C 	 -45.1866 	 19.4821 	 -100.405
| 17> H 	 -44.9778 	 18.5568 	 -99.8019
| 18> H 	 -45.5244 	 20.1905 	 -99.6241
| 19> C 	 -46.2855 	 19.1973 	 -101.46
| 20> H 	 -46.7176 	 20.0575 	 -101.88
| 21> H 	 -45.8858 	 18.4013 	 -102.157
| 22> H 	 -47.0855 	 18.7741 	 -100.864
| 23> S 	 -40.9367 	 17.9051 	 -106.061
| 24> C 	 -41.605 	 17.6406 	 -107.622
| 25> C 	 -42.9335 	 17.3142 	 -107.536
| 26> C 	 -43.4469 	 17.2416 	 -106.18
| 27> C 	 -42.4536 	 17.7068 	 -105.258
| 28> H 	 -43.5038 	 17.1166 	 -108.434
| 29> C 	 -44.8382 	 16.8334 	 -105.812
| 30> H 	 -45.5228 	 17.3959 	 -106.426
| 31> H 	 -44.9225 	 17.1736 	 -104.813
| 32> C 	 -45.1807 	 15.3 	 -105.787
| 33> H 	 -45.2592 	 14.9993 	 -106.841
| 34> H 	 -46.2031 	 15.1745 	 -105.418
| 35> C 	 -44.266 	 14.4589 	 -104.923
| 36> H 	 -43.2667 	 14.2902 	 -105.294
| 37> H 	 -44.7089 	 13.4356 	 -104.819
| 38> H 	 -44.1291 	 14.9453 	 -103.992
| 39> H 	 -42.688 	 17.4115 	 -100.402
| 40> H 	 -41.0929 	 17.8628 	 -108.54
| 41> *
| 42>
| 43>                          ****END OF INPUT****

CARTESIAN COORDINATES (ANGSTROEM)
---------------------------------
  S    -41.774100   16.941600  -102.693000
  C    -42.665200   17.729200  -101.420000
  C    -43.224000   18.885400  -101.886000
  C    -43.118900   19.052700  -103.289000
  C    -42.451200   18.009600  -103.841000
  H    -43.528500   19.793600  -103.939000
  C    -43.874700   19.934800  -101.025000
  H    -44.035200   20.877800  -101.522000
  H    -43.201700   20.149800  -100.152000
  C    -45.186600   19.482100  -100.405000
  H    -44.977800   18.556800  -99.801900
  H    -45.524400   20.190500  -99.624100
  C    -46.285500   19.197300  -101.460000
  H    -46.717600   20.057500  -101.880000
  H    -45.885800   18.401300  -102.157000
  H    -47.085500   18.774100  -100.864000
  S    -40.936700   17.905100  -106.061000
  C    -41.605000   17.640600  -107.622000
  C    -42.933500   17.314200  -107.536000
  C    -43.446900   17.241600  -106.180000
  C    -42.453600   17.706800  -105.258000
  H    -43.503800   17.116600  -108.434000
  C    -44.838200   16.833400  -105.812000
  H    -45.522800   17.395900  -106.426000
  H    -44.922500   17.173600  -104.813000
  C    -45.180700   15.300000  -105.787000
  H    -45.259200   14.999300  -106.841000
  H    -46.203100   15.174500  -105.418000
  C    -44.266000   14.458900  -104.923000
  H    -43.266700   14.290200  -105.294000
  H    -44.708900   13.435600  -104.819000
  H    -44.129100   14.945300  -103.992000
  H    -42.688000   17.411500  -100.402000
  H    -41.092900   17.862800  -108.540000

 Total Charge           Charge          ....    0
 Multiplicity           Mult            ....    1
 Number of Electrons    NEL             ....  134
 Basis Dimension        Dim             ....  322

ORBITAL ENERGIES
----------------

  NO   OCC          E(Eh)            E(eV)
   0   2.0000     -88.967382     -2420.9256
   1   2.0000     -88.960740     -2420.7448
   2   2.0000     -10.324071      -280.9323
   3   2.0000     -10.320500      -280.8351
   4   2.0000     -10.310983      -280.5761
   5   2.0000     -10.310644      -280.5669
   6   2.0000     -10.307071      -280.4697
   7   2.0000     -10.298575      -280.2385
   8   2.0000     -10.291698      -280.0513
   9   2.0000     -10.289875      -280.0017
  10   2.0000     -10.288793      -279.9723
  11   2.0000     -10.288746      -279.9710
  12   2.0000     -10.285622      -279.8860
  13   2.0000     -10.283649      -279.8323
  14   2.0000     -10.275931      -279.6223
  15   2.0000     -10.268820      -279.4288
  16   2.0000      -8.083008      -219.9498
  17   2.0000      -8.076629      -219.7762
  18   2.0000      -6.041447      -164.3961
  19   2.0000      -6.037396      -164.2859
  20   2.0000      -6.035016      -164.2211
  21   2.0000      -6.033776      -164.1874
  22   2.0000      -6.030825      -164.1071
  23   2.0000      -6.027622      -164.0199
  24   2.0000      -1.015519       -27.6337
  25   2.0000      -0.988268       -26.8921
  26   2.0000      -0.914373       -24.8814
  27   2.0000      -0.905553       -24.6414
  28   2.0000      -0.870519       -23.6880
  29   2.0000      -0.851420       -23.1683
  30   2.0000      -0.845231       -22.9999
  31   2.0000      -0.816249       -22.2113
  32   2.0000      -0.785046       -21.3622
  33   2.0000      -0.771526       -20.9943
  34   2.0000      -0.707154       -19.2426
  35   2.0000      -0.699698       -19.0398
  36   2.0000      -0.691500       -18.8167
  37   2.0000      -0.654330       -17.8052
  38   2.0000      -0.648626       -17.6500
  39   2.0000      -0.612455       -16.6657
  40   2.0000      -0.591291       -16.0898
  41   2.0000      -0.576080       -15.6759
  42   2.0000      -0.554323       -15.0839
  43   2.0000      -0.550772       -14.9873
  44   2.0000      -0.544825       -14.8255
  45   2.0000      -0.535525       -14.5724
  46   2.0000      -0.518976       -14.1220
  47   2.0000      -0.514950       -14.0125
  48   2.0000      -0.504643       -13.7320
  49   2.0000      -0.501378       -13.6432
  50   2.0000      -0.492292       -13.3959
  51   2.0000      -0.482491       -13.1292
  52   2.0000      -0.469708       -12.7814
  53   2.0000      -0.463558       -12.6140
  54   2.0000      -0.458121       -12.4661
  55   2.0000      -0.447338       -12.1727
  56   2.0000      -0.443955       -12.0806
  57   2.0000      -0.433909       -11.8073
  58   2.0000      -0.427723       -11.6389
  59   2.0000      -0.424763       -11.5584
  60   2.0000      -0.418575       -11.3900
  61   2.0000      -0.416320       -11.3286
  62   2.0000      -0.410945       -11.1824
  63   2.0000      -0.337499        -9.1838
  64   2.0000      -0.333042        -9.0625
  65   2.0000      -0.323209        -8.7950
  66   2.0000      -0.299685        -8.1548
  67   0.0000       0.043943         1.1957
  68   0.0000       0.054559         1.4846
  69   0.0000       0.111345         3.0298
  70   0.0000       0.121762         3.3133
  71   0.0000       0.132425         3.6035

MULLIKEN ATOMIC CHARGES
-----------------------
   0 S :    0.133992
   1 C :   -0.125343
   2 C :   -0.075684
   3 C :    0.060835
   4 C :   -0.166436
   5 H :    0.006843
   6 C :    0.082168
   7 H :    0.017704
   8 H :    0.036129
   9 C :   -0.121868
  10 H :    0.023330
  11 H :    0.029619
  12 C :   -0.039285
  13 H :    0.027020
  14 H :    0.064078
  15 H :    0.024731
  16 S :    0.105410
  17 C :   -0.081061
  18 C :   -0.042190
  19 C :   -0.040803
  20 C :   -0.201481
  21 H :    0.017179
  22 C :    0.095259
  23 H :    0.024031
  24 H :    0.007429
  25 C :   -0.065368
  26 H :    0.022445
  27 H :    0.028585
  28 C :   -0.028880
  29 H :    0.035051
  30 H :    0.036818
  31 H :    0.016717
  32 H :    0.037655
  33 H :    0.055369
Sum of atomic charges:    0.0000000

LOEWDIN ATOMIC CHARGES
----------------------
   0 S :    0.431028
   1 C :   -0.194679
   2 C :   -0.062793
   3 C :   -0.053605
   4 C :   -0.215294
   5 H :    0.034138
   6 C :   -0.036602
   7 H :    0.025549
   8 H :    0.037713
   9 C :   -0.045478
  10 H :    0.022804
  11 H :    0.023013
  12 C :   -0.067013
  13 H :    0.017467
  14 H :    0.037371
  15 H :    0.027262
  16 S :    0.426632
  17 C :   -0.197539
  18 C :   -0.073817
  19 C :   -0.050133
  20 C :   -0.212171
  21 H :    0.030293
  22 C :   -0.032513
  23 H :    0.030301
  24 H :    0.024108
  25 C :   -0.036769
  26 H :    0.020130
  27 H :    0.026196
  28 C :   -0.064013
  29 H :    0.025344
  30 H :    0.033550
  31 H :    0.017663
  32 H :    0.023380
  33 H :    0.028477

  Mayer bond orders larger than 0.100000
B(  0-S ,  1-C ) :   1.1333 B(  0-S ,  4-C ) :   1.1725 B(  1-C ,  2-C ) :   1.6101
B(  1-C , 32-H ) :   0.9759 B(  2-C ,  3-C ) :   1.2086 B(  2-C ,  6-C ) :   1.0203
B(  3-C ,  4-C ) :   1.5829 B(  3-C ,  5-H ) :   1.0107 B(  4-C , 20-C ) :   0.9922
B(  6-C ,  7-H ) :   0.9461 B(  6-C ,  8-H ) :   0.9365 B(  6-C ,  9-C ) :   1.0775
B(  9-C , 10-H ) :   0.9574 B(  9-C , 11-H ) :   0.9551 B(  9-C , 12-C ) :   1.0726
B( 12-C , 13-H ) :   0.9752 B( 12-C , 14-H ) :   0.9713 B( 12-C , 15-H ) :   0.9707
B( 16-S , 17-C ) :   1.1611 B( 16-S , 20-C ) :   1.1749 B( 17-C , 18-C ) :   1.6009
B( 17-C , 20-C ) :   0.1017 B( 17-C , 33-H ) :   0.9699 B( 18-C , 19-C ) :   1.2359
B( 18-C , 21-H ) :   0.9926 B( 19-C , 20-C ) :   1.5573 B( 19-C , 22-C ) :   1.0500
B( 22-C , 23-H ) :   0.9320 B( 22-C , 24-H ) :   0.9259 B( 22-C , 25-C ) :   1.0721
B( 25-C , 26-H ) :   0.9564 B( 25-C , 27-H ) :   0.9560 B( 25-C , 28-C ) :   1.0736
B( 28-C , 29-H ) :   0.9725 B( 28-C , 30-H ) :   0.9721 B( 28-C , 31-H ) :   0.9727

Dispersion correction           -0.015870061
FINAL SINGLE POINT ENERGY     -1339.884366765338

DIPOLE MOMENT
-------------
                                X             Y             Z
Electronic contribution:     23.49784       1.52547      -8.05506
Nuclear contribution   :    -24.08231      -1.32327       8.16832
                        -----------------------------------------
Total Dipole Moment    :     -0.58447       0.20221       0.11327
                        -----------------------------------------
Magnitude (a.u.)       :      0.62874
Magnitude (Debye)      :      1.59814

Rotational constants in cm-1:     0.020086     0.009257     0.008018
Rotational constants in MHz :   602.151497   277.503687   240.363531

                             ****ORCA TERMINATED NORMALLY****
TOTAL RUN TIME: 0 days 0 hours 0 minutes 22 seconds 876 msec
