                         Program Version 4.2.1 -  RELEASE  -
|  1> ! wB97X-D3 SP def2-SVP
|  2> %pal
|  3> nprocs 24
|  4> end
|  5>
|  6> * xyz 0 1
|  7> S 	 -134.045 	 23.604 	 -23.568
|  8> C 	 -134.103 	 22.0012 	 -22.8139
|  9> C 	 -132.912 	 21.3409 	 -23.0248
| 10> C 	 -131.898 	 22.1706 	 -23.6261
| 11> C 	 -132.294 	 23.454 	 -23.7828
| 12> H 	 -130.92 	 21.8432 	 -23.9222
| 13> C 	 -132.56 	 19.9497 	 -22.7275
| 14> H 	 -132.015 	 19.914 	 -21.7432
| 15> H 	 -131.837 	 19.6334 	 -23.5222
| 16> C 	 -133.683 	 18.9382 	 -22.6531
| 17> H 	 -134.366 	 19.1091 	 -21.8098
| 18> H 	 -134.432 	 19.2666 	 -23.345
| 19> C 	 -133.161 	 17.5136 	 -22.9779
| 20> H 	 -133.995 	 16.8401 	 -23.0273
| 21> H 	 -132.789 	 17.4792 	 -24.0439
| 22> H 	 -132.433 	 17.1506 	 -22.2707
| 23> S 	 -132.391 	 25.6323 	 -25.4782
| 24> C 	 -130.918 	 26.5354 	 -25.7778
| 25> C 	 -129.87 	 25.9779 	 -25.1389
| 26> C 	 -130.185 	 24.9613 	 -24.2532
| 27> C 	 -131.541 	 24.602 	 -24.2742
| 28> H 	 -128.835 	 26.3537 	 -25.3382
| 29> C 	 -129.139 	 24.3415 	 -23.3375
| 30> H 	 -129.517 	 23.4458 	 -22.9134
| 31> H 	 -129.05 	 25.0244 	 -22.4929
| 32> C 	 -127.7 	 24.1691 	 -23.9299
| 33> H 	 -127.132 	 23.5795 	 -23.2163
| 34> H 	 -127.226 	 25.1676 	 -23.9633
| 35> C 	 -127.668 	 23.2753 	 -25.1589
| 36> H 	 -128.543 	 23.5385 	 -25.7981
| 37> H 	 -127.828 	 22.3119 	 -24.7477
| 38> H 	 -126.691 	 23.1978 	 -25.7136
| 39> H 	 -134.982 	 21.517 	 -22.3945
| 40> H 	 -130.889 	 27.2295 	 -26.5927
| 41> *
| 42>
| 43>                          ****END OF INPUT****

CARTESIAN COORDINATES (ANGSTROEM)
---------------------------------
  S    -134.045000   23.604000  -23.568000
  C    -134.103000   22.001200  -22.813900
  C    -132.912000   21.340900  -23.024800
  C    -131.898000   22.170600  -23.626100
  C    -132.294000   23.454000  -23.782800
  H    -130.920000   21.843200  -23.922200
  C    -132.560000   19.949700  -22.727500
  H    -132.015000   19.914000  -21.743200
  H    -131.837000   19.633400  -23.522200
  C    -133.683000   18.938200  -22.653100
  H    -134.366000   19.109100  -21.809800
  H    -134.432000   19.266600  -23.345000
  C    -133.161000   17.513600  -22.977900
  H    -133.995000   16.840100  -23.027300
  H    -132.789000   17.479200  -24.043900
  H    -132.433000   17.150600  -22.270700
  S    -132.391000   25.632300  -25.478200
  C    -130.918000   26.535400  -25.777800
  C    -129.870000   25.977900  -25.138900
  C    -130.185000   24.961300  -24.253200
  C    -131.541000   24.602000  -24.274200
  H    -128.835000   26.353700  -25.338200
  C    -129.139000   24.341500  -23.337500
  H    -129.517000   23.445800  -22.913400
  H    -129.050000   25.024400  -22.492900
  C    -127.700000   24.169100  -23.929900
  H    -127.132000   23.579500  -23.216300
  H    -127.226000   25.167600  -23.963300
  C    -127.668000   23.275300  -25.158900
  H    -128.543000   23.538500  -25.798100
  H    -127.828000   22.311900  -24.747700
  H    -126.691000   23.197800  -25.713600
  H    -134.982000   21.517000  -22.394500
  H    -130.889000   27.229500  -26.592700

 Total Charge           Charge          ....    0
 Multiplicity           Mult            ....    1
 Number of Electrons    NEL             ....  134
 Basis Dimension        Dim             ....  322

ORBITAL ENERGIES
----------------

  NO   OCC          E(Eh)            E(eV)
   0   2.0000     -88.963146     -2420.8103
   1   2.0000     -88.962072     -2420.7810
   2   2.0000     -10.331207      -281.1264
   3   2.0000     -10.330110      -281.0966
   4   2.0000     -10.315215      -280.6913
   5   2.0000     -10.313937      -280.6565
   6   2.0000     -10.304472      -280.3989
   7   2.0000     -10.298151      -280.2269
   8   2.0000     -10.292137      -280.0633
   9   2.0000     -10.291988      -280.0592
  10   2.0000     -10.291367      -280.0423
  11   2.0000     -10.291168      -280.0369
  12   2.0000     -10.289925      -280.0031
  13   2.0000     -10.285301      -279.8773
  14   2.0000     -10.284747      -279.8622
  15   2.0000     -10.280830      -279.7556
  16   2.0000      -8.077547      -219.8012
  17   2.0000      -8.076485      -219.7723
  18   2.0000      -6.036041      -164.2490
  19   2.0000      -6.035255      -164.2276
  20   2.0000      -6.032137      -164.1428
  21   2.0000      -6.031302      -164.1201
  22   2.0000      -6.028309      -164.0386
  23   2.0000      -6.026716      -163.9953
  24   2.0000      -1.007043       -27.4030
  25   2.0000      -0.985760       -26.8239
  26   2.0000      -0.917074       -24.9549
  27   2.0000      -0.910691       -24.7812
  28   2.0000      -0.869603       -23.6631
  29   2.0000      -0.854089       -23.2410
  30   2.0000      -0.845552       -23.0086
  31   2.0000      -0.816672       -22.2228
  32   2.0000      -0.784119       -21.3370
  33   2.0000      -0.770978       -20.9794
  34   2.0000      -0.720388       -19.6028
  35   2.0000      -0.703720       -19.1492
  36   2.0000      -0.695221       -18.9179
  37   2.0000      -0.657572       -17.8934
  38   2.0000      -0.637878       -17.3576
  39   2.0000      -0.618314       -16.8252
  40   2.0000      -0.602441       -16.3932
  41   2.0000      -0.567726       -15.4486
  42   2.0000      -0.563240       -15.3265
  43   2.0000      -0.556297       -15.1376
  44   2.0000      -0.546154       -14.8616
  45   2.0000      -0.527111       -14.3434
  46   2.0000      -0.521558       -14.1923
  47   2.0000      -0.509574       -13.8662
  48   2.0000      -0.505291       -13.7497
  49   2.0000      -0.497503       -13.5377
  50   2.0000      -0.491998       -13.3879
  51   2.0000      -0.482427       -13.1275
  52   2.0000      -0.473645       -12.8885
  53   2.0000      -0.469024       -12.7628
  54   2.0000      -0.457229       -12.4418
  55   2.0000      -0.450929       -12.2704
  56   2.0000      -0.443420       -12.0661
  57   2.0000      -0.440608       -11.9895
  58   2.0000      -0.432757       -11.7759
  59   2.0000      -0.426150       -11.5961
  60   2.0000      -0.420662       -11.4468
  61   2.0000      -0.412409       -11.2222
  62   2.0000      -0.409385       -11.1399
  63   2.0000      -0.356675        -9.7056
  64   2.0000      -0.334675        -9.1070
  65   2.0000      -0.323537        -8.8039
  66   2.0000      -0.284883        -7.7521
  67   0.0000       0.020514         0.5582
  68   0.0000       0.073161         1.9908
  69   0.0000       0.093227         2.5368
  70   0.0000       0.126258         3.4356
  71   0.0000       0.132443         3.6040

MULLIKEN ATOMIC CHARGES
-----------------------
   0 S :    0.086160
   1 C :   -0.117889
   2 C :   -0.084481
   3 C :    0.009588
   4 C :   -0.115704
   5 H :    0.005687
   6 C :    0.036642
   7 H :    0.052761
   8 H :    0.033103
   9 C :   -0.083935
  10 H :    0.022466
  11 H :    0.006962
  12 C :   -0.032963
  13 H :    0.025342
  14 H :    0.042603
  15 H :    0.043804
  16 S :    0.072201
  17 C :   -0.070212
  18 C :   -0.050169
  19 C :   -0.068931
  20 C :   -0.121081
  21 H :    0.036705
  22 C :    0.096038
  23 H :   -0.000702
  24 H :    0.042698
  25 C :   -0.097879
  26 H :    0.026553
  27 H :    0.039177
  28 C :   -0.052737
  29 H :    0.052199
  30 H :    0.015236
  31 H :    0.050591
  32 H :    0.045837
  33 H :    0.054332
Sum of atomic charges:   -0.0000000

LOEWDIN ATOMIC CHARGES
----------------------
   0 S :    0.374209
   1 C :   -0.196826
   2 C :   -0.060777
   3 C :   -0.062754
   4 C :   -0.172569
   5 H :    0.028085
   6 C :   -0.042539
   7 H :    0.042657
   8 H :    0.037335
   9 C :   -0.056558
  10 H :    0.025380
  11 H :    0.019529
  12 C :   -0.059034
  13 H :    0.024060
  14 H :    0.036208
  15 H :    0.025063
  16 S :    0.379043
  17 C :   -0.170351
  18 C :   -0.080307
  19 C :   -0.060351
  20 C :   -0.179981
  21 H :    0.042329
  22 C :   -0.024050
  23 H :    0.019916
  24 H :    0.040256
  25 C :   -0.045650
  26 H :    0.026902
  27 H :    0.021847
  28 C :   -0.071301
  29 H :    0.030341
  30 H :    0.020209
  31 H :    0.034898
  32 H :    0.029125
  33 H :    0.025655

  Mayer bond orders larger than 0.100000
B(  0-S ,  1-C ) :   1.1004 B(  0-S ,  4-C ) :   1.1311 B(  1-C ,  2-C ) :   1.6419
B(  1-C , 32-H ) :   0.9675 B(  2-C ,  3-C ) :   1.2021 B(  2-C ,  6-C ) :   1.0291
B(  3-C ,  4-C ) :   1.6049 B(  3-C ,  5-H ) :   0.9950 B(  4-C , 20-C ) :   1.0492
B(  6-C ,  7-H ) :   0.9173 B(  6-C ,  8-H ) :   0.9476 B(  6-C ,  9-C ) :   1.0720
B(  9-C , 10-H ) :   0.9431 B(  9-C , 11-H ) :   0.9533 B(  9-C , 12-C ) :   1.0786
B( 12-C , 13-H ) :   0.9728 B( 12-C , 14-H ) :   0.9721 B( 12-C , 15-H ) :   0.9782
B( 16-S , 17-C ) :   1.1542 B( 16-S , 20-C ) :   1.1346 B( 17-C , 18-C ) :   1.6013
B( 17-C , 20-C ) :   0.1040 B( 17-C , 33-H ) :   0.9682 B( 18-C , 19-C ) :   1.2599
B( 18-C , 21-H ) :   0.9825 B( 19-C , 20-C ) :   1.5849 B( 19-C , 22-C ) :   1.0289
B( 22-C , 23-H ) :   0.9356 B( 22-C , 24-H ) :   0.9290 B( 22-C , 25-C ) :   1.0792
B( 25-C , 26-H ) :   0.9590 B( 25-C , 27-H ) :   0.9521 B( 25-C , 28-C ) :   1.0551
B( 28-C , 29-H ) :   0.9770 B( 28-C , 30-H ) :   0.9747 B( 28-C , 31-H ) :   0.9737

Dispersion correction           -0.014002432
FINAL SINGLE POINT ENERGY     -1339.869088131551

DIPOLE MOMENT
-------------
                                X             Y             Z
Electronic contribution:    -15.92666      22.91232      -4.69588
Nuclear contribution   :     16.55225     -23.45684       4.72584
                        -----------------------------------------
Total Dipole Moment    :      0.62559      -0.54452       0.02996
                        -----------------------------------------
Magnitude (a.u.)       :      0.82992
Magnitude (Debye)      :      2.10949

Rotational constants in cm-1:     0.020226     0.007998     0.006123
Rotational constants in MHz :   606.345414   239.783630   183.560127

                             ****ORCA TERMINATED NORMALLY****
TOTAL RUN TIME: 0 days 0 hours 0 minutes 21 seconds 428 msec
