                         Program Version 4.2.1 -  RELEASE  -
|  1> ! wB97X-D3 SP def2-SVP
|  2> %pal
|  3> nprocs 24
|  4> end
|  5>
|  6> * xyz 0 1
|  7> S 	 -37.9815 	 -46.1173 	 -80.4792
|  8> C 	 -37.9085 	 -47.3424 	 -81.7513
|  9> C 	 -39.0327 	 -48.1282 	 -81.8497
| 10> C 	 -40.099 	 -47.6142 	 -81.0117
| 11> C 	 -39.6339 	 -46.576 	 -80.1866
| 12> H 	 -41.088 	 -47.9695 	 -80.8595
| 13> C 	 -39.2826 	 -49.2697 	 -82.8512
| 14> H 	 -38.5335 	 -49.3588 	 -83.6003
| 15> H 	 -40.2698 	 -49.1424 	 -83.3076
| 16> C 	 -39.4489 	 -50.638 	 -82.2086
| 17> H 	 -38.5627 	 -50.8559 	 -81.598
| 18> H 	 -40.2747 	 -50.7264 	 -81.555
| 19> C 	 -39.7881 	 -51.661 	 -83.3389
| 20> H 	 -39.6707 	 -52.6089 	 -82.8926
| 21> H 	 -40.8389 	 -51.5629 	 -83.6198
| 22> H 	 -39.1694 	 -51.6299 	 -84.2387
| 23> S 	 -40.393 	 -44.0191 	 -79.2958
| 24> C 	 -41.873 	 -43.9255 	 -78.3526
| 25> C 	 -42.2824 	 -45.138 	 -77.8775
| 26> C 	 -41.5307 	 -46.2013 	 -78.4597
| 27> C 	 -40.4983 	 -45.7703 	 -79.2874
| 28> H 	 -43.0388 	 -45.2063 	 -77.1758
| 29> C 	 -41.8492 	 -47.6584 	 -78.064
| 30> H 	 -41.6894 	 -47.7691 	 -76.988
| 31> H 	 -41.0241 	 -48.2549 	 -78.4565
| 32> C 	 -43.1215 	 -48.2597 	 -78.5542
| 33> H 	 -42.9846 	 -49.3401 	 -78.5879
| 34> H 	 -43.3351 	 -48.0022 	 -79.5548
| 35> C 	 -44.4874 	 -48.1256 	 -77.8392
| 36> H 	 -45.1279 	 -49.0037 	 -77.9052
| 37> H 	 -45.1023 	 -47.2352 	 -78.1438
| 38> H 	 -44.338 	 -48.0893 	 -76.7323
| 39> H 	 -37.074 	 -47.6581 	 -82.3378
| 40> H 	 -42.2622 	 -42.9679 	 -78.0625
| 41> *
| 42>
| 43>                          ****END OF INPUT****

CARTESIAN COORDINATES (ANGSTROEM)
---------------------------------
  S    -37.981500  -46.117300  -80.479200
  C    -37.908500  -47.342400  -81.751300
  C    -39.032700  -48.128200  -81.849700
  C    -40.099000  -47.614200  -81.011700
  C    -39.633900  -46.576000  -80.186600
  H    -41.088000  -47.969500  -80.859500
  C    -39.282600  -49.269700  -82.851200
  H    -38.533500  -49.358800  -83.600300
  H    -40.269800  -49.142400  -83.307600
  C    -39.448900  -50.638000  -82.208600
  H    -38.562700  -50.855900  -81.598000
  H    -40.274700  -50.726400  -81.555000
  C    -39.788100  -51.661000  -83.338900
  H    -39.670700  -52.608900  -82.892600
  H    -40.838900  -51.562900  -83.619800
  H    -39.169400  -51.629900  -84.238700
  S    -40.393000  -44.019100  -79.295800
  C    -41.873000  -43.925500  -78.352600
  C    -42.282400  -45.138000  -77.877500
  C    -41.530700  -46.201300  -78.459700
  C    -40.498300  -45.770300  -79.287400
  H    -43.038800  -45.206300  -77.175800
  C    -41.849200  -47.658400  -78.064000
  H    -41.689400  -47.769100  -76.988000
  H    -41.024100  -48.254900  -78.456500
  C    -43.121500  -48.259700  -78.554200
  H    -42.984600  -49.340100  -78.587900
  H    -43.335100  -48.002200  -79.554800
  C    -44.487400  -48.125600  -77.839200
  H    -45.127900  -49.003700  -77.905200
  H    -45.102300  -47.235200  -78.143800
  H    -44.338000  -48.089300  -76.732300
  H    -37.074000  -47.658100  -82.337800
  H    -42.262200  -42.967900  -78.062500

 Total Charge           Charge          ....    0
 Multiplicity           Mult            ....    1
 Number of Electrons    NEL             ....  134
 Basis Dimension        Dim             ....  322

ORBITAL ENERGIES
----------------

  NO   OCC          E(Eh)            E(eV)
   0   2.0000     -88.970947     -2421.0226
   1   2.0000     -88.964702     -2420.8526
   2   2.0000     -10.332371      -281.1581
   3   2.0000     -10.327740      -281.0321
   4   2.0000     -10.315372      -280.6955
   5   2.0000     -10.310796      -280.5710
   6   2.0000     -10.303591      -280.3750
   7   2.0000     -10.302133      -280.3353
   8   2.0000     -10.295123      -280.1445
   9   2.0000     -10.291482      -280.0455
  10   2.0000     -10.291339      -280.0416
  11   2.0000     -10.287798      -279.9452
  12   2.0000     -10.284795      -279.8635
  13   2.0000     -10.284350      -279.8514
  14   2.0000     -10.283353      -279.8243
  15   2.0000     -10.277711      -279.6707
  16   2.0000      -8.085278      -220.0116
  17   2.0000      -8.079532      -219.8552
  18   2.0000      -6.043797      -164.4601
  19   2.0000      -6.040018      -164.3572
  20   2.0000      -6.038038      -164.3034
  21   2.0000      -6.035904      -164.2453
  22   2.0000      -6.034166      -164.1980
  23   2.0000      -6.030157      -164.0889
  24   2.0000      -1.003955       -27.3190
  25   2.0000      -0.981917       -26.7193
  26   2.0000      -0.914728       -24.8910
  27   2.0000      -0.909862       -24.7586
  28   2.0000      -0.868079       -23.6216
  29   2.0000      -0.851314       -23.1654
  30   2.0000      -0.845169       -22.9982
  31   2.0000      -0.813558       -22.1380
  32   2.0000      -0.786505       -21.4019
  33   2.0000      -0.776284       -21.1238
  34   2.0000      -0.707085       -19.2408
  35   2.0000      -0.700084       -19.0503
  36   2.0000      -0.692167       -18.8348
  37   2.0000      -0.665832       -18.1182
  38   2.0000      -0.640492       -17.4287
  39   2.0000      -0.619297       -16.8519
  40   2.0000      -0.600497       -16.3404
  41   2.0000      -0.576237       -15.6802
  42   2.0000      -0.566536       -15.4162
  43   2.0000      -0.546469       -14.8702
  44   2.0000      -0.544138       -14.8067
  45   2.0000      -0.522553       -14.2194
  46   2.0000      -0.514920       -14.0117
  47   2.0000      -0.511255       -13.9119
  48   2.0000      -0.506623       -13.7859
  49   2.0000      -0.494671       -13.4607
  50   2.0000      -0.489602       -13.3228
  51   2.0000      -0.476151       -12.9567
  52   2.0000      -0.474806       -12.9201
  53   2.0000      -0.466823       -12.7029
  54   2.0000      -0.462832       -12.5943
  55   2.0000      -0.451828       -12.2949
  56   2.0000      -0.448471       -12.2035
  57   2.0000      -0.444980       -12.1085
  58   2.0000      -0.435848       -11.8600
  59   2.0000      -0.427575       -11.6349
  60   2.0000      -0.419898       -11.4260
  61   2.0000      -0.416929       -11.3452
  62   2.0000      -0.406423       -11.0593
  63   2.0000      -0.350971        -9.5504
  64   2.0000      -0.333244        -9.0680
  65   2.0000      -0.330401        -8.9907
  66   2.0000      -0.287624        -7.8267
  67   0.0000       0.029327         0.7980
  68   0.0000       0.074642         2.0311
  69   0.0000       0.102775         2.7967
  70   0.0000       0.121669         3.3108
  71   0.0000       0.128319         3.4917

MULLIKEN ATOMIC CHARGES
-----------------------
   0 S :    0.115789
   1 C :   -0.102100
   2 C :   -0.067802
   3 C :    0.035494
   4 C :   -0.155206
   5 H :   -0.005257
   6 C :    0.083893
   7 H :    0.011959
   8 H :    0.025032
   9 C :   -0.093289
  10 H :    0.032016
  11 H :    0.019124
  12 C :   -0.040141
  13 H :    0.024348
  14 H :    0.033643
  15 H :    0.033680
  16 S :    0.099893
  17 C :   -0.090401
  18 C :    0.019818
  19 C :   -0.067916
  20 C :   -0.129384
  21 H :   -0.008468
  22 C :    0.078878
  23 H :    0.032698
  24 H :    0.019394
  25 C :   -0.056548
  26 H :    0.025032
  27 H :    0.023766
  28 C :   -0.078605
  29 H :    0.032647
  30 H :    0.047008
  31 H :    0.021280
  32 H :    0.029469
  33 H :    0.050256
Sum of atomic charges:   -0.0000000

LOEWDIN ATOMIC CHARGES
----------------------
   0 S :    0.400568
   1 C :   -0.196635
   2 C :   -0.054593
   3 C :   -0.056213
   4 C :   -0.185941
   5 H :    0.024687
   6 C :   -0.026271
   7 H :    0.022898
   8 H :    0.034845
   9 C :   -0.034911
  10 H :    0.022453
  11 H :    0.017152
  12 C :   -0.060002
  13 H :    0.021772
  14 H :    0.027168
  15 H :    0.023687
  16 S :    0.393901
  17 C :   -0.168844
  18 C :   -0.058848
  19 C :   -0.055887
  20 C :   -0.200537
  21 H :    0.022037
  22 C :   -0.034182
  23 H :    0.035200
  24 H :    0.033924
  25 C :   -0.048878
  26 H :    0.030998
  27 H :    0.020587
  28 C :   -0.077309
  29 H :    0.027478
  30 H :    0.028289
  31 H :    0.024791
  32 H :    0.023856
  33 H :    0.022760

  Mayer bond orders larger than 0.100000
B(  0-S ,  1-C ) :   1.1126 B(  0-S ,  4-C ) :   1.1504 B(  1-C ,  2-C ) :   1.6603
B(  1-C , 32-H ) :   0.9609 B(  2-C ,  3-C ) :   1.1999 B(  2-C ,  6-C ) :   1.0281
B(  3-C ,  4-C ) :   1.5866 B(  3-C ,  5-H ) :   0.9926 B(  4-C , 20-C ) :   1.0297
B(  6-C ,  7-H ) :   0.9480 B(  6-C ,  8-H ) :   0.9410 B(  6-C ,  9-C ) :   1.0564
B(  9-C , 10-H ) :   0.9591 B(  9-C , 11-H ) :   0.9564 B(  9-C , 12-C ) :   1.0739
B( 12-C , 13-H ) :   0.9740 B( 12-C , 14-H ) :   0.9752 B( 12-C , 15-H ) :   0.9773
B( 16-S , 17-C ) :   1.1555 B( 16-S , 20-C ) :   1.1308 B( 17-C , 18-C ) :   1.6044
B( 17-C , 33-H ) :   0.9690 B( 18-C , 19-C ) :   1.2282 B( 18-C , 21-H ) :   1.0092
B( 19-C , 20-C ) :   1.6117 B( 19-C , 22-C ) :   1.0368 B( 22-C , 23-H ) :   0.9355
B( 22-C , 24-H ) :   0.9253 B( 22-C , 25-C ) :   1.0771 B( 25-C , 26-H ) :   0.9561
B( 25-C , 27-H ) :   0.9501 B( 25-C , 28-C ) :   1.0725 B( 28-C , 29-H ) :   0.9740
B( 28-C , 30-H ) :   0.9775 B( 28-C , 31-H ) :   0.9730

Dispersion correction           -0.013993829
FINAL SINGLE POINT ENERGY     -1339.873553433731

DIPOLE MOMENT
-------------
                                X             Y             Z
Electronic contribution:     15.59472      28.38586       4.09651
Nuclear contribution   :    -16.02715     -29.04540      -4.06191
                        -----------------------------------------
Total Dipole Moment    :     -0.43243      -0.65954       0.03459
                        -----------------------------------------
Magnitude (a.u.)       :      0.78942
Magnitude (Debye)      :      2.00655

Rotational constants in cm-1:     0.017051     0.009043     0.006206
Rotational constants in MHz :   511.177270   271.104353   186.038814

                             ****ORCA TERMINATED NORMALLY****
TOTAL RUN TIME: 0 days 0 hours 0 minutes 21 seconds 368 msec
