                         Program Version 4.2.1 -  RELEASE  -
|  1> ! wB97X-D3 SP def2-SVP
|  2> %pal
|  3> nprocs 24
|  4> end
|  5>
|  6> * xyz 0 1
|  7> S 	 -132.677 	 57.873 	 -60.3422
|  8> C 	 -133.467 	 59.1506 	 -61.2279
|  9> C 	 -133.944 	 58.7723 	 -62.4447
| 10> C 	 -133.96 	 57.3235 	 -62.5421
| 11> C 	 -133.325 	 56.6877 	 -61.4747
| 12> H 	 -134.435 	 56.6682 	 -63.2161
| 13> C 	 -134.607 	 59.6794 	 -63.4625
| 14> H 	 -133.857 	 59.9387 	 -64.1777
| 15> H 	 -134.94 	 60.6191 	 -62.9413
| 16> C 	 -135.852 	 59.1423 	 -64.2262
| 17> H 	 -135.66 	 58.269 	 -64.9075
| 18> H 	 -136.695 	 58.9234 	 -63.5447
| 19> C 	 -136.435 	 60.2019 	 -65.1328
| 20> H 	 -137.16 	 59.7572 	 -65.6809
| 21> H 	 -136.975 	 60.9526 	 -64.5704
| 22> H 	 -135.652 	 60.6528 	 -65.7819
| 23> S 	 -133.447 	 54.8073 	 -59.5396
| 24> C 	 -133.312 	 53.107 	 -59.9403
| 25> C 	 -132.931 	 52.9107 	 -61.2998
| 26> C 	 -132.723 	 54.1065 	 -62.0094
| 27> C 	 -133.057 	 55.2593 	 -61.2683
| 28> H 	 -132.697 	 51.9619 	 -61.7071
| 29> C 	 -132.613 	 54.1627 	 -63.5435
| 30> H 	 -133.462 	 54.7335 	 -63.8932
| 31> H 	 -132.642 	 53.148 	 -63.9567
| 32> C 	 -131.38 	 54.9303 	 -64.1145
| 33> H 	 -130.403 	 54.5253 	 -63.799
| 34> H 	 -131.475 	 55.9693 	 -63.6312
| 35> C 	 -131.511 	 55.0347 	 -65.6676
| 36> H 	 -132.458 	 55.5197 	 -65.8478
| 37> H 	 -131.504 	 54.0128 	 -66.0118
| 38> H 	 -130.795 	 55.6234 	 -66.1552
| 39> H 	 -133.529 	 60.1758 	 -60.8922
| 40> H 	 -133.323 	 52.2787 	 -59.1642
| 41> *
| 42>
| 43>                          ****END OF INPUT****

CARTESIAN COORDINATES (ANGSTROEM)
---------------------------------
  S    -132.677000   57.873000  -60.342200
  C    -133.467000   59.150600  -61.227900
  C    -133.944000   58.772300  -62.444700
  C    -133.960000   57.323500  -62.542100
  C    -133.325000   56.687700  -61.474700
  H    -134.435000   56.668200  -63.216100
  C    -134.607000   59.679400  -63.462500
  H    -133.857000   59.938700  -64.177700
  H    -134.940000   60.619100  -62.941300
  C    -135.852000   59.142300  -64.226200
  H    -135.660000   58.269000  -64.907500
  H    -136.695000   58.923400  -63.544700
  C    -136.435000   60.201900  -65.132800
  H    -137.160000   59.757200  -65.680900
  H    -136.975000   60.952600  -64.570400
  H    -135.652000   60.652800  -65.781900
  S    -133.447000   54.807300  -59.539600
  C    -133.312000   53.107000  -59.940300
  C    -132.931000   52.910700  -61.299800
  C    -132.723000   54.106500  -62.009400
  C    -133.057000   55.259300  -61.268300
  H    -132.697000   51.961900  -61.707100
  C    -132.613000   54.162700  -63.543500
  H    -133.462000   54.733500  -63.893200
  H    -132.642000   53.148000  -63.956700
  C    -131.380000   54.930300  -64.114500
  H    -130.403000   54.525300  -63.799000
  H    -131.475000   55.969300  -63.631200
  C    -131.511000   55.034700  -65.667600
  H    -132.458000   55.519700  -65.847800
  H    -131.504000   54.012800  -66.011800
  H    -130.795000   55.623400  -66.155200
  H    -133.529000   60.175800  -60.892200
  H    -133.323000   52.278700  -59.164200

 Total Charge           Charge          ....    0
 Multiplicity           Mult            ....    1
 Number of Electrons    NEL             ....  134
 Basis Dimension        Dim             ....  322

ORBITAL ENERGIES
----------------

  NO   OCC          E(Eh)            E(eV)
   0   2.0000     -88.966850     -2420.9111
   1   2.0000     -88.965162     -2420.8651
   2   2.0000     -10.334199      -281.2079
   3   2.0000     -10.331940      -281.1464
   4   2.0000     -10.328948      -281.0650
   5   2.0000     -10.310593      -280.5655
   6   2.0000     -10.309657      -280.5400
   7   2.0000     -10.303356      -280.3686
   8   2.0000     -10.298313      -280.2313
   9   2.0000     -10.296910      -280.1932
  10   2.0000     -10.295994      -280.1682
  11   2.0000     -10.294460      -280.1265
  12   2.0000     -10.293142      -280.0906
  13   2.0000     -10.291294      -280.0404
  14   2.0000     -10.273235      -279.5489
  15   2.0000     -10.271103      -279.4909
  16   2.0000      -8.080338      -219.8772
  17   2.0000      -8.079902      -219.8653
  18   2.0000      -6.038783      -164.3236
  19   2.0000      -6.038494      -164.3158
  20   2.0000      -6.034905      -164.2181
  21   2.0000      -6.034518      -164.2076
  22   2.0000      -6.031326      -164.1207
  23   2.0000      -6.030471      -164.0975
  24   2.0000      -1.001229       -27.2448
  25   2.0000      -0.977177       -26.5903
  26   2.0000      -0.913065       -24.8458
  27   2.0000      -0.902947       -24.5704
  28   2.0000      -0.870656       -23.6918
  29   2.0000      -0.851221       -23.1629
  30   2.0000      -0.847093       -23.0506
  31   2.0000      -0.811570       -22.0840
  32   2.0000      -0.783004       -21.3066
  33   2.0000      -0.769805       -20.9475
  34   2.0000      -0.706145       -19.2152
  35   2.0000      -0.693331       -18.8665
  36   2.0000      -0.683229       -18.5916
  37   2.0000      -0.665955       -18.1216
  38   2.0000      -0.644796       -17.5458
  39   2.0000      -0.616432       -16.7740
  40   2.0000      -0.591525       -16.0962
  41   2.0000      -0.577210       -15.7067
  42   2.0000      -0.568626       -15.4731
  43   2.0000      -0.560278       -15.2459
  44   2.0000      -0.530544       -14.4368
  45   2.0000      -0.521957       -14.2032
  46   2.0000      -0.513538       -13.9741
  47   2.0000      -0.505690       -13.7605
  48   2.0000      -0.505427       -13.7534
  49   2.0000      -0.501834       -13.6556
  50   2.0000      -0.490408       -13.3447
  51   2.0000      -0.485032       -13.1984
  52   2.0000      -0.469645       -12.7797
  53   2.0000      -0.467025       -12.7084
  54   2.0000      -0.454970       -12.3804
  55   2.0000      -0.447942       -12.1891
  56   2.0000      -0.442543       -12.0422
  57   2.0000      -0.434312       -11.8182
  58   2.0000      -0.432047       -11.7566
  59   2.0000      -0.426430       -11.6037
  60   2.0000      -0.422383       -11.4936
  61   2.0000      -0.420592       -11.4449
  62   2.0000      -0.415471       -11.3055
  63   2.0000      -0.342095        -9.3089
  64   2.0000      -0.334702        -9.1077
  65   2.0000      -0.330105        -8.9826
  66   2.0000      -0.286745        -7.8027
  67   0.0000       0.019308         0.5254
  68   0.0000       0.068569         1.8659
  69   0.0000       0.102580         2.7913
  70   0.0000       0.112492         3.0611
  71   0.0000       0.133426         3.6307

MULLIKEN ATOMIC CHARGES
-----------------------
   0 S :    0.108947
   1 C :   -0.121791
   2 C :   -0.050117
   3 C :    0.016940
   4 C :   -0.122612
   5 H :   -0.002390
   6 C :    0.065169
   7 H :    0.035675
   8 H :    0.030028
   9 C :   -0.128633
  10 H :    0.042470
  11 H :    0.040547
  12 C :   -0.004809
  13 H :    0.005485
  14 H :    0.023836
  15 H :    0.033222
  16 S :    0.090935
  17 C :   -0.106361
  18 C :   -0.040832
  19 C :    0.020294
  20 C :   -0.175084
  21 H :    0.008278
  22 C :    0.026318
  23 H :    0.024925
  24 H :    0.019775
  25 C :   -0.129851
  26 H :    0.036112
  27 H :    0.050544
  28 C :    0.002519
  29 H :    0.016835
  30 H :    0.028514
  31 H :    0.028306
  32 H :    0.041862
  33 H :    0.084943
Sum of atomic charges:    0.0000000

LOEWDIN ATOMIC CHARGES
----------------------
   0 S :    0.394751
   1 C :   -0.194564
   2 C :   -0.061166
   3 C :   -0.062101
   4 C :   -0.191948
   5 H :    0.021656
   6 C :   -0.031996
   7 H :    0.031551
   8 H :    0.037455
   9 C :   -0.045233
  10 H :    0.027382
  11 H :    0.030255
  12 C :   -0.056590
  13 H :    0.012210
  14 H :    0.023430
  15 H :    0.027746
  16 S :    0.385705
  17 C :   -0.191840
  18 C :   -0.071074
  19 C :   -0.052538
  20 C :   -0.173936
  21 H :    0.025265
  22 C :   -0.026898
  23 H :    0.028350
  24 H :    0.026107
  25 C :   -0.043334
  26 H :    0.021315
  27 H :    0.031304
  28 C :   -0.056177
  29 H :    0.023007
  30 H :    0.024212
  31 H :    0.018851
  32 H :    0.026631
  33 H :    0.042213

  Mayer bond orders larger than 0.100000
B(  0-S ,  1-C ) :   1.1236 B(  0-S ,  4-C ) :   1.1386 B(  1-C ,  2-C ) :   1.6508
B(  1-C , 32-H ) :   0.9671 B(  2-C ,  3-C ) :   1.1910 B(  2-C ,  6-C ) :   1.0196
B(  3-C ,  4-C ) :   1.5989 B(  3-C ,  5-H ) :   1.0021 B(  4-C , 20-C ) :   1.0368
B(  6-C ,  7-H ) :   0.9235 B(  6-C ,  8-H ) :   0.9492 B(  6-C ,  9-C ) :   1.0760
B(  9-C , 10-H ) :   0.9499 B(  9-C , 11-H ) :   0.9575 B(  9-C , 12-C ) :   1.0930
B( 12-C , 13-H ) :   0.9697 B( 12-C , 14-H ) :   0.9725 B( 12-C , 15-H ) :   0.9725
B( 16-S , 17-C ) :   1.1756 B( 16-S , 20-C ) :   1.1323 B( 17-C , 18-C ) :   1.5599
B( 17-C , 20-C ) :   0.1187 B( 17-C , 33-H ) :   0.9583 B( 18-C , 19-C ) :   1.2816
B( 18-C , 21-H ) :   0.9921 B( 19-C , 20-C ) :   1.5519 B( 19-C , 22-C ) :   1.0304
B( 22-C , 23-H ) :   0.9485 B( 22-C , 24-H ) :   0.9418 B( 22-C , 25-C ) :   1.0412
B( 25-C , 26-H ) :   0.9597 B( 25-C , 27-H ) :   0.9579 B( 25-C , 28-C ) :   1.0686
B( 28-C , 29-H ) :   0.9736 B( 28-C , 30-H ) :   0.9763 B( 28-C , 31-H ) :   0.9760

Dispersion correction           -0.013945690
FINAL SINGLE POINT ENERGY     -1339.865994000651

DIPOLE MOMENT
-------------
                                X             Y             Z
Electronic contribution:      5.62764      -6.95859      29.45980
Nuclear contribution   :     -5.87630       6.98428     -30.12362
                        -----------------------------------------
Total Dipole Moment    :     -0.24865       0.02569      -0.66382
                        -----------------------------------------
Magnitude (a.u.)       :      0.70933
Magnitude (Debye)      :      1.80297

Rotational constants in cm-1:     0.017122     0.008801     0.006829
Rotational constants in MHz :   513.300928   263.855369   204.715498

                             ****ORCA TERMINATED NORMALLY****
TOTAL RUN TIME: 0 days 0 hours 0 minutes 21 seconds 468 msec
