                         Program Version 4.2.1 -  RELEASE  -
|  1> ! wB97X-D3 SP def2-SVP
|  2> %pal
|  3> nprocs 24
|  4> end
|  5>
|  6> * xyz 0 1
|  7> S 	 -92.3214 	 52.5997 	 -98.0015
|  8> C 	 -91.2624 	 52.5577 	 -96.6039
|  9> C 	 -90.1571 	 51.7913 	 -96.9227
| 10> C 	 -90.226 	 51.1239 	 -98.1641
| 11> C 	 -91.3558 	 51.5065 	 -98.8769
| 12> H 	 -89.4363 	 50.459 	 -98.5854
| 13> C 	 -89.0324 	 51.4577 	 -95.9489
| 14> H 	 -88.7509 	 52.314 	 -95.3196
| 15> H 	 -88.1374 	 51.3988 	 -96.607
| 16> C 	 -89.1845 	 50.2362 	 -95.0815
| 17> H 	 -89.9585 	 50.2393 	 -94.342
| 18> H 	 -89.5253 	 49.4833 	 -95.7233
| 19> C 	 -87.9398 	 49.7572 	 -94.3818
| 20> H 	 -87.1163 	 49.5971 	 -94.983
| 21> H 	 -87.7148 	 50.2979 	 -93.4529
| 22> H 	 -88.2275 	 48.8093 	 -93.8734
| 23> S 	 -91.0495 	 51.2094 	 -101.502
| 24> C 	 -92.0086 	 50.0737 	 -102.372
| 25> C 	 -93.0374 	 49.5537 	 -101.658
| 26> C 	 -92.8485 	 50.0044 	 -100.271
| 27> C 	 -91.8337 	 50.9321 	 -100.064
| 28> H 	 -93.5998 	 48.7201 	 -102.073
| 29> C 	 -93.7096 	 49.3987 	 -99.1727
| 30> H 	 -93.1775 	 49.2692 	 -98.2583
| 31> H 	 -93.7867 	 48.391 	 -99.4655
| 32> C 	 -95.0516 	 49.9698 	 -98.9661
| 33> H 	 -95.512 	 50.0734 	 -99.9496
| 34> H 	 -94.8361 	 50.9599 	 -98.5764
| 35> C 	 -95.8667 	 48.9986 	 -98.1292
| 36> H 	 -95.3931 	 48.8525 	 -97.2116
| 37> H 	 -95.9939 	 47.9647 	 -98.5859
| 38> H 	 -96.8311 	 49.3762 	 -97.9258
| 39> H 	 -91.5064 	 53.0257 	 -95.649
| 40> H 	 -91.7739 	 49.7972 	 -103.402
| 41> *
| 42>
| 43>                          ****END OF INPUT****

CARTESIAN COORDINATES (ANGSTROEM)
---------------------------------
  S    -92.321400   52.599700  -98.001500
  C    -91.262400   52.557700  -96.603900
  C    -90.157100   51.791300  -96.922700
  C    -90.226000   51.123900  -98.164100
  C    -91.355800   51.506500  -98.876900
  H    -89.436300   50.459000  -98.585400
  C    -89.032400   51.457700  -95.948900
  H    -88.750900   52.314000  -95.319600
  H    -88.137400   51.398800  -96.607000
  C    -89.184500   50.236200  -95.081500
  H    -89.958500   50.239300  -94.342000
  H    -89.525300   49.483300  -95.723300
  C    -87.939800   49.757200  -94.381800
  H    -87.116300   49.597100  -94.983000
  H    -87.714800   50.297900  -93.452900
  H    -88.227500   48.809300  -93.873400
  S    -91.049500   51.209400  -101.502000
  C    -92.008600   50.073700  -102.372000
  C    -93.037400   49.553700  -101.658000
  C    -92.848500   50.004400  -100.271000
  C    -91.833700   50.932100  -100.064000
  H    -93.599800   48.720100  -102.073000
  C    -93.709600   49.398700  -99.172700
  H    -93.177500   49.269200  -98.258300
  H    -93.786700   48.391000  -99.465500
  C    -95.051600   49.969800  -98.966100
  H    -95.512000   50.073400  -99.949600
  H    -94.836100   50.959900  -98.576400
  C    -95.866700   48.998600  -98.129200
  H    -95.393100   48.852500  -97.211600
  H    -95.993900   47.964700  -98.585900
  H    -96.831100   49.376200  -97.925800
  H    -91.506400   53.025700  -95.649000
  H    -91.773900   49.797200  -103.402000

 Total Charge           Charge          ....    0
 Multiplicity           Mult            ....    1
 Number of Electrons    NEL             ....  134
 Basis Dimension        Dim             ....  322

ORBITAL ENERGIES
----------------

  NO   OCC          E(Eh)            E(eV)
   0   2.0000     -88.967444     -2420.9272
   1   2.0000     -88.959775     -2420.7186
   2   2.0000     -10.322803      -280.8977
   3   2.0000     -10.315513      -280.6994
   4   2.0000     -10.312217      -280.6097
   5   2.0000     -10.311440      -280.5886
   6   2.0000     -10.301889      -280.3286
   7   2.0000     -10.300331      -280.2863
   8   2.0000     -10.296950      -280.1943
   9   2.0000     -10.294800      -280.1358
  10   2.0000     -10.290045      -280.0063
  11   2.0000     -10.276197      -279.6295
  12   2.0000     -10.273275      -279.5500
  13   2.0000     -10.273110      -279.5455
  14   2.0000     -10.269699      -279.4527
  15   2.0000     -10.268716      -279.4260
  16   2.0000      -8.082646      -219.9400
  17   2.0000      -8.077084      -219.7886
  18   2.0000      -6.040943      -164.3824
  19   2.0000      -6.036874      -164.2717
  20   2.0000      -6.035365      -164.2306
  21   2.0000      -6.033806      -164.1882
  22   2.0000      -6.031124      -164.1152
  23   2.0000      -6.028027      -164.0310
  24   2.0000      -1.020486       -27.7688
  25   2.0000      -0.993068       -27.0227
  26   2.0000      -0.917375       -24.9631
  27   2.0000      -0.916592       -24.9417
  28   2.0000      -0.880679       -23.9645
  29   2.0000      -0.855325       -23.2746
  30   2.0000      -0.845589       -23.0097
  31   2.0000      -0.817482       -22.2448
  32   2.0000      -0.785635       -21.3782
  33   2.0000      -0.769282       -20.9332
  34   2.0000      -0.709328       -19.3018
  35   2.0000      -0.704673       -19.1751
  36   2.0000      -0.695102       -18.9147
  37   2.0000      -0.664416       -18.0797
  38   2.0000      -0.643754       -17.5174
  39   2.0000      -0.621818       -16.9205
  40   2.0000      -0.599624       -16.3166
  41   2.0000      -0.573495       -15.6056
  42   2.0000      -0.568191       -15.4613
  43   2.0000      -0.563206       -15.3256
  44   2.0000      -0.526507       -14.3270
  45   2.0000      -0.524566       -14.2742
  46   2.0000      -0.520293       -14.1579
  47   2.0000      -0.516268       -14.0484
  48   2.0000      -0.506495       -13.7824
  49   2.0000      -0.504967       -13.7409
  50   2.0000      -0.501008       -13.6331
  51   2.0000      -0.477251       -12.9867
  52   2.0000      -0.470926       -12.8145
  53   2.0000      -0.466650       -12.6982
  54   2.0000      -0.455808       -12.4032
  55   2.0000      -0.451861       -12.2958
  56   2.0000      -0.450095       -12.2477
  57   2.0000      -0.439066       -11.9476
  58   2.0000      -0.437404       -11.9024
  59   2.0000      -0.422209       -11.4889
  60   2.0000      -0.411409       -11.1950
  61   2.0000      -0.410675       -11.1750
  62   2.0000      -0.403740       -10.9863
  63   2.0000      -0.340120        -9.2551
  64   2.0000      -0.337491        -9.1836
  65   2.0000      -0.322687        -8.7808
  66   2.0000      -0.302314        -8.2264
  67   0.0000       0.038651         1.0518
  68   0.0000       0.073877         2.0103
  69   0.0000       0.117250         3.1905
  70   0.0000       0.119459         3.2506
  71   0.0000       0.134423         3.6578

MULLIKEN ATOMIC CHARGES
-----------------------
   0 S :    0.127432
   1 C :   -0.142507
   2 C :   -0.068499
   3 C :    0.024501
   4 C :   -0.173611
   5 H :    0.034394
   6 C :    0.049818
   7 H :    0.017240
   8 H :    0.018946
   9 C :   -0.012247
  10 H :    0.011537
  11 H :    0.000776
  12 C :   -0.030173
  13 H :    0.024641
  14 H :    0.027324
  15 H :    0.021389
  16 S :    0.117612
  17 C :   -0.108889
  18 C :   -0.009815
  19 C :   -0.078246
  20 C :   -0.137401
  21 H :    0.035335
  22 C :    0.074700
  23 H :    0.009007
  24 H :   -0.014697
  25 C :   -0.030176
  26 H :    0.018912
  27 H :    0.019264
  28 C :   -0.005605
  29 H :    0.010301
  30 H :    0.033863
  31 H :    0.020676
  32 H :    0.056984
  33 H :    0.057215
Sum of atomic charges:    0.0000000

LOEWDIN ATOMIC CHARGES
----------------------
   0 S :    0.442808
   1 C :   -0.199880
   2 C :   -0.065964
   3 C :   -0.062724
   4 C :   -0.212653
   5 H :    0.042657
   6 C :   -0.037131
   7 H :    0.027330
   8 H :    0.033032
   9 C :   -0.040870
  10 H :    0.024170
  11 H :    0.017521
  12 C :   -0.059764
  13 H :    0.012665
  14 H :    0.027576
  15 H :    0.034473
  16 S :    0.450560
  17 C :   -0.188665
  18 C :   -0.075267
  19 C :   -0.043606
  20 C :   -0.249310
  21 H :    0.039639
  22 C :   -0.038624
  23 H :    0.024054
  24 H :    0.019566
  25 C :   -0.037760
  26 H :    0.023267
  27 H :    0.018594
  28 C :   -0.056113
  29 H :    0.016422
  30 H :    0.034211
  31 H :    0.018871
  32 H :    0.032827
  33 H :    0.028090

  Mayer bond orders larger than 0.100000
B(  0-S ,  1-C ) :   1.1484 B(  0-S ,  4-C ) :   1.1891 B(  1-C ,  2-C ) :   1.5749
B(  1-C ,  4-C ) :   0.1027 B(  1-C , 32-H ) :   0.9762 B(  2-C ,  3-C ) :   1.2677
B(  2-C ,  6-C ) :   1.0280 B(  3-C ,  4-C ) :   1.5459 B(  3-C ,  5-H ) :   0.9889
B(  4-C , 20-C ) :   1.0081 B(  6-C ,  7-H ) :   0.9389 B(  6-C ,  8-H ) :   0.9377
B(  6-C ,  9-C ) :   1.0661 B(  9-C , 10-H ) :   0.9476 B(  9-C , 11-H ) :   0.9482
B(  9-C , 12-C ) :   1.0997 B( 12-C , 13-H ) :   0.9769 B( 12-C , 14-H ) :   0.9720
B( 12-C , 15-H ) :   0.9666 B( 16-S , 17-C ) :   1.1808 B( 16-S , 20-C ) :   1.1479
B( 17-C , 18-C ) :   1.6133 B( 17-C , 33-H ) :   0.9633 B( 18-C , 19-C ) :   1.2307
B( 18-C , 21-H ) :   0.9866 B( 19-C , 20-C ) :   1.6017 B( 19-C , 22-C ) :   1.0437
B( 22-C , 23-H ) :   0.9261 B( 22-C , 24-H ) :   0.9236 B( 22-C , 25-C ) :   1.0682
B( 25-C , 26-H ) :   0.9525 B( 25-C , 27-H ) :   0.9445 B( 25-C , 28-C ) :   1.0826
B( 28-C , 29-H ) :   0.9710 B( 28-C , 30-H ) :   0.9721 B( 28-C , 31-H ) :   0.9717

Dispersion correction           -0.014249888
FINAL SINGLE POINT ENERGY     -1339.864474953702

DIPOLE MOMENT
-------------
                                X             Y             Z
Electronic contribution:      0.97437      14.54290     -19.73691
Nuclear contribution   :     -0.88404     -15.10501      20.09197
                        -----------------------------------------
Total Dipole Moment    :      0.09033      -0.56211       0.35506
                        -----------------------------------------
Magnitude (a.u.)       :      0.67097
Magnitude (Debye)      :      1.70546

Rotational constants in cm-1:     0.018354     0.008253     0.007056
Rotational constants in MHz :   550.248572   247.432027   211.526104

                             ****ORCA TERMINATED NORMALLY****
TOTAL RUN TIME: 0 days 0 hours 0 minutes 20 seconds 404 msec
