                         Program Version 4.2.1 -  RELEASE  -
|  1> ! wB97X-D3 SP def2-SVP
|  2> %pal
|  3> nprocs 24
|  4> end
|  5>
|  6> * xyz 0 1
|  7> S 	 -97.3455 	 49.3377 	 -99.275
|  8> C 	 -96.8856 	 48.3144 	 -97.9778
|  9> C 	 -95.938 	 48.9281 	 -97.1821
| 10> C 	 -95.6382 	 50.2707 	 -97.6106
| 11> C 	 -96.2433 	 50.6315 	 -98.7923
| 12> H 	 -94.9132 	 50.9972 	 -97.2424
| 13> C 	 -95.3162 	 48.2973 	 -95.9759
| 14> H 	 -95.1352 	 47.2851 	 -96.2922
| 15> H 	 -96.1527 	 48.2408 	 -95.2598
| 16> C 	 -94.15 	 48.9716 	 -95.3312
| 17> H 	 -93.4912 	 49.3865 	 -96.0335
| 18> H 	 -94.6189 	 49.7842 	 -94.722
| 19> C 	 -93.3963 	 48.1168 	 -94.3548
| 20> H 	 -92.6408 	 48.6474 	 -93.9006
| 21> H 	 -94.0813 	 47.667 	 -93.5883
| 22> H 	 -92.8903 	 47.4289 	 -94.9913
| 23> S 	 -95.6058 	 51.447 	 -101.246
| 24> C 	 -95.7156 	 53.1707 	 -101.671
| 25> C 	 -96.0636 	 53.919 	 -100.544
| 26> C 	 -96.2505 	 53.1851 	 -99.3584
| 27> C 	 -96.1368 	 51.8164 	 -99.576
| 28> H 	 -96.0438 	 54.9954 	 -100.75
| 29> C 	 -96.6436 	 53.8209 	 -98.0546
| 30> H 	 -96.8036 	 52.987 	 -97.3394
| 31> H 	 -97.5979 	 54.3859 	 -98.1204
| 32> C 	 -95.4998 	 54.6225 	 -97.301
| 33> H 	 -95.1012 	 55.4554 	 -97.9035
| 34> H 	 -94.5657 	 54.0702 	 -97.1217
| 35> C 	 -96.1267 	 55.086 	 -95.9379
| 36> H 	 -95.3925 	 55.5431 	 -95.3194
| 37> H 	 -96.7055 	 54.3436 	 -95.3732
| 38> H 	 -96.859 	 55.927 	 -96.1579
| 39> H 	 -97.4273 	 47.3111 	 -97.8575
| 40> H 	 -95.4455 	 53.6506 	 -102.63
| 41> *
| 42>
| 43>                          ****END OF INPUT****

CARTESIAN COORDINATES (ANGSTROEM)
---------------------------------
  S    -97.345500   49.337700  -99.275000
  C    -96.885600   48.314400  -97.977800
  C    -95.938000   48.928100  -97.182100
  C    -95.638200   50.270700  -97.610600
  C    -96.243300   50.631500  -98.792300
  H    -94.913200   50.997200  -97.242400
  C    -95.316200   48.297300  -95.975900
  H    -95.135200   47.285100  -96.292200
  H    -96.152700   48.240800  -95.259800
  C    -94.150000   48.971600  -95.331200
  H    -93.491200   49.386500  -96.033500
  H    -94.618900   49.784200  -94.722000
  C    -93.396300   48.116800  -94.354800
  H    -92.640800   48.647400  -93.900600
  H    -94.081300   47.667000  -93.588300
  H    -92.890300   47.428900  -94.991300
  S    -95.605800   51.447000  -101.246000
  C    -95.715600   53.170700  -101.671000
  C    -96.063600   53.919000  -100.544000
  C    -96.250500   53.185100  -99.358400
  C    -96.136800   51.816400  -99.576000
  H    -96.043800   54.995400  -100.750000
  C    -96.643600   53.820900  -98.054600
  H    -96.803600   52.987000  -97.339400
  H    -97.597900   54.385900  -98.120400
  C    -95.499800   54.622500  -97.301000
  H    -95.101200   55.455400  -97.903500
  H    -94.565700   54.070200  -97.121700
  C    -96.126700   55.086000  -95.937900
  H    -95.392500   55.543100  -95.319400
  H    -96.705500   54.343600  -95.373200
  H    -96.859000   55.927000  -96.157900
  H    -97.427300   47.311100  -97.857500
  H    -95.445500   53.650600  -102.630000

 Total Charge           Charge          ....    0
 Multiplicity           Mult            ....    1
 Number of Electrons    NEL             ....  134
 Basis Dimension        Dim             ....  322

ORBITAL ENERGIES
----------------

  NO   OCC          E(Eh)            E(eV)
   0   2.0000     -88.964262     -2420.8406
   1   2.0000     -88.960235     -2420.7311
   2   2.0000     -10.327666      -281.0301
   3   2.0000     -10.324854      -280.9536
   4   2.0000     -10.320399      -280.8323
   5   2.0000     -10.315344      -280.6948
   6   2.0000     -10.305273      -280.4207
   7   2.0000     -10.302048      -280.3330
   8   2.0000     -10.297775      -280.2167
   9   2.0000     -10.296800      -280.1902
  10   2.0000     -10.294044      -280.1152
  11   2.0000     -10.293519      -280.1009
  12   2.0000     -10.285001      -279.8691
  13   2.0000     -10.283595      -279.8308
  14   2.0000     -10.279964      -279.7320
  15   2.0000     -10.271613      -279.5048
  16   2.0000      -8.077913      -219.8112
  17   2.0000      -8.075573      -219.7475
  18   2.0000      -6.036498      -164.2615
  19   2.0000      -6.033995      -164.1934
  20   2.0000      -6.032535      -164.1536
  21   2.0000      -6.029878      -164.0813
  22   2.0000      -6.028672      -164.0485
  23   2.0000      -6.026484      -163.9890
  24   2.0000      -1.006065       -27.3764
  25   2.0000      -0.980671       -26.6854
  26   2.0000      -0.921646       -25.0793
  27   2.0000      -0.900428       -24.5019
  28   2.0000      -0.875134       -23.8136
  29   2.0000      -0.851164       -23.1614
  30   2.0000      -0.846018       -23.0213
  31   2.0000      -0.816436       -22.2163
  32   2.0000      -0.779858       -21.2210
  33   2.0000      -0.766405       -20.8549
  34   2.0000      -0.714570       -19.4444
  35   2.0000      -0.702088       -19.1048
  36   2.0000      -0.686120       -18.6703
  37   2.0000      -0.656841       -17.8736
  38   2.0000      -0.643401       -17.5078
  39   2.0000      -0.616365       -16.7722
  40   2.0000      -0.593400       -16.1472
  41   2.0000      -0.584160       -15.8958
  42   2.0000      -0.564153       -15.3514
  43   2.0000      -0.554183       -15.0801
  44   2.0000      -0.527889       -14.3646
  45   2.0000      -0.524312       -14.2673
  46   2.0000      -0.516754       -14.0616
  47   2.0000      -0.508525       -13.8377
  48   2.0000      -0.504598       -13.7308
  49   2.0000      -0.503235       -13.6937
  50   2.0000      -0.491210       -13.3665
  51   2.0000      -0.480169       -13.0661
  52   2.0000      -0.471851       -12.8397
  53   2.0000      -0.467139       -12.7115
  54   2.0000      -0.460381       -12.5276
  55   2.0000      -0.445537       -12.1237
  56   2.0000      -0.440530       -11.9874
  57   2.0000      -0.436439       -11.8761
  58   2.0000      -0.435373       -11.8471
  59   2.0000      -0.423587       -11.5264
  60   2.0000      -0.417519       -11.3613
  61   2.0000      -0.413572       -11.2539
  62   2.0000      -0.411287       -11.1917
  63   2.0000      -0.344860        -9.3841
  64   2.0000      -0.332406        -9.0452
  65   2.0000      -0.323830        -8.8119
  66   2.0000      -0.289962        -7.8903
  67   0.0000       0.031113         0.8466
  68   0.0000       0.064332         1.7506
  69   0.0000       0.114482         3.1152
  70   0.0000       0.124859         3.3976
  71   0.0000       0.130332         3.5465

MULLIKEN ATOMIC CHARGES
-----------------------
   0 S :    0.112728
   1 C :   -0.166782
   2 C :   -0.093017
   3 C :    0.027579
   4 C :   -0.167844
   5 H :    0.017607
   6 C :    0.074848
   7 H :    0.017994
   8 H :    0.036782
   9 C :   -0.093206
  10 H :    0.023428
  11 H :    0.026808
  12 C :    0.021445
  13 H :    0.010945
  14 H :    0.040081
  15 H :    0.017887
  16 S :    0.096798
  17 C :   -0.109197
  18 C :   -0.059289
  19 C :    0.041106
  20 C :   -0.171894
  21 H :    0.025253
  22 C :    0.022895
  23 H :    0.025618
  24 H :    0.050340
  25 C :   -0.089163
  26 H :    0.031189
  27 H :    0.033015
  28 C :   -0.055047
  29 H :    0.028977
  30 H :    0.040473
  31 H :    0.032713
  32 H :    0.082453
  33 H :    0.066476
Sum of atomic charges:   -0.0000000

LOEWDIN ATOMIC CHARGES
----------------------
   0 S :    0.413508
   1 C :   -0.222888
   2 C :   -0.065204
   3 C :   -0.069803
   4 C :   -0.198994
   5 H :    0.034870
   6 C :   -0.037488
   7 H :    0.027359
   8 H :    0.039222
   9 C :   -0.042690
  10 H :    0.016538
  11 H :    0.028805
  12 C :   -0.050443
  13 H :    0.015714
  14 H :    0.033332
  15 H :    0.023165
  16 S :    0.383588
  17 C :   -0.184673
  18 C :   -0.076099
  19 C :   -0.059802
  20 C :   -0.182173
  21 H :    0.035910
  22 C :   -0.033536
  23 H :    0.033806
  24 H :    0.038350
  25 C :   -0.039601
  26 H :    0.022791
  27 H :    0.024000
  28 C :   -0.069720
  29 H :    0.019452
  30 H :    0.027141
  31 H :    0.032127
  32 H :    0.046828
  33 H :    0.036609

  Mayer bond orders larger than 0.100000
B(  0-S ,  1-C ) :   1.1498 B(  0-S ,  4-C ) :   1.1560 B(  1-C ,  2-C ) :   1.5940
B(  1-C ,  4-C ) :   0.1012 B(  1-C , 32-H ) :   0.9646 B(  2-C ,  3-C ) :   1.2369
B(  2-C ,  6-C ) :   1.0036 B(  3-C ,  4-C ) :   1.5685 B(  3-C ,  5-H ) :   0.9939
B(  4-C , 20-C ) :   1.0397 B(  6-C ,  7-H ) :   0.9416 B(  6-C ,  8-H ) :   0.9253
B(  6-C ,  9-C ) :   1.0891 B(  9-C , 10-H ) :   0.9562 B(  9-C , 11-H ) :   0.9396
B(  9-C , 12-C ) :   1.0954 B( 12-C , 13-H ) :   0.9676 B( 12-C , 14-H ) :   0.9718
B( 12-C , 15-H ) :   0.9725 B( 16-S , 17-C ) :   1.1396 B( 16-S , 20-C ) :   1.1411
B( 17-C , 18-C ) :   1.6283 B( 17-C , 20-C ) :   0.1118 B( 17-C , 33-H ) :   0.9629
B( 18-C , 19-C ) :   1.2084 B( 18-C , 21-H ) :   0.9892 B( 19-C , 20-C ) :   1.5894
B( 19-C , 22-C ) :   1.0451 B( 22-C , 23-H ) :   0.9349 B( 22-C , 24-H ) :   0.9455
B( 22-C , 25-C ) :   1.0417 B( 25-C , 26-H ) :   0.9586 B( 25-C , 27-H ) :   0.9583
B( 25-C , 28-C ) :   1.0707 B( 28-C , 29-H ) :   0.9752 B( 28-C , 30-H ) :   0.9766
B( 28-C , 31-H ) :   0.9753

Dispersion correction           -0.013579816
FINAL SINGLE POINT ENERGY     -1339.870755395257

DIPOLE MOMENT
-------------
                                X             Y             Z
Electronic contribution:     -9.14006      -7.00622     -27.76233
Nuclear contribution   :      9.41400       7.29274      28.35451
                        -----------------------------------------
Total Dipole Moment    :      0.27394       0.28652       0.59218
                        -----------------------------------------
Magnitude (a.u.)       :      0.71261
Magnitude (Debye)      :      1.81131

Rotational constants in cm-1:     0.016120     0.008991     0.006610
Rotational constants in MHz :   483.251714   269.549474   198.173644

                             ****ORCA TERMINATED NORMALLY****
TOTAL RUN TIME: 0 days 0 hours 0 minutes 20 seconds 128 msec
