                         Program Version 4.2.1 -  RELEASE  -
|  1> ! wB97X-D3 SP def2-SVP
|  2> %pal
|  3> nprocs 24
|  4> end
|  5>
|  6> * xyz 0 1
|  7> S 	 41.2612 	 -9.78626 	 -106.122
|  8> C 	 42.0186 	 -8.24942 	 -106.228
|  9> C 	 41.7683 	 -7.63614 	 -107.436
| 10> C 	 41.0203 	 -8.5103 	 -108.327
| 11> C 	 40.5998 	 -9.69067 	 -107.733
| 12> H 	 40.6386 	 -8.27652 	 -109.3
| 13> C 	 42.122 	 -6.23387 	 -107.761
| 14> H 	 42.7052 	 -5.96557 	 -106.97
| 15> H 	 41.3685 	 -5.58939 	 -107.693
| 16> C 	 43.0352 	 -6.03508 	 -109.016
| 17> H 	 43.8736 	 -6.75314 	 -108.9
| 18> H 	 42.5428 	 -6.37202 	 -110.024
| 19> C 	 43.7243 	 -4.67507 	 -109.123
| 20> H 	 44.0384 	 -4.31793 	 -108.083
| 21> H 	 44.5111 	 -4.53313 	 -109.923
| 22> H 	 42.9763 	 -3.9248 	 -109.355
| 23> S 	 40.2605 	 -12.3875 	 -107.831
| 24> C 	 39.0462 	 -13.0496 	 -108.853
| 25> C 	 38.2116 	 -12.0781 	 -109.367
| 26> C 	 38.6336 	 -10.7459 	 -109.116
| 27> C 	 39.7697 	 -10.7336 	 -108.344
| 28> H 	 37.3375 	 -12.3663 	 -109.906
| 29> C 	 37.7964 	 -9.65297 	 -109.67
| 30> H 	 37.2482 	 -10.0555 	 -110.598
| 31> H 	 38.4624 	 -8.88343 	 -110.048
| 32> C 	 36.67 	 -9.07469 	 -108.741
| 33> H 	 36.3953 	 -8.05966 	 -109.141
| 34> H 	 37.034 	 -8.68363 	 -107.826
| 35> C 	 35.4441 	 -9.94521 	 -108.576
| 36> H 	 35.17 	 -10.3966 	 -109.5
| 37> H 	 34.5597 	 -9.40967 	 -108.205
| 38> H 	 35.5977 	 -10.5654 	 -107.759
| 39> H 	 42.5597 	 -7.69617 	 -105.499
| 40> H 	 38.8198 	 -14.0632 	 -108.986
| 41> *
| 42>
| 43>                          ****END OF INPUT****

CARTESIAN COORDINATES (ANGSTROEM)
---------------------------------
  S     41.261200   -9.786260  -106.122000
  C     42.018600   -8.249420  -106.228000
  C     41.768300   -7.636140  -107.436000
  C     41.020300   -8.510300  -108.327000
  C     40.599800   -9.690670  -107.733000
  H     40.638600   -8.276520  -109.300000
  C     42.122000   -6.233870  -107.761000
  H     42.705200   -5.965570  -106.970000
  H     41.368500   -5.589390  -107.693000
  C     43.035200   -6.035080  -109.016000
  H     43.873600   -6.753140  -108.900000
  H     42.542800   -6.372020  -110.024000
  C     43.724300   -4.675070  -109.123000
  H     44.038400   -4.317930  -108.083000
  H     44.511100   -4.533130  -109.923000
  H     42.976300   -3.924800  -109.355000
  S     40.260500  -12.387500  -107.831000
  C     39.046200  -13.049600  -108.853000
  C     38.211600  -12.078100  -109.367000
  C     38.633600  -10.745900  -109.116000
  C     39.769700  -10.733600  -108.344000
  H     37.337500  -12.366300  -109.906000
  C     37.796400   -9.652970  -109.670000
  H     37.248200  -10.055500  -110.598000
  H     38.462400   -8.883430  -110.048000
  C     36.670000   -9.074690  -108.741000
  H     36.395300   -8.059660  -109.141000
  H     37.034000   -8.683630  -107.826000
  C     35.444100   -9.945210  -108.576000
  H     35.170000  -10.396600  -109.500000
  H     34.559700   -9.409670  -108.205000
  H     35.597700  -10.565400  -107.759000
  H     42.559700   -7.696170  -105.499000
  H     38.819800  -14.063200  -108.986000

 Total Charge           Charge          ....    0
 Multiplicity           Mult            ....    1
 Number of Electrons    NEL             ....  134
 Basis Dimension        Dim             ....  322

ORBITAL ENERGIES
----------------

  NO   OCC          E(Eh)            E(eV)
   0   2.0000     -88.966756     -2420.9085
   1   2.0000     -88.965220     -2420.8667
   2   2.0000     -10.330925      -281.1188
   3   2.0000     -10.329127      -281.0698
   4   2.0000     -10.310204      -280.5549
   5   2.0000     -10.308535      -280.5095
   6   2.0000     -10.301995      -280.3315
   7   2.0000     -10.300726      -280.2970
   8   2.0000     -10.299125      -280.2534
   9   2.0000     -10.297824      -280.2180
  10   2.0000     -10.290323      -280.0139
  11   2.0000     -10.288209      -279.9564
  12   2.0000     -10.287397      -279.9343
  13   2.0000     -10.287329      -279.9325
  14   2.0000     -10.277085      -279.6537
  15   2.0000     -10.270843      -279.4838
  16   2.0000      -8.081905      -219.9198
  17   2.0000      -8.079948      -219.8666
  18   2.0000      -6.040479      -164.3698
  19   2.0000      -6.038451      -164.3146
  20   2.0000      -6.036367      -164.2579
  21   2.0000      -6.034575      -164.2091
  22   2.0000      -6.032550      -164.1540
  23   2.0000      -6.030596      -164.1009
  24   2.0000      -1.007964       -27.4281
  25   2.0000      -0.986945       -26.8561
  26   2.0000      -0.915124       -24.9018
  27   2.0000      -0.909543       -24.7499
  28   2.0000      -0.869474       -23.6596
  29   2.0000      -0.857895       -23.3445
  30   2.0000      -0.845212       -22.9994
  31   2.0000      -0.817019       -22.2322
  32   2.0000      -0.787536       -21.4300
  33   2.0000      -0.776126       -21.1195
  34   2.0000      -0.715068       -19.4580
  35   2.0000      -0.701223       -19.0813
  36   2.0000      -0.691484       -18.8162
  37   2.0000      -0.668419       -18.1886
  38   2.0000      -0.643847       -17.5200
  39   2.0000      -0.619050       -16.8452
  40   2.0000      -0.595453       -16.2031
  41   2.0000      -0.574111       -15.6224
  42   2.0000      -0.562992       -15.3198
  43   2.0000      -0.556249       -15.1363
  44   2.0000      -0.540420       -14.7056
  45   2.0000      -0.526900       -14.3377
  46   2.0000      -0.518252       -14.1023
  47   2.0000      -0.510927       -13.9030
  48   2.0000      -0.505152       -13.7459
  49   2.0000      -0.501320       -13.6416
  50   2.0000      -0.491532       -13.3753
  51   2.0000      -0.482682       -13.1344
  52   2.0000      -0.473106       -12.8739
  53   2.0000      -0.462634       -12.5889
  54   2.0000      -0.461838       -12.5672
  55   2.0000      -0.455372       -12.3913
  56   2.0000      -0.443925       -12.0798
  57   2.0000      -0.438940       -11.9442
  58   2.0000      -0.433797       -11.8042
  59   2.0000      -0.428309       -11.6549
  60   2.0000      -0.419909       -11.4263
  61   2.0000      -0.409451       -11.1417
  62   2.0000      -0.405425       -11.0322
  63   2.0000      -0.354601        -9.6492
  64   2.0000      -0.332358        -9.0439
  65   2.0000      -0.327407        -8.9092
  66   2.0000      -0.287415        -7.8209
  67   0.0000       0.028489         0.7752
  68   0.0000       0.074546         2.0285
  69   0.0000       0.106986         2.9112
  70   0.0000       0.118789         3.2324
  71   0.0000       0.139817         3.8046

MULLIKEN ATOMIC CHARGES
-----------------------
   0 S :    0.116212
   1 C :   -0.090365
   2 C :   -0.138755
   3 C :    0.028097
   4 C :   -0.128517
   5 H :   -0.003704
   6 C :    0.205883
   7 H :   -0.037118
   8 H :    0.005077
   9 C :   -0.129913
  10 H :    0.035617
  11 H :    0.047171
  12 C :   -0.068276
  13 H :    0.032254
  14 H :    0.056984
  15 H :    0.020177
  16 S :    0.098102
  17 C :   -0.049440
  18 C :   -0.051841
  19 C :    0.006086
  20 C :   -0.164424
  21 H :    0.005557
  22 C :    0.031868
  23 H :    0.034199
  24 H :    0.022697
  25 C :   -0.058261
  26 H :    0.018731
  27 H :    0.014570
  28 C :    0.002601
  29 H :    0.023068
  30 H :    0.024121
  31 H :    0.026455
  32 H :    0.032066
  33 H :    0.033021
Sum of atomic charges:    0.0000000

LOEWDIN ATOMIC CHARGES
----------------------
   0 S :    0.416939
   1 C :   -0.208155
   2 C :   -0.054262
   3 C :   -0.065015
   4 C :   -0.195881
   5 H :    0.023110
   6 C :   -0.018369
   7 H :    0.021122
   8 H :    0.014886
   9 C :   -0.047789
  10 H :    0.027585
  11 H :    0.030495
  12 C :   -0.081182
  13 H :    0.031570
  14 H :    0.036800
  15 H :    0.019887
  16 S :    0.396337
  17 C :   -0.181919
  18 C :   -0.066996
  19 C :   -0.058544
  20 C :   -0.173829
  21 H :    0.025886
  22 C :   -0.031173
  23 H :    0.039657
  24 H :    0.029181
  25 C :   -0.039796
  26 H :    0.028032
  27 H :    0.020508
  28 C :   -0.060847
  29 H :    0.020505
  30 H :    0.033604
  31 H :    0.022277
  32 H :    0.025976
  33 H :    0.019401

  Mayer bond orders larger than 0.100000
B(  0-S ,  1-C ) :   1.1300 B(  0-S ,  4-C ) :   1.1459 B(  1-C ,  2-C ) :   1.6316
B(  1-C , 32-H ) :   0.9618 B(  2-C ,  3-C ) :   1.2206 B(  2-C ,  6-C ) :   1.0358
B(  3-C ,  4-C ) :   1.5872 B(  3-C ,  5-H ) :   0.9975 B(  4-C , 20-C ) :   1.0494
B(  6-C ,  7-H ) :   0.9077 B(  6-C ,  8-H ) :   0.9271 B(  6-C ,  9-C ) :   1.0437
B(  9-C , 10-H ) :   0.9587 B(  9-C , 11-H ) :   0.9556 B(  9-C , 12-C ) :   1.0781
B( 12-C , 13-H ) :   0.9702 B( 12-C , 14-H ) :   0.9745 B( 12-C , 15-H ) :   0.9721
B( 16-S , 17-C ) :   1.1533 B( 16-S , 20-C ) :   1.1265 B( 17-C , 18-C ) :   1.6220
B( 17-C , 33-H ) :   0.9706 B( 18-C , 19-C ) :   1.2297 B( 18-C , 21-H ) :   0.9910
B( 19-C , 20-C ) :   1.6070 B( 19-C , 22-C ) :   1.0379 B( 22-C , 23-H ) :   0.9407
B( 22-C , 24-H ) :   0.9293 B( 22-C , 25-C ) :   1.0704 B( 25-C , 26-H ) :   0.9535
B( 25-C , 27-H ) :   0.9539 B( 25-C , 28-C ) :   1.0779 B( 28-C , 29-H ) :   0.9747
B( 28-C , 30-H ) :   0.9671 B( 28-C , 31-H ) :   0.9729

Dispersion correction           -0.013767805
FINAL SINGLE POINT ENERGY     -1339.853378675729

DIPOLE MOMENT
-------------
                                X             Y             Z
Electronic contribution:      6.39599     -22.84672      11.08915
Nuclear contribution   :     -6.83181      23.36777     -11.33049
                        -----------------------------------------
Total Dipole Moment    :     -0.43582       0.52105      -0.24135
                        -----------------------------------------
Magnitude (a.u.)       :      0.72089
Magnitude (Debye)      :      1.83235

Rotational constants in cm-1:     0.019962     0.007636     0.006410
Rotational constants in MHz :   598.432832   228.921259   192.177312

                             ****ORCA TERMINATED NORMALLY****
TOTAL RUN TIME: 0 days 0 hours 0 minutes 21 seconds 244 msec
