                         Program Version 4.2.1 -  RELEASE  -
|  1> ! wB97X-D3 SP def2-SVP
|  2> %pal
|  3> nprocs 24
|  4> end
|  5>
|  6> * xyz 0 1
|  7> S 	 -44.1071 	 15.6427 	 28.3119
|  8> C 	 -44.3584 	 17.1236 	 27.5219
|  9> C 	 -44.9134 	 18.1036 	 28.3862
| 10> C 	 -45.1084 	 17.5907 	 29.6857
| 11> C 	 -44.6249 	 16.3132 	 29.8245
| 12> H 	 -45.4651 	 18.1509 	 30.5341
| 13> C 	 -45.5765 	 19.4204 	 28.0178
| 14> H 	 -46.1196 	 19.7124 	 28.9511
| 15> H 	 -46.2484 	 19.3049 	 27.2074
| 16> C 	 -44.7754 	 20.7268 	 27.7032
| 17> H 	 -44.072 	 20.4827 	 26.8967
| 18> H 	 -45.3621 	 21.4922 	 27.1679
| 19> C 	 -43.877 	 21.2869 	 28.8996
| 20> H 	 -43.2625 	 20.4378 	 29.2799
| 21> H 	 -43.2438 	 22.1653 	 28.5605
| 22> H 	 -44.514 	 21.6254 	 29.7009
| 23> S 	 -45.5925 	 13.9545 	 30.8515
| 24> C 	 -45.1598 	 13.4808 	 32.5334
| 25> C 	 -44.4781 	 14.4857 	 33.1753
| 26> C 	 -44.288 	 15.6368 	 32.3033
| 27> C 	 -44.7689 	 15.4305 	 31.0324
| 28> H 	 -44.1556 	 14.4065 	 34.2317
| 29> C 	 -43.5474 	 16.8759 	 32.725
| 30> H 	 -43.4264 	 17.5891 	 31.867
| 31> H 	 -42.556 	 16.6045 	 33.0476
| 32> C 	 -44.1651 	 17.7463 	 33.8463
| 33> H 	 -44.191 	 17.1562 	 34.7145
| 34> H 	 -45.2087 	 17.8857 	 33.4236
| 35> C 	 -43.4198 	 19.0701 	 34.1486
| 36> H 	 -42.4704 	 18.8371 	 34.5941
| 37> H 	 -43.9085 	 19.8251 	 34.7652
| 38> H 	 -43.1248 	 19.489 	 33.203
| 39> H 	 -44.3551 	 17.1769 	 26.4466
| 40> H 	 -45.3747 	 12.6091 	 33.0645
| 41> *
| 42>
| 43>                          ****END OF INPUT****

CARTESIAN COORDINATES (ANGSTROEM)
---------------------------------
  S    -44.107100   15.642700   28.311900
  C    -44.358400   17.123600   27.521900
  C    -44.913400   18.103600   28.386200
  C    -45.108400   17.590700   29.685700
  C    -44.624900   16.313200   29.824500
  H    -45.465100   18.150900   30.534100
  C    -45.576500   19.420400   28.017800
  H    -46.119600   19.712400   28.951100
  H    -46.248400   19.304900   27.207400
  C    -44.775400   20.726800   27.703200
  H    -44.072000   20.482700   26.896700
  H    -45.362100   21.492200   27.167900
  C    -43.877000   21.286900   28.899600
  H    -43.262500   20.437800   29.279900
  H    -43.243800   22.165300   28.560500
  H    -44.514000   21.625400   29.700900
  S    -45.592500   13.954500   30.851500
  C    -45.159800   13.480800   32.533400
  C    -44.478100   14.485700   33.175300
  C    -44.288000   15.636800   32.303300
  C    -44.768900   15.430500   31.032400
  H    -44.155600   14.406500   34.231700
  C    -43.547400   16.875900   32.725000
  H    -43.426400   17.589100   31.867000
  H    -42.556000   16.604500   33.047600
  C    -44.165100   17.746300   33.846300
  H    -44.191000   17.156200   34.714500
  H    -45.208700   17.885700   33.423600
  C    -43.419800   19.070100   34.148600
  H    -42.470400   18.837100   34.594100
  H    -43.908500   19.825100   34.765200
  H    -43.124800   19.489000   33.203000
  H    -44.355100   17.176900   26.446600
  H    -45.374700   12.609100   33.064500

 Total Charge           Charge          ....    0
 Multiplicity           Mult            ....    1
 Number of Electrons    NEL             ....  134
 Basis Dimension        Dim             ....  322

ORBITAL ENERGIES
----------------

  NO   OCC          E(Eh)            E(eV)
   0   2.0000     -88.971893     -2421.0483
   1   2.0000     -88.968144     -2420.9463
   2   2.0000     -10.329227      -281.0726
   3   2.0000     -10.324859      -280.9537
   4   2.0000     -10.316605      -280.7291
   5   2.0000     -10.315102      -280.6882
   6   2.0000     -10.305367      -280.4233
   7   2.0000     -10.301705      -280.3236
   8   2.0000     -10.299948      -280.2758
   9   2.0000     -10.294748      -280.1343
  10   2.0000     -10.293105      -280.0896
  11   2.0000     -10.292158      -280.0639
  12   2.0000     -10.288204      -279.9563
  13   2.0000     -10.286992      -279.9233
  14   2.0000     -10.286920      -279.9213
  15   2.0000     -10.278053      -279.6801
  16   2.0000      -8.087604      -220.0749
  17   2.0000      -8.082882      -219.9464
  18   2.0000      -6.045847      -164.5159
  19   2.0000      -6.041864      -164.4075
  20   2.0000      -6.041530      -164.3984
  21   2.0000      -6.038708      -164.3216
  22   2.0000      -6.037418      -164.2865
  23   2.0000      -6.033449      -164.1785
  24   2.0000      -1.012657       -27.5558
  25   2.0000      -0.988495       -26.8983
  26   2.0000      -0.906876       -24.6773
  27   2.0000      -0.902831       -24.5673
  28   2.0000      -0.867763       -23.6130
  29   2.0000      -0.853858       -23.2346
  30   2.0000      -0.846116       -23.0240
  31   2.0000      -0.816404       -22.2155
  32   2.0000      -0.779978       -21.2243
  33   2.0000      -0.770606       -20.9693
  34   2.0000      -0.704003       -19.1569
  35   2.0000      -0.699069       -19.0226
  36   2.0000      -0.693870       -18.8812
  37   2.0000      -0.662537       -18.0286
  38   2.0000      -0.647052       -17.6072
  39   2.0000      -0.617542       -16.8042
  40   2.0000      -0.594217       -16.1695
  41   2.0000      -0.569841       -15.5062
  42   2.0000      -0.566811       -15.4237
  43   2.0000      -0.548790       -14.9333
  44   2.0000      -0.537518       -14.6266
  45   2.0000      -0.521126       -14.1806
  46   2.0000      -0.518841       -14.1184
  47   2.0000      -0.508148       -13.8274
  48   2.0000      -0.506344       -13.7783
  49   2.0000      -0.491888       -13.3849
  50   2.0000      -0.487848       -13.2750
  51   2.0000      -0.479238       -13.0407
  52   2.0000      -0.474754       -12.9187
  53   2.0000      -0.464743       -12.6463
  54   2.0000      -0.462080       -12.5738
  55   2.0000      -0.454580       -12.3698
  56   2.0000      -0.444809       -12.1039
  57   2.0000      -0.437881       -11.9153
  58   2.0000      -0.430809       -11.7229
  59   2.0000      -0.429963       -11.6999
  60   2.0000      -0.421162       -11.4604
  61   2.0000      -0.416559       -11.3352
  62   2.0000      -0.406366       -11.0578
  63   2.0000      -0.350135        -9.5277
  64   2.0000      -0.335041        -9.1169
  65   2.0000      -0.328308        -8.9337
  66   2.0000      -0.296050        -8.0559
  67   0.0000       0.033021         0.8986
  68   0.0000       0.067883         1.8472
  69   0.0000       0.108539         2.9535
  70   0.0000       0.120956         3.2914
  71   0.0000       0.125065         3.4032

MULLIKEN ATOMIC CHARGES
-----------------------
   0 S :    0.134281
   1 C :   -0.116758
   2 C :   -0.077584
   3 C :    0.032609
   4 C :   -0.164587
   5 H :    0.017935
   6 C :    0.053541
   7 H :    0.025607
   8 H :    0.031748
   9 C :   -0.085058
  10 H :    0.018300
  11 H :    0.031098
  12 C :   -0.088146
  13 H :    0.051645
  14 H :    0.052102
  15 H :    0.029819
  16 S :    0.110782
  17 C :   -0.068942
  18 C :   -0.036427
  19 C :   -0.029179
  20 C :   -0.148051
  21 H :    0.037068
  22 C :    0.024583
  23 H :    0.028772
  24 H :    0.019393
  25 C :   -0.086840
  26 H :    0.018334
  27 H :    0.034652
  28 C :   -0.012473
  29 H :    0.018084
  30 H :    0.048766
  31 H :    0.012831
  32 H :    0.050777
  33 H :    0.031317
Sum of atomic charges:    0.0000000

LOEWDIN ATOMIC CHARGES
----------------------
   0 S :    0.449657
   1 C :   -0.213838
   2 C :   -0.065821
   3 C :   -0.060115
   4 C :   -0.199392
   5 H :    0.032507
   6 C :   -0.031228
   7 H :    0.034275
   8 H :    0.029091
   9 C :   -0.049056
  10 H :    0.019877
  11 H :    0.025551
  12 C :   -0.072857
  13 H :    0.032019
  14 H :    0.035205
  15 H :    0.017557
  16 S :    0.405204
  17 C :   -0.166184
  18 C :   -0.063604
  19 C :   -0.062686
  20 C :   -0.211713
  21 H :    0.039580
  22 C :   -0.037187
  23 H :    0.031079
  24 H :    0.023621
  25 C :   -0.038062
  26 H :    0.011093
  27 H :    0.027300
  28 C :   -0.063300
  29 H :    0.024383
  30 H :    0.030787
  31 H :    0.021870
  32 H :    0.024813
  33 H :    0.019574

  Mayer bond orders larger than 0.100000
B(  0-S ,  1-C ) :   1.1792 B(  0-S ,  4-C ) :   1.1823 B(  1-C ,  2-C ) :   1.5494
B(  1-C , 32-H ) :   0.9709 B(  2-C ,  3-C ) :   1.2907 B(  2-C ,  6-C ) :   1.0131
B(  3-C ,  4-C ) :   1.5440 B(  3-C ,  5-H ) :   0.9896 B(  4-C , 20-C ) :   0.9921
B(  6-C ,  7-H ) :   0.9509 B(  6-C ,  8-H ) :   0.9420 B(  6-C ,  9-C ) :   1.0640
B(  9-C , 10-H ) :   0.9561 B(  9-C , 11-H ) :   0.9583 B(  9-C , 12-C ) :   1.0595
B( 12-C , 13-H ) :   0.9770 B( 12-C , 14-H ) :   0.9763 B( 12-C , 15-H ) :   0.9796
B( 16-S , 17-C ) :   1.1252 B( 16-S , 20-C ) :   1.1438 B( 17-C , 18-C ) :   1.6501
B( 17-C , 33-H ) :   0.9724 B( 18-C , 19-C ) :   1.2124 B( 18-C , 21-H ) :   0.9819
B( 19-C , 20-C ) :   1.6301 B( 19-C , 22-C ) :   1.0586 B( 22-C , 23-H ) :   0.9348
B( 22-C , 24-H ) :   0.9302 B( 22-C , 25-C ) :   1.0497 B( 25-C , 26-H ) :   0.9586
B( 25-C , 27-H ) :   0.9574 B( 25-C , 28-C ) :   1.0765 B( 28-C , 29-H ) :   0.9700
B( 28-C , 30-H ) :   0.9765 B( 28-C , 31-H ) :   0.9731

Dispersion correction           -0.014218295
FINAL SINGLE POINT ENERGY     -1339.875036076786

DIPOLE MOMENT
-------------
                                X             Y             Z
Electronic contribution:     -5.01097     -30.13419      -9.08082
Nuclear contribution   :      5.00756      30.54231       9.28228
                        -----------------------------------------
Total Dipole Moment    :     -0.00341       0.40812       0.20146
                        -----------------------------------------
Magnitude (a.u.)       :      0.45515
Magnitude (Debye)      :      1.15689

Rotational constants in cm-1:     0.016936     0.009602     0.006559
Rotational constants in MHz :   507.741869   287.873108   196.625023

                             ****ORCA TERMINATED NORMALLY****
TOTAL RUN TIME: 0 days 0 hours 0 minutes 21 seconds 514 msec
