                         Program Version 4.2.1 -  RELEASE  -
|  1> ! wB97X-D3 SP def2-SVP
|  2> %pal
|  3> nprocs 24
|  4> end
|  5>
|  6> * xyz 0 1
|  7> S 	 -133.714 	 30.3483 	 -15.4611
|  8> C 	 -132.329 	 29.5177 	 -16.0899
|  9> C 	 -132.602 	 28.8714 	 -17.2668
| 10> C 	 -134.014 	 28.7584 	 -17.3968
| 11> C 	 -134.768 	 29.3672 	 -16.4151
| 12> H 	 -134.492 	 28.1774 	 -18.2128
| 13> C 	 -131.627 	 28.1183 	 -18.1887
| 14> H 	 -131.82 	 27.0387 	 -18.1338
| 15> H 	 -130.6 	 28.3141 	 -17.7767
| 16> C 	 -131.604 	 28.5872 	 -19.5977
| 17> H 	 -132.629 	 28.4586 	 -20.0145
| 18> H 	 -131.443 	 29.6703 	 -19.6063
| 19> C 	 -130.574 	 27.8378 	 -20.4014
| 20> H 	 -130.969 	 26.8946 	 -20.6777
| 21> H 	 -130.439 	 28.3683 	 -21.2949
| 22> H 	 -129.612 	 27.6715 	 -19.8439
| 23> S 	 -137.206 	 30.6431 	 -15.9953
| 24> C 	 -138.691 	 29.8383 	 -16.1707
| 25> C 	 -138.466 	 28.4488 	 -16.1796
| 26> C 	 -137.059 	 28.0792 	 -16.2449
| 27> C 	 -136.207 	 29.1809 	 -16.2607
| 28> H 	 -139.331 	 27.742 	 -16.2917
| 29> C 	 -136.708 	 26.6499 	 -16.5447
| 30> H 	 -135.641 	 26.5953 	 -16.3857
| 31> H 	 -136.878 	 26.5667 	 -17.6265
| 32> C 	 -137.393 	 25.5227 	 -15.7732
| 33> H 	 -138.457 	 25.7489 	 -15.7473
| 34> H 	 -137.156 	 25.4335 	 -14.705
| 35> C 	 -137.146 	 24.0818 	 -16.3727
| 36> H 	 -138.048 	 23.4681 	 -16.0897
| 37> H 	 -136.178 	 23.6951 	 -16.0146
| 38> H 	 -137.099 	 24.2241 	 -17.402
| 39> H 	 -131.318 	 29.7097 	 -15.7705
| 40> H 	 -139.677 	 30.2774 	 -16.2404
| 41> *
| 42>
| 43>                          ****END OF INPUT****

CARTESIAN COORDINATES (ANGSTROEM)
---------------------------------
  S    -133.714000   30.348300  -15.461100
  C    -132.329000   29.517700  -16.089900
  C    -132.602000   28.871400  -17.266800
  C    -134.014000   28.758400  -17.396800
  C    -134.768000   29.367200  -16.415100
  H    -134.492000   28.177400  -18.212800
  C    -131.627000   28.118300  -18.188700
  H    -131.820000   27.038700  -18.133800
  H    -130.600000   28.314100  -17.776700
  C    -131.604000   28.587200  -19.597700
  H    -132.629000   28.458600  -20.014500
  H    -131.443000   29.670300  -19.606300
  C    -130.574000   27.837800  -20.401400
  H    -130.969000   26.894600  -20.677700
  H    -130.439000   28.368300  -21.294900
  H    -129.612000   27.671500  -19.843900
  S    -137.206000   30.643100  -15.995300
  C    -138.691000   29.838300  -16.170700
  C    -138.466000   28.448800  -16.179600
  C    -137.059000   28.079200  -16.244900
  C    -136.207000   29.180900  -16.260700
  H    -139.331000   27.742000  -16.291700
  C    -136.708000   26.649900  -16.544700
  H    -135.641000   26.595300  -16.385700
  H    -136.878000   26.566700  -17.626500
  C    -137.393000   25.522700  -15.773200
  H    -138.457000   25.748900  -15.747300
  H    -137.156000   25.433500  -14.705000
  C    -137.146000   24.081800  -16.372700
  H    -138.048000   23.468100  -16.089700
  H    -136.178000   23.695100  -16.014600
  H    -137.099000   24.224100  -17.402000
  H    -131.318000   29.709700  -15.770500
  H    -139.677000   30.277400  -16.240400

 Total Charge           Charge          ....    0
 Multiplicity           Mult            ....    1
 Number of Electrons    NEL             ....  134
 Basis Dimension        Dim             ....  322

ORBITAL ENERGIES
----------------

  NO   OCC          E(Eh)            E(eV)
   0   2.0000     -88.965810     -2420.8828
   1   2.0000     -88.961358     -2420.7616
   2   2.0000     -10.331367      -281.1308
   3   2.0000     -10.328795      -281.0608
   4   2.0000     -10.318671      -280.7853
   5   2.0000     -10.311799      -280.5983
   6   2.0000     -10.308141      -280.4988
   7   2.0000     -10.299158      -280.2543
   8   2.0000     -10.298740      -280.2430
   9   2.0000     -10.296174      -280.1731
  10   2.0000     -10.293312      -280.0953
  11   2.0000     -10.290318      -280.0138
  12   2.0000     -10.287562      -279.9388
  13   2.0000     -10.284886      -279.8660
  14   2.0000     -10.281995      -279.7873
  15   2.0000     -10.274760      -279.5904
  16   2.0000      -8.081457      -219.9076
  17   2.0000      -8.076709      -219.7784
  18   2.0000      -6.040046      -164.3580
  19   2.0000      -6.036040      -164.2490
  20   2.0000      -6.035254      -164.2276
  21   2.0000      -6.031868      -164.1355
  22   2.0000      -6.031055      -164.1134
  23   2.0000      -6.027470      -164.0158
  24   2.0000      -1.010167       -27.4880
  25   2.0000      -0.986942       -26.8560
  26   2.0000      -0.921364       -25.0716
  27   2.0000      -0.908581       -24.7238
  28   2.0000      -0.872433       -23.7401
  29   2.0000      -0.853633       -23.2285
  30   2.0000      -0.843923       -22.9643
  31   2.0000      -0.810123       -22.0446
  32   2.0000      -0.783742       -21.3267
  33   2.0000      -0.774812       -21.0837
  34   2.0000      -0.708128       -19.2691
  35   2.0000      -0.700329       -19.0569
  36   2.0000      -0.693326       -18.8664
  37   2.0000      -0.653715       -17.7885
  38   2.0000      -0.639309       -17.3965
  39   2.0000      -0.622283       -16.9332
  40   2.0000      -0.594900       -16.1881
  41   2.0000      -0.576141       -15.6776
  42   2.0000      -0.564909       -15.3720
  43   2.0000      -0.563132       -15.3236
  44   2.0000      -0.530093       -14.4246
  45   2.0000      -0.527497       -14.3539
  46   2.0000      -0.520729       -14.1698
  47   2.0000      -0.512480       -13.9453
  48   2.0000      -0.508521       -13.8376
  49   2.0000      -0.499905       -13.6031
  50   2.0000      -0.496176       -13.5016
  51   2.0000      -0.477447       -12.9920
  52   2.0000      -0.470482       -12.8025
  53   2.0000      -0.465332       -12.6623
  54   2.0000      -0.463186       -12.6039
  55   2.0000      -0.454071       -12.3559
  56   2.0000      -0.449036       -12.2189
  57   2.0000      -0.439307       -11.9541
  58   2.0000      -0.431593       -11.7442
  59   2.0000      -0.423426       -11.5220
  60   2.0000      -0.417876       -11.3710
  61   2.0000      -0.413119       -11.2415
  62   2.0000      -0.408932       -11.1276
  63   2.0000      -0.351400        -9.5621
  64   2.0000      -0.330605        -8.9962
  65   2.0000      -0.325072        -8.8456
  66   2.0000      -0.288721        -7.8565
  67   0.0000       0.030467         0.8291
  68   0.0000       0.063448         1.7265
  69   0.0000       0.110866         3.0168
  70   0.0000       0.116922         3.1816
  71   0.0000       0.136182         3.7057

MULLIKEN ATOMIC CHARGES
-----------------------
   0 S :    0.121678
   1 C :   -0.125046
   2 C :   -0.057551
   3 C :   -0.021190
   4 C :   -0.118644
   5 H :    0.022576
   6 C :    0.045700
   7 H :    0.040731
   8 H :    0.015707
   9 C :   -0.113159
  10 H :    0.030409
  11 H :    0.031286
  12 C :    0.014995
  13 H :    0.017792
  14 H :    0.023245
  15 H :    0.036310
  16 S :    0.093798
  17 C :   -0.083135
  18 C :   -0.078650
  19 C :   -0.027424
  20 C :   -0.163069
  21 H :    0.042670
  22 C :    0.052314
  23 H :    0.027003
  24 H :    0.046512
  25 C :   -0.100536
  26 H :    0.015989
  27 H :    0.035864
  28 C :   -0.038727
  29 H :    0.051005
  30 H :    0.045762
  31 H :    0.013600
  32 H :    0.039446
  33 H :    0.062740
Sum of atomic charges:   -0.0000000

LOEWDIN ATOMIC CHARGES
----------------------
   0 S :    0.415460
   1 C :   -0.191903
   2 C :   -0.067200
   3 C :   -0.065692
   4 C :   -0.204812
   5 H :    0.032303
   6 C :   -0.031450
   7 H :    0.032061
   8 H :    0.030202
   9 C :   -0.047934
  10 H :    0.025953
  11 H :    0.025655
  12 C :   -0.055354
  13 H :    0.021717
  14 H :    0.022334
  15 H :    0.032216
  16 S :    0.403624
  17 C :   -0.197374
  18 C :   -0.085929
  19 C :   -0.052660
  20 C :   -0.185881
  21 H :    0.035885
  22 C :   -0.038289
  23 H :    0.029284
  24 H :    0.037794
  25 C :   -0.042787
  26 H :    0.016703
  27 H :    0.028060
  28 C :   -0.058631
  29 H :    0.037978
  30 H :    0.029208
  31 H :    0.011561
  32 H :    0.023839
  33 H :    0.034058

  Mayer bond orders larger than 0.100000
B(  0-S ,  1-C ) :   1.1462 B(  0-S ,  4-C ) :   1.1369 B(  1-C ,  2-C ) :   1.6155
B(  1-C , 32-H ) :   0.9653 B(  2-C ,  3-C ) :   1.2289 B(  2-C ,  6-C ) :   1.0196
B(  3-C ,  4-C ) :   1.5682 B(  3-C ,  5-H ) :   0.9931 B(  4-C , 20-C ) :   1.0590
B(  6-C ,  7-H ) :   0.9464 B(  6-C ,  8-H ) :   0.9376 B(  6-C ,  9-C ) :   1.0694
B(  9-C , 10-H ) :   0.9510 B(  9-C , 11-H ) :   0.9537 B(  9-C , 12-C ) :   1.0869
B( 12-C , 13-H ) :   0.9693 B( 12-C , 14-H ) :   0.9706 B( 12-C , 15-H ) :   0.9720
B( 16-S , 17-C ) :   1.1773 B( 16-S , 20-C ) :   1.1198 B( 17-C , 18-C ) :   1.5985
B( 17-C , 20-C ) :   0.1004 B( 17-C , 33-H ) :   0.9690 B( 18-C , 19-C ) :   1.2254
B( 18-C , 21-H ) :   0.9779 B( 19-C , 20-C ) :   1.5976 B( 19-C , 22-C ) :   1.0493
B( 22-C , 23-H ) :   0.9290 B( 22-C , 24-H ) :   0.9332 B( 22-C , 25-C ) :   1.0606
B( 25-C , 26-H ) :   0.9590 B( 25-C , 27-H ) :   0.9559 B( 25-C , 28-C ) :   1.0710
B( 28-C , 29-H ) :   0.9757 B( 28-C , 30-H ) :   0.9788 B( 28-C , 31-H ) :   0.9786

Dispersion correction           -0.013204492
FINAL SINGLE POINT ENERGY     -1339.870545053133

DIPOLE MOMENT
-------------
                                X             Y             Z
Electronic contribution:     -8.41699      24.86308      14.60727
Nuclear contribution   :      8.50228     -25.47243     -15.12593
                        -----------------------------------------
Total Dipole Moment    :      0.08529      -0.60935      -0.51867
                        -----------------------------------------
Magnitude (a.u.)       :      0.80474
Magnitude (Debye)      :      2.04548

Rotational constants in cm-1:     0.016327     0.008164     0.006228
Rotational constants in MHz :   489.480279   244.751984   186.701997

                             ****ORCA TERMINATED NORMALLY****
TOTAL RUN TIME: 0 days 0 hours 0 minutes 20 seconds 983 msec
