                         Program Version 4.2.1 -  RELEASE  -
|  1> ! wB97X-D3 SP def2-SVP
|  2> %pal
|  3> nprocs 24
|  4> end
|  5>
|  6> * xyz 0 1
|  7> S 	 -134.937 	 69.9757 	 -61.3624
|  8> C 	 -135.443 	 71.4273 	 -62.0443
|  9> C 	 -136.401 	 71.9929 	 -61.2313
| 10> C 	 -136.654 	 71.2689 	 -60.0231
| 11> C 	 -135.834 	 70.1764 	 -59.9149
| 12> H 	 -137.335 	 71.4829 	 -59.1969
| 13> C 	 -137.3 	 73.1563 	 -61.5087
| 14> H 	 -138.34 	 72.7576 	 -61.5064
| 15> H 	 -137.156 	 73.4876 	 -62.5551
| 16> C 	 -137.138 	 74.5029 	 -60.7063
| 17> H 	 -136.088 	 74.7271 	 -60.8107
| 18> H 	 -137.719 	 75.2049 	 -61.2946
| 19> C 	 -137.628 	 74.3374 	 -59.2664
| 20> H 	 -136.754 	 73.9749 	 -58.668
| 21> H 	 -137.917 	 75.2993 	 -58.9139
| 22> H 	 -138.59 	 73.7607 	 -59.1533
| 23> S 	 -136.212 	 67.4652 	 -59.3461
| 24> C 	 -136.405 	 67.0898 	 -57.6376
| 25> C 	 -136.107 	 68.1327 	 -56.8438
| 26> C 	 -135.811 	 69.3321 	 -57.5256
| 27> C 	 -135.883 	 69.1667 	 -58.8794
| 28> H 	 -136.051 	 67.8987 	 -55.7375
| 29> C 	 -135.535 	 70.6037 	 -56.7956
| 30> H 	 -135.433 	 71.441 	 -57.5996
| 31> H 	 -134.54 	 70.5378 	 -56.3389
| 32> C 	 -136.607 	 70.9358 	 -55.6603
| 33> H 	 -136.345 	 71.8782 	 -55.0677
| 34> H 	 -136.655 	 70.0453 	 -55.0757
| 35> C 	 -137.888 	 71.3074 	 -56.2456
| 36> H 	 -138.263 	 70.5657 	 -56.9357
| 37> H 	 -137.87 	 72.2076 	 -56.825
| 38> H 	 -138.713 	 71.3697 	 -55.5323
| 39> H 	 -135.125 	 71.8431 	 -62.9688
| 40> H 	 -136.611 	 66.0861 	 -57.3026
| 41> *
| 42>
| 43>                          ****END OF INPUT****

CARTESIAN COORDINATES (ANGSTROEM)
---------------------------------
  S    -134.937000   69.975700  -61.362400
  C    -135.443000   71.427300  -62.044300
  C    -136.401000   71.992900  -61.231300
  C    -136.654000   71.268900  -60.023100
  C    -135.834000   70.176400  -59.914900
  H    -137.335000   71.482900  -59.196900
  C    -137.300000   73.156300  -61.508700
  H    -138.340000   72.757600  -61.506400
  H    -137.156000   73.487600  -62.555100
  C    -137.138000   74.502900  -60.706300
  H    -136.088000   74.727100  -60.810700
  H    -137.719000   75.204900  -61.294600
  C    -137.628000   74.337400  -59.266400
  H    -136.754000   73.974900  -58.668000
  H    -137.917000   75.299300  -58.913900
  H    -138.590000   73.760700  -59.153300
  S    -136.212000   67.465200  -59.346100
  C    -136.405000   67.089800  -57.637600
  C    -136.107000   68.132700  -56.843800
  C    -135.811000   69.332100  -57.525600
  C    -135.883000   69.166700  -58.879400
  H    -136.051000   67.898700  -55.737500
  C    -135.535000   70.603700  -56.795600
  H    -135.433000   71.441000  -57.599600
  H    -134.540000   70.537800  -56.338900
  C    -136.607000   70.935800  -55.660300
  H    -136.345000   71.878200  -55.067700
  H    -136.655000   70.045300  -55.075700
  C    -137.888000   71.307400  -56.245600
  H    -138.263000   70.565700  -56.935700
  H    -137.870000   72.207600  -56.825000
  H    -138.713000   71.369700  -55.532300
  H    -135.125000   71.843100  -62.968800
  H    -136.611000   66.086100  -57.302600

 Total Charge           Charge          ....    0
 Multiplicity           Mult            ....    1
 Number of Electrons    NEL             ....  134
 Basis Dimension        Dim             ....  322

ORBITAL ENERGIES
----------------

  NO   OCC          E(Eh)            E(eV)
   0   2.0000     -88.963469     -2420.8191
   1   2.0000     -88.962059     -2420.7807
   2   2.0000     -10.325543      -280.9723
   3   2.0000     -10.320485      -280.8347
   4   2.0000     -10.314139      -280.6620
   5   2.0000     -10.307218      -280.4737
   6   2.0000     -10.299782      -280.2713
   7   2.0000     -10.298896      -280.2472
   8   2.0000     -10.295743      -280.1614
   9   2.0000     -10.293407      -280.0978
  10   2.0000     -10.290728      -280.0249
  11   2.0000     -10.288722      -279.9704
  12   2.0000     -10.287899      -279.9480
  13   2.0000     -10.287741      -279.9437
  14   2.0000     -10.283163      -279.8191
  15   2.0000     -10.267508      -279.3931
  16   2.0000      -8.078793      -219.8351
  17   2.0000      -8.077837      -219.8091
  18   2.0000      -6.037185      -164.2801
  19   2.0000      -6.036374      -164.2581
  20   2.0000      -6.032870      -164.1627
  21   2.0000      -6.032650      -164.1568
  22   2.0000      -6.029715      -164.0769
  23   2.0000      -6.028329      -164.0392
  24   2.0000      -1.015411       -27.6307
  25   2.0000      -0.991292       -26.9744
  26   2.0000      -0.912325       -24.8256
  27   2.0000      -0.908226       -24.7141
  28   2.0000      -0.875816       -23.8322
  29   2.0000      -0.855651       -23.2834
  30   2.0000      -0.847030       -23.0489
  31   2.0000      -0.817343       -22.2410
  32   2.0000      -0.781172       -21.2568
  33   2.0000      -0.771850       -21.0031
  34   2.0000      -0.705246       -19.1907
  35   2.0000      -0.701686       -19.0939
  36   2.0000      -0.697324       -18.9752
  37   2.0000      -0.655058       -17.8250
  38   2.0000      -0.644445       -17.5362
  39   2.0000      -0.614174       -16.7125
  40   2.0000      -0.598856       -16.2957
  41   2.0000      -0.573529       -15.6065
  42   2.0000      -0.551719       -15.0130
  43   2.0000      -0.551605       -15.0099
  44   2.0000      -0.544368       -14.8130
  45   2.0000      -0.534182       -14.5358
  46   2.0000      -0.523453       -14.2439
  47   2.0000      -0.515552       -14.0289
  48   2.0000      -0.507863       -13.8197
  49   2.0000      -0.494325       -13.4513
  50   2.0000      -0.491974       -13.3873
  51   2.0000      -0.485571       -13.2131
  52   2.0000      -0.472455       -12.8561
  53   2.0000      -0.470623       -12.8063
  54   2.0000      -0.459267       -12.4973
  55   2.0000      -0.445229       -12.1153
  56   2.0000      -0.439951       -11.9717
  57   2.0000      -0.437264       -11.8986
  58   2.0000      -0.429135       -11.6774
  59   2.0000      -0.422676       -11.5016
  60   2.0000      -0.416302       -11.3281
  61   2.0000      -0.413091       -11.2408
  62   2.0000      -0.409448       -11.1416
  63   2.0000      -0.351536        -9.5658
  64   2.0000      -0.332687        -9.0529
  65   2.0000      -0.324768        -8.8374
  66   2.0000      -0.293138        -7.9767
  67   0.0000       0.036592         0.9957
  68   0.0000       0.071521         1.9462
  69   0.0000       0.114912         3.1269
  70   0.0000       0.119819         3.2604
  71   0.0000       0.130810         3.5595

MULLIKEN ATOMIC CHARGES
-----------------------
   0 S :    0.114647
   1 C :   -0.088423
   2 C :   -0.082814
   3 C :    0.027735
   4 C :   -0.168315
   5 H :    0.001682
   6 C :   -0.004667
   7 H :    0.043330
   8 H :    0.006355
   9 C :   -0.037707
  10 H :    0.029246
  11 H :    0.028988
  12 C :   -0.066714
  13 H :    0.060160
  14 H :    0.021658
  15 H :    0.045212
  16 S :    0.097405
  17 C :   -0.091943
  18 C :   -0.056615
  19 C :   -0.021112
  20 C :   -0.144079
  21 H :    0.044493
  22 C :    0.022736
  23 H :    0.042352
  24 H :    0.043208
  25 C :   -0.058334
  26 H :    0.045735
  27 H :    0.026954
  28 C :   -0.041110
  29 H :    0.027867
  30 H :    0.021587
  31 H :    0.028008
  32 H :    0.032194
  33 H :    0.050279
Sum of atomic charges:    0.0000000

LOEWDIN ATOMIC CHARGES
----------------------
   0 S :    0.445379
   1 C :   -0.214511
   2 C :   -0.070806
   3 C :   -0.063022
   4 C :   -0.206472
   5 H :    0.033909
   6 C :   -0.041765
   7 H :    0.034476
   8 H :    0.024573
   9 C :   -0.031867
  10 H :    0.025919
  11 H :    0.022887
  12 C :   -0.076472
  13 H :    0.035816
  14 H :    0.020547
  15 H :    0.032116
  16 S :    0.372388
  17 C :   -0.170649
  18 C :   -0.082474
  19 C :   -0.063453
  20 C :   -0.179229
  21 H :    0.044525
  22 C :   -0.035924
  23 H :    0.038662
  24 H :    0.034827
  25 C :   -0.037365
  26 H :    0.037654
  27 H :    0.018516
  28 C :   -0.072403
  29 H :    0.021982
  30 H :    0.021318
  31 H :    0.028053
  32 H :    0.026320
  33 H :    0.026543

  Mayer bond orders larger than 0.100000
B(  0-S ,  1-C ) :   1.1498 B(  0-S ,  4-C ) :   1.1720 B(  1-C ,  2-C ) :   1.5858
B(  1-C , 32-H ) :   0.9763 B(  2-C ,  3-C ) :   1.2460 B(  2-C ,  6-C ) :   1.0277
B(  3-C ,  4-C ) :   1.5511 B(  3-C ,  5-H ) :   0.9917 B(  4-C , 20-C ) :   1.0292
B(  6-C ,  7-H ) :   0.9451 B(  6-C ,  8-H ) :   0.9410 B(  6-C ,  9-C ) :   1.0654
B(  9-C , 10-H ) :   0.9541 B(  9-C , 11-H ) :   0.9583 B(  9-C , 12-C ) :   1.0812
B( 12-C , 13-H ) :   0.9685 B( 12-C , 14-H ) :   0.9693 B( 12-C , 15-H ) :   0.9698
B( 16-S , 17-C ) :   1.1353 B( 16-S , 20-C ) :   1.1205 B( 17-C , 18-C ) :   1.6639
B( 17-C , 33-H ) :   0.9659 B( 18-C , 19-C ) :   1.1904 B( 18-C , 21-H ) :   0.9759
B( 19-C , 20-C ) :   1.6353 B( 19-C , 22-C ) :   1.0417 B( 22-C , 23-H ) :   0.9364
B( 22-C , 24-H ) :   0.9305 B( 22-C , 25-C ) :   1.0542 B( 25-C , 26-H ) :   0.9553
B( 25-C , 27-H ) :   0.9525 B( 25-C , 28-C ) :   1.0922 B( 28-C , 29-H ) :   0.9641
B( 28-C , 30-H ) :   0.9664 B( 28-C , 31-H ) :   0.9632

Dispersion correction           -0.016097508
FINAL SINGLE POINT ENERGY     -1339.877471618199

DIPOLE MOMENT
-------------
                                X             Y             Z
Electronic contribution:     11.45668     -24.36788     -13.31504
Nuclear contribution   :    -11.74020      24.83633      13.68268
                        -----------------------------------------
Total Dipole Moment    :     -0.28352       0.46845       0.36764
                        -----------------------------------------
Magnitude (a.u.)       :      0.65954
Magnitude (Debye)      :      1.67641

Rotational constants in cm-1:     0.018070     0.010951     0.007438
Rotational constants in MHz :   541.728549   328.316823   222.995883

                             ****ORCA TERMINATED NORMALLY****
TOTAL RUN TIME: 0 days 0 hours 0 minutes 22 seconds 117 msec
