                         Program Version 4.2.1 -  RELEASE  -
|  1> ! wB97X-D3 SP def2-SVP
|  2> %pal
|  3> nprocs 24
|  4> end
|  5>
|  6> * xyz 0 1
|  7> S 	 -54.6533 	 -45.5511 	 -78.618
|  8> C 	 -55.129 	 -44.845 	 -80.1445
|  9> C 	 -54.6648 	 -45.6168 	 -81.2251
| 10> C 	 -53.8902 	 -46.7547 	 -80.8526
| 11> C 	 -53.7312 	 -46.8713 	 -79.4272
| 12> H 	 -53.4328 	 -47.4588 	 -81.4808
| 13> C 	 -54.8423 	 -45.2858 	 -82.7079
| 14> H 	 -55.7304 	 -44.5142 	 -82.7876
| 15> H 	 -55.1886 	 -46.2181 	 -83.1834
| 16> C 	 -53.5757 	 -44.568 	 -83.3108
| 17> H 	 -52.8242 	 -45.3199 	 -83.5749
| 18> H 	 -53.9494 	 -44.1679 	 -84.2655
| 19> C 	 -52.8943 	 -43.3123 	 -82.643
| 20> H 	 -53.4382 	 -42.8605 	 -81.8614
| 21> H 	 -51.9436 	 -43.5315 	 -82.199
| 22> H 	 -52.7182 	 -42.5754 	 -83.4628
| 23> S 	 -53.5102 	 -49.3185 	 -78.0892
| 24> C 	 -51.8922 	 -49.9224 	 -77.7194
| 25> C 	 -50.8911 	 -49.0202 	 -78.0691
| 26> C 	 -51.4696 	 -47.8698 	 -78.717
| 27> C 	 -52.8521 	 -47.8726 	 -78.8464
| 28> H 	 -49.8312 	 -49.2163 	 -78.0346
| 29> C 	 -50.5227 	 -46.7708 	 -79.2129
| 30> H 	 -49.5449 	 -46.798 	 -78.6975
| 31> H 	 -50.843 	 -45.7314 	 -78.9849
| 32> C 	 -50.1398 	 -47.025 	 -80.6858
| 33> H 	 -49.8733 	 -46.1341 	 -81.2193
| 34> H 	 -51.0694 	 -47.3425 	 -81.1566
| 35> C 	 -49.0565 	 -47.9962 	 -80.8973
| 36> H 	 -48.2727 	 -47.6865 	 -80.2851
| 37> H 	 -48.6033 	 -47.9369 	 -81.911
| 38> H 	 -49.1739 	 -49.0365 	 -80.4863
| 39> H 	 -55.9211 	 -44.1064 	 -80.2034
| 40> H 	 -51.6454 	 -50.9457 	 -77.5302
| 41> *
| 42>
| 43>                          ****END OF INPUT****

CARTESIAN COORDINATES (ANGSTROEM)
---------------------------------
  S    -54.653300  -45.551100  -78.618000
  C    -55.129000  -44.845000  -80.144500
  C    -54.664800  -45.616800  -81.225100
  C    -53.890200  -46.754700  -80.852600
  C    -53.731200  -46.871300  -79.427200
  H    -53.432800  -47.458800  -81.480800
  C    -54.842300  -45.285800  -82.707900
  H    -55.730400  -44.514200  -82.787600
  H    -55.188600  -46.218100  -83.183400
  C    -53.575700  -44.568000  -83.310800
  H    -52.824200  -45.319900  -83.574900
  H    -53.949400  -44.167900  -84.265500
  C    -52.894300  -43.312300  -82.643000
  H    -53.438200  -42.860500  -81.861400
  H    -51.943600  -43.531500  -82.199000
  H    -52.718200  -42.575400  -83.462800
  S    -53.510200  -49.318500  -78.089200
  C    -51.892200  -49.922400  -77.719400
  C    -50.891100  -49.020200  -78.069100
  C    -51.469600  -47.869800  -78.717000
  C    -52.852100  -47.872600  -78.846400
  H    -49.831200  -49.216300  -78.034600
  C    -50.522700  -46.770800  -79.212900
  H    -49.544900  -46.798000  -78.697500
  H    -50.843000  -45.731400  -78.984900
  C    -50.139800  -47.025000  -80.685800
  H    -49.873300  -46.134100  -81.219300
  H    -51.069400  -47.342500  -81.156600
  C    -49.056500  -47.996200  -80.897300
  H    -48.272700  -47.686500  -80.285100
  H    -48.603300  -47.936900  -81.911000
  H    -49.173900  -49.036500  -80.486300
  H    -55.921100  -44.106400  -80.203400
  H    -51.645400  -50.945700  -77.530200

 Total Charge           Charge          ....    0
 Multiplicity           Mult            ....    1
 Number of Electrons    NEL             ....  134
 Basis Dimension        Dim             ....  322

ORBITAL ENERGIES
----------------

  NO   OCC          E(Eh)            E(eV)
   0   2.0000     -88.970552     -2421.0118
   1   2.0000     -88.967048     -2420.9165
   2   2.0000     -10.337419      -281.2955
   3   2.0000     -10.327627      -281.0290
   4   2.0000     -10.320566      -280.8369
   5   2.0000     -10.318712      -280.7864
   6   2.0000     -10.307138      -280.4715
   7   2.0000     -10.306393      -280.4512
   8   2.0000     -10.304389      -280.3967
   9   2.0000     -10.297763      -280.2164
  10   2.0000     -10.297717      -280.2151
  11   2.0000     -10.294644      -280.1315
  12   2.0000     -10.292461      -280.0721
  13   2.0000     -10.278274      -279.6861
  14   2.0000     -10.277810      -279.6734
  15   2.0000     -10.273503      -279.5562
  16   2.0000      -8.083928      -219.9749
  17   2.0000      -8.081338      -219.9044
  18   2.0000      -6.042473      -164.4240
  19   2.0000      -6.039902      -164.3541
  20   2.0000      -6.038433      -164.3141
  21   2.0000      -6.035835      -164.2434
  22   2.0000      -6.034928      -164.2187
  23   2.0000      -6.032123      -164.1424
  24   2.0000      -0.998621       -27.1739
  25   2.0000      -0.976576       -26.5740
  26   2.0000      -0.913470       -24.8568
  27   2.0000      -0.898564       -24.4512
  28   2.0000      -0.867336       -23.6014
  29   2.0000      -0.849107       -23.1054
  30   2.0000      -0.844623       -22.9834
  31   2.0000      -0.810942       -22.0669
  32   2.0000      -0.781518       -21.2662
  33   2.0000      -0.770100       -20.9555
  34   2.0000      -0.708068       -19.2675
  35   2.0000      -0.697777       -18.9875
  36   2.0000      -0.691580       -18.8188
  37   2.0000      -0.664243       -18.0750
  38   2.0000      -0.644128       -17.5276
  39   2.0000      -0.611195       -16.6315
  40   2.0000      -0.596644       -16.2355
  41   2.0000      -0.561215       -15.2714
  42   2.0000      -0.555197       -15.1077
  43   2.0000      -0.549522       -14.9532
  44   2.0000      -0.541297       -14.7294
  45   2.0000      -0.538578       -14.6555
  46   2.0000      -0.513060       -13.9611
  47   2.0000      -0.511018       -13.9055
  48   2.0000      -0.504052       -13.7159
  49   2.0000      -0.493884       -13.4393
  50   2.0000      -0.486995       -13.2518
  51   2.0000      -0.478686       -13.0257
  52   2.0000      -0.471187       -12.8216
  53   2.0000      -0.465411       -12.6645
  54   2.0000      -0.459168       -12.4946
  55   2.0000      -0.448879       -12.2146
  56   2.0000      -0.445952       -12.1350
  57   2.0000      -0.438498       -11.9321
  58   2.0000      -0.427965       -11.6455
  59   2.0000      -0.417076       -11.3492
  60   2.0000      -0.415838       -11.3155
  61   2.0000      -0.409715       -11.1489
  62   2.0000      -0.408700       -11.1213
  63   2.0000      -0.337076        -9.1723
  64   2.0000      -0.330840        -9.0026
  65   2.0000      -0.320965        -8.7339
  66   2.0000      -0.305582        -8.3153
  67   0.0000       0.035335         0.9615
  68   0.0000       0.044694         1.2162
  69   0.0000       0.113992         3.1019
  70   0.0000       0.119373         3.2483
  71   0.0000       0.122893         3.3441

MULLIKEN ATOMIC CHARGES
-----------------------
   0 S :    0.117494
   1 C :   -0.123480
   2 C :   -0.083397
   3 C :    0.049714
   4 C :   -0.161900
   5 H :    0.011496
   6 C :    0.024922
   7 H :    0.031345
   8 H :    0.046824
   9 C :   -0.091995
  10 H :    0.035581
  11 H :    0.033772
  12 C :   -0.029076
  13 H :    0.023565
  14 H :    0.031020
  15 H :    0.038663
  16 S :    0.111802
  17 C :   -0.084935
  18 C :   -0.022805
  19 C :   -0.034850
  20 C :   -0.191736
  21 H :    0.024386
  22 C :    0.041505
  23 H :    0.011666
  24 H :    0.041797
  25 C :   -0.033730
  26 H :    0.018499
  27 H :    0.012112
  28 C :   -0.032398
  29 H :   -0.009467
  30 H :    0.041476
  31 H :    0.035665
  32 H :    0.059129
  33 H :    0.057337
Sum of atomic charges:    0.0000000

LOEWDIN ATOMIC CHARGES
----------------------
   0 S :    0.396802
   1 C :   -0.206301
   2 C :   -0.067454
   3 C :   -0.043422
   4 C :   -0.187865
   5 H :    0.023075
   6 C :   -0.037569
   7 H :    0.035412
   8 H :    0.036156
   9 C :   -0.044376
  10 H :    0.023571
  11 H :    0.026455
  12 C :   -0.062087
  13 H :    0.019856
  14 H :    0.024996
  15 H :    0.034434
  16 S :    0.401560
  17 C :   -0.175351
  18 C :   -0.067915
  19 C :   -0.045236
  20 C :   -0.209627
  21 H :    0.031321
  22 C :   -0.032339
  23 H :    0.026699
  24 H :    0.035862
  25 C :   -0.041861
  26 H :    0.023538
  27 H :    0.019129
  28 C :   -0.073201
  29 H :    0.013597
  30 H :    0.035326
  31 H :    0.030340
  32 H :    0.029419
  33 H :    0.027058

  Mayer bond orders larger than 0.100000
B(  0-S ,  1-C ) :   1.1491 B(  0-S ,  4-C ) :   1.1470 B(  1-C ,  2-C ) :   1.5789
B(  1-C ,  4-C ) :   0.1085 B(  1-C , 32-H ) :   0.9626 B(  2-C ,  3-C ) :   1.2606
B(  2-C ,  6-C ) :   1.0269 B(  3-C ,  4-C ) :   1.5416 B(  3-C ,  5-H ) :   0.9921
B(  4-C , 20-C ) :   1.0580 B(  6-C ,  7-H ) :   0.9464 B(  6-C ,  8-H ) :   0.9459
B(  6-C ,  9-C ) :   1.0530 B(  9-C , 10-H ) :   0.9611 B(  9-C , 11-H ) :   0.9689
B(  9-C , 12-C ) :   1.0543 B( 12-C , 13-H ) :   0.9767 B( 12-C , 14-H ) :   0.9781
B( 12-C , 15-H ) :   0.9811 B( 16-S , 17-C ) :   1.1673 B( 16-S , 20-C ) :   1.1246
B( 17-C , 18-C ) :   1.5970 B( 17-C , 33-H ) :   0.9639 B( 18-C , 19-C ) :   1.2578
B( 18-C , 21-H ) :   0.9829 B( 19-C , 20-C ) :   1.6070 B( 19-C , 22-C ) :   1.0431
B( 22-C , 23-H ) :   0.9459 B( 22-C , 24-H ) :   0.9365 B( 22-C , 25-C ) :   1.0568
B( 25-C , 26-H ) :   0.9489 B( 25-C , 27-H ) :   0.9501 B( 25-C , 28-C ) :   1.0925
B( 28-C , 29-H ) :   0.9616 B( 28-C , 30-H ) :   0.9686 B( 28-C , 31-H ) :   0.9662

Dispersion correction           -0.015810437
FINAL SINGLE POINT ENERGY     -1339.859100906137

DIPOLE MOMENT
-------------
                                X             Y             Z
Electronic contribution:    -16.47409     -10.86219      21.56078
Nuclear contribution   :     16.92442      11.00394     -22.15205
                        -----------------------------------------
Total Dipole Moment    :      0.45032       0.14175      -0.59127
                        -----------------------------------------
Magnitude (a.u.)       :      0.75663
Magnitude (Debye)      :      1.92319

Rotational constants in cm-1:     0.018733     0.009781     0.007368
Rotational constants in MHz :   561.593586   293.213627   220.900092

                             ****ORCA TERMINATED NORMALLY****
TOTAL RUN TIME: 0 days 0 hours 0 minutes 22 seconds 594 msec
