                         Program Version 4.2.1 -  RELEASE  -
|  1> ! wB97X-D3 SP def2-SVP
|  2> %pal
|  3> nprocs 24
|  4> end
|  5>
|  6> * xyz 0 1
|  7> S 	 29.7876 	 -5.62414 	 -115.707
|  8> C 	 30.8614 	 -6.68617 	 -116.531
|  9> C 	 30.619 	 -7.98741 	 -116.151
| 10> C 	 29.6625 	 -8.07808 	 -115.095
| 11> C 	 29.086 	 -6.86133 	 -114.747
| 12> H 	 29.426 	 -8.94534 	 -114.583
| 13> C 	 31.4823 	 -9.13327 	 -116.654
| 14> H 	 31.6583 	 -9.83698 	 -115.877
| 15> H 	 32.5441 	 -8.82799 	 -116.886
| 16> C 	 30.7371 	 -9.77834 	 -117.783
| 17> H 	 31.4567 	 -10.4938 	 -118.23
| 18> H 	 29.8388 	 -10.2932 	 -117.455
| 19> C 	 30.3674 	 -8.80095 	 -118.874
| 20> H 	 30.003 	 -9.20908 	 -119.806
| 21> H 	 29.6949 	 -8.04658 	 -118.609
| 22> H 	 31.2646 	 -8.36285 	 -119.082
| 23> S 	 26.6057 	 -5.93757 	 -114.121
| 24> C 	 26.0989 	 -5.82318 	 -112.437
| 25> C 	 27.1795 	 -6.25137 	 -111.644
| 26> C 	 28.3243 	 -6.71332 	 -112.351
| 27> C 	 28.1536 	 -6.57673 	 -113.699
| 28> H 	 27.1433 	 -6.26272 	 -110.535
| 29> C 	 29.5675 	 -7.22247 	 -111.698
| 30> H 	 29.7561 	 -8.16148 	 -112.233
| 31> H 	 29.4165 	 -7.39006 	 -110.604
| 32> C 	 30.8141 	 -6.34731 	 -111.838
| 33> H 	 30.6403 	 -5.31948 	 -111.463
| 34> H 	 31.0926 	 -6.30377 	 -112.865
| 35> C 	 32.0886 	 -6.79101 	 -111.047
| 36> H 	 32.819 	 -6.05692 	 -111.234
| 37> H 	 32.4087 	 -7.66457 	 -111.497
| 38> H 	 31.9613 	 -6.7599 	 -109.999
| 39> H 	 31.4392 	 -6.54957 	 -117.444
| 40> H 	 25.2155 	 -5.37545 	 -112.018
| 41> *
| 42>
| 43>                          ****END OF INPUT****

CARTESIAN COORDINATES (ANGSTROEM)
---------------------------------
  S     29.787600   -5.624140  -115.707000
  C     30.861400   -6.686170  -116.531000
  C     30.619000   -7.987410  -116.151000
  C     29.662500   -8.078080  -115.095000
  C     29.086000   -6.861330  -114.747000
  H     29.426000   -8.945340  -114.583000
  C     31.482300   -9.133270  -116.654000
  H     31.658300   -9.836980  -115.877000
  H     32.544100   -8.827990  -116.886000
  C     30.737100   -9.778340  -117.783000
  H     31.456700  -10.493800  -118.230000
  H     29.838800  -10.293200  -117.455000
  C     30.367400   -8.800950  -118.874000
  H     30.003000   -9.209080  -119.806000
  H     29.694900   -8.046580  -118.609000
  H     31.264600   -8.362850  -119.082000
  S     26.605700   -5.937570  -114.121000
  C     26.098900   -5.823180  -112.437000
  C     27.179500   -6.251370  -111.644000
  C     28.324300   -6.713320  -112.351000
  C     28.153600   -6.576730  -113.699000
  H     27.143300   -6.262720  -110.535000
  C     29.567500   -7.222470  -111.698000
  H     29.756100   -8.161480  -112.233000
  H     29.416500   -7.390060  -110.604000
  C     30.814100   -6.347310  -111.838000
  H     30.640300   -5.319480  -111.463000
  H     31.092600   -6.303770  -112.865000
  C     32.088600   -6.791010  -111.047000
  H     32.819000   -6.056920  -111.234000
  H     32.408700   -7.664570  -111.497000
  H     31.961300   -6.759900  -109.999000
  H     31.439200   -6.549570  -117.444000
  H     25.215500   -5.375450  -112.018000

 Total Charge           Charge          ....    0
 Multiplicity           Mult            ....    1
 Number of Electrons    NEL             ....  134
 Basis Dimension        Dim             ....  322

ORBITAL ENERGIES
----------------

  NO   OCC          E(Eh)            E(eV)
   0   2.0000     -88.967629     -2420.9323
   1   2.0000     -88.967163     -2420.9196
   2   2.0000     -10.325687      -280.9762
   3   2.0000     -10.320392      -280.8321
   4   2.0000     -10.319451      -280.8065
   5   2.0000     -10.308555      -280.5100
   6   2.0000     -10.298046      -280.2241
   7   2.0000     -10.297452      -280.2079
   8   2.0000     -10.297166      -280.2001
   9   2.0000     -10.292041      -280.0607
  10   2.0000     -10.291615      -280.0491
  11   2.0000     -10.290748      -280.0255
  12   2.0000     -10.283467      -279.8274
  13   2.0000     -10.279123      -279.7092
  14   2.0000     -10.263373      -279.2806
  15   2.0000     -10.258578      -279.1501
  16   2.0000      -8.082454      -219.9347
  17   2.0000      -8.082251      -219.9292
  18   2.0000      -6.040827      -164.3792
  19   2.0000      -6.040801      -164.3786
  20   2.0000      -6.036630      -164.2650
  21   2.0000      -6.036608      -164.2645
  22   2.0000      -6.033555      -164.1814
  23   2.0000      -6.033135      -164.1700
  24   2.0000      -1.015104       -27.6224
  25   2.0000      -0.989553       -26.9271
  26   2.0000      -0.924323       -25.1521
  27   2.0000      -0.907911       -24.7055
  28   2.0000      -0.871523       -23.7154
  29   2.0000      -0.854093       -23.2411
  30   2.0000      -0.847581       -23.0638
  31   2.0000      -0.814443       -22.1621
  32   2.0000      -0.790474       -21.5099
  33   2.0000      -0.778995       -21.1975
  34   2.0000      -0.712565       -19.3899
  35   2.0000      -0.693540       -18.8722
  36   2.0000      -0.689792       -18.7702
  37   2.0000      -0.665728       -18.1154
  38   2.0000      -0.644948       -17.5499
  39   2.0000      -0.622826       -16.9480
  40   2.0000      -0.593213       -16.1421
  41   2.0000      -0.576970       -15.7002
  42   2.0000      -0.573452       -15.6044
  43   2.0000      -0.562863       -15.3163
  44   2.0000      -0.546184       -14.8624
  45   2.0000      -0.528880       -14.3915
  46   2.0000      -0.517241       -14.0748
  47   2.0000      -0.515494       -14.0273
  48   2.0000      -0.507411       -13.8074
  49   2.0000      -0.498243       -13.5579
  50   2.0000      -0.487457       -13.2644
  51   2.0000      -0.486634       -13.2420
  52   2.0000      -0.473372       -12.8811
  53   2.0000      -0.468191       -12.7401
  54   2.0000      -0.462031       -12.5725
  55   2.0000      -0.453361       -12.3366
  56   2.0000      -0.445768       -12.1300
  57   2.0000      -0.439591       -11.9619
  58   2.0000      -0.430666       -11.7190
  59   2.0000      -0.422350       -11.4927
  60   2.0000      -0.420287       -11.4366
  61   2.0000      -0.410592       -11.1728
  62   2.0000      -0.408227       -11.1084
  63   2.0000      -0.338520        -9.2116
  64   2.0000      -0.331208        -9.0126
  65   2.0000      -0.329804        -8.9744
  66   2.0000      -0.301217        -8.1965
  67   0.0000       0.034663         0.9432
  68   0.0000       0.063308         1.7227
  69   0.0000       0.116945         3.1822
  70   0.0000       0.124970         3.4006
  71   0.0000       0.132673         3.6102

MULLIKEN ATOMIC CHARGES
-----------------------
   0 S :    0.132403
   1 C :   -0.108298
   2 C :   -0.130878
   3 C :    0.075411
   4 C :   -0.184516
   5 H :   -0.019489
   6 C :    0.054486
   7 H :    0.014567
   8 H :    0.038963
   9 C :   -0.065809
  10 H :    0.028608
  11 H :    0.033481
  12 C :   -0.005459
  13 H :    0.026157
  14 H :    0.038506
  15 H :   -0.010942
  16 S :    0.123452
  17 C :   -0.090372
  18 C :   -0.060645
  19 C :   -0.005855
  20 C :   -0.183315
  21 H :    0.025123
  22 C :    0.107424
  23 H :    0.019023
  24 H :    0.018974
  25 C :   -0.114244
  26 H :    0.026534
  27 H :    0.033828
  28 C :    0.018985
  29 H :    0.015988
  30 H :    0.014731
  31 H :    0.023531
  32 H :    0.051872
  33 H :    0.057775
Sum of atomic charges:    0.0000000

LOEWDIN ATOMIC CHARGES
----------------------
   0 S :    0.442895
   1 C :   -0.216192
   2 C :   -0.061403
   3 C :   -0.055637
   4 C :   -0.208540
   5 H :    0.017010
   6 C :   -0.033592
   7 H :    0.026436
   8 H :    0.036630
   9 C :   -0.036271
  10 H :    0.027206
  11 H :    0.022924
  12 C :   -0.056334
  13 H :    0.026834
  14 H :    0.019571
  15 H :    0.010008
  16 S :    0.421659
  17 C :   -0.190343
  18 C :   -0.069828
  19 C :   -0.056496
  20 C :   -0.215074
  21 H :    0.033152
  22 C :   -0.034417
  23 H :    0.034169
  24 H :    0.032671
  25 C :   -0.034893
  26 H :    0.024154
  27 H :    0.018697
  28 C :   -0.048800
  29 H :    0.024574
  30 H :    0.014865
  31 H :    0.019226
  32 H :    0.033453
  33 H :    0.031685

  Mayer bond orders larger than 0.100000
B(  0-S ,  1-C ) :   1.1508 B(  0-S ,  4-C ) :   1.1768 B(  1-C ,  2-C ) :   1.5863
B(  1-C ,  4-C ) :   0.1034 B(  1-C , 32-H ) :   0.9607 B(  2-C ,  3-C ) :   1.2675
B(  2-C ,  6-C ) :   1.0152 B(  3-C ,  4-C ) :   1.5421 B(  3-C ,  5-H ) :   1.0092
B(  4-C , 20-C ) :   1.0233 B(  6-C ,  7-H ) :   0.9400 B(  6-C ,  8-H ) :   0.9502
B(  6-C ,  9-C ) :   1.0694 B(  9-C , 10-H ) :   0.9542 B(  9-C , 11-H ) :   0.9574
B(  9-C , 12-C ) :   1.0834 B( 12-C , 13-H ) :   0.9686 B( 12-C , 14-H ) :   0.9668
B( 12-C , 15-H ) :   0.9689 B( 16-S , 17-C ) :   1.1536 B( 16-S , 20-C ) :   1.1580
B( 17-C , 18-C ) :   1.5817 B( 17-C , 20-C ) :   0.1075 B( 17-C , 33-H ) :   0.9719
B( 18-C , 19-C ) :   1.2752 B( 18-C , 21-H ) :   0.9774 B( 19-C , 20-C ) :   1.5730
B( 19-C , 22-C ) :   1.0505 B( 22-C , 23-H ) :   0.9152 B( 22-C , 24-H ) :   0.9310
B( 22-C , 25-C ) :   1.0724 B( 25-C , 26-H ) :   0.9577 B( 25-C , 27-H ) :   0.9542
B( 25-C , 28-C ) :   1.0940 B( 28-C , 29-H ) :   0.9712 B( 28-C , 30-H ) :   0.9748
B( 28-C , 31-H ) :   0.9747

Dispersion correction           -0.015295780
FINAL SINGLE POINT ENERGY     -1339.869782648148

DIPOLE MOMENT
-------------
                                X             Y             Z
Electronic contribution:    -18.25722      12.95122      -0.15415
Nuclear contribution   :     18.64829     -13.31098       0.33438
                        -----------------------------------------
Total Dipole Moment    :      0.39107      -0.35975       0.18022
                        -----------------------------------------
Magnitude (a.u.)       :      0.56110
Magnitude (Debye)      :      1.42621

Rotational constants in cm-1:     0.019792     0.009203     0.007349
Rotational constants in MHz :   593.349371   275.897123   220.304956

                             ****ORCA TERMINATED NORMALLY****
TOTAL RUN TIME: 0 days 0 hours 0 minutes 21 seconds 382 msec
