                         Program Version 4.2.1 -  RELEASE  -
|  1> ! wB97X-D3 SP def2-SVP
|  2> %pal
|  3> nprocs 24
|  4> end
|  5>
|  6> * xyz 0 1
|  7> S 	 -127.216 	 61.1463 	 -61.8775
|  8> C 	 -128.832 	 61.2089 	 -62.4896
|  9> C 	 -129.768 	 60.8168 	 -61.5789
| 10> C 	 -129.133 	 60.5674 	 -60.3303
| 11> C 	 -127.742 	 60.7231 	 -60.2774
| 12> H 	 -129.771 	 60.4167 	 -59.4929
| 13> C 	 -131.264 	 60.9022 	 -61.7788
| 14> H 	 -131.797 	 60.3268 	 -61.0223
| 15> H 	 -131.432 	 60.3987 	 -62.7614
| 16> C 	 -131.753 	 62.3545 	 -61.6544
| 17> H 	 -131.339 	 62.8375 	 -60.7212
| 18> H 	 -131.329 	 62.8395 	 -62.4766
| 19> C 	 -133.312 	 62.3544 	 -61.6402
| 20> H 	 -133.542 	 62.1453 	 -60.615
| 21> H 	 -133.686 	 63.4072 	 -61.704
| 22> H 	 -133.894 	 61.5687 	 -62.2073
| 23> S 	 -125.197 	 60.1834 	 -59.4013
| 24> C 	 -124.913 	 60.095 	 -57.6713
| 25> C 	 -126.04 	 60.3801 	 -56.9029
| 26> C 	 -127.171 	 60.7373 	 -57.672
| 27> C 	 -126.863 	 60.5539 	 -59.0576
| 28> H 	 -125.919 	 60.4746 	 -55.8333
| 29> C 	 -128.463 	 61.1624 	 -56.969
| 30> H 	 -128.978 	 61.8347 	 -57.6874
| 31> H 	 -128.094 	 61.7673 	 -56.1588
| 32> C 	 -129.409 	 60.1093 	 -56.5045
| 33> H 	 -128.993 	 59.3545 	 -55.8055
| 34> H 	 -129.744 	 59.6354 	 -57.4094
| 35> C 	 -130.704 	 60.7577 	 -55.9774
| 36> H 	 -131.324 	 61.1499 	 -56.8289
| 37> H 	 -130.53 	 61.5965 	 -55.3417
| 38> H 	 -131.197 	 60.0678 	 -55.3669
| 39> H 	 -128.999 	 61.3842 	 -63.5405
| 40> H 	 -124.063 	 59.837 	 -57.1941
| 41> *
| 42>
| 43>                          ****END OF INPUT****

CARTESIAN COORDINATES (ANGSTROEM)
---------------------------------
  S    -127.216000   61.146300  -61.877500
  C    -128.832000   61.208900  -62.489600
  C    -129.768000   60.816800  -61.578900
  C    -129.133000   60.567400  -60.330300
  C    -127.742000   60.723100  -60.277400
  H    -129.771000   60.416700  -59.492900
  C    -131.264000   60.902200  -61.778800
  H    -131.797000   60.326800  -61.022300
  H    -131.432000   60.398700  -62.761400
  C    -131.753000   62.354500  -61.654400
  H    -131.339000   62.837500  -60.721200
  H    -131.329000   62.839500  -62.476600
  C    -133.312000   62.354400  -61.640200
  H    -133.542000   62.145300  -60.615000
  H    -133.686000   63.407200  -61.704000
  H    -133.894000   61.568700  -62.207300
  S    -125.197000   60.183400  -59.401300
  C    -124.913000   60.095000  -57.671300
  C    -126.040000   60.380100  -56.902900
  C    -127.171000   60.737300  -57.672000
  C    -126.863000   60.553900  -59.057600
  H    -125.919000   60.474600  -55.833300
  C    -128.463000   61.162400  -56.969000
  H    -128.978000   61.834700  -57.687400
  H    -128.094000   61.767300  -56.158800
  C    -129.409000   60.109300  -56.504500
  H    -128.993000   59.354500  -55.805500
  H    -129.744000   59.635400  -57.409400
  C    -130.704000   60.757700  -55.977400
  H    -131.324000   61.149900  -56.828900
  H    -130.530000   61.596500  -55.341700
  H    -131.197000   60.067800  -55.366900
  H    -128.999000   61.384200  -63.540500
  H    -124.063000   59.837000  -57.194100

 Total Charge           Charge          ....    0
 Multiplicity           Mult            ....    1
 Number of Electrons    NEL             ....  134
 Basis Dimension        Dim             ....  322

ORBITAL ENERGIES
----------------

  NO   OCC          E(Eh)            E(eV)
   0   2.0000     -88.972612     -2421.0679
   1   2.0000     -88.965864     -2420.8842
   2   2.0000     -10.336458      -281.2693
   3   2.0000     -10.333717      -281.1947
   4   2.0000     -10.309138      -280.5259
   5   2.0000     -10.308116      -280.4981
   6   2.0000     -10.306937      -280.4660
   7   2.0000     -10.295288      -280.1490
   8   2.0000     -10.294741      -280.1341
   9   2.0000     -10.293426      -280.0984
  10   2.0000     -10.292163      -280.0640
  11   2.0000     -10.290877      -280.0290
  12   2.0000     -10.288543      -279.9655
  13   2.0000     -10.286978      -279.9229
  14   2.0000     -10.286087      -279.8987
  15   2.0000     -10.276925      -279.6493
  16   2.0000      -8.087060      -220.0601
  17   2.0000      -8.081105      -219.8981
  18   2.0000      -6.045448      -164.5050
  19   2.0000      -6.041753      -164.4045
  20   2.0000      -6.039649      -164.3472
  21   2.0000      -6.037850      -164.2982
  22   2.0000      -6.035479      -164.2337
  23   2.0000      -6.031896      -164.1362
  24   2.0000      -1.005578       -27.3632
  25   2.0000      -0.985807       -26.8252
  26   2.0000      -0.918445       -24.9921
  27   2.0000      -0.913275       -24.8515
  28   2.0000      -0.865368       -23.5479
  29   2.0000      -0.855054       -23.2672
  30   2.0000      -0.846215       -23.0267
  31   2.0000      -0.812882       -22.1197
  32   2.0000      -0.783286       -21.3143
  33   2.0000      -0.772324       -21.0160
  34   2.0000      -0.707011       -19.2388
  35   2.0000      -0.704860       -19.1802
  36   2.0000      -0.694320       -18.8934
  37   2.0000      -0.665861       -18.1190
  38   2.0000      -0.637938       -17.3592
  39   2.0000      -0.624257       -16.9869
  40   2.0000      -0.596620       -16.2349
  41   2.0000      -0.576581       -15.6896
  42   2.0000      -0.571157       -15.5420
  43   2.0000      -0.556782       -15.1508
  44   2.0000      -0.530335       -14.4311
  45   2.0000      -0.525200       -14.2914
  46   2.0000      -0.519376       -14.1329
  47   2.0000      -0.510413       -13.8890
  48   2.0000      -0.496548       -13.5118
  49   2.0000      -0.494829       -13.4650
  50   2.0000      -0.491841       -13.3837
  51   2.0000      -0.484899       -13.1948
  52   2.0000      -0.472678       -12.8622
  53   2.0000      -0.462721       -12.5913
  54   2.0000      -0.456920       -12.4334
  55   2.0000      -0.454847       -12.3770
  56   2.0000      -0.448903       -12.2153
  57   2.0000      -0.447561       -12.1788
  58   2.0000      -0.436044       -11.8654
  59   2.0000      -0.424570       -11.5531
  60   2.0000      -0.422827       -11.5057
  61   2.0000      -0.419668       -11.4197
  62   2.0000      -0.414671       -11.2838
  63   2.0000      -0.354026        -9.6335
  64   2.0000      -0.337418        -9.1816
  65   2.0000      -0.329301        -8.9607
  66   2.0000      -0.281285        -7.6542
  67   0.0000       0.023515         0.6399
  68   0.0000       0.081832         2.2268
  69   0.0000       0.099262         2.7010
  70   0.0000       0.116495         3.1700
  71   0.0000       0.126574         3.4443

MULLIKEN ATOMIC CHARGES
-----------------------
   0 S :    0.105524
   1 C :   -0.143924
   2 C :   -0.080504
   3 C :    0.013820
   4 C :   -0.096259
   5 H :   -0.034770
   6 C :    0.040020
   7 H :    0.014149
   8 H :    0.042965
   9 C :   -0.053701
  10 H :    0.044957
  11 H :    0.017052
  12 C :   -0.054536
  13 H :    0.016148
  14 H :    0.041099
  15 H :    0.053811
  16 S :    0.117217
  17 C :   -0.038326
  18 C :   -0.045854
  19 C :   -0.045717
  20 C :   -0.146779
  21 H :    0.018503
  22 C :    0.044793
  23 H :    0.029487
  24 H :    0.019346
  25 C :   -0.045396
  26 H :    0.039383
  27 H :    0.023481
  28 C :   -0.021964
  29 H :    0.036247
  30 H :    0.015086
  31 H :    0.023438
  32 H :    0.045872
  33 H :    0.005330
Sum of atomic charges:   -0.0000000

LOEWDIN ATOMIC CHARGES
----------------------
   0 S :    0.414183
   1 C :   -0.202227
   2 C :   -0.067173
   3 C :   -0.071286
   4 C :   -0.198099
   5 H :    0.017122
   6 C :   -0.031683
   7 H :    0.024270
   8 H :    0.037842
   9 C :   -0.031181
  10 H :    0.035445
  11 H :    0.011980
  12 C :   -0.079335
  13 H :    0.021999
  14 H :    0.032985
  15 H :    0.035985
  16 S :    0.415446
  17 C :   -0.171481
  18 C :   -0.064699
  19 C :   -0.053634
  20 C :   -0.192056
  21 H :    0.032065
  22 C :   -0.032806
  23 H :    0.034408
  24 H :    0.028405
  25 C :   -0.038900
  26 H :    0.029402
  27 H :    0.022846
  28 C :   -0.057247
  29 H :    0.031345
  30 H :    0.018129
  31 H :    0.019560
  32 H :    0.024142
  33 H :    0.004248

  Mayer bond orders larger than 0.100000
B(  0-S ,  1-C ) :   1.1525 B(  0-S ,  4-C ) :   1.1593 B(  1-C ,  2-C ) :   1.5827
B(  1-C , 32-H ) :   0.9678 B(  2-C ,  3-C ) :   1.2955 B(  2-C ,  6-C ) :   1.0276
B(  3-C ,  4-C ) :   1.5276 B(  3-C ,  5-H ) :   0.9941 B(  4-C , 20-C ) :   1.0433
B(  6-C ,  7-H ) :   0.9432 B(  6-C ,  8-H ) :   0.9369 B(  6-C ,  9-C ) :   1.0498
B(  9-C , 10-H ) :   0.9582 B(  9-C , 11-H ) :   0.9600 B(  9-C , 12-C ) :   1.0606
B( 12-C , 13-H ) :   0.9730 B( 12-C , 14-H ) :   0.9725 B( 12-C , 15-H ) :   0.9748
B( 16-S , 17-C ) :   1.1487 B( 16-S , 20-C ) :   1.1590 B( 17-C , 18-C ) :   1.6160
B( 17-C , 20-C ) :   0.1025 B( 17-C , 33-H ) :   0.9761 B( 18-C , 19-C ) :   1.2623
B( 18-C , 21-H ) :   0.9832 B( 19-C , 20-C ) :   1.5549 B( 19-C , 22-C ) :   1.0321
B( 22-C , 23-H ) :   0.9317 B( 22-C , 24-H ) :   0.9255 B( 22-C , 25-C ) :   1.0812
B( 25-C , 26-H ) :   0.9533 B( 25-C , 27-H ) :   0.9496 B( 25-C , 28-C ) :   1.0774
B( 28-C , 29-H ) :   0.9755 B( 28-C , 30-H ) :   0.9742 B( 28-C , 31-H ) :   0.9732

Dispersion correction           -0.013993751
FINAL SINGLE POINT ENERGY     -1339.866423188663

DIPOLE MOMENT
-------------
                                X             Y             Z
Electronic contribution:     31.81170      -5.02845     -10.20114
Nuclear contribution   :    -32.40915       5.14253      10.64969
                        -----------------------------------------
Total Dipole Moment    :     -0.59745       0.11408       0.44855
                        -----------------------------------------
Magnitude (a.u.)       :      0.75575
Magnitude (Debye)      :      1.92096

Rotational constants in cm-1:     0.017452     0.009306     0.006281
Rotational constants in MHz :   523.211872   278.996884   188.309062

                             ****ORCA TERMINATED NORMALLY****
TOTAL RUN TIME: 0 days 0 hours 0 minutes 22 seconds 966 msec
