                         Program Version 4.2.1 -  RELEASE  -
|  1> ! wB97X-D3 SP def2-SVP
|  2> %pal
|  3> nprocs 24
|  4> end
|  5>
|  6> * xyz 0 1
|  7> S 	 -67.9634 	 12.2665 	 -72.1938
|  8> C 	 -69.6411 	 12.4596 	 -72.629
|  9> C 	 -70.4662 	 11.8244 	 -71.795
| 10> C 	 -69.7669 	 11.1006 	 -70.7513
| 11> C 	 -68.3965 	 11.1214 	 -70.977
| 12> H 	 -70.2148 	 10.4711 	 -70.0012
| 13> C 	 -71.9396 	 11.8396 	 -71.8542
| 14> H 	 -72.1746 	 12.9115 	 -71.9817
| 15> H 	 -72.2869 	 11.5331 	 -70.8518
| 16> C 	 -72.6505 	 10.9831 	 -72.9018
| 17> H 	 -72.3985 	 9.94222 	 -72.7616
| 18> H 	 -73.7579 	 11.0107 	 -72.5942
| 19> C 	 -72.4549 	 11.2428 	 -74.4343
| 20> H 	 -72.3232 	 10.2422 	 -74.9378
| 21> H 	 -73.1737 	 11.8674 	 -74.8917
| 22> H 	 -71.4265 	 11.6586 	 -74.6433
| 23> S 	 -66.2829 	 11.5196 	 -69.2554
| 24> C 	 -65.4594 	 10.1758 	 -68.5431
| 25> C 	 -65.8937 	 8.96384 	 -69.1265
| 26> C 	 -66.9838 	 9.15303 	 -70.0889
| 27> C 	 -67.3585 	 10.489 	 -70.1326
| 28> H 	 -65.3895 	 7.98238 	 -68.911
| 29> C 	 -67.6549 	 7.97922 	 -70.6801
| 30> H 	 -68.6863 	 8.03302 	 -70.3132
| 31> H 	 -67.1982 	 7.11011 	 -70.2204
| 32> C 	 -67.5477 	 7.71989 	 -72.1943
| 33> H 	 -66.4832 	 7.77643 	 -72.5055
| 34> H 	 -68.1262 	 8.43808 	 -72.7979
| 35> C 	 -68.0697 	 6.36444 	 -72.6592
| 36> H 	 -69.1683 	 6.426 	 -72.6464
| 37> H 	 -67.7365 	 5.48714 	 -72.0154
| 38> H 	 -67.7471 	 6.24007 	 -73.7338
| 39> H 	 -70.0202 	 13.0887 	 -73.3626
| 40> H 	 -64.7694 	 10.219 	 -67.7213
| 41> *
| 42>
| 43>                          ****END OF INPUT****

CARTESIAN COORDINATES (ANGSTROEM)
---------------------------------
  S    -67.963400   12.266500  -72.193800
  C    -69.641100   12.459600  -72.629000
  C    -70.466200   11.824400  -71.795000
  C    -69.766900   11.100600  -70.751300
  C    -68.396500   11.121400  -70.977000
  H    -70.214800   10.471100  -70.001200
  C    -71.939600   11.839600  -71.854200
  H    -72.174600   12.911500  -71.981700
  H    -72.286900   11.533100  -70.851800
  C    -72.650500   10.983100  -72.901800
  H    -72.398500    9.942220  -72.761600
  H    -73.757900   11.010700  -72.594200
  C    -72.454900   11.242800  -74.434300
  H    -72.323200   10.242200  -74.937800
  H    -73.173700   11.867400  -74.891700
  H    -71.426500   11.658600  -74.643300
  S    -66.282900   11.519600  -69.255400
  C    -65.459400   10.175800  -68.543100
  C    -65.893700    8.963840  -69.126500
  C    -66.983800    9.153030  -70.088900
  C    -67.358500   10.489000  -70.132600
  H    -65.389500    7.982380  -68.911000
  C    -67.654900    7.979220  -70.680100
  H    -68.686300    8.033020  -70.313200
  H    -67.198200    7.110110  -70.220400
  C    -67.547700    7.719890  -72.194300
  H    -66.483200    7.776430  -72.505500
  H    -68.126200    8.438080  -72.797900
  C    -68.069700    6.364440  -72.659200
  H    -69.168300    6.426000  -72.646400
  H    -67.736500    5.487140  -72.015400
  H    -67.747100    6.240070  -73.733800
  H    -70.020200   13.088700  -73.362600
  H    -64.769400   10.219000  -67.721300

 Total Charge           Charge          ....    0
 Multiplicity           Mult            ....    1
 Number of Electrons    NEL             ....  134
 Basis Dimension        Dim             ....  322

ORBITAL ENERGIES
----------------

  NO   OCC          E(Eh)            E(eV)
   0   2.0000     -88.966381     -2420.8983
   1   2.0000     -88.964852     -2420.8567
   2   2.0000     -10.328103      -281.0420
   3   2.0000     -10.323241      -280.9097
   4   2.0000     -10.318026      -280.7678
   5   2.0000     -10.302969      -280.3580
   6   2.0000     -10.301823      -280.3268
   7   2.0000     -10.300904      -280.3018
   8   2.0000     -10.294890      -280.1382
   9   2.0000     -10.293437      -280.0986
  10   2.0000     -10.291551      -280.0473
  11   2.0000     -10.291218      -280.0383
  12   2.0000     -10.288661      -279.9687
  13   2.0000     -10.285886      -279.8932
  14   2.0000     -10.285606      -279.8856
  15   2.0000     -10.285354      -279.8787
  16   2.0000      -8.081701      -219.9143
  17   2.0000      -8.080252      -219.8748
  18   2.0000      -6.040159      -164.3611
  19   2.0000      -6.038693      -164.3212
  20   2.0000      -6.036041      -164.2490
  21   2.0000      -6.034795      -164.2151
  22   2.0000      -6.032567      -164.1545
  23   2.0000      -6.030906      -164.1093
  24   2.0000      -1.009291       -27.4642
  25   2.0000      -0.986643       -26.8479
  26   2.0000      -0.912034       -24.8177
  27   2.0000      -0.909823       -24.7576
  28   2.0000      -0.864237       -23.5171
  29   2.0000      -0.853388       -23.2219
  30   2.0000      -0.845574       -23.0092
  31   2.0000      -0.812240       -22.1022
  32   2.0000      -0.785065       -21.3627
  33   2.0000      -0.773544       -21.0492
  34   2.0000      -0.704278       -19.1644
  35   2.0000      -0.699198       -19.0262
  36   2.0000      -0.685471       -18.6526
  37   2.0000      -0.661976       -18.0133
  38   2.0000      -0.642927       -17.4949
  39   2.0000      -0.613351       -16.6901
  40   2.0000      -0.591521       -16.0961
  41   2.0000      -0.568675       -15.4744
  42   2.0000      -0.566495       -15.4151
  43   2.0000      -0.543750       -14.7962
  44   2.0000      -0.535950       -14.5839
  45   2.0000      -0.526834       -14.3359
  46   2.0000      -0.519823       -14.1451
  47   2.0000      -0.514549       -14.0016
  48   2.0000      -0.504771       -13.7355
  49   2.0000      -0.498807       -13.5732
  50   2.0000      -0.491960       -13.3869
  51   2.0000      -0.483920       -13.1681
  52   2.0000      -0.472807       -12.8657
  53   2.0000      -0.463630       -12.6160
  54   2.0000      -0.455567       -12.3966
  55   2.0000      -0.448488       -12.2040
  56   2.0000      -0.442350       -12.0370
  57   2.0000      -0.432023       -11.7560
  58   2.0000      -0.429270       -11.6810
  59   2.0000      -0.423756       -11.5310
  60   2.0000      -0.421122       -11.4593
  61   2.0000      -0.415611       -11.3094
  62   2.0000      -0.411935       -11.2093
  63   2.0000      -0.337354        -9.1799
  64   2.0000      -0.329648        -8.9702
  65   2.0000      -0.326287        -8.8787
  66   2.0000      -0.300506        -8.1772
  67   0.0000       0.041100         1.1184
  68   0.0000       0.059783         1.6268
  69   0.0000       0.111652         3.0382
  70   0.0000       0.122539         3.3345
  71   0.0000       0.126603         3.4450

MULLIKEN ATOMIC CHARGES
-----------------------
   0 S :    0.117679
   1 C :   -0.098676
   2 C :   -0.089252
   3 C :    0.035971
   4 C :   -0.155899
   5 H :    0.012783
   6 C :    0.065100
   7 H :    0.033885
   8 H :    0.019977
   9 C :   -0.070404
  10 H :    0.018878
  11 H :    0.041025
  12 C :   -0.067070
  13 H :    0.041209
  14 H :    0.042972
  15 H :    0.027061
  16 S :    0.123819
  17 C :   -0.092574
  18 C :   -0.058949
  19 C :   -0.033837
  20 C :   -0.182822
  21 H :    0.040706
  22 C :    0.096484
  23 H :    0.032953
  24 H :    0.000226
  25 C :   -0.086393
  26 H :    0.033289
  27 H :    0.040338
  28 C :   -0.081548
  29 H :    0.032557
  30 H :    0.040719
  31 H :    0.047449
  32 H :    0.016710
  33 H :    0.055635
Sum of atomic charges:   -0.0000000

LOEWDIN ATOMIC CHARGES
----------------------
   0 S :    0.414152
   1 C :   -0.193331
   2 C :   -0.067188
   3 C :   -0.060572
   4 C :   -0.195662
   5 H :    0.029321
   6 C :   -0.037942
   7 H :    0.035150
   8 H :    0.034677
   9 C :   -0.045630
  10 H :    0.021846
  11 H :    0.034559
  12 C :   -0.075049
  13 H :    0.038227
  14 H :    0.019164
  15 H :    0.030759
  16 S :    0.427148
  17 C :   -0.196321
  18 C :   -0.075114
  19 C :   -0.054668
  20 C :   -0.213932
  21 H :    0.038093
  22 C :   -0.036780
  23 H :    0.036640
  24 H :    0.029036
  25 C :   -0.044468
  26 H :    0.026778
  27 H :    0.028258
  28 C :   -0.074107
  29 H :    0.023450
  30 H :    0.027206
  31 H :    0.034801
  32 H :    0.013782
  33 H :    0.027718

  Mayer bond orders larger than 0.100000
B(  0-S ,  1-C ) :   1.1152 B(  0-S ,  4-C ) :   1.1631 B(  1-C ,  2-C ) :   1.6537
B(  1-C , 32-H ) :   0.9680 B(  2-C ,  3-C ) :   1.2205 B(  2-C ,  6-C ) :   1.0179
B(  3-C ,  4-C ) :   1.5964 B(  3-C ,  5-H ) :   0.9919 B(  4-C , 20-C ) :   1.0061
B(  6-C ,  7-H ) :   0.9389 B(  6-C ,  8-H ) :   0.9357 B(  6-C ,  9-C ) :   1.0774
B(  9-C , 10-H ) :   0.9587 B(  9-C , 11-H ) :   0.9570 B(  9-C , 12-C ) :   1.0595
B( 12-C , 13-H ) :   0.9774 B( 12-C , 14-H ) :   0.9790 B( 12-C , 15-H ) :   0.9710
B( 16-S , 17-C ) :   1.1652 B( 16-S , 20-C ) :   1.1559 B( 17-C , 18-C ) :   1.5952
B( 17-C , 33-H ) :   0.9709 B( 18-C , 19-C ) :   1.2536 B( 18-C , 21-H ) :   0.9758
B( 19-C , 20-C ) :   1.5884 B( 19-C , 22-C ) :   1.0514 B( 22-C , 23-H ) :   0.9290
B( 22-C , 24-H ) :   0.9237 B( 22-C , 25-C ) :   1.0616 B( 25-C , 26-H ) :   0.9576
B( 25-C , 27-H ) :   0.9529 B( 25-C , 28-C ) :   1.0839 B( 28-C , 29-H ) :   0.9768
B( 28-C , 30-H ) :   0.9724 B( 28-C , 31-H ) :   0.9741

Dispersion correction           -0.014286569
FINAL SINGLE POINT ENERGY     -1339.878058271066

DIPOLE MOMENT
-------------
                                X             Y             Z
Electronic contribution:     18.82967      17.31858      13.77491
Nuclear contribution   :    -19.22724     -17.73395     -13.79774
                        -----------------------------------------
Total Dipole Moment    :     -0.39758      -0.41537      -0.02283
                        -----------------------------------------
Magnitude (a.u.)       :      0.57543
Magnitude (Debye)      :      1.46263

Rotational constants in cm-1:     0.018925     0.008910     0.006884
Rotational constants in MHz :   567.367284   267.105683   206.380526

                             ****ORCA TERMINATED NORMALLY****
TOTAL RUN TIME: 0 days 0 hours 0 minutes 21 seconds 592 msec
