                         Program Version 4.2.1 -  RELEASE  -
|  1> ! wB97X-D3 SP def2-SVP
|  2> %pal
|  3> nprocs 24
|  4> end
|  5>
|  6> * xyz 0 1
|  7> S 	 34.9573 	 -34.0783 	 -128.92
|  8> C 	 35.3148 	 -32.4997 	 -128.515
|  9> C 	 36.645 	 -32.1637 	 -128.893
| 10> C 	 37.2466 	 -33.2608 	 -129.65
| 11> C 	 36.4782 	 -34.3532 	 -129.755
| 12> H 	 38.2875 	 -33.366 	 -130.012
| 13> C 	 37.3892 	 -30.8855 	 -128.641
| 14> H 	 36.6034 	 -30.0903 	 -128.518
| 15> H 	 37.9321 	 -30.6043 	 -129.526
| 16> C 	 38.2793 	 -30.8476 	 -127.443
| 17> H 	 38.2984 	 -29.882 	 -127.005
| 18> H 	 37.7123 	 -31.4845 	 -126.777
| 19> C 	 39.7873 	 -31.1612 	 -127.73
| 20> H 	 39.9894 	 -32.2455 	 -127.89
| 21> H 	 40.2657 	 -30.4138 	 -128.455
| 22> H 	 40.2913 	 -31.0032 	 -126.806
| 23> S 	 35.2366 	 -36.3972 	 -130.979
| 24> C 	 36.129 	 -37.6546 	 -131.808
| 25> C 	 37.4946 	 -37.5045 	 -131.602
| 26> C 	 37.8277 	 -36.3047 	 -130.853
| 27> C 	 36.6992 	 -35.5988 	 -130.454
| 28> H 	 38.2034 	 -38.2579 	 -132.052
| 29> C 	 39.2683 	 -35.9277 	 -130.551
| 30> H 	 39.9172 	 -36.7138 	 -130.222
| 31> H 	 39.2032 	 -35.4364 	 -129.588
| 32> C 	 39.9144 	 -34.9929 	 -131.66
| 33> H 	 39.3048 	 -34.2013 	 -131.908
| 34> H 	 40.0067 	 -35.6065 	 -132.527
| 35> C 	 41.2936 	 -34.5356 	 -131.339
| 36> H 	 41.299 	 -33.6651 	 -130.617
| 37> H 	 41.8218 	 -34.2156 	 -132.248
| 38> H 	 41.8853 	 -35.3887 	 -130.954
| 39> H 	 34.6923 	 -31.7979 	 -128.023
| 40> H 	 35.7052 	 -38.5215 	 -132.324
| 41> *
| 42>
| 43>                          ****END OF INPUT****

CARTESIAN COORDINATES (ANGSTROEM)
---------------------------------
  S     34.957300  -34.078300  -128.920000
  C     35.314800  -32.499700  -128.515000
  C     36.645000  -32.163700  -128.893000
  C     37.246600  -33.260800  -129.650000
  C     36.478200  -34.353200  -129.755000
  H     38.287500  -33.366000  -130.012000
  C     37.389200  -30.885500  -128.641000
  H     36.603400  -30.090300  -128.518000
  H     37.932100  -30.604300  -129.526000
  C     38.279300  -30.847600  -127.443000
  H     38.298400  -29.882000  -127.005000
  H     37.712300  -31.484500  -126.777000
  C     39.787300  -31.161200  -127.730000
  H     39.989400  -32.245500  -127.890000
  H     40.265700  -30.413800  -128.455000
  H     40.291300  -31.003200  -126.806000
  S     35.236600  -36.397200  -130.979000
  C     36.129000  -37.654600  -131.808000
  C     37.494600  -37.504500  -131.602000
  C     37.827700  -36.304700  -130.853000
  C     36.699200  -35.598800  -130.454000
  H     38.203400  -38.257900  -132.052000
  C     39.268300  -35.927700  -130.551000
  H     39.917200  -36.713800  -130.222000
  H     39.203200  -35.436400  -129.588000
  C     39.914400  -34.992900  -131.660000
  H     39.304800  -34.201300  -131.908000
  H     40.006700  -35.606500  -132.527000
  C     41.293600  -34.535600  -131.339000
  H     41.299000  -33.665100  -130.617000
  H     41.821800  -34.215600  -132.248000
  H     41.885300  -35.388700  -130.954000
  H     34.692300  -31.797900  -128.023000
  H     35.705200  -38.521500  -132.324000

 Total Charge           Charge          ....    0
 Multiplicity           Mult            ....    1
 Number of Electrons    NEL             ....  134
 Basis Dimension        Dim             ....  322

ORBITAL ENERGIES
----------------

  NO   OCC          E(Eh)            E(eV)
   0   2.0000     -88.965270     -2420.8681
   1   2.0000     -88.964461     -2420.8460
   2   2.0000     -10.328683      -281.0578
   3   2.0000     -10.324916      -280.9552
   4   2.0000     -10.318521      -280.7812
   5   2.0000     -10.312670      -280.6220
   6   2.0000     -10.307979      -280.4944
   7   2.0000     -10.304728      -280.4059
   8   2.0000     -10.300628      -280.2943
   9   2.0000     -10.292511      -280.0734
  10   2.0000     -10.292158      -280.0639
  11   2.0000     -10.286765      -279.9171
  12   2.0000     -10.286148      -279.9003
  13   2.0000     -10.282996      -279.8145
  14   2.0000     -10.280828      -279.7556
  15   2.0000     -10.280290      -279.7409
  16   2.0000      -8.080667      -219.8861
  17   2.0000      -8.080091      -219.8705
  18   2.0000      -6.039139      -164.3333
  19   2.0000      -6.038698      -164.3213
  20   2.0000      -6.034872      -164.2172
  21   2.0000      -6.034522      -164.2077
  22   2.0000      -6.031471      -164.1247
  23   2.0000      -6.030797      -164.1063
  24   2.0000      -1.012976       -27.5645
  25   2.0000      -0.985285       -26.8110
  26   2.0000      -0.915415       -24.9097
  27   2.0000      -0.910259       -24.7694
  28   2.0000      -0.874480       -23.7958
  29   2.0000      -0.856093       -23.2955
  30   2.0000      -0.844796       -22.9881
  31   2.0000      -0.818007       -22.2591
  32   2.0000      -0.781093       -21.2546
  33   2.0000      -0.770830       -20.9753
  34   2.0000      -0.706858       -19.2346
  35   2.0000      -0.703426       -19.1412
  36   2.0000      -0.697380       -18.9767
  37   2.0000      -0.665042       -18.0967
  38   2.0000      -0.641481       -17.4556
  39   2.0000      -0.615523       -16.7492
  40   2.0000      -0.595297       -16.1989
  41   2.0000      -0.574839       -15.6422
  42   2.0000      -0.569504       -15.4970
  43   2.0000      -0.548361       -14.9217
  44   2.0000      -0.540406       -14.7052
  45   2.0000      -0.527276       -14.3479
  46   2.0000      -0.516962       -14.0672
  47   2.0000      -0.513683       -13.9780
  48   2.0000      -0.507190       -13.8013
  49   2.0000      -0.504205       -13.7201
  50   2.0000      -0.492435       -13.3998
  51   2.0000      -0.485158       -13.2018
  52   2.0000      -0.471617       -12.8333
  53   2.0000      -0.463537       -12.6135
  54   2.0000      -0.460352       -12.5268
  55   2.0000      -0.452546       -12.3144
  56   2.0000      -0.441201       -12.0057
  57   2.0000      -0.435426       -11.8486
  58   2.0000      -0.431171       -11.7328
  59   2.0000      -0.427031       -11.6201
  60   2.0000      -0.418757       -11.3950
  61   2.0000      -0.412561       -11.2264
  62   2.0000      -0.408981       -11.1289
  63   2.0000      -0.364367        -9.9149
  64   2.0000      -0.332670        -9.0524
  65   2.0000      -0.324334        -8.8256
  66   2.0000      -0.284907        -7.7527
  67   0.0000       0.025487         0.6935
  68   0.0000       0.081333         2.2132
  69   0.0000       0.105824         2.8796
  70   0.0000       0.118673         3.2293
  71   0.0000       0.122551         3.3348

MULLIKEN ATOMIC CHARGES
-----------------------
   0 S :    0.112779
   1 C :   -0.079741
   2 C :   -0.132359
   3 C :   -0.007142
   4 C :   -0.111346
   5 H :    0.010944
   6 C :    0.064989
   7 H :    0.020018
   8 H :    0.015658
   9 C :   -0.035890
  10 H :    0.019007
  11 H :    0.021232
  12 C :   -0.071234
  13 H :    0.045703
  14 H :    0.051781
  15 H :    0.022067
  16 S :    0.095343
  17 C :   -0.095991
  18 C :   -0.051703
  19 C :   -0.054423
  20 C :   -0.111141
  21 H :    0.041245
  22 C :    0.036762
  23 H :    0.015330
  24 H :    0.013832
  25 C :   -0.017524
  26 H :    0.016206
  27 H :    0.016236
  28 C :   -0.059326
  29 H :    0.040817
  30 H :    0.036364
  31 H :    0.031448
  32 H :    0.035778
  33 H :    0.064280
Sum of atomic charges:   -0.0000000

LOEWDIN ATOMIC CHARGES
----------------------
   0 S :    0.429457
   1 C :   -0.217177
   2 C :   -0.060267
   3 C :   -0.072403
   4 C :   -0.191382
   5 H :    0.037506
   6 C :   -0.039954
   7 H :    0.035959
   8 H :    0.025191
   9 C :   -0.040960
  10 H :    0.021436
  11 H :    0.026677
  12 C :   -0.074423
  13 H :    0.029437
  14 H :    0.037994
  15 H :    0.022080
  16 S :    0.405208
  17 C :   -0.192392
  18 C :   -0.076689
  19 C :   -0.057355
  20 C :   -0.190833
  21 H :    0.042067
  22 C :   -0.035980
  23 H :    0.028728
  24 H :    0.027529
  25 C :   -0.031448
  26 H :    0.012942
  27 H :    0.024204
  28 C :   -0.069072
  29 H :    0.028263
  30 H :    0.028823
  31 H :    0.027372
  32 H :    0.024694
  33 H :    0.034766

  Mayer bond orders larger than 0.100000
B(  0-S ,  1-C ) :   1.1619 B(  0-S ,  4-C ) :   1.1330 B(  1-C ,  2-C ) :   1.5807
B(  1-C , 32-H ) :   0.9727 B(  2-C ,  3-C ) :   1.2267 B(  2-C ,  6-C ) :   1.0499
B(  3-C ,  4-C ) :   1.6097 B(  3-C ,  5-H ) :   0.9835 B(  4-C , 20-C ) :   1.0543
B(  6-C ,  7-H ) :   0.9333 B(  6-C ,  8-H ) :   0.9394 B(  6-C ,  9-C ) :   1.0621
B(  9-C , 10-H ) :   0.9545 B(  9-C , 11-H ) :   0.9533 B(  9-C , 12-C ) :   1.0806
B( 12-C , 13-H ) :   0.9738 B( 12-C , 14-H ) :   0.9711 B( 12-C , 15-H ) :   0.9713
B( 16-S , 17-C ) :   1.1475 B( 16-S , 20-C ) :   1.1346 B( 17-C , 18-C ) :   1.6195
B( 17-C , 33-H ) :   0.9656 B( 18-C , 19-C ) :   1.2329 B( 18-C , 21-H ) :   0.9811
B( 19-C , 20-C ) :   1.5973 B( 19-C , 22-C ) :   1.0424 B( 22-C , 23-H ) :   0.9350
B( 22-C , 24-H ) :   0.9352 B( 22-C , 25-C ) :   1.0446 B( 25-C , 26-H ) :   0.9545
B( 25-C , 27-H ) :   0.9510 B( 25-C , 28-C ) :   1.0926 B( 28-C , 29-H ) :   0.9742
B( 28-C , 30-H ) :   0.9717 B( 28-C , 31-H ) :   0.9698

Dispersion correction           -0.014548234
FINAL SINGLE POINT ENERGY     -1339.869924565350

DIPOLE MOMENT
-------------
                                X             Y             Z
Electronic contribution:    -28.98346     -14.49189      -2.83328
Nuclear contribution   :     29.64221      14.69581       2.84544
                        -----------------------------------------
Total Dipole Moment    :      0.65875       0.20392       0.01216
                        -----------------------------------------
Magnitude (a.u.)       :      0.68970
Magnitude (Debye)      :      1.75308

Rotational constants in cm-1:     0.017160     0.010360     0.006724
Rotational constants in MHz :   514.428896   310.571906   201.580242

                             ****ORCA TERMINATED NORMALLY****
TOTAL RUN TIME: 0 days 0 hours 0 minutes 20 seconds 927 msec
