                         Program Version 4.2.1 -  RELEASE  -
|  1> ! wB97X-D3 SP def2-SVP
|  2> %pal
|  3> nprocs 24
|  4> end
|  5>
|  6> * xyz 0 1
|  7> S 	 -89.4258 	 -24.9316 	 -60.2825
|  8> C 	 -89.4315 	 -23.3638 	 -59.4484
|  9> C 	 -89.648 	 -23.535 	 -58.0656
| 10> C 	 -89.7973 	 -24.9209 	 -57.7132
| 11> C 	 -89.8136 	 -25.7625 	 -58.8045
| 12> H 	 -89.9326 	 -25.2374 	 -56.6923
| 13> C 	 -89.5506 	 -22.3611 	 -57.0569
| 14> H 	 -88.8945 	 -21.5589 	 -57.4907
| 15> H 	 -88.9068 	 -22.8464 	 -56.3187
| 16> C 	 -90.8043 	 -21.9272 	 -56.2966
| 17> H 	 -90.4569 	 -21.0518 	 -55.6275
| 18> H 	 -91.6509 	 -21.6377 	 -57.0182
| 19> C 	 -91.3507 	 -23.0429 	 -55.3655
| 20> H 	 -91.7883 	 -23.8837 	 -55.9004
| 21> H 	 -90.5501 	 -23.4127 	 -54.6785
| 22> H 	 -92.1062 	 -22.5983 	 -54.7412
| 23> S 	 -88.9038 	 -28.2488 	 -59.5379
| 24> C 	 -89.7309 	 -29.6859 	 -59.0432
| 25> C 	 -90.7041 	 -29.3525 	 -58.1686
| 26> C 	 -91.0181 	 -27.9504 	 -58.0598
| 27> C 	 -90.0084 	 -27.2084 	 -58.7168
| 28> H 	 -91.342 	 -30.1851 	 -57.8194
| 29> C 	 -92.2238 	 -27.4616 	 -57.2954
| 30> H 	 -91.854 	 -26.7095 	 -56.6027
| 31> H 	 -92.5886 	 -28.1801 	 -56.6565
| 32> C 	 -93.4232 	 -26.9924 	 -58.0382
| 33> H 	 -94.268 	 -27.0137 	 -57.3062
| 34> H 	 -93.6201 	 -27.7074 	 -58.7908
| 35> C 	 -93.3397 	 -25.5156 	 -58.4852
| 36> H 	 -92.6693 	 -25.4 	 -59.2703
| 37> H 	 -93.1044 	 -24.826 	 -57.6558
| 38> H 	 -94.2227 	 -25.1193 	 -58.9395
| 39> H 	 -89.3412 	 -22.4238 	 -59.979
| 40> H 	 -89.5033 	 -30.7288 	 -59.3836
| 41> *
| 42>
| 43>                          ****END OF INPUT****

CARTESIAN COORDINATES (ANGSTROEM)
---------------------------------
  S    -89.425800  -24.931600  -60.282500
  C    -89.431500  -23.363800  -59.448400
  C    -89.648000  -23.535000  -58.065600
  C    -89.797300  -24.920900  -57.713200
  C    -89.813600  -25.762500  -58.804500
  H    -89.932600  -25.237400  -56.692300
  C    -89.550600  -22.361100  -57.056900
  H    -88.894500  -21.558900  -57.490700
  H    -88.906800  -22.846400  -56.318700
  C    -90.804300  -21.927200  -56.296600
  H    -90.456900  -21.051800  -55.627500
  H    -91.650900  -21.637700  -57.018200
  C    -91.350700  -23.042900  -55.365500
  H    -91.788300  -23.883700  -55.900400
  H    -90.550100  -23.412700  -54.678500
  H    -92.106200  -22.598300  -54.741200
  S    -88.903800  -28.248800  -59.537900
  C    -89.730900  -29.685900  -59.043200
  C    -90.704100  -29.352500  -58.168600
  C    -91.018100  -27.950400  -58.059800
  C    -90.008400  -27.208400  -58.716800
  H    -91.342000  -30.185100  -57.819400
  C    -92.223800  -27.461600  -57.295400
  H    -91.854000  -26.709500  -56.602700
  H    -92.588600  -28.180100  -56.656500
  C    -93.423200  -26.992400  -58.038200
  H    -94.268000  -27.013700  -57.306200
  H    -93.620100  -27.707400  -58.790800
  C    -93.339700  -25.515600  -58.485200
  H    -92.669300  -25.400000  -59.270300
  H    -93.104400  -24.826000  -57.655800
  H    -94.222700  -25.119300  -58.939500
  H    -89.341200  -22.423800  -59.979000
  H    -89.503300  -30.728800  -59.383600

 Total Charge           Charge          ....    0
 Multiplicity           Mult            ....    1
 Number of Electrons    NEL             ....  134
 Basis Dimension        Dim             ....  322

ORBITAL ENERGIES
----------------

  NO   OCC          E(Eh)            E(eV)
   0   2.0000     -88.968535     -2420.9569
   1   2.0000     -88.963232     -2420.8126
   2   2.0000     -10.329328      -281.0753
   3   2.0000     -10.327110      -281.0150
   4   2.0000     -10.317632      -280.7570
   5   2.0000     -10.314553      -280.6732
   6   2.0000     -10.306836      -280.4633
   7   2.0000     -10.305370      -280.4234
   8   2.0000     -10.304421      -280.3976
   9   2.0000     -10.298421      -280.2343
  10   2.0000     -10.294079      -280.1161
  11   2.0000     -10.290498      -280.0187
  12   2.0000     -10.284229      -279.8481
  13   2.0000     -10.281373      -279.7704
  14   2.0000     -10.279595      -279.7220
  15   2.0000     -10.264302      -279.3059
  16   2.0000      -8.082716      -219.9419
  17   2.0000      -8.078828      -219.8361
  18   2.0000      -6.041264      -164.3911
  19   2.0000      -6.037301      -164.2833
  20   2.0000      -6.037266      -164.2824
  21   2.0000      -6.033510      -164.1802
  22   2.0000      -6.033071      -164.1682
  23   2.0000      -6.029723      -164.0771
  24   2.0000      -1.007618       -27.4187
  25   2.0000      -0.982924       -26.7467
  26   2.0000      -0.915596       -24.9146
  27   2.0000      -0.908518       -24.7220
  28   2.0000      -0.867624       -23.6093
  29   2.0000      -0.847965       -23.0743
  30   2.0000      -0.842014       -22.9124
  31   2.0000      -0.814959       -22.1762
  32   2.0000      -0.786963       -21.4144
  33   2.0000      -0.774758       -21.0822
  34   2.0000      -0.707390       -19.2490
  35   2.0000      -0.695496       -18.9254
  36   2.0000      -0.691232       -18.8094
  37   2.0000      -0.654967       -17.8226
  38   2.0000      -0.637061       -17.3353
  39   2.0000      -0.618995       -16.8437
  40   2.0000      -0.599025       -16.3003
  41   2.0000      -0.569567       -15.4987
  42   2.0000      -0.551993       -15.0205
  43   2.0000      -0.548421       -14.9233
  44   2.0000      -0.544376       -14.8132
  45   2.0000      -0.536012       -14.5856
  46   2.0000      -0.516173       -14.0458
  47   2.0000      -0.511457       -13.9175
  48   2.0000      -0.501337       -13.6421
  49   2.0000      -0.497359       -13.5338
  50   2.0000      -0.489724       -13.3261
  51   2.0000      -0.479272       -13.0416
  52   2.0000      -0.477167       -12.9844
  53   2.0000      -0.467881       -12.7317
  54   2.0000      -0.459228       -12.4962
  55   2.0000      -0.444478       -12.0948
  56   2.0000      -0.440288       -11.9809
  57   2.0000      -0.437085       -11.8937
  58   2.0000      -0.431215       -11.7340
  59   2.0000      -0.425011       -11.5651
  60   2.0000      -0.421942       -11.4816
  61   2.0000      -0.411908       -11.2086
  62   2.0000      -0.409379       -11.1398
  63   2.0000      -0.347346        -9.4518
  64   2.0000      -0.331520        -9.0211
  65   2.0000      -0.328897        -8.9497
  66   2.0000      -0.290106        -7.8942
  67   0.0000       0.028020         0.7625
  68   0.0000       0.076244         2.0747
  69   0.0000       0.109949         2.9919
  70   0.0000       0.121559         3.3078
  71   0.0000       0.125814         3.4236

MULLIKEN ATOMIC CHARGES
-----------------------
   0 S :    0.112423
   1 C :   -0.139764
   2 C :   -0.093686
   3 C :    0.029475
   4 C :   -0.141610
   5 H :    0.013887
   6 C :    0.043406
   7 H :    0.039342
   8 H :    0.024110
   9 C :   -0.085540
  10 H :    0.050512
  11 H :    0.051500
  12 C :   -0.078285
  13 H :    0.044283
  14 H :    0.034371
  15 H :    0.036027
  16 S :    0.108229
  17 C :   -0.115184
  18 C :   -0.039439
  19 C :   -0.058589
  20 C :   -0.154778
  21 H :    0.026094
  22 C :    0.126032
  23 H :    0.002656
  24 H :   -0.012179
  25 C :   -0.043107
  26 H :    0.025478
  27 H :    0.020214
  28 C :   -0.012814
  29 H :    0.021192
  30 H :    0.023040
  31 H :    0.013432
  32 H :    0.053943
  33 H :    0.075328
Sum of atomic charges:    0.0000000

LOEWDIN ATOMIC CHARGES
----------------------
   0 S :    0.400809
   1 C :   -0.194285
   2 C :   -0.058229
   3 C :   -0.061789
   4 C :   -0.197057
   5 H :    0.029171
   6 C :   -0.043994
   7 H :    0.036448
   8 H :    0.033200
   9 C :   -0.046952
  10 H :    0.037256
  11 H :    0.033826
  12 C :   -0.070754
  13 H :    0.021027
  14 H :    0.027664
  15 H :    0.026426
  16 S :    0.420218
  17 C :   -0.203165
  18 C :   -0.081181
  19 C :   -0.054034
  20 C :   -0.205331
  21 H :    0.034258
  22 C :   -0.031826
  23 H :    0.029250
  24 H :    0.023228
  25 C :   -0.028247
  26 H :    0.028536
  27 H :    0.020648
  28 C :   -0.061574
  29 H :    0.016696
  30 H :    0.026492
  31 H :    0.021938
  32 H :    0.027633
  33 H :    0.043695

  Mayer bond orders larger than 0.100000
B(  0-S ,  1-C ) :   1.1317 B(  0-S ,  4-C ) :   1.1533 B(  1-C ,  2-C ) :   1.6006
B(  1-C , 32-H ) :   0.9724 B(  2-C ,  3-C ) :   1.2514 B(  2-C ,  6-C ) :   0.9988
B(  3-C ,  4-C ) :   1.5556 B(  3-C ,  5-H ) :   0.9922 B(  4-C , 20-C ) :   1.0414
B(  6-C ,  7-H ) :   0.9501 B(  6-C ,  8-H ) :   0.9402 B(  6-C ,  9-C ) :   1.0580
B(  9-C , 10-H ) :   0.9520 B(  9-C , 11-H ) :   0.9540 B(  9-C , 12-C ) :   1.0771
B( 12-C , 13-H ) :   0.9696 B( 12-C , 14-H ) :   0.9705 B( 12-C , 15-H ) :   0.9709
B( 16-S , 17-C ) :   1.1482 B( 16-S , 20-C ) :   1.1632 B( 17-C , 18-C ) :   1.6216
B( 17-C , 33-H ) :   0.9612 B( 18-C , 19-C ) :   1.2549 B( 18-C , 21-H ) :   0.9770
B( 19-C , 20-C ) :   1.5584 B( 19-C , 22-C ) :   1.0437 B( 22-C , 23-H ) :   0.9219
B( 22-C , 24-H ) :   0.9147 B( 22-C , 25-C ) :   1.0809 B( 25-C , 26-H ) :   0.9542
B( 25-C , 27-H ) :   0.9509 B( 25-C , 28-C ) :   1.0835 B( 28-C , 29-H ) :   0.9718
B( 28-C , 30-H ) :   0.9711 B( 28-C , 31-H ) :   0.9667

Dispersion correction           -0.016535641
FINAL SINGLE POINT ENERGY     -1339.878591050168

DIPOLE MOMENT
-------------
                                X             Y             Z
Electronic contribution:     17.83451     -13.64766     -18.09277
Nuclear contribution   :    -18.22152      13.82086      18.60558
                        -----------------------------------------
Total Dipole Moment    :     -0.38701       0.17320       0.51281
                        -----------------------------------------
Magnitude (a.u.)       :      0.66539
Magnitude (Debye)      :      1.69129

Rotational constants in cm-1:     0.019921     0.009978     0.007913
Rotational constants in MHz :   597.225230   299.121311   237.210858

                             ****ORCA TERMINATED NORMALLY****
TOTAL RUN TIME: 0 days 0 hours 0 minutes 22 seconds 366 msec
