                         Program Version 4.2.1 -  RELEASE  -
|  1> ! wB97X-D3 SP def2-SVP
|  2> %pal
|  3> nprocs 24
|  4> end
|  5>
|  6> * xyz 0 1
|  7> S 	 -51.4619 	 -48.7453 	 -78.3593
|  8> C 	 -52.6889 	 -48.3439 	 -77.2391
|  9> C 	 -52.8149 	 -46.9788 	 -76.9979
| 10> C 	 -51.8304 	 -46.3128 	 -77.7366
| 11> C 	 -51.0609 	 -47.0972 	 -78.5913
| 12> H 	 -51.7886 	 -45.1973 	 -77.8372
| 13> C 	 -53.6712 	 -46.2397 	 -75.9004
| 14> H 	 -52.9314 	 -45.3938 	 -75.6093
| 15> H 	 -53.5731 	 -46.8386 	 -74.9986
| 16> C 	 -54.9467 	 -45.6871 	 -76.4164
| 17> H 	 -54.8154 	 -44.9858 	 -77.2312
| 18> H 	 -55.6094 	 -46.4155 	 -76.9426
| 19> C 	 -55.7357 	 -44.9671 	 -75.2978
| 20> H 	 -55.1395 	 -44.3617 	 -74.704
| 21> H 	 -56.488 	 -44.3171 	 -75.8357
| 22> H 	 -56.2485 	 -45.6275 	 -74.5888
| 23> S 	 -48.3183 	 -47.3679 	 -79.129
| 24> C 	 -47.7084 	 -46.649 	 -80.624
| 25> C 	 -48.6941 	 -46.0526 	 -81.3799
| 26> C 	 -49.9918 	 -46.1685 	 -80.7974
| 27> C 	 -49.9534 	 -46.6891 	 -79.4844
| 28> H 	 -48.4726 	 -45.8544 	 -82.3563
| 29> C 	 -51.234 	 -45.7913 	 -81.5538
| 30> H 	 -51.4956 	 -44.7664 	 -81.3122
| 31> H 	 -52.1013 	 -46.2521 	 -81.2383
| 32> C 	 -51.1689 	 -45.9571 	 -83.1149
| 33> H 	 -50.274 	 -45.6208 	 -83.5796
| 34> H 	 -52.0178 	 -45.4205 	 -83.5075
| 35> C 	 -51.2159 	 -47.4672 	 -83.6403
| 36> H 	 -52.088 	 -48.0031 	 -83.2292
| 37> H 	 -50.311 	 -48.0385 	 -83.3068
| 38> H 	 -51.3877 	 -47.4793 	 -84.7661
| 39> H 	 -53.3494 	 -49.0184 	 -76.7479
| 40> H 	 -46.774 	 -46.9468 	 -81.1258
| 41> *
| 42>
| 43>                          ****END OF INPUT****

CARTESIAN COORDINATES (ANGSTROEM)
---------------------------------
  S    -51.461900  -48.745300  -78.359300
  C    -52.688900  -48.343900  -77.239100
  C    -52.814900  -46.978800  -76.997900
  C    -51.830400  -46.312800  -77.736600
  C    -51.060900  -47.097200  -78.591300
  H    -51.788600  -45.197300  -77.837200
  C    -53.671200  -46.239700  -75.900400
  H    -52.931400  -45.393800  -75.609300
  H    -53.573100  -46.838600  -74.998600
  C    -54.946700  -45.687100  -76.416400
  H    -54.815400  -44.985800  -77.231200
  H    -55.609400  -46.415500  -76.942600
  C    -55.735700  -44.967100  -75.297800
  H    -55.139500  -44.361700  -74.704000
  H    -56.488000  -44.317100  -75.835700
  H    -56.248500  -45.627500  -74.588800
  S    -48.318300  -47.367900  -79.129000
  C    -47.708400  -46.649000  -80.624000
  C    -48.694100  -46.052600  -81.379900
  C    -49.991800  -46.168500  -80.797400
  C    -49.953400  -46.689100  -79.484400
  H    -48.472600  -45.854400  -82.356300
  C    -51.234000  -45.791300  -81.553800
  H    -51.495600  -44.766400  -81.312200
  H    -52.101300  -46.252100  -81.238300
  C    -51.168900  -45.957100  -83.114900
  H    -50.274000  -45.620800  -83.579600
  H    -52.017800  -45.420500  -83.507500
  C    -51.215900  -47.467200  -83.640300
  H    -52.088000  -48.003100  -83.229200
  H    -50.311000  -48.038500  -83.306800
  H    -51.387700  -47.479300  -84.766100
  H    -53.349400  -49.018400  -76.747900
  H    -46.774000  -46.946800  -81.125800

 Total Charge           Charge          ....    0
 Multiplicity           Mult            ....    1
 Number of Electrons    NEL             ....  134
 Basis Dimension        Dim             ....  322

ORBITAL ENERGIES
----------------

  NO   OCC          E(Eh)            E(eV)
   0   2.0000     -88.968318     -2420.9510
   1   2.0000     -88.965634     -2420.8780
   2   2.0000     -10.330455      -281.1060
   3   2.0000     -10.323854      -280.9263
   4   2.0000     -10.319488      -280.8075
   5   2.0000     -10.308652      -280.5127
   6   2.0000     -10.308469      -280.5077
   7   2.0000     -10.303452      -280.3712
   8   2.0000     -10.297606      -280.2121
   9   2.0000     -10.291497      -280.0459
  10   2.0000     -10.290889      -280.0293
  11   2.0000     -10.290400      -280.0160
  12   2.0000     -10.287540      -279.9382
  13   2.0000     -10.287139      -279.9273
  14   2.0000     -10.287077      -279.9256
  15   2.0000     -10.278559      -279.6938
  16   2.0000      -8.084115      -219.9800
  17   2.0000      -8.079202      -219.8463
  18   2.0000      -6.042305      -164.4195
  19   2.0000      -6.038403      -164.3133
  20   2.0000      -6.037741      -164.2953
  21   2.0000      -6.035213      -164.2265
  22   2.0000      -6.033984      -164.1930
  23   2.0000      -6.029887      -164.0816
  24   2.0000      -1.007460       -27.4144
  25   2.0000      -0.981078       -26.6965
  26   2.0000      -0.913292       -24.8519
  27   2.0000      -0.901821       -24.5398
  28   2.0000      -0.866913       -23.5899
  29   2.0000      -0.849917       -23.1274
  30   2.0000      -0.840232       -22.8639
  31   2.0000      -0.812195       -22.1010
  32   2.0000      -0.784181       -21.3387
  33   2.0000      -0.771289       -20.9878
  34   2.0000      -0.708170       -19.2703
  35   2.0000      -0.702900       -19.1269
  36   2.0000      -0.695164       -18.9164
  37   2.0000      -0.654118       -17.7995
  38   2.0000      -0.640483       -17.4284
  39   2.0000      -0.619036       -16.8448
  40   2.0000      -0.603224       -16.4146
  41   2.0000      -0.568751       -15.4765
  42   2.0000      -0.552931       -15.0460
  43   2.0000      -0.542968       -14.7749
  44   2.0000      -0.540020       -14.6947
  45   2.0000      -0.532784       -14.4978
  46   2.0000      -0.521295       -14.1851
  47   2.0000      -0.506514       -13.7830
  48   2.0000      -0.494452       -13.4547
  49   2.0000      -0.492515       -13.4020
  50   2.0000      -0.488995       -13.3062
  51   2.0000      -0.474074       -12.9002
  52   2.0000      -0.470809       -12.8114
  53   2.0000      -0.464612       -12.6427
  54   2.0000      -0.457353       -12.4452
  55   2.0000      -0.456741       -12.4286
  56   2.0000      -0.449405       -12.2289
  57   2.0000      -0.440067       -11.9748
  58   2.0000      -0.433142       -11.7864
  59   2.0000      -0.422951       -11.5091
  60   2.0000      -0.417915       -11.3720
  61   2.0000      -0.416293       -11.3279
  62   2.0000      -0.407600       -11.0913
  63   2.0000      -0.337747        -9.1906
  64   2.0000      -0.331324        -9.0158
  65   2.0000      -0.326142        -8.8748
  66   2.0000      -0.298990        -8.1359
  67   0.0000       0.033053         0.8994
  68   0.0000       0.059739         1.6256
  69   0.0000       0.110393         3.0039
  70   0.0000       0.123757         3.3676
  71   0.0000       0.132428         3.6035

MULLIKEN ATOMIC CHARGES
-----------------------
   0 S :    0.143083
   1 C :   -0.112039
   2 C :   -0.103869
   3 C :    0.021727
   4 C :   -0.191471
   5 H :    0.025436
   6 C :    0.030890
   7 H :    0.036401
   8 H :    0.035360
   9 C :   -0.051366
  10 H :    0.022625
  11 H :    0.033813
  12 C :   -0.025718
  13 H :    0.011264
  14 H :    0.036754
  15 H :    0.035094
  16 S :    0.092841
  17 C :   -0.098773
  18 C :    0.006980
  19 C :   -0.037946
  20 C :   -0.158961
  21 H :   -0.014073
  22 C :    0.128807
  23 H :    0.030757
  24 H :    0.002021
  25 C :   -0.083655
  26 H :    0.029878
  27 H :    0.029326
  28 C :   -0.107500
  29 H :    0.032118
  30 H :    0.052952
  31 H :    0.049036
  32 H :    0.029795
  33 H :    0.068414
Sum of atomic charges:    0.0000000

LOEWDIN ATOMIC CHARGES
----------------------
   0 S :    0.449374
   1 C :   -0.206998
   2 C :   -0.071288
   3 C :   -0.069130
   4 C :   -0.224682
   5 H :    0.036028
   6 C :   -0.033705
   7 H :    0.043566
   8 H :    0.032196
   9 C :   -0.048484
  10 H :    0.027105
  11 H :    0.030454
  12 C :   -0.060177
  13 H :    0.012048
  14 H :    0.033641
  15 H :    0.026146
  16 S :    0.376517
  17 C :   -0.177533
  18 C :   -0.066121
  19 C :   -0.040396
  20 C :   -0.192581
  21 H :    0.015653
  22 C :   -0.026414
  23 H :    0.038305
  24 H :    0.022198
  25 C :   -0.031889
  26 H :    0.015982
  27 H :    0.024830
  28 C :   -0.077688
  29 H :    0.022023
  30 H :    0.030397
  31 H :    0.033524
  32 H :    0.020947
  33 H :    0.036149

  Mayer bond orders larger than 0.100000
B(  0-S ,  1-C ) :   1.1756 B(  0-S ,  4-C ) :   1.1734 B(  1-C ,  2-C ) :   1.5790
B(  1-C ,  4-C ) :   0.1002 B(  1-C , 32-H ) :   0.9675 B(  2-C ,  3-C ) :   1.3094
B(  2-C ,  6-C ) :   0.9864 B(  3-C ,  4-C ) :   1.5584 B(  3-C ,  5-H ) :   0.9783
B(  4-C , 20-C ) :   1.0228 B(  6-C ,  7-H ) :   0.9447 B(  6-C ,  8-H ) :   0.9550
B(  6-C ,  9-C ) :   1.0543 B(  9-C , 10-H ) :   0.9517 B(  9-C , 11-H ) :   0.9550
B(  9-C , 12-C ) :   1.0761 B( 12-C , 13-H ) :   0.9738 B( 12-C , 14-H ) :   0.9768
B( 12-C , 15-H ) :   0.9772 B( 16-S , 17-C ) :   1.1581 B( 16-S , 20-C ) :   1.1244
B( 17-C , 18-C ) :   1.6302 B( 17-C , 33-H ) :   0.9555 B( 18-C , 19-C ) :   1.2451
B( 18-C , 21-H ) :   0.9898 B( 19-C , 20-C ) :   1.5916 B( 19-C , 22-C ) :   1.0418
B( 22-C , 23-H ) :   0.9262 B( 22-C , 24-H ) :   0.9254 B( 22-C , 25-C ) :   1.0696
B( 25-C , 26-H ) :   0.9611 B( 25-C , 27-H ) :   0.9553 B( 25-C , 28-C ) :   1.0618
B( 28-C , 29-H ) :   0.9773 B( 28-C , 30-H ) :   0.9768 B( 28-C , 31-H ) :   0.9763

Dispersion correction           -0.013841242
FINAL SINGLE POINT ENERGY     -1339.855160881800

DIPOLE MOMENT
-------------
                                X             Y             Z
Electronic contribution:     20.67537     -11.70486       4.66185
Nuclear contribution   :    -21.19660      11.93968      -4.89887
                        -----------------------------------------
Total Dipole Moment    :     -0.52123       0.23482      -0.23702
                        -----------------------------------------
Magnitude (a.u.)       :      0.61887
Magnitude (Debye)      :      1.57304

Rotational constants in cm-1:     0.020947     0.007173     0.006310
Rotational constants in MHz :   627.975784   215.049280   189.156646

                             ****ORCA TERMINATED NORMALLY****
TOTAL RUN TIME: 0 days 0 hours 0 minutes 20 seconds 983 msec
