                         Program Version 4.2.1 -  RELEASE  -
|  1> ! wB97X-D3 SP def2-SVP
|  2> %pal
|  3> nprocs 24
|  4> end
|  5>
|  6> * xyz 0 1
|  7> S 	 -47.19 	 0.587647 	 14.0161
|  8> C 	 -47.874 	 0.660778 	 15.5872
|  9> C 	 -47.4737 	 -0.392133 	 16.4378
| 10> C 	 -46.5945 	 -1.2776 	 15.7933
| 11> C 	 -46.3485 	 -0.958933 	 14.442
| 12> H 	 -46.2563 	 -2.2709 	 16.2202
| 13> C 	 -48.0408 	 -0.642665 	 17.8092
| 14> H 	 -48.2204 	 -1.64491 	 18.0336
| 15> H 	 -49.1608 	 -0.279517 	 17.7971
| 16> C 	 -47.2872 	 0.0630692 	 18.966
| 17> H 	 -46.3427 	 -0.565844 	 19.0734
| 18> H 	 -47.0852 	 1.10739 	 18.6666
| 19> C 	 -48.0404 	 0.0687774 	 20.2842
| 20> H 	 -48.4704 	 -0.888073 	 20.5452
| 21> H 	 -47.3778 	 0.434383 	 21.0289
| 22> H 	 -48.8464 	 0.756647 	 20.1911
| 23> S 	 -44.7435 	 -0.973737 	 12.2036
| 24> C 	 -44.6283 	 -2.49165 	 11.2181
| 25> C 	 -45.0919 	 -3.53348 	 11.9485
| 26> C 	 -45.7736 	 -3.18534 	 13.186
| 27> C 	 -45.7813 	 -1.79643 	 13.4242
| 28> H 	 -45.0626 	 -4.48362 	 11.5772
| 29> C 	 -46.5027 	 -4.29857 	 13.9213
| 30> H 	 -46.7311 	 -3.86377 	 14.8788
| 31> H 	 -45.7873 	 -5.07849 	 14.099
| 32> C 	 -47.7795 	 -4.71855 	 13.1439
| 33> H 	 -47.5755 	 -4.69157 	 12.0622
| 34> H 	 -48.4617 	 -3.92867 	 13.2429
| 35> C 	 -48.4729 	 -6.06046 	 13.7118
| 36> H 	 -49.4426 	 -6.04869 	 13.2961
| 37> H 	 -48.6868 	 -5.97951 	 14.7906
| 38> H 	 -47.8417 	 -6.89658 	 13.4322
| 39> H 	 -48.6872 	 1.33689 	 15.8036
| 40> H 	 -44.1723 	 -2.50608 	 10.2546
| 41> *
| 42>
| 43>                          ****END OF INPUT****

CARTESIAN COORDINATES (ANGSTROEM)
---------------------------------
  S    -47.190000    0.587647   14.016100
  C    -47.874000    0.660778   15.587200
  C    -47.473700   -0.392133   16.437800
  C    -46.594500   -1.277600   15.793300
  C    -46.348500   -0.958933   14.442000
  H    -46.256300   -2.270900   16.220200
  C    -48.040800   -0.642665   17.809200
  H    -48.220400   -1.644910   18.033600
  H    -49.160800   -0.279517   17.797100
  C    -47.287200    0.063069   18.966000
  H    -46.342700   -0.565844   19.073400
  H    -47.085200    1.107390   18.666600
  C    -48.040400    0.068777   20.284200
  H    -48.470400   -0.888073   20.545200
  H    -47.377800    0.434383   21.028900
  H    -48.846400    0.756647   20.191100
  S    -44.743500   -0.973737   12.203600
  C    -44.628300   -2.491650   11.218100
  C    -45.091900   -3.533480   11.948500
  C    -45.773600   -3.185340   13.186000
  C    -45.781300   -1.796430   13.424200
  H    -45.062600   -4.483620   11.577200
  C    -46.502700   -4.298570   13.921300
  H    -46.731100   -3.863770   14.878800
  H    -45.787300   -5.078490   14.099000
  C    -47.779500   -4.718550   13.143900
  H    -47.575500   -4.691570   12.062200
  H    -48.461700   -3.928670   13.242900
  C    -48.472900   -6.060460   13.711800
  H    -49.442600   -6.048690   13.296100
  H    -48.686800   -5.979510   14.790600
  H    -47.841700   -6.896580   13.432200
  H    -48.687200    1.336890   15.803600
  H    -44.172300   -2.506080   10.254600

 Total Charge           Charge          ....    0
 Multiplicity           Mult            ....    1
 Number of Electrons    NEL             ....  134
 Basis Dimension        Dim             ....  322

ORBITAL ENERGIES
----------------

  NO   OCC          E(Eh)            E(eV)
   0   2.0000     -88.971338     -2421.0332
   1   2.0000     -88.957395     -2420.6538
   2   2.0000     -10.334782      -281.2237
   3   2.0000     -10.332025      -281.1487
   4   2.0000     -10.318021      -280.7676
   5   2.0000     -10.316860      -280.7360
   6   2.0000     -10.306203      -280.4460
   7   2.0000     -10.304037      -280.3871
   8   2.0000     -10.303602      -280.3753
   9   2.0000     -10.295301      -280.1494
  10   2.0000     -10.292080      -280.0617
  11   2.0000     -10.289462      -279.9905
  12   2.0000     -10.287877      -279.9474
  13   2.0000     -10.287719      -279.9431
  14   2.0000     -10.282490      -279.8008
  15   2.0000     -10.272204      -279.5209
  16   2.0000      -8.085565      -220.0194
  17   2.0000      -8.070992      -219.6228
  18   2.0000      -6.043906      -164.4631
  19   2.0000      -6.040128      -164.3603
  20   2.0000      -6.036525      -164.2622
  21   2.0000      -6.029810      -164.0795
  22   2.0000      -6.025779      -163.9698
  23   2.0000      -6.021383      -163.8502
  24   2.0000      -0.999048       -27.1855
  25   2.0000      -0.975352       -26.5407
  26   2.0000      -0.910591       -24.7784
  27   2.0000      -0.901024       -24.5181
  28   2.0000      -0.871300       -23.7093
  29   2.0000      -0.856114       -23.2961
  30   2.0000      -0.838701       -22.8222
  31   2.0000      -0.814529       -22.1645
  32   2.0000      -0.781379       -21.2624
  33   2.0000      -0.767975       -20.8977
  34   2.0000      -0.710946       -19.3458
  35   2.0000      -0.699317       -19.0294
  36   2.0000      -0.694909       -18.9094
  37   2.0000      -0.666668       -18.1409
  38   2.0000      -0.641467       -17.4552
  39   2.0000      -0.618481       -16.8297
  40   2.0000      -0.593076       -16.1384
  41   2.0000      -0.575247       -15.6533
  42   2.0000      -0.564273       -15.3547
  43   2.0000      -0.553926       -15.0731
  44   2.0000      -0.530443       -14.4341
  45   2.0000      -0.522173       -14.2090
  46   2.0000      -0.521246       -14.1838
  47   2.0000      -0.515767       -14.0347
  48   2.0000      -0.502840       -13.6830
  49   2.0000      -0.497149       -13.5281
  50   2.0000      -0.493388       -13.4258
  51   2.0000      -0.481221       -13.0947
  52   2.0000      -0.472135       -12.8474
  53   2.0000      -0.461470       -12.5572
  54   2.0000      -0.456754       -12.4289
  55   2.0000      -0.447068       -12.1654
  56   2.0000      -0.441468       -12.0129
  57   2.0000      -0.437737       -11.9114
  58   2.0000      -0.436259       -11.8712
  59   2.0000      -0.429795       -11.6953
  60   2.0000      -0.421803       -11.4778
  61   2.0000      -0.413844       -11.2613
  62   2.0000      -0.407615       -11.0918
  63   2.0000      -0.353084        -9.6079
  64   2.0000      -0.336066        -9.1448
  65   2.0000      -0.324438        -8.8284
  66   2.0000      -0.280797        -7.6409
  67   0.0000       0.017850         0.4857
  68   0.0000       0.067332         1.8322
  69   0.0000       0.099257         2.7009
  70   0.0000       0.111587         3.0364
  71   0.0000       0.136840         3.7236

MULLIKEN ATOMIC CHARGES
-----------------------
   0 S :    0.124320
   1 C :   -0.111768
   2 C :   -0.074424
   3 C :    0.012575
   4 C :   -0.152309
   5 H :    0.046136
   6 C :    0.020602
   7 H :    0.007242
   8 H :    0.023153
   9 C :   -0.097136
  10 H :    0.038618
  11 H :    0.038781
  12 C :    0.003875
  13 H :    0.024526
  14 H :    0.033178
  15 H :    0.017986
  16 S :    0.056914
  17 C :   -0.079721
  18 C :    0.013722
  19 C :   -0.088689
  20 C :   -0.139306
  21 H :   -0.013622
  22 C :    0.126202
  23 H :   -0.010493
  24 H :    0.024709
  25 C :   -0.087971
  26 H :    0.033698
  27 H :    0.016290
  28 C :   -0.026045
  29 H :    0.028261
  30 H :    0.035148
  31 H :    0.048203
  32 H :    0.052986
  33 H :    0.054360
Sum of atomic charges:   -0.0000000

LOEWDIN ATOMIC CHARGES
----------------------
   0 S :    0.412569
   1 C :   -0.201346
   2 C :   -0.067939
   3 C :   -0.060260
   4 C :   -0.185953
   5 H :    0.042849
   6 C :   -0.039165
   7 H :    0.017057
   8 H :    0.035738
   9 C :   -0.039823
  10 H :    0.029771
  11 H :    0.027786
  12 C :   -0.058260
  13 H :    0.022959
  14 H :    0.025889
  15 H :    0.020906
  16 S :    0.338519
  17 C :   -0.150960
  18 C :   -0.058576
  19 C :   -0.052045
  20 C :   -0.180770
  21 H :    0.015813
  22 C :   -0.028560
  23 H :    0.021723
  24 H :    0.027844
  25 C :   -0.033249
  26 H :    0.026281
  27 H :    0.019567
  28 C :   -0.059576
  29 H :    0.022489
  30 H :    0.029961
  31 H :    0.026473
  32 H :    0.026435
  33 H :    0.025852

  Mayer bond orders larger than 0.100000
B(  0-S ,  1-C ) :   1.1684 B(  0-S ,  4-C ) :   1.1455 B(  1-C ,  2-C ) :   1.5669
B(  1-C ,  4-C ) :   0.1085 B(  1-C , 32-H ) :   0.9656 B(  2-C ,  3-C ) :   1.2886
B(  2-C ,  6-C ) :   1.0221 B(  3-C ,  4-C ) :   1.5368 B(  3-C ,  5-H ) :   0.9746
B(  4-C , 20-C ) :   1.0821 B(  6-C ,  7-H ) :   0.9429 B(  6-C ,  8-H ) :   0.9458
B(  6-C ,  9-C ) :   1.0510 B(  9-C , 10-H ) :   0.9546 B(  9-C , 11-H ) :   0.9592
B(  9-C , 12-C ) :   1.0851 B( 12-C , 13-H ) :   0.9729 B( 12-C , 14-H ) :   0.9721
B( 12-C , 15-H ) :   0.9727 B( 16-S , 17-C ) :   1.1117 B( 16-S , 20-C ) :   1.1130
B( 17-C , 18-C ) :   1.6422 B( 17-C , 33-H ) :   0.9750 B( 18-C , 19-C ) :   1.1974
B( 18-C , 21-H ) :   1.0001 B( 19-C , 20-C ) :   1.6109 B( 19-C , 22-C ) :   1.0437
B( 22-C , 23-H ) :   0.9241 B( 22-C , 24-H ) :   0.9336 B( 22-C , 25-C ) :   1.0500
B( 25-C , 26-H ) :   0.9651 B( 25-C , 27-H ) :   0.9515 B( 25-C , 28-C ) :   1.0659
B( 28-C , 29-H ) :   0.9763 B( 28-C , 30-H ) :   0.9751 B( 28-C , 31-H ) :   0.9803

Dispersion correction           -0.013578777
FINAL SINGLE POINT ENERGY     -1339.862717877033

DIPOLE MOMENT
-------------
                                X             Y             Z
Electronic contribution:     13.02802      15.11670     -21.03009
Nuclear contribution   :    -13.52268     -15.69771      21.40720
                        -----------------------------------------
Total Dipole Moment    :     -0.49466      -0.58101       0.37711
                        -----------------------------------------
Magnitude (a.u.)       :      0.85116
Magnitude (Debye)      :      2.16347

Rotational constants in cm-1:     0.018299     0.007816     0.006095
Rotational constants in MHz :   548.601131   234.309498   182.721687

                             ****ORCA TERMINATED NORMALLY****
TOTAL RUN TIME: 0 days 0 hours 0 minutes 20 seconds 969 msec
