                         Program Version 4.2.1 -  RELEASE  -
|  1> ! wB97X-D3 SP def2-SVP
|  2> %pal
|  3> nprocs 24
|  4> end
|  5>
|  6> * xyz 0 1
|  7> S 	 -49.1983 	 16.5899 	 27.7007
|  8> C 	 -49.9766 	 16.2128 	 26.1697
|  9> C 	 -49.5082 	 17.076 	 25.1854
| 10> C 	 -48.5635 	 18.0605 	 25.6977
| 11> C 	 -48.2962 	 17.9738 	 27.0615
| 12> H 	 -48.157 	 18.8526 	 25.1433
| 13> C 	 -49.7093 	 17.022 	 23.671
| 14> H 	 -50.2109 	 16.1004 	 23.3259
| 15> H 	 -48.8005 	 16.9243 	 23.1782
| 16> C 	 -50.493 	 18.2242 	 23.0422
| 17> H 	 -50.1522 	 19.2241 	 23.4903
| 18> H 	 -50.4775 	 18.1852 	 21.9765
| 19> C 	 -51.9134 	 18.2906 	 23.4311
| 20> H 	 -52.0966 	 18.401 	 24.5187
| 21> H 	 -52.5418 	 18.9967 	 22.9078
| 22> H 	 -52.3104 	 17.3469 	 23.1607
| 23> S 	 -48.3553 	 20.3553 	 28.405
| 24> C 	 -47.0823 	 20.8247 	 29.5315
| 25> C 	 -46.0378 	 19.9637 	 29.4282
| 26> C 	 -46.3254 	 18.7797 	 28.6017
| 27> C 	 -47.4872 	 18.9425 	 27.9051
| 28> H 	 -45.1356 	 20.0717 	 29.9483
| 29> C 	 -45.4517 	 17.4925 	 28.7434
| 30> H 	 -44.9191 	 17.5847 	 27.8048
| 31> H 	 -46.0335 	 16.547 	 28.7584
| 32> C 	 -44.4051 	 17.5037 	 29.8363
| 33> H 	 -43.7767 	 18.4487 	 29.7842
| 34> H 	 -43.7796 	 16.5992 	 29.6252
| 35> C 	 -44.8418 	 17.3696 	 31.2987
| 36> H 	 -45.5599 	 18.2057 	 31.4336
| 37> H 	 -43.97 	 17.4945 	 31.9644
| 38> H 	 -45.3399 	 16.4271 	 31.4781
| 39> H 	 -50.7551 	 15.5264 	 26.0111
| 40> H 	 -47.0934 	 21.8026 	 30.0828
| 41> *
| 42>
| 43>                          ****END OF INPUT****

CARTESIAN COORDINATES (ANGSTROEM)
---------------------------------
  S    -49.198300   16.589900   27.700700
  C    -49.976600   16.212800   26.169700
  C    -49.508200   17.076000   25.185400
  C    -48.563500   18.060500   25.697700
  C    -48.296200   17.973800   27.061500
  H    -48.157000   18.852600   25.143300
  C    -49.709300   17.022000   23.671000
  H    -50.210900   16.100400   23.325900
  H    -48.800500   16.924300   23.178200
  C    -50.493000   18.224200   23.042200
  H    -50.152200   19.224100   23.490300
  H    -50.477500   18.185200   21.976500
  C    -51.913400   18.290600   23.431100
  H    -52.096600   18.401000   24.518700
  H    -52.541800   18.996700   22.907800
  H    -52.310400   17.346900   23.160700
  S    -48.355300   20.355300   28.405000
  C    -47.082300   20.824700   29.531500
  C    -46.037800   19.963700   29.428200
  C    -46.325400   18.779700   28.601700
  C    -47.487200   18.942500   27.905100
  H    -45.135600   20.071700   29.948300
  C    -45.451700   17.492500   28.743400
  H    -44.919100   17.584700   27.804800
  H    -46.033500   16.547000   28.758400
  C    -44.405100   17.503700   29.836300
  H    -43.776700   18.448700   29.784200
  H    -43.779600   16.599200   29.625200
  C    -44.841800   17.369600   31.298700
  H    -45.559900   18.205700   31.433600
  H    -43.970000   17.494500   31.964400
  H    -45.339900   16.427100   31.478100
  H    -50.755100   15.526400   26.011100
  H    -47.093400   21.802600   30.082800

 Total Charge           Charge          ....    0
 Multiplicity           Mult            ....    1
 Number of Electrons    NEL             ....  134
 Basis Dimension        Dim             ....  322

ORBITAL ENERGIES
----------------

  NO   OCC          E(Eh)            E(eV)
   0   2.0000     -88.965694     -2420.8796
   1   2.0000     -88.962348     -2420.7886
   2   2.0000     -10.335780      -281.2509
   3   2.0000     -10.327611      -281.0286
   4   2.0000     -10.323489      -280.9164
   5   2.0000     -10.316899      -280.7371
   6   2.0000     -10.308653      -280.5127
   7   2.0000     -10.306963      -280.4667
   8   2.0000     -10.297173      -280.2003
   9   2.0000     -10.294135      -280.1177
  10   2.0000     -10.293886      -280.1109
  11   2.0000     -10.293125      -280.0902
  12   2.0000     -10.292559      -280.0748
  13   2.0000     -10.286559      -279.9115
  14   2.0000     -10.278304      -279.6869
  15   2.0000     -10.264820      -279.3200
  16   2.0000      -8.079641      -219.8582
  17   2.0000      -8.077503      -219.8000
  18   2.0000      -6.038318      -164.3110
  19   2.0000      -6.036174      -164.2526
  20   2.0000      -6.034085      -164.1958
  21   2.0000      -6.031942      -164.1375
  22   2.0000      -6.030435      -164.0965
  23   2.0000      -6.028044      -164.0314
  24   2.0000      -1.002805       -27.2877
  25   2.0000      -0.981361       -26.7042
  26   2.0000      -0.911505       -24.8033
  27   2.0000      -0.909515       -24.7492
  28   2.0000      -0.868281       -23.6271
  29   2.0000      -0.846307       -23.0292
  30   2.0000      -0.843370       -22.9493
  31   2.0000      -0.818611       -22.2755
  32   2.0000      -0.785460       -21.3735
  33   2.0000      -0.776988       -21.1429
  34   2.0000      -0.698740       -19.0137
  35   2.0000      -0.691343       -18.8124
  36   2.0000      -0.686237       -18.6734
  37   2.0000      -0.660035       -17.9605
  38   2.0000      -0.643376       -17.5071
  39   2.0000      -0.619586       -16.8598
  40   2.0000      -0.602400       -16.3921
  41   2.0000      -0.576227       -15.6799
  42   2.0000      -0.554914       -15.1000
  43   2.0000      -0.548886       -14.9360
  44   2.0000      -0.545261       -14.8373
  45   2.0000      -0.539748       -14.6873
  46   2.0000      -0.521711       -14.1965
  47   2.0000      -0.514763       -14.0074
  48   2.0000      -0.505157       -13.7460
  49   2.0000      -0.497435       -13.5359
  50   2.0000      -0.488187       -13.2842
  51   2.0000      -0.477652       -12.9976
  52   2.0000      -0.473807       -12.8929
  53   2.0000      -0.466095       -12.6831
  54   2.0000      -0.454889       -12.3782
  55   2.0000      -0.446228       -12.1425
  56   2.0000      -0.442685       -12.0461
  57   2.0000      -0.437486       -11.9046
  58   2.0000      -0.434939       -11.8353
  59   2.0000      -0.423675       -11.5288
  60   2.0000      -0.417182       -11.3521
  61   2.0000      -0.404513       -11.0073
  62   2.0000      -0.402570       -10.9545
  63   2.0000      -0.338385        -9.2079
  64   2.0000      -0.329720        -8.9721
  65   2.0000      -0.319726        -8.7002
  66   2.0000      -0.312691        -8.5088
  67   0.0000       0.046346         1.2611
  68   0.0000       0.055384         1.5071
  69   0.0000       0.114009         3.1023
  70   0.0000       0.119035         3.2391
  71   0.0000       0.126863         3.4521

MULLIKEN ATOMIC CHARGES
-----------------------
   0 S :    0.104068
   1 C :   -0.097574
   2 C :   -0.079963
   3 C :    0.041675
   4 C :   -0.147865
   5 H :   -0.000412
   6 C :    0.082403
   7 H :    0.013040
   8 H :    0.021471
   9 C :   -0.085874
  10 H :    0.038779
  11 H :    0.028979
  12 C :   -0.039522
  13 H :    0.039980
  14 H :    0.030794
  15 H :   -0.008040
  16 S :    0.103581
  17 C :   -0.103116
  18 C :   -0.003365
  19 C :   -0.079774
  20 C :   -0.170810
  21 H :   -0.000981
  22 C :    0.111177
  23 H :    0.040893
  24 H :    0.045700
  25 C :   -0.151617
  26 H :    0.038656
  27 H :    0.038782
  28 C :   -0.037652
  29 H :    0.034035
  30 H :    0.044116
  31 H :    0.032408
  32 H :    0.035241
  33 H :    0.080788
Sum of atomic charges:    0.0000000

LOEWDIN ATOMIC CHARGES
----------------------
   0 S :    0.392512
   1 C :   -0.184887
   2 C :   -0.060137
   3 C :   -0.054912
   4 C :   -0.191105
   5 H :    0.022889
   6 C :   -0.026783
   7 H :    0.029603
   8 H :    0.025507
   9 C :   -0.042727
  10 H :    0.032167
  11 H :    0.022179
  12 C :   -0.068794
  13 H :    0.028647
  14 H :    0.024935
  15 H :    0.011156
  16 S :    0.405795
  17 C :   -0.181404
  18 C :   -0.069861
  19 C :   -0.050233
  20 C :   -0.212287
  21 H :    0.019571
  22 C :   -0.033157
  23 H :    0.043042
  24 H :    0.036016
  25 C :   -0.054891
  26 H :    0.027613
  27 H :    0.031596
  28 C :   -0.068271
  29 H :    0.027008
  30 H :    0.030767
  31 H :    0.022593
  32 H :    0.022878
  33 H :    0.042978

  Mayer bond orders larger than 0.100000
B(  0-S ,  1-C ) :   1.1382 B(  0-S ,  4-C ) :   1.1381 B(  1-C ,  2-C ) :   1.6152
B(  1-C , 32-H ) :   0.9749 B(  2-C ,  3-C ) :   1.2201 B(  2-C ,  6-C ) :   1.0225
B(  3-C ,  4-C ) :   1.6047 B(  3-C ,  5-H ) :   0.9996 B(  4-C , 20-C ) :   0.9864
B(  6-C ,  7-H ) :   0.9441 B(  6-C ,  8-H ) :   0.9430 B(  6-C ,  9-C ) :   1.0666
B(  9-C , 10-H ) :   0.9605 B(  9-C , 11-H ) :   0.9553 B(  9-C , 12-C ) :   1.0744
B( 12-C , 13-H ) :   0.9744 B( 12-C , 14-H ) :   0.9725 B( 12-C , 15-H ) :   0.9681
B( 16-S , 17-C ) :   1.1452 B( 16-S , 20-C ) :   1.1422 B( 17-C , 18-C ) :   1.6317
B( 17-C , 33-H ) :   0.9581 B( 18-C , 19-C ) :   1.2217 B( 18-C , 21-H ) :   0.9842
B( 19-C , 20-C ) :   1.6628 B( 19-C , 22-C ) :   0.9925 B( 22-C , 23-H ) :   0.9201
B( 22-C , 24-H ) :   0.9437 B( 22-C , 25-C ) :   1.0960 B( 25-C , 26-H ) :   0.9463
B( 25-C , 27-H ) :   0.9499 B( 25-C , 28-C ) :   1.0765 B( 28-C , 29-H ) :   0.9728
B( 28-C , 30-H ) :   0.9731 B( 28-C , 31-H ) :   0.9726

Dispersion correction           -0.014178243
FINAL SINGLE POINT ENERGY     -1339.863747454416

DIPOLE MOMENT
-------------
                                X             Y             Z
Electronic contribution:     -4.05341       4.49450       6.91302
Nuclear contribution   :      4.36762      -4.56320      -7.11752
                        -----------------------------------------
Total Dipole Moment    :      0.31421      -0.06871      -0.20450
                        -----------------------------------------
Magnitude (a.u.)       :      0.38114
Magnitude (Debye)      :      0.96878

Rotational constants in cm-1:     0.026336     0.006990     0.006192
Rotational constants in MHz :   789.545096   209.565922   185.635237

                             ****ORCA TERMINATED NORMALLY****
TOTAL RUN TIME: 0 days 0 hours 0 minutes 20 seconds 996 msec
