                         Program Version 4.2.1 -  RELEASE  -
|  1> ! wB97X-D3 SP def2-SVP
|  2> %pal
|  3> nprocs 24
|  4> end
|  5>
|  6> * xyz 0 1
|  7> S 	 -50.7371 	 -45.6754 	 -78.9741
|  8> C 	 -52.2783 	 -44.8852 	 -79.2977
|  9> C 	 -52.1391 	 -43.5165 	 -79.1074
| 10> C 	 -50.8993 	 -43.1352 	 -78.4263
| 11> C 	 -50.0035 	 -44.2072 	 -78.367
| 12> H 	 -50.6682 	 -42.1745 	 -78.0497
| 13> C 	 -53.2884 	 -42.4705 	 -79.334
| 14> H 	 -53.5055 	 -41.7238 	 -78.4932
| 15> H 	 -54.1278 	 -43.0336 	 -79.4035
| 16> C 	 -53.1686 	 -41.6205 	 -80.5755
| 17> H 	 -53.2037 	 -42.2767 	 -81.3853
| 18> H 	 -54.0544 	 -40.9395 	 -80.5544
| 19> C 	 -51.8682 	 -40.7927 	 -80.5634
| 20> H 	 -51.0367 	 -41.4949 	 -80.6954
| 21> H 	 -51.888 	 -40.0922 	 -81.3404
| 22> H 	 -51.8675 	 -40.2655 	 -79.6781
| 23> S 	 -48.5581 	 -44.7673 	 -76.0232
| 24> C 	 -46.7884 	 -44.7465 	 -76.0779
| 25> C 	 -46.3886 	 -44.1101 	 -77.2748
| 26> C 	 -47.4715 	 -43.7574 	 -78.112
| 27> C 	 -48.7472 	 -44.1061 	 -77.6349
| 28> H 	 -45.3305 	 -43.8473 	 -77.3322
| 29> C 	 -47.0605 	 -43.1736 	 -79.4694
| 30> H 	 -47.0608 	 -44.001 	 -80.228
| 31> H 	 -46.0404 	 -42.843 	 -79.2412
| 32> C 	 -47.7847 	 -41.8379 	 -79.9125
| 33> H 	 -48.8094 	 -41.9497 	 -79.9724
| 34> H 	 -47.3376 	 -41.599 	 -80.8382
| 35> C 	 -47.4735 	 -40.6948 	 -78.9111
| 36> H 	 -46.3873 	 -40.4204 	 -78.7632
| 37> H 	 -47.8675 	 -40.9806 	 -77.9089
| 38> H 	 -47.9729 	 -39.8428 	 -79.347
| 39> H 	 -53.01 	 -45.3246 	 -79.8845
| 40> H 	 -46.0663 	 -45.0069 	 -75.3049
| 41> *
| 42>
| 43>                          ****END OF INPUT****

CARTESIAN COORDINATES (ANGSTROEM)
---------------------------------
  S    -50.737100  -45.675400  -78.974100
  C    -52.278300  -44.885200  -79.297700
  C    -52.139100  -43.516500  -79.107400
  C    -50.899300  -43.135200  -78.426300
  C    -50.003500  -44.207200  -78.367000
  H    -50.668200  -42.174500  -78.049700
  C    -53.288400  -42.470500  -79.334000
  H    -53.505500  -41.723800  -78.493200
  H    -54.127800  -43.033600  -79.403500
  C    -53.168600  -41.620500  -80.575500
  H    -53.203700  -42.276700  -81.385300
  H    -54.054400  -40.939500  -80.554400
  C    -51.868200  -40.792700  -80.563400
  H    -51.036700  -41.494900  -80.695400
  H    -51.888000  -40.092200  -81.340400
  H    -51.867500  -40.265500  -79.678100
  S    -48.558100  -44.767300  -76.023200
  C    -46.788400  -44.746500  -76.077900
  C    -46.388600  -44.110100  -77.274800
  C    -47.471500  -43.757400  -78.112000
  C    -48.747200  -44.106100  -77.634900
  H    -45.330500  -43.847300  -77.332200
  C    -47.060500  -43.173600  -79.469400
  H    -47.060800  -44.001000  -80.228000
  H    -46.040400  -42.843000  -79.241200
  C    -47.784700  -41.837900  -79.912500
  H    -48.809400  -41.949700  -79.972400
  H    -47.337600  -41.599000  -80.838200
  C    -47.473500  -40.694800  -78.911100
  H    -46.387300  -40.420400  -78.763200
  H    -47.867500  -40.980600  -77.908900
  H    -47.972900  -39.842800  -79.347000
  H    -53.010000  -45.324600  -79.884500
  H    -46.066300  -45.006900  -75.304900

 Total Charge           Charge          ....    0
 Multiplicity           Mult            ....    1
 Number of Electrons    NEL             ....  134
 Basis Dimension        Dim             ....  322

ORBITAL ENERGIES
----------------

  NO   OCC          E(Eh)            E(eV)
   0   2.0000     -88.969114     -2420.9727
   1   2.0000     -88.967224     -2420.9212
   2   2.0000     -10.333296      -281.1833
   3   2.0000     -10.326866      -281.0083
   4   2.0000     -10.323311      -280.9116
   5   2.0000     -10.316488      -280.7259
   6   2.0000     -10.310400      -280.5602
   7   2.0000     -10.303298      -280.3670
   8   2.0000     -10.298211      -280.2286
   9   2.0000     -10.293980      -280.1134
  10   2.0000     -10.293216      -280.0926
  11   2.0000     -10.288327      -279.9596
  12   2.0000     -10.280520      -279.7472
  13   2.0000     -10.279494      -279.7193
  14   2.0000     -10.277522      -279.6656
  15   2.0000     -10.267223      -279.3853
  16   2.0000      -8.083482      -219.9627
  17   2.0000      -8.081153      -219.8993
  18   2.0000      -6.042117      -164.4144
  19   2.0000      -6.039700      -164.3486
  20   2.0000      -6.037939      -164.3007
  21   2.0000      -6.035560      -164.2359
  22   2.0000      -6.034214      -164.1993
  23   2.0000      -6.032112      -164.1421
  24   2.0000      -1.002007       -27.2660
  25   2.0000      -0.979894       -26.6643
  26   2.0000      -0.914709       -24.8905
  27   2.0000      -0.900746       -24.5105
  28   2.0000      -0.870537       -23.6885
  29   2.0000      -0.844859       -22.9898
  30   2.0000      -0.842571       -22.9275
  31   2.0000      -0.814827       -22.1726
  32   2.0000      -0.785898       -21.3854
  33   2.0000      -0.767246       -20.8778
  34   2.0000      -0.711153       -19.3514
  35   2.0000      -0.695955       -18.9379
  36   2.0000      -0.688363       -18.7313
  37   2.0000      -0.657444       -17.8900
  38   2.0000      -0.649945       -17.6859
  39   2.0000      -0.613381       -16.6910
  40   2.0000      -0.588494       -16.0137
  41   2.0000      -0.577791       -15.7225
  42   2.0000      -0.559382       -15.2215
  43   2.0000      -0.550296       -14.9743
  44   2.0000      -0.548200       -14.9173
  45   2.0000      -0.542995       -14.7756
  46   2.0000      -0.517539       -14.0830
  47   2.0000      -0.513263       -13.9666
  48   2.0000      -0.505075       -13.7438
  49   2.0000      -0.492639       -13.4054
  50   2.0000      -0.486421       -13.2362
  51   2.0000      -0.480395       -13.0722
  52   2.0000      -0.472650       -12.8615
  53   2.0000      -0.461808       -12.5664
  54   2.0000      -0.460917       -12.5422
  55   2.0000      -0.446496       -12.1498
  56   2.0000      -0.442072       -12.0294
  57   2.0000      -0.434399       -11.8206
  58   2.0000      -0.425289       -11.5727
  59   2.0000      -0.424501       -11.5513
  60   2.0000      -0.415594       -11.3089
  61   2.0000      -0.414571       -11.2810
  62   2.0000      -0.410042       -11.1578
  63   2.0000      -0.335766        -9.1367
  64   2.0000      -0.329579        -8.9683
  65   2.0000      -0.324582        -8.8323
  66   2.0000      -0.307641        -8.3713
  67   0.0000       0.033435         0.9098
  68   0.0000       0.049359         1.3431
  69   0.0000       0.110410         3.0044
  70   0.0000       0.120300         3.2735
  71   0.0000       0.125073         3.4034

MULLIKEN ATOMIC CHARGES
-----------------------
   0 S :    0.117283
   1 C :   -0.089797
   2 C :   -0.109253
   3 C :    0.041111
   4 C :   -0.141687
   5 H :    0.010955
   6 C :    0.073093
   7 H :    0.039220
   8 H :   -0.013623
   9 C :   -0.069259
  10 H :    0.009083
  11 H :    0.032357
  12 C :   -0.014444
  13 H :    0.060692
  14 H :    0.019031
  15 H :    0.008098
  16 S :    0.117142
  17 C :   -0.108813
  18 C :   -0.055677
  19 C :   -0.052896
  20 C :   -0.177210
  21 H :    0.033239
  22 C :    0.048415
  23 H :    0.058350
  24 H :    0.012786
  25 C :   -0.013509
  26 H :    0.019889
  27 H :    0.019921
  28 C :   -0.099902
  29 H :    0.038122
  30 H :    0.049511
  31 H :    0.035494
  32 H :    0.037592
  33 H :    0.064689
Sum of atomic charges:    0.0000000

LOEWDIN ATOMIC CHARGES
----------------------
   0 S :    0.407964
   1 C :   -0.183938
   2 C :   -0.054686
   3 C :   -0.045367
   4 C :   -0.198249
   5 H :    0.025706
   6 C :   -0.029268
   7 H :    0.037281
   8 H :    0.011251
   9 C :   -0.031202
  10 H :    0.010930
  11 H :    0.027339
  12 C :   -0.051318
  13 H :    0.030874
  14 H :    0.018910
  15 H :    0.013164
  16 S :    0.410457
  17 C :   -0.182459
  18 C :   -0.082219
  19 C :   -0.057240
  20 C :   -0.217288
  21 H :    0.035151
  22 C :   -0.029912
  23 H :    0.038419
  24 H :    0.028609
  25 C :   -0.025322
  26 H :    0.009587
  27 H :    0.019897
  28 C :   -0.068801
  29 H :    0.027959
  30 H :    0.027751
  31 H :    0.024533
  32 H :    0.016502
  33 H :    0.034987

  Mayer bond orders larger than 0.100000
B(  0-S ,  1-C ) :   1.1360 B(  0-S ,  4-C ) :   1.1535 B(  1-C ,  2-C ) :   1.6306
B(  1-C , 32-H ) :   0.9681 B(  2-C ,  3-C ) :   1.2214 B(  2-C ,  6-C ) :   1.0083
B(  3-C ,  4-C ) :   1.5700 B(  3-C ,  5-H ) :   0.9944 B(  4-C , 20-C ) :   1.0427
B(  6-C ,  7-H ) :   0.9523 B(  6-C ,  8-H ) :   0.9356 B(  6-C ,  9-C ) :   1.0780
B(  9-C , 10-H ) :   0.9538 B(  9-C , 11-H ) :   0.9558 B(  9-C , 12-C ) :   1.0883
B( 12-C , 13-H ) :   0.9672 B( 12-C , 14-H ) :   0.9693 B( 12-C , 15-H ) :   0.9724
B( 16-S , 17-C ) :   1.1759 B( 16-S , 20-C ) :   1.1424 B( 17-C , 18-C ) :   1.5802
B( 17-C , 20-C ) :   0.1070 B( 17-C , 33-H ) :   0.9639 B( 18-C , 19-C ) :   1.2905
B( 18-C , 21-H ) :   0.9811 B( 19-C , 20-C ) :   1.5482 B( 19-C , 22-C ) :   1.0201
B( 22-C , 23-H ) :   0.9370 B( 22-C , 24-H ) :   0.9396 B( 22-C , 25-C ) :   1.0676
B( 25-C , 26-H ) :   0.9543 B( 25-C , 27-H ) :   0.9543 B( 25-C , 28-C ) :   1.0734
B( 28-C , 29-H ) :   0.9749 B( 28-C , 30-H ) :   0.9738 B( 28-C , 31-H ) :   0.9753

Dispersion correction           -0.016145922
FINAL SINGLE POINT ENERGY     -1339.851246831237

DIPOLE MOMENT
-------------
                                X             Y             Z
Electronic contribution:      2.02688     -24.14418      14.18275
Nuclear contribution   :     -2.00689      24.63883     -14.51513
                        -----------------------------------------
Total Dipole Moment    :      0.01999       0.49465      -0.33237
                        -----------------------------------------
Magnitude (a.u.)       :      0.59628
Magnitude (Debye)      :      1.51563

Rotational constants in cm-1:     0.019438     0.009971     0.007571
Rotational constants in MHz :   582.725776   298.929777   226.980617

                             ****ORCA TERMINATED NORMALLY****
TOTAL RUN TIME: 0 days 0 hours 0 minutes 21 seconds 838 msec
