                         Program Version 4.2.1 -  RELEASE  -
|  1> ! wB97X-D3 SP def2-SVP
|  2> %pal
|  3> nprocs 24
|  4> end
|  5>
|  6> * xyz 0 1
|  7> S 	 32.409 	 1.94681 	 -116.341
|  8> C 	 32.385 	 3.59981 	 -117.045
|  9> C 	 31.4745 	 4.41883 	 -116.408
| 10> C 	 30.8739 	 3.78013 	 -115.245
| 11> C 	 31.2746 	 2.45326 	 -115.071
| 12> H 	 30.2027 	 4.24284 	 -114.611
| 13> C 	 30.8937 	 5.65825 	 -116.95
| 14> H 	 30.8974 	 6.27693 	 -116.084
| 15> H 	 29.8061 	 5.63345 	 -117.12
| 16> C 	 31.5525 	 6.3314 	 -118.171
| 17> H 	 32.6425 	 6.24318 	 -118.1
| 18> H 	 31.2689 	 5.80113 	 -119.046
| 19> C 	 31.0361 	 7.85792 	 -118.285
| 20> H 	 30.9585 	 8.39155 	 -117.393
| 21> H 	 31.6389 	 8.4101 	 -119.067
| 22> H 	 30.0191 	 7.78361 	 -118.64
| 23> S 	 29.3637 	 1.09269 	 -113.833
| 24> C 	 29.7075 	 0.336566 	 -112.355
| 25> C 	 31.0423 	 0.361727 	 -111.95
| 26> C 	 31.7996 	 1.15441 	 -112.909
| 27> C 	 31.0099 	 1.58593 	 -113.964
| 28> H 	 31.3532 	 -0.0999308 	 -111.005
| 29> C 	 33.2382 	 1.48174 	 -112.664
| 30> H 	 33.2754 	 2.37827 	 -112.032
| 31> H 	 33.8714 	 1.82539 	 -113.519
| 32> C 	 34.0229 	 0.398466 	 -111.912
| 33> H 	 33.6854 	 0.204722 	 -110.91
| 34> H 	 35.0353 	 0.812439 	 -111.778
| 35> C 	 34.3014 	 -0.787927 	 -112.703
| 36> H 	 35.2484 	 -1.38161 	 -112.59
| 37> H 	 34.2975 	 -0.477112 	 -113.747
| 38> H 	 33.5249 	 -1.54569 	 -112.636
| 39> H 	 32.8547 	 3.94668 	 -118.034
| 40> H 	 28.9358 	 -0.128836 	 -111.775
| 41> *
| 42>
| 43>                          ****END OF INPUT****

CARTESIAN COORDINATES (ANGSTROEM)
---------------------------------
  S     32.409000    1.946810  -116.341000
  C     32.385000    3.599810  -117.045000
  C     31.474500    4.418830  -116.408000
  C     30.873900    3.780130  -115.245000
  C     31.274600    2.453260  -115.071000
  H     30.202700    4.242840  -114.611000
  C     30.893700    5.658250  -116.950000
  H     30.897400    6.276930  -116.084000
  H     29.806100    5.633450  -117.120000
  C     31.552500    6.331400  -118.171000
  H     32.642500    6.243180  -118.100000
  H     31.268900    5.801130  -119.046000
  C     31.036100    7.857920  -118.285000
  H     30.958500    8.391550  -117.393000
  H     31.638900    8.410100  -119.067000
  H     30.019100    7.783610  -118.640000
  S     29.363700    1.092690  -113.833000
  C     29.707500    0.336566  -112.355000
  C     31.042300    0.361727  -111.950000
  C     31.799600    1.154410  -112.909000
  C     31.009900    1.585930  -113.964000
  H     31.353200   -0.099931  -111.005000
  C     33.238200    1.481740  -112.664000
  H     33.275400    2.378270  -112.032000
  H     33.871400    1.825390  -113.519000
  C     34.022900    0.398466  -111.912000
  H     33.685400    0.204722  -110.910000
  H     35.035300    0.812439  -111.778000
  C     34.301400   -0.787927  -112.703000
  H     35.248400   -1.381610  -112.590000
  H     34.297500   -0.477112  -113.747000
  H     33.524900   -1.545690  -112.636000
  H     32.854700    3.946680  -118.034000
  H     28.935800   -0.128836  -111.775000

 Total Charge           Charge          ....    0
 Multiplicity           Mult            ....    1
 Number of Electrons    NEL             ....  134
 Basis Dimension        Dim             ....  322

ORBITAL ENERGIES
----------------

  NO   OCC          E(Eh)            E(eV)
   0   2.0000     -88.966196     -2420.8933
   1   2.0000     -88.965199     -2420.8661
   2   2.0000     -10.329691      -281.0852
   3   2.0000     -10.319224      -280.8004
   4   2.0000     -10.317420      -280.7513
   5   2.0000     -10.312547      -280.6187
   6   2.0000     -10.306750      -280.4609
   7   2.0000     -10.299908      -280.2748
   8   2.0000     -10.298712      -280.2422
   9   2.0000     -10.293376      -280.0970
  10   2.0000     -10.292541      -280.0743
  11   2.0000     -10.291165      -280.0368
  12   2.0000     -10.288249      -279.9575
  13   2.0000     -10.284429      -279.8535
  14   2.0000     -10.278288      -279.6864
  15   2.0000     -10.267321      -279.3880
  16   2.0000      -8.082484      -219.9356
  17   2.0000      -8.078438      -219.8255
  18   2.0000      -6.040704      -164.3759
  19   2.0000      -6.037116      -164.2783
  20   2.0000      -6.036809      -164.2699
  21   2.0000      -6.033433      -164.1781
  22   2.0000      -6.033265      -164.1735
  23   2.0000      -6.028992      -164.0572
  24   2.0000      -1.008645       -27.4466
  25   2.0000      -0.978417       -26.6241
  26   2.0000      -0.918246       -24.9868
  27   2.0000      -0.911479       -24.8026
  28   2.0000      -0.865913       -23.5627
  29   2.0000      -0.854537       -23.2531
  30   2.0000      -0.844498       -22.9800
  31   2.0000      -0.809481       -22.0271
  32   2.0000      -0.784020       -21.3343
  33   2.0000      -0.769184       -20.9306
  34   2.0000      -0.721890       -19.6436
  35   2.0000      -0.702419       -19.1138
  36   2.0000      -0.690641       -18.7933
  37   2.0000      -0.657526       -17.8922
  38   2.0000      -0.633843       -17.2478
  39   2.0000      -0.614165       -16.7123
  40   2.0000      -0.604684       -16.4543
  41   2.0000      -0.571722       -15.5574
  42   2.0000      -0.560599       -15.2547
  43   2.0000      -0.556553       -15.1446
  44   2.0000      -0.537100       -14.6152
  45   2.0000      -0.522577       -14.2200
  46   2.0000      -0.517371       -14.0784
  47   2.0000      -0.511643       -13.9225
  48   2.0000      -0.504471       -13.7273
  49   2.0000      -0.491593       -13.3769
  50   2.0000      -0.487904       -13.2766
  51   2.0000      -0.485084       -13.1998
  52   2.0000      -0.469178       -12.7670
  53   2.0000      -0.461330       -12.5534
  54   2.0000      -0.457250       -12.4424
  55   2.0000      -0.447929       -12.1888
  56   2.0000      -0.445648       -12.1267
  57   2.0000      -0.442451       -12.0397
  58   2.0000      -0.434786       -11.8311
  59   2.0000      -0.430285       -11.7086
  60   2.0000      -0.421834       -11.4787
  61   2.0000      -0.416741       -11.3401
  62   2.0000      -0.402086       -10.9413
  63   2.0000      -0.334268        -9.0959
  64   2.0000      -0.331760        -9.0277
  65   2.0000      -0.319570        -8.6960
  66   2.0000      -0.299434        -8.1480
  67   0.0000       0.039691         1.0800
  68   0.0000       0.066447         1.8081
  69   0.0000       0.103383         2.8132
  70   0.0000       0.114909         3.1268
  71   0.0000       0.126133         3.4323

MULLIKEN ATOMIC CHARGES
-----------------------
   0 S :    0.104647
   1 C :   -0.153155
   2 C :   -0.069047
   3 C :    0.068413
   4 C :   -0.159595
   5 H :   -0.018324
   6 C :    0.033376
   7 H :    0.012749
   8 H :    0.038420
   9 C :   -0.078579
  10 H :    0.037712
  11 H :    0.033453
  12 C :   -0.049398
  13 H :    0.027431
  14 H :    0.048728
  15 H :    0.026682
  16 S :    0.135271
  17 C :   -0.085370
  18 C :   -0.048384
  19 C :    0.011352
  20 C :   -0.194053
  21 H :    0.032561
  22 C :    0.047592
  23 H :    0.037164
  24 H :    0.035668
  25 C :   -0.076088
  26 H :    0.022731
  27 H :    0.023068
  28 C :   -0.045432
  29 H :    0.039032
  30 H :    0.019792
  31 H :    0.021377
  32 H :    0.073459
  33 H :    0.046748
Sum of atomic charges:    0.0000000

LOEWDIN ATOMIC CHARGES
----------------------
   0 S :    0.376453
   1 C :   -0.205762
   2 C :   -0.063423
   3 C :   -0.045806
   4 C :   -0.185027
   5 H :    0.017273
   6 C :   -0.042276
   7 H :    0.028583
   8 H :    0.038883
   9 C :   -0.032943
  10 H :    0.021659
  11 H :    0.020892
  12 C :   -0.058966
  13 H :    0.015425
  14 H :    0.034977
  15 H :    0.025122
  16 S :    0.448611
  17 C :   -0.195147
  18 C :   -0.072686
  19 C :   -0.046551
  20 C :   -0.224886
  21 H :    0.037647
  22 C :   -0.036990
  23 H :    0.039701
  24 H :    0.034958
  25 C :   -0.050306
  26 H :    0.017174
  27 H :    0.033021
  28 C :   -0.074805
  29 H :    0.031136
  30 H :    0.028255
  31 H :    0.020534
  32 H :    0.043873
  33 H :    0.021397

  Mayer bond orders larger than 0.100000
B(  0-S ,  1-C ) :   1.1064 B(  0-S ,  4-C ) :   1.1280 B(  1-C ,  2-C ) :   1.6636
B(  1-C , 32-H ) :   0.9452 B(  2-C ,  3-C ) :   1.2028 B(  2-C ,  6-C ) :   1.0185
B(  3-C ,  4-C ) :   1.6082 B(  3-C ,  5-H ) :   1.0041 B(  4-C , 20-C ) :   1.0176
B(  6-C ,  7-H ) :   0.9285 B(  6-C ,  8-H ) :   0.9399 B(  6-C ,  9-C ) :   1.0636
B(  9-C , 10-H ) :   0.9597 B(  9-C , 11-H ) :   0.9546 B(  9-C , 12-C ) :   1.0667
B( 12-C , 13-H ) :   0.9829 B( 12-C , 14-H ) :   0.9771 B( 12-C , 15-H ) :   0.9764
B( 16-S , 17-C ) :   1.1845 B( 16-S , 20-C ) :   1.1538 B( 17-C , 18-C ) :   1.6023
B( 17-C , 33-H ) :   0.9650 B( 18-C , 19-C ) :   1.2253 B( 18-C , 21-H ) :   0.9882
B( 19-C , 20-C ) :   1.5988 B( 19-C , 22-C ) :   1.0408 B( 22-C , 23-H ) :   0.9215
B( 22-C , 24-H ) :   0.9336 B( 22-C , 25-C ) :   1.1027 B( 25-C , 26-H ) :   0.9469
B( 25-C , 27-H ) :   0.9460 B( 25-C , 28-C ) :   1.0756 B( 28-C , 29-H ) :   0.9765
B( 28-C , 30-H ) :   0.9668 B( 28-C , 31-H ) :   0.9691

Dispersion correction           -0.014062762
FINAL SINGLE POINT ENERGY     -1339.863026766499

DIPOLE MOMENT
-------------
                                X             Y             Z
Electronic contribution:    -10.72855     -12.49377       1.68602
Nuclear contribution   :     10.65862      12.94195      -1.48076
                        -----------------------------------------
Total Dipole Moment    :     -0.06994       0.44818       0.20526
                        -----------------------------------------
Magnitude (a.u.)       :      0.49789
Magnitude (Debye)      :      1.26553

Rotational constants in cm-1:     0.025502     0.006802     0.005957
Rotational constants in MHz :   764.520793   203.908478   178.600384

                             ****ORCA TERMINATED NORMALLY****
TOTAL RUN TIME: 0 days 0 hours 0 minutes 21 seconds 80 msec
