                         Program Version 4.2.1 -  RELEASE  -
|  1> ! wB97X-D3 SP def2-SVP
|  2> %pal
|  3> nprocs 24
|  4> end
|  5>
|  6> * xyz 0 1
|  7> S 	 -53.1236 	 20.7916 	 35.4759
|  8> C 	 -51.5861 	 21.6253 	 35.6165
|  9> C 	 -50.7044 	 21.0502 	 34.7138
| 10> C 	 -51.2238 	 19.9929 	 33.9851
| 11> C 	 -52.5526 	 19.6677 	 34.2782
| 12> H 	 -50.75 	 19.4599 	 33.1792
| 13> C 	 -49.312 	 21.6359 	 34.477
| 14> H 	 -48.9204 	 22.1084 	 35.4093
| 15> H 	 -49.3326 	 22.3815 	 33.716
| 16> C 	 -48.1555 	 20.6216 	 33.9182
| 17> H 	 -48.3044 	 20.5008 	 32.8525
| 18> H 	 -47.2033 	 21.1638 	 34.052
| 19> C 	 -47.9374 	 19.2669 	 34.514
| 20> H 	 -47.0416 	 18.8463 	 34.1327
| 21> H 	 -47.9776 	 19.2739 	 35.5952
| 22> H 	 -48.6859 	 18.6041 	 34.1192
| 23> S 	 -54.4128 	 17.6609 	 34.7467
| 24> C 	 -54.7449 	 16.522 	 33.4806
| 25> C 	 -54.1732 	 16.8066 	 32.2571
| 26> C 	 -53.3925 	 18.0207 	 32.3746
| 27> C 	 -53.3178 	 18.5534 	 33.6944
| 28> H 	 -54.3406 	 16.1609 	 31.4306
| 29> C 	 -52.716 	 18.574 	 31.1884
| 30> H 	 -51.6275 	 18.5096 	 31.3679
| 31> H 	 -52.9575 	 19.629 	 31.1175
| 32> C 	 -52.8712 	 17.8871 	 29.7597
| 33> H 	 -53.8622 	 17.5358 	 29.6683
| 34> H 	 -52.3216 	 17.0009 	 29.8773
| 35> C 	 -52.6093 	 18.7216 	 28.4351
| 36> H 	 -51.896 	 19.4646 	 28.6266
| 37> H 	 -53.5125 	 19.2851 	 28.2527
| 38> H 	 -52.4391 	 18.0624 	 27.5599
| 39> H 	 -51.4267 	 22.4701 	 36.2756
| 40> H 	 -55.3944 	 15.7113 	 33.6497
| 41> *
| 42>
| 43>                          ****END OF INPUT****

CARTESIAN COORDINATES (ANGSTROEM)
---------------------------------
  S    -53.123600   20.791600   35.475900
  C    -51.586100   21.625300   35.616500
  C    -50.704400   21.050200   34.713800
  C    -51.223800   19.992900   33.985100
  C    -52.552600   19.667700   34.278200
  H    -50.750000   19.459900   33.179200
  C    -49.312000   21.635900   34.477000
  H    -48.920400   22.108400   35.409300
  H    -49.332600   22.381500   33.716000
  C    -48.155500   20.621600   33.918200
  H    -48.304400   20.500800   32.852500
  H    -47.203300   21.163800   34.052000
  C    -47.937400   19.266900   34.514000
  H    -47.041600   18.846300   34.132700
  H    -47.977600   19.273900   35.595200
  H    -48.685900   18.604100   34.119200
  S    -54.412800   17.660900   34.746700
  C    -54.744900   16.522000   33.480600
  C    -54.173200   16.806600   32.257100
  C    -53.392500   18.020700   32.374600
  C    -53.317800   18.553400   33.694400
  H    -54.340600   16.160900   31.430600
  C    -52.716000   18.574000   31.188400
  H    -51.627500   18.509600   31.367900
  H    -52.957500   19.629000   31.117500
  C    -52.871200   17.887100   29.759700
  H    -53.862200   17.535800   29.668300
  H    -52.321600   17.000900   29.877300
  C    -52.609300   18.721600   28.435100
  H    -51.896000   19.464600   28.626600
  H    -53.512500   19.285100   28.252700
  H    -52.439100   18.062400   27.559900
  H    -51.426700   22.470100   36.275600
  H    -55.394400   15.711300   33.649700

 Total Charge           Charge          ....    0
 Multiplicity           Mult            ....    1
 Number of Electrons    NEL             ....  134
 Basis Dimension        Dim             ....  322

ORBITAL ENERGIES
----------------

  NO   OCC          E(Eh)            E(eV)
   0   2.0000     -88.966895     -2420.9123
   1   2.0000     -88.966523     -2420.9022
   2   2.0000     -10.332482      -281.1611
   3   2.0000     -10.332200      -281.1534
   4   2.0000     -10.314772      -280.6792
   5   2.0000     -10.314620      -280.6751
   6   2.0000     -10.311518      -280.5907
   7   2.0000     -10.299500      -280.2637
   8   2.0000     -10.297229      -280.2018
   9   2.0000     -10.295719      -280.1608
  10   2.0000     -10.292667      -280.0777
  11   2.0000     -10.288794      -279.9723
  12   2.0000     -10.287555      -279.9386
  13   2.0000     -10.285999      -279.8963
  14   2.0000     -10.284040      -279.8429
  15   2.0000     -10.267056      -279.3808
  16   2.0000      -8.081762      -219.9159
  17   2.0000      -8.081146      -219.8992
  18   2.0000      -6.040145      -164.3607
  19   2.0000      -6.039583      -164.3454
  20   2.0000      -6.036270      -164.2553
  21   2.0000      -6.035515      -164.2347
  22   2.0000      -6.032641      -164.1565
  23   2.0000      -6.032138      -164.1428
  24   2.0000      -1.005692       -27.3663
  25   2.0000      -0.985103       -26.8060
  26   2.0000      -0.905681       -24.6448
  27   2.0000      -0.901100       -24.5202
  28   2.0000      -0.870204       -23.6795
  29   2.0000      -0.852449       -23.1963
  30   2.0000      -0.846222       -23.0269
  31   2.0000      -0.819056       -22.2877
  32   2.0000      -0.785500       -21.3745
  33   2.0000      -0.772235       -21.0136
  34   2.0000      -0.717340       -19.5198
  35   2.0000      -0.701374       -19.0854
  36   2.0000      -0.689744       -18.7689
  37   2.0000      -0.653897       -17.7934
  38   2.0000      -0.640285       -17.4230
  39   2.0000      -0.623501       -16.9663
  40   2.0000      -0.599616       -16.3164
  41   2.0000      -0.567742       -15.4490
  42   2.0000      -0.565178       -15.3793
  43   2.0000      -0.557246       -15.1634
  44   2.0000      -0.531762       -14.4700
  45   2.0000      -0.529404       -14.4058
  46   2.0000      -0.522091       -14.2068
  47   2.0000      -0.517035       -14.0692
  48   2.0000      -0.506857       -13.7923
  49   2.0000      -0.501258       -13.6399
  50   2.0000      -0.491515       -13.3748
  51   2.0000      -0.480059       -13.0631
  52   2.0000      -0.472492       -12.8572
  53   2.0000      -0.469183       -12.7671
  54   2.0000      -0.463015       -12.5993
  55   2.0000      -0.458500       -12.4764
  56   2.0000      -0.442084       -12.0297
  57   2.0000      -0.436614       -11.8809
  58   2.0000      -0.430494       -11.7144
  59   2.0000      -0.422759       -11.5039
  60   2.0000      -0.419178       -11.4064
  61   2.0000      -0.415686       -11.3114
  62   2.0000      -0.404243       -11.0000
  63   2.0000      -0.351546        -9.5661
  64   2.0000      -0.333525        -9.0757
  65   2.0000      -0.329598        -8.9688
  66   2.0000      -0.283274        -7.7083
  67   0.0000       0.022556         0.6138
  68   0.0000       0.074744         2.0339
  69   0.0000       0.111818         3.0427
  70   0.0000       0.125687         3.4201
  71   0.0000       0.134481         3.6594

MULLIKEN ATOMIC CHARGES
-----------------------
   0 S :    0.108087
   1 C :   -0.141591
   2 C :   -0.047020
   3 C :    0.010831
   4 C :   -0.134609
   5 H :   -0.005067
   6 C :    0.068168
   7 H :    0.031620
   8 H :    0.039534
   9 C :   -0.140009
  10 H :    0.025639
  11 H :    0.031608
  12 C :    0.006341
  13 H :    0.020860
  14 H :    0.037268
  15 H :    0.012863
  16 S :    0.109918
  17 C :   -0.065693
  18 C :   -0.035345
  19 C :   -0.040711
  20 C :   -0.145563
  21 H :    0.016993
  22 C :    0.008689
  23 H :    0.049898
  24 H :    0.037734
  25 C :   -0.083094
  26 H :    0.018406
  27 H :    0.017240
  28 C :   -0.010245
  29 H :    0.024530
  30 H :    0.029099
  31 H :    0.051577
  32 H :    0.053632
  33 H :    0.038411
Sum of atomic charges:    0.0000000

LOEWDIN ATOMIC CHARGES
----------------------
   0 S :    0.412997
   1 C :   -0.197583
   2 C :   -0.069451
   3 C :   -0.068970
   4 C :   -0.196797
   5 H :    0.026508
   6 C :   -0.025462
   7 H :    0.031859
   8 H :    0.030044
   9 C :   -0.046584
  10 H :    0.018806
  11 H :    0.026610
  12 C :   -0.062422
  13 H :    0.024742
  14 H :    0.027176
  15 H :    0.021339
  16 S :    0.411648
  17 C :   -0.172318
  18 C :   -0.070998
  19 C :   -0.046895
  20 C :   -0.201479
  21 H :    0.031360
  22 C :   -0.040851
  23 H :    0.035554
  24 H :    0.032407
  25 C :   -0.036134
  26 H :    0.013665
  27 H :    0.014738
  28 C :   -0.054635
  29 H :    0.017659
  30 H :    0.028108
  31 H :    0.036942
  32 H :    0.031422
  33 H :    0.016994

  Mayer bond orders larger than 0.100000
B(  0-S ,  1-C ) :   1.1470 B(  0-S ,  4-C ) :   1.1737 B(  1-C ,  2-C ) :   1.5528
B(  1-C ,  4-C ) :   0.1100 B(  1-C , 32-H ) :   0.9780 B(  2-C ,  3-C ) :   1.2978
B(  2-C ,  6-C ) :   1.0114 B(  3-C ,  4-C ) :   1.5168 B(  3-C ,  5-H ) :   0.9948
B(  4-C , 20-C ) :   1.0682 B(  6-C ,  7-H ) :   0.9476 B(  6-C ,  8-H ) :   0.9424
B(  6-C ,  9-C ) :   1.0637 B(  9-C , 10-H ) :   0.9540 B(  9-C , 11-H ) :   0.9609
B(  9-C , 12-C ) :   1.0942 B( 12-C , 13-H ) :   0.9668 B( 12-C , 14-H ) :   0.9743
B( 12-C , 15-H ) :   0.9687 B( 16-S , 17-C ) :   1.1785 B( 16-S , 20-C ) :   1.1321
B( 17-C , 18-C ) :   1.5923 B( 17-C , 33-H ) :   0.9662 B( 18-C , 19-C ) :   1.2436
B( 18-C , 21-H ) :   0.9964 B( 19-C , 20-C ) :   1.5655 B( 19-C , 22-C ) :   1.0476
B( 22-C , 23-H ) :   0.9244 B( 22-C , 24-H ) :   0.9314 B( 22-C , 25-C ) :   1.0706
B( 25-C , 26-H ) :   0.9569 B( 25-C , 27-H ) :   0.9568 B( 25-C , 28-C ) :   1.0635
B( 28-C , 29-H ) :   0.9803 B( 28-C , 30-H ) :   0.9768 B( 28-C , 31-H ) :   0.9735

Dispersion correction           -0.013761141
FINAL SINGLE POINT ENERGY     -1339.865231099907

DIPOLE MOMENT
-------------
                                X             Y             Z
Electronic contribution:    -20.84212      -0.30496      20.57315
Nuclear contribution   :     21.21288       0.26235     -21.19751
                        -----------------------------------------
Total Dipole Moment    :      0.37076      -0.04262      -0.62436
                        -----------------------------------------
Magnitude (a.u.)       :      0.72740
Magnitude (Debye)      :      1.84890

Rotational constants in cm-1:     0.015315     0.009225     0.006813
Rotational constants in MHz :   459.142481   276.572405   204.263396

                             ****ORCA TERMINATED NORMALLY****
TOTAL RUN TIME: 0 days 0 hours 0 minutes 21 seconds 279 msec
