                         Program Version 4.2.1 -  RELEASE  -
|  1> ! wB97X-D3 SP def2-SVP
|  2> %pal
|  3> nprocs 24
|  4> end
|  5>
|  6> * xyz 0 1
|  7> S 	 -90.1251 	 0.919349 	 -0.335829
|  8> C 	 -88.6926 	 0.227834 	 0.442325
|  9> C 	 -89.0385 	 -0.547142 	 1.57058
| 10> C 	 -90.4869 	 -0.593503 	 1.75239
| 11> C 	 -91.2217 	 0.228154 	 0.873891
| 12> H 	 -90.9996 	 -1.23922 	 2.48043
| 13> C 	 -88.0741 	 -1.57231 	 2.23491
| 14> H 	 -87.1743 	 -1.66819 	 1.63022
| 15> H 	 -88.4749 	 -2.56403 	 2.23324
| 16> C 	 -87.5607 	 -1.10984 	 3.61766
| 17> H 	 -86.6832 	 -1.70386 	 4.01745
| 18> H 	 -87.0942 	 -0.120179 	 3.56176
| 19> C 	 -88.6307 	 -1.19173 	 4.75656
| 20> H 	 -89.3224 	 -0.329591 	 4.52986
| 21> H 	 -89.1293 	 -2.15744 	 4.80645
| 22> H 	 -88.0611 	 -1.06901 	 5.71039
| 23> S 	 -93.51 	 -0.499277 	 -0.407663
| 24> C 	 -95.0382 	 0.000885169 	 0.242464
| 25> C 	 -94.9326 	 0.7963 	 1.33776
| 26> C 	 -93.566 	 1.1373 	 1.6804
| 27> C 	 -92.6834 	 0.369775 	 0.891472
| 28> H 	 -95.8643 	 1.2552 	 1.80387
| 29> C 	 -93.2448 	 2.24393 	 2.69524
| 30> H 	 -92.4286 	 1.88617 	 3.40112
| 31> H 	 -94.0818 	 2.45737 	 3.38386
| 32> C 	 -92.7079 	 3.54809 	 2.15155
| 33> H 	 -91.8601 	 3.38433 	 1.51977
| 34> H 	 -92.3065 	 4.2456 	 2.89694
| 35> C 	 -93.8031 	 4.223 	 1.20416
| 36> H 	 -94.0415 	 3.57017 	 0.398922
| 37> H 	 -93.45 	 5.22739 	 0.824463
| 38> H 	 -94.6957 	 4.58225 	 1.70706
| 39> H 	 -87.6612 	 0.325301 	 0.15971
| 40> H 	 -95.971 	 -0.340989 	 -0.211887
| 41> *
| 42>
| 43>                          ****END OF INPUT****

CARTESIAN COORDINATES (ANGSTROEM)
---------------------------------
  S    -90.125100    0.919349   -0.335829
  C    -88.692600    0.227834    0.442325
  C    -89.038500   -0.547142    1.570580
  C    -90.486900   -0.593503    1.752390
  C    -91.221700    0.228154    0.873891
  H    -90.999600   -1.239220    2.480430
  C    -88.074100   -1.572310    2.234910
  H    -87.174300   -1.668190    1.630220
  H    -88.474900   -2.564030    2.233240
  C    -87.560700   -1.109840    3.617660
  H    -86.683200   -1.703860    4.017450
  H    -87.094200   -0.120179    3.561760
  C    -88.630700   -1.191730    4.756560
  H    -89.322400   -0.329591    4.529860
  H    -89.129300   -2.157440    4.806450
  H    -88.061100   -1.069010    5.710390
  S    -93.510000   -0.499277   -0.407663
  C    -95.038200    0.000885    0.242464
  C    -94.932600    0.796300    1.337760
  C    -93.566000    1.137300    1.680400
  C    -92.683400    0.369775    0.891472
  H    -95.864300    1.255200    1.803870
  C    -93.244800    2.243930    2.695240
  H    -92.428600    1.886170    3.401120
  H    -94.081800    2.457370    3.383860
  C    -92.707900    3.548090    2.151550
  H    -91.860100    3.384330    1.519770
  H    -92.306500    4.245600    2.896940
  C    -93.803100    4.223000    1.204160
  H    -94.041500    3.570170    0.398922
  H    -93.450000    5.227390    0.824463
  H    -94.695700    4.582250    1.707060
  H    -87.661200    0.325301    0.159710
  H    -95.971000   -0.340989   -0.211887

 Total Charge           Charge          ....    0
 Multiplicity           Mult            ....    1
 Number of Electrons    NEL             ....  134
 Basis Dimension        Dim             ....  322

ORBITAL ENERGIES
----------------

  NO   OCC          E(Eh)            E(eV)
   0   2.0000     -88.971835     -2421.0467
   1   2.0000     -88.966455     -2420.9003
   2   2.0000     -10.334376      -281.2127
   3   2.0000     -10.332563      -281.1633
   4   2.0000     -10.321420      -280.8601
   5   2.0000     -10.316945      -280.7383
   6   2.0000     -10.315267      -280.6927
   7   2.0000     -10.309403      -280.5331
   8   2.0000     -10.301889      -280.3286
   9   2.0000     -10.299575      -280.2657
  10   2.0000     -10.298637      -280.2402
  11   2.0000     -10.295793      -280.1628
  12   2.0000     -10.290511      -280.0190
  13   2.0000     -10.284889      -279.8660
  14   2.0000     -10.283074      -279.8167
  15   2.0000     -10.274018      -279.5702
  16   2.0000      -8.085219      -220.0100
  17   2.0000      -8.081513      -219.9092
  18   2.0000      -6.043865      -164.4619
  19   2.0000      -6.039927      -164.3548
  20   2.0000      -6.039810      -164.3516
  21   2.0000      -6.036036      -164.2489
  22   2.0000      -6.036008      -164.2481
  23   2.0000      -6.032287      -164.1469
  24   2.0000      -1.000935       -27.2368
  25   2.0000      -0.976920       -26.5833
  26   2.0000      -0.903980       -24.5985
  27   2.0000      -0.902964       -24.5709
  28   2.0000      -0.864933       -23.5360
  29   2.0000      -0.841850       -22.9079
  30   2.0000      -0.838145       -22.8071
  31   2.0000      -0.809389       -22.0246
  32   2.0000      -0.780855       -21.2482
  33   2.0000      -0.770909       -20.9775
  34   2.0000      -0.708574       -19.2813
  35   2.0000      -0.692513       -18.8442
  36   2.0000      -0.687361       -18.7040
  37   2.0000      -0.655704       -17.8426
  38   2.0000      -0.638229       -17.3671
  39   2.0000      -0.611894       -16.6505
  40   2.0000      -0.594259       -16.1706
  41   2.0000      -0.567485       -15.4421
  42   2.0000      -0.552038       -15.0217
  43   2.0000      -0.541795       -14.7430
  44   2.0000      -0.538607       -14.6562
  45   2.0000      -0.531347       -14.4587
  46   2.0000      -0.511275       -13.9125
  47   2.0000      -0.507603       -13.8126
  48   2.0000      -0.497895       -13.5484
  49   2.0000      -0.490758       -13.3542
  50   2.0000      -0.486434       -13.2365
  51   2.0000      -0.480746       -13.0818
  52   2.0000      -0.470499       -12.8029
  53   2.0000      -0.464432       -12.6378
  54   2.0000      -0.457759       -12.4563
  55   2.0000      -0.447839       -12.1863
  56   2.0000      -0.440091       -11.9755
  57   2.0000      -0.438366       -11.9285
  58   2.0000      -0.433293       -11.7905
  59   2.0000      -0.419111       -11.4046
  60   2.0000      -0.416983       -11.3467
  61   2.0000      -0.410678       -11.1751
  62   2.0000      -0.404318       -11.0021
  63   2.0000      -0.337410        -9.1814
  64   2.0000      -0.329419        -8.9639
  65   2.0000      -0.326094        -8.8735
  66   2.0000      -0.304636        -8.2896
  67   0.0000       0.035380         0.9627
  68   0.0000       0.052309         1.4234
  69   0.0000       0.108803         2.9607
  70   0.0000       0.114189         3.1073
  71   0.0000       0.125275         3.4089

MULLIKEN ATOMIC CHARGES
-----------------------
   0 S :    0.121246
   1 C :   -0.109911
   2 C :   -0.088620
   3 C :    0.041487
   4 C :   -0.167507
   5 H :    0.029235
   6 C :    0.068911
   7 H :    0.017864
   8 H :    0.034588
   9 C :   -0.113972
  10 H :    0.027782
  11 H :    0.030268
  12 C :   -0.077437
  13 H :    0.055247
  14 H :    0.037135
  15 H :    0.041061
  16 S :    0.112418
  17 C :   -0.093549
  18 C :   -0.051483
  19 C :   -0.014323
  20 C :   -0.203224
  21 H :    0.046300
  22 C :    0.053145
  23 H :    0.040157
  24 H :    0.027626
  25 C :   -0.048031
  26 H :    0.024491
  27 H :    0.032855
  28 C :   -0.081243
  29 H :    0.049665
  30 H :    0.027712
  31 H :    0.020592
  32 H :    0.047808
  33 H :    0.061707
Sum of atomic charges:    0.0000000

LOEWDIN ATOMIC CHARGES
----------------------
   0 S :    0.395185
   1 C :   -0.188450
   2 C :   -0.063546
   3 C :   -0.056782
   4 C :   -0.206311
   5 H :    0.035485
   6 C :   -0.027530
   7 H :    0.030911
   8 H :    0.029527
   9 C :   -0.051155
  10 H :    0.023610
  11 H :    0.024227
  12 C :   -0.074525
  13 H :    0.032603
  14 H :    0.022141
  15 H :    0.030723
  16 S :    0.407915
  17 C :   -0.188093
  18 C :   -0.082282
  19 C :   -0.044824
  20 C :   -0.197834
  21 H :    0.045193
  22 C :   -0.039106
  23 H :    0.041599
  24 H :    0.031705
  25 C :   -0.037036
  26 H :    0.021002
  27 H :    0.027657
  28 C :   -0.071582
  29 H :    0.022588
  30 H :    0.029228
  31 H :    0.019157
  32 H :    0.028042
  33 H :    0.030559

  Mayer bond orders larger than 0.100000
B(  0-S ,  1-C ) :   1.1443 B(  0-S ,  4-C ) :   1.1350 B(  1-C ,  2-C ) :   1.6156
B(  1-C , 32-H ) :   0.9648 B(  2-C ,  3-C ) :   1.2352 B(  2-C ,  6-C ) :   1.0110
B(  3-C ,  4-C ) :   1.5879 B(  3-C ,  5-H ) :   0.9850 B(  4-C , 20-C ) :   1.0258
B(  6-C ,  7-H ) :   0.9449 B(  6-C ,  8-H ) :   0.9549 B(  6-C ,  9-C ) :   1.0621
B(  9-C , 10-H ) :   0.9608 B(  9-C , 11-H ) :   0.9570 B(  9-C , 12-C ) :   1.0693
B( 12-C , 13-H ) :   0.9756 B( 12-C , 14-H ) :   0.9764 B( 12-C , 15-H ) :   0.9761
B( 16-S , 17-C ) :   1.1515 B( 16-S , 20-C ) :   1.1550 B( 17-C , 18-C ) :   1.6346
B( 17-C , 33-H ) :   0.9643 B( 18-C , 19-C ) :   1.2244 B( 18-C , 21-H ) :   0.9762
B( 19-C , 20-C ) :   1.6006 B( 19-C , 22-C ) :   1.0399 B( 22-C , 23-H ) :   0.9284
B( 22-C , 24-H ) :   0.9422 B( 22-C , 25-C ) :   1.0770 B( 25-C , 26-H ) :   0.9542
B( 25-C , 27-H ) :   0.9567 B( 25-C , 28-C ) :   1.0621 B( 28-C , 29-H ) :   0.9784
B( 28-C , 30-H ) :   0.9751 B( 28-C , 31-H ) :   0.9780

Dispersion correction           -0.014921193
FINAL SINGLE POINT ENERGY     -1339.874541813433

DIPOLE MOMENT
-------------
                                X             Y             Z
Electronic contribution:     -6.93477      -6.57639     -19.73665
Nuclear contribution   :      7.02483       6.52006      20.12132
                        -----------------------------------------
Total Dipole Moment    :      0.09006      -0.05633       0.38467
                        -----------------------------------------
Magnitude (a.u.)       :      0.39907
Magnitude (Debye)      :      1.01435

Rotational constants in cm-1:     0.019812     0.008023     0.007458
Rotational constants in MHz :   593.960013   240.509752   223.573976

                             ****ORCA TERMINATED NORMALLY****
TOTAL RUN TIME: 0 days 0 hours 0 minutes 21 seconds 482 msec
