                         Program Version 4.2.1 -  RELEASE  -
|  1> ! wB97X-D3 SP def2-SVP
|  2> %pal
|  3> nprocs 24
|  4> end
|  5>
|  6> * xyz 0 1
|  7> S 	 -129.326 	 31.9683 	 -16.0863
|  8> C 	 -127.906 	 30.935 	 -15.8169
|  9> C 	 -127.652 	 30.1165 	 -16.9112
| 10> C 	 -128.582 	 30.3555 	 -17.9435
| 11> C 	 -129.466 	 31.3899 	 -17.7089
| 12> H 	 -128.407 	 29.7468 	 -18.856
| 13> C 	 -126.438 	 29.1647 	 -17.1227
| 14> H 	 -125.495 	 29.7476 	 -17.0402
| 15> H 	 -126.433 	 28.8838 	 -18.2081
| 16> C 	 -126.56 	 27.8549 	 -16.3865
| 17> H 	 -125.611 	 27.3239 	 -16.4374
| 18> H 	 -126.777 	 28.0482 	 -15.3052
| 19> C 	 -127.78 	 27.0324 	 -16.8474
| 20> H 	 -128.7 	 27.5479 	 -17.0292
| 21> H 	 -127.451 	 26.605 	 -17.8092
| 22> H 	 -128.019 	 26.2624 	 -16.1384
| 23> S 	 -131.097 	 33.5926 	 -18.1444
| 24> C 	 -131.822 	 33.8152 	 -19.6918
| 25> C 	 -131.369 	 32.8984 	 -20.6305
| 26> C 	 -130.717 	 31.8026 	 -19.9913
| 27> C 	 -130.379 	 32.0779 	 -18.6624
| 28> H 	 -131.664 	 33.0504 	 -21.7083
| 29> C 	 -130.585 	 30.4302 	 -20.6674
| 30> H 	 -131.622 	 30.1575 	 -20.8053
| 31> H 	 -130.395 	 29.5943 	 -19.98
| 32> C 	 -129.634 	 30.4027 	 -21.8943
| 33> H 	 -128.577 	 30.2198 	 -21.4512
| 34> H 	 -129.626 	 31.3882 	 -22.4153
| 35> C 	 -130.031 	 29.2977 	 -22.8797
| 36> H 	 -129.213 	 29.1061 	 -23.5888
| 37> H 	 -130.979 	 29.5952 	 -23.4865
| 38> H 	 -130.235 	 28.3664 	 -22.4101
| 39> H 	 -127.302 	 30.9007 	 -14.8765
| 40> H 	 -132.396 	 34.6437 	 -19.9528
| 41> *
| 42>
| 43>                          ****END OF INPUT****

CARTESIAN COORDINATES (ANGSTROEM)
---------------------------------
  S    -129.326000   31.968300  -16.086300
  C    -127.906000   30.935000  -15.816900
  C    -127.652000   30.116500  -16.911200
  C    -128.582000   30.355500  -17.943500
  C    -129.466000   31.389900  -17.708900
  H    -128.407000   29.746800  -18.856000
  C    -126.438000   29.164700  -17.122700
  H    -125.495000   29.747600  -17.040200
  H    -126.433000   28.883800  -18.208100
  C    -126.560000   27.854900  -16.386500
  H    -125.611000   27.323900  -16.437400
  H    -126.777000   28.048200  -15.305200
  C    -127.780000   27.032400  -16.847400
  H    -128.700000   27.547900  -17.029200
  H    -127.451000   26.605000  -17.809200
  H    -128.019000   26.262400  -16.138400
  S    -131.097000   33.592600  -18.144400
  C    -131.822000   33.815200  -19.691800
  C    -131.369000   32.898400  -20.630500
  C    -130.717000   31.802600  -19.991300
  C    -130.379000   32.077900  -18.662400
  H    -131.664000   33.050400  -21.708300
  C    -130.585000   30.430200  -20.667400
  H    -131.622000   30.157500  -20.805300
  H    -130.395000   29.594300  -19.980000
  C    -129.634000   30.402700  -21.894300
  H    -128.577000   30.219800  -21.451200
  H    -129.626000   31.388200  -22.415300
  C    -130.031000   29.297700  -22.879700
  H    -129.213000   29.106100  -23.588800
  H    -130.979000   29.595200  -23.486500
  H    -130.235000   28.366400  -22.410100
  H    -127.302000   30.900700  -14.876500
  H    -132.396000   34.643700  -19.952800

 Total Charge           Charge          ....    0
 Multiplicity           Mult            ....    1
 Number of Electrons    NEL             ....  134
 Basis Dimension        Dim             ....  322

ORBITAL ENERGIES
----------------

  NO   OCC          E(Eh)            E(eV)
   0   2.0000     -88.969242     -2420.9762
   1   2.0000     -88.965438     -2420.8726
   2   2.0000     -10.333218      -281.1811
   3   2.0000     -10.329392      -281.0770
   4   2.0000     -10.317396      -280.7506
   5   2.0000     -10.312441      -280.6158
   6   2.0000     -10.306420      -280.4519
   7   2.0000     -10.301236      -280.3109
   8   2.0000     -10.300055      -280.2787
   9   2.0000     -10.299599      -280.2663
  10   2.0000     -10.299592      -280.2662
  11   2.0000     -10.293323      -280.0956
  12   2.0000     -10.291611      -280.0490
  13   2.0000     -10.289465      -279.9906
  14   2.0000     -10.285949      -279.8949
  15   2.0000     -10.275110      -279.6000
  16   2.0000      -8.083726      -219.9694
  17   2.0000      -8.080675      -219.8863
  18   2.0000      -6.042309      -164.4196
  19   2.0000      -6.039118      -164.3328
  20   2.0000      -6.038347      -164.3118
  21   2.0000      -6.035173      -164.2254
  22   2.0000      -6.034366      -164.2034
  23   2.0000      -6.031429      -164.1235
  24   2.0000      -1.007640       -27.4193
  25   2.0000      -0.985267       -26.8105
  26   2.0000      -0.913290       -24.8519
  27   2.0000      -0.905590       -24.6424
  28   2.0000      -0.864548       -23.5255
  29   2.0000      -0.852466       -23.1968
  30   2.0000      -0.842009       -22.9122
  31   2.0000      -0.809779       -22.0352
  32   2.0000      -0.784137       -21.3374
  33   2.0000      -0.773162       -21.0388
  34   2.0000      -0.703020       -19.1302
  35   2.0000      -0.701326       -19.0841
  36   2.0000      -0.693708       -18.8768
  37   2.0000      -0.658913       -17.9299
  38   2.0000      -0.626877       -17.0582
  39   2.0000      -0.622633       -16.9427
  40   2.0000      -0.599567       -16.3151
  41   2.0000      -0.572960       -15.5910
  42   2.0000      -0.554372       -15.0852
  43   2.0000      -0.550996       -14.9934
  44   2.0000      -0.540600       -14.7105
  45   2.0000      -0.529967       -14.4211
  46   2.0000      -0.510532       -13.8923
  47   2.0000      -0.503804       -13.7092
  48   2.0000      -0.501893       -13.6572
  49   2.0000      -0.494186       -13.4475
  50   2.0000      -0.492727       -13.4078
  51   2.0000      -0.478773       -13.0281
  52   2.0000      -0.470818       -12.8116
  53   2.0000      -0.464796       -12.6477
  54   2.0000      -0.457586       -12.4515
  55   2.0000      -0.452970       -12.3259
  56   2.0000      -0.447095       -12.1661
  57   2.0000      -0.443076       -12.0567
  58   2.0000      -0.437464       -11.9040
  59   2.0000      -0.423936       -11.5359
  60   2.0000      -0.419334       -11.4107
  61   2.0000      -0.408762       -11.1230
  62   2.0000      -0.404079       -10.9956
  63   2.0000      -0.357825        -9.7369
  64   2.0000      -0.338280        -9.2051
  65   2.0000      -0.327015        -8.8985
  66   2.0000      -0.277810        -7.5596
  67   0.0000       0.019219         0.5230
  68   0.0000       0.087653         2.3852
  69   0.0000       0.091707         2.4955
  70   0.0000       0.113530         3.0893
  71   0.0000       0.128954         3.5090

MULLIKEN ATOMIC CHARGES
-----------------------
   0 S :    0.100946
   1 C :   -0.145342
   2 C :   -0.107041
   3 C :   -0.020673
   4 C :   -0.080429
   5 H :    0.011251
   6 C :    0.044236
   7 H :    0.050272
   8 H :    0.013212
   9 C :   -0.063937
  10 H :    0.037635
  11 H :    0.029391
  12 C :   -0.055618
  13 H :    0.042491
  14 H :    0.022904
  15 H :    0.034831
  16 S :    0.096038
  17 C :   -0.068671
  18 C :   -0.053176
  19 C :   -0.065909
  20 C :   -0.099285
  21 H :    0.044896
  22 C :    0.029965
  23 H :    0.030788
  24 H :    0.020089
  25 C :   -0.089086
  26 H :    0.047836
  27 H :    0.046747
  28 C :   -0.063341
  29 H :    0.037773
  30 H :    0.047672
  31 H :    0.025743
  32 H :    0.061890
  33 H :    0.035900
Sum of atomic charges:   -0.0000000

LOEWDIN ATOMIC CHARGES
----------------------
   0 S :    0.402877
   1 C :   -0.200747
   2 C :   -0.063605
   3 C :   -0.080408
   4 C :   -0.188731
   5 H :    0.032723
   6 C :   -0.033808
   7 H :    0.037347
   8 H :    0.028697
   9 C :   -0.044347
  10 H :    0.025702
  11 H :    0.024190
  12 C :   -0.062063
  13 H :    0.025623
  14 H :    0.024583
  15 H :    0.025732
  16 S :    0.405459
  17 C :   -0.181205
  18 C :   -0.074480
  19 C :   -0.056236
  20 C :   -0.195121
  21 H :    0.043548
  22 C :   -0.041445
  23 H :    0.033898
  24 H :    0.031063
  25 C :   -0.044711
  26 H :    0.034233
  27 H :    0.028948
  28 C :   -0.071855
  29 H :    0.027022
  30 H :    0.037136
  31 H :    0.017564
  32 H :    0.036466
  33 H :    0.015948

  Mayer bond orders larger than 0.100000
B(  0-S ,  1-C ) :   1.1295 B(  0-S ,  4-C ) :   1.1570 B(  1-C ,  2-C ) :   1.6154
B(  1-C ,  4-C ) :   0.1002 B(  1-C , 32-H ) :   0.9615 B(  2-C ,  3-C ) :   1.2892
B(  2-C ,  6-C ) :   0.9979 B(  3-C ,  4-C ) :   1.5344 B(  3-C ,  5-H ) :   0.9799
B(  4-C , 20-C ) :   1.0642 B(  6-C ,  7-H ) :   0.9472 B(  6-C ,  8-H ) :   0.9443
B(  6-C ,  9-C ) :   1.0641 B(  9-C , 10-H ) :   0.9586 B(  9-C , 11-H ) :   0.9611
B(  9-C , 12-C ) :   1.0611 B( 12-C , 13-H ) :   0.9761 B( 12-C , 14-H ) :   0.9759
B( 12-C , 15-H ) :   0.9753 B( 16-S , 17-C ) :   1.1632 B( 16-S , 20-C ) :   1.1302
B( 17-C , 18-C ) :   1.6167 B( 17-C , 33-H ) :   0.9736 B( 18-C , 19-C ) :   1.2423
B( 18-C , 21-H ) :   0.9791 B( 19-C , 20-C ) :   1.5981 B( 19-C , 22-C ) :   1.0129
B( 22-C , 23-H ) :   0.9462 B( 22-C , 24-H ) :   0.9373 B( 22-C , 25-C ) :   1.0327
B( 25-C , 26-H ) :   0.9527 B( 25-C , 27-H ) :   0.9651 B( 25-C , 28-C ) :   1.0734
B( 28-C , 29-H ) :   0.9741 B( 28-C , 30-H ) :   0.9750 B( 28-C , 31-H ) :   0.9754

Dispersion correction           -0.014229375
FINAL SINGLE POINT ENERGY     -1339.868615060350

DIPOLE MOMENT
-------------
                                X             Y             Z
Electronic contribution:    -10.12337      25.46753      14.81580
Nuclear contribution   :     10.34513     -25.92614     -15.31335
                        -----------------------------------------
Total Dipole Moment    :      0.22176      -0.45861      -0.49755
                        -----------------------------------------
Magnitude (a.u.)       :      0.71208
Magnitude (Debye)      :      1.80996

Rotational constants in cm-1:     0.016868     0.009644     0.006450
Rotational constants in MHz :   505.698360   289.123143   193.380582

                             ****ORCA TERMINATED NORMALLY****
TOTAL RUN TIME: 0 days 0 hours 0 minutes 21 seconds 572 msec
