                         Program Version 4.2.1 -  RELEASE  -
|  1> ! wB97X-D3 SP def2-SVP
|  2> %pal
|  3> nprocs 24
|  4> end
|  5>
|  6> * xyz 0 1
|  7> S 	 -130.495 	 60.4815 	 -56.8303
|  8> C 	 -131.634 	 61.2469 	 -57.9951
|  9> C 	 -131.01 	 61.9169 	 -59.0159
| 10> C 	 -129.594 	 61.7358 	 -58.8879
| 11> C 	 -129.138 	 61.0555 	 -57.7456
| 12> H 	 -128.789 	 62.1458 	 -59.5151
| 13> C 	 -131.742 	 62.7214 	 -60.0757
| 14> H 	 -131.045 	 63.5365 	 -60.4334
| 15> H 	 -132.57 	 63.1673 	 -59.6247
| 16> C 	 -132.254 	 61.8806 	 -61.2913
| 17> H 	 -131.351 	 61.6325 	 -61.8736
| 18> H 	 -132.599 	 60.9232 	 -60.9454
| 19> C 	 -133.443 	 62.4947 	 -62.1076
| 20> H 	 -133.36 	 63.5398 	 -62.4767
| 21> H 	 -133.605 	 61.9967 	 -63.0529
| 22> H 	 -134.343 	 62.4084 	 -61.4608
| 23> S 	 -126.991 	 61.5342 	 -56.0945
| 24> C 	 -125.54 	 60.6704 	 -56.3046
| 25> C 	 -125.598 	 59.9042 	 -57.4389
| 26> C 	 -126.833 	 59.9648 	 -58.1561
| 27> C 	 -127.763 	 60.735 	 -57.4397
| 28> H 	 -124.841 	 59.2078 	 -57.6528
| 29> C 	 -127.123 	 59.166 	 -59.3864
| 30> H 	 -127.9 	 59.7651 	 -59.7067
| 31> H 	 -127.456 	 58.15 	 -59.1532
| 32> C 	 -126.062 	 59.1058 	 -60.5514
| 33> H 	 -125.146 	 58.5792 	 -60.172
| 34> H 	 -125.85 	 60.1331 	 -60.7873
| 35> C 	 -126.512 	 58.4021 	 -61.8209
| 36> H 	 -127.231 	 58.9326 	 -62.5306
| 37> H 	 -127.04 	 57.5437 	 -61.5051
| 38> H 	 -125.653 	 58.0542 	 -62.3457
| 39> H 	 -132.722 	 61.2379 	 -58.0451
| 40> H 	 -124.766 	 60.5594 	 -55.5828
| 41> *
| 42>
| 43>                          ****END OF INPUT****

CARTESIAN COORDINATES (ANGSTROEM)
---------------------------------
  S    -130.495000   60.481500  -56.830300
  C    -131.634000   61.246900  -57.995100
  C    -131.010000   61.916900  -59.015900
  C    -129.594000   61.735800  -58.887900
  C    -129.138000   61.055500  -57.745600
  H    -128.789000   62.145800  -59.515100
  C    -131.742000   62.721400  -60.075700
  H    -131.045000   63.536500  -60.433400
  H    -132.570000   63.167300  -59.624700
  C    -132.254000   61.880600  -61.291300
  H    -131.351000   61.632500  -61.873600
  H    -132.599000   60.923200  -60.945400
  C    -133.443000   62.494700  -62.107600
  H    -133.360000   63.539800  -62.476700
  H    -133.605000   61.996700  -63.052900
  H    -134.343000   62.408400  -61.460800
  S    -126.991000   61.534200  -56.094500
  C    -125.540000   60.670400  -56.304600
  C    -125.598000   59.904200  -57.438900
  C    -126.833000   59.964800  -58.156100
  C    -127.763000   60.735000  -57.439700
  H    -124.841000   59.207800  -57.652800
  C    -127.123000   59.166000  -59.386400
  H    -127.900000   59.765100  -59.706700
  H    -127.456000   58.150000  -59.153200
  C    -126.062000   59.105800  -60.551400
  H    -125.146000   58.579200  -60.172000
  H    -125.850000   60.133100  -60.787300
  C    -126.512000   58.402100  -61.820900
  H    -127.231000   58.932600  -62.530600
  H    -127.040000   57.543700  -61.505100
  H    -125.653000   58.054200  -62.345700
  H    -132.722000   61.237900  -58.045100
  H    -124.766000   60.559400  -55.582800

 Total Charge           Charge          ....    0
 Multiplicity           Mult            ....    1
 Number of Electrons    NEL             ....  134
 Basis Dimension        Dim             ....  322

ORBITAL ENERGIES
----------------

  NO   OCC          E(Eh)            E(eV)
   0   2.0000     -88.970677     -2421.0152
   1   2.0000     -88.963280     -2420.8139
   2   2.0000     -10.327691      -281.0308
   3   2.0000     -10.324249      -280.9371
   4   2.0000     -10.316851      -280.7358
   5   2.0000     -10.309029      -280.5229
   6   2.0000     -10.302874      -280.3555
   7   2.0000     -10.302708      -280.3509
   8   2.0000     -10.297760      -280.2163
   9   2.0000     -10.297322      -280.2044
  10   2.0000     -10.293299      -280.0949
  11   2.0000     -10.290470      -280.0179
  12   2.0000     -10.287990      -279.9504
  13   2.0000     -10.284342      -279.8512
  14   2.0000     -10.282728      -279.8072
  15   2.0000     -10.276641      -279.6416
  16   2.0000      -8.084450      -219.9891
  17   2.0000      -8.079071      -219.8427
  18   2.0000      -6.043087      -164.4407
  19   2.0000      -6.039048      -164.3309
  20   2.0000      -6.037495      -164.2886
  21   2.0000      -6.035163      -164.2251
  22   2.0000      -6.033306      -164.1746
  23   2.0000      -6.029977      -164.0840
  24   2.0000      -1.008093       -27.4316
  25   2.0000      -0.984267       -26.7833
  26   2.0000      -0.910218       -24.7683
  27   2.0000      -0.908711       -24.7273
  28   2.0000      -0.869601       -23.6631
  29   2.0000      -0.855377       -23.2760
  30   2.0000      -0.843680       -22.9577
  31   2.0000      -0.812077       -22.0977
  32   2.0000      -0.787050       -21.4167
  33   2.0000      -0.774287       -21.0694
  34   2.0000      -0.708116       -19.2688
  35   2.0000      -0.703077       -19.1317
  36   2.0000      -0.700541       -19.0627
  37   2.0000      -0.654650       -17.8139
  38   2.0000      -0.639228       -17.3943
  39   2.0000      -0.614070       -16.7097
  40   2.0000      -0.594821       -16.1859
  41   2.0000      -0.573608       -15.6087
  42   2.0000      -0.570797       -15.5322
  43   2.0000      -0.560823       -15.2608
  44   2.0000      -0.529235       -14.4012
  45   2.0000      -0.519000       -14.1227
  46   2.0000      -0.517954       -14.0942
  47   2.0000      -0.511603       -13.9214
  48   2.0000      -0.504394       -13.7253
  49   2.0000      -0.500991       -13.6326
  50   2.0000      -0.495747       -13.4900
  51   2.0000      -0.478222       -13.0131
  52   2.0000      -0.469311       -12.7706
  53   2.0000      -0.465255       -12.6602
  54   2.0000      -0.461898       -12.5689
  55   2.0000      -0.452488       -12.3128
  56   2.0000      -0.444931       -12.1072
  57   2.0000      -0.434511       -11.8236
  58   2.0000      -0.431729       -11.7480
  59   2.0000      -0.426823       -11.6144
  60   2.0000      -0.423659       -11.5283
  61   2.0000      -0.421284       -11.4637
  62   2.0000      -0.411598       -11.2002
  63   2.0000      -0.335259        -9.1229
  64   2.0000      -0.333815        -9.0836
  65   2.0000      -0.326411        -8.8821
  66   2.0000      -0.300821        -8.1857
  67   0.0000       0.033813         0.9201
  68   0.0000       0.064206         1.7471
  69   0.0000       0.111246         3.0272
  70   0.0000       0.120228         3.2716
  71   0.0000       0.130398         3.5483

MULLIKEN ATOMIC CHARGES
-----------------------
   0 S :    0.127936
   1 C :   -0.112581
   2 C :   -0.098594
   3 C :    0.035757
   4 C :   -0.197699
   5 H :    0.018446
   6 C :    0.090622
   7 H :    0.042333
   8 H :    0.007381
   9 C :   -0.070813
  10 H :    0.030122
  11 H :    0.024358
  12 C :   -0.066187
  13 H :    0.035900
  14 H :    0.035317
  15 H :    0.042201
  16 S :    0.121220
  17 C :   -0.071749
  18 C :   -0.028595
  19 C :   -0.040857
  20 C :   -0.186787
  21 H :   -0.001648
  22 C :    0.120281
  23 H :   -0.010025
  24 H :    0.042675
  25 C :   -0.102123
  26 H :    0.037729
  27 H :    0.026005
  28 C :   -0.022163
  29 H :    0.045044
  30 H :    0.010218
  31 H :    0.029536
  32 H :    0.038713
  33 H :    0.048025
Sum of atomic charges:   -0.0000000

LOEWDIN ATOMIC CHARGES
----------------------
   0 S :    0.403893
   1 C :   -0.184156
   2 C :   -0.064846
   3 C :   -0.062586
   4 C :   -0.212193
   5 H :    0.031653
   6 C :   -0.025422
   7 H :    0.040593
   8 H :    0.020463
   9 C :   -0.039129
  10 H :    0.025065
  11 H :    0.021494
  12 C :   -0.073653
  13 H :    0.027946
  14 H :    0.027485
  15 H :    0.030201
  16 S :    0.431648
  17 C :   -0.196716
  18 C :   -0.068375
  19 C :   -0.047123
  20 C :   -0.212491
  21 H :    0.021297
  22 C :   -0.032833
  23 H :    0.021725
  24 H :    0.034439
  25 C :   -0.035866
  26 H :    0.027162
  27 H :    0.021636
  28 C :   -0.066330
  29 H :    0.034272
  30 H :    0.018446
  31 H :    0.025559
  32 H :    0.030161
  33 H :    0.026581

  Mayer bond orders larger than 0.100000
B(  0-S ,  1-C ) :   1.1340 B(  0-S ,  4-C ) :   1.1437 B(  1-C ,  2-C ) :   1.6341
B(  1-C , 32-H ) :   0.9583 B(  2-C ,  3-C ) :   1.2362 B(  2-C ,  6-C ) :   1.0217
B(  3-C ,  4-C ) :   1.5851 B(  3-C ,  5-H ) :   0.9840 B(  4-C , 20-C ) :   1.0310
B(  6-C ,  7-H ) :   0.9414 B(  6-C ,  8-H ) :   0.9379 B(  6-C ,  9-C ) :   1.0511
B(  9-C , 10-H ) :   0.9581 B(  9-C , 11-H ) :   0.9615 B(  9-C , 12-C ) :   1.0669
B( 12-C , 13-H ) :   0.9775 B( 12-C , 14-H ) :   0.9751 B( 12-C , 15-H ) :   0.9766
B( 16-S , 17-C ) :   1.1651 B( 16-S , 20-C ) :   1.1635 B( 17-C , 18-C ) :   1.5968
B( 17-C , 33-H ) :   0.9682 B( 18-C , 19-C ) :   1.2472 B( 18-C , 21-H ) :   0.9967
B( 19-C , 20-C ) :   1.5684 B( 19-C , 22-C ) :   1.0348 B( 22-C , 23-H ) :   0.9164
B( 22-C , 24-H ) :   0.9250 B( 22-C , 25-C ) :   1.0743 B( 25-C , 26-H ) :   0.9541
B( 25-C , 27-H ) :   0.9578 B( 25-C , 28-C ) :   1.0875 B( 28-C , 29-H ) :   0.9742
B( 28-C , 30-H ) :   0.9699 B( 28-C , 31-H ) :   0.9722

Dispersion correction           -0.013583421
FINAL SINGLE POINT ENERGY     -1339.867232242946

DIPOLE MOMENT
-------------
                                X             Y             Z
Electronic contribution:      6.19476       3.10790      30.27772
Nuclear contribution   :     -6.25230      -3.25911     -30.93462
                        -----------------------------------------
Total Dipole Moment    :     -0.05754      -0.15120      -0.65690
                        -----------------------------------------
Magnitude (a.u.)       :      0.67653
Magnitude (Debye)      :      1.71960

Rotational constants in cm-1:     0.017303     0.008152     0.006092
Rotational constants in MHz :   518.725915   244.381851   182.624937

                             ****ORCA TERMINATED NORMALLY****
TOTAL RUN TIME: 0 days 0 hours 0 minutes 21 seconds 29 msec
