                         Program Version 4.2.1 -  RELEASE  -
|  1> ! wB97X-D3 SP def2-SVP
|  2> %pal
|  3> nprocs 24
|  4> end
|  5>
|  6> * xyz 0 1
|  7> S 	 -59.4457 	 13.7814 	 -96.4881
|  8> C 	 -58.5412 	 15.283 	 -96.1074
|  9> C 	 -57.6455 	 15.5376 	 -97.1133
| 10> C 	 -57.5332 	 14.4935 	 -98.0862
| 11> C 	 -58.4495 	 13.4879 	 -97.9112
| 12> H 	 -56.8353 	 14.4246 	 -98.9345
| 13> C 	 -56.8296 	 16.7982 	 -97.0463
| 14> H 	 -56.3442 	 16.9258 	 -96.1214
| 15> H 	 -57.5373 	 17.6256 	 -96.9978
| 16> C 	 -55.8046 	 16.9909 	 -98.2566
| 17> H 	 -56.2999 	 16.921 	 -99.1842
| 18> H 	 -55.584 	 18.0675 	 -98.1572
| 19> C 	 -54.5704 	 16.0872 	 -98.2397
| 20> H 	 -54.7632 	 15.1749 	 -97.6836
| 21> H 	 -54.2766 	 15.8686 	 -99.2301
| 22> H 	 -53.7399 	 16.5709 	 -97.5873
| 23> S 	 -58.8362 	 10.7931 	 -97.7856
| 24> C 	 -59.0233 	 9.91418 	 -99.283
| 25> C 	 -58.8707 	 10.7214 	 -100.369
| 26> C 	 -58.6564 	 12.0704 	 -100.088
| 27> C 	 -58.6191 	 12.2577 	 -98.7272
| 28> H 	 -59.0413 	 10.285 	 -101.31
| 29> C 	 -58.4762 	 13.0456 	 -101.238
| 30> H 	 -58.5766 	 14.0657 	 -100.921
| 31> H 	 -59.4165 	 12.9929 	 -101.862
| 32> C 	 -57.1542 	 12.9145 	 -102
| 33> H 	 -56.8449 	 11.9557 	 -102.356
| 34> H 	 -56.355 	 13.3354 	 -101.313
| 35> C 	 -57.188 	 13.7351 	 -103.354
| 36> H 	 -56.2783 	 13.816 	 -103.894
| 37> H 	 -57.5541 	 14.7463 	 -103.303
| 38> H 	 -57.9666 	 13.4227 	 -104.068
| 39> H 	 -58.7112 	 15.902 	 -95.2571
| 40> H 	 -59.2062 	 8.86327 	 -99.3809
| 41> *
| 42>
| 43>                          ****END OF INPUT****

CARTESIAN COORDINATES (ANGSTROEM)
---------------------------------
  S    -59.445700   13.781400  -96.488100
  C    -58.541200   15.283000  -96.107400
  C    -57.645500   15.537600  -97.113300
  C    -57.533200   14.493500  -98.086200
  C    -58.449500   13.487900  -97.911200
  H    -56.835300   14.424600  -98.934500
  C    -56.829600   16.798200  -97.046300
  H    -56.344200   16.925800  -96.121400
  H    -57.537300   17.625600  -96.997800
  C    -55.804600   16.990900  -98.256600
  H    -56.299900   16.921000  -99.184200
  H    -55.584000   18.067500  -98.157200
  C    -54.570400   16.087200  -98.239700
  H    -54.763200   15.174900  -97.683600
  H    -54.276600   15.868600  -99.230100
  H    -53.739900   16.570900  -97.587300
  S    -58.836200   10.793100  -97.785600
  C    -59.023300    9.914180  -99.283000
  C    -58.870700   10.721400  -100.369000
  C    -58.656400   12.070400  -100.088000
  C    -58.619100   12.257700  -98.727200
  H    -59.041300   10.285000  -101.310000
  C    -58.476200   13.045600  -101.238000
  H    -58.576600   14.065700  -100.921000
  H    -59.416500   12.992900  -101.862000
  C    -57.154200   12.914500  -102.000000
  H    -56.844900   11.955700  -102.356000
  H    -56.355000   13.335400  -101.313000
  C    -57.188000   13.735100  -103.354000
  H    -56.278300   13.816000  -103.894000
  H    -57.554100   14.746300  -103.303000
  H    -57.966600   13.422700  -104.068000
  H    -58.711200   15.902000  -95.257100
  H    -59.206200    8.863270  -99.380900

 Total Charge           Charge          ....    0
 Multiplicity           Mult            ....    1
 Number of Electrons    NEL             ....  134
 Basis Dimension        Dim             ....  322

ORBITAL ENERGIES
----------------

  NO   OCC          E(Eh)            E(eV)
   0   2.0000     -88.966974     -2420.9144
   1   2.0000     -88.962841     -2420.8020
   2   2.0000     -10.329261      -281.0735
   3   2.0000     -10.327863      -281.0354
   4   2.0000     -10.310953      -280.5753
   5   2.0000     -10.309274      -280.5296
   6   2.0000     -10.300781      -280.2985
   7   2.0000     -10.300221      -280.2833
   8   2.0000     -10.298849      -280.2459
   9   2.0000     -10.298648      -280.2405
  10   2.0000     -10.294333      -280.1230
  11   2.0000     -10.289076      -279.9800
  12   2.0000     -10.287191      -279.9287
  13   2.0000     -10.282974      -279.8140
  14   2.0000     -10.281857      -279.7835
  15   2.0000     -10.277894      -279.6757
  16   2.0000      -8.081715      -219.9146
  17   2.0000      -8.076664      -219.7772
  18   2.0000      -6.040177      -164.3616
  19   2.0000      -6.036317      -164.2565
  20   2.0000      -6.035279      -164.2283
  21   2.0000      -6.032427      -164.1507
  22   2.0000      -6.031288      -164.1197
  23   2.0000      -6.027393      -164.0137
  24   2.0000      -1.007710       -27.4212
  25   2.0000      -0.983432       -26.7605
  26   2.0000      -0.909181       -24.7401
  27   2.0000      -0.905817       -24.6485
  28   2.0000      -0.867668       -23.6104
  29   2.0000      -0.853340       -23.2206
  30   2.0000      -0.838603       -22.8195
  31   2.0000      -0.819955       -22.3121
  32   2.0000      -0.786582       -21.4040
  33   2.0000      -0.773637       -21.0517
  34   2.0000      -0.713655       -19.4196
  35   2.0000      -0.705686       -19.2027
  36   2.0000      -0.692572       -18.8458
  37   2.0000      -0.662441       -18.0259
  38   2.0000      -0.642820       -17.4920
  39   2.0000      -0.621515       -16.9123
  40   2.0000      -0.603163       -16.4129
  41   2.0000      -0.568593       -15.4722
  42   2.0000      -0.558175       -15.1887
  43   2.0000      -0.546990       -14.8844
  44   2.0000      -0.532627       -14.4935
  45   2.0000      -0.520783       -14.1712
  46   2.0000      -0.519987       -14.1496
  47   2.0000      -0.513851       -13.9826
  48   2.0000      -0.509650       -13.8683
  49   2.0000      -0.499947       -13.6042
  50   2.0000      -0.489212       -13.3121
  51   2.0000      -0.483524       -13.1574
  52   2.0000      -0.471028       -12.8173
  53   2.0000      -0.463127       -12.6023
  54   2.0000      -0.454392       -12.3646
  55   2.0000      -0.450247       -12.2518
  56   2.0000      -0.448666       -12.2088
  57   2.0000      -0.439309       -11.9542
  58   2.0000      -0.435691       -11.8557
  59   2.0000      -0.430742       -11.7211
  60   2.0000      -0.425546       -11.5797
  61   2.0000      -0.418488       -11.3876
  62   2.0000      -0.400624       -10.9015
  63   2.0000      -0.346916        -9.4401
  64   2.0000      -0.336057        -9.1446
  65   2.0000      -0.327932        -8.9235
  66   2.0000      -0.290815        -7.9135
  67   0.0000       0.030285         0.8241
  68   0.0000       0.076296         2.0761
  69   0.0000       0.108268         2.9461
  70   0.0000       0.120477         3.2783
  71   0.0000       0.126814         3.4508

MULLIKEN ATOMIC CHARGES
-----------------------
   0 S :    0.094707
   1 C :   -0.124406
   2 C :   -0.065047
   3 C :    0.015758
   4 C :   -0.131576
   5 H :    0.011466
   6 C :    0.048672
   7 H :    0.021504
   8 H :    0.028181
   9 C :   -0.074954
  10 H :    0.019651
  11 H :    0.031200
  12 C :   -0.051377
  13 H :    0.041400
  14 H :    0.034249
  15 H :    0.044062
  16 S :    0.114875
  17 C :   -0.081691
  18 C :   -0.025454
  19 C :    0.005565
  20 C :   -0.180264
  21 H :   -0.003533
  22 C :    0.056719
  23 H :    0.012607
  24 H :    0.036607
  25 C :   -0.051676
  26 H :    0.037095
  27 H :    0.045783
  28 C :   -0.056460
  29 H :    0.032363
  30 H :    0.008572
  31 H :    0.022169
  32 H :    0.037492
  33 H :    0.045740
Sum of atomic charges:   -0.0000000

LOEWDIN ATOMIC CHARGES
----------------------
   0 S :    0.375903
   1 C :   -0.182569
   2 C :   -0.060969
   3 C :   -0.076016
   4 C :   -0.182709
   5 H :    0.034496
   6 C :   -0.030481
   7 H :    0.025182
   8 H :    0.034884
   9 C :   -0.041952
  10 H :    0.015494
  11 H :    0.029076
  12 C :   -0.069647
  13 H :    0.026832
  14 H :    0.021327
  15 H :    0.039348
  16 S :    0.407173
  17 C :   -0.180687
  18 C :   -0.063777
  19 C :   -0.058793
  20 C :   -0.189633
  21 H :    0.024706
  22 C :   -0.034332
  23 H :    0.027685
  24 H :    0.039605
  25 C :   -0.029979
  26 H :    0.022461
  27 H :    0.033135
  28 C :   -0.076638
  29 H :    0.021337
  30 H :    0.020581
  31 H :    0.028665
  32 H :    0.024085
  33 H :    0.026206

  Mayer bond orders larger than 0.100000
B(  0-S ,  1-C ) :   1.1100 B(  0-S ,  4-C ) :   1.1545 B(  1-C ,  2-C ) :   1.6268
B(  1-C , 32-H ) :   0.9797 B(  2-C ,  3-C ) :   1.2249 B(  2-C ,  6-C ) :   1.0064
B(  3-C ,  4-C ) :   1.5891 B(  3-C ,  5-H ) :   0.9879 B(  4-C , 20-C ) :   1.0141
B(  6-C ,  7-H ) :   0.9426 B(  6-C ,  8-H ) :   0.9355 B(  6-C ,  9-C ) :   1.0823
B(  9-C , 10-H ) :   0.9611 B(  9-C , 11-H ) :   0.9577 B(  9-C , 12-C ) :   1.0565
B( 12-C , 13-H ) :   0.9802 B( 12-C , 14-H ) :   0.9775 B( 12-C , 15-H ) :   0.9723
B( 16-S , 17-C ) :   1.1382 B( 16-S , 20-C ) :   1.1518 B( 17-C , 18-C ) :   1.6335
B( 17-C , 33-H ) :   0.9680 B( 18-C , 19-C ) :   1.2267 B( 18-C , 21-H ) :   0.9960
B( 19-C , 20-C ) :   1.6075 B( 19-C , 22-C ) :   1.0417 B( 22-C , 23-H ) :   0.9266
B( 22-C , 24-H ) :   0.9394 B( 22-C , 25-C ) :   1.0503 B( 25-C , 26-H ) :   0.9637
B( 25-C , 27-H ) :   0.9530 B( 25-C , 28-C ) :   1.0636 B( 28-C , 29-H ) :   0.9784
B( 28-C , 30-H ) :   0.9718 B( 28-C , 31-H ) :   0.9734

Dispersion correction           -0.014335253
FINAL SINGLE POINT ENERGY     -1339.871576284551

DIPOLE MOMENT
-------------
                                X             Y             Z
Electronic contribution:    -17.20351     -17.07109      19.68668
Nuclear contribution   :     17.48879      17.43157     -20.21239
                        -----------------------------------------
Total Dipole Moment    :      0.28528       0.36048      -0.52572
                        -----------------------------------------
Magnitude (a.u.)       :      0.69836
Magnitude (Debye)      :      1.77510

Rotational constants in cm-1:     0.015373     0.010502     0.006925
Rotational constants in MHz :   460.863062   314.855345   207.595955

                             ****ORCA TERMINATED NORMALLY****
TOTAL RUN TIME: 0 days 0 hours 0 minutes 20 seconds 630 msec
