                         Program Version 4.2.1 -  RELEASE  -
|  1> ! wB97X-D3 SP def2-SVP
|  2> %pal
|  3> nprocs 24
|  4> end
|  5>
|  6> * xyz 0 1
|  7> S 	 -130.831 	 7.50355 	 -7.95927
|  8> C 	 -129.778 	 6.15278 	 -7.64326
|  9> C 	 -128.746 	 6.41935 	 -6.77322
| 10> C 	 -128.876 	 7.77287 	 -6.26793
| 11> C 	 -129.814 	 8.54182 	 -6.91619
| 12> H 	 -128.188 	 8.26567 	 -5.64292
| 13> C 	 -127.605 	 5.50821 	 -6.40393
| 14> H 	 -126.706 	 5.89514 	 -6.96571
| 15> H 	 -127.981 	 4.50471 	 -6.71707
| 16> C 	 -127.153 	 5.50618 	 -4.9087
| 17> H 	 -126.248 	 4.97049 	 -4.69104
| 18> H 	 -126.808 	 6.51181 	 -4.60145
| 19> C 	 -128.119 	 5.02127 	 -3.81718
| 20> H 	 -128.449 	 3.99518 	 -4.10875
| 21> H 	 -127.577 	 4.99468 	 -2.85908
| 22> H 	 -128.953 	 5.63689 	 -3.69637
| 23> S 	 -129.932 	 10.339 	 -4.87659
| 24> C 	 -130.361 	 12.0132 	 -5.2767
| 25> C 	 -130.573 	 12.2304 	 -6.60239
| 26> C 	 -130.465 	 11.0233 	 -7.36827
| 27> C 	 -130.049 	 9.9426 	 -6.6056
| 28> H 	 -130.676 	 13.2621 	 -6.91702
| 29> C 	 -130.706 	 11.0358 	 -8.86023
| 30> H 	 -131.451 	 11.7562 	 -8.97071
| 31> H 	 -131.052 	 10.0503 	 -9.13849
| 32> C 	 -129.383 	 11.4216 	 -9.70736
| 33> H 	 -128.598 	 10.6412 	 -9.51449
| 34> H 	 -129.067 	 12.368 	 -9.35118
| 35> C 	 -129.528 	 11.4344 	 -11.2687
| 36> H 	 -128.678 	 11.8009 	 -11.831
| 37> H 	 -130.503 	 11.993 	 -11.6036
| 38> H 	 -129.788 	 10.4364 	 -11.5083
| 39> H 	 -129.894 	 5.27895 	 -8.31854
| 40> H 	 -130.363 	 12.8143 	 -4.5893
| 41> *
| 42>
| 43>                          ****END OF INPUT****

CARTESIAN COORDINATES (ANGSTROEM)
---------------------------------
  S    -130.831000    7.503550   -7.959270
  C    -129.778000    6.152780   -7.643260
  C    -128.746000    6.419350   -6.773220
  C    -128.876000    7.772870   -6.267930
  C    -129.814000    8.541820   -6.916190
  H    -128.188000    8.265670   -5.642920
  C    -127.605000    5.508210   -6.403930
  H    -126.706000    5.895140   -6.965710
  H    -127.981000    4.504710   -6.717070
  C    -127.153000    5.506180   -4.908700
  H    -126.248000    4.970490   -4.691040
  H    -126.808000    6.511810   -4.601450
  C    -128.119000    5.021270   -3.817180
  H    -128.449000    3.995180   -4.108750
  H    -127.577000    4.994680   -2.859080
  H    -128.953000    5.636890   -3.696370
  S    -129.932000   10.339000   -4.876590
  C    -130.361000   12.013200   -5.276700
  C    -130.573000   12.230400   -6.602390
  C    -130.465000   11.023300   -7.368270
  C    -130.049000    9.942600   -6.605600
  H    -130.676000   13.262100   -6.917020
  C    -130.706000   11.035800   -8.860230
  H    -131.451000   11.756200   -8.970710
  H    -131.052000   10.050300   -9.138490
  C    -129.383000   11.421600   -9.707360
  H    -128.598000   10.641200   -9.514490
  H    -129.067000   12.368000   -9.351180
  C    -129.528000   11.434400  -11.268700
  H    -128.678000   11.800900  -11.831000
  H    -130.503000   11.993000  -11.603600
  H    -129.788000   10.436400  -11.508300
  H    -129.894000    5.278950   -8.318540
  H    -130.363000   12.814300   -4.589300

 Total Charge           Charge          ....    0
 Multiplicity           Mult            ....    1
 Number of Electrons    NEL             ....  134
 Basis Dimension        Dim             ....  322

ORBITAL ENERGIES
----------------

  NO   OCC          E(Eh)            E(eV)
   0   2.0000     -88.966546     -2420.9028
   1   2.0000     -88.966061     -2420.8896
   2   2.0000     -10.331135      -281.1245
   3   2.0000     -10.327537      -281.0266
   4   2.0000     -10.315786      -280.7068
   5   2.0000     -10.314119      -280.6614
   6   2.0000     -10.305243      -280.4199
   7   2.0000     -10.304735      -280.4061
   8   2.0000     -10.304611      -280.4027
   9   2.0000     -10.293396      -280.0975
  10   2.0000     -10.292701      -280.0786
  11   2.0000     -10.290643      -280.0226
  12   2.0000     -10.289890      -280.0022
  13   2.0000     -10.288665      -279.9688
  14   2.0000     -10.282591      -279.8035
  15   2.0000     -10.274129      -279.5733
  16   2.0000      -8.080430      -219.8797
  17   2.0000      -8.080255      -219.8749
  18   2.0000      -6.039060      -164.3312
  19   2.0000      -6.038948      -164.3281
  20   2.0000      -6.035217      -164.2266
  21   2.0000      -6.034891      -164.2177
  22   2.0000      -6.030950      -164.1105
  23   2.0000      -6.030813      -164.1068
  24   2.0000      -1.004008       -27.3204
  25   2.0000      -0.981411       -26.7056
  26   2.0000      -0.906932       -24.6789
  27   2.0000      -0.898711       -24.4552
  28   2.0000      -0.873936       -23.7810
  29   2.0000      -0.850326       -23.1386
  30   2.0000      -0.843821       -22.9615
  31   2.0000      -0.816258       -22.2115
  32   2.0000      -0.783131       -21.3101
  33   2.0000      -0.769347       -20.9350
  34   2.0000      -0.709320       -19.3016
  35   2.0000      -0.698611       -19.0102
  36   2.0000      -0.689030       -18.7495
  37   2.0000      -0.668829       -18.1998
  38   2.0000      -0.639594       -17.4043
  39   2.0000      -0.614124       -16.7112
  40   2.0000      -0.590053       -16.0562
  41   2.0000      -0.564461       -15.3598
  42   2.0000      -0.556880       -15.1535
  43   2.0000      -0.553404       -15.0589
  44   2.0000      -0.543429       -14.7875
  45   2.0000      -0.524601       -14.2751
  46   2.0000      -0.516821       -14.0634
  47   2.0000      -0.515206       -14.0195
  48   2.0000      -0.504334       -13.7236
  49   2.0000      -0.495021       -13.4702
  50   2.0000      -0.487360       -13.2617
  51   2.0000      -0.477105       -12.9827
  52   2.0000      -0.468385       -12.7454
  53   2.0000      -0.465282       -12.6610
  54   2.0000      -0.455330       -12.3902
  55   2.0000      -0.449102       -12.2207
  56   2.0000      -0.445436       -12.1209
  57   2.0000      -0.436501       -11.8778
  58   2.0000      -0.431487       -11.7414
  59   2.0000      -0.425279       -11.5724
  60   2.0000      -0.424211       -11.5434
  61   2.0000      -0.417360       -11.3570
  62   2.0000      -0.411340       -11.1931
  63   2.0000      -0.353701        -9.6247
  64   2.0000      -0.332227        -9.0404
  65   2.0000      -0.329300        -8.9607
  66   2.0000      -0.288014        -7.8373
  67   0.0000       0.024389         0.6637
  68   0.0000       0.078103         2.1253
  69   0.0000       0.098695         2.6856
  70   0.0000       0.111164         3.0249
  71   0.0000       0.130569         3.5530

MULLIKEN ATOMIC CHARGES
-----------------------
   0 S :    0.094646
   1 C :   -0.156764
   2 C :   -0.060760
   3 C :   -0.014432
   4 C :   -0.098575
   5 H :    0.001524
   6 C :    0.080319
   7 H :    0.060594
   8 H :    0.031213
   9 C :   -0.101463
  10 H :    0.022019
  11 H :    0.018162
  12 C :   -0.036827
  13 H :    0.030686
  14 H :    0.035191
  15 H :    0.030408
  16 S :    0.094727
  17 C :   -0.066552
  18 C :   -0.040622
  19 C :   -0.073476
  20 C :   -0.151037
  21 H :    0.024282
  22 C :    0.118101
  23 H :    0.011166
  24 H :    0.011800
  25 C :   -0.078666
  26 H :    0.045446
  27 H :    0.018264
  28 C :   -0.053324
  29 H :    0.051541
  30 H :    0.030166
  31 H :    0.022950
  32 H :    0.064306
  33 H :    0.034987
Sum of atomic charges:   -0.0000000

LOEWDIN ATOMIC CHARGES
----------------------
   0 S :    0.386750
   1 C :   -0.204064
   2 C :   -0.063257
   3 C :   -0.067054
   4 C :   -0.175757
   5 H :    0.016951
   6 C :   -0.031496
   7 H :    0.048638
   8 H :    0.034814
   9 C :   -0.050985
  10 H :    0.024398
  11 H :    0.022703
  12 C :   -0.059474
  13 H :    0.027406
  14 H :    0.030806
  15 H :    0.014977
  16 S :    0.387775
  17 C :   -0.164427
  18 C :   -0.070101
  19 C :   -0.053252
  20 C :   -0.183542
  21 H :    0.036304
  22 C :   -0.019863
  23 H :    0.021817
  24 H :    0.018055
  25 C :   -0.029701
  26 H :    0.032799
  27 H :    0.012129
  28 C :   -0.072787
  29 H :    0.027664
  30 H :    0.031894
  31 H :    0.019065
  32 H :    0.031774
  33 H :    0.019043

  Mayer bond orders larger than 0.100000
B(  0-S ,  1-C ) :   1.1302 B(  0-S ,  4-C ) :   1.1172 B(  1-C ,  2-C ) :   1.6373
B(  1-C , 32-H ) :   0.9575 B(  2-C ,  3-C ) :   1.2013 B(  2-C ,  6-C ) :   1.0188
B(  3-C ,  4-C ) :   1.5902 B(  3-C ,  5-H ) :   0.9954 B(  4-C , 20-C ) :   1.0826
B(  6-C ,  7-H ) :   0.9308 B(  6-C ,  8-H ) :   0.9447 B(  6-C ,  9-C ) :   1.0696
B(  9-C , 10-H ) :   0.9574 B(  9-C , 11-H ) :   0.9470 B(  9-C , 12-C ) :   1.0802
B( 12-C , 13-H ) :   0.9751 B( 12-C , 14-H ) :   0.9734 B( 12-C , 15-H ) :   0.9777
B( 16-S , 17-C ) :   1.1323 B( 16-S , 20-C ) :   1.1192 B( 17-C , 18-C ) :   1.6668
B( 17-C , 33-H ) :   0.9658 B( 18-C , 19-C ) :   1.1995 B( 18-C , 21-H ) :   0.9880
B( 19-C , 20-C ) :   1.6091 B( 19-C , 22-C ) :   1.0532 B( 22-C , 23-H ) :   0.9269
B( 22-C , 24-H ) :   0.9286 B( 22-C , 25-C ) :   1.0523 B( 25-C , 26-H ) :   0.9612
B( 25-C , 27-H ) :   0.9620 B( 25-C , 28-C ) :   1.0691 B( 28-C , 29-H ) :   0.9759
B( 28-C , 30-H ) :   0.9748 B( 28-C , 31-H ) :   0.9761

Dispersion correction           -0.014096566
FINAL SINGLE POINT ENERGY     -1339.873860557669

DIPOLE MOMENT
-------------
                                X             Y             Z
Electronic contribution:    -10.66275       4.13784       6.43928
Nuclear contribution   :     11.08285      -4.00092      -6.57714
                        -----------------------------------------
Total Dipole Moment    :      0.42010       0.13693      -0.13786
                        -----------------------------------------
Magnitude (a.u.)       :      0.46286
Magnitude (Debye)      :      1.17650

Rotational constants in cm-1:     0.019441     0.008466     0.006694
Rotational constants in MHz :   582.839279   253.814437   200.688734

                             ****ORCA TERMINATED NORMALLY****
TOTAL RUN TIME: 0 days 0 hours 0 minutes 21 seconds 98 msec
