                         Program Version 4.2.1 -  RELEASE  -
|  1> ! wB97X-D3 SP def2-SVP
|  2> %pal
|  3> nprocs 24
|  4> end
|  5>
|  6> * xyz 0 1
|  7> S 	 39.7782 	 -26.5745 	 -126.344
|  8> C 	 39.344 	 -24.8785 	 -126.225
|  9> C 	 40.3368 	 -23.9726 	 -126.621
| 10> C 	 41.3527 	 -24.7101 	 -127.238
| 11> C 	 41.2668 	 -26.06 	 -127.171
| 12> H 	 42.2143 	 -24.3578 	 -127.816
| 13> C 	 40.2918 	 -22.4851 	 -126.561
| 14> H 	 41.3441 	 -22.287 	 -126.357
| 15> H 	 39.6332 	 -22.1751 	 -125.733
| 16> C 	 39.8424 	 -21.8052 	 -127.814
| 17> H 	 40.6393 	 -21.8181 	 -128.576
| 18> H 	 38.9042 	 -22.2344 	 -128.267
| 19> C 	 39.5061 	 -20.3376 	 -127.523
| 20> H 	 39.5228 	 -19.6797 	 -128.458
| 21> H 	 38.5605 	 -20.2179 	 -127.006
| 22> H 	 40.211 	 -19.9413 	 -126.896
| 23> S 	 41.6737 	 -27.7497 	 -129.278
| 24> C 	 43.3249 	 -28.2091 	 -129.857
| 25> C 	 44.2802 	 -27.7014 	 -128.984
| 26> C 	 43.6652 	 -26.9649 	 -127.911
| 27> C 	 42.2105 	 -26.9442 	 -127.865
| 28> H 	 45.3131 	 -27.7951 	 -129.255
| 29> C 	 44.4541 	 -26.2657 	 -126.871
| 30> H 	 45.1832 	 -26.9166 	 -126.287
| 31> H 	 43.7696 	 -25.906 	 -126.148
| 32> C 	 45.2367 	 -25.0291 	 -127.407
| 33> H 	 44.4707 	 -24.3841 	 -127.857
| 34> H 	 46.009 	 -25.3416 	 -128.13
| 35> C 	 45.9354 	 -24.2604 	 -126.29
| 36> H 	 46.401 	 -24.9106 	 -125.528
| 37> H 	 45.2274 	 -23.6605 	 -125.776
| 38> H 	 46.7342 	 -23.6296 	 -126.741
| 39> H 	 38.346 	 -24.5155 	 -125.956
| 40> H 	 43.5379 	 -28.614 	 -130.852
| 41> *
| 42>
| 43>                          ****END OF INPUT****

CARTESIAN COORDINATES (ANGSTROEM)
---------------------------------
  S     39.778200  -26.574500  -126.344000
  C     39.344000  -24.878500  -126.225000
  C     40.336800  -23.972600  -126.621000
  C     41.352700  -24.710100  -127.238000
  C     41.266800  -26.060000  -127.171000
  H     42.214300  -24.357800  -127.816000
  C     40.291800  -22.485100  -126.561000
  H     41.344100  -22.287000  -126.357000
  H     39.633200  -22.175100  -125.733000
  C     39.842400  -21.805200  -127.814000
  H     40.639300  -21.818100  -128.576000
  H     38.904200  -22.234400  -128.267000
  C     39.506100  -20.337600  -127.523000
  H     39.522800  -19.679700  -128.458000
  H     38.560500  -20.217900  -127.006000
  H     40.211000  -19.941300  -126.896000
  S     41.673700  -27.749700  -129.278000
  C     43.324900  -28.209100  -129.857000
  C     44.280200  -27.701400  -128.984000
  C     43.665200  -26.964900  -127.911000
  C     42.210500  -26.944200  -127.865000
  H     45.313100  -27.795100  -129.255000
  C     44.454100  -26.265700  -126.871000
  H     45.183200  -26.916600  -126.287000
  H     43.769600  -25.906000  -126.148000
  C     45.236700  -25.029100  -127.407000
  H     44.470700  -24.384100  -127.857000
  H     46.009000  -25.341600  -128.130000
  C     45.935400  -24.260400  -126.290000
  H     46.401000  -24.910600  -125.528000
  H     45.227400  -23.660500  -125.776000
  H     46.734200  -23.629600  -126.741000
  H     38.346000  -24.515500  -125.956000
  H     43.537900  -28.614000  -130.852000

 Total Charge           Charge          ....    0
 Multiplicity           Mult            ....    1
 Number of Electrons    NEL             ....  134
 Basis Dimension        Dim             ....  322

ORBITAL ENERGIES
----------------

  NO   OCC          E(Eh)            E(eV)
   0   2.0000     -88.971432     -2421.0357
   1   2.0000     -88.962859     -2420.8025
   2   2.0000     -10.330321      -281.1023
   3   2.0000     -10.329122      -281.0697
   4   2.0000     -10.324979      -280.9570
   5   2.0000     -10.318255      -280.7740
   6   2.0000     -10.308298      -280.5031
   7   2.0000     -10.300709      -280.2965
   8   2.0000     -10.298851      -280.2460
   9   2.0000     -10.295280      -280.1488
  10   2.0000     -10.291614      -280.0491
  11   2.0000     -10.291516      -280.0464
  12   2.0000     -10.287381      -279.9339
  13   2.0000     -10.284028      -279.8426
  14   2.0000     -10.276932      -279.6495
  15   2.0000     -10.276209      -279.6299
  16   2.0000      -8.085431      -220.0158
  17   2.0000      -8.077336      -219.7955
  18   2.0000      -6.043886      -164.4625
  19   2.0000      -6.040210      -164.3625
  20   2.0000      -6.036124      -164.2513
  21   2.0000      -6.035829      -164.2433
  22   2.0000      -6.031602      -164.1282
  23   2.0000      -6.028365      -164.0402
  24   2.0000      -1.006070       -27.3766
  25   2.0000      -0.980985       -26.6940
  26   2.0000      -0.922437       -25.1008
  27   2.0000      -0.906591       -24.6696
  28   2.0000      -0.872301       -23.7365
  29   2.0000      -0.856498       -23.3065
  30   2.0000      -0.845417       -23.0050
  31   2.0000      -0.818724       -22.2786
  32   2.0000      -0.782500       -21.2929
  33   2.0000      -0.760209       -20.6863
  34   2.0000      -0.704498       -19.1704
  35   2.0000      -0.700518       -19.0621
  36   2.0000      -0.693055       -18.8590
  37   2.0000      -0.656816       -17.8729
  38   2.0000      -0.642913       -17.4946
  39   2.0000      -0.623718       -16.9722
  40   2.0000      -0.592431       -16.1209
  41   2.0000      -0.577393       -15.7116
  42   2.0000      -0.571607       -15.5542
  43   2.0000      -0.564812       -15.3693
  44   2.0000      -0.533907       -14.5283
  45   2.0000      -0.523735       -14.2516
  46   2.0000      -0.512805       -13.9541
  47   2.0000      -0.510794       -13.8994
  48   2.0000      -0.505062       -13.7434
  49   2.0000      -0.503522       -13.7015
  50   2.0000      -0.490584       -13.3495
  51   2.0000      -0.472768       -12.8647
  52   2.0000      -0.469998       -12.7893
  53   2.0000      -0.466854       -12.7037
  54   2.0000      -0.459875       -12.5138
  55   2.0000      -0.448985       -12.2175
  56   2.0000      -0.442777       -12.0486
  57   2.0000      -0.439197       -11.9512
  58   2.0000      -0.433766       -11.8034
  59   2.0000      -0.427828       -11.6418
  60   2.0000      -0.422123       -11.4865
  61   2.0000      -0.420050       -11.4302
  62   2.0000      -0.410231       -11.1629
  63   2.0000      -0.348421        -9.4810
  64   2.0000      -0.334732        -9.1085
  65   2.0000      -0.317824        -8.6484
  66   2.0000      -0.293940        -7.9985
  67   0.0000       0.028704         0.7811
  68   0.0000       0.059534         1.6200
  69   0.0000       0.106387         2.8949
  70   0.0000       0.118392         3.2216
  71   0.0000       0.121643         3.3101

MULLIKEN ATOMIC CHARGES
-----------------------
   0 S :    0.124412
   1 C :   -0.129628
   2 C :   -0.073448
   3 C :    0.011920
   4 C :   -0.167244
   5 H :    0.013549
   6 C :    0.084964
   7 H :    0.031382
   8 H :    0.027367
   9 C :   -0.081195
  10 H :    0.031912
  11 H :    0.042922
  12 C :   -0.035951
  13 H :    0.042099
  14 H :    0.032073
  15 H :    0.004573
  16 S :    0.093528
  17 C :   -0.117948
  18 C :    0.002961
  19 C :   -0.069335
  20 C :   -0.114005
  21 H :    0.022694
  22 C :    0.039143
  23 H :    0.037098
  24 H :    0.010462
  25 C :   -0.100467
  26 H :    0.025777
  27 H :    0.033685
  28 C :   -0.032982
  29 H :    0.029237
  30 H :    0.023155
  31 H :    0.039771
  32 H :    0.046776
  33 H :    0.070742
Sum of atomic charges:   -0.0000000

LOEWDIN ATOMIC CHARGES
----------------------
   0 S :    0.394345
   1 C :   -0.190079
   2 C :   -0.064164
   3 C :   -0.058147
   4 C :   -0.196432
   5 H :    0.034144
   6 C :   -0.033397
   7 H :    0.039086
   8 H :    0.035389
   9 C :   -0.042273
  10 H :    0.026205
  11 H :    0.031750
  12 C :   -0.063670
  13 H :    0.035485
  14 H :    0.023922
  15 H :    0.008955
  16 S :    0.407886
  17 C :   -0.172293
  18 C :   -0.067095
  19 C :   -0.055146
  20 C :   -0.217910
  21 H :    0.033801
  22 C :   -0.042267
  23 H :    0.034600
  24 H :    0.021695
  25 C :   -0.039345
  26 H :    0.020919
  27 H :    0.022116
  28 C :   -0.065728
  29 H :    0.026016
  30 H :    0.018769
  31 H :    0.031223
  32 H :    0.027041
  33 H :    0.034600

  Mayer bond orders larger than 0.100000
B(  0-S ,  1-C ) :   1.1506 B(  0-S ,  4-C ) :   1.1213 B(  1-C ,  2-C ) :   1.6024
B(  1-C , 32-H ) :   0.9618 B(  2-C ,  3-C ) :   1.2307 B(  2-C ,  6-C ) :   1.0224
B(  3-C ,  4-C ) :   1.6098 B(  3-C ,  5-H ) :   0.9841 B(  4-C , 20-C ) :   1.0230
B(  6-C ,  7-H ) :   0.9210 B(  6-C ,  8-H ) :   0.9404 B(  6-C ,  9-C ) :   1.0764
B(  9-C , 10-H ) :   0.9501 B(  9-C , 11-H ) :   0.9606 B(  9-C , 12-C ) :   1.0815
B( 12-C , 13-H ) :   0.9742 B( 12-C , 14-H ) :   0.9760 B( 12-C , 15-H ) :   0.9696
B( 16-S , 17-C ) :   1.1709 B( 16-S , 20-C ) :   1.1558 B( 17-C , 18-C ) :   1.5721
B( 17-C , 20-C ) :   0.1015 B( 17-C , 33-H ) :   0.9648 B( 18-C , 19-C ) :   1.2614
B( 18-C , 21-H ) :   0.9966 B( 19-C , 20-C ) :   1.5284 B( 19-C , 22-C ) :   1.0739
B( 22-C , 23-H ) :   0.9352 B( 22-C , 24-H ) :   0.9334 B( 22-C , 25-C ) :   1.0548
B( 25-C , 26-H ) :   0.9522 B( 25-C , 27-H ) :   0.9590 B( 25-C , 28-C ) :   1.0830
B( 28-C , 29-H ) :   0.9724 B( 28-C , 30-H ) :   0.9754 B( 28-C , 31-H ) :   0.9751

Dispersion correction           -0.014241389
FINAL SINGLE POINT ENERGY     -1339.866046235000

DIPOLE MOMENT
-------------
                                X             Y             Z
Electronic contribution:    -11.47826     -27.21340      -3.87538
Nuclear contribution   :     11.82690      27.95297       3.74932
                        -----------------------------------------
Total Dipole Moment    :      0.34864       0.73957      -0.12606
                        -----------------------------------------
Magnitude (a.u.)       :      0.82729
Magnitude (Debye)      :      2.10280

Rotational constants in cm-1:     0.016599     0.008811     0.006944
Rotational constants in MHz :   497.639987   264.136452   208.182487

                             ****ORCA TERMINATED NORMALLY****
TOTAL RUN TIME: 0 days 0 hours 0 minutes 21 seconds 967 msec
