                         Program Version 4.2.1 -  RELEASE  -
|  1> ! wB97X-D3 SP def2-SVP
|  2> %pal
|  3> nprocs 24
|  4> end
|  5>
|  6> * xyz 0 1
|  7> S 	 -84.2029 	 -21.1182 	 -46.8167
|  8> C 	 -84.6027 	 -19.3739 	 -46.6167
|  9> C 	 -84.2812 	 -18.6996 	 -47.7685
| 10> C 	 -83.6405 	 -19.4759 	 -48.7952
| 11> C 	 -83.4994 	 -20.7915 	 -48.4646
| 12> H 	 -83.1136 	 -19.2446 	 -49.7744
| 13> C 	 -84.6993 	 -17.2529 	 -47.9685
| 14> H 	 -84.9322 	 -16.9091 	 -47.0012
| 15> H 	 -85.6604 	 -17.3697 	 -48.4172
| 16> C 	 -83.7221 	 -16.4058 	 -48.7995
| 17> H 	 -82.7215 	 -16.3476 	 -48.4208
| 18> H 	 -83.4729 	 -16.7902 	 -49.7608
| 19> C 	 -84.2813 	 -14.9793 	 -49.1125
| 20> H 	 -85.1925 	 -14.9244 	 -49.7608
| 21> H 	 -84.4888 	 -14.3873 	 -48.2092
| 22> H 	 -83.402 	 -14.5187 	 -49.6551
| 23> S 	 -81.11 	 -22.0523 	 -48.4914
| 24> C 	 -80.5306 	 -22.7894 	 -49.9099
| 25> C 	 -81.4766 	 -22.8715 	 -50.881
| 26> C 	 -82.6932 	 -22.2166 	 -50.5032
| 27> C 	 -82.6194 	 -21.6867 	 -49.2344
| 28> H 	 -81.2185 	 -23.2047 	 -51.8534
| 29> C 	 -83.7762 	 -22.034 	 -51.5397
| 30> H 	 -83.9254 	 -20.9897 	 -51.4934
| 31> H 	 -84.7123 	 -22.5265 	 -51.3008
| 32> C 	 -83.5146 	 -22.2187 	 -53.0333
| 33> H 	 -83.2468 	 -23.2566 	 -53.1163
| 34> H 	 -82.6176 	 -21.7553 	 -53.418
| 35> C 	 -84.7301 	 -21.8809 	 -53.8713
| 36> H 	 -84.3322 	 -22.018 	 -54.9146
| 37> H 	 -84.9434 	 -20.8429 	 -53.8529
| 38> H 	 -85.6592 	 -22.3482 	 -53.6094
| 39> H 	 -85.0495 	 -18.9237 	 -45.8082
| 40> H 	 -79.5115 	 -22.9452 	 -50.0933
| 41> *
| 42>
| 43>                          ****END OF INPUT****

CARTESIAN COORDINATES (ANGSTROEM)
---------------------------------
  S    -84.202900  -21.118200  -46.816700
  C    -84.602700  -19.373900  -46.616700
  C    -84.281200  -18.699600  -47.768500
  C    -83.640500  -19.475900  -48.795200
  C    -83.499400  -20.791500  -48.464600
  H    -83.113600  -19.244600  -49.774400
  C    -84.699300  -17.252900  -47.968500
  H    -84.932200  -16.909100  -47.001200
  H    -85.660400  -17.369700  -48.417200
  C    -83.722100  -16.405800  -48.799500
  H    -82.721500  -16.347600  -48.420800
  H    -83.472900  -16.790200  -49.760800
  C    -84.281300  -14.979300  -49.112500
  H    -85.192500  -14.924400  -49.760800
  H    -84.488800  -14.387300  -48.209200
  H    -83.402000  -14.518700  -49.655100
  S    -81.110000  -22.052300  -48.491400
  C    -80.530600  -22.789400  -49.909900
  C    -81.476600  -22.871500  -50.881000
  C    -82.693200  -22.216600  -50.503200
  C    -82.619400  -21.686700  -49.234400
  H    -81.218500  -23.204700  -51.853400
  C    -83.776200  -22.034000  -51.539700
  H    -83.925400  -20.989700  -51.493400
  H    -84.712300  -22.526500  -51.300800
  C    -83.514600  -22.218700  -53.033300
  H    -83.246800  -23.256600  -53.116300
  H    -82.617600  -21.755300  -53.418000
  C    -84.730100  -21.880900  -53.871300
  H    -84.332200  -22.018000  -54.914600
  H    -84.943400  -20.842900  -53.852900
  H    -85.659200  -22.348200  -53.609400
  H    -85.049500  -18.923700  -45.808200
  H    -79.511500  -22.945200  -50.093300

 Total Charge           Charge          ....    0
 Multiplicity           Mult            ....    1
 Number of Electrons    NEL             ....  134
 Basis Dimension        Dim             ....  322

ORBITAL ENERGIES
----------------

  NO   OCC          E(Eh)            E(eV)
   0   2.0000     -88.963044     -2420.8075
   1   2.0000     -88.961988     -2420.7788
   2   2.0000     -10.331211      -281.1265
   3   2.0000     -10.322388      -280.8865
   4   2.0000     -10.310668      -280.5675
   5   2.0000     -10.306046      -280.4418
   6   2.0000     -10.302948      -280.3575
   7   2.0000     -10.301281      -280.3121
   8   2.0000     -10.296882      -280.1924
   9   2.0000     -10.287785      -279.9448
  10   2.0000     -10.286938      -279.9218
  11   2.0000     -10.286445      -279.9084
  12   2.0000     -10.286083      -279.8985
  13   2.0000     -10.283993      -279.8417
  14   2.0000     -10.283127      -279.8181
  15   2.0000     -10.279334      -279.7149
  16   2.0000      -8.078503      -219.8272
  17   2.0000      -8.075894      -219.7562
  18   2.0000      -6.036816      -164.2701
  19   2.0000      -6.034658      -164.2114
  20   2.0000      -6.032703      -164.1582
  21   2.0000      -6.030798      -164.1063
  22   2.0000      -6.029408      -164.0685
  23   2.0000      -6.026357      -163.9855
  24   2.0000      -1.010886       -27.5076
  25   2.0000      -0.980263       -26.6743
  26   2.0000      -0.917265       -24.9601
  27   2.0000      -0.908132       -24.7115
  28   2.0000      -0.872619       -23.7452
  29   2.0000      -0.856590       -23.3090
  30   2.0000      -0.840047       -22.8588
  31   2.0000      -0.821175       -22.3453
  32   2.0000      -0.783533       -21.3210
  33   2.0000      -0.769293       -20.9335
  34   2.0000      -0.716191       -19.4885
  35   2.0000      -0.709379       -19.3032
  36   2.0000      -0.698250       -19.0003
  37   2.0000      -0.657257       -17.8849
  38   2.0000      -0.644119       -17.5274
  39   2.0000      -0.612629       -16.6705
  40   2.0000      -0.603158       -16.4128
  41   2.0000      -0.575423       -15.6580
  42   2.0000      -0.564883       -15.3712
  43   2.0000      -0.558885       -15.2080
  44   2.0000      -0.536728       -14.6051
  45   2.0000      -0.532250       -14.4832
  46   2.0000      -0.516467       -14.0538
  47   2.0000      -0.509987       -13.8774
  48   2.0000      -0.502855       -13.6834
  49   2.0000      -0.500065       -13.6075
  50   2.0000      -0.492236       -13.3944
  51   2.0000      -0.485212       -13.2033
  52   2.0000      -0.476347       -12.9621
  53   2.0000      -0.468701       -12.7540
  54   2.0000      -0.456591       -12.4245
  55   2.0000      -0.449945       -12.2436
  56   2.0000      -0.448648       -12.2083
  57   2.0000      -0.441704       -12.0194
  58   2.0000      -0.436246       -11.8708
  59   2.0000      -0.423165       -11.5149
  60   2.0000      -0.421538       -11.4706
  61   2.0000      -0.405925       -11.0458
  62   2.0000      -0.403274       -10.9736
  63   2.0000      -0.344886        -9.3848
  64   2.0000      -0.329714        -8.9720
  65   2.0000      -0.322796        -8.7837
  66   2.0000      -0.300659        -8.1814
  67   0.0000       0.040877         1.1123
  68   0.0000       0.059555         1.6206
  69   0.0000       0.118513         3.2249
  70   0.0000       0.130448         3.5497
  71   0.0000       0.135300         3.6817

MULLIKEN ATOMIC CHARGES
-----------------------
   0 S :    0.085268
   1 C :   -0.093730
   2 C :   -0.094426
   3 C :    0.011689
   4 C :   -0.157807
   5 H :    0.052779
   6 C :    0.143190
   7 H :   -0.004801
   8 H :    0.033075
   9 C :   -0.067866
  10 H :    0.025240
  11 H :    0.018096
  12 C :   -0.088686
  13 H :    0.046176
  14 H :    0.037590
  15 H :    0.039091
  16 S :    0.126281
  17 C :   -0.064782
  18 C :   -0.036998
  19 C :   -0.027130
  20 C :   -0.195156
  21 H :    0.004363
  22 C :    0.094228
  23 H :    0.000001
  24 H :    0.037287
  25 C :   -0.095414
  26 H :    0.021441
  27 H :    0.020382
  28 C :   -0.014785
  29 H :    0.038728
  30 H :    0.016059
  31 H :    0.036670
  32 H :    0.014890
  33 H :    0.039056
Sum of atomic charges:   -0.0000000

LOEWDIN ATOMIC CHARGES
----------------------
   0 S :    0.344183
   1 C :   -0.172554
   2 C :   -0.056504
   3 C :   -0.073218
   4 C :   -0.171743
   5 H :    0.048585
   6 C :   -0.023932
   7 H :    0.022513
   8 H :    0.035784
   9 C :   -0.041155
  10 H :    0.026207
  11 H :    0.021599
  12 C :   -0.071366
  13 H :    0.028393
  14 H :    0.022384
  15 H :    0.033409
  16 S :    0.443613
  17 C :   -0.188164
  18 C :   -0.071753
  19 C :   -0.051060
  20 C :   -0.212642
  21 H :    0.024736
  22 C :   -0.034441
  23 H :    0.026261
  24 H :    0.034849
  25 C :   -0.043345
  26 H :    0.017277
  27 H :    0.022046
  28 C :   -0.058390
  29 H :    0.039670
  30 H :    0.019860
  31 H :    0.025644
  32 H :    0.013538
  33 H :    0.019715

  Mayer bond orders larger than 0.100000
B(  0-S ,  1-C ) :   1.0984 B(  0-S ,  4-C ) :   1.1184 B(  1-C ,  2-C ) :   1.6614
B(  1-C , 32-H ) :   0.9787 B(  2-C ,  3-C ) :   1.1787 B(  2-C ,  6-C ) :   1.0169
B(  3-C ,  4-C ) :   1.6462 B(  3-C ,  5-H ) :   0.9703 B(  4-C , 20-C ) :   1.0190
B(  6-C ,  7-H ) :   0.9343 B(  6-C ,  8-H ) :   0.9338 B(  6-C ,  9-C ) :   1.0547
B(  9-C , 10-H ) :   0.9598 B(  9-C , 11-H ) :   0.9490 B(  9-C , 12-C ) :   1.0792
B( 12-C , 13-H ) :   0.9772 B( 12-C , 14-H ) :   0.9778 B( 12-C , 15-H ) :   0.9761
B( 16-S , 17-C ) :   1.1791 B( 16-S , 20-C ) :   1.1580 B( 17-C , 18-C ) :   1.5979
B( 17-C , 33-H ) :   0.9678 B( 18-C , 19-C ) :   1.2524 B( 18-C , 21-H ) :   0.9921
B( 19-C , 20-C ) :   1.6111 B( 19-C , 22-C ) :   1.0150 B( 22-C , 23-H ) :   0.9289
B( 22-C , 24-H ) :   0.9279 B( 22-C , 25-C ) :   1.0843 B( 25-C , 26-H ) :   0.9427
B( 25-C , 27-H ) :   0.9508 B( 25-C , 28-C ) :   1.0839 B( 28-C , 29-H ) :   0.9689
B( 28-C , 30-H ) :   0.9728 B( 28-C , 31-H ) :   0.9740

Dispersion correction           -0.013346942
FINAL SINGLE POINT ENERGY     -1339.849975631195

DIPOLE MOMENT
-------------
                                X             Y             Z
Electronic contribution:      8.96946     -17.83612      21.48461
Nuclear contribution   :     -8.96331      18.39507     -22.17604
                        -----------------------------------------
Total Dipole Moment    :      0.00615       0.55895      -0.69143
                        -----------------------------------------
Magnitude (a.u.)       :      0.88912
Magnitude (Debye)      :      2.25998

Rotational constants in cm-1:     0.015527     0.008368     0.006608
Rotational constants in MHz :   465.482507   250.858456   198.110464

                             ****ORCA TERMINATED NORMALLY****
TOTAL RUN TIME: 0 days 0 hours 0 minutes 21 seconds 15 msec
