                         Program Version 4.2.1 -  RELEASE  -
|  1> ! wB97X-D3 SP def2-SVP
|  2> %pal
|  3> nprocs 24
|  4> end
|  5>
|  6> * xyz 0 1
|  7> S 	 -36.7248 	 -8.31966 	 18.5524
|  8> C 	 -35.2365 	 -9.2324 	 18.5099
|  9> C 	 -35.3698 	 -10.2107 	 17.5008
| 10> C 	 -36.5568 	 -10.1601 	 16.6868
| 11> C 	 -37.3846 	 -9.13045 	 17.0764
| 12> H 	 -36.7995 	 -10.8272 	 15.8463
| 13> C 	 -34.2481 	 -11.2693 	 17.3058
| 14> H 	 -34.2266 	 -11.9674 	 18.1767
| 15> H 	 -33.3622 	 -10.6143 	 17.3006
| 16> C 	 -34.3326 	 -12.1392 	 16.0774
| 17> H 	 -33.6351 	 -12.926 	 16.1409
| 18> H 	 -35.2505 	 -12.6529 	 16.1712
| 19> C 	 -34.0555 	 -11.3913 	 14.7277
| 20> H 	 -33.0013 	 -11.1344 	 14.6579
| 21> H 	 -34.1839 	 -11.9762 	 13.8819
| 22> H 	 -34.717 	 -10.5403 	 14.5925
| 23> S 	 -40.0908 	 -8.58027 	 17.5052
| 24> C 	 -41.0929 	 -8.4494 	 16.1115
| 25> C 	 -40.4056 	 -8.43114 	 14.9634
| 26> C 	 -38.9964 	 -8.56343 	 15.1368
| 27> C 	 -38.6051 	 -8.72139 	 16.4472
| 28> H 	 -40.9351 	 -8.41279 	 14.0303
| 29> C 	 -38.0542 	 -8.73752 	 13.9224
| 30> H 	 -38.6549 	 -9.11702 	 13.1743
| 31> H 	 -37.3528 	 -9.57459 	 14.0561
| 32> C 	 -37.3631 	 -7.46649 	 13.4557
| 33> H 	 -36.6424 	 -7.11258 	 14.2588
| 34> H 	 -38.1091 	 -6.64892 	 13.3155
| 35> C 	 -36.6367 	 -7.66735 	 12.1279
| 36> H 	 -37.2125 	 -8.0794 	 11.39
| 37> H 	 -35.8254 	 -8.29638 	 12.3855
| 38> H 	 -36.1073 	 -6.76631 	 11.8571
| 39> H 	 -34.364 	 -9.1705 	 19.1774
| 40> H 	 -42.1947 	 -8.38843 	 16.1181
| 41> *
| 42>
| 43>                          ****END OF INPUT****

CARTESIAN COORDINATES (ANGSTROEM)
---------------------------------
  S    -36.724800   -8.319660   18.552400
  C    -35.236500   -9.232400   18.509900
  C    -35.369800  -10.210700   17.500800
  C    -36.556800  -10.160100   16.686800
  C    -37.384600   -9.130450   17.076400
  H    -36.799500  -10.827200   15.846300
  C    -34.248100  -11.269300   17.305800
  H    -34.226600  -11.967400   18.176700
  H    -33.362200  -10.614300   17.300600
  C    -34.332600  -12.139200   16.077400
  H    -33.635100  -12.926000   16.140900
  H    -35.250500  -12.652900   16.171200
  C    -34.055500  -11.391300   14.727700
  H    -33.001300  -11.134400   14.657900
  H    -34.183900  -11.976200   13.881900
  H    -34.717000  -10.540300   14.592500
  S    -40.090800   -8.580270   17.505200
  C    -41.092900   -8.449400   16.111500
  C    -40.405600   -8.431140   14.963400
  C    -38.996400   -8.563430   15.136800
  C    -38.605100   -8.721390   16.447200
  H    -40.935100   -8.412790   14.030300
  C    -38.054200   -8.737520   13.922400
  H    -38.654900   -9.117020   13.174300
  H    -37.352800   -9.574590   14.056100
  C    -37.363100   -7.466490   13.455700
  H    -36.642400   -7.112580   14.258800
  H    -38.109100   -6.648920   13.315500
  C    -36.636700   -7.667350   12.127900
  H    -37.212500   -8.079400   11.390000
  H    -35.825400   -8.296380   12.385500
  H    -36.107300   -6.766310   11.857100
  H    -34.364000   -9.170500   19.177400
  H    -42.194700   -8.388430   16.118100

 Total Charge           Charge          ....    0
 Multiplicity           Mult            ....    1
 Number of Electrons    NEL             ....  134
 Basis Dimension        Dim             ....  322

ORBITAL ENERGIES
----------------

  NO   OCC          E(Eh)            E(eV)
   0   2.0000     -88.966470     -2420.9007
   1   2.0000     -88.961288     -2420.7597
   2   2.0000     -10.333939      -281.2008
   3   2.0000     -10.328899      -281.0636
   4   2.0000     -10.318357      -280.7768
   5   2.0000     -10.314342      -280.6675
   6   2.0000     -10.305523      -280.4275
   7   2.0000     -10.305207      -280.4189
   8   2.0000     -10.299579      -280.2658
   9   2.0000     -10.293383      -280.0972
  10   2.0000     -10.288179      -279.9556
  11   2.0000     -10.287579      -279.9393
  12   2.0000     -10.287122      -279.9268
  13   2.0000     -10.281733      -279.7802
  14   2.0000     -10.275440      -279.6089
  15   2.0000     -10.265267      -279.3321
  16   2.0000      -8.080134      -219.8716
  17   2.0000      -8.075916      -219.7569
  18   2.0000      -6.038798      -164.3241
  19   2.0000      -6.034749      -164.2139
  20   2.0000      -6.034508      -164.2073
  21   2.0000      -6.030806      -164.1066
  22   2.0000      -6.030536      -164.0992
  23   2.0000      -6.026484      -163.9890
  24   2.0000      -1.002735       -27.2858
  25   2.0000      -0.980270       -26.6745
  26   2.0000      -0.910504       -24.7761
  27   2.0000      -0.910060       -24.7640
  28   2.0000      -0.874050       -23.7841
  29   2.0000      -0.851856       -23.1802
  30   2.0000      -0.839457       -22.8428
  31   2.0000      -0.817789       -22.2532
  32   2.0000      -0.787730       -21.4352
  33   2.0000      -0.774524       -21.0759
  34   2.0000      -0.716390       -19.4940
  35   2.0000      -0.697722       -18.9860
  36   2.0000      -0.691827       -18.8256
  37   2.0000      -0.658727       -17.9249
  38   2.0000      -0.635244       -17.2859
  39   2.0000      -0.622690       -16.9443
  40   2.0000      -0.596810       -16.2400
  41   2.0000      -0.569443       -15.4953
  42   2.0000      -0.561512       -15.2795
  43   2.0000      -0.556355       -15.1392
  44   2.0000      -0.539316       -14.6755
  45   2.0000      -0.529509       -14.4087
  46   2.0000      -0.518597       -14.1118
  47   2.0000      -0.512021       -13.9328
  48   2.0000      -0.508570       -13.8389
  49   2.0000      -0.496841       -13.5197
  50   2.0000      -0.494239       -13.4489
  51   2.0000      -0.488346       -13.2886
  52   2.0000      -0.474881       -12.9222
  53   2.0000      -0.462323       -12.5804
  54   2.0000      -0.459558       -12.5052
  55   2.0000      -0.448939       -12.2162
  56   2.0000      -0.445192       -12.1143
  57   2.0000      -0.438438       -11.9305
  58   2.0000      -0.435592       -11.8531
  59   2.0000      -0.426308       -11.6004
  60   2.0000      -0.415025       -11.2934
  61   2.0000      -0.411902       -11.2084
  62   2.0000      -0.406652       -11.0656
  63   2.0000      -0.352734        -9.5984
  64   2.0000      -0.332552        -9.0492
  65   2.0000      -0.328042        -8.9265
  66   2.0000      -0.287218        -7.8156
  67   0.0000       0.025650         0.6980
  68   0.0000       0.064374         1.7517
  69   0.0000       0.111070         3.0224
  70   0.0000       0.118732         3.2309
  71   0.0000       0.131459         3.5772

MULLIKEN ATOMIC CHARGES
-----------------------
   0 S :    0.107628
   1 C :   -0.122743
   2 C :   -0.124987
   3 C :    0.013968
   4 C :   -0.126110
   5 H :    0.039174
   6 C :    0.036540
   7 H :    0.049166
   8 H :    0.030822
   9 C :   -0.044352
  10 H :    0.013193
  11 H :    0.016802
  12 C :   -0.032427
  13 H :    0.031064
  14 H :    0.013937
  15 H :    0.034521
  16 S :    0.086557
  17 C :   -0.080887
  18 C :   -0.033464
  19 C :   -0.034240
  20 C :   -0.152577
  21 H :    0.011626
  22 C :    0.103479
  23 H :   -0.015060
  24 H :    0.007119
  25 C :   -0.110381
  26 H :    0.046625
  27 H :    0.030361
  28 C :    0.023661
  29 H :    0.018844
  30 H :    0.009190
  31 H :    0.028157
  32 H :    0.061773
  33 H :    0.063025
Sum of atomic charges:    0.0000000

LOEWDIN ATOMIC CHARGES
----------------------
   0 S :    0.387153
   1 C :   -0.209912
   2 C :   -0.061990
   3 C :   -0.067369
   4 C :   -0.174184
   5 H :    0.039021
   6 C :   -0.035871
   7 H :    0.037930
   8 H :    0.031337
   9 C :   -0.041335
  10 H :    0.022266
  11 H :    0.018986
  12 C :   -0.059787
  13 H :    0.030223
  14 H :    0.016743
  15 H :    0.022680
  16 S :    0.375532
  17 C :   -0.184517
  18 C :   -0.079954
  19 C :   -0.045527
  20 C :   -0.173987
  21 H :    0.031281
  22 C :   -0.027533
  23 H :    0.016669
  24 H :    0.027509
  25 C :   -0.039710
  26 H :    0.033807
  27 H :    0.023829
  28 C :   -0.054734
  29 H :    0.012135
  30 H :    0.022688
  31 H :    0.029692
  32 H :    0.038989
  33 H :    0.037940

  Mayer bond orders larger than 0.100000
B(  0-S ,  1-C ) :   1.1283 B(  0-S ,  4-C ) :   1.1397 B(  1-C ,  2-C ) :   1.6086
B(  1-C ,  4-C ) :   0.1050 B(  1-C , 32-H ) :   0.9713 B(  2-C ,  3-C ) :   1.2477
B(  2-C ,  6-C ) :   0.9881 B(  3-C ,  4-C ) :   1.5618 B(  3-C ,  5-H ) :   0.9807
B(  4-C , 20-C ) :   1.0660 B(  6-C ,  7-H ) :   0.9414 B(  6-C ,  8-H ) :   0.9454
B(  6-C ,  9-C ) :   1.0984 B(  9-C , 10-H ) :   0.9487 B(  9-C , 11-H ) :   0.9445
B(  9-C , 12-C ) :   1.0720 B( 12-C , 13-H ) :   0.9712 B( 12-C , 14-H ) :   0.9733
B( 12-C , 15-H ) :   0.9791 B( 16-S , 17-C ) :   1.1502 B( 16-S , 20-C ) :   1.1029
B( 17-C , 18-C ) :   1.6471 B( 17-C , 33-H ) :   0.9572 B( 18-C , 19-C ) :   1.2189
B( 18-C , 21-H ) :   0.9928 B( 19-C , 20-C ) :   1.6317 B( 19-C , 22-C ) :   1.0250
B( 22-C , 23-H ) :   0.9243 B( 22-C , 24-H ) :   0.9359 B( 22-C , 25-C ) :   1.0637
B( 25-C , 26-H ) :   0.9557 B( 25-C , 27-H ) :   0.9555 B( 25-C , 28-C ) :   1.0831
B( 28-C , 29-H ) :   0.9758 B( 28-C , 30-H ) :   0.9699 B( 28-C , 31-H ) :   0.9691

Dispersion correction           -0.014683615
FINAL SINGLE POINT ENERGY     -1339.868899938039

DIPOLE MOMENT
-------------
                                X             Y             Z
Electronic contribution:    -17.81629       8.05852      23.68926
Nuclear contribution   :     18.10689      -8.53001     -24.35850
                        -----------------------------------------
Total Dipole Moment    :      0.29060      -0.47149      -0.66924
                        -----------------------------------------
Magnitude (a.u.)       :      0.86869
Magnitude (Debye)      :      2.20804

Rotational constants in cm-1:     0.015971     0.010298     0.007346
Rotational constants in MHz :   478.794621   308.718271   220.224334

                             ****ORCA TERMINATED NORMALLY****
TOTAL RUN TIME: 0 days 0 hours 0 minutes 21 seconds 96 msec
