                         Program Version 4.2.1 -  RELEASE  -
|  1> ! wB97X-D3 SP def2-SVP
|  2> %pal
|  3> nprocs 24
|  4> end
|  5>
|  6> * xyz 0 1
|  7> S 	 -118.817 	 33.4951 	 -115.725
|  8> C 	 -117.962 	 33.1285 	 -117.187
|  9> C 	 -117.739 	 34.2635 	 -117.961
| 10> C 	 -118.279 	 35.4007 	 -117.277
| 11> C 	 -118.674 	 35.1957 	 -115.968
| 12> H 	 -118.174 	 36.429 	 -117.666
| 13> C 	 -117.191 	 34.3989 	 -119.331
| 14> H 	 -117.69 	 35.1539 	 -119.907
| 15> H 	 -117.359 	 33.5324 	 -119.986
| 16> C 	 -115.703 	 34.8098 	 -119.246
| 17> H 	 -115.597 	 35.6964 	 -118.628
| 18> H 	 -115.069 	 34.0458 	 -118.798
| 19> C 	 -115.192 	 35.1426 	 -120.635
| 20> H 	 -115.481 	 34.4383 	 -121.474
| 21> H 	 -115.278 	 36.1531 	 -120.97
| 22> H 	 -114.038 	 35.1472 	 -120.605
| 23> S 	 -119.173 	 35.5944 	 -113.275
| 24> C 	 -119.786 	 37.1259 	 -112.685
| 25> C 	 -119.926 	 38.0027 	 -113.719
| 26> C 	 -119.537 	 37.4508 	 -115.026
| 27> C 	 -119.092 	 36.1513 	 -114.917
| 28> H 	 -120.405 	 38.9089 	 -113.578
| 29> C 	 -119.757 	 38.1756 	 -116.279
| 30> H 	 -118.853 	 38.3027 	 -116.866
| 31> H 	 -119.999 	 39.2602 	 -116.065
| 32> C 	 -120.874 	 37.6507 	 -117.216
| 33> H 	 -121.821 	 37.5447 	 -116.696
| 34> H 	 -120.561 	 36.5905 	 -117.44
| 35> C 	 -121.106 	 38.5856 	 -118.406
| 36> H 	 -121.827 	 38.152 	 -119.09
| 37> H 	 -120.239 	 38.7036 	 -119.049
| 38> H 	 -121.438 	 39.6136 	 -118.036
| 39> H 	 -117.599 	 32.1549 	 -117.582
| 40> H 	 -120.2 	 37.2725 	 -111.64
| 41> *
| 42>
| 43>                          ****END OF INPUT****

CARTESIAN COORDINATES (ANGSTROEM)
---------------------------------
  S    -118.817000   33.495100  -115.725000
  C    -117.962000   33.128500  -117.187000
  C    -117.739000   34.263500  -117.961000
  C    -118.279000   35.400700  -117.277000
  C    -118.674000   35.195700  -115.968000
  H    -118.174000   36.429000  -117.666000
  C    -117.191000   34.398900  -119.331000
  H    -117.690000   35.153900  -119.907000
  H    -117.359000   33.532400  -119.986000
  C    -115.703000   34.809800  -119.246000
  H    -115.597000   35.696400  -118.628000
  H    -115.069000   34.045800  -118.798000
  C    -115.192000   35.142600  -120.635000
  H    -115.481000   34.438300  -121.474000
  H    -115.278000   36.153100  -120.970000
  H    -114.038000   35.147200  -120.605000
  S    -119.173000   35.594400  -113.275000
  C    -119.786000   37.125900  -112.685000
  C    -119.926000   38.002700  -113.719000
  C    -119.537000   37.450800  -115.026000
  C    -119.092000   36.151300  -114.917000
  H    -120.405000   38.908900  -113.578000
  C    -119.757000   38.175600  -116.279000
  H    -118.853000   38.302700  -116.866000
  H    -119.999000   39.260200  -116.065000
  C    -120.874000   37.650700  -117.216000
  H    -121.821000   37.544700  -116.696000
  H    -120.561000   36.590500  -117.440000
  C    -121.106000   38.585600  -118.406000
  H    -121.827000   38.152000  -119.090000
  H    -120.239000   38.703600  -119.049000
  H    -121.438000   39.613600  -118.036000
  H    -117.599000   32.154900  -117.582000
  H    -120.200000   37.272500  -111.640000

 Total Charge           Charge          ....    0
 Multiplicity           Mult            ....    1
 Number of Electrons    NEL             ....  134
 Basis Dimension        Dim             ....  322

ORBITAL ENERGIES
----------------

  NO   OCC          E(Eh)            E(eV)
   0   2.0000     -88.967922     -2420.9402
   1   2.0000     -88.964728     -2420.8533
   2   2.0000     -10.331616      -281.1376
   3   2.0000     -10.329632      -281.0836
   4   2.0000     -10.322692      -280.8947
   5   2.0000     -10.315610      -280.7020
   6   2.0000     -10.303287      -280.3667
   7   2.0000     -10.300103      -280.2801
   8   2.0000     -10.293669      -280.1050
   9   2.0000     -10.293138      -280.0905
  10   2.0000     -10.292122      -280.0629
  11   2.0000     -10.291722      -280.0520
  12   2.0000     -10.288288      -279.9586
  13   2.0000     -10.286898      -279.9207
  14   2.0000     -10.284418      -279.8532
  15   2.0000     -10.283778      -279.8358
  16   2.0000      -8.083135      -219.9533
  17   2.0000      -8.079844      -219.8637
  18   2.0000      -6.041711      -164.4033
  19   2.0000      -6.038502      -164.3160
  20   2.0000      -6.037595      -164.2913
  21   2.0000      -6.034267      -164.2007
  22   2.0000      -6.033771      -164.1872
  23   2.0000      -6.030451      -164.0969
  24   2.0000      -1.011874       -27.5345
  25   2.0000      -0.988667       -26.9030
  26   2.0000      -0.917917       -24.9778
  27   2.0000      -0.910459       -24.7749
  28   2.0000      -0.870446       -23.6861
  29   2.0000      -0.852345       -23.1935
  30   2.0000      -0.845724       -23.0133
  31   2.0000      -0.817035       -22.2326
  32   2.0000      -0.781499       -21.2657
  33   2.0000      -0.771243       -20.9866
  34   2.0000      -0.706176       -19.2160
  35   2.0000      -0.703107       -19.1325
  36   2.0000      -0.689067       -18.7505
  37   2.0000      -0.669749       -18.2248
  38   2.0000      -0.636765       -17.3273
  39   2.0000      -0.625099       -17.0098
  40   2.0000      -0.600800       -16.3486
  41   2.0000      -0.573780       -15.6133
  42   2.0000      -0.564370       -15.3573
  43   2.0000      -0.555298       -15.1104
  44   2.0000      -0.527888       -14.3646
  45   2.0000      -0.525822       -14.3084
  46   2.0000      -0.519900       -14.1472
  47   2.0000      -0.511273       -13.9125
  48   2.0000      -0.501826       -13.6554
  49   2.0000      -0.498565       -13.5666
  50   2.0000      -0.491586       -13.3767
  51   2.0000      -0.489763       -13.3271
  52   2.0000      -0.467338       -12.7169
  53   2.0000      -0.463218       -12.6048
  54   2.0000      -0.454928       -12.3792
  55   2.0000      -0.451028       -12.2731
  56   2.0000      -0.450238       -12.2516
  57   2.0000      -0.435933       -11.8623
  58   2.0000      -0.434542       -11.8245
  59   2.0000      -0.430403       -11.7119
  60   2.0000      -0.418922       -11.3995
  61   2.0000      -0.414137       -11.2692
  62   2.0000      -0.408980       -11.1289
  63   2.0000      -0.359653        -9.7866
  64   2.0000      -0.331081        -9.0092
  65   2.0000      -0.326322        -8.8797
  66   2.0000      -0.286842        -7.8054
  67   0.0000       0.021333         0.5805
  68   0.0000       0.085760         2.3337
  69   0.0000       0.101649         2.7660
  70   0.0000       0.118920         3.2360
  71   0.0000       0.134368         3.6563

MULLIKEN ATOMIC CHARGES
-----------------------
   0 S :    0.114169
   1 C :   -0.110478
   2 C :   -0.087798
   3 C :   -0.013300
   4 C :   -0.122380
   5 H :    0.011370
   6 C :    0.064241
   7 H :    0.018088
   8 H :    0.024582
   9 C :   -0.059582
  10 H :    0.030914
  11 H :    0.036107
  12 C :   -0.079743
  13 H :    0.044634
  14 H :    0.028147
  15 H :    0.027240
  16 S :    0.092611
  17 C :   -0.108125
  18 C :    0.010626
  19 C :   -0.042202
  20 C :   -0.102467
  21 H :   -0.007477
  22 C :    0.002365
  23 H :    0.028462
  24 H :    0.011547
  25 C :   -0.077951
  26 H :    0.027834
  27 H :    0.045538
  28 C :   -0.044003
  29 H :    0.035494
  30 H :    0.021429
  31 H :    0.043659
  32 H :    0.050108
  33 H :    0.086341
Sum of atomic charges:   -0.0000000

LOEWDIN ATOMIC CHARGES
----------------------
   0 S :    0.423043
   1 C :   -0.211150
   2 C :   -0.062478
   3 C :   -0.073634
   4 C :   -0.195096
   5 H :    0.028961
   6 C :   -0.033232
   7 H :    0.030931
   8 H :    0.031357
   9 C :   -0.035414
  10 H :    0.028033
  11 H :    0.026106
  12 C :   -0.082991
  13 H :    0.030516
  14 H :    0.019971
  15 H :    0.034341
  16 S :    0.401733
  17 C :   -0.191858
  18 C :   -0.058674
  19 C :   -0.058782
  20 C :   -0.195761
  21 H :    0.019892
  22 C :   -0.045625
  23 H :    0.026914
  24 H :    0.032132
  25 C :   -0.043248
  26 H :    0.024080
  27 H :    0.030564
  28 C :   -0.068462
  29 H :    0.027893
  30 H :    0.020667
  31 H :    0.033905
  32 H :    0.037415
  33 H :    0.047951

  Mayer bond orders larger than 0.100000
B(  0-S ,  1-C ) :   1.1365 B(  0-S ,  4-C ) :   1.1579 B(  1-C ,  2-C ) :   1.6085
B(  1-C , 32-H ) :   0.9610 B(  2-C ,  3-C ) :   1.2660 B(  2-C ,  6-C ) :   1.0356
B(  3-C ,  4-C ) :   1.5543 B(  3-C ,  5-H ) :   0.9779 B(  4-C , 20-C ) :   1.0615
B(  6-C ,  7-H ) :   0.9421 B(  6-C ,  8-H ) :   0.9396 B(  6-C ,  9-C ) :   1.0525
B(  9-C , 10-H ) :   0.9550 B(  9-C , 11-H ) :   0.9601 B(  9-C , 12-C ) :   1.0792
B( 12-C , 13-H ) :   0.9727 B( 12-C , 14-H ) :   0.9746 B( 12-C , 15-H ) :   0.9704
B( 16-S , 17-C ) :   1.1403 B( 16-S , 20-C ) :   1.1343 B( 17-C , 18-C ) :   1.6219
B( 17-C , 33-H ) :   0.9576 B( 18-C , 19-C ) :   1.2321 B( 18-C , 21-H ) :   0.9998
B( 19-C , 20-C ) :   1.5898 B( 19-C , 22-C ) :   1.0681 B( 22-C , 23-H ) :   0.9264
B( 22-C , 24-H ) :   0.9268 B( 22-C , 25-C ) :   1.0525 B( 25-C , 26-H ) :   0.9530
B( 25-C , 27-H ) :   0.9501 B( 25-C , 28-C ) :   1.0801 B( 28-C , 29-H ) :   0.9724
B( 28-C , 30-H ) :   0.9734 B( 28-C , 31-H ) :   0.9720

Dispersion correction           -0.014234902
FINAL SINGLE POINT ENERGY     -1339.879986232412

DIPOLE MOMENT
-------------
                                X             Y             Z
Electronic contribution:     -4.87183     -12.65356      27.84139
Nuclear contribution   :      4.82342      13.07936     -28.38468
                        -----------------------------------------
Total Dipole Moment    :     -0.04841       0.42579      -0.54329
                        -----------------------------------------
Magnitude (a.u.)       :      0.69196
Magnitude (Debye)      :      1.75882

Rotational constants in cm-1:     0.018371     0.008873     0.006841
Rotational constants in MHz :   550.758935   266.014822   205.097776

                             ****ORCA TERMINATED NORMALLY****
TOTAL RUN TIME: 0 days 0 hours 0 minutes 21 seconds 971 msec
