                         Program Version 4.2.1 -  RELEASE  -
|  1> ! wB97X-D3 SP def2-SVP
|  2> %pal
|  3> nprocs 24
|  4> end
|  5>
|  6> * xyz 0 1
|  7> S 	 -48.944 	 19.3989 	 30.3856
|  8> C 	 -50.2475 	 20.022 	 31.4597
|  9> C 	 -49.7732 	 20.8922 	 32.3253
| 10> C 	 -48.3786 	 21.1351 	 32.2585
| 11> C 	 -47.7032 	 20.2686 	 31.373
| 12> H 	 -47.7759 	 21.8802 	 32.7181
| 13> C 	 -50.7349 	 21.8004 	 33.0927
| 14> H 	 -50.4002 	 22.0178 	 34.1135
| 15> H 	 -51.7651 	 21.4333 	 33.056
| 16> C 	 -50.9608 	 23.1804 	 32.4716
| 17> H 	 -50.0927 	 23.7804 	 32.3352
| 18> H 	 -51.4287 	 23.0533 	 31.497
| 19> C 	 -51.9626 	 23.8886 	 33.369
| 20> H 	 -52.0487 	 24.8134 	 32.9002
| 21> H 	 -52.9584 	 23.401 	 33.1796
| 22> H 	 -51.6394 	 23.8741 	 34.4093
| 23> S 	 -46.0603 	 20.4606 	 29.1939
| 24> C 	 -44.3474 	 20.2644 	 29.5088
| 25> C 	 -44.0214 	 20.4264 	 30.8284
| 26> C 	 -45.1487 	 20.4367 	 31.6459
| 27> C 	 -46.3269 	 20.364 	 30.9687
| 28> H 	 -43.0468 	 20.4149 	 31.2241
| 29> C 	 -45.068 	 20.539 	 33.1926
| 30> H 	 -45.9239 	 21.1533 	 33.4914
| 31> H 	 -44.1379 	 21.0931 	 33.5248
| 32> C 	 -45.172 	 19.2269 	 33.9583
| 33> H 	 -44.4253 	 18.5947 	 33.4827
| 34> H 	 -46.1297 	 18.8428 	 33.8593
| 35> C 	 -44.9352 	 19.328 	 35.38
| 36> H 	 -45.0717 	 18.4004 	 35.9304
| 37> H 	 -45.5357 	 20.0216 	 35.8569
| 38> H 	 -43.895 	 19.5991 	 35.5321
| 39> H 	 -51.2724 	 19.6703 	 31.281
| 40> H 	 -43.4729 	 20.0847 	 28.875
| 41> *
| 42>
| 43>                          ****END OF INPUT****

CARTESIAN COORDINATES (ANGSTROEM)
---------------------------------
  S    -48.944000   19.398900   30.385600
  C    -50.247500   20.022000   31.459700
  C    -49.773200   20.892200   32.325300
  C    -48.378600   21.135100   32.258500
  C    -47.703200   20.268600   31.373000
  H    -47.775900   21.880200   32.718100
  C    -50.734900   21.800400   33.092700
  H    -50.400200   22.017800   34.113500
  H    -51.765100   21.433300   33.056000
  C    -50.960800   23.180400   32.471600
  H    -50.092700   23.780400   32.335200
  H    -51.428700   23.053300   31.497000
  C    -51.962600   23.888600   33.369000
  H    -52.048700   24.813400   32.900200
  H    -52.958400   23.401000   33.179600
  H    -51.639400   23.874100   34.409300
  S    -46.060300   20.460600   29.193900
  C    -44.347400   20.264400   29.508800
  C    -44.021400   20.426400   30.828400
  C    -45.148700   20.436700   31.645900
  C    -46.326900   20.364000   30.968700
  H    -43.046800   20.414900   31.224100
  C    -45.068000   20.539000   33.192600
  H    -45.923900   21.153300   33.491400
  H    -44.137900   21.093100   33.524800
  C    -45.172000   19.226900   33.958300
  H    -44.425300   18.594700   33.482700
  H    -46.129700   18.842800   33.859300
  C    -44.935200   19.328000   35.380000
  H    -45.071700   18.400400   35.930400
  H    -45.535700   20.021600   35.856900
  H    -43.895000   19.599100   35.532100
  H    -51.272400   19.670300   31.281000
  H    -43.472900   20.084700   28.875000

 Total Charge           Charge          ....    0
 Multiplicity           Mult            ....    1
 Number of Electrons    NEL             ....  134
 Basis Dimension        Dim             ....  322

ORBITAL ENERGIES
----------------

  NO   OCC          E(Eh)            E(eV)
   0   2.0000     -88.968576     -2420.9580
   1   2.0000     -88.962253     -2420.7860
   2   2.0000     -10.335519      -281.2438
   3   2.0000     -10.324058      -280.9319
   4   2.0000     -10.316198      -280.7180
   5   2.0000     -10.314926      -280.6834
   6   2.0000     -10.298220      -280.2288
   7   2.0000     -10.297653      -280.2134
   8   2.0000     -10.297264      -280.2028
   9   2.0000     -10.294918      -280.1390
  10   2.0000     -10.291997      -280.0595
  11   2.0000     -10.285198      -279.8745
  12   2.0000     -10.279467      -279.7185
  13   2.0000     -10.276100      -279.6269
  14   2.0000     -10.268998      -279.4337
  15   2.0000     -10.263008      -279.2706
  16   2.0000      -8.082410      -219.9336
  17   2.0000      -8.075785      -219.7533
  18   2.0000      -6.041063      -164.3857
  19   2.0000      -6.037276      -164.2826
  20   2.0000      -6.034502      -164.2071
  21   2.0000      -6.032814      -164.1612
  22   2.0000      -6.030591      -164.1007
  23   2.0000      -6.026263      -163.9830
  24   2.0000      -1.006217       -27.3805
  25   2.0000      -0.984101       -26.7787
  26   2.0000      -0.918566       -24.9954
  27   2.0000      -0.917569       -24.9683
  28   2.0000      -0.877251       -23.8712
  29   2.0000      -0.859252       -23.3814
  30   2.0000      -0.842833       -22.9347
  31   2.0000      -0.816541       -22.2192
  32   2.0000      -0.782547       -21.2942
  33   2.0000      -0.770545       -20.9676
  34   2.0000      -0.711480       -19.3603
  35   2.0000      -0.693464       -18.8701
  36   2.0000      -0.691929       -18.8284
  37   2.0000      -0.668767       -18.1981
  38   2.0000      -0.647049       -17.6071
  39   2.0000      -0.619877       -16.8677
  40   2.0000      -0.593168       -16.1409
  41   2.0000      -0.582665       -15.8551
  42   2.0000      -0.580983       -15.8094
  43   2.0000      -0.564782       -15.3685
  44   2.0000      -0.529278       -14.4024
  45   2.0000      -0.526267       -14.3204
  46   2.0000      -0.520676       -14.1683
  47   2.0000      -0.512500       -13.9458
  48   2.0000      -0.504485       -13.7277
  49   2.0000      -0.502142       -13.6640
  50   2.0000      -0.497083       -13.5263
  51   2.0000      -0.478191       -13.0122
  52   2.0000      -0.473377       -12.8812
  53   2.0000      -0.466921       -12.7056
  54   2.0000      -0.457417       -12.4470
  55   2.0000      -0.451861       -12.2958
  56   2.0000      -0.441079       -12.0024
  57   2.0000      -0.435676       -11.8554
  58   2.0000      -0.430021       -11.7015
  59   2.0000      -0.424974       -11.5641
  60   2.0000      -0.419957       -11.4276
  61   2.0000      -0.418016       -11.3748
  62   2.0000      -0.409636       -11.1468
  63   2.0000      -0.350092        -9.5265
  64   2.0000      -0.336700        -9.1621
  65   2.0000      -0.329547        -8.9674
  66   2.0000      -0.287468        -7.8224
  67   0.0000       0.017608         0.4791
  68   0.0000       0.069803         1.8994
  69   0.0000       0.096252         2.6191
  70   0.0000       0.123235         3.3534
  71   0.0000       0.134625         3.6633

MULLIKEN ATOMIC CHARGES
-----------------------
   0 S :    0.071622
   1 C :   -0.155397
   2 C :    0.027888
   3 C :    0.009514
   4 C :   -0.137621
   5 H :    0.020497
   6 C :    0.035167
   7 H :    0.022048
   8 H :    0.015848
   9 C :   -0.091778
  10 H :    0.023784
  11 H :    0.021769
  12 C :   -0.020411
  13 H :    0.019395
  14 H :    0.033125
  15 H :    0.041875
  16 S :    0.112541
  17 C :   -0.068778
  18 C :   -0.035013
  19 C :   -0.017108
  20 C :   -0.170134
  21 H :   -0.003604
  22 C :    0.029181
  23 H :    0.003877
  24 H :    0.026517
  25 C :   -0.019993
  26 H :    0.020159
  27 H :    0.016884
  28 C :    0.005855
  29 H :    0.029247
  30 H :    0.005809
  31 H :    0.010811
  32 H :    0.062184
  33 H :    0.054241
Sum of atomic charges:    0.0000000

LOEWDIN ATOMIC CHARGES
----------------------
   0 S :    0.348874
   1 C :   -0.169036
   2 C :   -0.072932
   3 C :   -0.052592
   4 C :   -0.169196
   5 H :    0.026639
   6 C :   -0.027705
   7 H :    0.025357
   8 H :    0.030718
   9 C :   -0.035486
  10 H :    0.013906
  11 H :    0.023182
  12 C :   -0.057551
  13 H :    0.019188
  14 H :    0.031449
  15 H :    0.025835
  16 S :    0.387034
  17 C :   -0.182546
  18 C :   -0.067813
  19 C :   -0.055504
  20 C :   -0.182280
  21 H :    0.024898
  22 C :   -0.027998
  23 H :    0.023496
  24 H :    0.032181
  25 C :   -0.037852
  26 H :    0.024885
  27 H :    0.018794
  28 C :   -0.055764
  29 H :    0.030118
  30 H :    0.014269
  31 H :    0.022578
  32 H :    0.034009
  33 H :    0.036844

  Mayer bond orders larger than 0.100000
B(  0-S ,  1-C ) :   1.1076 B(  0-S ,  4-C ) :   1.1298 B(  1-C ,  2-C ) :   1.6349
B(  1-C , 32-H ) :   0.9694 B(  2-C ,  3-C ) :   1.2051 B(  2-C ,  6-C ) :   1.0281
B(  3-C ,  4-C ) :   1.5724 B(  3-C ,  5-H ) :   0.9906 B(  4-C , 20-C ) :   1.0828
B(  6-C ,  7-H ) :   0.9401 B(  6-C ,  8-H ) :   0.9485 B(  6-C ,  9-C ) :   1.0612
B(  9-C , 10-H ) :   0.9565 B(  9-C , 11-H ) :   0.9527 B(  9-C , 12-C ) :   1.0856
B( 12-C , 13-H ) :   0.9699 B( 12-C , 14-H ) :   0.9733 B( 12-C , 15-H ) :   0.9736
B( 16-S , 17-C ) :   1.1364 B( 16-S , 20-C ) :   1.1106 B( 17-C , 18-C ) :   1.6238
B( 17-C , 33-H ) :   0.9590 B( 18-C , 19-C ) :   1.2517 B( 18-C , 21-H ) :   0.9930
B( 19-C , 20-C ) :   1.6302 B( 19-C , 22-C ) :   1.0285 B( 22-C , 23-H ) :   0.9274
B( 22-C , 24-H ) :   0.9419 B( 22-C , 25-C ) :   1.0725 B( 25-C , 26-H ) :   0.9524
B( 25-C , 27-H ) :   0.9452 B( 25-C , 28-C ) :   1.1106 B( 28-C , 29-H ) :   0.9674
B( 28-C , 30-H ) :   0.9669 B( 28-C , 31-H ) :   0.9675

Dispersion correction           -0.013620177
FINAL SINGLE POINT ENERGY     -1339.850094207336

DIPOLE MOMENT
-------------
                                X             Y             Z
Electronic contribution:      5.39573      -9.66960     -24.57921
Nuclear contribution   :     -5.40823      10.06522      25.06990
                        -----------------------------------------
Total Dipole Moment    :     -0.01251       0.39562       0.49070
                        -----------------------------------------
Magnitude (a.u.)       :      0.63044
Magnitude (Debye)      :      1.60245

Rotational constants in cm-1:     0.017716     0.008378     0.006738
Rotational constants in MHz :   531.100750   251.163156   201.999084

                             ****ORCA TERMINATED NORMALLY****
TOTAL RUN TIME: 0 days 0 hours 0 minutes 21 seconds 587 msec
