                         Program Version 4.2.1 -  RELEASE  -
|  1> ! wB97X-D3 SP def2-SVP
|  2> %pal
|  3> nprocs 24
|  4> end
|  5>
|  6> * xyz 0 1
|  7> S 	 -47.2953 	 13.6652 	 21.8935
|  8> C 	 -47.0038 	 15.4102 	 21.8319
|  9> C 	 -46.2043 	 15.854 	 22.9216
| 10> C 	 -46.0646 	 14.7637 	 23.8551
| 11> C 	 -46.8587 	 13.6794 	 23.5567
| 12> H 	 -45.4094 	 14.7403 	 24.7226
| 13> C 	 -45.5859 	 17.2164 	 23.0465
| 14> H 	 -45.6191 	 17.4517 	 24.109
| 15> H 	 -46.2317 	 17.9003 	 22.5815
| 16> C 	 -44.0846 	 17.428 	 22.5373
| 17> H 	 -43.9697 	 17.3527 	 21.4763
| 18> H 	 -43.7121 	 18.4853 	 22.7539
| 19> C 	 -43.1151 	 16.3936 	 23.2279
| 20> H 	 -42.121 	 16.6571 	 23.0884
| 21> H 	 -43.3837 	 16.301 	 24.2743
| 22> H 	 -43.1441 	 15.5116 	 22.7492
| 23> S 	 -46.3211 	 11.0302 	 23.716
| 24> C 	 -46.4921 	 10.2314 	 25.2749
| 25> C 	 -46.9628 	 11.1077 	 26.2229
| 26> C 	 -47.0972 	 12.4356 	 25.8092
| 27> C 	 -46.926 	 12.5895 	 24.4352
| 28> H 	 -46.9995 	 10.7532 	 27.2492
| 29> C 	 -47.4966 	 13.5231 	 26.8044
| 30> H 	 -46.8636 	 14.4536 	 26.6997
| 31> H 	 -47.218 	 13.1263 	 27.7995
| 32> C 	 -49.0299 	 13.8449 	 26.7638
| 33> H 	 -49.2606 	 14.3123 	 25.8424
| 34> H 	 -49.2477 	 14.549 	 27.5587
| 35> C 	 -49.953 	 12.6517 	 26.9961
| 36> H 	 -49.6612 	 12.1626 	 27.9519
| 37> H 	 -49.9399 	 11.8952 	 26.2216
| 38> H 	 -50.8878 	 13.0579 	 27.1997
| 39> H 	 -47.0329 	 15.9526 	 20.9213
| 40> H 	 -46.1099 	 9.30346 	 25.4964
| 41> *
| 42>
| 43>                          ****END OF INPUT****

CARTESIAN COORDINATES (ANGSTROEM)
---------------------------------
  S    -47.295300   13.665200   21.893500
  C    -47.003800   15.410200   21.831900
  C    -46.204300   15.854000   22.921600
  C    -46.064600   14.763700   23.855100
  C    -46.858700   13.679400   23.556700
  H    -45.409400   14.740300   24.722600
  C    -45.585900   17.216400   23.046500
  H    -45.619100   17.451700   24.109000
  H    -46.231700   17.900300   22.581500
  C    -44.084600   17.428000   22.537300
  H    -43.969700   17.352700   21.476300
  H    -43.712100   18.485300   22.753900
  C    -43.115100   16.393600   23.227900
  H    -42.121000   16.657100   23.088400
  H    -43.383700   16.301000   24.274300
  H    -43.144100   15.511600   22.749200
  S    -46.321100   11.030200   23.716000
  C    -46.492100   10.231400   25.274900
  C    -46.962800   11.107700   26.222900
  C    -47.097200   12.435600   25.809200
  C    -46.926000   12.589500   24.435200
  H    -46.999500   10.753200   27.249200
  C    -47.496600   13.523100   26.804400
  H    -46.863600   14.453600   26.699700
  H    -47.218000   13.126300   27.799500
  C    -49.029900   13.844900   26.763800
  H    -49.260600   14.312300   25.842400
  H    -49.247700   14.549000   27.558700
  C    -49.953000   12.651700   26.996100
  H    -49.661200   12.162600   27.951900
  H    -49.939900   11.895200   26.221600
  H    -50.887800   13.057900   27.199700
  H    -47.032900   15.952600   20.921300
  H    -46.109900    9.303460   25.496400

 Total Charge           Charge          ....    0
 Multiplicity           Mult            ....    1
 Number of Electrons    NEL             ....  134
 Basis Dimension        Dim             ....  322

ORBITAL ENERGIES
----------------

  NO   OCC          E(Eh)            E(eV)
   0   2.0000     -88.967893     -2420.9394
   1   2.0000     -88.961984     -2420.7787
   2   2.0000     -10.326348      -280.9942
   3   2.0000     -10.320688      -280.8402
   4   2.0000     -10.313301      -280.6392
   5   2.0000     -10.312155      -280.6080
   6   2.0000     -10.307087      -280.4701
   7   2.0000     -10.303736      -280.3789
   8   2.0000     -10.298282      -280.2305
   9   2.0000     -10.298074      -280.2248
  10   2.0000     -10.293866      -280.1103
  11   2.0000     -10.292265      -280.0668
  12   2.0000     -10.290136      -280.0088
  13   2.0000     -10.280889      -279.7572
  14   2.0000     -10.268967      -279.4328
  15   2.0000     -10.264911      -279.3224
  16   2.0000      -8.082778      -219.9436
  17   2.0000      -8.076002      -219.7592
  18   2.0000      -6.041236      -164.3904
  19   2.0000      -6.037750      -164.2955
  20   2.0000      -6.034510      -164.2074
  21   2.0000      -6.033096      -164.1689
  22   2.0000      -6.030689      -164.1034
  23   2.0000      -6.026727      -163.9956
  24   2.0000      -1.008507       -27.4429
  25   2.0000      -0.980233       -26.6735
  26   2.0000      -0.907488       -24.6940
  27   2.0000      -0.903355       -24.5815
  28   2.0000      -0.871442       -23.7131
  29   2.0000      -0.851320       -23.1656
  30   2.0000      -0.844187       -22.9715
  31   2.0000      -0.812649       -22.1133
  32   2.0000      -0.785930       -21.3862
  33   2.0000      -0.773556       -21.0495
  34   2.0000      -0.711864       -19.3708
  35   2.0000      -0.709884       -19.3169
  36   2.0000      -0.690832       -18.7985
  37   2.0000      -0.664538       -18.0830
  38   2.0000      -0.638912       -17.3857
  39   2.0000      -0.614264       -16.7150
  40   2.0000      -0.590432       -16.0665
  41   2.0000      -0.568063       -15.4578
  42   2.0000      -0.556708       -15.1488
  43   2.0000      -0.553445       -15.0600
  44   2.0000      -0.543077       -14.7779
  45   2.0000      -0.536707       -14.6045
  46   2.0000      -0.520099       -14.1526
  47   2.0000      -0.511041       -13.9061
  48   2.0000      -0.500933       -13.6311
  49   2.0000      -0.498329       -13.5602
  50   2.0000      -0.488370       -13.2892
  51   2.0000      -0.475771       -12.9464
  52   2.0000      -0.468616       -12.7517
  53   2.0000      -0.462868       -12.5953
  54   2.0000      -0.459325       -12.4989
  55   2.0000      -0.450506       -12.2589
  56   2.0000      -0.442780       -12.0487
  57   2.0000      -0.437996       -11.9185
  58   2.0000      -0.431023       -11.7287
  59   2.0000      -0.429404       -11.6847
  60   2.0000      -0.423772       -11.5314
  61   2.0000      -0.421515       -11.4700
  62   2.0000      -0.413364       -11.2482
  63   2.0000      -0.345284        -9.3957
  64   2.0000      -0.333034        -9.0623
  65   2.0000      -0.325603        -8.8601
  66   2.0000      -0.282715        -7.6931
  67   0.0000       0.018475         0.5027
  68   0.0000       0.058381         1.5886
  69   0.0000       0.098315         2.6753
  70   0.0000       0.118449         3.2232
  71   0.0000       0.125973         3.4279

MULLIKEN ATOMIC CHARGES
-----------------------
   0 S :    0.114635
   1 C :   -0.091319
   2 C :   -0.106129
   3 C :   -0.004871
   4 C :   -0.132677
   5 H :    0.023803
   6 C :    0.088333
   7 H :    0.027686
   8 H :    0.014976
   9 C :   -0.091928
  10 H :    0.026131
  11 H :    0.039293
  12 C :   -0.001725
  13 H :    0.013426
  14 H :    0.031613
  15 H :    0.016104
  16 S :    0.071495
  17 C :   -0.052519
  18 C :   -0.041464
  19 C :   -0.043440
  20 C :   -0.148787
  21 H :    0.018674
  22 C :    0.051435
  23 H :    0.036513
  24 H :    0.014440
  25 C :   -0.051427
  26 H :    0.032047
  27 H :    0.024345
  28 C :   -0.029251
  29 H :    0.013918
  30 H :    0.052071
  31 H :    0.019173
  32 H :    0.037631
  33 H :    0.027793
Sum of atomic charges:   -0.0000000

LOEWDIN ATOMIC CHARGES
----------------------
   0 S :    0.409354
   1 C :   -0.191975
   2 C :   -0.052030
   3 C :   -0.057139
   4 C :   -0.212931
   5 H :    0.029905
   6 C :   -0.030328
   7 H :    0.032518
   8 H :    0.026052
   9 C :   -0.029959
  10 H :    0.017342
  11 H :    0.029739
  12 C :   -0.052269
  13 H :    0.020408
  14 H :    0.024492
  15 H :    0.013447
  16 S :    0.365574
  17 C :   -0.163103
  18 C :   -0.073218
  19 C :   -0.057079
  20 C :   -0.167809
  21 H :    0.032500
  22 C :   -0.032604
  23 H :    0.034039
  24 H :    0.027598
  25 C :   -0.029996
  26 H :    0.020553
  27 H :    0.023697
  28 C :   -0.058333
  29 H :    0.025205
  30 H :    0.026653
  31 H :    0.019302
  32 H :    0.017126
  33 H :    0.013268

  Mayer bond orders larger than 0.100000
B(  0-S ,  1-C ) :   1.1303 B(  0-S ,  4-C ) :   1.1479 B(  1-C ,  2-C ) :   1.5941
B(  1-C , 32-H ) :   0.9686 B(  2-C ,  3-C ) :   1.2397 B(  2-C ,  6-C ) :   1.0279
B(  3-C ,  4-C ) :   1.5394 B(  3-C ,  5-H ) :   0.9941 B(  4-C , 20-C ) :   1.1012
B(  6-C ,  7-H ) :   0.9428 B(  6-C ,  8-H ) :   0.9368 B(  6-C ,  9-C ) :   1.0580
B(  9-C , 10-H ) :   0.9611 B(  9-C , 11-H ) :   0.9624 B(  9-C , 12-C ) :   1.0710
B( 12-C , 13-H ) :   0.9695 B( 12-C , 14-H ) :   0.9787 B( 12-C , 15-H ) :   0.9711
B( 16-S , 17-C ) :   1.1500 B( 16-S , 20-C ) :   1.1202 B( 17-C , 18-C ) :   1.6124
B( 17-C , 20-C ) :   0.1103 B( 17-C , 33-H ) :   0.9756 B( 18-C , 19-C ) :   1.2458
B( 18-C , 21-H ) :   0.9848 B( 19-C , 20-C ) :   1.5884 B( 19-C , 22-C ) :   1.0390
B( 22-C , 23-H ) :   0.9379 B( 22-C , 24-H ) :   0.9323 B( 22-C , 25-C ) :   1.0701
B( 25-C , 26-H ) :   0.9578 B( 25-C , 27-H ) :   0.9570 B( 25-C , 28-C ) :   1.0821
B( 28-C , 29-H ) :   0.9723 B( 28-C , 30-H ) :   0.9732 B( 28-C , 31-H ) :   0.9714

Dispersion correction           -0.015056838
FINAL SINGLE POINT ENERGY     -1339.849423431064

DIPOLE MOMENT
-------------
                                X             Y             Z
Electronic contribution:     -2.63586     -16.29333     -13.41771
Nuclear contribution   :      3.02283      16.71997      13.87294
                        -----------------------------------------
Total Dipole Moment    :      0.38696       0.42664       0.45524
                        -----------------------------------------
Magnitude (a.u.)       :      0.73417
Magnitude (Debye)      :      1.86610

Rotational constants in cm-1:     0.019984     0.008494     0.007677
Rotational constants in MHz :   599.090946   254.656366   230.143416

                             ****ORCA TERMINATED NORMALLY****
TOTAL RUN TIME: 0 days 0 hours 0 minutes 24 seconds 294 msec
