                         Program Version 4.2.1 -  RELEASE  -
|  1> ! wB97X-D3 SP def2-SVP
|  2> %pal
|  3> nprocs 24
|  4> end
|  5>
|  6> * xyz 0 1
|  7> S 	 -53.2292 	 -47.2052 	 -79.7831
|  8> C 	 -52.6484 	 -46.3125 	 -78.3534
|  9> C 	 -51.6444 	 -46.9781 	 -77.6783
| 10> C 	 -51.3604 	 -48.2017 	 -78.3879
| 11> C 	 -52.2522 	 -48.5674 	 -79.4169
| 12> H 	 -50.6036 	 -48.8729 	 -78.0991
| 13> C 	 -50.8974 	 -46.4325 	 -76.5524
| 14> H 	 -50.3186 	 -47.1428 	 -76.0403
| 15> H 	 -51.622 	 -46.1009 	 -75.7249
| 16> C 	 -49.7962 	 -45.3342 	 -76.7879
| 17> H 	 -49.5554 	 -44.8767 	 -75.8535
| 18> H 	 -48.9282 	 -45.7883 	 -77.3105
| 19> C 	 -50.1533 	 -44.3148 	 -77.9
| 20> H 	 -50.1334 	 -44.8544 	 -78.8055
| 21> H 	 -51.0719 	 -43.7431 	 -77.7085
| 22> H 	 -49.3267 	 -43.5749 	 -77.9711
| 23> S 	 -53.6176 	 -50.9614 	 -79.46
| 24> C 	 -52.9735 	 -52.2583 	 -80.4792
| 25> C 	 -51.8233 	 -51.8763 	 -81.1641
| 26> C 	 -51.5149 	 -50.4959 	 -80.9583
| 27> C 	 -52.3721 	 -49.8866 	 -80.0707
| 28> H 	 -51.3594 	 -52.5798 	 -81.8479
| 29> C 	 -50.4028 	 -49.8017 	 -81.7446
| 30> H 	 -49.8161 	 -50.5858 	 -82.2677
| 31> H 	 -49.6302 	 -49.484 	 -80.9686
| 32> C 	 -50.7087 	 -48.6525 	 -82.6816
| 33> H 	 -51.1639 	 -47.8843 	 -82.0667
| 34> H 	 -51.4302 	 -48.9176 	 -83.4817
| 35> C 	 -49.4503 	 -48.0128 	 -83.3539
| 36> H 	 -49.611 	 -47.1445 	 -83.9715
| 37> H 	 -49.0426 	 -48.897 	 -83.8558
| 38> H 	 -48.8712 	 -47.6559 	 -82.5187
| 39> H 	 -53.0052 	 -45.3285 	 -78.1965
| 40> H 	 -53.5489 	 -53.1228 	 -80.8254
| 41> *
| 42>
| 43>                          ****END OF INPUT****

CARTESIAN COORDINATES (ANGSTROEM)
---------------------------------
  S    -53.229200  -47.205200  -79.783100
  C    -52.648400  -46.312500  -78.353400
  C    -51.644400  -46.978100  -77.678300
  C    -51.360400  -48.201700  -78.387900
  C    -52.252200  -48.567400  -79.416900
  H    -50.603600  -48.872900  -78.099100
  C    -50.897400  -46.432500  -76.552400
  H    -50.318600  -47.142800  -76.040300
  H    -51.622000  -46.100900  -75.724900
  C    -49.796200  -45.334200  -76.787900
  H    -49.555400  -44.876700  -75.853500
  H    -48.928200  -45.788300  -77.310500
  C    -50.153300  -44.314800  -77.900000
  H    -50.133400  -44.854400  -78.805500
  H    -51.071900  -43.743100  -77.708500
  H    -49.326700  -43.574900  -77.971100
  S    -53.617600  -50.961400  -79.460000
  C    -52.973500  -52.258300  -80.479200
  C    -51.823300  -51.876300  -81.164100
  C    -51.514900  -50.495900  -80.958300
  C    -52.372100  -49.886600  -80.070700
  H    -51.359400  -52.579800  -81.847900
  C    -50.402800  -49.801700  -81.744600
  H    -49.816100  -50.585800  -82.267700
  H    -49.630200  -49.484000  -80.968600
  C    -50.708700  -48.652500  -82.681600
  H    -51.163900  -47.884300  -82.066700
  H    -51.430200  -48.917600  -83.481700
  C    -49.450300  -48.012800  -83.353900
  H    -49.611000  -47.144500  -83.971500
  H    -49.042600  -48.897000  -83.855800
  H    -48.871200  -47.655900  -82.518700
  H    -53.005200  -45.328500  -78.196500
  H    -53.548900  -53.122800  -80.825400

 Total Charge           Charge          ....    0
 Multiplicity           Mult            ....    1
 Number of Electrons    NEL             ....  134
 Basis Dimension        Dim             ....  322

ORBITAL ENERGIES
----------------

  NO   OCC          E(Eh)            E(eV)
   0   2.0000     -88.967523     -2420.9294
   1   2.0000     -88.965627     -2420.8778
   2   2.0000     -10.329124      -281.0697
   3   2.0000     -10.326436      -280.9966
   4   2.0000     -10.319580      -280.8100
   5   2.0000     -10.314422      -280.6697
   6   2.0000     -10.305862      -280.4368
   7   2.0000     -10.302964      -280.3579
   8   2.0000     -10.297530      -280.2100
   9   2.0000     -10.297065      -280.1974
  10   2.0000     -10.294147      -280.1180
  11   2.0000     -10.292829      -280.0821
  12   2.0000     -10.291422      -280.0438
  13   2.0000     -10.283472      -279.8275
  14   2.0000     -10.276577      -279.6399
  15   2.0000     -10.275304      -279.6052
  16   2.0000      -8.081800      -219.9170
  17   2.0000      -8.080238      -219.8744
  18   2.0000      -6.040349      -164.3663
  19   2.0000      -6.038655      -164.3202
  20   2.0000      -6.036385      -164.2584
  21   2.0000      -6.034641      -164.2109
  22   2.0000      -6.032531      -164.1535
  23   2.0000      -6.031216      -164.1177
  24   2.0000      -1.004117       -27.3234
  25   2.0000      -0.982718       -26.7411
  26   2.0000      -0.913592       -24.8601
  27   2.0000      -0.905007       -24.6265
  28   2.0000      -0.865037       -23.5389
  29   2.0000      -0.850085       -23.1320
  30   2.0000      -0.846278       -23.0284
  31   2.0000      -0.810462       -22.0538
  32   2.0000      -0.787983       -21.4421
  33   2.0000      -0.772647       -21.0248
  34   2.0000      -0.706524       -19.2255
  35   2.0000      -0.695903       -18.9365
  36   2.0000      -0.686125       -18.6704
  37   2.0000      -0.661100       -17.9894
  38   2.0000      -0.645774       -17.5724
  39   2.0000      -0.614702       -16.7269
  40   2.0000      -0.592085       -16.1115
  41   2.0000      -0.574640       -15.6368
  42   2.0000      -0.567473       -15.4417
  43   2.0000      -0.561429       -15.2773
  44   2.0000      -0.535702       -14.5772
  45   2.0000      -0.522701       -14.2234
  46   2.0000      -0.522008       -14.2046
  47   2.0000      -0.511056       -13.9065
  48   2.0000      -0.505194       -13.7470
  49   2.0000      -0.496976       -13.5234
  50   2.0000      -0.489400       -13.3172
  51   2.0000      -0.481028       -13.0894
  52   2.0000      -0.469653       -12.7799
  53   2.0000      -0.462868       -12.5953
  54   2.0000      -0.457417       -12.4469
  55   2.0000      -0.447175       -12.1682
  56   2.0000      -0.441900       -12.0247
  57   2.0000      -0.437637       -11.9087
  58   2.0000      -0.433136       -11.7862
  59   2.0000      -0.426137       -11.5958
  60   2.0000      -0.415171       -11.2974
  61   2.0000      -0.409618       -11.1463
  62   2.0000      -0.407686       -11.0937
  63   2.0000      -0.337593        -9.1864
  64   2.0000      -0.328097        -8.9280
  65   2.0000      -0.319958        -8.7065
  66   2.0000      -0.307986        -8.3807
  67   0.0000       0.035184         0.9574
  68   0.0000       0.054650         1.4871
  69   0.0000       0.112225         3.0538
  70   0.0000       0.115658         3.1472
  71   0.0000       0.126055         3.4301

MULLIKEN ATOMIC CHARGES
-----------------------
   0 S :    0.112957
   1 C :   -0.117882
   2 C :   -0.074729
   3 C :    0.070350
   4 C :   -0.196241
   5 H :   -0.009402
   6 C :    0.063105
   7 H :    0.007201
   8 H :    0.047082
   9 C :   -0.074535
  10 H :    0.033512
  11 H :    0.030713
  12 C :   -0.064956
  13 H :    0.040794
  14 H :    0.033054
  15 H :    0.030874
  16 S :    0.120696
  17 C :   -0.105806
  18 C :   -0.046368
  19 C :   -0.008169
  20 C :   -0.168818
  21 H :    0.025357
  22 C :    0.053561
  23 H :    0.006621
  24 H :    0.031038
  25 C :   -0.069632
  26 H :    0.022940
  27 H :    0.036336
  28 C :   -0.043043
  29 H :    0.042138
  30 H :    0.037032
  31 H :    0.025392
  32 H :    0.038884
  33 H :    0.069942
Sum of atomic charges:   -0.0000000

LOEWDIN ATOMIC CHARGES
----------------------
   0 S :    0.412859
   1 C :   -0.167372
   2 C :   -0.067783
   3 C :   -0.049989
   4 C :   -0.215827
   5 H :    0.019651
   6 C :   -0.043469
   7 H :    0.025408
   8 H :    0.045531
   9 C :   -0.030376
  10 H :    0.020449
  11 H :    0.030271
  12 C :   -0.067318
  13 H :    0.020839
  14 H :    0.019324
  15 H :    0.028308
  16 S :    0.404841
  17 C :   -0.185329
  18 C :   -0.067245
  19 C :   -0.054342
  20 C :   -0.203147
  21 H :    0.033883
  22 C :   -0.040586
  23 H :    0.025778
  24 H :    0.039513
  25 C :   -0.043528
  26 H :    0.016456
  27 H :    0.025396
  28 C :   -0.060326
  29 H :    0.026717
  30 H :    0.027335
  31 H :    0.023288
  32 H :    0.016191
  33 H :    0.034600

  Mayer bond orders larger than 0.100000
B(  0-S ,  1-C ) :   1.1537 B(  0-S ,  4-C ) :   1.1633 B(  1-C ,  2-C ) :   1.5660
B(  1-C , 32-H ) :   0.9774 B(  2-C ,  3-C ) :   1.2534 B(  2-C ,  6-C ) :   1.0532
B(  3-C ,  4-C ) :   1.5634 B(  3-C ,  5-H ) :   0.9993 B(  4-C , 20-C ) :   1.0017
B(  6-C ,  7-H ) :   0.9319 B(  6-C ,  8-H ) :   0.9355 B(  6-C ,  9-C ) :   1.0580
B(  9-C , 10-H ) :   0.9582 B(  9-C , 11-H ) :   0.9598 B(  9-C , 12-C ) :   1.0862
B( 12-C , 13-H ) :   0.9706 B( 12-C , 14-H ) :   0.9750 B( 12-C , 15-H ) :   0.9734
B( 16-S , 17-C ) :   1.1550 B( 16-S , 20-C ) :   1.1445 B( 17-C , 18-C ) :   1.6209
B( 17-C , 33-H ) :   0.9587 B( 18-C , 19-C ) :   1.2469 B( 18-C , 21-H ) :   0.9861
B( 19-C , 20-C ) :   1.6108 B( 19-C , 22-C ) :   1.0375 B( 22-C , 23-H ) :   0.9319
B( 22-C , 24-H ) :   0.9211 B( 22-C , 25-C ) :   1.0647 B( 25-C , 26-H ) :   0.9504
B( 25-C , 27-H ) :   0.9574 B( 25-C , 28-C ) :   1.0702 B( 28-C , 29-H ) :   0.9753
B( 28-C , 30-H ) :   0.9803 B( 28-C , 31-H ) :   0.9771

Dispersion correction           -0.014801240
FINAL SINGLE POINT ENERGY     -1339.865012375182

DIPOLE MOMENT
-------------
                                X             Y             Z
Electronic contribution:    -21.08004     -15.20008       3.09785
Nuclear contribution   :     21.61063      15.34904      -3.09754
                        -----------------------------------------
Total Dipole Moment    :      0.53059       0.14896       0.00031
                        -----------------------------------------
Magnitude (a.u.)       :      0.55110
Magnitude (Debye)      :      1.40079

Rotational constants in cm-1:     0.018992     0.008798     0.007079
Rotational constants in MHz :   569.358489   263.747055   212.213752

                             ****ORCA TERMINATED NORMALLY****
TOTAL RUN TIME: 0 days 0 hours 0 minutes 21 seconds 647 msec
