                         Program Version 4.2.1 -  RELEASE  -
|  1> ! wB97X-D3 SP def2-SVP
|  2> %pal
|  3> nprocs 24
|  4> end
|  5>
|  6> * xyz 0 1
|  7> S 	 -118.24 	 64.6047 	 -67.5177
|  8> C 	 -118.678 	 62.9472 	 -67.6774
|  9> C 	 -117.94 	 62.1814 	 -66.8914
| 10> C 	 -116.77 	 62.9154 	 -66.431
| 11> C 	 -116.753 	 64.2942 	 -66.643
| 12> H 	 -116.063 	 62.415 	 -65.7937
| 13> C 	 -118.238 	 60.7335 	 -66.5574
| 14> H 	 -117.439 	 60.3021 	 -66.0401
| 15> H 	 -118.137 	 60.0899 	 -67.5013
| 16> C 	 -119.521 	 60.4608 	 -65.7019
| 17> H 	 -119.762 	 61.2402 	 -64.9638
| 18> H 	 -120.36 	 60.6176 	 -66.4058
| 19> C 	 -119.615 	 59.0006 	 -65.0586
| 20> H 	 -120.359 	 58.9801 	 -64.2215
| 21> H 	 -119.958 	 58.3435 	 -65.8488
| 22> H 	 -118.714 	 58.5476 	 -64.6169
| 23> S 	 -114.889 	 66.237 	 -67.1102
| 24> C 	 -114.363 	 67.1995 	 -65.7943
| 25> C 	 -114.91 	 66.8279 	 -64.5976
| 26> C 	 -115.849 	 65.7365 	 -64.7392
| 27> C 	 -115.888 	 65.3097 	 -66.0991
| 28> H 	 -114.755 	 67.3975 	 -63.6261
| 29> C 	 -116.777 	 65.2199 	 -63.6727
| 30> H 	 -117.681 	 64.9051 	 -64.1619
| 31> H 	 -116.86 	 65.9908 	 -62.9201
| 32> C 	 -116.259 	 63.9516 	 -62.9638
| 33> H 	 -116.291 	 63.0621 	 -63.6272
| 34> H 	 -117.057 	 63.8393 	 -62.1958
| 35> C 	 -114.907 	 64.1753 	 -62.2315
| 36> H 	 -115.001 	 65.016 	 -61.5404
| 37> H 	 -114.178 	 64.3751 	 -62.9718
| 38> H 	 -114.615 	 63.3174 	 -61.6596
| 39> H 	 -119.423 	 62.5025 	 -68.3508
| 40> H 	 -113.588 	 67.9689 	 -65.9254
| 41> *
| 42>
| 43>                          ****END OF INPUT****

CARTESIAN COORDINATES (ANGSTROEM)
---------------------------------
  S    -118.240000   64.604700  -67.517700
  C    -118.678000   62.947200  -67.677400
  C    -117.940000   62.181400  -66.891400
  C    -116.770000   62.915400  -66.431000
  C    -116.753000   64.294200  -66.643000
  H    -116.063000   62.415000  -65.793700
  C    -118.238000   60.733500  -66.557400
  H    -117.439000   60.302100  -66.040100
  H    -118.137000   60.089900  -67.501300
  C    -119.521000   60.460800  -65.701900
  H    -119.762000   61.240200  -64.963800
  H    -120.360000   60.617600  -66.405800
  C    -119.615000   59.000600  -65.058600
  H    -120.359000   58.980100  -64.221500
  H    -119.958000   58.343500  -65.848800
  H    -118.714000   58.547600  -64.616900
  S    -114.889000   66.237000  -67.110200
  C    -114.363000   67.199500  -65.794300
  C    -114.910000   66.827900  -64.597600
  C    -115.849000   65.736500  -64.739200
  C    -115.888000   65.309700  -66.099100
  H    -114.755000   67.397500  -63.626100
  C    -116.777000   65.219900  -63.672700
  H    -117.681000   64.905100  -64.161900
  H    -116.860000   65.990800  -62.920100
  C    -116.259000   63.951600  -62.963800
  H    -116.291000   63.062100  -63.627200
  H    -117.057000   63.839300  -62.195800
  C    -114.907000   64.175300  -62.231500
  H    -115.001000   65.016000  -61.540400
  H    -114.178000   64.375100  -62.971800
  H    -114.615000   63.317400  -61.659600
  H    -119.423000   62.502500  -68.350800
  H    -113.588000   67.968900  -65.925400

 Total Charge           Charge          ....    0
 Multiplicity           Mult            ....    1
 Number of Electrons    NEL             ....  134
 Basis Dimension        Dim             ....  322

ORBITAL ENERGIES
----------------

  NO   OCC          E(Eh)            E(eV)
   0   2.0000     -88.967512     -2420.9291
   1   2.0000     -88.959508     -2420.7113
   2   2.0000     -10.328426      -281.0508
   3   2.0000     -10.322060      -280.8775
   4   2.0000     -10.316683      -280.7312
   5   2.0000     -10.306988      -280.4674
   6   2.0000     -10.305703      -280.4324
   7   2.0000     -10.300265      -280.2844
   8   2.0000     -10.298941      -280.2484
   9   2.0000     -10.296315      -280.1770
  10   2.0000     -10.294666      -280.1321
  11   2.0000     -10.294436      -280.1258
  12   2.0000     -10.289588      -279.9939
  13   2.0000     -10.287982      -279.9502
  14   2.0000     -10.287563      -279.9388
  15   2.0000     -10.271913      -279.5129
  16   2.0000      -8.083813      -219.9717
  17   2.0000      -8.074893      -219.7290
  18   2.0000      -6.042012      -164.4115
  19   2.0000      -6.038007      -164.3025
  20   2.0000      -6.034901      -164.2180
  21   2.0000      -6.033472      -164.1791
  22   2.0000      -6.029251      -164.0643
  23   2.0000      -6.025561      -163.9638
  24   2.0000      -1.012236       -27.5444
  25   2.0000      -0.991958       -26.9925
  26   2.0000      -0.911435       -24.8014
  27   2.0000      -0.904194       -24.6044
  28   2.0000      -0.870932       -23.6993
  29   2.0000      -0.846874       -23.0446
  30   2.0000      -0.839814       -22.8525
  31   2.0000      -0.814782       -22.1713
  32   2.0000      -0.784916       -21.3587
  33   2.0000      -0.774533       -21.0761
  34   2.0000      -0.708996       -19.2928
  35   2.0000      -0.706402       -19.2222
  36   2.0000      -0.687358       -18.7040
  37   2.0000      -0.658803       -17.9269
  38   2.0000      -0.638098       -17.3635
  39   2.0000      -0.614332       -16.7168
  40   2.0000      -0.592497       -16.1227
  41   2.0000      -0.573115       -15.5953
  42   2.0000      -0.562084       -15.2951
  43   2.0000      -0.548237       -14.9183
  44   2.0000      -0.542774       -14.7696
  45   2.0000      -0.523878       -14.2554
  46   2.0000      -0.518916       -14.1204
  47   2.0000      -0.508467       -13.8361
  48   2.0000      -0.504609       -13.7311
  49   2.0000      -0.492500       -13.4016
  50   2.0000      -0.489064       -13.3081
  51   2.0000      -0.486350       -13.2342
  52   2.0000      -0.471888       -12.8407
  53   2.0000      -0.469243       -12.7687
  54   2.0000      -0.457367       -12.4456
  55   2.0000      -0.447670       -12.1817
  56   2.0000      -0.444777       -12.1030
  57   2.0000      -0.441443       -12.0123
  58   2.0000      -0.434942       -11.8354
  59   2.0000      -0.431615       -11.7448
  60   2.0000      -0.415395       -11.3035
  61   2.0000      -0.412732       -11.2310
  62   2.0000      -0.408093       -11.1048
  63   2.0000      -0.337849        -9.1933
  64   2.0000      -0.325380        -8.8540
  65   2.0000      -0.323454        -8.8016
  66   2.0000      -0.306586        -8.3426
  67   0.0000       0.037005         1.0070
  68   0.0000       0.065978         1.7954
  69   0.0000       0.115756         3.1499
  70   0.0000       0.120203         3.2709
  71   0.0000       0.132175         3.5967

MULLIKEN ATOMIC CHARGES
-----------------------
   0 S :    0.107223
   1 C :   -0.122290
   2 C :   -0.111640
   3 C :    0.043947
   4 C :   -0.159628
   5 H :    0.003210
   6 C :    0.082493
   7 H :   -0.011018
   8 H :    0.042223
   9 C :   -0.081627
  10 H :    0.039801
  11 H :    0.027216
  12 C :   -0.077862
  13 H :    0.042456
  14 H :    0.039416
  15 H :    0.041819
  16 S :    0.141663
  17 C :   -0.104881
  18 C :   -0.048027
  19 C :   -0.057112
  20 C :   -0.190800
  21 H :    0.043165
  22 C :    0.119206
  23 H :    0.034023
  24 H :    0.015957
  25 C :   -0.107212
  26 H :    0.033802
  27 H :    0.028622
  28 C :   -0.028164
  29 H :    0.022186
  30 H :    0.037949
  31 H :    0.032501
  32 H :    0.055584
  33 H :    0.065799
Sum of atomic charges:    0.0000000

LOEWDIN ATOMIC CHARGES
----------------------
   0 S :    0.407575
   1 C :   -0.199510
   2 C :   -0.075921
   3 C :   -0.057258
   4 C :   -0.203628
   5 H :    0.020591
   6 C :   -0.038659
   7 H :    0.016848
   8 H :    0.042714
   9 C :   -0.041164
  10 H :    0.027486
  11 H :    0.024806
  12 C :   -0.072654
  13 H :    0.032956
  14 H :    0.026119
  15 H :    0.026604
  16 S :    0.455730
  17 C :   -0.200241
  18 C :   -0.084653
  19 C :   -0.042259
  20 C :   -0.236627
  21 H :    0.043507
  22 C :   -0.026438
  23 H :    0.035010
  24 H :    0.028971
  25 C :   -0.036639
  26 H :    0.021811
  27 H :    0.024604
  28 C :   -0.060793
  29 H :    0.024258
  30 H :    0.021135
  31 H :    0.024193
  32 H :    0.038377
  33 H :    0.033151

  Mayer bond orders larger than 0.100000
B(  0-S ,  1-C ) :   1.1444 B(  0-S ,  4-C ) :   1.1382 B(  1-C ,  2-C ) :   1.6204
B(  1-C , 32-H ) :   0.9651 B(  2-C ,  3-C ) :   1.2588 B(  2-C ,  6-C ) :   1.0288
B(  3-C ,  4-C ) :   1.5698 B(  3-C ,  5-H ) :   0.9909 B(  4-C , 20-C ) :   1.0393
B(  6-C ,  7-H ) :   0.9375 B(  6-C ,  8-H ) :   0.9372 B(  6-C ,  9-C ) :   1.0341
B(  9-C , 10-H ) :   0.9660 B(  9-C , 11-H ) :   0.9585 B(  9-C , 12-C ) :   1.0625
B( 12-C , 13-H ) :   0.9786 B( 12-C , 14-H ) :   0.9791 B( 12-C , 15-H ) :   0.9800
B( 16-S , 17-C ) :   1.1833 B( 16-S , 20-C ) :   1.1724 B( 17-C , 18-C ) :   1.5829
B( 17-C , 33-H ) :   0.9646 B( 18-C , 19-C ) :   1.2695 B( 18-C , 21-H ) :   0.9771
B( 19-C , 20-C ) :   1.5405 B( 19-C , 22-C ) :   1.0540 B( 22-C , 23-H ) :   0.9160
B( 22-C , 24-H ) :   0.9324 B( 22-C , 25-C ) :   1.0794 B( 25-C , 26-H ) :   0.9528
B( 25-C , 27-H ) :   0.9573 B( 25-C , 28-C ) :   1.0687 B( 28-C , 29-H ) :   0.9740
B( 28-C , 30-H ) :   0.9749 B( 28-C , 31-H ) :   0.9742

Dispersion correction           -0.015049654
FINAL SINGLE POINT ENERGY     -1339.871468960320

DIPOLE MOMENT
-------------
                                X             Y             Z
Electronic contribution:      6.76161      21.83888     -20.30195
Nuclear contribution   :     -6.82999     -22.22914      20.82924
                        -----------------------------------------
Total Dipole Moment    :     -0.06839      -0.39027       0.52729
                        -----------------------------------------
Magnitude (a.u.)       :      0.65956
Magnitude (Debye)      :      1.67647

Rotational constants in cm-1:     0.020812     0.008533     0.006598
Rotational constants in MHz :   623.913156   255.820002   197.814782

                             ****ORCA TERMINATED NORMALLY****
TOTAL RUN TIME: 0 days 0 hours 0 minutes 22 seconds 163 msec
