                         Program Version 4.2.1 -  RELEASE  -
|  1> ! wB97X-D3 SP def2-SVP
|  2> %pal
|  3> nprocs 24
|  4> end
|  5>
|  6> * xyz 0 1
|  7> S 	 -53.5469 	 14.8508 	 24.9845
|  8> C 	 -55.2348 	 15.0525 	 24.5034
|  9> C 	 -56.1405 	 14.9148 	 25.5857
| 10> C 	 -55.451 	 14.728 	 26.8335
| 11> C 	 -54.0851 	 14.6056 	 26.6466
| 12> H 	 -55.8723 	 14.6182 	 27.7981
| 13> C 	 -57.6897 	 14.9408 	 25.4495
| 14> H 	 -58.0507 	 15.934 	 25.3072
| 15> H 	 -58.1516 	 14.6826 	 26.4456
| 16> C 	 -58.3848 	 13.914 	 24.4687
| 17> H 	 -57.8765 	 14.055 	 23.4697
| 18> H 	 -58.2632 	 12.8248 	 24.7677
| 19> C 	 -59.8769 	 14.2136 	 24.1648
| 20> H 	 -60.2592 	 13.3799 	 23.5743
| 21> H 	 -60.4829 	 14.1438 	 25.0679
| 22> H 	 -60.0892 	 15.1815 	 23.7597
| 23> S 	 -51.5696 	 13.7804 	 27.3453
| 24> C 	 -50.8284 	 14.2293 	 28.7998
| 25> C 	 -51.5925 	 15.1926 	 29.5221
| 26> C 	 -52.9487 	 15.207 	 28.9583
| 27> C 	 -53.0517 	 14.5816 	 27.6983
| 28> H 	 -51.1774 	 15.6865 	 30.3825
| 29> C 	 -53.9506 	 16.1834 	 29.5937
| 30> H 	 -54.5522 	 16.6834 	 28.8351
| 31> H 	 -53.4022 	 16.9838 	 30.1005
| 32> C 	 -54.8062 	 15.6107 	 30.6966
| 33> H 	 -54.1655 	 15.287 	 31.539
| 34> H 	 -55.3587 	 14.787 	 30.3721
| 35> C 	 -55.9358 	 16.5786 	 31.1042
| 36> H 	 -55.627 	 17.5426 	 31.5752
| 37> H 	 -56.6319 	 16.0916 	 31.8266
| 38> H 	 -56.5526 	 16.6925 	 30.1821
| 39> H 	 -55.4699 	 15.3502 	 23.4915
| 40> H 	 -49.8175 	 14.1996 	 29.0865
| 41> *
| 42>
| 43>                          ****END OF INPUT****

CARTESIAN COORDINATES (ANGSTROEM)
---------------------------------
  S    -53.546900   14.850800   24.984500
  C    -55.234800   15.052500   24.503400
  C    -56.140500   14.914800   25.585700
  C    -55.451000   14.728000   26.833500
  C    -54.085100   14.605600   26.646600
  H    -55.872300   14.618200   27.798100
  C    -57.689700   14.940800   25.449500
  H    -58.050700   15.934000   25.307200
  H    -58.151600   14.682600   26.445600
  C    -58.384800   13.914000   24.468700
  H    -57.876500   14.055000   23.469700
  H    -58.263200   12.824800   24.767700
  C    -59.876900   14.213600   24.164800
  H    -60.259200   13.379900   23.574300
  H    -60.482900   14.143800   25.067900
  H    -60.089200   15.181500   23.759700
  S    -51.569600   13.780400   27.345300
  C    -50.828400   14.229300   28.799800
  C    -51.592500   15.192600   29.522100
  C    -52.948700   15.207000   28.958300
  C    -53.051700   14.581600   27.698300
  H    -51.177400   15.686500   30.382500
  C    -53.950600   16.183400   29.593700
  H    -54.552200   16.683400   28.835100
  H    -53.402200   16.983800   30.100500
  C    -54.806200   15.610700   30.696600
  H    -54.165500   15.287000   31.539000
  H    -55.358700   14.787000   30.372100
  C    -55.935800   16.578600   31.104200
  H    -55.627000   17.542600   31.575200
  H    -56.631900   16.091600   31.826600
  H    -56.552600   16.692500   30.182100
  H    -55.469900   15.350200   23.491500
  H    -49.817500   14.199600   29.086500

 Total Charge           Charge          ....    0
 Multiplicity           Mult            ....    1
 Number of Electrons    NEL             ....  134
 Basis Dimension        Dim             ....  322

ORBITAL ENERGIES
----------------

  NO   OCC          E(Eh)            E(eV)
   0   2.0000     -88.971777     -2421.0451
   1   2.0000     -88.968269     -2420.9497
   2   2.0000     -10.334750      -281.2228
   3   2.0000     -10.329122      -281.0697
   4   2.0000     -10.320533      -280.8360
   5   2.0000     -10.313855      -280.6543
   6   2.0000     -10.311634      -280.5938
   7   2.0000     -10.309342      -280.5314
   8   2.0000     -10.301545      -280.3193
   9   2.0000     -10.301086      -280.3068
  10   2.0000     -10.300077      -280.2793
  11   2.0000     -10.297514      -280.2096
  12   2.0000     -10.287440      -279.9355
  13   2.0000     -10.285732      -279.8890
  14   2.0000     -10.280317      -279.7416
  15   2.0000     -10.279726      -279.7256
  16   2.0000      -8.085971      -220.0305
  17   2.0000      -8.084112      -219.9799
  18   2.0000      -6.044445      -164.4777
  19   2.0000      -6.042601      -164.4275
  20   2.0000      -6.040675      -164.3751
  21   2.0000      -6.038272      -164.3097
  22   2.0000      -6.036676      -164.2663
  23   2.0000      -6.035043      -164.2219
  24   2.0000      -1.007382       -27.4123
  25   2.0000      -0.981270       -26.7017
  26   2.0000      -0.911695       -24.8085
  27   2.0000      -0.900090       -24.4927
  28   2.0000      -0.864728       -23.5304
  29   2.0000      -0.854422       -23.2500
  30   2.0000      -0.845951       -23.0195
  31   2.0000      -0.813275       -22.1303
  32   2.0000      -0.780441       -21.2369
  33   2.0000      -0.768471       -20.9111
  34   2.0000      -0.701060       -19.0768
  35   2.0000      -0.698181       -18.9985
  36   2.0000      -0.688556       -18.7366
  37   2.0000      -0.667141       -18.1538
  38   2.0000      -0.643826       -17.5194
  39   2.0000      -0.620672       -16.8893
  40   2.0000      -0.591393       -16.0926
  41   2.0000      -0.572691       -15.5837
  42   2.0000      -0.565552       -15.3895
  43   2.0000      -0.556687       -15.1482
  44   2.0000      -0.525729       -14.3058
  45   2.0000      -0.520841       -14.1728
  46   2.0000      -0.516168       -14.0457
  47   2.0000      -0.507966       -13.8225
  48   2.0000      -0.503846       -13.7103
  49   2.0000      -0.499506       -13.5923
  50   2.0000      -0.494435       -13.4543
  51   2.0000      -0.477440       -12.9918
  52   2.0000      -0.472644       -12.8613
  53   2.0000      -0.464885       -12.6502
  54   2.0000      -0.461205       -12.5500
  55   2.0000      -0.452378       -12.3098
  56   2.0000      -0.443863       -12.0781
  57   2.0000      -0.437689       -11.9101
  58   2.0000      -0.431797       -11.7498
  59   2.0000      -0.429247       -11.6804
  60   2.0000      -0.418067       -11.3762
  61   2.0000      -0.415619       -11.3096
  62   2.0000      -0.405752       -11.0411
  63   2.0000      -0.352987        -9.6053
  64   2.0000      -0.337634        -9.1875
  65   2.0000      -0.328257        -8.9323
  66   2.0000      -0.284071        -7.7300
  67   0.0000       0.024496         0.6666
  68   0.0000       0.066501         1.8096
  69   0.0000       0.105223         2.8633
  70   0.0000       0.113680         3.0934
  71   0.0000       0.124313         3.3827

MULLIKEN ATOMIC CHARGES
-----------------------
   0 S :    0.109642
   1 C :   -0.132069
   2 C :   -0.056089
   3 C :    0.014921
   4 C :   -0.097103
   5 H :   -0.003460
   6 C :    0.056550
   7 H :    0.031239
   8 H :    0.021326
   9 C :   -0.119098
  10 H :    0.035775
  11 H :    0.053036
  12 C :   -0.042626
  13 H :    0.038500
  14 H :    0.019064
  15 H :    0.034236
  16 S :    0.117092
  17 C :   -0.060712
  18 C :   -0.066041
  19 C :   -0.034419
  20 C :   -0.141428
  21 H :    0.028695
  22 C :    0.027855
  23 H :    0.024474
  24 H :    0.018090
  25 C :   -0.047347
  26 H :    0.031062
  27 H :    0.011419
  28 C :   -0.081355
  29 H :    0.043664
  30 H :    0.036152
  31 H :    0.032034
  32 H :    0.054063
  33 H :    0.042859
Sum of atomic charges:    0.0000000

LOEWDIN ATOMIC CHARGES
----------------------
   0 S :    0.398437
   1 C :   -0.191607
   2 C :   -0.054104
   3 C :   -0.059488
   4 C :   -0.179398
   5 H :    0.027746
   6 C :   -0.037772
   7 H :    0.027053
   8 H :    0.032571
   9 C :   -0.044571
  10 H :    0.024609
  11 H :    0.034663
  12 C :   -0.067928
  13 H :    0.031678
  14 H :    0.021564
  15 H :    0.021912
  16 S :    0.445083
  17 C :   -0.209222
  18 C :   -0.061668
  19 C :   -0.053784
  20 C :   -0.213783
  21 H :    0.030701
  22 C :   -0.035592
  23 H :    0.025938
  24 H :    0.031257
  25 C :   -0.040774
  26 H :    0.025809
  27 H :    0.012710
  28 C :   -0.070499
  29 H :    0.025362
  30 H :    0.028158
  31 H :    0.028296
  32 H :    0.024113
  33 H :    0.022532

  Mayer bond orders larger than 0.100000
B(  0-S ,  1-C ) :   1.1391 B(  0-S ,  4-C ) :   1.1521 B(  1-C ,  2-C ) :   1.5964
B(  1-C , 32-H ) :   0.9728 B(  2-C ,  3-C ) :   1.2368 B(  2-C ,  6-C ) :   1.0096
B(  3-C ,  4-C ) :   1.5745 B(  3-C ,  5-H ) :   1.0060 B(  4-C , 20-C ) :   1.0394
B(  6-C ,  7-H ) :   0.9442 B(  6-C ,  8-H ) :   0.9476 B(  6-C ,  9-C ) :   1.0456
B(  9-C , 10-H ) :   0.9599 B(  9-C , 11-H ) :   0.9599 B(  9-C , 12-C ) :   1.0775
B( 12-C , 13-H ) :   0.9732 B( 12-C , 14-H ) :   0.9744 B( 12-C , 15-H ) :   0.9760
B( 16-S , 17-C ) :   1.1830 B( 16-S , 20-C ) :   1.1466 B( 17-C , 18-C ) :   1.5877
B( 17-C , 33-H ) :   0.9668 B( 18-C , 19-C ) :   1.2622 B( 18-C , 21-H ) :   0.9874
B( 19-C , 20-C ) :   1.5551 B( 19-C , 22-C ) :   1.0396 B( 22-C , 23-H ) :   0.9440
B( 22-C , 24-H ) :   0.9403 B( 22-C , 25-C ) :   1.0631 B( 25-C , 26-H ) :   0.9517
B( 25-C , 27-H ) :   0.9537 B( 25-C , 28-C ) :   1.0782 B( 28-C , 29-H ) :   0.9759
B( 28-C , 30-H ) :   0.9756 B( 28-C , 31-H ) :   0.9732

Dispersion correction           -0.013593446
FINAL SINGLE POINT ENERGY     -1339.866588985550

DIPOLE MOMENT
-------------
                                X             Y             Z
Electronic contribution:     29.19398      -6.26977      -8.63617
Nuclear contribution   :    -29.65799       6.61683       8.86418
                        -----------------------------------------
Total Dipole Moment    :     -0.46401       0.34706       0.22800
                        -----------------------------------------
Magnitude (a.u.)       :      0.62269
Magnitude (Debye)      :      1.58276

Rotational constants in cm-1:     0.018585     0.008000     0.005901
Rotational constants in MHz :   557.177381   239.832626   176.895830

                             ****ORCA TERMINATED NORMALLY****
TOTAL RUN TIME: 0 days 0 hours 0 minutes 20 seconds 922 msec
