                         Program Version 4.2.1 -  RELEASE  -
|  1> ! wB97X-D3 SP def2-SVP
|  2> %pal
|  3> nprocs 24
|  4> end
|  5>
|  6> * xyz 0 1
|  7> S 	 -106.976 	 55.7613 	 -97.7809
|  8> C 	 -106.643 	 54.7173 	 -96.5042
|  9> C 	 -105.869 	 53.6747 	 -96.9486
| 10> C 	 -105.655 	 53.6507 	 -98.3735
| 11> C 	 -106.158 	 54.7637 	 -98.9994
| 12> H 	 -105.063 	 52.8484 	 -98.9208
| 13> C 	 -105.242 	 52.698 	 -96.0736
| 14> H 	 -105.178 	 51.7749 	 -96.5995
| 15> H 	 -105.897 	 52.5495 	 -95.2361
| 16> C 	 -103.787 	 53.0855 	 -95.6745
| 17> H 	 -103.288 	 52.3173 	 -95.0669
| 18> H 	 -103.285 	 53.1956 	 -96.6156
| 19> C 	 -103.681 	 54.3908 	 -94.8569
| 20> H 	 -104.148 	 54.2551 	 -93.8353
| 21> H 	 -102.612 	 54.7113 	 -94.934
| 22> H 	 -104.206 	 55.2147 	 -95.2955
| 23> S 	 -106.133 	 56.7062 	 -100.953
| 24> C 	 -106.537 	 56.2615 	 -102.569
| 25> C 	 -106.835 	 54.9247 	 -102.722
| 26> C 	 -106.725 	 54.2161 	 -101.475
| 27> C 	 -106.211 	 55.0296 	 -100.452
| 28> H 	 -107.045 	 54.6401 	 -103.754
| 29> C 	 -106.962 	 52.7395 	 -101.439
| 30> H 	 -106.185 	 52.3878 	 -100.736
| 31> H 	 -106.732 	 52.2488 	 -102.414
| 32> C 	 -108.373 	 52.3083 	 -101.008
| 33> H 	 -109.07 	 52.5799 	 -101.892
| 34> H 	 -108.704 	 52.8972 	 -100.152
| 35> C 	 -108.419 	 50.8186 	 -100.732
| 36> H 	 -107.744 	 50.4949 	 -99.974
| 37> H 	 -108.166 	 50.3467 	 -101.705
| 38> H 	 -109.489 	 50.4634 	 -100.556
| 39> H 	 -106.979 	 54.8476 	 -95.5152
| 40> H 	 -106.8 	 57.0687 	 -103.23
| 41> *
| 42>
| 43>                          ****END OF INPUT****

CARTESIAN COORDINATES (ANGSTROEM)
---------------------------------
  S    -106.976000   55.761300  -97.780900
  C    -106.643000   54.717300  -96.504200
  C    -105.869000   53.674700  -96.948600
  C    -105.655000   53.650700  -98.373500
  C    -106.158000   54.763700  -98.999400
  H    -105.063000   52.848400  -98.920800
  C    -105.242000   52.698000  -96.073600
  H    -105.178000   51.774900  -96.599500
  H    -105.897000   52.549500  -95.236100
  C    -103.787000   53.085500  -95.674500
  H    -103.288000   52.317300  -95.066900
  H    -103.285000   53.195600  -96.615600
  C    -103.681000   54.390800  -94.856900
  H    -104.148000   54.255100  -93.835300
  H    -102.612000   54.711300  -94.934000
  H    -104.206000   55.214700  -95.295500
  S    -106.133000   56.706200  -100.953000
  C    -106.537000   56.261500  -102.569000
  C    -106.835000   54.924700  -102.722000
  C    -106.725000   54.216100  -101.475000
  C    -106.211000   55.029600  -100.452000
  H    -107.045000   54.640100  -103.754000
  C    -106.962000   52.739500  -101.439000
  H    -106.185000   52.387800  -100.736000
  H    -106.732000   52.248800  -102.414000
  C    -108.373000   52.308300  -101.008000
  H    -109.070000   52.579900  -101.892000
  H    -108.704000   52.897200  -100.152000
  C    -108.419000   50.818600  -100.732000
  H    -107.744000   50.494900  -99.974000
  H    -108.166000   50.346700  -101.705000
  H    -109.489000   50.463400  -100.556000
  H    -106.979000   54.847600  -95.515200
  H    -106.800000   57.068700  -103.230000

 Total Charge           Charge          ....    0
 Multiplicity           Mult            ....    1
 Number of Electrons    NEL             ....  134
 Basis Dimension        Dim             ....  322

ORBITAL ENERGIES
----------------

  NO   OCC          E(Eh)            E(eV)
   0   2.0000     -88.965061     -2420.8624
   1   2.0000     -88.963698     -2420.8253
   2   2.0000     -10.331828      -281.1433
   3   2.0000     -10.329534      -281.0809
   4   2.0000     -10.313965      -280.6572
   5   2.0000     -10.308700      -280.5140
   6   2.0000     -10.306137      -280.4443
   7   2.0000     -10.298176      -280.2276
   8   2.0000     -10.296424      -280.1799
   9   2.0000     -10.293006      -280.0869
  10   2.0000     -10.292859      -280.0829
  11   2.0000     -10.289949      -280.0038
  12   2.0000     -10.285647      -279.8867
  13   2.0000     -10.281312      -279.7687
  14   2.0000     -10.280036      -279.7340
  15   2.0000     -10.277884      -279.6755
  16   2.0000      -8.080581      -219.8838
  17   2.0000      -8.079315      -219.8493
  18   2.0000      -6.038879      -164.3262
  19   2.0000      -6.037900      -164.2996
  20   2.0000      -6.034994      -164.2205
  21   2.0000      -6.033515      -164.1803
  22   2.0000      -6.031524      -164.1261
  23   2.0000      -6.030104      -164.0875
  24   2.0000      -1.010353       -27.4931
  25   2.0000      -0.990515       -26.9533
  26   2.0000      -0.913652       -24.8617
  27   2.0000      -0.911139       -24.7934
  28   2.0000      -0.870602       -23.6903
  29   2.0000      -0.854055       -23.2400
  30   2.0000      -0.845081       -22.9958
  31   2.0000      -0.817492       -22.2451
  32   2.0000      -0.779706       -21.2169
  33   2.0000      -0.769098       -20.9282
  34   2.0000      -0.706303       -19.2195
  35   2.0000      -0.693635       -18.8748
  36   2.0000      -0.689923       -18.7738
  37   2.0000      -0.661592       -18.0028
  38   2.0000      -0.641635       -17.4598
  39   2.0000      -0.622862       -16.9489
  40   2.0000      -0.594961       -16.1897
  41   2.0000      -0.573415       -15.6034
  42   2.0000      -0.564380       -15.3576
  43   2.0000      -0.548730       -14.9317
  44   2.0000      -0.544884       -14.8271
  45   2.0000      -0.526473       -14.3260
  46   2.0000      -0.518190       -14.1007
  47   2.0000      -0.512502       -13.9459
  48   2.0000      -0.505240       -13.7483
  49   2.0000      -0.497687       -13.5428
  50   2.0000      -0.491724       -13.3805
  51   2.0000      -0.484798       -13.1920
  52   2.0000      -0.471149       -12.8206
  53   2.0000      -0.463667       -12.6170
  54   2.0000      -0.455633       -12.3984
  55   2.0000      -0.446125       -12.1397
  56   2.0000      -0.439126       -11.9492
  57   2.0000      -0.431902       -11.7527
  58   2.0000      -0.429108       -11.6766
  59   2.0000      -0.424934       -11.5630
  60   2.0000      -0.421023       -11.4566
  61   2.0000      -0.415702       -11.3118
  62   2.0000      -0.412964       -11.2373
  63   2.0000      -0.353632        -9.6228
  64   2.0000      -0.333228        -9.0676
  65   2.0000      -0.325423        -8.8552
  66   2.0000      -0.289730        -7.8840
  67   0.0000       0.028634         0.7792
  68   0.0000       0.070187         1.9099
  69   0.0000       0.111988         3.0474
  70   0.0000       0.115678         3.1478
  71   0.0000       0.131915         3.5896

MULLIKEN ATOMIC CHARGES
-----------------------
   0 S :    0.109200
   1 C :   -0.094860
   2 C :   -0.124220
   3 C :   -0.021193
   4 C :   -0.113082
   5 H :    0.049553
   6 C :    0.100488
   7 H :    0.007878
   8 H :    0.010769
   9 C :   -0.059616
  10 H :    0.038915
  11 H :    0.020200
  12 C :   -0.077945
  13 H :    0.039949
  14 H :    0.043461
  15 H :    0.032443
  16 S :    0.094161
  17 C :   -0.099611
  18 C :   -0.031925
  19 C :   -0.025732
  20 C :   -0.154369
  21 H :    0.028784
  22 C :    0.036733
  23 H :    0.010368
  24 H :    0.028893
  25 C :   -0.091149
  26 H :    0.037735
  27 H :    0.043108
  28 C :   -0.036591
  29 H :    0.036669
  30 H :    0.022489
  31 H :    0.044579
  32 H :    0.032888
  33 H :    0.061029
Sum of atomic charges:   -0.0000000

LOEWDIN ATOMIC CHARGES
----------------------
   0 S :    0.419510
   1 C :   -0.208856
   2 C :   -0.069449
   3 C :   -0.075363
   4 C :   -0.188606
   5 H :    0.042714
   6 C :   -0.033463
   7 H :    0.025698
   8 H :    0.024559
   9 C :   -0.033663
  10 H :    0.026445
  11 H :    0.020476
  12 C :   -0.074850
  13 H :    0.030589
  14 H :    0.035080
  15 H :    0.018248
  16 S :    0.414612
  17 C :   -0.187115
  18 C :   -0.073782
  19 C :   -0.045862
  20 C :   -0.203962
  21 H :    0.038228
  22 C :   -0.039451
  23 H :    0.028315
  24 H :    0.033653
  25 C :   -0.043653
  26 H :    0.032738
  27 H :    0.024599
  28 C :   -0.067628
  29 H :    0.020610
  30 H :    0.026745
  31 H :    0.034740
  32 H :    0.023306
  33 H :    0.024834

  Mayer bond orders larger than 0.100000
B(  0-S ,  1-C ) :   1.1423 B(  0-S ,  4-C ) :   1.1489 B(  1-C ,  2-C ) :   1.5852
B(  1-C , 32-H ) :   0.9774 B(  2-C ,  3-C ) :   1.2491 B(  2-C ,  6-C ) :   1.0512
B(  3-C ,  4-C ) :   1.5796 B(  3-C ,  5-H ) :   0.9765 B(  4-C , 20-C ) :   1.0410
B(  6-C ,  7-H ) :   0.9294 B(  6-C ,  8-H ) :   0.9374 B(  6-C ,  9-C ) :   1.0612
B(  9-C , 10-H ) :   0.9583 B(  9-C , 11-H ) :   0.9538 B(  9-C , 12-C ) :   1.0799
B( 12-C , 13-H ) :   0.9749 B( 12-C , 14-H ) :   0.9717 B( 12-C , 15-H ) :   0.9729
B( 16-S , 17-C ) :   1.1779 B( 16-S , 20-C ) :   1.1393 B( 17-C , 18-C ) :   1.6031
B( 17-C , 33-H ) :   0.9639 B( 18-C , 19-C ) :   1.2365 B( 18-C , 21-H ) :   0.9935
B( 19-C , 20-C ) :   1.5750 B( 19-C , 22-C ) :   1.0334 B( 22-C , 23-H ) :   0.9399
B( 22-C , 24-H ) :   0.9370 B( 22-C , 25-C ) :   1.0510 B( 25-C , 26-H ) :   0.9523
B( 25-C , 27-H ) :   0.9586 B( 25-C , 28-C ) :   1.0800 B( 28-C , 29-H ) :   0.9763
B( 28-C , 30-H ) :   0.9695 B( 28-C , 31-H ) :   0.9727

Dispersion correction           -0.014745719
FINAL SINGLE POINT ENERGY     -1339.881591537828

DIPOLE MOMENT
-------------
                                X             Y             Z
Electronic contribution:     -2.74093      21.97904      -8.02248
Nuclear contribution   :      2.66613     -22.49355       7.92447
                        -----------------------------------------
Total Dipole Moment    :     -0.07480      -0.51451      -0.09801
                        -----------------------------------------
Magnitude (a.u.)       :      0.52907
Magnitude (Debye)      :      1.34480

Rotational constants in cm-1:     0.019214     0.009041     0.007060
Rotational constants in MHz :   576.011965   271.041972   211.638751

                             ****ORCA TERMINATED NORMALLY****
TOTAL RUN TIME: 0 days 0 hours 0 minutes 22 seconds 142 msec
