                         Program Version 4.2.1 -  RELEASE  -
|  1> ! wB97X-D3 SP def2-SVP
|  2> %pal
|  3> nprocs 24
|  4> end
|  5>
|  6> * xyz 0 1
|  7> S 	 -145.22 	 25.9316 	 -16.9116
|  8> C 	 -145.42 	 24.3311 	 -17.6389
|  9> C 	 -144.23 	 23.5971 	 -17.6167
| 10> C 	 -143.105 	 24.4477 	 -17.1952
| 11> C 	 -143.524 	 25.7071 	 -16.8618
| 12> H 	 -142.068 	 24.2447 	 -17.133
| 13> C 	 -144.038 	 22.2303 	 -18.2514
| 14> H 	 -144.886 	 22.0554 	 -18.9011
| 15> H 	 -144.02 	 21.5057 	 -17.4564
| 16> C 	 -142.793 	 21.9753 	 -19.1686
| 17> H 	 -142.501 	 22.7845 	 -19.7185
| 18> H 	 -141.95 	 21.7943 	 -18.4575
| 19> C 	 -143.047 	 20.7209 	 -20.1212
| 20> H 	 -143.893 	 20.8809 	 -20.8149
| 21> H 	 -142.198 	 20.6367 	 -20.765
| 22> H 	 -143.2 	 19.7862 	 -19.6113
| 23> S 	 -143.038 	 27.4041 	 -14.7626
| 24> C 	 -141.544 	 28.3287 	 -14.7823
| 25> C 	 -140.871 	 28.2729 	 -16.0034
| 26> C 	 -141.496 	 27.2431 	 -16.8628
| 27> C 	 -142.634 	 26.744 	 -16.3183
| 28> H 	 -139.987 	 28.8493 	 -16.2348
| 29> C 	 -140.985 	 26.9258 	 -18.1932
| 30> H 	 -140.817 	 27.8481 	 -18.77
| 31> H 	 -141.797 	 26.4615 	 -18.8029
| 32> C 	 -139.756 	 26.0186 	 -18.2382
| 33> H 	 -140.048 	 25.1408 	 -17.5893
| 34> H 	 -139 	 26.5724 	 -17.631
| 35> C 	 -139.231 	 25.4916 	 -19.5635
| 36> H 	 -138.793 	 26.2989 	 -20.043
| 37> H 	 -140.046 	 25.1392 	 -20.1416
| 38> H 	 -138.467 	 24.6791 	 -19.4529
| 39> H 	 -146.434 	 23.9793 	 -17.9513
| 40> H 	 -141.041 	 28.8104 	 -13.9748
| 41> *
| 42>
| 43>                          ****END OF INPUT****

CARTESIAN COORDINATES (ANGSTROEM)
---------------------------------
  S    -145.220000   25.931600  -16.911600
  C    -145.420000   24.331100  -17.638900
  C    -144.230000   23.597100  -17.616700
  C    -143.105000   24.447700  -17.195200
  C    -143.524000   25.707100  -16.861800
  H    -142.068000   24.244700  -17.133000
  C    -144.038000   22.230300  -18.251400
  H    -144.886000   22.055400  -18.901100
  H    -144.020000   21.505700  -17.456400
  C    -142.793000   21.975300  -19.168600
  H    -142.501000   22.784500  -19.718500
  H    -141.950000   21.794300  -18.457500
  C    -143.047000   20.720900  -20.121200
  H    -143.893000   20.880900  -20.814900
  H    -142.198000   20.636700  -20.765000
  H    -143.200000   19.786200  -19.611300
  S    -143.038000   27.404100  -14.762600
  C    -141.544000   28.328700  -14.782300
  C    -140.871000   28.272900  -16.003400
  C    -141.496000   27.243100  -16.862800
  C    -142.634000   26.744000  -16.318300
  H    -139.987000   28.849300  -16.234800
  C    -140.985000   26.925800  -18.193200
  H    -140.817000   27.848100  -18.770000
  H    -141.797000   26.461500  -18.802900
  C    -139.756000   26.018600  -18.238200
  H    -140.048000   25.140800  -17.589300
  H    -139.000000   26.572400  -17.631000
  C    -139.231000   25.491600  -19.563500
  H    -138.793000   26.298900  -20.043000
  H    -140.046000   25.139200  -20.141600
  H    -138.467000   24.679100  -19.452900
  H    -146.434000   23.979300  -17.951300
  H    -141.041000   28.810400  -13.974800

 Total Charge           Charge          ....    0
 Multiplicity           Mult            ....    1
 Number of Electrons    NEL             ....  134
 Basis Dimension        Dim             ....  322

ORBITAL ENERGIES
----------------

  NO   OCC          E(Eh)            E(eV)
   0   2.0000     -88.967141     -2420.9190
   1   2.0000     -88.965781     -2420.8820
   2   2.0000     -10.323650      -280.9208
   3   2.0000     -10.321230      -280.8550
   4   2.0000     -10.319571      -280.8098
   5   2.0000     -10.316712      -280.7320
   6   2.0000     -10.309399      -280.5330
   7   2.0000     -10.298968      -280.2492
   8   2.0000     -10.298748      -280.2432
   9   2.0000     -10.291995      -280.0594
  10   2.0000     -10.291295      -280.0404
  11   2.0000     -10.290556      -280.0203
  12   2.0000     -10.290226      -280.0113
  13   2.0000     -10.286950      -279.9221
  14   2.0000     -10.283158      -279.8190
  15   2.0000     -10.275515      -279.6110
  16   2.0000      -8.081987      -219.9220
  17   2.0000      -8.081032      -219.8960
  18   2.0000      -6.040609      -164.3733
  19   2.0000      -6.039469      -164.3423
  20   2.0000      -6.036585      -164.2638
  21   2.0000      -6.035583      -164.2366
  22   2.0000      -6.032515      -164.1531
  23   2.0000      -6.031732      -164.1318
  24   2.0000      -1.008539       -27.4437
  25   2.0000      -0.981288       -26.7022
  26   2.0000      -0.912859       -24.8402
  27   2.0000      -0.905574       -24.6419
  28   2.0000      -0.866295       -23.5731
  29   2.0000      -0.855210       -23.2714
  30   2.0000      -0.844251       -22.9732
  31   2.0000      -0.815830       -22.1999
  32   2.0000      -0.783874       -21.3303
  33   2.0000      -0.772585       -21.0231
  34   2.0000      -0.713009       -19.4020
  35   2.0000      -0.696744       -18.9594
  36   2.0000      -0.688274       -18.7289
  37   2.0000      -0.663980       -18.0678
  38   2.0000      -0.644682       -17.5427
  39   2.0000      -0.616286       -16.7700
  40   2.0000      -0.595534       -16.2053
  41   2.0000      -0.571404       -15.5487
  42   2.0000      -0.565922       -15.3995
  43   2.0000      -0.555013       -15.1027
  44   2.0000      -0.528292       -14.3756
  45   2.0000      -0.525976       -14.3125
  46   2.0000      -0.518613       -14.1122
  47   2.0000      -0.511110       -13.9080
  48   2.0000      -0.505815       -13.7639
  49   2.0000      -0.493828       -13.4378
  50   2.0000      -0.490356       -13.3433
  51   2.0000      -0.482672       -13.1342
  52   2.0000      -0.471332       -12.8256
  53   2.0000      -0.469168       -12.7667
  54   2.0000      -0.466416       -12.6918
  55   2.0000      -0.452829       -12.3221
  56   2.0000      -0.444352       -12.0914
  57   2.0000      -0.440792       -11.9946
  58   2.0000      -0.434761       -11.8305
  59   2.0000      -0.426697       -11.6110
  60   2.0000      -0.422768       -11.5041
  61   2.0000      -0.416728       -11.3398
  62   2.0000      -0.406863       -11.0713
  63   2.0000      -0.345356        -9.3976
  64   2.0000      -0.329554        -8.9676
  65   2.0000      -0.328408        -8.9364
  66   2.0000      -0.294114        -8.0032
  67   0.0000       0.041238         1.1221
  68   0.0000       0.064970         1.7679
  69   0.0000       0.107521         2.9258
  70   0.0000       0.121211         3.2983
  71   0.0000       0.124622         3.3911

MULLIKEN ATOMIC CHARGES
-----------------------
   0 S :    0.107781
   1 C :   -0.149401
   2 C :   -0.059888
   3 C :    0.038360
   4 C :   -0.151429
   5 H :   -0.012937
   6 C :    0.065971
   7 H :    0.017228
   8 H :    0.038029
   9 C :   -0.072000
  10 H :    0.016561
  11 H :    0.034698
  12 C :   -0.053528
  13 H :    0.036487
  14 H :    0.027415
  15 H :    0.037271
  16 S :    0.117850
  17 C :   -0.082988
  18 C :   -0.024736
  19 C :   -0.045070
  20 C :   -0.144479
  21 H :    0.023878
  22 C :    0.033578
  23 H :    0.025461
  24 H :    0.026418
  25 C :   -0.121626
  26 H :    0.023493
  27 H :    0.023855
  28 C :    0.022952
  29 H :    0.016456
  30 H :    0.022608
  31 H :    0.045900
  32 H :    0.066246
  33 H :    0.049586
Sum of atomic charges:   -0.0000000

LOEWDIN ATOMIC CHARGES
----------------------
   0 S :    0.405786
   1 C :   -0.200573
   2 C :   -0.053446
   3 C :   -0.061175
   4 C :   -0.198759
   5 H :    0.023254
   6 C :   -0.031694
   7 H :    0.027356
   8 H :    0.032311
   9 C :   -0.029155
  10 H :    0.009075
  11 H :    0.027558
  12 C :   -0.060318
  13 H :    0.028449
  14 H :    0.023653
  15 H :    0.023958
  16 S :    0.403035
  17 C :   -0.181716
  18 C :   -0.059247
  19 C :   -0.059113
  20 C :   -0.197407
  21 H :    0.031283
  22 C :   -0.046168
  23 H :    0.030918
  24 H :    0.031637
  25 C :   -0.046266
  26 H :    0.021841
  27 H :    0.022946
  28 C :   -0.056151
  29 H :    0.017331
  30 H :    0.022213
  31 H :    0.037326
  32 H :    0.034715
  33 H :    0.026544

  Mayer bond orders larger than 0.100000
B(  0-S ,  1-C ) :   1.1231 B(  0-S ,  4-C ) :   1.1559 B(  1-C ,  2-C ) :   1.6341
B(  1-C , 32-H ) :   0.9645 B(  2-C ,  3-C ) :   1.1893 B(  2-C ,  6-C ) :   1.0243
B(  3-C ,  4-C ) :   1.6004 B(  3-C ,  5-H ) :   0.9996 B(  4-C , 20-C ) :   1.0035
B(  6-C ,  7-H ) :   0.9557 B(  6-C ,  8-H ) :   0.9278 B(  6-C ,  9-C ) :   1.0615
B(  9-C , 10-H ) :   0.9645 B(  9-C , 11-H ) :   0.9512 B(  9-C , 12-C ) :   1.0795
B( 12-C , 13-H ) :   0.9756 B( 12-C , 14-H ) :   0.9757 B( 12-C , 15-H ) :   0.9796
B( 16-S , 17-C ) :   1.1376 B( 16-S , 20-C ) :   1.1211 B( 17-C , 18-C ) :   1.6467
B( 17-C , 33-H ) :   0.9676 B( 18-C , 19-C ) :   1.1892 B( 18-C , 21-H ) :   0.9870
B( 19-C , 20-C ) :   1.6605 B( 19-C , 22-C ) :   1.0709 B( 22-C , 23-H ) :   0.9296
B( 22-C , 24-H ) :   0.9221 B( 22-C , 25-C ) :   1.0489 B( 25-C , 26-H ) :   0.9517
B( 25-C , 27-H ) :   0.9551 B( 25-C , 28-C ) :   1.0780 B( 28-C , 29-H ) :   0.9712
B( 28-C , 30-H ) :   0.9704 B( 28-C , 31-H ) :   0.9731

Dispersion correction           -0.014612523
FINAL SINGLE POINT ENERGY     -1339.874193483038

DIPOLE MOMENT
-------------
                                X             Y             Z
Electronic contribution:    -16.80770      19.47821      21.39834
Nuclear contribution   :     17.29541     -19.83441     -21.85543
                        -----------------------------------------
Total Dipole Moment    :      0.48771      -0.35621      -0.45709
                        -----------------------------------------
Magnitude (a.u.)       :      0.75741
Magnitude (Debye)      :      1.92519

Rotational constants in cm-1:     0.017561     0.009557     0.006652
Rotational constants in MHz :   526.457530   286.501360   199.408263

                             ****ORCA TERMINATED NORMALLY****
TOTAL RUN TIME: 0 days 0 hours 0 minutes 20 seconds 848 msec
