                         Program Version 4.2.1 -  RELEASE  -
|  1> ! wB97X-D3 SP def2-SVP
|  2> %pal
|  3> nprocs 24
|  4> end
|  5>
|  6> * xyz 0 1
|  7> S 	 -123.165 	 34.51 	 -111.145
|  8> C 	 -121.682 	 35.2915 	 -110.596
|  9> C 	 -121.16 	 34.5458 	 -109.571
| 10> C 	 -121.862 	 33.3036 	 -109.327
| 11> C 	 -123.087 	 33.3398 	 -109.933
| 12> H 	 -121.74 	 32.4725 	 -108.558
| 13> C 	 -119.898 	 34.8713 	 -108.884
| 14> H 	 -119.725 	 34.3361 	 -107.95
| 15> H 	 -119.856 	 35.8924 	 -108.559
| 16> C 	 -118.661 	 34.7016 	 -109.748
| 17> H 	 -118.684 	 35.329 	 -110.641
| 18> H 	 -117.834 	 35.0293 	 -109.165
| 19> C 	 -118.482 	 33.2169 	 -110.128
| 20> H 	 -118.6 	 32.6114 	 -109.271
| 21> H 	 -119.12 	 32.9044 	 -110.957
| 22> H 	 -117.377 	 33.2681 	 -110.372
| 23> S 	 -124.506 	 31.9575 	 -107.967
| 24> C 	 -125.802 	 30.8565 	 -108.47
| 25> C 	 -125.699 	 30.5106 	 -109.801
| 26> C 	 -124.746 	 31.4022 	 -110.457
| 27> C 	 -124.098 	 32.2706 	 -109.636
| 28> H 	 -126.33 	 29.8273 	 -110.301
| 29> C 	 -124.611 	 31.2599 	 -111.956
| 30> H 	 -124.875 	 30.2438 	 -112.191
| 31> H 	 -123.667 	 31.3009 	 -112.447
| 32> C 	 -125.577 	 32.1297 	 -112.656
| 33> H 	 -125.199 	 33.1339 	 -112.698
| 34> H 	 -126.537 	 32.1547 	 -112.053
| 35> C 	 -125.734 	 31.6877 	 -114.154
| 36> H 	 -126.314 	 30.7642 	 -114.213
| 37> H 	 -124.778 	 31.4511 	 -114.663
| 38> H 	 -126.249 	 32.4086 	 -114.81
| 39> H 	 -121.304 	 36.2263 	 -110.933
| 40> H 	 -126.479 	 30.3688 	 -107.786
| 41> *
| 42>
| 43>                          ****END OF INPUT****

CARTESIAN COORDINATES (ANGSTROEM)
---------------------------------
  S    -123.165000   34.510000  -111.145000
  C    -121.682000   35.291500  -110.596000
  C    -121.160000   34.545800  -109.571000
  C    -121.862000   33.303600  -109.327000
  C    -123.087000   33.339800  -109.933000
  H    -121.740000   32.472500  -108.558000
  C    -119.898000   34.871300  -108.884000
  H    -119.725000   34.336100  -107.950000
  H    -119.856000   35.892400  -108.559000
  C    -118.661000   34.701600  -109.748000
  H    -118.684000   35.329000  -110.641000
  H    -117.834000   35.029300  -109.165000
  C    -118.482000   33.216900  -110.128000
  H    -118.600000   32.611400  -109.271000
  H    -119.120000   32.904400  -110.957000
  H    -117.377000   33.268100  -110.372000
  S    -124.506000   31.957500  -107.967000
  C    -125.802000   30.856500  -108.470000
  C    -125.699000   30.510600  -109.801000
  C    -124.746000   31.402200  -110.457000
  C    -124.098000   32.270600  -109.636000
  H    -126.330000   29.827300  -110.301000
  C    -124.611000   31.259900  -111.956000
  H    -124.875000   30.243800  -112.191000
  H    -123.667000   31.300900  -112.447000
  C    -125.577000   32.129700  -112.656000
  H    -125.199000   33.133900  -112.698000
  H    -126.537000   32.154700  -112.053000
  C    -125.734000   31.687700  -114.154000
  H    -126.314000   30.764200  -114.213000
  H    -124.778000   31.451100  -114.663000
  H    -126.249000   32.408600  -114.810000
  H    -121.304000   36.226300  -110.933000
  H    -126.479000   30.368800  -107.786000

 Total Charge           Charge          ....    0
 Multiplicity           Mult            ....    1
 Number of Electrons    NEL             ....  134
 Basis Dimension        Dim             ....  322

ORBITAL ENERGIES
----------------

  NO   OCC          E(Eh)            E(eV)
   0   2.0000     -88.967358     -2420.9249
   1   2.0000     -88.966321     -2420.8967
   2   2.0000     -10.326527      -280.9991
   3   2.0000     -10.326338      -280.9939
   4   2.0000     -10.321680      -280.8672
   5   2.0000     -10.311010      -280.5769
   6   2.0000     -10.301476      -280.3174
   7   2.0000     -10.300795      -280.2989
   8   2.0000     -10.297043      -280.1968
   9   2.0000     -10.294675      -280.1323
  10   2.0000     -10.283243      -279.8213
  11   2.0000     -10.280485      -279.7462
  12   2.0000     -10.279426      -279.7174
  13   2.0000     -10.279377      -279.7161
  14   2.0000     -10.278813      -279.7007
  15   2.0000     -10.272722      -279.5350
  16   2.0000      -8.082496      -219.9359
  17   2.0000      -8.080840      -219.8908
  18   2.0000      -6.041027      -164.3847
  19   2.0000      -6.039469      -164.3423
  20   2.0000      -6.036897      -164.2723
  21   2.0000      -6.035562      -164.2360
  22   2.0000      -6.033268      -164.1736
  23   2.0000      -6.031299      -164.1200
  24   2.0000      -1.012236       -27.5443
  25   2.0000      -0.988951       -26.9107
  26   2.0000      -0.918649       -24.9977
  27   2.0000      -0.915428       -24.9101
  28   2.0000      -0.868971       -23.6459
  29   2.0000      -0.847783       -23.0694
  30   2.0000      -0.840848       -22.8806
  31   2.0000      -0.816698       -22.2235
  32   2.0000      -0.782376       -21.2895
  33   2.0000      -0.772421       -21.0186
  34   2.0000      -0.703124       -19.1330
  35   2.0000      -0.701203       -19.0807
  36   2.0000      -0.689582       -18.7645
  37   2.0000      -0.671132       -18.2624
  38   2.0000      -0.640493       -17.4287
  39   2.0000      -0.611674       -16.6445
  40   2.0000      -0.602478       -16.3943
  41   2.0000      -0.581741       -15.8300
  42   2.0000      -0.561576       -15.2813
  43   2.0000      -0.547862       -14.9081
  44   2.0000      -0.545078       -14.8323
  45   2.0000      -0.522219       -14.2103
  46   2.0000      -0.518435       -14.1073
  47   2.0000      -0.513468       -13.9722
  48   2.0000      -0.506648       -13.7866
  49   2.0000      -0.496308       -13.5052
  50   2.0000      -0.489578       -13.3221
  51   2.0000      -0.475126       -12.9288
  52   2.0000      -0.472342       -12.8531
  53   2.0000      -0.471799       -12.8383
  54   2.0000      -0.459646       -12.5076
  55   2.0000      -0.449953       -12.2438
  56   2.0000      -0.439013       -11.9462
  57   2.0000      -0.438397       -11.9294
  58   2.0000      -0.431433       -11.7399
  59   2.0000      -0.426303       -11.6003
  60   2.0000      -0.420375       -11.4390
  61   2.0000      -0.406645       -11.0654
  62   2.0000      -0.405055       -11.0221
  63   2.0000      -0.347165        -9.4468
  64   2.0000      -0.331083        -9.0092
  65   2.0000      -0.326544        -8.8857
  66   2.0000      -0.298578        -8.1247
  67   0.0000       0.036542         0.9944
  68   0.0000       0.064727         1.7613
  69   0.0000       0.099082         2.6962
  70   0.0000       0.122347         3.3292
  71   0.0000       0.133831         3.6417

MULLIKEN ATOMIC CHARGES
-----------------------
   0 S :    0.108480
   1 C :   -0.104441
   2 C :   -0.062461
   3 C :   -0.028025
   4 C :   -0.115437
   5 H :    0.046658
   6 C :    0.065543
   7 H :    0.018009
   8 H :    0.014448
   9 C :   -0.079685
  10 H :    0.025150
  11 H :    0.017465
  12 C :   -0.046974
  13 H :    0.018664
  14 H :    0.058038
  15 H :    0.035707
  16 S :    0.096376
  17 C :   -0.085635
  18 C :    0.000551
  19 C :   -0.061270
  20 C :   -0.153235
  21 H :    0.013358
  22 C :    0.088562
  23 H :   -0.003341
  24 H :    0.016442
  25 C :   -0.073400
  26 H :    0.026105
  27 H :    0.042152
  28 C :   -0.071008
  29 H :    0.027726
  30 H :    0.032033
  31 H :    0.038761
  32 H :    0.038111
  33 H :    0.056575
Sum of atomic charges:    0.0000000

LOEWDIN ATOMIC CHARGES
----------------------
   0 S :    0.431389
   1 C :   -0.193078
   2 C :   -0.053766
   3 C :   -0.083300
   4 C :   -0.202613
   5 H :    0.041702
   6 C :   -0.041164
   7 H :    0.028800
   8 H :    0.028312
   9 C :   -0.033277
  10 H :    0.020564
  11 H :    0.017030
  12 C :   -0.063030
  13 H :    0.015179
  14 H :    0.030094
  15 H :    0.035749
  16 S :    0.393982
  17 C :   -0.167257
  18 C :   -0.057878
  19 C :   -0.053385
  20 C :   -0.194323
  21 H :    0.026880
  22 C :   -0.038076
  23 H :    0.025895
  24 H :    0.025560
  25 C :   -0.040873
  26 H :    0.012123
  27 H :    0.031798
  28 C :   -0.071955
  29 H :    0.022057
  30 H :    0.027686
  31 H :    0.026984
  32 H :    0.024810
  33 H :    0.027381

  Mayer bond orders larger than 0.100000
B(  0-S ,  1-C ) :   1.1108 B(  0-S ,  4-C ) :   1.1750 B(  1-C ,  2-C ) :   1.6141
B(  1-C , 32-H ) :   0.9786 B(  2-C ,  3-C ) :   1.2085 B(  2-C ,  6-C ) :   1.0443
B(  3-C ,  4-C ) :   1.5823 B(  3-C ,  5-H ) :   0.9791 B(  4-C , 20-C ) :   1.0006
B(  6-C ,  7-H ) :   0.9409 B(  6-C ,  8-H ) :   0.9280 B(  6-C ,  9-C ) :   1.0922
B(  9-C , 10-H ) :   0.9536 B(  9-C , 11-H ) :   0.9581 B(  9-C , 12-C ) :   1.0667
B( 12-C , 13-H ) :   0.9757 B( 12-C , 14-H ) :   0.9751 B( 12-C , 15-H ) :   0.9774
B( 16-S , 17-C ) :   1.1458 B( 16-S , 20-C ) :   1.1164 B( 17-C , 18-C ) :   1.6275
B( 17-C , 33-H ) :   0.9675 B( 18-C , 19-C ) :   1.2108 B( 18-C , 21-H ) :   0.9934
B( 19-C , 20-C ) :   1.6531 B( 19-C , 22-C ) :   1.0385 B( 22-C , 23-H ) :   0.9328
B( 22-C , 24-H ) :   0.9319 B( 22-C , 25-C ) :   1.0609 B( 25-C , 26-H ) :   0.9476
B( 25-C , 27-H ) :   0.9572 B( 25-C , 28-C ) :   1.0679 B( 28-C , 29-H ) :   0.9775
B( 28-C , 30-H ) :   0.9728 B( 28-C , 31-H ) :   0.9765

Dispersion correction           -0.014680663
FINAL SINGLE POINT ENERGY     -1339.863415323732

DIPOLE MOMENT
-------------
                                X             Y             Z
Electronic contribution:    -10.85798       2.48983      12.82492
Nuclear contribution   :     11.04429      -2.63518     -12.93890
                        -----------------------------------------
Total Dipole Moment    :      0.18631      -0.14536      -0.11398
                        -----------------------------------------
Magnitude (a.u.)       :      0.26236
Magnitude (Debye)      :      0.66687

Rotational constants in cm-1:     0.020316     0.008556     0.006930
Rotational constants in MHz :   609.070120   256.494026   207.754881

                             ****ORCA TERMINATED NORMALLY****
TOTAL RUN TIME: 0 days 0 hours 0 minutes 22 seconds 201 msec
