                         Program Version 4.2.1 -  RELEASE  -
|  1> ! wB97X-D3 SP def2-SVP
|  2> %pal
|  3> nprocs 24
|  4> end
|  5>
|  6> * xyz 0 1
|  7> S 	 -4.64793 	 -26.412 	 -116.7
|  8> C 	 -3.30594 	 -26.219 	 -117.793
|  9> C 	 -2.23956 	 -25.6769 	 -117.166
| 10> C 	 -2.58624 	 -25.1135 	 -115.805
| 11> C 	 -3.86699 	 -25.4208 	 -115.486
| 12> H 	 -1.99556 	 -24.6663 	 -114.995
| 13> C 	 -0.90717 	 -25.4869 	 -117.851
| 14> H 	 -0.87044 	 -26.1932 	 -118.686
| 15> H 	 -0.189221 	 -25.7707 	 -117.1
| 16> C 	 -0.490589 	 -24.0837 	 -118.284
| 17> H 	 -0.0693724 	 -23.5086 	 -117.455
| 18> H 	 0.267716 	 -24.1433 	 -119.044
| 19> C 	 -1.57971 	 -23.3005 	 -119.081
| 20> H 	 -1.20121 	 -22.2799 	 -119.3
| 21> H 	 -1.94484 	 -23.7581 	 -120.045
| 22> H 	 -2.4989 	 -23.1199 	 -118.579
| 23> S 	 -5.41897 	 -26.3616 	 -113.473
| 24> C 	 -5.84753 	 -25.3382 	 -112.108
| 25> C 	 -5.28011 	 -24.0308 	 -112.273
| 26> C 	 -4.55483 	 -23.8798 	 -113.512
| 27> C 	 -4.5645 	 -25.0861 	 -114.269
| 28> H 	 -5.36673 	 -23.3389 	 -111.474
| 29> C 	 -3.74564 	 -22.5921 	 -113.824
| 30> H 	 -4.44755 	 -21.7949 	 -113.541
| 31> H 	 -3.51748 	 -22.5367 	 -114.918
| 32> C 	 -2.47025 	 -22.3084 	 -113.002
| 33> H 	 -2.10789 	 -23.3348 	 -112.811
| 34> H 	 -2.71777 	 -21.7929 	 -112.024
| 35> C 	 -1.30164 	 -21.5877 	 -113.57
| 36> H 	 -0.782931 	 -22.035 	 -114.41
| 37> H 	 -0.536224 	 -21.5844 	 -112.759
| 38> H 	 -1.51119 	 -20.5571 	 -113.83
| 39> H 	 -3.29065 	 -26.5834 	 -118.881
| 40> H 	 -6.52336 	 -25.5537 	 -111.254
| 41> *
| 42>
| 43>                          ****END OF INPUT****

CARTESIAN COORDINATES (ANGSTROEM)
---------------------------------
  S     -4.647930  -26.412000  -116.700000
  C     -3.305940  -26.219000  -117.793000
  C     -2.239560  -25.676900  -117.166000
  C     -2.586240  -25.113500  -115.805000
  C     -3.866990  -25.420800  -115.486000
  H     -1.995560  -24.666300  -114.995000
  C     -0.907170  -25.486900  -117.851000
  H     -0.870440  -26.193200  -118.686000
  H     -0.189221  -25.770700  -117.100000
  C     -0.490589  -24.083700  -118.284000
  H     -0.069372  -23.508600  -117.455000
  H      0.267716  -24.143300  -119.044000
  C     -1.579710  -23.300500  -119.081000
  H     -1.201210  -22.279900  -119.300000
  H     -1.944840  -23.758100  -120.045000
  H     -2.498900  -23.119900  -118.579000
  S     -5.418970  -26.361600  -113.473000
  C     -5.847530  -25.338200  -112.108000
  C     -5.280110  -24.030800  -112.273000
  C     -4.554830  -23.879800  -113.512000
  C     -4.564500  -25.086100  -114.269000
  H     -5.366730  -23.338900  -111.474000
  C     -3.745640  -22.592100  -113.824000
  H     -4.447550  -21.794900  -113.541000
  H     -3.517480  -22.536700  -114.918000
  C     -2.470250  -22.308400  -113.002000
  H     -2.107890  -23.334800  -112.811000
  H     -2.717770  -21.792900  -112.024000
  C     -1.301640  -21.587700  -113.570000
  H     -0.782931  -22.035000  -114.410000
  H     -0.536224  -21.584400  -112.759000
  H     -1.511190  -20.557100  -113.830000
  H     -3.290650  -26.583400  -118.881000
  H     -6.523360  -25.553700  -111.254000

 Total Charge           Charge          ....    0
 Multiplicity           Mult            ....    1
 Number of Electrons    NEL             ....  134
 Basis Dimension        Dim             ....  322

ORBITAL ENERGIES
----------------

  NO   OCC          E(Eh)            E(eV)
   0   2.0000     -88.971827     -2421.0465
   1   2.0000     -88.960979     -2420.7513
   2   2.0000     -10.328857      -281.0625
   3   2.0000     -10.327150      -281.0160
   4   2.0000     -10.325893      -280.9818
   5   2.0000     -10.317181      -280.7448
   6   2.0000     -10.312325      -280.6126
   7   2.0000     -10.306478      -280.4535
   8   2.0000     -10.301089      -280.3069
   9   2.0000     -10.300008      -280.2775
  10   2.0000     -10.297760      -280.2163
  11   2.0000     -10.291792      -280.0539
  12   2.0000     -10.290168      -280.0097
  13   2.0000     -10.289332      -279.9869
  14   2.0000     -10.280621      -279.7499
  15   2.0000     -10.277663      -279.6694
  16   2.0000      -8.086241      -220.0378
  17   2.0000      -8.076484      -219.7723
  18   2.0000      -6.044763      -164.4864
  19   2.0000      -6.040624      -164.3737
  20   2.0000      -6.037172      -164.2798
  21   2.0000      -6.035169      -164.2253
  22   2.0000      -6.031030      -164.1127
  23   2.0000      -6.026853      -163.9990
  24   2.0000      -1.007562       -27.4172
  25   2.0000      -0.979884       -26.6640
  26   2.0000      -0.911300       -24.7977
  27   2.0000      -0.908207       -24.7136
  28   2.0000      -0.870490       -23.6872
  29   2.0000      -0.855643       -23.2832
  30   2.0000      -0.839675       -22.8487
  31   2.0000      -0.815099       -22.1800
  32   2.0000      -0.784522       -21.3479
  33   2.0000      -0.773858       -21.0577
  34   2.0000      -0.708292       -19.2736
  35   2.0000      -0.693946       -18.8832
  36   2.0000      -0.686796       -18.6887
  37   2.0000      -0.662362       -18.0238
  38   2.0000      -0.638926       -17.3861
  39   2.0000      -0.612446       -16.6655
  40   2.0000      -0.586754       -15.9664
  41   2.0000      -0.570990       -15.5374
  42   2.0000      -0.558178       -15.1888
  43   2.0000      -0.556825       -15.1520
  44   2.0000      -0.542649       -14.7662
  45   2.0000      -0.525894       -14.3103
  46   2.0000      -0.521150       -14.1812
  47   2.0000      -0.510143       -13.8817
  48   2.0000      -0.504495       -13.7280
  49   2.0000      -0.499341       -13.5878
  50   2.0000      -0.492577       -13.4037
  51   2.0000      -0.486369       -13.2348
  52   2.0000      -0.471654       -12.8344
  53   2.0000      -0.460773       -12.5383
  54   2.0000      -0.455991       -12.4081
  55   2.0000      -0.448970       -12.2171
  56   2.0000      -0.441871       -12.0239
  57   2.0000      -0.437071       -11.8933
  58   2.0000      -0.433361       -11.7924
  59   2.0000      -0.425667       -11.5830
  60   2.0000      -0.421130       -11.4595
  61   2.0000      -0.409636       -11.1468
  62   2.0000      -0.406333       -11.0569
  63   2.0000      -0.354162        -9.6372
  64   2.0000      -0.331822        -9.0293
  65   2.0000      -0.324744        -8.8367
  66   2.0000      -0.291016        -7.9189
  67   0.0000       0.028095         0.7645
  68   0.0000       0.073293         1.9944
  69   0.0000       0.102799         2.7973
  70   0.0000       0.118247         3.2177
  71   0.0000       0.123747         3.3673

MULLIKEN ATOMIC CHARGES
-----------------------
   0 S :    0.096835
   1 C :   -0.148085
   2 C :   -0.097709
   3 C :    0.009118
   4 C :   -0.132373
   5 H :    0.020402
   6 C :    0.093517
   7 H :    0.018661
   8 H :    0.024876
   9 C :   -0.051619
  10 H :    0.033628
  11 H :    0.029479
  12 C :   -0.082599
  13 H :    0.031276
  14 H :    0.031204
  15 H :    0.030408
  16 S :    0.124108
  17 C :   -0.116549
  18 C :   -0.039025
  19 C :   -0.038619
  20 C :   -0.153726
  21 H :    0.011325
  22 C :    0.057786
  23 H :    0.029081
  24 H :    0.042147
  25 C :   -0.099177
  26 H :    0.031473
  27 H :    0.038977
  28 C :   -0.042828
  29 H :    0.026511
  30 H :    0.035846
  31 H :    0.030903
  32 H :    0.079456
  33 H :    0.075291
Sum of atomic charges:    0.0000000

LOEWDIN ATOMIC CHARGES
----------------------
   0 S :    0.387049
   1 C :   -0.208353
   2 C :   -0.059228
   3 C :   -0.068066
   4 C :   -0.186220
   5 H :    0.037843
   6 C :   -0.034188
   7 H :    0.030309
   8 H :    0.033693
   9 C :   -0.039136
  10 H :    0.025513
  11 H :    0.027888
  12 C :   -0.074611
  13 H :    0.028373
  14 H :    0.029163
  15 H :    0.016765
  16 S :    0.424625
  17 C :   -0.200359
  18 C :   -0.063769
  19 C :   -0.055571
  20 C :   -0.209236
  21 H :    0.024899
  22 C :   -0.041197
  23 H :    0.033624
  24 H :    0.035693
  25 C :   -0.054180
  26 H :    0.025357
  27 H :    0.032456
  28 C :   -0.067434
  29 H :    0.020873
  30 H :    0.036442
  31 H :    0.021891
  32 H :    0.049065
  33 H :    0.040029

  Mayer bond orders larger than 0.100000
B(  0-S ,  1-C ) :   1.1071 B(  0-S ,  4-C ) :   1.1256 B(  1-C ,  2-C ) :   1.6795
B(  1-C , 32-H ) :   0.9559 B(  2-C ,  3-C ) :   1.1303 B(  2-C ,  6-C ) :   1.0431
B(  3-C ,  4-C ) :   1.6415 B(  3-C ,  5-H ) :   0.9913 B(  4-C , 20-C ) :   1.0438
B(  6-C ,  7-H ) :   0.9399 B(  6-C ,  8-H ) :   0.9300 B(  6-C ,  9-C ) :   1.0779
B(  9-C , 10-H ) :   0.9546 B(  9-C , 11-H ) :   0.9551 B(  9-C , 12-C ) :   1.0697
B( 12-C , 13-H ) :   0.9749 B( 12-C , 14-H ) :   0.9761 B( 12-C , 15-H ) :   0.9746
B( 16-S , 17-C ) :   1.1584 B( 16-S , 20-C ) :   1.1627 B( 17-C , 18-C ) :   1.5850
B( 17-C , 20-C ) :   0.1102 B( 17-C , 33-H ) :   0.9642 B( 18-C , 19-C ) :   1.2574
B( 18-C , 21-H ) :   0.9934 B( 19-C , 20-C ) :   1.5463 B( 19-C , 22-C ) :   1.0598
B( 22-C , 23-H ) :   0.9278 B( 22-C , 24-H ) :   0.9387 B( 22-C , 25-C ) :   1.0419
B( 25-C , 26-H ) :   0.9582 B( 25-C , 27-H ) :   0.9505 B( 25-C , 28-C ) :   1.1034
B( 28-C , 29-H ) :   0.9714 B( 28-C , 30-H ) :   0.9678 B( 28-C , 31-H ) :   0.9721

Dispersion correction           -0.014881774
FINAL SINGLE POINT ENERGY     -1339.869658530954

DIPOLE MOMENT
-------------
                                X             Y             Z
Electronic contribution:    -21.71666     -21.52389       6.14026
Nuclear contribution   :     22.27035      21.97655      -6.04113
                        -----------------------------------------
Total Dipole Moment    :      0.55368       0.45266       0.09913
                        -----------------------------------------
Magnitude (a.u.)       :      0.72200
Magnitude (Debye)      :      1.83519

Rotational constants in cm-1:     0.017541     0.010131     0.006901
Rotational constants in MHz :   525.861607   303.713863   206.901635

                             ****ORCA TERMINATED NORMALLY****
TOTAL RUN TIME: 0 days 0 hours 0 minutes 22 seconds 60 msec
