                         Program Version 4.2.1 -  RELEASE  -
|  1> ! wB97X-D3 SP def2-SVP
|  2> %pal
|  3> nprocs 24
|  4> end
|  5>
|  6> * xyz 0 1
|  7> S 	 -88.9518 	 -31.2917 	 -61.158
|  8> C 	 -88.8171 	 -29.552 	 -61.5067
|  9> C 	 -88.9205 	 -28.816 	 -60.358
| 10> C 	 -88.7258 	 -29.5583 	 -59.1311
| 11> C 	 -88.6741 	 -30.8839 	 -59.4222
| 12> H 	 -88.6364 	 -29.2952 	 -58.0982
| 13> C 	 -88.967 	 -27.3268 	 -60.3189
| 14> H 	 -88.0454 	 -26.9245 	 -60.7983
| 15> H 	 -88.7361 	 -27.0156 	 -59.3216
| 16> C 	 -90.2993 	 -26.7113 	 -60.8334
| 17> H 	 -90.2098 	 -25.6563 	 -60.6135
| 18> H 	 -90.3545 	 -26.7606 	 -61.907
| 19> C 	 -91.6156 	 -27.0394 	 -60.1455
| 20> H 	 -91.8751 	 -28.1047 	 -60.3316
| 21> H 	 -91.471 	 -27.114 	 -59.0055
| 22> H 	 -92.4982 	 -26.477 	 -60.3533
| 23> S 	 -89.4387 	 -33.4452 	 -58.7807
| 24> C 	 -89.0761 	 -34.0785 	 -57.094
| 25> C 	 -88.3366 	 -33.2357 	 -56.3667
| 26> C 	 -88.1259 	 -31.9683 	 -57.0331
| 27> C 	 -88.5448 	 -31.9802 	 -58.4002
| 28> H 	 -87.9346 	 -33.5815 	 -55.4087
| 29> C 	 -87.4097 	 -30.8609 	 -56.336
| 30> H 	 -86.9053 	 -30.231 	 -57.117
| 31> H 	 -86.6789 	 -31.2582 	 -55.7236
| 32> C 	 -88.3066 	 -30.0102 	 -55.4405
| 33> H 	 -88.3833 	 -30.5225 	 -54.4561
| 34> H 	 -89.3815 	 -29.9011 	 -55.811
| 35> C 	 -87.7808 	 -28.6414 	 -55.1821
| 36> H 	 -88.3937 	 -27.9562 	 -54.5602
| 37> H 	 -87.7058 	 -28.076 	 -56.0707
| 38> H 	 -86.7698 	 -28.6749 	 -54.6736
| 39> H 	 -88.9486 	 -29.0342 	 -62.4405
| 40> H 	 -89.2462 	 -35.0932 	 -56.6382
| 41> *
| 42>
| 43>                          ****END OF INPUT****

CARTESIAN COORDINATES (ANGSTROEM)
---------------------------------
  S    -88.951800  -31.291700  -61.158000
  C    -88.817100  -29.552000  -61.506700
  C    -88.920500  -28.816000  -60.358000
  C    -88.725800  -29.558300  -59.131100
  C    -88.674100  -30.883900  -59.422200
  H    -88.636400  -29.295200  -58.098200
  C    -88.967000  -27.326800  -60.318900
  H    -88.045400  -26.924500  -60.798300
  H    -88.736100  -27.015600  -59.321600
  C    -90.299300  -26.711300  -60.833400
  H    -90.209800  -25.656300  -60.613500
  H    -90.354500  -26.760600  -61.907000
  C    -91.615600  -27.039400  -60.145500
  H    -91.875100  -28.104700  -60.331600
  H    -91.471000  -27.114000  -59.005500
  H    -92.498200  -26.477000  -60.353300
  S    -89.438700  -33.445200  -58.780700
  C    -89.076100  -34.078500  -57.094000
  C    -88.336600  -33.235700  -56.366700
  C    -88.125900  -31.968300  -57.033100
  C    -88.544800  -31.980200  -58.400200
  H    -87.934600  -33.581500  -55.408700
  C    -87.409700  -30.860900  -56.336000
  H    -86.905300  -30.231000  -57.117000
  H    -86.678900  -31.258200  -55.723600
  C    -88.306600  -30.010200  -55.440500
  H    -88.383300  -30.522500  -54.456100
  H    -89.381500  -29.901100  -55.811000
  C    -87.780800  -28.641400  -55.182100
  H    -88.393700  -27.956200  -54.560200
  H    -87.705800  -28.076000  -56.070700
  H    -86.769800  -28.674900  -54.673600
  H    -88.948600  -29.034200  -62.440500
  H    -89.246200  -35.093200  -56.638200

 Total Charge           Charge          ....    0
 Multiplicity           Mult            ....    1
 Number of Electrons    NEL             ....  134
 Basis Dimension        Dim             ....  322

ORBITAL ENERGIES
----------------

  NO   OCC          E(Eh)            E(eV)
   0   2.0000     -88.969105     -2420.9724
   1   2.0000     -88.967607     -2420.9317
   2   2.0000     -10.335988      -281.2565
   3   2.0000     -10.335600      -281.2460
   4   2.0000     -10.321688      -280.8674
   5   2.0000     -10.312634      -280.6210
   6   2.0000     -10.309068      -280.5240
   7   2.0000     -10.300335      -280.2864
   8   2.0000     -10.295115      -280.1443
   9   2.0000     -10.293868      -280.1104
  10   2.0000     -10.293838      -280.1096
  11   2.0000     -10.292497      -280.0731
  12   2.0000     -10.290126      -280.0086
  13   2.0000     -10.287708      -279.9428
  14   2.0000     -10.282131      -279.7910
  15   2.0000     -10.281542      -279.7750
  16   2.0000      -8.082444      -219.9345
  17   2.0000      -8.080853      -219.8912
  18   2.0000      -6.041252      -164.3908
  19   2.0000      -6.039721      -164.3492
  20   2.0000      -6.037520      -164.2893
  21   2.0000      -6.035722      -164.2403
  22   2.0000      -6.032597      -164.1553
  23   2.0000      -6.031177      -164.1167
  24   2.0000      -1.000436       -27.2233
  25   2.0000      -0.978266       -26.6200
  26   2.0000      -0.917429       -24.9645
  27   2.0000      -0.909441       -24.7471
  28   2.0000      -0.869597       -23.6629
  29   2.0000      -0.854301       -23.2467
  30   2.0000      -0.846145       -23.0248
  31   2.0000      -0.823923       -22.4201
  32   2.0000      -0.780983       -21.2516
  33   2.0000      -0.769443       -20.9376
  34   2.0000      -0.709064       -19.2946
  35   2.0000      -0.702997       -19.1295
  36   2.0000      -0.690273       -18.7833
  37   2.0000      -0.661610       -18.0033
  38   2.0000      -0.637221       -17.3397
  39   2.0000      -0.612136       -16.6571
  40   2.0000      -0.593719       -16.1559
  41   2.0000      -0.574314       -15.6279
  42   2.0000      -0.569613       -15.5000
  43   2.0000      -0.552673       -15.0390
  44   2.0000      -0.541141       -14.7252
  45   2.0000      -0.521294       -14.1851
  46   2.0000      -0.519151       -14.1268
  47   2.0000      -0.512333       -13.9413
  48   2.0000      -0.503917       -13.7123
  49   2.0000      -0.495465       -13.4823
  50   2.0000      -0.490412       -13.3448
  51   2.0000      -0.484250       -13.1771
  52   2.0000      -0.473967       -12.8973
  53   2.0000      -0.466668       -12.6987
  54   2.0000      -0.456384       -12.4188
  55   2.0000      -0.453836       -12.3495
  56   2.0000      -0.444900       -12.1063
  57   2.0000      -0.434897       -11.8342
  58   2.0000      -0.428332       -11.6555
  59   2.0000      -0.426831       -11.6147
  60   2.0000      -0.419559       -11.4168
  61   2.0000      -0.415138       -11.2965
  62   2.0000      -0.403902       -10.9907
  63   2.0000      -0.361676        -9.8417
  64   2.0000      -0.337561        -9.1855
  65   2.0000      -0.324122        -8.8198
  66   2.0000      -0.285288        -7.7631
  67   0.0000       0.020240         0.5507
  68   0.0000       0.067262         1.8303
  69   0.0000       0.092377         2.5137
  70   0.0000       0.118145         3.2149
  71   0.0000       0.122867         3.3434

MULLIKEN ATOMIC CHARGES
-----------------------
   0 S :    0.094174
   1 C :   -0.087335
   2 C :   -0.090273
   3 C :    0.020381
   4 C :   -0.098687
   5 H :   -0.021427
   6 C :    0.064084
   7 H :    0.042949
   8 H :   -0.002512
   9 C :   -0.051072
  10 H :    0.022738
  11 H :    0.027819
  12 C :   -0.071442
  13 H :    0.032941
  14 H :    0.029282
  15 H :    0.044944
  16 S :    0.075009
  17 C :   -0.093778
  18 C :   -0.025140
  19 C :   -0.082194
  20 C :   -0.096694
  21 H :    0.028664
  22 C :    0.068645
  23 H :    0.036243
  24 H :    0.006364
  25 C :   -0.101602
  26 H :    0.032501
  27 H :    0.051842
  28 C :   -0.049415
  29 H :    0.034822
  30 H :    0.015290
  31 H :    0.035097
  32 H :    0.041592
  33 H :    0.066190
Sum of atomic charges:    0.0000000

LOEWDIN ATOMIC CHARGES
----------------------
   0 S :    0.359716
   1 C :   -0.186865
   2 C :   -0.057804
   3 C :   -0.064096
   4 C :   -0.156584
   5 H :    0.032426
   6 C :   -0.035771
   7 H :    0.043541
   8 H :    0.023597
   9 C :   -0.042198
  10 H :    0.025842
  11 H :    0.020102
  12 C :   -0.074422
  13 H :    0.027193
  14 H :    0.033646
  15 H :    0.025021
  16 S :    0.361073
  17 C :   -0.168873
  18 C :   -0.071827
  19 C :   -0.055386
  20 C :   -0.185795
  21 H :    0.039324
  22 C :   -0.033960
  23 H :    0.034927
  24 H :    0.022728
  25 C :   -0.052284
  26 H :    0.028871
  27 H :    0.032186
  28 C :   -0.072272
  29 H :    0.030427
  30 H :    0.013558
  31 H :    0.031272
  32 H :    0.028851
  33 H :    0.043836

  Mayer bond orders larger than 0.100000
B(  0-S ,  1-C ) :   1.0964 B(  0-S ,  4-C ) :   1.1169 B(  1-C ,  2-C ) :   1.6737
B(  1-C , 32-H ) :   0.9648 B(  2-C ,  3-C ) :   1.1602 B(  2-C ,  6-C ) :   1.0250
B(  3-C ,  4-C ) :   1.6375 B(  3-C ,  5-H ) :   0.9944 B(  4-C , 20-C ) :   1.0340
B(  6-C ,  7-H ) :   0.9395 B(  6-C ,  8-H ) :   0.9368 B(  6-C ,  9-C ) :   1.0692
B(  9-C , 10-H ) :   0.9532 B(  9-C , 11-H ) :   0.9595 B(  9-C , 12-C ) :   1.0682
B( 12-C , 13-H ) :   0.9710 B( 12-C , 14-H ) :   0.9717 B( 12-C , 15-H ) :   0.9776
B( 16-S , 17-C ) :   1.1096 B( 16-S , 20-C ) :   1.1167 B( 17-C , 18-C ) :   1.6987
B( 17-C , 33-H ) :   0.9503 B( 18-C , 19-C ) :   1.1976 B( 18-C , 21-H ) :   0.9801
B( 19-C , 20-C ) :   1.6201 B( 19-C , 22-C ) :   1.0537 B( 22-C , 23-H ) :   0.9516
B( 22-C , 24-H ) :   0.9218 B( 22-C , 25-C ) :   1.0348 B( 25-C , 26-H ) :   0.9477
B( 25-C , 27-H ) :   0.9586 B( 25-C , 28-C ) :   1.0928 B( 28-C , 29-H ) :   0.9698
B( 28-C , 30-H ) :   0.9742 B( 28-C , 31-H ) :   0.9669

Dispersion correction           -0.014692675
FINAL SINGLE POINT ENERGY     -1339.850864073040

DIPOLE MOMENT
-------------
                                X             Y             Z
Electronic contribution:      1.35682     -26.24571     -13.08003
Nuclear contribution   :     -1.23631      26.82749      13.67948
                        -----------------------------------------
Total Dipole Moment    :      0.12051       0.58178       0.59945
                        -----------------------------------------
Magnitude (a.u.)       :      0.84400
Magnitude (Debye)      :      2.14527

Rotational constants in cm-1:     0.017576     0.009651     0.006985
Rotational constants in MHz :   526.920084   289.333469   209.415355

                             ****ORCA TERMINATED NORMALLY****
TOTAL RUN TIME: 0 days 0 hours 0 minutes 22 seconds 234 msec
