                         Program Version 4.2.1 -  RELEASE  -
|  1> ! wB97X-D3 SP def2-SVP
|  2> %pal
|  3> nprocs 24
|  4> end
|  5>
|  6> * xyz 0 1
|  7> S 	 -62.2686 	 0.536393 	 -19.5541
|  8> C 	 -63.6124 	 1.43183 	 -20.235
|  9> C 	 -63.2634 	 1.98963 	 -21.4889
| 10> C 	 -61.9563 	 1.57033 	 -21.9754
| 11> C 	 -61.2936 	 0.775773 	 -21.0311
| 12> H 	 -61.4435 	 1.90187 	 -22.8986
| 13> C 	 -64.1037 	 2.9461 	 -22.3546
| 14> H 	 -63.5681 	 2.89829 	 -23.2848
| 15> H 	 -63.952 	 3.99206 	 -21.9691
| 16> C 	 -65.5615 	 2.63509 	 -22.3319
| 17> H 	 -65.7327 	 1.55692 	 -22.2844
| 18> H 	 -65.9749 	 2.9217 	 -21.4092
| 19> C 	 -66.3242 	 3.37703 	 -23.4356
| 20> H 	 -66.0008 	 4.44 	 -23.3654
| 21> H 	 -66.0127 	 3.00545 	 -24.4004
| 22> H 	 -67.3899 	 3.16992 	 -23.2154
| 23> S 	 -58.9416 	 1.52538 	 -19.9122
| 24> C 	 -57.4763 	 0.649677 	 -20.3171
| 25> C 	 -57.6978 	 -0.374655 	 -21.1737
| 26> C 	 -59.0412 	 -0.342054 	 -21.6501
| 27> C 	 -59.8645 	 0.473174 	 -20.9277
| 28> H 	 -56.9684 	 -0.965942 	 -21.581
| 29> C 	 -59.4046 	 -1.23919 	 -22.8208
| 30> H 	 -58.5374 	 -1.69952 	 -23.2301
| 31> H 	 -59.8544 	 -0.575957 	 -23.5896
| 32> C 	 -60.4634 	 -2.34197 	 -22.4904
| 33> H 	 -61.4831 	 -1.9869 	 -22.2479
| 34> H 	 -60.0064 	 -2.83743 	 -21.578
| 35> C 	 -60.7196 	 -3.40567 	 -23.6847
| 36> H 	 -61.252 	 -3.05048 	 -24.5791
| 37> H 	 -61.4321 	 -4.07209 	 -23.1621
| 38> H 	 -59.7769 	 -3.96873 	 -23.9955
| 39> H 	 -64.5915 	 1.58061 	 -19.7468
| 40> H 	 -56.4556 	 0.980841 	 -20.1186
| 41> *
| 42>
| 43>                          ****END OF INPUT****

CARTESIAN COORDINATES (ANGSTROEM)
---------------------------------
  S    -62.268600    0.536393  -19.554100
  C    -63.612400    1.431830  -20.235000
  C    -63.263400    1.989630  -21.488900
  C    -61.956300    1.570330  -21.975400
  C    -61.293600    0.775773  -21.031100
  H    -61.443500    1.901870  -22.898600
  C    -64.103700    2.946100  -22.354600
  H    -63.568100    2.898290  -23.284800
  H    -63.952000    3.992060  -21.969100
  C    -65.561500    2.635090  -22.331900
  H    -65.732700    1.556920  -22.284400
  H    -65.974900    2.921700  -21.409200
  C    -66.324200    3.377030  -23.435600
  H    -66.000800    4.440000  -23.365400
  H    -66.012700    3.005450  -24.400400
  H    -67.389900    3.169920  -23.215400
  S    -58.941600    1.525380  -19.912200
  C    -57.476300    0.649677  -20.317100
  C    -57.697800   -0.374655  -21.173700
  C    -59.041200   -0.342054  -21.650100
  C    -59.864500    0.473174  -20.927700
  H    -56.968400   -0.965942  -21.581000
  C    -59.404600   -1.239190  -22.820800
  H    -58.537400   -1.699520  -23.230100
  H    -59.854400   -0.575957  -23.589600
  C    -60.463400   -2.341970  -22.490400
  H    -61.483100   -1.986900  -22.247900
  H    -60.006400   -2.837430  -21.578000
  C    -60.719600   -3.405670  -23.684700
  H    -61.252000   -3.050480  -24.579100
  H    -61.432100   -4.072090  -23.162100
  H    -59.776900   -3.968730  -23.995500
  H    -64.591500    1.580610  -19.746800
  H    -56.455600    0.980841  -20.118600

 Total Charge           Charge          ....    0
 Multiplicity           Mult            ....    1
 Number of Electrons    NEL             ....  134
 Basis Dimension        Dim             ....  322

ORBITAL ENERGIES
----------------

  NO   OCC          E(Eh)            E(eV)
   0   2.0000     -88.967315     -2420.9237
   1   2.0000     -88.963279     -2420.8139
   2   2.0000     -10.333074      -281.1772
   3   2.0000     -10.319294      -280.8023
   4   2.0000     -10.319114      -280.7974
   5   2.0000     -10.313641      -280.6484
   6   2.0000     -10.307110      -280.4707
   7   2.0000     -10.303355      -280.3685
   8   2.0000     -10.296776      -280.1895
   9   2.0000     -10.295347      -280.1506
  10   2.0000     -10.291808      -280.0543
  11   2.0000     -10.289102      -279.9807
  12   2.0000     -10.287999      -279.9507
  13   2.0000     -10.282890      -279.8117
  14   2.0000     -10.282863      -279.8109
  15   2.0000     -10.278915      -279.7035
  16   2.0000      -8.081182      -219.9001
  17   2.0000      -8.078464      -219.8262
  18   2.0000      -6.039714      -164.3490
  19   2.0000      -6.037000      -164.2751
  20   2.0000      -6.035760      -164.2414
  21   2.0000      -6.032964      -164.1653
  22   2.0000      -6.032017      -164.1395
  23   2.0000      -6.029088      -164.0598
  24   2.0000      -1.007378       -27.4121
  25   2.0000      -0.978566       -26.6281
  26   2.0000      -0.916450       -24.9379
  27   2.0000      -0.896276       -24.3889
  28   2.0000      -0.869477       -23.6597
  29   2.0000      -0.848201       -23.0807
  30   2.0000      -0.840147       -22.8616
  31   2.0000      -0.812166       -22.1002
  32   2.0000      -0.777695       -21.1622
  33   2.0000      -0.765310       -20.8251
  34   2.0000      -0.711567       -19.3627
  35   2.0000      -0.697796       -18.9880
  36   2.0000      -0.682330       -18.5671
  37   2.0000      -0.667746       -18.1703
  38   2.0000      -0.639347       -17.3975
  39   2.0000      -0.611117       -16.6293
  40   2.0000      -0.592555       -16.1242
  41   2.0000      -0.569357       -15.4930
  42   2.0000      -0.565428       -15.3861
  43   2.0000      -0.556097       -15.1322
  44   2.0000      -0.531254       -14.4562
  45   2.0000      -0.521471       -14.1900
  46   2.0000      -0.517338       -14.0775
  47   2.0000      -0.503614       -13.7040
  48   2.0000      -0.499393       -13.5892
  49   2.0000      -0.495543       -13.4844
  50   2.0000      -0.488349       -13.2887
  51   2.0000      -0.482110       -13.1189
  52   2.0000      -0.476763       -12.9734
  53   2.0000      -0.460873       -12.5410
  54   2.0000      -0.456751       -12.4288
  55   2.0000      -0.454189       -12.3591
  56   2.0000      -0.443521       -12.0688
  57   2.0000      -0.436173       -11.8689
  58   2.0000      -0.429905       -11.6983
  59   2.0000      -0.418081       -11.3766
  60   2.0000      -0.416739       -11.3400
  61   2.0000      -0.415068       -11.2946
  62   2.0000      -0.410101       -11.1594
  63   2.0000      -0.345546        -9.4028
  64   2.0000      -0.326039        -8.8720
  65   2.0000      -0.321661        -8.7529
  66   2.0000      -0.296692        -8.0734
  67   0.0000       0.039386         1.0718
  68   0.0000       0.054499         1.4830
  69   0.0000       0.116249         3.1633
  70   0.0000       0.119099         3.2408
  71   0.0000       0.125190         3.4066

MULLIKEN ATOMIC CHARGES
-----------------------
   0 S :    0.110121
   1 C :   -0.133815
   2 C :   -0.136182
   3 C :    0.042553
   4 C :   -0.178168
   5 H :    0.036426
   6 C :    0.087180
   7 H :    0.010245
   8 H :    0.047182
   9 C :   -0.091303
  10 H :    0.027212
  11 H :    0.011700
  12 C :   -0.029017
  13 H :    0.035452
  14 H :    0.031561
  15 H :    0.046319
  16 S :    0.119475
  17 C :   -0.085736
  18 C :    0.012569
  19 C :   -0.069185
  20 C :   -0.155267
  21 H :   -0.016684
  22 C :    0.116417
  23 H :    0.003613
  24 H :    0.027849
  25 C :   -0.127639
  26 H :    0.053096
  27 H :    0.042574
  28 C :   -0.090545
  29 H :    0.044636
  30 H :    0.041554
  31 H :    0.045050
  32 H :    0.063067
  33 H :    0.057690
Sum of atomic charges:   -0.0000000

LOEWDIN ATOMIC CHARGES
----------------------
   0 S :    0.399043
   1 C :   -0.213625
   2 C :   -0.057986
   3 C :   -0.064208
   4 C :   -0.185235
   5 H :    0.040204
   6 C :   -0.033739
   7 H :    0.024299
   8 H :    0.041178
   9 C :   -0.048242
  10 H :    0.023526
  11 H :    0.016457
  12 C :   -0.058009
  13 H :    0.030435
  14 H :    0.021424
  15 H :    0.032666
  16 S :    0.415534
  17 C :   -0.178419
  18 C :   -0.062582
  19 C :   -0.053471
  20 C :   -0.219761
  21 H :    0.017294
  22 C :   -0.032483
  23 H :    0.022275
  24 H :    0.033640
  25 C :   -0.040147
  26 H :    0.028660
  27 H :    0.030168
  28 C :   -0.080677
  29 H :    0.025335
  30 H :    0.031178
  31 H :    0.028863
  32 H :    0.034125
  33 H :    0.032280

  Mayer bond orders larger than 0.100000
B(  0-S ,  1-C ) :   1.1339 B(  0-S ,  4-C ) :   1.1567 B(  1-C ,  2-C ) :   1.6031
B(  1-C ,  4-C ) :   0.1002 B(  1-C , 32-H ) :   0.9666 B(  2-C ,  3-C ) :   1.2439
B(  2-C ,  6-C ) :   1.0133 B(  3-C ,  4-C ) :   1.5849 B(  3-C ,  5-H ) :   0.9806
B(  4-C , 20-C ) :   1.0034 B(  6-C ,  7-H ) :   0.9478 B(  6-C ,  8-H ) :   0.9221
B(  6-C ,  9-C ) :   1.0730 B(  9-C , 10-H ) :   0.9620 B(  9-C , 11-H ) :   0.9412
B(  9-C , 12-C ) :   1.0804 B( 12-C , 13-H ) :   0.9709 B( 12-C , 14-H ) :   0.9795
B( 12-C , 15-H ) :   0.9743 B( 16-S , 17-C ) :   1.1574 B( 16-S , 20-C ) :   1.1356
B( 17-C , 18-C ) :   1.6136 B( 17-C , 33-H ) :   0.9624 B( 18-C , 19-C ) :   1.2419
B( 18-C , 21-H ) :   0.9989 B( 19-C , 20-C ) :   1.6222 B( 19-C , 22-C ) :   1.0537
B( 22-C , 23-H ) :   0.9349 B( 22-C , 24-H ) :   0.9255 B( 22-C , 25-C ) :   1.0549
B( 25-C , 26-H ) :   0.9568 B( 25-C , 27-H ) :   0.9601 B( 25-C , 28-C ) :   1.0635
B( 28-C , 29-H ) :   0.9772 B( 28-C , 30-H ) :   0.9778 B( 28-C , 31-H ) :   0.9758

Dispersion correction           -0.013848857
FINAL SINGLE POINT ENERGY     -1339.863636640553

DIPOLE MOMENT
-------------
                                X             Y             Z
Electronic contribution:     15.68765       4.86374      20.29446
Nuclear contribution   :    -15.77567      -4.73064     -20.85622
                        -----------------------------------------
Total Dipole Moment    :     -0.08802       0.13310      -0.56176
                        -----------------------------------------
Magnitude (a.u.)       :      0.58399
Magnitude (Debye)      :      1.48438

Rotational constants in cm-1:     0.019134     0.007770     0.006410
Rotational constants in MHz :   573.608976   232.923967   192.155630

                             ****ORCA TERMINATED NORMALLY****
TOTAL RUN TIME: 0 days 0 hours 0 minutes 20 seconds 935 msec
