                         Program Version 4.2.1 -  RELEASE  -
|  1> ! wB97X-D3 SP def2-SVP
|  2> %pal
|  3> nprocs 24
|  4> end
|  5>
|  6> * xyz 0 1
|  7> S 	 21.285 	 1.24897 	 -112.115
|  8> C 	 20.4785 	 0.35532 	 -110.807
|  9> C 	 19.0868 	 0.350478 	 -111.003
| 10> C 	 18.6526 	 1.31071 	 -112.039
| 11> C 	 19.7245 	 1.84995 	 -112.759
| 12> H 	 17.6184 	 1.56818 	 -112.337
| 13> C 	 18.0793 	 -0.427873 	 -110.168
| 14> H 	 17.1482 	 0.0719556 	 -110.037
| 15> H 	 18.5522 	 -0.650262 	 -109.232
| 16> C 	 17.7171 	 -1.86526 	 -110.68
| 17> H 	 17.2783 	 -2.51705 	 -109.855
| 18> H 	 17.0801 	 -1.7191 	 -111.525
| 19> C 	 19.013 	 -2.56096 	 -111.151
| 20> H 	 18.7902 	 -3.57982 	 -111.418
| 21> H 	 19.5904 	 -2.13441 	 -112.016
| 22> H 	 19.722 	 -2.72046 	 -110.358
| 23> S 	 20.0957 	 4.44157 	 -113.731
| 24> C 	 19.5841 	 4.7748 	 -115.43
| 25> C 	 18.8829 	 3.77373 	 -115.957
| 26> C 	 18.7712 	 2.61605 	 -115.079
| 27> C 	 19.5944 	 2.72717 	 -113.923
| 28> H 	 18.5424 	 3.90649 	 -116.924
| 29> C 	 18.038 	 1.3149 	 -115.513
| 30> H 	 17.4552 	 1.75236 	 -116.376
| 31> H 	 17.3017 	 1.1289 	 -114.749
| 32> C 	 18.9615 	 0.104095 	 -115.821
| 33> H 	 19.8314 	 0.0824215 	 -115.214
| 34> H 	 19.3992 	 0.0498918 	 -116.873
| 35> C 	 18.1109 	 -1.16844 	 -115.794
| 36> H 	 18.7583 	 -2.01792 	 -116.128
| 37> H 	 17.1757 	 -1.18254 	 -116.351
| 38> H 	 17.756 	 -1.38321 	 -114.753
| 39> H 	 20.8358 	 -0.22568 	 -109.998
| 40> H 	 19.7373 	 5.68173 	 -115.946
| 41> *
| 42>
| 43>                          ****END OF INPUT****

CARTESIAN COORDINATES (ANGSTROEM)
---------------------------------
  S     21.285000    1.248970  -112.115000
  C     20.478500    0.355320  -110.807000
  C     19.086800    0.350478  -111.003000
  C     18.652600    1.310710  -112.039000
  C     19.724500    1.849950  -112.759000
  H     17.618400    1.568180  -112.337000
  C     18.079300   -0.427873  -110.168000
  H     17.148200    0.071956  -110.037000
  H     18.552200   -0.650262  -109.232000
  C     17.717100   -1.865260  -110.680000
  H     17.278300   -2.517050  -109.855000
  H     17.080100   -1.719100  -111.525000
  C     19.013000   -2.560960  -111.151000
  H     18.790200   -3.579820  -111.418000
  H     19.590400   -2.134410  -112.016000
  H     19.722000   -2.720460  -110.358000
  S     20.095700    4.441570  -113.731000
  C     19.584100    4.774800  -115.430000
  C     18.882900    3.773730  -115.957000
  C     18.771200    2.616050  -115.079000
  C     19.594400    2.727170  -113.923000
  H     18.542400    3.906490  -116.924000
  C     18.038000    1.314900  -115.513000
  H     17.455200    1.752360  -116.376000
  H     17.301700    1.128900  -114.749000
  C     18.961500    0.104095  -115.821000
  H     19.831400    0.082421  -115.214000
  H     19.399200    0.049892  -116.873000
  C     18.110900   -1.168440  -115.794000
  H     18.758300   -2.017920  -116.128000
  H     17.175700   -1.182540  -116.351000
  H     17.756000   -1.383210  -114.753000
  H     20.835800   -0.225680  -109.998000
  H     19.737300    5.681730  -115.946000

 Total Charge           Charge          ....    0
 Multiplicity           Mult            ....    1
 Number of Electrons    NEL             ....  134
 Basis Dimension        Dim             ....  322

ORBITAL ENERGIES
----------------

  NO   OCC          E(Eh)            E(eV)
   0   2.0000     -88.972150     -2421.0553
   1   2.0000     -88.961440     -2420.7639
   2   2.0000     -10.336462      -281.2694
   3   2.0000     -10.332731      -281.1679
   4   2.0000     -10.319173      -280.7990
   5   2.0000     -10.314183      -280.6632
   6   2.0000     -10.313362      -280.6408
   7   2.0000     -10.309932      -280.5475
   8   2.0000     -10.304998      -280.4133
   9   2.0000     -10.299624      -280.2670
  10   2.0000     -10.294397      -280.1248
  11   2.0000     -10.291352      -280.0419
  12   2.0000     -10.289628      -279.9950
  13   2.0000     -10.288936      -279.9762
  14   2.0000     -10.281175      -279.7650
  15   2.0000     -10.273560      -279.5578
  16   2.0000      -8.085092      -220.0065
  17   2.0000      -8.074960      -219.7308
  18   2.0000      -6.043854      -164.4616
  19   2.0000      -6.039825      -164.3520
  20   2.0000      -6.035685      -164.2393
  21   2.0000      -6.033659      -164.1842
  22   2.0000      -6.029836      -164.0802
  23   2.0000      -6.025381      -163.9589
  24   2.0000      -0.993823       -27.0433
  25   2.0000      -0.973007       -26.4769
  26   2.0000      -0.909410       -24.7463
  27   2.0000      -0.901489       -24.5308
  28   2.0000      -0.869565       -23.6621
  29   2.0000      -0.843644       -22.9567
  30   2.0000      -0.838828       -22.8257
  31   2.0000      -0.815988       -22.2042
  32   2.0000      -0.781754       -21.2726
  33   2.0000      -0.765648       -20.8343
  34   2.0000      -0.712174       -19.3792
  35   2.0000      -0.696988       -18.9660
  36   2.0000      -0.694075       -18.8868
  37   2.0000      -0.659092       -17.9348
  38   2.0000      -0.637189       -17.3388
  39   2.0000      -0.614533       -16.7223
  40   2.0000      -0.590149       -16.0588
  41   2.0000      -0.571023       -15.5383
  42   2.0000      -0.560042       -15.2395
  43   2.0000      -0.555417       -15.1137
  44   2.0000      -0.541102       -14.7241
  45   2.0000      -0.529975       -14.4213
  46   2.0000      -0.510444       -13.8899
  47   2.0000      -0.504592       -13.7307
  48   2.0000      -0.503587       -13.7033
  49   2.0000      -0.497144       -13.5280
  50   2.0000      -0.488944       -13.3049
  51   2.0000      -0.477969       -13.0062
  52   2.0000      -0.464667       -12.6442
  53   2.0000      -0.460855       -12.5405
  54   2.0000      -0.457327       -12.4445
  55   2.0000      -0.451147       -12.2763
  56   2.0000      -0.444237       -12.0883
  57   2.0000      -0.434727       -11.8295
  58   2.0000      -0.431742       -11.7483
  59   2.0000      -0.424183       -11.5426
  60   2.0000      -0.418738       -11.3944
  61   2.0000      -0.412168       -11.2157
  62   2.0000      -0.406124       -11.0512
  63   2.0000      -0.343490        -9.3468
  64   2.0000      -0.327624        -8.9151
  65   2.0000      -0.322784        -8.7834
  66   2.0000      -0.299899        -8.1607
  67   0.0000       0.023220         0.6318
  68   0.0000       0.062104         1.6899
  69   0.0000       0.105566         2.8726
  70   0.0000       0.111267         3.0277
  71   0.0000       0.118782         3.2322

MULLIKEN ATOMIC CHARGES
-----------------------
   0 S :    0.116417
   1 C :   -0.078894
   2 C :   -0.138510
   3 C :    0.038893
   4 C :   -0.171237
   5 H :    0.032694
   6 C :    0.091922
   7 H :    0.024642
   8 H :    0.011702
   9 C :   -0.078117
  10 H :    0.052964
  11 H :    0.029456
  12 C :   -0.077835
  13 H :    0.018728
  14 H :    0.062933
  15 H :    0.011755
  16 S :    0.081240
  17 C :   -0.062598
  18 C :   -0.000609
  19 C :   -0.066178
  20 C :   -0.147230
  21 H :   -0.006384
  22 C :    0.075683
  23 H :    0.028913
  24 H :    0.020796
  25 C :   -0.036947
  26 H :    0.036879
  27 H :    0.037625
  28 C :   -0.083661
  29 H :    0.039618
  30 H :    0.035027
  31 H :    0.029182
  32 H :    0.033425
  33 H :    0.037706
Sum of atomic charges:    0.0000000

LOEWDIN ATOMIC CHARGES
----------------------
   0 S :    0.384774
   1 C :   -0.186208
   2 C :   -0.054477
   3 C :   -0.056758
   4 C :   -0.192546
   5 H :    0.036814
   6 C :   -0.030617
   7 H :    0.025566
   8 H :    0.026062
   9 C :   -0.033734
  10 H :    0.037426
  11 H :    0.017268
  12 C :   -0.077424
  13 H :    0.020805
  14 H :    0.035058
  15 H :    0.017077
  16 S :    0.357307
  17 C :   -0.148906
  18 C :   -0.068821
  19 C :   -0.043577
  20 C :   -0.192777
  21 H :    0.023753
  22 C :   -0.032705
  23 H :    0.038149
  24 H :    0.025657
  25 C :   -0.037488
  26 H :    0.022425
  27 H :    0.035875
  28 C :   -0.072853
  29 H :    0.029793
  30 H :    0.024525
  31 H :    0.023017
  32 H :    0.024786
  33 H :    0.022754

  Mayer bond orders larger than 0.100000
B(  0-S ,  1-C ) :   1.1204 B(  0-S ,  4-C ) :   1.1234 B(  1-C ,  2-C ) :   1.6288
B(  1-C , 32-H ) :   0.9669 B(  2-C ,  3-C ) :   1.2000 B(  2-C ,  6-C ) :   1.0434
B(  3-C ,  4-C ) :   1.5981 B(  3-C ,  5-H ) :   0.9848 B(  4-C , 20-C ) :   1.0462
B(  6-C ,  7-H ) :   0.9492 B(  6-C ,  8-H ) :   0.9371 B(  6-C ,  9-C ) :   1.0578
B(  9-C , 10-H ) :   0.9581 B(  9-C , 11-H ) :   0.9568 B(  9-C , 12-C ) :   1.0849
B( 12-C , 13-H ) :   0.9708 B( 12-C , 14-H ) :   0.9667 B( 12-C , 15-H ) :   0.9739
B( 16-S , 17-C ) :   1.1248 B( 16-S , 20-C ) :   1.1211 B( 17-C , 18-C ) :   1.6765
B( 17-C , 33-H ) :   0.9660 B( 18-C , 19-C ) :   1.1990 B( 18-C , 21-H ) :   0.9974
B( 19-C , 20-C ) :   1.6015 B( 19-C , 22-C ) :   1.0253 B( 22-C , 23-H ) :   0.9344
B( 22-C , 24-H ) :   0.9398 B( 22-C , 25-C ) :   1.0431 B( 25-C , 26-H ) :   0.9618
B( 25-C , 27-H ) :   0.9564 B( 25-C , 28-C ) :   1.0709 B( 28-C , 29-H ) :   0.9750
B( 28-C , 30-H ) :   0.9747 B( 28-C , 31-H ) :   0.9757

Dispersion correction           -0.015685060
FINAL SINGLE POINT ENERGY     -1339.851656143452

DIPOLE MOMENT
-------------
                                X             Y             Z
Electronic contribution:     13.93120      25.97837       2.10176
Nuclear contribution   :    -14.53407     -26.42859      -2.30833
                        -----------------------------------------
Total Dipole Moment    :     -0.60287      -0.45022      -0.20658
                        -----------------------------------------
Magnitude (a.u.)       :      0.78027
Magnitude (Debye)      :      1.98330

Rotational constants in cm-1:     0.019876     0.009414     0.007375
Rotational constants in MHz :   595.871281   282.219563   221.085802

                             ****ORCA TERMINATED NORMALLY****
TOTAL RUN TIME: 0 days 0 hours 0 minutes 22 seconds 759 msec
