                         Program Version 4.2.1 -  RELEASE  -
|  1> ! wB97X-D3 SP def2-SVP
|  2> %pal
|  3> nprocs 24
|  4> end
|  5>
|  6> * xyz 0 1
|  7> S 	 33.4534 	 -31.1818 	 -115.642
|  8> C 	 34.686 	 -29.8775 	 -115.299
|  9> C 	 35.8089 	 -30.0259 	 -116.05
| 10> C 	 35.6439 	 -31.0563 	 -117.028
| 11> C 	 34.4513 	 -31.7623 	 -116.976
| 12> H 	 36.3763 	 -31.2866 	 -117.822
| 13> C 	 37.0138 	 -29.196 	 -116.129
| 14> H 	 36.7644 	 -28.2073 	 -115.918
| 15> H 	 37.4146 	 -29.0276 	 -117.125
| 16> C 	 38.114 	 -29.6051 	 -115.084
| 17> H 	 38.2664 	 -30.6908 	 -114.997
| 18> H 	 38.9881 	 -29.0566 	 -115.428
| 19> C 	 37.7425 	 -29.139 	 -113.746
| 20> H 	 38.4887 	 -29.2565 	 -113.041
| 21> H 	 37.4946 	 -27.9955 	 -113.742
| 22> H 	 36.8064 	 -29.6957 	 -113.421
| 23> S 	 32.6595 	 -32.6194 	 -118.794
| 24> C 	 32.7005 	 -34.2549 	 -119.429
| 25> C 	 33.9399 	 -34.7961 	 -119.24
| 26> C 	 34.7498 	 -33.9724 	 -118.369
| 27> C 	 34.0734 	 -32.8248 	 -117.917
| 28> H 	 34.1529 	 -35.7603 	 -119.773
| 29> C 	 36.1487 	 -34.3316 	 -117.919
| 30> H 	 36.1231 	 -35.4191 	 -117.741
| 31> H 	 36.3788 	 -33.8756 	 -117.002
| 32> C 	 37.2196 	 -33.8821 	 -118.924
| 33> H 	 37.1582 	 -32.914 	 -119.326
| 34> H 	 37.1508 	 -34.5248 	 -119.791
| 35> C 	 38.5845 	 -34.0878 	 -118.269
| 36> H 	 38.6434 	 -35.142 	 -118.124
| 37> H 	 38.5849 	 -33.5528 	 -117.268
| 38> H 	 39.5259 	 -33.7219 	 -118.766
| 39> H 	 34.6649 	 -29.3443 	 -114.385
| 40> H 	 32.054 	 -34.4347 	 -120.236
| 41> *
| 42>
| 43>                          ****END OF INPUT****

CARTESIAN COORDINATES (ANGSTROEM)
---------------------------------
  S     33.453400  -31.181800  -115.642000
  C     34.686000  -29.877500  -115.299000
  C     35.808900  -30.025900  -116.050000
  C     35.643900  -31.056300  -117.028000
  C     34.451300  -31.762300  -116.976000
  H     36.376300  -31.286600  -117.822000
  C     37.013800  -29.196000  -116.129000
  H     36.764400  -28.207300  -115.918000
  H     37.414600  -29.027600  -117.125000
  C     38.114000  -29.605100  -115.084000
  H     38.266400  -30.690800  -114.997000
  H     38.988100  -29.056600  -115.428000
  C     37.742500  -29.139000  -113.746000
  H     38.488700  -29.256500  -113.041000
  H     37.494600  -27.995500  -113.742000
  H     36.806400  -29.695700  -113.421000
  S     32.659500  -32.619400  -118.794000
  C     32.700500  -34.254900  -119.429000
  C     33.939900  -34.796100  -119.240000
  C     34.749800  -33.972400  -118.369000
  C     34.073400  -32.824800  -117.917000
  H     34.152900  -35.760300  -119.773000
  C     36.148700  -34.331600  -117.919000
  H     36.123100  -35.419100  -117.741000
  H     36.378800  -33.875600  -117.002000
  C     37.219600  -33.882100  -118.924000
  H     37.158200  -32.914000  -119.326000
  H     37.150800  -34.524800  -119.791000
  C     38.584500  -34.087800  -118.269000
  H     38.643400  -35.142000  -118.124000
  H     38.584900  -33.552800  -117.268000
  H     39.525900  -33.721900  -118.766000
  H     34.664900  -29.344300  -114.385000
  H     32.054000  -34.434700  -120.236000

 Total Charge           Charge          ....    0
 Multiplicity           Mult            ....    1
 Number of Electrons    NEL             ....  134
 Basis Dimension        Dim             ....  322

ORBITAL ENERGIES
----------------

  NO   OCC          E(Eh)            E(eV)
   0   2.0000     -88.967929     -2420.9404
   1   2.0000     -88.958424     -2420.6818
   2   2.0000     -10.333092      -281.1777
   3   2.0000     -10.323285      -280.9109
   4   2.0000     -10.316406      -280.7237
   5   2.0000     -10.309133      -280.5258
   6   2.0000     -10.305682      -280.4319
   7   2.0000     -10.301569      -280.3199
   8   2.0000     -10.300123      -280.2806
   9   2.0000     -10.293938      -280.1123
  10   2.0000     -10.288057      -279.9523
  11   2.0000     -10.286966      -279.9226
  12   2.0000     -10.286412      -279.9075
  13   2.0000     -10.281729      -279.7801
  14   2.0000     -10.281478      -279.7732
  15   2.0000     -10.280610      -279.7496
  16   2.0000      -8.081289      -219.9030
  17   2.0000      -8.075069      -219.7338
  18   2.0000      -6.039967      -164.3559
  19   2.0000      -6.036098      -164.2506
  20   2.0000      -6.033290      -164.1742
  21   2.0000      -6.031821      -164.1342
  22   2.0000      -6.029402      -164.0684
  23   2.0000      -6.025905      -163.9732
  24   2.0000      -1.009781       -27.4775
  25   2.0000      -0.984827       -26.7985
  26   2.0000      -0.922373       -25.0990
  27   2.0000      -0.914211       -24.8770
  28   2.0000      -0.874532       -23.7972
  29   2.0000      -0.850203       -23.1352
  30   2.0000      -0.848197       -23.0806
  31   2.0000      -0.815552       -22.1923
  32   2.0000      -0.786158       -21.3924
  33   2.0000      -0.768183       -20.9033
  34   2.0000      -0.707003       -19.2385
  35   2.0000      -0.701677       -19.0936
  36   2.0000      -0.696878       -18.9630
  37   2.0000      -0.661493       -18.0001
  38   2.0000      -0.642416       -17.4810
  39   2.0000      -0.623324       -16.9615
  40   2.0000      -0.600941       -16.3524
  41   2.0000      -0.583607       -15.8808
  42   2.0000      -0.571231       -15.5440
  43   2.0000      -0.551518       -15.0076
  44   2.0000      -0.542594       -14.7647
  45   2.0000      -0.527120       -14.3437
  46   2.0000      -0.520151       -14.1540
  47   2.0000      -0.515008       -14.0141
  48   2.0000      -0.505092       -13.7442
  49   2.0000      -0.496964       -13.5231
  50   2.0000      -0.488839       -13.3020
  51   2.0000      -0.481854       -13.1119
  52   2.0000      -0.474103       -12.9010
  53   2.0000      -0.462700       -12.5907
  54   2.0000      -0.459368       -12.5000
  55   2.0000      -0.445992       -12.1361
  56   2.0000      -0.440419       -11.9844
  57   2.0000      -0.437122       -11.8947
  58   2.0000      -0.431301       -11.7363
  59   2.0000      -0.428562       -11.6618
  60   2.0000      -0.426780       -11.6133
  61   2.0000      -0.415179       -11.2976
  62   2.0000      -0.410169       -11.1613
  63   2.0000      -0.348467        -9.4823
  64   2.0000      -0.333518        -9.0755
  65   2.0000      -0.323703        -8.8084
  66   2.0000      -0.296291        -8.0625
  67   0.0000       0.027365         0.7446
  68   0.0000       0.066731         1.8158
  69   0.0000       0.109237         2.9725
  70   0.0000       0.114323         3.1109
  71   0.0000       0.125733         3.4214

MULLIKEN ATOMIC CHARGES
-----------------------
   0 S :    0.099808
   1 C :   -0.109157
   2 C :   -0.063038
   3 C :    0.006975
   4 C :   -0.129449
   5 H :    0.012165
   6 C :    0.077858
   7 H :   -0.003132
   8 H :    0.024159
   9 C :   -0.045376
  10 H :    0.039458
  11 H :    0.027930
  12 C :   -0.072206
  13 H :    0.025002
  14 H :    0.029940
  15 H :    0.039393
  16 S :    0.096181
  17 C :   -0.080572
  18 C :   -0.054187
  19 C :   -0.051283
  20 C :   -0.154964
  21 H :    0.044938
  22 C :    0.072917
  23 H :    0.031882
  24 H :    0.007852
  25 C :   -0.046736
  26 H :    0.025452
  27 H :    0.018291
  28 C :   -0.064204
  29 H :    0.025436
  30 H :    0.031798
  31 H :    0.043539
  32 H :    0.042924
  33 H :    0.050408
Sum of atomic charges:   -0.0000000

LOEWDIN ATOMIC CHARGES
----------------------
   0 S :    0.370880
   1 C :   -0.167153
   2 C :   -0.060504
   3 C :   -0.061987
   4 C :   -0.188112
   5 H :    0.033521
   6 C :   -0.029083
   7 H :    0.023681
   8 H :    0.033324
   9 C :   -0.034579
  10 H :    0.029170
  11 H :    0.024683
  12 C :   -0.068549
  13 H :    0.013462
  14 H :    0.030544
  15 H :    0.030864
  16 S :    0.433437
  17 C :   -0.184841
  18 C :   -0.072379
  19 C :   -0.056380
  20 C :   -0.220380
  21 H :    0.044974
  22 C :   -0.025168
  23 H :    0.035552
  24 H :    0.020205
  25 C :   -0.035431
  26 H :    0.014357
  27 H :    0.022666
  28 C :   -0.070152
  29 H :    0.020748
  30 H :    0.027789
  31 H :    0.029022
  32 H :    0.018872
  33 H :    0.016947

  Mayer bond orders larger than 0.100000
B(  0-S ,  1-C ) :   1.1089 B(  0-S ,  4-C ) :   1.1412 B(  1-C ,  2-C ) :   1.6409
B(  1-C , 32-H ) :   0.9613 B(  2-C ,  3-C ) :   1.2208 B(  2-C ,  6-C ) :   1.0240
B(  3-C ,  4-C ) :   1.5869 B(  3-C ,  5-H ) :   0.9895 B(  4-C , 20-C ) :   1.0253
B(  6-C ,  7-H ) :   0.9312 B(  6-C ,  8-H ) :   0.9463 B(  6-C ,  9-C ) :   1.0540
B(  9-C , 10-H ) :   0.9547 B(  9-C , 11-H ) :   0.9511 B(  9-C , 12-C ) :   1.0954
B( 12-C , 13-H ) :   0.9706 B( 12-C , 14-H ) :   0.9702 B( 12-C , 15-H ) :   0.9672
B( 16-S , 17-C ) :   1.1607 B( 16-S , 20-C ) :   1.1859 B( 17-C , 18-C ) :   1.5974
B( 17-C , 33-H ) :   0.9678 B( 18-C , 19-C ) :   1.2537 B( 18-C , 21-H ) :   0.9849
B( 19-C , 20-C ) :   1.5560 B( 19-C , 22-C ) :   1.0510 B( 22-C , 23-H ) :   0.9336
B( 22-C , 24-H ) :   0.9359 B( 22-C , 25-C ) :   1.0492 B( 25-C , 26-H ) :   0.9590
B( 25-C , 27-H ) :   0.9498 B( 25-C , 28-C ) :   1.0748 B( 28-C , 29-H ) :   0.9738
B( 28-C , 30-H ) :   0.9742 B( 28-C , 31-H ) :   0.9749

Dispersion correction           -0.014784517
FINAL SINGLE POINT ENERGY     -1339.855958224924

DIPOLE MOMENT
-------------
                                X             Y             Z
Electronic contribution:    -29.37634      -2.02344      -4.87266
Nuclear contribution   :     30.20478       2.04380       4.69503
                        -----------------------------------------
Total Dipole Moment    :      0.82844       0.02035      -0.17763
                        -----------------------------------------
Magnitude (a.u.)       :      0.84751
Magnitude (Debye)      :      2.15421

Rotational constants in cm-1:     0.019321     0.009353     0.006772
Rotational constants in MHz :   579.221061   280.400369   203.018901

                             ****ORCA TERMINATED NORMALLY****
TOTAL RUN TIME: 0 days 0 hours 0 minutes 22 seconds 274 msec
