                         Program Version 4.2.1 -  RELEASE  -
|  1> ! wB97X-D3 SP def2-SVP
|  2> %pal
|  3> nprocs 24
|  4> end
|  5>
|  6> * xyz 0 1
|  7> S 	 34.733 	 -31.2446 	 -112.717
|  8> C 	 33.2342 	 -31.9334 	 -112.312
|  9> C 	 33.2017 	 -33.3322 	 -112.549
| 10> C 	 34.4295 	 -33.8086 	 -113.11
| 11> C 	 35.26 	 -32.7567 	 -113.39
| 12> H 	 34.6015 	 -34.8361 	 -113.493
| 13> C 	 32.0438 	 -34.2831 	 -112.387
| 14> H 	 31.8214 	 -34.6475 	 -113.417
| 15> H 	 31.133 	 -33.7635 	 -112.053
| 16> C 	 32.3252 	 -35.5524 	 -111.463
| 17> H 	 32.9277 	 -36.313 	 -111.957
| 18> H 	 32.8719 	 -35.3471 	 -110.555
| 19> C 	 31.003 	 -36.0775 	 -110.865
| 20> H 	 30.1826 	 -36.4166 	 -111.49
| 21> H 	 31.1799 	 -36.9191 	 -110.188
| 22> H 	 30.6179 	 -35.2976 	 -110.208
| 23> S 	 36.8804 	 -33.9389 	 -115.285
| 24> C 	 38.6257 	 -33.6986 	 -115.297
| 25> C 	 38.9628 	 -32.8766 	 -114.232
| 26> C 	 37.8693 	 -32.5065 	 -113.39
| 27> C 	 36.6213 	 -32.8919 	 -113.851
| 28> H 	 40.0041 	 -32.8649 	 -113.973
| 29> C 	 38.0954 	 -31.7305 	 -112.102
| 30> H 	 37.1247 	 -31.3797 	 -111.864
| 31> H 	 38.8104 	 -30.9178 	 -112.251
| 32> C 	 38.5671 	 -32.576 	 -110.92
| 33> H 	 38.6008 	 -32.0315 	 -110.014
| 34> H 	 39.5995 	 -32.873 	 -110.964
| 35> C 	 37.8141 	 -33.9089 	 -110.633
| 36> H 	 36.8484 	 -33.8832 	 -111.066
| 37> H 	 37.7597 	 -34.2205 	 -109.59
| 38> H 	 38.3306 	 -34.7139 	 -111.135
| 39> H 	 32.4358 	 -31.4504 	 -111.762
| 40> H 	 39.4012 	 -34.2368 	 -115.902
| 41> *
| 42>
| 43>                          ****END OF INPUT****

CARTESIAN COORDINATES (ANGSTROEM)
---------------------------------
  S     34.733000  -31.244600  -112.717000
  C     33.234200  -31.933400  -112.312000
  C     33.201700  -33.332200  -112.549000
  C     34.429500  -33.808600  -113.110000
  C     35.260000  -32.756700  -113.390000
  H     34.601500  -34.836100  -113.493000
  C     32.043800  -34.283100  -112.387000
  H     31.821400  -34.647500  -113.417000
  H     31.133000  -33.763500  -112.053000
  C     32.325200  -35.552400  -111.463000
  H     32.927700  -36.313000  -111.957000
  H     32.871900  -35.347100  -110.555000
  C     31.003000  -36.077500  -110.865000
  H     30.182600  -36.416600  -111.490000
  H     31.179900  -36.919100  -110.188000
  H     30.617900  -35.297600  -110.208000
  S     36.880400  -33.938900  -115.285000
  C     38.625700  -33.698600  -115.297000
  C     38.962800  -32.876600  -114.232000
  C     37.869300  -32.506500  -113.390000
  C     36.621300  -32.891900  -113.851000
  H     40.004100  -32.864900  -113.973000
  C     38.095400  -31.730500  -112.102000
  H     37.124700  -31.379700  -111.864000
  H     38.810400  -30.917800  -112.251000
  C     38.567100  -32.576000  -110.920000
  H     38.600800  -32.031500  -110.014000
  H     39.599500  -32.873000  -110.964000
  C     37.814100  -33.908900  -110.633000
  H     36.848400  -33.883200  -111.066000
  H     37.759700  -34.220500  -109.590000
  H     38.330600  -34.713900  -111.135000
  H     32.435800  -31.450400  -111.762000
  H     39.401200  -34.236800  -115.902000

 Total Charge           Charge          ....    0
 Multiplicity           Mult            ....    1
 Number of Electrons    NEL             ....  134
 Basis Dimension        Dim             ....  322

ORBITAL ENERGIES
----------------

  NO   OCC          E(Eh)            E(eV)
   0   2.0000     -88.973738     -2421.0985
   1   2.0000     -88.961761     -2420.7726
   2   2.0000     -10.329503      -281.0801
   3   2.0000     -10.328115      -281.0423
   4   2.0000     -10.322278      -280.8835
   5   2.0000     -10.315548      -280.7003
   6   2.0000     -10.305447      -280.4255
   7   2.0000     -10.301793      -280.3260
   8   2.0000     -10.301237      -280.3109
   9   2.0000     -10.298489      -280.2361
  10   2.0000     -10.293774      -280.1078
  11   2.0000     -10.290276      -280.0127
  12   2.0000     -10.285663      -279.8871
  13   2.0000     -10.279496      -279.7193
  14   2.0000     -10.275682      -279.6155
  15   2.0000     -10.264170      -279.3023
  16   2.0000      -8.088940      -220.1112
  17   2.0000      -8.075622      -219.7488
  18   2.0000      -6.047254      -164.5541
  19   2.0000      -6.043418      -164.4498
  20   2.0000      -6.039836      -164.3523
  21   2.0000      -6.034282      -164.2012
  22   2.0000      -6.030172      -164.0893
  23   2.0000      -6.026350      -163.9853
  24   2.0000      -1.012176       -27.5427
  25   2.0000      -0.982703       -26.7407
  26   2.0000      -0.907769       -24.7017
  27   2.0000      -0.903765       -24.5927
  28   2.0000      -0.872768       -23.7492
  29   2.0000      -0.857846       -23.3432
  30   2.0000      -0.839678       -22.8488
  31   2.0000      -0.813091       -22.1253
  32   2.0000      -0.781809       -21.2741
  33   2.0000      -0.770249       -20.9595
  34   2.0000      -0.711971       -19.3737
  35   2.0000      -0.703496       -19.1431
  36   2.0000      -0.691414       -18.8143
  37   2.0000      -0.663295       -18.0492
  38   2.0000      -0.639113       -17.3912
  39   2.0000      -0.619736       -16.8639
  40   2.0000      -0.586269       -15.9532
  41   2.0000      -0.568237       -15.4625
  42   2.0000      -0.561755       -15.2861
  43   2.0000      -0.553385       -15.0584
  44   2.0000      -0.540168       -14.6987
  45   2.0000      -0.524694       -14.2776
  46   2.0000      -0.514651       -14.0044
  47   2.0000      -0.509993       -13.8776
  48   2.0000      -0.507591       -13.8123
  49   2.0000      -0.497193       -13.5293
  50   2.0000      -0.491225       -13.3669
  51   2.0000      -0.474266       -12.9054
  52   2.0000      -0.472803       -12.8656
  53   2.0000      -0.465931       -12.6786
  54   2.0000      -0.457265       -12.4428
  55   2.0000      -0.453259       -12.3338
  56   2.0000      -0.442265       -12.0347
  57   2.0000      -0.438600       -11.9349
  58   2.0000      -0.433438       -11.7944
  59   2.0000      -0.429972       -11.7001
  60   2.0000      -0.421499       -11.4696
  61   2.0000      -0.412615       -11.2278
  62   2.0000      -0.401757       -10.9324
  63   2.0000      -0.354747        -9.6532
  64   2.0000      -0.329413        -8.9638
  65   2.0000      -0.327633        -8.9154
  66   2.0000      -0.289733        -7.8840
  67   0.0000       0.025750         0.7007
  68   0.0000       0.072922         1.9843
  69   0.0000       0.106120         2.8877
  70   0.0000       0.115430         3.1410
  71   0.0000       0.131714         3.5841

MULLIKEN ATOMIC CHARGES
-----------------------
   0 S :    0.133764
   1 C :   -0.108813
   2 C :   -0.092240
   3 C :    0.009640
   4 C :   -0.140586
   5 H :    0.042500
   6 C :    0.045834
   7 H :    0.050869
   8 H :    0.018512
   9 C :   -0.066742
  10 H :    0.035649
  11 H :    0.033961
  12 C :   -0.074771
  13 H :    0.034871
  14 H :    0.028169
  15 H :    0.029581
  16 S :    0.078168
  17 C :   -0.113740
  18 C :   -0.025942
  19 C :   -0.074823
  20 C :   -0.151953
  21 H :    0.020466
  22 C :    0.137526
  23 H :   -0.003514
  24 H :    0.033985
  25 C :   -0.074606
  26 H :    0.015773
  27 H :    0.011172
  28 C :   -0.033089
  29 H :    0.020519
  30 H :    0.031467
  31 H :    0.021959
  32 H :    0.046242
  33 H :    0.080191
Sum of atomic charges:   -0.0000000

LOEWDIN ATOMIC CHARGES
----------------------
   0 S :    0.456126
   1 C :   -0.221151
   2 C :   -0.060957
   3 C :   -0.059796
   4 C :   -0.199198
   5 H :    0.040455
   6 C :   -0.032975
   7 H :    0.041546
   8 H :    0.028555
   9 C :   -0.037405
  10 H :    0.021976
  11 H :    0.028151
  12 C :   -0.071084
  13 H :    0.021375
  14 H :    0.026686
  15 H :    0.025639
  16 S :    0.379462
  17 C :   -0.189183
  18 C :   -0.077540
  19 C :   -0.061423
  20 C :   -0.184326
  21 H :    0.029790
  22 C :   -0.024931
  23 H :    0.006631
  24 H :    0.035942
  25 C :   -0.041103
  26 H :    0.019466
  27 H :    0.018367
  28 C :   -0.063290
  29 H :    0.019561
  30 H :    0.026677
  31 H :    0.024417
  32 H :    0.028412
  33 H :    0.045128

  Mayer bond orders larger than 0.100000
B(  0-S ,  1-C ) :   1.1526 B(  0-S ,  4-C ) :   1.1673 B(  1-C ,  2-C ) :   1.5879
B(  1-C , 32-H ) :   0.9654 B(  2-C ,  3-C ) :   1.2564 B(  2-C ,  6-C ) :   1.0364
B(  3-C ,  4-C ) :   1.5541 B(  3-C ,  5-H ) :   0.9806 B(  4-C , 20-C ) :   1.0376
B(  6-C ,  7-H ) :   0.9387 B(  6-C ,  8-H ) :   0.9504 B(  6-C ,  9-C ) :   1.0359
B(  9-C , 10-H ) :   0.9573 B(  9-C , 11-H ) :   0.9630 B(  9-C , 12-C ) :   1.0782
B( 12-C , 13-H ) :   0.9780 B( 12-C , 14-H ) :   0.9750 B( 12-C , 15-H ) :   0.9769
B( 16-S , 17-C ) :   1.1494 B( 16-S , 20-C ) :   1.1206 B( 17-C , 18-C ) :   1.6197
B( 17-C , 33-H ) :   0.9582 B( 18-C , 19-C ) :   1.2389 B( 18-C , 21-H ) :   0.9852
B( 19-C , 20-C ) :   1.5920 B( 19-C , 22-C ) :   1.0445 B( 22-C , 23-H ) :   0.9195
B( 22-C , 24-H ) :   0.9359 B( 22-C , 25-C ) :   1.0772 B( 25-C , 26-H ) :   0.9594
B( 25-C , 27-H ) :   0.9581 B( 25-C , 28-C ) :   1.0628 B( 28-C , 29-H ) :   0.9807
B( 28-C , 30-H ) :   0.9762 B( 28-C , 31-H ) :   0.9741

Dispersion correction           -0.015114448
FINAL SINGLE POINT ENERGY     -1339.873373579979

DIPOLE MOMENT
-------------
                                X             Y             Z
Electronic contribution:      6.26203      12.42271     -18.66641
Nuclear contribution   :     -6.32304     -12.75932      19.18492
                        -----------------------------------------
Total Dipole Moment    :     -0.06101      -0.33661       0.51851
                        -----------------------------------------
Magnitude (a.u.)       :      0.62120
Magnitude (Debye)      :      1.57895

Rotational constants in cm-1:     0.020502     0.008043     0.007633
Rotational constants in MHz :   614.643009   241.112866   228.830442

                             ****ORCA TERMINATED NORMALLY****
TOTAL RUN TIME: 0 days 0 hours 0 minutes 23 seconds 990 msec
