                         Program Version 4.2.1 -  RELEASE  -
|  1> ! wB97X-D3 SP def2-SVP
|  2> %pal
|  3> nprocs 24
|  4> end
|  5>
|  6> * xyz 0 1
|  7> S 	 -38.4621 	 16.7974 	 12.6255
|  8> C 	 -39.8442 	 17.7789 	 12.8744
|  9> C 	 -39.4979 	 19.1031 	 12.7698
| 10> C 	 -38.1398 	 19.3686 	 12.434
| 11> C 	 -37.4511 	 18.1898 	 12.2692
| 12> H 	 -37.7241 	 20.4028 	 12.2932
| 13> C 	 -40.4205 	 20.2849 	 13.0877
| 14> H 	 -41.3144 	 19.9831 	 13.6037
| 15> H 	 -40.7566 	 20.5871 	 12.1197
| 16> C 	 -39.8698 	 21.4907 	 13.8404
| 17> H 	 -39.0927 	 22.0527 	 13.2538
| 18> H 	 -40.4907 	 22.3616 	 14.0302
| 19> C 	 -39.313 	 21.024 	 15.203
| 20> H 	 -38.8049 	 21.8168 	 15.7658
| 21> H 	 -40.1178 	 20.6561 	 15.8177
| 22> H 	 -38.5159 	 20.3596 	 15.0557
| 23> S 	 -34.9925 	 17.2341 	 12.9679
| 24> C 	 -33.5955 	 17.6604 	 12.0101
| 25> C 	 -34.0072 	 18.0921 	 10.8336
| 26> C 	 -35.3951 	 18.461 	 10.7883
| 27> C 	 -36.1039 	 17.967 	 11.8502
| 28> H 	 -33.3162 	 18.2053 	 10.0237
| 29> C 	 -35.8759 	 19.1592 	 9.55228
| 30> H 	 -35.1819 	 20.0263 	 9.37355
| 31> H 	 -36.9128 	 19.5558 	 9.70532
| 32> C 	 -35.9254 	 18.4371 	 8.24093
| 33> H 	 -34.9635 	 18.0157 	 7.96347
| 34> H 	 -36.1745 	 19.1173 	 7.49078
| 35> C 	 -36.8418 	 17.2172 	 8.29182
| 36> H 	 -37.8567 	 17.5288 	 8.1637
| 37> H 	 -36.7536 	 16.6283 	 9.20134
| 38> H 	 -36.5425 	 16.5999 	 7.48512
| 39> H 	 -40.7923 	 17.3522 	 13.2475
| 40> H 	 -32.5894 	 17.2728 	 12.1098
| 41> *
| 42>
| 43>                          ****END OF INPUT****

CARTESIAN COORDINATES (ANGSTROEM)
---------------------------------
  S    -38.462100   16.797400   12.625500
  C    -39.844200   17.778900   12.874400
  C    -39.497900   19.103100   12.769800
  C    -38.139800   19.368600   12.434000
  C    -37.451100   18.189800   12.269200
  H    -37.724100   20.402800   12.293200
  C    -40.420500   20.284900   13.087700
  H    -41.314400   19.983100   13.603700
  H    -40.756600   20.587100   12.119700
  C    -39.869800   21.490700   13.840400
  H    -39.092700   22.052700   13.253800
  H    -40.490700   22.361600   14.030200
  C    -39.313000   21.024000   15.203000
  H    -38.804900   21.816800   15.765800
  H    -40.117800   20.656100   15.817700
  H    -38.515900   20.359600   15.055700
  S    -34.992500   17.234100   12.967900
  C    -33.595500   17.660400   12.010100
  C    -34.007200   18.092100   10.833600
  C    -35.395100   18.461000   10.788300
  C    -36.103900   17.967000   11.850200
  H    -33.316200   18.205300   10.023700
  C    -35.875900   19.159200    9.552280
  H    -35.181900   20.026300    9.373550
  H    -36.912800   19.555800    9.705320
  C    -35.925400   18.437100    8.240930
  H    -34.963500   18.015700    7.963470
  H    -36.174500   19.117300    7.490780
  C    -36.841800   17.217200    8.291820
  H    -37.856700   17.528800    8.163700
  H    -36.753600   16.628300    9.201340
  H    -36.542500   16.599900    7.485120
  H    -40.792300   17.352200   13.247500
  H    -32.589400   17.272800   12.109800

 Total Charge           Charge          ....    0
 Multiplicity           Mult            ....    1
 Number of Electrons    NEL             ....  134
 Basis Dimension        Dim             ....  322

ORBITAL ENERGIES
----------------

  NO   OCC          E(Eh)            E(eV)
   0   2.0000     -88.964597     -2420.8498
   1   2.0000     -88.958984     -2420.6970
   2   2.0000     -10.328891      -281.0634
   3   2.0000     -10.322097      -280.8785
   4   2.0000     -10.313316      -280.6396
   5   2.0000     -10.309706      -280.5414
   6   2.0000     -10.301610      -280.3211
   7   2.0000     -10.299331      -280.2590
   8   2.0000     -10.298969      -280.2492
   9   2.0000     -10.290094      -280.0077
  10   2.0000     -10.289568      -279.9934
  11   2.0000     -10.287875      -279.9473
  12   2.0000     -10.284833      -279.8645
  13   2.0000     -10.275399      -279.6078
  14   2.0000     -10.267520      -279.3934
  15   2.0000     -10.262058      -279.2448
  16   2.0000      -8.080115      -219.8711
  17   2.0000      -8.074560      -219.7199
  18   2.0000      -6.038583      -164.3182
  19   2.0000      -6.034478      -164.2065
  20   2.0000      -6.033346      -164.1757
  21   2.0000      -6.030907      -164.1093
  22   2.0000      -6.028940      -164.0558
  23   2.0000      -6.024953      -163.9473
  24   2.0000      -1.015551       -27.6345
  25   2.0000      -0.992979       -27.0203
  26   2.0000      -0.914692       -24.8900
  27   2.0000      -0.912094       -24.8193
  28   2.0000      -0.879194       -23.9241
  29   2.0000      -0.849424       -23.1140
  30   2.0000      -0.843678       -22.9576
  31   2.0000      -0.820565       -22.3287
  32   2.0000      -0.783631       -21.3237
  33   2.0000      -0.774435       -21.0734
  34   2.0000      -0.714835       -19.4517
  35   2.0000      -0.697478       -18.9793
  36   2.0000      -0.692487       -18.8435
  37   2.0000      -0.659469       -17.9451
  38   2.0000      -0.640280       -17.4229
  39   2.0000      -0.627262       -17.0687
  40   2.0000      -0.599543       -16.3144
  41   2.0000      -0.567530       -15.4433
  42   2.0000      -0.558566       -15.1994
  43   2.0000      -0.552050       -15.0221
  44   2.0000      -0.544277       -14.8105
  45   2.0000      -0.541417       -14.7327
  46   2.0000      -0.519109       -14.1257
  47   2.0000      -0.513869       -13.9831
  48   2.0000      -0.507831       -13.8188
  49   2.0000      -0.504185       -13.7196
  50   2.0000      -0.493004       -13.4153
  51   2.0000      -0.476472       -12.9655
  52   2.0000      -0.469035       -12.7631
  53   2.0000      -0.464108       -12.6290
  54   2.0000      -0.461187       -12.5495
  55   2.0000      -0.449381       -12.2283
  56   2.0000      -0.443859       -12.0780
  57   2.0000      -0.432179       -11.7602
  58   2.0000      -0.426971       -11.6185
  59   2.0000      -0.425400       -11.5757
  60   2.0000      -0.416620       -11.3368
  61   2.0000      -0.410646       -11.1743
  62   2.0000      -0.407542       -11.0898
  63   2.0000      -0.351836        -9.5740
  64   2.0000      -0.332188        -9.0393
  65   2.0000      -0.323191        -8.7945
  66   2.0000      -0.299455        -8.1486
  67   0.0000       0.036312         0.9881
  68   0.0000       0.070741         1.9250
  69   0.0000       0.114963         3.1283
  70   0.0000       0.125009         3.4017
  71   0.0000       0.129443         3.5223

MULLIKEN ATOMIC CHARGES
-----------------------
   0 S :    0.110177
   1 C :   -0.129571
   2 C :   -0.122165
   3 C :    0.038405
   4 C :   -0.167065
   5 H :    0.040715
   6 C :    0.115613
   7 H :    0.011481
   8 H :    0.027204
   9 C :   -0.102439
  10 H :    0.017370
  11 H :    0.027703
  12 C :   -0.032193
  13 H :    0.022352
  14 H :    0.032361
  15 H :    0.030502
  16 S :    0.088294
  17 C :   -0.064095
  18 C :   -0.039176
  19 C :   -0.049128
  20 C :   -0.123063
  21 H :    0.013921
  22 C :    0.036917
  23 H :    0.031778
  24 H :    0.023716
  25 C :   -0.038782
  26 H :    0.009018
  27 H :    0.017787
  28 C :   -0.029666
  29 H :    0.023996
  30 H :    0.040004
  31 H :    0.018849
  32 H :    0.061786
  33 H :    0.057394
Sum of atomic charges:   -0.0000000

LOEWDIN ATOMIC CHARGES
----------------------
   0 S :    0.418634
   1 C :   -0.214629
   2 C :   -0.063633
   3 C :   -0.063444
   4 C :   -0.187332
   5 H :    0.046134
   6 C :   -0.028871
   7 H :    0.026204
   8 H :    0.030868
   9 C :   -0.050144
  10 H :    0.021815
  11 H :    0.027314
  12 C :   -0.060956
  13 H :    0.026377
  14 H :    0.024350
  15 H :    0.019360
  16 S :    0.399649
  17 C :   -0.181860
  18 C :   -0.066107
  19 C :   -0.057272
  20 C :   -0.208299
  21 H :    0.027914
  22 C :   -0.039078
  23 H :    0.036095
  24 H :    0.031688
  25 C :   -0.035148
  26 H :    0.017629
  27 H :    0.019484
  28 C :   -0.057204
  29 H :    0.020956
  30 H :    0.027919
  31 H :    0.020827
  32 H :    0.036071
  33 H :    0.034689

  Mayer bond orders larger than 0.100000
B(  0-S ,  1-C ) :   1.1354 B(  0-S ,  4-C ) :   1.1734 B(  1-C ,  2-C ) :   1.6148
B(  1-C , 32-H ) :   0.9677 B(  2-C ,  3-C ) :   1.2409 B(  2-C ,  6-C ) :   1.0041
B(  3-C ,  4-C ) :   1.5673 B(  3-C ,  5-H ) :   0.9886 B(  4-C , 20-C ) :   1.0102
B(  6-C ,  7-H ) :   0.9480 B(  6-C ,  8-H ) :   0.9282 B(  6-C ,  9-C ) :   1.0729
B(  9-C , 10-H ) :   0.9465 B(  9-C , 11-H ) :   0.9558 B(  9-C , 12-C ) :   1.0777
B( 12-C , 13-H ) :   0.9716 B( 12-C , 14-H ) :   0.9766 B( 12-C , 15-H ) :   0.9742
B( 16-S , 17-C ) :   1.1338 B( 16-S , 20-C ) :   1.1264 B( 17-C , 18-C ) :   1.6638
B( 17-C , 33-H ) :   0.9576 B( 18-C , 19-C ) :   1.1977 B( 18-C , 21-H ) :   0.9892
B( 19-C , 20-C ) :   1.6251 B( 19-C , 22-C ) :   1.0634 B( 22-C , 23-H ) :   0.9255
B( 22-C , 24-H ) :   0.9321 B( 22-C , 25-C ) :   1.0915 B( 25-C , 26-H ) :   0.9540
B( 25-C , 27-H ) :   0.9495 B( 25-C , 28-C ) :   1.0742 B( 28-C , 29-H ) :   0.9759
B( 28-C , 30-H ) :   0.9752 B( 28-C , 31-H ) :   0.9750

Dispersion correction           -0.015144506
FINAL SINGLE POINT ENERGY     -1339.873780117767

DIPOLE MOMENT
-------------
                                X             Y             Z
Electronic contribution:      8.03817     -15.27890       8.00605
Nuclear contribution   :     -8.09381      15.76801      -8.37886
                        -----------------------------------------
Total Dipole Moment    :     -0.05564       0.48910      -0.37281
                        -----------------------------------------
Magnitude (a.u.)       :      0.61750
Magnitude (Debye)      :      1.56955

Rotational constants in cm-1:     0.020010     0.008696     0.007985
Rotational constants in MHz :   599.884802   260.708567   239.396545

                             ****ORCA TERMINATED NORMALLY****
TOTAL RUN TIME: 0 days 0 hours 0 minutes 22 seconds 415 msec
