                         Program Version 4.2.1 -  RELEASE  -
|  1> ! wB97X-D3 SP def2-SVP
|  2> %pal
|  3> nprocs 24
|  4> end
|  5>
|  6> * xyz 0 1
|  7> S 	 -56.5457 	 -1.56767 	 -30.7242
|  8> C 	 -57.0234 	 -0.032944 	 -31.3295
|  9> C 	 -57.7536 	 0.753052 	 -30.442
| 10> C 	 -58.0156 	 -0.0166462 	 -29.2459
| 11> C 	 -57.463 	 -1.30457 	 -29.1903
| 12> H 	 -58.5365 	 0.232629 	 -28.3783
| 13> C 	 -58.2499 	 2.20725 	 -30.6994
| 14> H 	 -58.3105 	 2.43188 	 -31.7355
| 15> H 	 -57.4722 	 2.85096 	 -30.4323
| 16> C 	 -59.5222 	 2.64154 	 -30.0171
| 17> H 	 -59.1562 	 2.81771 	 -28.9389
| 18> H 	 -59.7581 	 3.6572 	 -30.3626
| 19> C 	 -60.7623 	 1.65072 	 -30.2582
| 20> H 	 -61.7097 	 2.08596 	 -29.9109
| 21> H 	 -60.892 	 1.26791 	 -31.2881
| 22> H 	 -60.6819 	 0.630023 	 -29.6695
| 23> S 	 -59.0464 	 -2.68603 	 -27.3748
| 24> C 	 -58.2081 	 -3.42473 	 -26.042
| 25> C 	 -56.8974 	 -3.49964 	 -26.262
| 26> C 	 -56.41 	 -2.78794 	 -27.3862
| 27> C 	 -57.4881 	 -2.2244 	 -28.1142
| 28> H 	 -56.1529 	 -4.01543 	 -25.6311
| 29> C 	 -54.9685 	 -2.63801 	 -27.6784
| 30> H 	 -54.5312 	 -2.26793 	 -26.7023
| 31> H 	 -54.8489 	 -1.90153 	 -28.4477
| 32> C 	 -54.2759 	 -3.95832 	 -28.2211
| 33> H 	 -54.6721 	 -4.13673 	 -29.1698
| 34> H 	 -54.6765 	 -4.74545 	 -27.5525
| 35> C 	 -52.6824 	 -3.8635 	 -28.2156
| 36> H 	 -52.5626 	 -3.60681 	 -27.1558
| 37> H 	 -52.2457 	 -3.10892 	 -28.8868
| 38> H 	 -52.1787 	 -4.82471 	 -28.4429
| 39> H 	 -56.8377 	 0.37877 	 -32.3321
| 40> H 	 -58.7156 	 -3.96186 	 -25.253
| 41> *
| 42>
| 43>                          ****END OF INPUT****

CARTESIAN COORDINATES (ANGSTROEM)
---------------------------------
  S    -56.545700   -1.567670  -30.724200
  C    -57.023400   -0.032944  -31.329500
  C    -57.753600    0.753052  -30.442000
  C    -58.015600   -0.016646  -29.245900
  C    -57.463000   -1.304570  -29.190300
  H    -58.536500    0.232629  -28.378300
  C    -58.249900    2.207250  -30.699400
  H    -58.310500    2.431880  -31.735500
  H    -57.472200    2.850960  -30.432300
  C    -59.522200    2.641540  -30.017100
  H    -59.156200    2.817710  -28.938900
  H    -59.758100    3.657200  -30.362600
  C    -60.762300    1.650720  -30.258200
  H    -61.709700    2.085960  -29.910900
  H    -60.892000    1.267910  -31.288100
  H    -60.681900    0.630023  -29.669500
  S    -59.046400   -2.686030  -27.374800
  C    -58.208100   -3.424730  -26.042000
  C    -56.897400   -3.499640  -26.262000
  C    -56.410000   -2.787940  -27.386200
  C    -57.488100   -2.224400  -28.114200
  H    -56.152900   -4.015430  -25.631100
  C    -54.968500   -2.638010  -27.678400
  H    -54.531200   -2.267930  -26.702300
  H    -54.848900   -1.901530  -28.447700
  C    -54.275900   -3.958320  -28.221100
  H    -54.672100   -4.136730  -29.169800
  H    -54.676500   -4.745450  -27.552500
  C    -52.682400   -3.863500  -28.215600
  H    -52.562600   -3.606810  -27.155800
  H    -52.245700   -3.108920  -28.886800
  H    -52.178700   -4.824710  -28.442900
  H    -56.837700    0.378770  -32.332100
  H    -58.715600   -3.961860  -25.253000

 Total Charge           Charge          ....    0
 Multiplicity           Mult            ....    1
 Number of Electrons    NEL             ....  134
 Basis Dimension        Dim             ....  322

ORBITAL ENERGIES
----------------

  NO   OCC          E(Eh)            E(eV)
   0   2.0000     -88.968052     -2420.9438
   1   2.0000     -88.966152     -2420.8921
   2   2.0000     -10.329132      -281.0700
   3   2.0000     -10.327102      -281.0147
   4   2.0000     -10.315347      -280.6949
   5   2.0000     -10.313209      -280.6367
   6   2.0000     -10.307274      -280.4752
   7   2.0000     -10.301013      -280.3048
   8   2.0000     -10.300251      -280.2841
   9   2.0000     -10.293845      -280.1098
  10   2.0000     -10.292850      -280.0827
  11   2.0000     -10.291449      -280.0446
  12   2.0000     -10.290262      -280.0123
  13   2.0000     -10.289119      -279.9812
  14   2.0000     -10.288317      -279.9593
  15   2.0000     -10.286484      -279.9094
  16   2.0000      -8.081890      -219.9194
  17   2.0000      -8.080562      -219.8833
  18   2.0000      -6.040418      -164.3681
  19   2.0000      -6.039100      -164.3323
  20   2.0000      -6.036460      -164.2604
  21   2.0000      -6.035235      -164.2271
  22   2.0000      -6.032764      -164.1599
  23   2.0000      -6.031194      -164.1171
  24   2.0000      -1.004314       -27.3288
  25   2.0000      -0.981675       -26.7127
  26   2.0000      -0.908293       -24.7159
  27   2.0000      -0.904176       -24.6039
  28   2.0000      -0.874060       -23.7844
  29   2.0000      -0.846349       -23.0303
  30   2.0000      -0.836136       -22.7524
  31   2.0000      -0.811792       -22.0900
  32   2.0000      -0.784541       -21.3484
  33   2.0000      -0.769318       -20.9342
  34   2.0000      -0.712278       -19.3821
  35   2.0000      -0.700739       -19.0681
  36   2.0000      -0.689628       -18.7657
  37   2.0000      -0.663819       -18.0634
  38   2.0000      -0.638238       -17.3673
  39   2.0000      -0.615755       -16.7556
  40   2.0000      -0.599785       -16.3210
  41   2.0000      -0.563976       -15.3466
  42   2.0000      -0.560462       -15.2509
  43   2.0000      -0.552932       -15.0461
  44   2.0000      -0.532026       -14.4772
  45   2.0000      -0.519239       -14.1292
  46   2.0000      -0.511705       -13.9242
  47   2.0000      -0.510916       -13.9027
  48   2.0000      -0.501934       -13.6583
  49   2.0000      -0.491518       -13.3749
  50   2.0000      -0.485839       -13.2204
  51   2.0000      -0.479169       -13.0388
  52   2.0000      -0.470138       -12.7931
  53   2.0000      -0.469335       -12.7713
  54   2.0000      -0.455264       -12.3884
  55   2.0000      -0.451890       -12.2965
  56   2.0000      -0.439880       -11.9697
  57   2.0000      -0.437979       -11.9180
  58   2.0000      -0.432969       -11.7817
  59   2.0000      -0.424622       -11.5545
  60   2.0000      -0.422645       -11.5007
  61   2.0000      -0.415989       -11.3196
  62   2.0000      -0.411986       -11.2107
  63   2.0000      -0.347862        -9.4658
  64   2.0000      -0.333974        -9.0879
  65   2.0000      -0.326310        -8.8793
  66   2.0000      -0.287442        -7.8217
  67   0.0000       0.027801         0.7565
  68   0.0000       0.068216         1.8563
  69   0.0000       0.106948         2.9102
  70   0.0000       0.110995         3.0203
  71   0.0000       0.134004         3.6464

MULLIKEN ATOMIC CHARGES
-----------------------
   0 S :    0.111153
   1 C :   -0.117481
   2 C :   -0.089818
   3 C :    0.045071
   4 C :   -0.187118
   5 H :   -0.011117
   6 C :    0.116258
   7 H :    0.003576
   8 H :    0.022088
   9 C :   -0.094691
  10 H :    0.045214
  11 H :    0.034740
  12 C :   -0.093843
  13 H :    0.042927
  14 H :    0.045725
  15 H :    0.049641
  16 S :    0.107644
  17 C :   -0.080626
  18 C :   -0.021505
  19 C :   -0.044778
  20 C :   -0.165137
  21 H :    0.021404
  22 C :    0.041525
  23 H :    0.039303
  24 H :    0.018023
  25 C :   -0.058029
  26 H :    0.015184
  27 H :    0.027166
  28 C :   -0.055893
  29 H :    0.032110
  30 H :    0.047631
  31 H :    0.046402
  32 H :    0.049891
  33 H :    0.057360
Sum of atomic charges:    0.0000000

LOEWDIN ATOMIC CHARGES
----------------------
   0 S :    0.399725
   1 C :   -0.207815
   2 C :   -0.060056
   3 C :   -0.048348
   4 C :   -0.184970
   5 H :    0.017869
   6 C :   -0.031499
   7 H :    0.023494
   8 H :    0.029061
   9 C :   -0.047521
  10 H :    0.034758
  11 H :    0.028371
  12 C :   -0.082168
  13 H :    0.025807
  14 H :    0.030612
  15 H :    0.040485
  16 S :    0.395783
  17 C :   -0.183789
  18 C :   -0.076322
  19 C :   -0.052613
  20 C :   -0.194616
  21 H :    0.034436
  22 C :   -0.036709
  23 H :    0.037694
  24 H :    0.017950
  25 C :   -0.027247
  26 H :    0.010963
  27 H :    0.023898
  28 C :   -0.068659
  29 H :    0.027627
  30 H :    0.029141
  31 H :    0.029859
  32 H :    0.033546
  33 H :    0.031256

  Mayer bond orders larger than 0.100000
B(  0-S ,  1-C ) :   1.1554 B(  0-S ,  4-C ) :   1.1118 B(  1-C ,  2-C ) :   1.6245
B(  1-C , 32-H ) :   0.9580 B(  2-C ,  3-C ) :   1.2262 B(  2-C ,  6-C ) :   0.9993
B(  3-C ,  4-C ) :   1.5867 B(  3-C ,  5-H ) :   0.9949 B(  4-C , 20-C ) :   1.0807
B(  6-C ,  7-H ) :   0.9349 B(  6-C ,  8-H ) :   0.9306 B(  6-C ,  9-C ) :   1.0885
B(  9-C , 10-H ) :   0.9530 B(  9-C , 11-H ) :   0.9546 B(  9-C , 12-C ) :   1.0508
B( 12-C , 13-H ) :   0.9787 B( 12-C , 14-H ) :   0.9771 B( 12-C , 15-H ) :   0.9709
B( 16-S , 17-C ) :   1.1408 B( 16-S , 20-C ) :   1.1305 B( 17-C , 18-C ) :   1.6140
B( 17-C , 33-H ) :   0.9647 B( 18-C , 19-C ) :   1.2563 B( 18-C , 21-H ) :   0.9787
B( 19-C , 20-C ) :   1.5557 B( 19-C , 22-C ) :   1.0616 B( 22-C , 23-H ) :   0.9311
B( 22-C , 24-H ) :   0.9235 B( 22-C , 25-C ) :   1.0459 B( 25-C , 26-H ) :   0.9542
B( 25-C , 27-H ) :   0.9657 B( 25-C , 28-C ) :   1.0551 B( 28-C , 29-H ) :   0.9791
B( 28-C , 30-H ) :   0.9781 B( 28-C , 31-H ) :   0.9771

Dispersion correction           -0.014577417
FINAL SINGLE POINT ENERGY     -1339.865041703451

DIPOLE MOMENT
-------------
                                X             Y             Z
Electronic contribution:     -6.47346      -8.16207       0.72449
Nuclear contribution   :      6.65907       8.49009      -0.63481
                        -----------------------------------------
Total Dipole Moment    :      0.18561       0.32802       0.08968
                        -----------------------------------------
Magnitude (a.u.)       :      0.38741
Magnitude (Debye)      :      0.98473

Rotational constants in cm-1:     0.020410     0.008453     0.006492
Rotational constants in MHz :   611.874854   253.409497   194.617371

                             ****ORCA TERMINATED NORMALLY****
TOTAL RUN TIME: 0 days 0 hours 0 minutes 22 seconds 245 msec
