                         Program Version 4.2.1 -  RELEASE  -
|  1> ! wB97X-D3 SP def2-SVP
|  2> %pal
|  3> nprocs 24
|  4> end
|  5>
|  6> * xyz 0 1
|  7> S 	 -141.254 	 29.6796 	 -15.0319
|  8> C 	 -139.831 	 30.5673 	 -15.4374
|  9> C 	 -138.951 	 29.8857 	 -16.2305
| 10> C 	 -139.461 	 28.5866 	 -16.5993
| 11> C 	 -140.696 	 28.3126 	 -15.9632
| 12> H 	 -138.999 	 27.7928 	 -17.1187
| 13> C 	 -137.528 	 30.4433 	 -16.5315
| 14> H 	 -137.708 	 31.5197 	 -16.6332
| 15> H 	 -137.228 	 30.0062 	 -17.4703
| 16> C 	 -136.466 	 30.1269 	 -15.483
| 17> H 	 -136.843 	 30.4192 	 -14.4922
| 18> H 	 -136.337 	 29.1132 	 -15.3694
| 19> C 	 -135.114 	 30.8118 	 -15.8316
| 20> H 	 -135.136 	 31.8094 	 -15.4364
| 21> H 	 -134.34 	 30.3222 	 -15.2692
| 22> H 	 -134.799 	 30.665 	 -16.8921
| 23> S 	 -143.237 	 27.495 	 -16.3584
| 24> C 	 -143.672 	 25.8497 	 -16.5764
| 25> C 	 -142.531 	 25.0306 	 -16.4476
| 26> C 	 -141.366 	 25.7981 	 -16.1053
| 27> C 	 -141.544 	 27.1658 	 -16.0793
| 28> H 	 -142.748 	 23.9236 	 -16.6571
| 29> C 	 -140.034 	 25.1598 	 -15.7926
| 30> H 	 -140.307 	 24.4365 	 -15.032
| 31> H 	 -139.476 	 25.9547 	 -15.2822
| 32> C 	 -139.511 	 24.5031 	 -17.1452
| 33> H 	 -139.544 	 25.3417 	 -17.951
| 34> H 	 -140.248 	 23.7844 	 -17.2966
| 35> C 	 -138.14 	 23.7468 	 -16.9657
| 36> H 	 -137.34 	 24.3421 	 -16.4795
| 37> H 	 -137.827 	 23.2486 	 -17.898
| 38> H 	 -138.239 	 22.9463 	 -16.1835
| 39> H 	 -139.541 	 31.4746 	 -14.9674
| 40> H 	 -144.669 	 25.6416 	 -16.8391
| 41> *
| 42>
| 43>                          ****END OF INPUT****

CARTESIAN COORDINATES (ANGSTROEM)
---------------------------------
  S    -141.254000   29.679600  -15.031900
  C    -139.831000   30.567300  -15.437400
  C    -138.951000   29.885700  -16.230500
  C    -139.461000   28.586600  -16.599300
  C    -140.696000   28.312600  -15.963200
  H    -138.999000   27.792800  -17.118700
  C    -137.528000   30.443300  -16.531500
  H    -137.708000   31.519700  -16.633200
  H    -137.228000   30.006200  -17.470300
  C    -136.466000   30.126900  -15.483000
  H    -136.843000   30.419200  -14.492200
  H    -136.337000   29.113200  -15.369400
  C    -135.114000   30.811800  -15.831600
  H    -135.136000   31.809400  -15.436400
  H    -134.340000   30.322200  -15.269200
  H    -134.799000   30.665000  -16.892100
  S    -143.237000   27.495000  -16.358400
  C    -143.672000   25.849700  -16.576400
  C    -142.531000   25.030600  -16.447600
  C    -141.366000   25.798100  -16.105300
  C    -141.544000   27.165800  -16.079300
  H    -142.748000   23.923600  -16.657100
  C    -140.034000   25.159800  -15.792600
  H    -140.307000   24.436500  -15.032000
  H    -139.476000   25.954700  -15.282200
  C    -139.511000   24.503100  -17.145200
  H    -139.544000   25.341700  -17.951000
  H    -140.248000   23.784400  -17.296600
  C    -138.140000   23.746800  -16.965700
  H    -137.340000   24.342100  -16.479500
  H    -137.827000   23.248600  -17.898000
  H    -138.239000   22.946300  -16.183500
  H    -139.541000   31.474600  -14.967400
  H    -144.669000   25.641600  -16.839100

 Total Charge           Charge          ....    0
 Multiplicity           Mult            ....    1
 Number of Electrons    NEL             ....  134
 Basis Dimension        Dim             ....  322

ORBITAL ENERGIES
----------------

  NO   OCC          E(Eh)            E(eV)
   0   2.0000     -88.967461     -2420.9277
   1   2.0000     -88.958038     -2420.6713
   2   2.0000     -10.331060      -281.1224
   3   2.0000     -10.321314      -280.8572
   4   2.0000     -10.316000      -280.7126
   5   2.0000     -10.305807      -280.4353
   6   2.0000     -10.304904      -280.4107
   7   2.0000     -10.303128      -280.3624
   8   2.0000     -10.301684      -280.3231
   9   2.0000     -10.300078      -280.2794
  10   2.0000     -10.297222      -280.2017
  11   2.0000     -10.293319      -280.0955
  12   2.0000     -10.290292      -280.0131
  13   2.0000     -10.288825      -279.9732
  14   2.0000     -10.282210      -279.7932
  15   2.0000     -10.280100      -279.7357
  16   2.0000      -8.082612      -219.9391
  17   2.0000      -8.074044      -219.7059
  18   2.0000      -6.041034      -164.3849
  19   2.0000      -6.037055      -164.2766
  20   2.0000      -6.033447      -164.1784
  21   2.0000      -6.032388      -164.1496
  22   2.0000      -6.028198      -164.0356
  23   2.0000      -6.025056      -163.9501
  24   2.0000      -1.010183       -27.4885
  25   2.0000      -0.985011       -26.8035
  26   2.0000      -0.911016       -24.7900
  27   2.0000      -0.904915       -24.6240
  28   2.0000      -0.872477       -23.7413
  29   2.0000      -0.850030       -23.1305
  30   2.0000      -0.841230       -22.8910
  31   2.0000      -0.813635       -22.1401
  32   2.0000      -0.780176       -21.2297
  33   2.0000      -0.770385       -20.9633
  34   2.0000      -0.709427       -19.3045
  35   2.0000      -0.704120       -19.1601
  36   2.0000      -0.700891       -19.0722
  37   2.0000      -0.664075       -18.0704
  38   2.0000      -0.642651       -17.4874
  39   2.0000      -0.614638       -16.7252
  40   2.0000      -0.588887       -16.0244
  41   2.0000      -0.573946       -15.6179
  42   2.0000      -0.561802       -15.2874
  43   2.0000      -0.556928       -15.1548
  44   2.0000      -0.530489       -14.4353
  45   2.0000      -0.521969       -14.2035
  46   2.0000      -0.515341       -14.0231
  47   2.0000      -0.513567       -13.9749
  48   2.0000      -0.508461       -13.8359
  49   2.0000      -0.495966       -13.4959
  50   2.0000      -0.493124       -13.4186
  51   2.0000      -0.478063       -13.0088
  52   2.0000      -0.476497       -12.9661
  53   2.0000      -0.465038       -12.6543
  54   2.0000      -0.459452       -12.5023
  55   2.0000      -0.447555       -12.1786
  56   2.0000      -0.439961       -11.9719
  57   2.0000      -0.438875       -11.9424
  58   2.0000      -0.433841       -11.8054
  59   2.0000      -0.426872       -11.6158
  60   2.0000      -0.426149       -11.5961
  61   2.0000      -0.419077       -11.4037
  62   2.0000      -0.408100       -11.1050
  63   2.0000      -0.351315        -9.5598
  64   2.0000      -0.332384        -9.0446
  65   2.0000      -0.326351        -8.8805
  66   2.0000      -0.286647        -7.8001
  67   0.0000       0.029012         0.7895
  68   0.0000       0.071757         1.9526
  69   0.0000       0.114410         3.1133
  70   0.0000       0.122241         3.3263
  71   0.0000       0.133452         3.6314

MULLIKEN ATOMIC CHARGES
-----------------------
   0 S :    0.121138
   1 C :   -0.097444
   2 C :   -0.107146
   3 C :    0.061579
   4 C :   -0.182272
   5 H :   -0.009157
   6 C :    0.073094
   7 H :    0.031129
   8 H :    0.016425
   9 C :   -0.038327
  10 H :    0.016883
  11 H :    0.005252
  12 C :   -0.036228
  13 H :    0.037638
  14 H :    0.021005
  15 H :    0.042751
  16 S :    0.088462
  17 C :   -0.093877
  18 C :   -0.068184
  19 C :   -0.080189
  20 C :   -0.124378
  21 H :    0.057084
  22 C :    0.060447
  23 H :    0.029877
  24 H :    0.032090
  25 C :   -0.082606
  26 H :    0.059780
  27 H :    0.022339
  28 C :   -0.048444
  29 H :    0.035839
  30 H :    0.048606
  31 H :    0.025459
  32 H :    0.032915
  33 H :    0.048462
Sum of atomic charges:    0.0000000

LOEWDIN ATOMIC CHARGES
----------------------
   0 S :    0.421141
   1 C :   -0.203817
   2 C :   -0.059813
   3 C :   -0.057398
   4 C :   -0.192866
   5 H :    0.023322
   6 C :   -0.023730
   7 H :    0.032316
   8 H :    0.025617
   9 C :   -0.034655
  10 H :    0.024816
  11 H :    0.011758
  12 C :   -0.063468
  13 H :    0.026049
  14 H :    0.024159
  15 H :    0.032420
  16 S :    0.416068
  17 C :   -0.184156
  18 C :   -0.089999
  19 C :   -0.060475
  20 C :   -0.210468
  21 H :    0.048985
  22 C :   -0.032779
  23 H :    0.031182
  24 H :    0.028568
  25 C :   -0.032176
  26 H :    0.036165
  27 H :    0.016456
  28 C :   -0.078511
  29 H :    0.027641
  30 H :    0.028394
  31 H :    0.030030
  32 H :    0.020771
  33 H :    0.018451

  Mayer bond orders larger than 0.100000
B(  0-S ,  1-C ) :   1.1365 B(  0-S ,  4-C ) :   1.1637 B(  1-C ,  2-C ) :   1.6285
B(  1-C , 32-H ) :   0.9657 B(  2-C ,  3-C ) :   1.2367 B(  2-C ,  6-C ) :   1.0126
B(  3-C ,  4-C ) :   1.5491 B(  3-C ,  5-H ) :   0.9995 B(  4-C , 20-C ) :   1.0561
B(  6-C ,  7-H ) :   0.9455 B(  6-C ,  8-H ) :   0.9363 B(  6-C ,  9-C ) :   1.0697
B(  9-C , 10-H ) :   0.9534 B(  9-C , 11-H ) :   0.9547 B(  9-C , 12-C ) :   1.0782
B( 12-C , 13-H ) :   0.9777 B( 12-C , 14-H ) :   0.9735 B( 12-C , 15-H ) :   0.9743
B( 16-S , 17-C ) :   1.1912 B( 16-S , 20-C ) :   1.1358 B( 17-C , 18-C ) :   1.5683
B( 17-C , 20-C ) :   0.1043 B( 17-C , 33-H ) :   0.9778 B( 18-C , 19-C ) :   1.2288
B( 18-C , 21-H ) :   0.9832 B( 19-C , 20-C ) :   1.5942 B( 19-C , 22-C ) :   1.0349
B( 22-C , 23-H ) :   0.9344 B( 22-C , 24-H ) :   0.9394 B( 22-C , 25-C ) :   1.0338
B( 25-C , 26-H ) :   0.9592 B( 25-C , 27-H ) :   0.9561 B( 25-C , 28-C ) :   1.0711
B( 28-C , 29-H ) :   0.9771 B( 28-C , 30-H ) :   0.9759 B( 28-C , 31-H ) :   0.9707

Dispersion correction           -0.013858134
FINAL SINGLE POINT ENERGY     -1339.867305494831

DIPOLE MOMENT
-------------
                                X             Y             Z
Electronic contribution:    -30.04465       7.14892       3.32279
Nuclear contribution   :     30.60137      -7.51152      -3.34283
                        -----------------------------------------
Total Dipole Moment    :      0.55671      -0.36259      -0.02005
                        -----------------------------------------
Magnitude (a.u.)       :      0.66468
Magnitude (Debye)      :      1.68949

Rotational constants in cm-1:     0.018165     0.008591     0.006091
Rotational constants in MHz :   544.579364   257.562046   182.608463

                             ****ORCA TERMINATED NORMALLY****
TOTAL RUN TIME: 0 days 0 hours 0 minutes 21 seconds 325 msec
