                         Program Version 4.2.1 -  RELEASE  -
|  1> ! wB97X-D3 SP def2-SVP
|  2> %pal
|  3> nprocs 24
|  4> end
|  5>
|  6> * xyz 0 1
|  7> S 	 -2.4129 	 -24.5738 	 -114.429
|  8> C 	 -1.621 	 -25.9103 	 -115.202
|  9> C 	 -0.682535 	 -25.56 	 -116.158
| 10> C 	 -0.753456 	 -24.1988 	 -116.445
| 11> C 	 -1.76271 	 -23.5316 	 -115.69
| 12> H 	 -0.218544 	 -23.5928 	 -117.18
| 13> C 	 0.228571 	 -26.5991 	 -116.777
| 14> H 	 -0.225952 	 -27.1407 	 -117.588
| 15> H 	 0.358277 	 -27.4064 	 -116.081
| 16> C 	 1.65354 	 -26.015 	 -117.15
| 17> H 	 1.67442 	 -25.4949 	 -118.129
| 18> H 	 1.98913 	 -25.3181 	 -116.399
| 19> C 	 2.65737 	 -27.1352 	 -117.297
| 20> H 	 2.37741 	 -27.8847 	 -118.091
| 21> H 	 3.63157 	 -26.7094 	 -117.588
| 22> H 	 2.68507 	 -27.6406 	 -116.398
| 23> S 	 -3.88542 	 -21.5924 	 -115.928
| 24> C 	 -3.45085 	 -19.9665 	 -116.433
| 25> C 	 -2.08838 	 -19.8123 	 -116.489
| 26> C 	 -1.36545 	 -21.0211 	 -116.176
| 27> C 	 -2.18801 	 -22.1153 	 -115.934
| 28> H 	 -1.60933 	 -18.8117 	 -116.723
| 29> C 	 0.0899876 	 -20.9316 	 -116.02
| 30> H 	 0.467176 	 -20.0518 	 -116.523
| 31> H 	 0.631522 	 -21.6553 	 -116.64
| 32> C 	 0.574304 	 -21.0002 	 -114.609
| 33> H 	 1.67313 	 -20.9887 	 -114.464
| 34> H 	 0.362739 	 -21.9192 	 -114.231
| 35> C 	 0.0542265 	 -19.8958 	 -113.716
| 36> H 	 0.60555 	 -20.0543 	 -112.75
| 37> H 	 -1.03245 	 -19.8035 	 -113.575
| 38> H 	 0.374024 	 -18.9063 	 -114.074
| 39> H 	 -1.89494 	 -26.9528 	 -114.994
| 40> H 	 -4.11134 	 -19.1701 	 -116.59
| 41> *
| 42>
| 43>                          ****END OF INPUT****

CARTESIAN COORDINATES (ANGSTROEM)
---------------------------------
  S     -2.412900  -24.573800  -114.429000
  C     -1.621000  -25.910300  -115.202000
  C     -0.682535  -25.560000  -116.158000
  C     -0.753456  -24.198800  -116.445000
  C     -1.762710  -23.531600  -115.690000
  H     -0.218544  -23.592800  -117.180000
  C      0.228571  -26.599100  -116.777000
  H     -0.225952  -27.140700  -117.588000
  H      0.358277  -27.406400  -116.081000
  C      1.653540  -26.015000  -117.150000
  H      1.674420  -25.494900  -118.129000
  H      1.989130  -25.318100  -116.399000
  C      2.657370  -27.135200  -117.297000
  H      2.377410  -27.884700  -118.091000
  H      3.631570  -26.709400  -117.588000
  H      2.685070  -27.640600  -116.398000
  S     -3.885420  -21.592400  -115.928000
  C     -3.450850  -19.966500  -116.433000
  C     -2.088380  -19.812300  -116.489000
  C     -1.365450  -21.021100  -116.176000
  C     -2.188010  -22.115300  -115.934000
  H     -1.609330  -18.811700  -116.723000
  C      0.089988  -20.931600  -116.020000
  H      0.467176  -20.051800  -116.523000
  H      0.631522  -21.655300  -116.640000
  C      0.574304  -21.000200  -114.609000
  H      1.673130  -20.988700  -114.464000
  H      0.362739  -21.919200  -114.231000
  C      0.054226  -19.895800  -113.716000
  H      0.605550  -20.054300  -112.750000
  H     -1.032450  -19.803500  -113.575000
  H      0.374024  -18.906300  -114.074000
  H     -1.894940  -26.952800  -114.994000
  H     -4.111340  -19.170100  -116.590000

 Total Charge           Charge          ....    0
 Multiplicity           Mult            ....    1
 Number of Electrons    NEL             ....  134
 Basis Dimension        Dim             ....  322

ORBITAL ENERGIES
----------------

  NO   OCC          E(Eh)            E(eV)
   0   2.0000     -88.971195     -2421.0293
   1   2.0000     -88.966921     -2420.9130
   2   2.0000     -10.334818      -281.2247
   3   2.0000     -10.331420      -281.1322
   4   2.0000     -10.315150      -280.6895
   5   2.0000     -10.310612      -280.5660
   6   2.0000     -10.299835      -280.2728
   7   2.0000     -10.299495      -280.2635
   8   2.0000     -10.297469      -280.2084
   9   2.0000     -10.297209      -280.2013
  10   2.0000     -10.293215      -280.0926
  11   2.0000     -10.289739      -279.9980
  12   2.0000     -10.281706      -279.7794
  13   2.0000     -10.276201      -279.6297
  14   2.0000     -10.273942      -279.5682
  15   2.0000     -10.272097      -279.5180
  16   2.0000      -8.085707      -220.0233
  17   2.0000      -8.080963      -219.8942
  18   2.0000      -6.044013      -164.4659
  19   2.0000      -6.040424      -164.3683
  20   2.0000      -6.039626      -164.3466
  21   2.0000      -6.036550      -164.2629
  22   2.0000      -6.035555      -164.2358
  23   2.0000      -6.031619      -164.1287
  24   2.0000      -1.002625       -27.2828
  25   2.0000      -0.984338       -26.7852
  26   2.0000      -0.916712       -24.9450
  27   2.0000      -0.910658       -24.7803
  28   2.0000      -0.865731       -23.5577
  29   2.0000      -0.854145       -23.2425
  30   2.0000      -0.845102       -22.9964
  31   2.0000      -0.813862       -22.1463
  32   2.0000      -0.782977       -21.3059
  33   2.0000      -0.769789       -20.9470
  34   2.0000      -0.713414       -19.4130
  35   2.0000      -0.699998       -19.0479
  36   2.0000      -0.684938       -18.6381
  37   2.0000      -0.658198       -17.9105
  38   2.0000      -0.640626       -17.4323
  39   2.0000      -0.618515       -16.8307
  40   2.0000      -0.596098       -16.2207
  41   2.0000      -0.572653       -15.5827
  42   2.0000      -0.564850       -15.3704
  43   2.0000      -0.557146       -15.1607
  44   2.0000      -0.548004       -14.9119
  45   2.0000      -0.525388       -14.2965
  46   2.0000      -0.512940       -13.9578
  47   2.0000      -0.504430       -13.7262
  48   2.0000      -0.496625       -13.5138
  49   2.0000      -0.495281       -13.4773
  50   2.0000      -0.488462       -13.2917
  51   2.0000      -0.480113       -13.0645
  52   2.0000      -0.475210       -12.9311
  53   2.0000      -0.470981       -12.8160
  54   2.0000      -0.457197       -12.4410
  55   2.0000      -0.452106       -12.3024
  56   2.0000      -0.443155       -12.0589
  57   2.0000      -0.437533       -11.9059
  58   2.0000      -0.430025       -11.7016
  59   2.0000      -0.425947       -11.5906
  60   2.0000      -0.419401       -11.4125
  61   2.0000      -0.416105       -11.3228
  62   2.0000      -0.410077       -11.1588
  63   2.0000      -0.344701        -9.3798
  64   2.0000      -0.335395        -9.1266
  65   2.0000      -0.329509        -8.9664
  66   2.0000      -0.284515        -7.7420
  67   0.0000       0.020202         0.5497
  68   0.0000       0.072874         1.9830
  69   0.0000       0.106173         2.8891
  70   0.0000       0.123821         3.3693
  71   0.0000       0.133315         3.6277

MULLIKEN ATOMIC CHARGES
-----------------------
   0 S :    0.128356
   1 C :   -0.143341
   2 C :   -0.051494
   3 C :    0.008109
   4 C :   -0.173444
   5 H :    0.019428
   6 C :    0.091422
   7 H :    0.033957
   8 H :    0.006194
   9 C :   -0.099970
  10 H :    0.037453
  11 H :    0.036701
  12 C :   -0.037335
  13 H :    0.033308
  14 H :    0.035920
  15 H :    0.017990
  16 S :    0.106077
  17 C :   -0.072228
  18 C :   -0.049287
  19 C :   -0.057734
  20 C :   -0.143536
  21 H :    0.042728
  22 C :    0.090192
  23 H :   -0.000094
  24 H :    0.009586
  25 C :   -0.009192
  26 H :    0.019779
  27 H :    0.002489
  28 C :   -0.074876
  29 H :    0.034978
  30 H :    0.052656
  31 H :    0.015373
  32 H :    0.051501
  33 H :    0.038332
Sum of atomic charges:    0.0000000

LOEWDIN ATOMIC CHARGES
----------------------
   0 S :    0.411340
   1 C :   -0.204115
   2 C :   -0.065972
   3 C :   -0.057951
   4 C :   -0.188947
   5 H :    0.033585
   6 C :   -0.026342
   7 H :    0.032357
   8 H :    0.026439
   9 C :   -0.038497
  10 H :    0.026723
  11 H :    0.023813
  12 C :   -0.060893
  13 H :    0.030211
  14 H :    0.028739
  15 H :    0.011334
  16 S :    0.392845
  17 C :   -0.174924
  18 C :   -0.074793
  19 C :   -0.058467
  20 C :   -0.193958
  21 H :    0.042787
  22 C :   -0.039096
  23 H :    0.026560
  24 H :    0.029646
  25 C :   -0.035743
  26 H :    0.030653
  27 H :    0.010961
  28 C :   -0.067679
  29 H :    0.033022
  30 H :    0.027109
  31 H :    0.020013
  32 H :    0.028166
  33 H :    0.021076

  Mayer bond orders larger than 0.100000
B(  0-S ,  1-C ) :   1.1502 B(  0-S ,  4-C ) :   1.1613 B(  1-C ,  2-C ) :   1.5873
B(  1-C ,  4-C ) :   0.1045 B(  1-C , 32-H ) :   0.9647 B(  2-C ,  3-C ) :   1.2710
B(  2-C ,  6-C ) :   1.0138 B(  3-C ,  4-C ) :   1.5325 B(  3-C ,  5-H ) :   0.9934
B(  4-C , 20-C ) :   1.0599 B(  6-C ,  7-H ) :   0.9293 B(  6-C ,  8-H ) :   0.9444
B(  6-C ,  9-C ) :   1.0570 B(  9-C , 10-H ) :   0.9503 B(  9-C , 11-H ) :   0.9628
B(  9-C , 12-C ) :   1.0925 B( 12-C , 13-H ) :   0.9729 B( 12-C , 14-H ) :   0.9726
B( 12-C , 15-H ) :   0.9774 B( 16-S , 17-C ) :   1.1502 B( 16-S , 20-C ) :   1.1225
B( 17-C , 18-C ) :   1.6139 B( 17-C , 33-H ) :   0.9721 B( 18-C , 19-C ) :   1.2469
B( 18-C , 21-H ) :   0.9773 B( 19-C , 20-C ) :   1.5795 B( 19-C , 22-C ) :   1.0551
B( 22-C , 23-H ) :   0.9265 B( 22-C , 24-H ) :   0.9172 B( 22-C , 25-C ) :   1.0771
B( 25-C , 26-H ) :   0.9492 B( 25-C , 27-H ) :   0.9485 B( 25-C , 28-C ) :   1.0780
B( 28-C , 29-H ) :   0.9734 B( 28-C , 30-H ) :   0.9746 B( 28-C , 31-H ) :   0.9737

Dispersion correction           -0.014877219
FINAL SINGLE POINT ENERGY     -1339.869984070899

DIPOLE MOMENT
-------------
                                X             Y             Z
Electronic contribution:    -26.86055       3.01377       3.30363
Nuclear contribution   :     27.47333      -3.05919      -3.52572
                        -----------------------------------------
Total Dipole Moment    :      0.61279      -0.04542      -0.22209
                        -----------------------------------------
Magnitude (a.u.)       :      0.65337
Magnitude (Debye)      :      1.66074

Rotational constants in cm-1:     0.020460     0.008254     0.006991
Rotational constants in MHz :   613.365138   247.460323   209.587943

                             ****ORCA TERMINATED NORMALLY****
TOTAL RUN TIME: 0 days 0 hours 0 minutes 22 seconds 226 msec
