                         Program Version 4.2.1 -  RELEASE  -
|  1> ! wB97X-D3 SP def2-SVP
|  2> %pal
|  3> nprocs 24
|  4> end
|  5>
|  6> * xyz 0 1
|  7> S 	 -52.7027 	 -49.3916 	 -77.6098
|  8> C 	 -53.5369 	 -47.8329 	 -77.7634
|  9> C 	 -53.167 	 -46.9851 	 -76.741
| 10> C 	 -52.2745 	 -47.6417 	 -75.8194
| 11> C 	 -51.7832 	 -48.877 	 -76.2812
| 12> H 	 -52.015 	 -47.1021 	 -74.9421
| 13> C 	 -53.6326 	 -45.5629 	 -76.6363
| 14> H 	 -53.3302 	 -45.2948 	 -75.676
| 15> H 	 -54.7433 	 -45.6554 	 -76.711
| 16> C 	 -52.9198 	 -44.5666 	 -77.6288
| 17> H 	 -53.191 	 -44.8513 	 -78.6338
| 18> H 	 -53.2176 	 -43.5407 	 -77.4234
| 19> C 	 -51.425 	 -44.6453 	 -77.4103
| 20> H 	 -51.0346 	 -44.1006 	 -78.2183
| 21> H 	 -51.0047 	 -44.3395 	 -76.4936
| 22> H 	 -51.1029 	 -45.6544 	 -77.5285
| 23> S 	 -50.4719 	 -51.2634 	 -76.4829
| 24> C 	 -49.4766 	 -51.7515 	 -75.1341
| 25> C 	 -49.4154 	 -50.8792 	 -74.0685
| 26> C 	 -50.235 	 -49.676 	 -74.377
| 27> C 	 -50.8816 	 -49.8019 	 -75.5839
| 28> H 	 -48.8904 	 -51.1599 	 -73.202
| 29> C 	 -50.3039 	 -48.5676 	 -73.3822
| 30> H 	 -50.1082 	 -47.6135 	 -73.8059
| 31> H 	 -49.4868 	 -48.7286 	 -72.7547
| 32> C 	 -51.5481 	 -48.4882 	 -72.4368
| 33> H 	 -51.5041 	 -49.3321 	 -71.7206
| 34> H 	 -52.5085 	 -48.533 	 -72.9465
| 35> C 	 -51.6059 	 -47.1825 	 -71.6475
| 36> H 	 -50.6151 	 -46.8801 	 -71.2493
| 37> H 	 -52.4137 	 -47.1123 	 -70.9446
| 38> H 	 -51.8979 	 -46.383 	 -72.3751
| 39> H 	 -54.3237 	 -47.5763 	 -78.5397
| 40> H 	 -48.8872 	 -52.674 	 -75.0021
| 41> *
| 42>
| 43>                          ****END OF INPUT****

CARTESIAN COORDINATES (ANGSTROEM)
---------------------------------
  S    -52.702700  -49.391600  -77.609800
  C    -53.536900  -47.832900  -77.763400
  C    -53.167000  -46.985100  -76.741000
  C    -52.274500  -47.641700  -75.819400
  C    -51.783200  -48.877000  -76.281200
  H    -52.015000  -47.102100  -74.942100
  C    -53.632600  -45.562900  -76.636300
  H    -53.330200  -45.294800  -75.676000
  H    -54.743300  -45.655400  -76.711000
  C    -52.919800  -44.566600  -77.628800
  H    -53.191000  -44.851300  -78.633800
  H    -53.217600  -43.540700  -77.423400
  C    -51.425000  -44.645300  -77.410300
  H    -51.034600  -44.100600  -78.218300
  H    -51.004700  -44.339500  -76.493600
  H    -51.102900  -45.654400  -77.528500
  S    -50.471900  -51.263400  -76.482900
  C    -49.476600  -51.751500  -75.134100
  C    -49.415400  -50.879200  -74.068500
  C    -50.235000  -49.676000  -74.377000
  C    -50.881600  -49.801900  -75.583900
  H    -48.890400  -51.159900  -73.202000
  C    -50.303900  -48.567600  -73.382200
  H    -50.108200  -47.613500  -73.805900
  H    -49.486800  -48.728600  -72.754700
  C    -51.548100  -48.488200  -72.436800
  H    -51.504100  -49.332100  -71.720600
  H    -52.508500  -48.533000  -72.946500
  C    -51.605900  -47.182500  -71.647500
  H    -50.615100  -46.880100  -71.249300
  H    -52.413700  -47.112300  -70.944600
  H    -51.897900  -46.383000  -72.375100
  H    -54.323700  -47.576300  -78.539700
  H    -48.887200  -52.674000  -75.002100

 Total Charge           Charge          ....    0
 Multiplicity           Mult            ....    1
 Number of Electrons    NEL             ....  134
 Basis Dimension        Dim             ....  322

ORBITAL ENERGIES
----------------

  NO   OCC          E(Eh)            E(eV)
   0   2.0000     -88.969988     -2420.9965
   1   2.0000     -88.966683     -2420.9065
   2   2.0000     -10.331458      -281.1333
   3   2.0000     -10.329221      -281.0724
   4   2.0000     -10.318217      -280.7730
   5   2.0000     -10.315734      -280.7054
   6   2.0000     -10.307492      -280.4811
   7   2.0000     -10.297009      -280.1959
   8   2.0000     -10.295799      -280.1629
   9   2.0000     -10.292450      -280.0718
  10   2.0000     -10.290152      -280.0093
  11   2.0000     -10.289195      -279.9832
  12   2.0000     -10.288494      -279.9642
  13   2.0000     -10.287303      -279.9317
  14   2.0000     -10.283090      -279.8171
  15   2.0000     -10.261594      -279.2322
  16   2.0000      -8.084537      -219.9914
  17   2.0000      -8.081949      -219.9210
  18   2.0000      -6.043191      -164.4436
  19   2.0000      -6.040534      -164.3713
  20   2.0000      -6.039299      -164.3377
  21   2.0000      -6.036356      -164.2576
  22   2.0000      -6.034945      -164.2192
  23   2.0000      -6.032626      -164.1561
  24   2.0000      -1.009038       -27.4573
  25   2.0000      -0.982639       -26.7390
  26   2.0000      -0.917006       -24.9530
  27   2.0000      -0.911308       -24.7980
  28   2.0000      -0.869321       -23.6554
  29   2.0000      -0.855729       -23.2856
  30   2.0000      -0.844689       -22.9852
  31   2.0000      -0.814573       -22.1657
  32   2.0000      -0.786387       -21.3987
  33   2.0000      -0.774308       -21.0700
  34   2.0000      -0.708036       -19.2666
  35   2.0000      -0.705878       -19.2079
  36   2.0000      -0.691703       -18.8222
  37   2.0000      -0.666301       -18.1310
  38   2.0000      -0.630689       -17.1619
  39   2.0000      -0.618180       -16.8215
  40   2.0000      -0.595008       -16.1910
  41   2.0000      -0.575534       -15.6611
  42   2.0000      -0.566231       -15.4079
  43   2.0000      -0.555868       -15.1259
  44   2.0000      -0.547659       -14.9025
  45   2.0000      -0.527505       -14.3541
  46   2.0000      -0.517560       -14.0835
  47   2.0000      -0.511925       -13.9302
  48   2.0000      -0.500898       -13.6301
  49   2.0000      -0.496359       -13.5066
  50   2.0000      -0.493002       -13.4153
  51   2.0000      -0.479837       -13.0570
  52   2.0000      -0.474438       -12.9101
  53   2.0000      -0.467617       -12.7245
  54   2.0000      -0.460169       -12.5218
  55   2.0000      -0.451359       -12.2821
  56   2.0000      -0.443191       -12.0599
  57   2.0000      -0.436663       -11.8822
  58   2.0000      -0.434027       -11.8105
  59   2.0000      -0.428694       -11.6654
  60   2.0000      -0.425094       -11.5674
  61   2.0000      -0.417765       -11.3680
  62   2.0000      -0.413778       -11.2595
  63   2.0000      -0.360095        -9.7987
  64   2.0000      -0.335024        -9.1165
  65   2.0000      -0.325694        -8.8626
  66   2.0000      -0.281894        -7.6707
  67   0.0000       0.020822         0.5666
  68   0.0000       0.081122         2.2074
  69   0.0000       0.094133         2.5615
  70   0.0000       0.111599         3.0368
  71   0.0000       0.131929         3.5900

MULLIKEN ATOMIC CHARGES
-----------------------
   0 S :    0.091879
   1 C :   -0.143129
   2 C :   -0.153390
   3 C :    0.003600
   4 C :   -0.067655
   5 H :   -0.027110
   6 C :    0.099867
   7 H :   -0.011868
   8 H :    0.046045
   9 C :   -0.040792
  10 H :    0.026180
  11 H :    0.032941
  12 C :   -0.025822
  13 H :    0.020296
  14 H :    0.020795
  15 H :    0.035726
  16 S :    0.104697
  17 C :   -0.076976
  18 C :   -0.026606
  19 C :   -0.094381
  20 C :   -0.091821
  21 H :    0.006844
  22 C :    0.100406
  23 H :    0.017179
  24 H :   -0.004351
  25 C :   -0.071219
  26 H :    0.030116
  27 H :    0.038385
  28 C :   -0.053288
  29 H :    0.035252
  30 H :    0.035393
  31 H :    0.018412
  32 H :    0.068161
  33 H :    0.056236
Sum of atomic charges:    0.0000000

LOEWDIN ATOMIC CHARGES
----------------------
   0 S :    0.415644
   1 C :   -0.209127
   2 C :   -0.065335
   3 C :   -0.072622
   4 C :   -0.200492
   5 H :    0.018465
   6 C :   -0.030150
   7 H :    0.016233
   8 H :    0.037835
   9 C :   -0.022869
  10 H :    0.021476
  11 H :    0.024366
  12 C :   -0.057171
  13 H :    0.023717
  14 H :    0.018861
  15 H :    0.026538
  16 S :    0.392014
  17 C :   -0.186232
  18 C :   -0.062720
  19 C :   -0.047497
  20 C :   -0.183875
  21 H :    0.026407
  22 C :   -0.030251
  23 H :    0.024494
  24 H :    0.025815
  25 C :   -0.036445
  26 H :    0.024719
  27 H :    0.024713
  28 C :   -0.068658
  29 H :    0.025317
  30 H :    0.024969
  31 H :    0.024590
  32 H :    0.041778
  33 H :    0.035490

  Mayer bond orders larger than 0.100000
B(  0-S ,  1-C ) :   1.1268 B(  0-S ,  4-C ) :   1.1711 B(  1-C ,  2-C ) :   1.5989
B(  1-C , 32-H ) :   0.9608 B(  2-C ,  3-C ) :   1.2790 B(  2-C ,  6-C ) :   1.0092
B(  3-C ,  4-C ) :   1.5114 B(  3-C ,  5-H ) :   0.9941 B(  4-C , 20-C ) :   1.0759
B(  6-C ,  7-H ) :   0.9317 B(  6-C ,  8-H ) :   0.9419 B(  6-C ,  9-C ) :   1.0617
B(  9-C , 10-H ) :   0.9587 B(  9-C , 11-H ) :   0.9595 B(  9-C , 12-C ) :   1.0751
B( 12-C , 13-H ) :   0.9684 B( 12-C , 14-H ) :   0.9772 B( 12-C , 15-H ) :   0.9702
B( 16-S , 17-C ) :   1.1342 B( 16-S , 20-C ) :   1.1041 B( 17-C , 18-C ) :   1.6833
B( 17-C , 33-H ) :   0.9559 B( 18-C , 19-C ) :   1.1833 B( 18-C , 21-H ) :   0.9920
B( 19-C , 20-C ) :   1.6525 B( 19-C , 22-C ) :   1.0572 B( 22-C , 23-H ) :   0.9310
B( 22-C , 24-H ) :   0.9128 B( 22-C , 25-C ) :   1.0525 B( 25-C , 26-H ) :   0.9549
B( 25-C , 27-H ) :   0.9611 B( 25-C , 28-C ) :   1.0806 B( 28-C , 29-H ) :   0.9725
B( 28-C , 30-H ) :   0.9706 B( 28-C , 31-H ) :   0.9736

Dispersion correction           -0.014938652
FINAL SINGLE POINT ENERGY     -1339.867923902084

DIPOLE MOMENT
-------------
                                X             Y             Z
Electronic contribution:      1.53647     -25.27492     -14.01134
Nuclear contribution   :     -1.49626      25.73946      14.49553
                        -----------------------------------------
Total Dipole Moment    :      0.04021       0.46453       0.48419
                        -----------------------------------------
Magnitude (a.u.)       :      0.67220
Magnitude (Debye)      :      1.70859

Rotational constants in cm-1:     0.017706     0.009982     0.007231
Rotational constants in MHz :   530.816141   299.264436   216.790242

                             ****ORCA TERMINATED NORMALLY****
TOTAL RUN TIME: 0 days 0 hours 0 minutes 22 seconds 500 msec
