                         Program Version 4.2.1 -  RELEASE  -
|  1> ! wB97X-D3 SP def2-SVP
|  2> %pal
|  3> nprocs 24
|  4> end
|  5>
|  6> * xyz 0 1
|  7> S 	 -80.7803 	 -31.0546 	 -54.9823
|  8> C 	 -79.2999 	 -30.292 	 -55.6408
|  9> C 	 -79.3083 	 -28.9815 	 -55.3695
| 10> C 	 -80.4322 	 -28.6159 	 -54.5719
| 11> C 	 -81.4208 	 -29.5508 	 -54.3864
| 12> H 	 -80.6748 	 -27.6342 	 -54.3206
| 13> C 	 -78.2513 	 -27.9477 	 -55.7247
| 14> H 	 -77.1832 	 -28.3325 	 -55.613
| 15> H 	 -78.3068 	 -27.3236 	 -54.8896
| 16> C 	 -78.3207 	 -27.1312 	 -57.1407
| 17> H 	 -77.3588 	 -26.6155 	 -57.4148
| 18> H 	 -78.5575 	 -27.778 	 -57.8933
| 19> C 	 -79.4017 	 -26.0417 	 -57.1009
| 20> H 	 -79.0656 	 -25.2524 	 -56.4646
| 21> H 	 -79.5762 	 -25.4718 	 -58.0456
| 22> H 	 -80.4049 	 -26.3809 	 -56.7781
| 23> S 	 -83.9461 	 -28.3694 	 -54.5932
| 24> C 	 -85.0451 	 -28.3825 	 -53.2429
| 25> C 	 -84.6257 	 -29.3312 	 -52.3382
| 26> C 	 -83.207 	 -29.7111 	 -52.4972
| 27> C 	 -82.7114 	 -29.3584 	 -53.7468
| 28> H 	 -85.2872 	 -29.5837 	 -51.5658
| 29> C 	 -82.3926 	 -30.3751 	 -51.4082
| 30> H 	 -82.4318 	 -29.7602 	 -50.5134
| 31> H 	 -81.3818 	 -30.3467 	 -51.749
| 32> C 	 -82.7474 	 -31.7722 	 -51.0167
| 33> H 	 -83.4678 	 -31.8016 	 -50.2188
| 34> H 	 -81.8386 	 -32.278 	 -50.7475
| 35> C 	 -83.2251 	 -32.7004 	 -52.1542
| 36> H 	 -82.603 	 -32.6791 	 -53.0178
| 37> H 	 -84.2981 	 -32.613 	 -52.3854
| 38> H 	 -83.1628 	 -33.7567 	 -51.8588
| 39> H 	 -78.602 	 -30.9374 	 -56.202
| 40> H 	 -86.0726 	 -28.1658 	 -53.2343
| 41> *
| 42>
| 43>                          ****END OF INPUT****

CARTESIAN COORDINATES (ANGSTROEM)
---------------------------------
  S    -80.780300  -31.054600  -54.982300
  C    -79.299900  -30.292000  -55.640800
  C    -79.308300  -28.981500  -55.369500
  C    -80.432200  -28.615900  -54.571900
  C    -81.420800  -29.550800  -54.386400
  H    -80.674800  -27.634200  -54.320600
  C    -78.251300  -27.947700  -55.724700
  H    -77.183200  -28.332500  -55.613000
  H    -78.306800  -27.323600  -54.889600
  C    -78.320700  -27.131200  -57.140700
  H    -77.358800  -26.615500  -57.414800
  H    -78.557500  -27.778000  -57.893300
  C    -79.401700  -26.041700  -57.100900
  H    -79.065600  -25.252400  -56.464600
  H    -79.576200  -25.471800  -58.045600
  H    -80.404900  -26.380900  -56.778100
  S    -83.946100  -28.369400  -54.593200
  C    -85.045100  -28.382500  -53.242900
  C    -84.625700  -29.331200  -52.338200
  C    -83.207000  -29.711100  -52.497200
  C    -82.711400  -29.358400  -53.746800
  H    -85.287200  -29.583700  -51.565800
  C    -82.392600  -30.375100  -51.408200
  H    -82.431800  -29.760200  -50.513400
  H    -81.381800  -30.346700  -51.749000
  C    -82.747400  -31.772200  -51.016700
  H    -83.467800  -31.801600  -50.218800
  H    -81.838600  -32.278000  -50.747500
  C    -83.225100  -32.700400  -52.154200
  H    -82.603000  -32.679100  -53.017800
  H    -84.298100  -32.613000  -52.385400
  H    -83.162800  -33.756700  -51.858800
  H    -78.602000  -30.937400  -56.202000
  H    -86.072600  -28.165800  -53.234300

 Total Charge           Charge          ....    0
 Multiplicity           Mult            ....    1
 Number of Electrons    NEL             ....  134
 Basis Dimension        Dim             ....  322

ORBITAL ENERGIES
----------------

  NO   OCC          E(Eh)            E(eV)
   0   2.0000     -88.963279     -2420.8139
   1   2.0000     -88.962481     -2420.7922
   2   2.0000     -10.331767      -281.1417
   3   2.0000     -10.330241      -281.1001
   4   2.0000     -10.320253      -280.8284
   5   2.0000     -10.313578      -280.6467
   6   2.0000     -10.309564      -280.5375
   7   2.0000     -10.302487      -280.3449
   8   2.0000     -10.299245      -280.2567
   9   2.0000     -10.293986      -280.1136
  10   2.0000     -10.293039      -280.0878
  11   2.0000     -10.288417      -279.9621
  12   2.0000     -10.283620      -279.8315
  13   2.0000     -10.279082      -279.7080
  14   2.0000     -10.276149      -279.6282
  15   2.0000     -10.269563      -279.4490
  16   2.0000      -8.077731      -219.8062
  17   2.0000      -8.076727      -219.7789
  18   2.0000      -6.036262      -164.2550
  19   2.0000      -6.035461      -164.2333
  20   2.0000      -6.032199      -164.1445
  21   2.0000      -6.031282      -164.1195
  22   2.0000      -6.028539      -164.0449
  23   2.0000      -6.027264      -164.0102
  24   2.0000      -1.006906       -27.3993
  25   2.0000      -0.984030       -26.7768
  26   2.0000      -0.912563       -24.8321
  27   2.0000      -0.903049       -24.5732
  28   2.0000      -0.873000       -23.7555
  29   2.0000      -0.846723       -23.0405
  30   2.0000      -0.840984       -22.8843
  31   2.0000      -0.817815       -22.2539
  32   2.0000      -0.785651       -21.3786
  33   2.0000      -0.775493       -21.1022
  34   2.0000      -0.711205       -19.3529
  35   2.0000      -0.708396       -19.2764
  36   2.0000      -0.693109       -18.8605
  37   2.0000      -0.658368       -17.9151
  38   2.0000      -0.647763       -17.6265
  39   2.0000      -0.616014       -16.7626
  40   2.0000      -0.591496       -16.0954
  41   2.0000      -0.574291       -15.6272
  42   2.0000      -0.566584       -15.4175
  43   2.0000      -0.545797       -14.8519
  44   2.0000      -0.537313       -14.6210
  45   2.0000      -0.532028       -14.4772
  46   2.0000      -0.522040       -14.2054
  47   2.0000      -0.515619       -14.0307
  48   2.0000      -0.509471       -13.8634
  49   2.0000      -0.497221       -13.5301
  50   2.0000      -0.490037       -13.3346
  51   2.0000      -0.478967       -13.0334
  52   2.0000      -0.473182       -12.8759
  53   2.0000      -0.464651       -12.6438
  54   2.0000      -0.457448       -12.4478
  55   2.0000      -0.438646       -11.9362
  56   2.0000      -0.436378       -11.8745
  57   2.0000      -0.433633       -11.7997
  58   2.0000      -0.430895       -11.7253
  59   2.0000      -0.425245       -11.5715
  60   2.0000      -0.421261       -11.4631
  61   2.0000      -0.412938       -11.2366
  62   2.0000      -0.405176       -11.0254
  63   2.0000      -0.337066        -9.1720
  64   2.0000      -0.332414        -9.0454
  65   2.0000      -0.323293        -8.7973
  66   2.0000      -0.311773        -8.4838
  67   0.0000       0.035796         0.9741
  68   0.0000       0.056314         1.5324
  69   0.0000       0.105330         2.8662
  70   0.0000       0.119245         3.2448
  71   0.0000       0.121294         3.3006

MULLIKEN ATOMIC CHARGES
-----------------------
   0 S :    0.084108
   1 C :   -0.150731
   2 C :   -0.040466
   3 C :    0.062393
   4 C :   -0.168121
   5 H :   -0.010788
   6 C :    0.044599
   7 H :    0.036355
   8 H :    0.008784
   9 C :   -0.010581
  10 H :    0.040105
  11 H :    0.016850
  12 C :   -0.089872
  13 H :    0.020371
  14 H :    0.032896
  15 H :    0.044377
  16 S :    0.095181
  17 C :   -0.063971
  18 C :   -0.031514
  19 C :   -0.059732
  20 C :   -0.162607
  21 H :    0.006953
  22 C :    0.124389
  23 H :    0.033486
  24 H :    0.012356
  25 C :   -0.064901
  26 H :    0.025546
  27 H :    0.027889
  28 C :   -0.050866
  29 H :    0.018189
  30 H :    0.031353
  31 H :    0.021490
  32 H :    0.065440
  33 H :    0.051039
Sum of atomic charges:   -0.0000000

LOEWDIN ATOMIC CHARGES
----------------------
   0 S :    0.389301
   1 C :   -0.168747
   2 C :   -0.072667
   3 C :   -0.053158
   4 C :   -0.200269
   5 H :    0.018792
   6 C :   -0.029464
   7 H :    0.038998
   8 H :    0.021639
   9 C :   -0.024675
  10 H :    0.033780
  11 H :    0.010213
  12 C :   -0.076176
  13 H :    0.018911
  14 H :    0.029388
  15 H :    0.027250
  16 S :    0.386741
  17 C :   -0.183490
  18 C :   -0.060204
  19 C :   -0.040889
  20 C :   -0.188979
  21 H :    0.020691
  22 C :   -0.032292
  23 H :    0.036979
  24 H :    0.028307
  25 C :   -0.039017
  26 H :    0.020447
  27 H :    0.030344
  28 C :   -0.069502
  29 H :    0.014420
  30 H :    0.025010
  31 H :    0.026952
  32 H :    0.035442
  33 H :    0.025925

  Mayer bond orders larger than 0.100000
B(  0-S ,  1-C ) :   1.1354 B(  0-S ,  4-C ) :   1.1381 B(  1-C ,  2-C ) :   1.6097
B(  1-C , 32-H ) :   0.9737 B(  2-C ,  3-C ) :   1.2373 B(  2-C ,  6-C ) :   1.0038
B(  3-C ,  4-C ) :   1.5993 B(  3-C ,  5-H ) :   0.9937 B(  4-C , 20-C ) :   1.0259
B(  6-C ,  7-H ) :   0.9504 B(  6-C ,  8-H ) :   0.9447 B(  6-C ,  9-C ) :   1.0400
B(  9-C , 10-H ) :   0.9597 B(  9-C , 11-H ) :   0.9627 B(  9-C , 12-C ) :   1.0743
B( 12-C , 13-H ) :   0.9773 B( 12-C , 14-H ) :   0.9729 B( 12-C , 15-H ) :   0.9775
B( 16-S , 17-C ) :   1.1432 B( 16-S , 20-C ) :   1.1167 B( 17-C , 18-C ) :   1.6648
B( 17-C , 33-H ) :   0.9615 B( 18-C , 19-C ) :   1.1835 B( 18-C , 21-H ) :   0.9896
B( 19-C , 20-C ) :   1.6321 B( 19-C , 22-C ) :   1.0618 B( 22-C , 23-H ) :   0.9346
B( 22-C , 24-H ) :   0.9171 B( 22-C , 25-C ) :   1.0760 B( 25-C , 26-H ) :   0.9544
B( 25-C , 27-H ) :   0.9558 B( 25-C , 28-C ) :   1.0956 B( 28-C , 29-H ) :   0.9724
B( 28-C , 30-H ) :   0.9685 B( 28-C , 31-H ) :   0.9727

Dispersion correction           -0.015101142
FINAL SINGLE POINT ENERGY     -1339.852991120246

DIPOLE MOMENT
-------------
                                X             Y             Z
Electronic contribution:     -8.87861      -2.30861      -2.65923
Nuclear contribution   :      9.13159       2.39217       2.91969
                        -----------------------------------------
Total Dipole Moment    :      0.25298       0.08357       0.26046
                        -----------------------------------------
Magnitude (a.u.)       :      0.37259
Magnitude (Debye)      :      0.94705

Rotational constants in cm-1:     0.022021     0.008398     0.006765
Rotational constants in MHz :   660.165653   251.770152   202.799790

                             ****ORCA TERMINATED NORMALLY****
TOTAL RUN TIME: 0 days 0 hours 0 minutes 21 seconds 676 msec
