                         Program Version 4.2.1 -  RELEASE  -
|  1> ! wB97X-D3 SP def2-SVP
|  2> %pal
|  3> nprocs 24
|  4> end
|  5>
|  6> * xyz 0 1
|  7> S 	 -85.0524 	 -19.003 	 -48.3784
|  8> C 	 -85.1949 	 -17.295 	 -48.3849
|  9> C 	 -84.1488 	 -16.6503 	 -49.0478
| 10> C 	 -83.0898 	 -17.5603 	 -49.3879
| 11> C 	 -83.3888 	 -18.892 	 -48.9468
| 12> H 	 -82.1482 	 -17.3395 	 -49.8932
| 13> C 	 -84.0494 	 -15.145 	 -49.4067
| 14> H 	 -83.4916 	 -15.1134 	 -50.2296
| 15> H 	 -83.4686 	 -14.6528 	 -48.6493
| 16> C 	 -85.4123 	 -14.4834 	 -49.7838
| 17> H 	 -86.0129 	 -15.0051 	 -50.5132
| 18> H 	 -85.9743 	 -14.4421 	 -48.7987
| 19> C 	 -85.1908 	 -13.0836 	 -50.2545
| 20> H 	 -84.3078 	 -12.6058 	 -49.9034
| 21> H 	 -85.1104 	 -13.1043 	 -51.33
| 22> H 	 -85.9334 	 -12.3778 	 -50.0433
| 23> S 	 -82.4481 	 -20.9938 	 -47.3582
| 24> C 	 -81.2429 	 -22.0693 	 -47.9351
| 25> C 	 -80.7115 	 -21.5575 	 -49.0852
| 26> C 	 -81.3453 	 -20.3869 	 -49.7215
| 27> C 	 -82.4712 	 -20.0453 	 -48.9315
| 28> H 	 -79.8158 	 -21.9644 	 -49.4514
| 29> C 	 -80.7976 	 -19.7231 	 -50.9663
| 30> H 	 -79.8312 	 -20.1958 	 -51.1398
| 31> H 	 -80.6932 	 -18.5998 	 -50.8516
| 32> C 	 -81.7021 	 -19.891 	 -52.1095
| 33> H 	 -82.5604 	 -19.2904 	 -52.07
| 34> H 	 -82.0084 	 -20.9415 	 -52.0088
| 35> C 	 -81.0079 	 -19.7123 	 -53.4726
| 36> H 	 -80.1094 	 -20.2836 	 -53.6313
| 37> H 	 -80.7142 	 -18.6402 	 -53.5562
| 38> H 	 -81.7261 	 -20.0569 	 -54.2172
| 39> H 	 -85.9782 	 -16.6901 	 -47.8832
| 40> H 	 -80.8386 	 -22.958 	 -47.3828
| 41> *
| 42>
| 43>                          ****END OF INPUT****

CARTESIAN COORDINATES (ANGSTROEM)
---------------------------------
  S    -85.052400  -19.003000  -48.378400
  C    -85.194900  -17.295000  -48.384900
  C    -84.148800  -16.650300  -49.047800
  C    -83.089800  -17.560300  -49.387900
  C    -83.388800  -18.892000  -48.946800
  H    -82.148200  -17.339500  -49.893200
  C    -84.049400  -15.145000  -49.406700
  H    -83.491600  -15.113400  -50.229600
  H    -83.468600  -14.652800  -48.649300
  C    -85.412300  -14.483400  -49.783800
  H    -86.012900  -15.005100  -50.513200
  H    -85.974300  -14.442100  -48.798700
  C    -85.190800  -13.083600  -50.254500
  H    -84.307800  -12.605800  -49.903400
  H    -85.110400  -13.104300  -51.330000
  H    -85.933400  -12.377800  -50.043300
  S    -82.448100  -20.993800  -47.358200
  C    -81.242900  -22.069300  -47.935100
  C    -80.711500  -21.557500  -49.085200
  C    -81.345300  -20.386900  -49.721500
  C    -82.471200  -20.045300  -48.931500
  H    -79.815800  -21.964400  -49.451400
  C    -80.797600  -19.723100  -50.966300
  H    -79.831200  -20.195800  -51.139800
  H    -80.693200  -18.599800  -50.851600
  C    -81.702100  -19.891000  -52.109500
  H    -82.560400  -19.290400  -52.070000
  H    -82.008400  -20.941500  -52.008800
  C    -81.007900  -19.712300  -53.472600
  H    -80.109400  -20.283600  -53.631300
  H    -80.714200  -18.640200  -53.556200
  H    -81.726100  -20.056900  -54.217200
  H    -85.978200  -16.690100  -47.883200
  H    -80.838600  -22.958000  -47.382800

 Total Charge           Charge          ....    0
 Multiplicity           Mult            ....    1
 Number of Electrons    NEL             ....  134
 Basis Dimension        Dim             ....  322

ORBITAL ENERGIES
----------------

  NO   OCC          E(Eh)            E(eV)
   0   2.0000     -88.969923     -2420.9947
   1   2.0000     -88.961342     -2420.7612
   2   2.0000     -10.335716      -281.2491
   3   2.0000     -10.334049      -281.2038
   4   2.0000     -10.317644      -280.7574
   5   2.0000     -10.312182      -280.6087
   6   2.0000     -10.311872      -280.6003
   7   2.0000     -10.302861      -280.3551
   8   2.0000     -10.300674      -280.2956
   9   2.0000     -10.296517      -280.1825
  10   2.0000     -10.290630      -280.0223
  11   2.0000     -10.290597      -280.0214
  12   2.0000     -10.285998      -279.8962
  13   2.0000     -10.278818      -279.7009
  14   2.0000     -10.275691      -279.6158
  15   2.0000     -10.266783      -279.3734
  16   2.0000      -8.084577      -219.9925
  17   2.0000      -8.075600      -219.7482
  18   2.0000      -6.043027      -164.4391
  19   2.0000      -6.039132      -164.3331
  20   2.0000      -6.035377      -164.2310
  21   2.0000      -6.034237      -164.1999
  22   2.0000      -6.030281      -164.0923
  23   2.0000      -6.026106      -163.9787
  24   2.0000      -0.998010       -27.1572
  25   2.0000      -0.978119       -26.6160
  26   2.0000      -0.921996       -25.0888
  27   2.0000      -0.913395       -24.8548
  28   2.0000      -0.864455       -23.5230
  29   2.0000      -0.854453       -23.2508
  30   2.0000      -0.843504       -22.9529
  31   2.0000      -0.807292       -21.9675
  32   2.0000      -0.785574       -21.3766
  33   2.0000      -0.772517       -21.0212
  34   2.0000      -0.711710       -19.3666
  35   2.0000      -0.702718       -19.1219
  36   2.0000      -0.684732       -18.6325
  37   2.0000      -0.659125       -17.9357
  38   2.0000      -0.633354       -17.2344
  39   2.0000      -0.613133       -16.6842
  40   2.0000      -0.596638       -16.2354
  41   2.0000      -0.575521       -15.6607
  42   2.0000      -0.573806       -15.6140
  43   2.0000      -0.560261       -15.2455
  44   2.0000      -0.527391       -14.3511
  45   2.0000      -0.526380       -14.3235
  46   2.0000      -0.523334       -14.2406
  47   2.0000      -0.513839       -13.9823
  48   2.0000      -0.507528       -13.8105
  49   2.0000      -0.495277       -13.4772
  50   2.0000      -0.488612       -13.2958
  51   2.0000      -0.482558       -13.1311
  52   2.0000      -0.479516       -13.0483
  53   2.0000      -0.465261       -12.6604
  54   2.0000      -0.457729       -12.4554
  55   2.0000      -0.451085       -12.2746
  56   2.0000      -0.443309       -12.0630
  57   2.0000      -0.439943       -11.9715
  58   2.0000      -0.436076       -11.8662
  59   2.0000      -0.426155       -11.5963
  60   2.0000      -0.418752       -11.3948
  61   2.0000      -0.411741       -11.2041
  62   2.0000      -0.408280       -11.1099
  63   2.0000      -0.345612        -9.4046
  64   2.0000      -0.330978        -9.0064
  65   2.0000      -0.322672        -8.7803
  66   2.0000      -0.283607        -7.7173
  67   0.0000       0.017784         0.4839
  68   0.0000       0.075893         2.0652
  69   0.0000       0.102532         2.7900
  70   0.0000       0.110129         2.9968
  71   0.0000       0.136198         3.7061

MULLIKEN ATOMIC CHARGES
-----------------------
   0 S :    0.137858
   1 C :   -0.137154
   2 C :   -0.116554
   3 C :    0.025111
   4 C :   -0.172906
   5 H :    0.006865
   6 C :    0.132651
   7 H :   -0.017830
   8 H :    0.041187
   9 C :   -0.104746
  10 H :    0.041445
  11 H :    0.034145
  12 C :   -0.004234
  13 H :    0.013516
  14 H :    0.022748
  15 H :    0.017367
  16 S :    0.086407
  17 C :   -0.089604
  18 C :   -0.033458
  19 C :   -0.043074
  20 C :   -0.143143
  21 H :   -0.007231
  22 C :    0.082456
  23 H :    0.015709
  24 H :    0.038308
  25 C :   -0.081142
  26 H :    0.031538
  27 H :    0.028833
  28 C :   -0.041747
  29 H :    0.024376
  30 H :    0.030827
  31 H :    0.041355
  32 H :    0.060206
  33 H :    0.079915
Sum of atomic charges:   -0.0000000

LOEWDIN ATOMIC CHARGES
----------------------
   0 S :    0.426462
   1 C :   -0.223194
   2 C :   -0.059595
   3 C :   -0.062722
   4 C :   -0.198440
   5 H :    0.029163
   6 C :   -0.015893
   7 H :    0.009500
   8 H :    0.035153
   9 C :   -0.037011
  10 H :    0.027610
  11 H :    0.026273
  12 C :   -0.063716
  13 H :    0.021451
  14 H :    0.026422
  15 H :    0.020633
  16 S :    0.382597
  17 C :   -0.203469
  18 C :   -0.073999
  19 C :   -0.046467
  20 C :   -0.174247
  21 H :    0.016462
  22 C :   -0.032390
  23 H :    0.032303
  24 H :    0.033944
  25 C :   -0.041193
  26 H :    0.020092
  27 H :    0.027240
  28 C :   -0.062527
  29 H :    0.019884
  30 H :    0.027167
  31 H :    0.030211
  32 H :    0.035840
  33 H :    0.046451

  Mayer bond orders larger than 0.100000
B(  0-S ,  1-C ) :   1.1466 B(  0-S ,  4-C ) :   1.1693 B(  1-C ,  2-C ) :   1.5970
B(  1-C , 32-H ) :   0.9605 B(  2-C ,  3-C ) :   1.2790 B(  2-C ,  6-C ) :   1.0009
B(  3-C ,  4-C ) :   1.5205 B(  3-C ,  5-H ) :   0.9863 B(  4-C , 20-C ) :   1.0727
B(  6-C ,  7-H ) :   0.9372 B(  6-C ,  8-H ) :   0.9317 B(  6-C ,  9-C ) :   1.0675
B(  9-C , 10-H ) :   0.9661 B(  9-C , 11-H ) :   0.9542 B(  9-C , 12-C ) :   1.0823
B( 12-C , 13-H ) :   0.9712 B( 12-C , 14-H ) :   0.9731 B( 12-C , 15-H ) :   0.9706
B( 16-S , 17-C ) :   1.1394 B( 16-S , 20-C ) :   1.1345 B( 17-C , 18-C ) :   1.6180
B( 17-C , 33-H ) :   0.9602 B( 18-C , 19-C ) :   1.2316 B( 18-C , 21-H ) :   0.9898
B( 19-C , 20-C ) :   1.5644 B( 19-C , 22-C ) :   1.0515 B( 22-C , 23-H ) :   0.9258
B( 22-C , 24-H ) :   0.9248 B( 22-C , 25-C ) :   1.0723 B( 25-C , 26-H ) :   0.9503
B( 25-C , 27-H ) :   0.9529 B( 25-C , 28-C ) :   1.0906 B( 28-C , 29-H ) :   0.9763
B( 28-C , 30-H ) :   0.9717 B( 28-C , 31-H ) :   0.9751

Dispersion correction           -0.013636289
FINAL SINGLE POINT ENERGY     -1339.848847029810

DIPOLE MOMENT
-------------
                                X             Y             Z
Electronic contribution:     -3.92453     -20.35665      21.01737
Nuclear contribution   :      4.31554      20.83221     -21.43658
                        -----------------------------------------
Total Dipole Moment    :      0.39101       0.47556      -0.41921
                        -----------------------------------------
Magnitude (a.u.)       :      0.74484
Magnitude (Debye)      :      1.89324

Rotational constants in cm-1:     0.018918     0.007922     0.006053
Rotational constants in MHz :   567.140409   237.509643   181.450198

                             ****ORCA TERMINATED NORMALLY****
TOTAL RUN TIME: 0 days 0 hours 0 minutes 21 seconds 30 msec
