                         Program Version 4.2.1 -  RELEASE  -
|  1> ! wB97X-D3 SP def2-SVP
|  2> %pal
|  3> nprocs 24
|  4> end
|  5>
|  6> * xyz 0 1
|  7> S 	 -33.1698 	 -49.5433 	 -76.985
|  8> C 	 -31.4375 	 -49.6969 	 -77.102
|  9> C 	 -30.814 	 -48.911 	 -76.1739
| 10> C 	 -31.7181 	 -48.186 	 -75.3165
| 11> C 	 -33.0032 	 -48.3872 	 -75.66
| 12> H 	 -31.3877 	 -47.4642 	 -74.5881
| 13> C 	 -29.3439 	 -48.7846 	 -75.9682
| 14> H 	 -28.94 	 -49.7493 	 -76.2971
| 15> H 	 -29.1886 	 -48.6269 	 -74.95
| 16> C 	 -28.6602 	 -47.6764 	 -76.6824
| 17> H 	 -27.6338 	 -47.567 	 -76.3403
| 18> H 	 -28.7371 	 -47.8891 	 -77.7782
| 19> C 	 -29.3264 	 -46.318 	 -76.5253
| 20> H 	 -30.2647 	 -46.1516 	 -76.9538
| 21> H 	 -29.3311 	 -46.1074 	 -75.4928
| 22> H 	 -28.6051 	 -45.6344 	 -76.9497
| 23> S 	 -35.2948 	 -48.8093 	 -74.2293
| 24> C 	 -36.3903 	 -47.4521 	 -74.039
| 25> C 	 -35.9099 	 -46.2785 	 -74.4564
| 26> C 	 -34.6213 	 -46.4236 	 -75.0671
| 27> C 	 -34.1763 	 -47.7369 	 -75.0586
| 28> H 	 -36.5627 	 -45.4074 	 -74.3623
| 29> C 	 -33.8146 	 -45.1718 	 -75.5445
| 30> H 	 -34.5052 	 -44.3964 	 -75.8018
| 31> H 	 -33.2549 	 -45.5168 	 -76.4868
| 32> C 	 -32.6865 	 -44.5668 	 -74.6534
| 33> H 	 -31.9985 	 -45.3476 	 -74.32
| 34> H 	 -33.1998 	 -44.2077 	 -73.7757
| 35> C 	 -31.8961 	 -43.4734 	 -75.3457
| 36> H 	 -32.5427 	 -42.848 	 -75.9328
| 37> H 	 -31.2743 	 -43.9757 	 -76.0678
| 38> H 	 -31.2814 	 -42.8367 	 -74.7675
| 39> H 	 -30.9058 	 -50.4834 	 -77.5881
| 40> H 	 -37.2904 	 -47.4964 	 -73.4723
| 41> *
| 42>
| 43>                          ****END OF INPUT****

CARTESIAN COORDINATES (ANGSTROEM)
---------------------------------
  S    -33.169800  -49.543300  -76.985000
  C    -31.437500  -49.696900  -77.102000
  C    -30.814000  -48.911000  -76.173900
  C    -31.718100  -48.186000  -75.316500
  C    -33.003200  -48.387200  -75.660000
  H    -31.387700  -47.464200  -74.588100
  C    -29.343900  -48.784600  -75.968200
  H    -28.940000  -49.749300  -76.297100
  H    -29.188600  -48.626900  -74.950000
  C    -28.660200  -47.676400  -76.682400
  H    -27.633800  -47.567000  -76.340300
  H    -28.737100  -47.889100  -77.778200
  C    -29.326400  -46.318000  -76.525300
  H    -30.264700  -46.151600  -76.953800
  H    -29.331100  -46.107400  -75.492800
  H    -28.605100  -45.634400  -76.949700
  S    -35.294800  -48.809300  -74.229300
  C    -36.390300  -47.452100  -74.039000
  C    -35.909900  -46.278500  -74.456400
  C    -34.621300  -46.423600  -75.067100
  C    -34.176300  -47.736900  -75.058600
  H    -36.562700  -45.407400  -74.362300
  C    -33.814600  -45.171800  -75.544500
  H    -34.505200  -44.396400  -75.801800
  H    -33.254900  -45.516800  -76.486800
  C    -32.686500  -44.566800  -74.653400
  H    -31.998500  -45.347600  -74.320000
  H    -33.199800  -44.207700  -73.775700
  C    -31.896100  -43.473400  -75.345700
  H    -32.542700  -42.848000  -75.932800
  H    -31.274300  -43.975700  -76.067800
  H    -31.281400  -42.836700  -74.767500
  H    -30.905800  -50.483400  -77.588100
  H    -37.290400  -47.496400  -73.472300

 Total Charge           Charge          ....    0
 Multiplicity           Mult            ....    1
 Number of Electrons    NEL             ....  134
 Basis Dimension        Dim             ....  322

ORBITAL ENERGIES
----------------

  NO   OCC          E(Eh)            E(eV)
   0   2.0000     -88.964405     -2420.8445
   1   2.0000     -88.964160     -2420.8379
   2   2.0000     -10.327350      -281.0215
   3   2.0000     -10.325950      -280.9834
   4   2.0000     -10.309428      -280.5338
   5   2.0000     -10.308830      -280.5175
   6   2.0000     -10.308744      -280.5152
   7   2.0000     -10.298821      -280.2452
   8   2.0000     -10.294599      -280.1303
   9   2.0000     -10.290632      -280.0223
  10   2.0000     -10.289648      -279.9955
  11   2.0000     -10.286368      -279.9063
  12   2.0000     -10.284042      -279.8430
  13   2.0000     -10.279478      -279.7188
  14   2.0000     -10.272230      -279.5216
  15   2.0000     -10.266703      -279.3712
  16   2.0000      -8.079123      -219.8441
  17   2.0000      -8.079081      -219.8430
  18   2.0000      -6.037738      -164.2952
  19   2.0000      -6.037528      -164.2895
  20   2.0000      -6.033689      -164.1850
  21   2.0000      -6.033667      -164.1844
  22   2.0000      -6.029782      -164.0787
  23   2.0000      -6.029711      -164.0768
  24   2.0000      -1.008082       -27.4313
  25   2.0000      -0.987267       -26.8649
  26   2.0000      -0.923071       -25.1180
  27   2.0000      -0.904808       -24.6211
  28   2.0000      -0.873424       -23.7671
  29   2.0000      -0.851951       -23.1828
  30   2.0000      -0.847871       -23.0717
  31   2.0000      -0.823316       -22.4036
  32   2.0000      -0.787359       -21.4251
  33   2.0000      -0.774071       -21.0635
  34   2.0000      -0.708223       -19.2717
  35   2.0000      -0.699913       -19.0456
  36   2.0000      -0.693936       -18.8830
  37   2.0000      -0.660106       -17.9624
  38   2.0000      -0.642216       -17.4756
  39   2.0000      -0.615966       -16.7613
  40   2.0000      -0.593310       -16.1448
  41   2.0000      -0.585538       -15.9333
  42   2.0000      -0.570087       -15.5129
  43   2.0000      -0.554150       -15.0792
  44   2.0000      -0.548868       -14.9355
  45   2.0000      -0.523532       -14.2460
  46   2.0000      -0.519907       -14.1474
  47   2.0000      -0.512848       -13.9553
  48   2.0000      -0.510986       -13.9046
  49   2.0000      -0.500283       -13.6134
  50   2.0000      -0.496285       -13.5046
  51   2.0000      -0.475583       -12.9413
  52   2.0000      -0.469409       -12.7733
  53   2.0000      -0.465787       -12.6747
  54   2.0000      -0.462107       -12.5746
  55   2.0000      -0.452848       -12.3226
  56   2.0000      -0.447707       -12.1827
  57   2.0000      -0.435536       -11.8515
  58   2.0000      -0.434375       -11.8199
  59   2.0000      -0.425871       -11.5885
  60   2.0000      -0.419864       -11.4251
  61   2.0000      -0.415559       -11.3079
  62   2.0000      -0.412689       -11.2298
  63   2.0000      -0.343874        -9.3573
  64   2.0000      -0.330963        -9.0060
  65   2.0000      -0.326806        -8.8928
  66   2.0000      -0.304762        -8.2930
  67   0.0000       0.037834         1.0295
  68   0.0000       0.067096         1.8258
  69   0.0000       0.114615         3.1188
  70   0.0000       0.121538         3.3072
  71   0.0000       0.123599         3.3633

MULLIKEN ATOMIC CHARGES
-----------------------
   0 S :    0.114930
   1 C :   -0.105938
   2 C :   -0.134980
   3 C :    0.044119
   4 C :   -0.137289
   5 H :    0.007514
   6 C :    0.120678
   7 H :    0.015970
   8 H :    0.002963
   9 C :   -0.061296
  10 H :    0.033566
  11 H :    0.025984
  12 C :   -0.042550
  13 H :    0.048648
  14 H :    0.004785
  15 H :    0.025603
  16 S :    0.108404
  17 C :   -0.073366
  18 C :   -0.043289
  19 C :    0.005192
  20 C :   -0.197854
  21 H :    0.025885
  22 C :    0.022150
  23 H :    0.018510
  24 H :    0.038351
  25 C :   -0.041320
  26 H :    0.015832
  27 H :    0.020140
  28 C :   -0.002158
  29 H :    0.015174
  30 H :    0.013723
  31 H :    0.029638
  32 H :    0.041083
  33 H :    0.041199
Sum of atomic charges:   -0.0000000

LOEWDIN ATOMIC CHARGES
----------------------
   0 S :    0.398469
   1 C :   -0.200710
   2 C :   -0.058900
   3 C :   -0.058306
   4 C :   -0.186767
   5 H :    0.029119
   6 C :   -0.032809
   7 H :    0.032135
   8 H :    0.020509
   9 C :   -0.035360
  10 H :    0.026800
  11 H :    0.027265
  12 C :   -0.058207
  13 H :    0.017419
  14 H :    0.013996
  15 H :    0.029658
  16 S :    0.397869
  17 C :   -0.173180
  18 C :   -0.075937
  19 C :   -0.049421
  20 C :   -0.196921
  21 H :    0.038835
  22 C :   -0.030289
  23 H :    0.023337
  24 H :    0.037416
  25 C :   -0.036828
  26 H :    0.019432
  27 H :    0.018322
  28 C :   -0.057083
  29 H :    0.022514
  30 H :    0.025243
  31 H :    0.023040
  32 H :    0.026429
  33 H :    0.022912

  Mayer bond orders larger than 0.100000
B(  0-S ,  1-C ) :   1.1187 B(  0-S ,  4-C ) :   1.1439 B(  1-C ,  2-C ) :   1.6511
B(  1-C , 32-H ) :   0.9626 B(  2-C ,  3-C ) :   1.2082 B(  2-C ,  6-C ) :   1.0283
B(  3-C ,  4-C ) :   1.6110 B(  3-C ,  5-H ) :   0.9954 B(  4-C , 20-C ) :   1.0070
B(  6-C ,  7-H ) :   0.9323 B(  6-C ,  8-H ) :   0.9291 B(  6-C ,  9-C ) :   1.0915
B(  9-C , 10-H ) :   0.9535 B(  9-C , 11-H ) :   0.9481 B(  9-C , 12-C ) :   1.0943
B( 12-C , 13-H ) :   0.9663 B( 12-C , 14-H ) :   0.9713 B( 12-C , 15-H ) :   0.9688
B( 16-S , 17-C ) :   1.1384 B( 16-S , 20-C ) :   1.1458 B( 17-C , 18-C ) :   1.6671
B( 17-C , 33-H ) :   0.9619 B( 18-C , 19-C ) :   1.2055 B( 18-C , 21-H ) :   0.9881
B( 19-C , 20-C ) :   1.6304 B( 19-C , 22-C ) :   1.0381 B( 22-C , 23-H ) :   0.9369
B( 22-C , 24-H ) :   0.9353 B( 22-C , 25-C ) :   1.0624 B( 25-C , 26-H ) :   0.9543
B( 25-C , 27-H ) :   0.9515 B( 25-C , 28-C ) :   1.0777 B( 28-C , 29-H ) :   0.9714
B( 28-C , 30-H ) :   0.9728 B( 28-C , 31-H ) :   0.9727

Dispersion correction           -0.016117218
FINAL SINGLE POINT ENERGY     -1339.879368656135

DIPOLE MOMENT
-------------
                                X             Y             Z
Electronic contribution:    -21.93936     -22.25836       1.76790
Nuclear contribution   :     22.34661      22.80424      -1.59951
                        -----------------------------------------
Total Dipole Moment    :      0.40725       0.54588       0.16839
                        -----------------------------------------
Magnitude (a.u.)       :      0.70156
Magnitude (Debye)      :      1.78323

Rotational constants in cm-1:     0.017611     0.010923     0.007352
Rotational constants in MHz :   527.966290   327.476004   220.395996

                             ****ORCA TERMINATED NORMALLY****
TOTAL RUN TIME: 0 days 0 hours 0 minutes 23 seconds 261 msec
