                         Program Version 4.2.1 -  RELEASE  -
|  1> ! wB97X-D3 SP def2-SVP
|  2> %pal
|  3> nprocs 24
|  4> end
|  5>
|  6> * xyz 0 1
|  7> S 	 -90.9031 	 -29.6854 	 -75.803
|  8> C 	 -89.2162 	 -30.236 	 -75.8562
|  9> C 	 -88.3941 	 -29.2849 	 -76.3757
| 10> C 	 -89.1373 	 -28.0701 	 -76.673
| 11> C 	 -90.5134 	 -28.1771 	 -76.5755
| 12> H 	 -88.7018 	 -27.1684 	 -77.0307
| 13> C 	 -86.8035 	 -29.2718 	 -76.6083
| 14> H 	 -86.3376 	 -29.0029 	 -75.7348
| 15> H 	 -86.5499 	 -28.5633 	 -77.344
| 16> C 	 -86.1618 	 -30.6097 	 -76.9782
| 17> H 	 -85.0558 	 -30.4844 	 -77.0449
| 18> H 	 -86.2918 	 -31.3678 	 -76.2402
| 19> C 	 -86.7133 	 -31.2142 	 -78.2681
| 20> H 	 -86.1437 	 -32.0483 	 -78.5931
| 21> H 	 -87.7374 	 -31.5832 	 -78.1443
| 22> H 	 -86.5928 	 -30.6208 	 -79.1354
| 23> S 	 -92.6513 	 -26.5194 	 -76.1156
| 24> C 	 -93.5622 	 -25.8966 	 -77.3737
| 25> C 	 -92.9729 	 -26.1053 	 -78.6281
| 26> C 	 -91.7278 	 -26.8712 	 -78.5641
| 27> C 	 -91.547 	 -27.2776 	 -77.2097
| 28> H 	 -93.3402 	 -25.7247 	 -79.5498
| 29> C 	 -90.8924 	 -27.2093 	 -79.772
| 30> H 	 -91.4981 	 -27.9925 	 -80.4119
| 31> H 	 -90.0927 	 -27.8093 	 -79.3102
| 32> C 	 -90.2748 	 -26.0557 	 -80.5342
| 33> H 	 -89.5903 	 -25.482 	 -79.8778
| 34> H 	 -91.1392 	 -25.454 	 -80.8074
| 35> C 	 -89.6851 	 -26.4532 	 -81.9131
| 36> H 	 -89.6168 	 -25.6186 	 -82.61
| 37> H 	 -90.3458 	 -27.2237 	 -82.3501
| 38> H 	 -88.666 	 -26.7955 	 -81.7429
| 39> H 	 -88.822 	 -31.143 	 -75.4669
| 40> H 	 -94.4746 	 -25.3207 	 -77.2719
| 41> *
| 42>
| 43>                          ****END OF INPUT****

CARTESIAN COORDINATES (ANGSTROEM)
---------------------------------
  S    -90.903100  -29.685400  -75.803000
  C    -89.216200  -30.236000  -75.856200
  C    -88.394100  -29.284900  -76.375700
  C    -89.137300  -28.070100  -76.673000
  C    -90.513400  -28.177100  -76.575500
  H    -88.701800  -27.168400  -77.030700
  C    -86.803500  -29.271800  -76.608300
  H    -86.337600  -29.002900  -75.734800
  H    -86.549900  -28.563300  -77.344000
  C    -86.161800  -30.609700  -76.978200
  H    -85.055800  -30.484400  -77.044900
  H    -86.291800  -31.367800  -76.240200
  C    -86.713300  -31.214200  -78.268100
  H    -86.143700  -32.048300  -78.593100
  H    -87.737400  -31.583200  -78.144300
  H    -86.592800  -30.620800  -79.135400
  S    -92.651300  -26.519400  -76.115600
  C    -93.562200  -25.896600  -77.373700
  C    -92.972900  -26.105300  -78.628100
  C    -91.727800  -26.871200  -78.564100
  C    -91.547000  -27.277600  -77.209700
  H    -93.340200  -25.724700  -79.549800
  C    -90.892400  -27.209300  -79.772000
  H    -91.498100  -27.992500  -80.411900
  H    -90.092700  -27.809300  -79.310200
  C    -90.274800  -26.055700  -80.534200
  H    -89.590300  -25.482000  -79.877800
  H    -91.139200  -25.454000  -80.807400
  C    -89.685100  -26.453200  -81.913100
  H    -89.616800  -25.618600  -82.610000
  H    -90.345800  -27.223700  -82.350100
  H    -88.666000  -26.795500  -81.742900
  H    -88.822000  -31.143000  -75.466900
  H    -94.474600  -25.320700  -77.271900

 Total Charge           Charge          ....    0
 Multiplicity           Mult            ....    1
 Number of Electrons    NEL             ....  134
 Basis Dimension        Dim             ....  322

ORBITAL ENERGIES
----------------

  NO   OCC          E(Eh)            E(eV)
   0   2.0000     -88.967893     -2420.9395
   1   2.0000     -88.964015     -2420.8339
   2   2.0000     -10.330997      -281.1207
   3   2.0000     -10.329896      -281.0908
   4   2.0000     -10.313375      -280.6412
   5   2.0000     -10.313146      -280.6350
   6   2.0000     -10.310511      -280.5633
   7   2.0000     -10.306020      -280.4411
   8   2.0000     -10.298224      -280.2289
   9   2.0000     -10.293215      -280.0926
  10   2.0000     -10.291385      -280.0428
  11   2.0000     -10.290912      -280.0300
  12   2.0000     -10.290586      -280.0211
  13   2.0000     -10.287319      -279.9322
  14   2.0000     -10.282530      -279.8019
  15   2.0000     -10.266547      -279.3670
  16   2.0000      -8.084205      -219.9824
  17   2.0000      -8.078566      -219.8290
  18   2.0000      -6.042432      -164.4229
  19   2.0000      -6.038423      -164.3138
  20   2.0000      -6.037258      -164.2822
  21   2.0000      -6.035242      -164.2273
  22   2.0000      -6.033087      -164.1686
  23   2.0000      -6.029141      -164.0613
  24   2.0000      -1.005104       -27.3503
  25   2.0000      -0.984117       -26.7792
  26   2.0000      -0.912007       -24.8170
  27   2.0000      -0.909393       -24.7458
  28   2.0000      -0.862500       -23.4698
  29   2.0000      -0.852643       -23.2016
  30   2.0000      -0.840441       -22.8696
  31   2.0000      -0.809354       -22.0237
  32   2.0000      -0.791147       -21.5282
  33   2.0000      -0.776012       -21.1164
  34   2.0000      -0.704994       -19.1839
  35   2.0000      -0.700962       -19.0741
  36   2.0000      -0.687383       -18.7046
  37   2.0000      -0.656256       -17.8576
  38   2.0000      -0.640151       -17.4194
  39   2.0000      -0.612202       -16.6589
  40   2.0000      -0.593823       -16.1587
  41   2.0000      -0.575914       -15.6714
  42   2.0000      -0.569670       -15.5015
  43   2.0000      -0.557793       -15.1783
  44   2.0000      -0.540316       -14.7027
  45   2.0000      -0.521324       -14.1860
  46   2.0000      -0.515967       -14.0402
  47   2.0000      -0.511519       -13.9191
  48   2.0000      -0.507783       -13.8175
  49   2.0000      -0.497238       -13.5305
  50   2.0000      -0.484510       -13.1842
  51   2.0000      -0.478852       -13.0302
  52   2.0000      -0.466775       -12.7016
  53   2.0000      -0.463805       -12.6208
  54   2.0000      -0.458436       -12.4747
  55   2.0000      -0.455665       -12.3993
  56   2.0000      -0.442755       -12.0480
  57   2.0000      -0.440026       -11.9737
  58   2.0000      -0.436843       -11.8871
  59   2.0000      -0.429656       -11.6915
  60   2.0000      -0.424601       -11.5540
  61   2.0000      -0.414808       -11.2875
  62   2.0000      -0.403952       -10.9921
  63   2.0000      -0.335193        -9.1211
  64   2.0000      -0.330706        -8.9990
  65   2.0000      -0.326330        -8.8799
  66   2.0000      -0.301516        -8.2047
  67   0.0000       0.036742         0.9998
  68   0.0000       0.068494         1.8638
  69   0.0000       0.112592         3.0638
  70   0.0000       0.118955         3.2369
  71   0.0000       0.129040         3.5114

MULLIKEN ATOMIC CHARGES
-----------------------
   0 S :    0.109979
   1 C :   -0.114818
   2 C :   -0.102880
   3 C :    0.032114
   4 C :   -0.145601
   5 H :   -0.002473
   6 C :    0.150099
   7 H :    0.020792
   8 H :    0.014072
   9 C :   -0.102263
  10 H :    0.031876
  11 H :    0.019462
  12 C :   -0.028145
  13 H :    0.010299
  14 H :    0.041769
  15 H :    0.013338
  16 S :    0.139642
  17 C :   -0.081342
  18 C :   -0.036362
  19 C :   -0.027105
  20 C :   -0.196362
  21 H :    0.004491
  22 C :    0.022866
  23 H :    0.057276
  24 H :    0.023619
  25 C :   -0.077365
  26 H :    0.042287
  27 H :    0.022502
  28 C :   -0.038743
  29 H :    0.036533
  30 H :    0.035628
  31 H :    0.034907
  32 H :    0.031851
  33 H :    0.058058
Sum of atomic charges:    0.0000000

LOEWDIN ATOMIC CHARGES
----------------------
   0 S :    0.398195
   1 C :   -0.188209
   2 C :   -0.056490
   3 C :   -0.062915
   4 C :   -0.204739
   5 H :    0.022121
   6 C :   -0.010146
   7 H :    0.023533
   8 H :    0.024462
   9 C :   -0.041653
  10 H :    0.030546
  11 H :    0.018117
  12 C :   -0.066943
  13 H :    0.021605
  14 H :    0.029481
  15 H :    0.018426
  16 S :    0.455964
  17 C :   -0.213635
  18 C :   -0.069008
  19 C :   -0.046973
  20 C :   -0.213800
  21 H :    0.021548
  22 C :   -0.048238
  23 H :    0.046443
  24 H :    0.030864
  25 C :   -0.042595
  26 H :    0.030374
  27 H :    0.021606
  28 C :   -0.061835
  29 H :    0.026046
  30 H :    0.029718
  31 H :    0.024512
  32 H :    0.023053
  33 H :    0.030567

  Mayer bond orders larger than 0.100000
B(  0-S ,  1-C ) :   1.1232 B(  0-S ,  4-C ) :   1.1493 B(  1-C ,  2-C ) :   1.6556
B(  1-C , 32-H ) :   0.9698 B(  2-C ,  3-C ) :   1.2264 B(  2-C ,  6-C ) :   0.9860
B(  3-C ,  4-C ) :   1.5930 B(  3-C ,  5-H ) :   1.0018 B(  4-C , 20-C ) :   0.9885
B(  6-C ,  7-H ) :   0.9361 B(  6-C ,  8-H ) :   0.9464 B(  6-C ,  9-C ) :   1.0840
B(  9-C , 10-H ) :   0.9536 B(  9-C , 11-H ) :   0.9531 B(  9-C , 12-C ) :   1.0872
B( 12-C , 13-H ) :   0.9694 B( 12-C , 14-H ) :   0.9727 B( 12-C , 15-H ) :   0.9742
B( 16-S , 17-C ) :   1.1788 B( 16-S , 20-C ) :   1.1831 B( 17-C , 18-C ) :   1.5754
B( 17-C , 33-H ) :   0.9684 B( 18-C , 19-C ) :   1.2547 B( 18-C , 21-H ) :   0.9920
B( 19-C , 20-C ) :   1.5601 B( 19-C , 22-C ) :   1.0454 B( 22-C , 23-H ) :   0.9332
B( 22-C , 24-H ) :   0.9253 B( 22-C , 25-C ) :   1.0572 B( 25-C , 26-H ) :   0.9537
B( 25-C , 27-H ) :   0.9597 B( 25-C , 28-C ) :   1.0751 B( 28-C , 29-H ) :   0.9772
B( 28-C , 30-H ) :   0.9729 B( 28-C , 31-H ) :   0.9776

Dispersion correction           -0.014045319
FINAL SINGLE POINT ENERGY     -1339.865812531087

DIPOLE MOMENT
-------------
                                X             Y             Z
Electronic contribution:    -21.83403       3.80492      21.72903
Nuclear contribution   :     22.36663      -3.66442     -22.21882
                        -----------------------------------------
Total Dipole Moment    :      0.53259       0.14050      -0.48980
                        -----------------------------------------
Magnitude (a.u.)       :      0.73709
Magnitude (Debye)      :      1.87353

Rotational constants in cm-1:     0.017165     0.009030     0.006407
Rotational constants in MHz :   514.605895   270.719726   192.062446

                             ****ORCA TERMINATED NORMALLY****
TOTAL RUN TIME: 0 days 0 hours 0 minutes 21 seconds 250 msec
