                         Program Version 4.2.1 -  RELEASE  -
|  1> ! wB97X-D3 SP def2-SVP
|  2> %pal
|  3> nprocs 24
|  4> end
|  5>
|  6> * xyz 0 1
|  7> S 	 -123.864 	 23.8347 	 -109.923
|  8> C 	 -122.514 	 25.0222 	 -109.752
|  9> C 	 -122.883 	 26.3744 	 -109.977
| 10> C 	 -124.27 	 26.369 	 -110.304
| 11> C 	 -124.937 	 25.131 	 -110.309
| 12> H 	 -124.902 	 27.2462 	 -110.423
| 13> C 	 -122.036 	 27.6179 	 -109.756
| 14> H 	 -121.14 	 27.2589 	 -109.143
| 15> H 	 -122.698 	 28.0959 	 -109.045
| 16> C 	 -121.694 	 28.4786 	 -110.979
| 17> H 	 -121.066 	 27.9201 	 -111.639
| 18> H 	 -122.625 	 28.7118 	 -111.52
| 19> C 	 -120.969 	 29.8145 	 -110.685
| 20> H 	 -120.657 	 30.3946 	 -111.55
| 21> H 	 -121.577 	 30.4787 	 -110.076
| 22> H 	 -120.053 	 29.5978 	 -110.118
| 23> S 	 -127.228 	 25.6449 	 -111.682
| 24> C 	 -128.724 	 24.9333 	 -111.139
| 25> C 	 -128.549 	 24.2191 	 -109.98
| 26> C 	 -127.227 	 24.2955 	 -109.433
| 27> C 	 -126.35 	 24.9073 	 -110.359
| 28> H 	 -129.388 	 23.7386 	 -109.503
| 29> C 	 -126.793 	 23.52 	 -108.179
| 30> H 	 -125.884 	 22.8944 	 -108.358
| 31> H 	 -127.579 	 22.7898 	 -107.866
| 32> C 	 -126.517 	 24.3835 	 -106.943
| 33> H 	 -127.317 	 24.7908 	 -106.404
| 34> H 	 -126.086 	 25.2843 	 -107.354
| 35> C 	 -125.607 	 23.7234 	 -105.816
| 36> H 	 -124.614 	 23.7166 	 -106.313
| 37> H 	 -125.956 	 22.713 	 -105.433
| 38> H 	 -125.469 	 24.4181 	 -104.961
| 39> H 	 -121.529 	 24.7683 	 -109.419
| 40> H 	 -129.661 	 24.9149 	 -111.659
| 41> *
| 42>
| 43>                          ****END OF INPUT****

CARTESIAN COORDINATES (ANGSTROEM)
---------------------------------
  S    -123.864000   23.834700  -109.923000
  C    -122.514000   25.022200  -109.752000
  C    -122.883000   26.374400  -109.977000
  C    -124.270000   26.369000  -110.304000
  C    -124.937000   25.131000  -110.309000
  H    -124.902000   27.246200  -110.423000
  C    -122.036000   27.617900  -109.756000
  H    -121.140000   27.258900  -109.143000
  H    -122.698000   28.095900  -109.045000
  C    -121.694000   28.478600  -110.979000
  H    -121.066000   27.920100  -111.639000
  H    -122.625000   28.711800  -111.520000
  C    -120.969000   29.814500  -110.685000
  H    -120.657000   30.394600  -111.550000
  H    -121.577000   30.478700  -110.076000
  H    -120.053000   29.597800  -110.118000
  S    -127.228000   25.644900  -111.682000
  C    -128.724000   24.933300  -111.139000
  C    -128.549000   24.219100  -109.980000
  C    -127.227000   24.295500  -109.433000
  C    -126.350000   24.907300  -110.359000
  H    -129.388000   23.738600  -109.503000
  C    -126.793000   23.520000  -108.179000
  H    -125.884000   22.894400  -108.358000
  H    -127.579000   22.789800  -107.866000
  C    -126.517000   24.383500  -106.943000
  H    -127.317000   24.790800  -106.404000
  H    -126.086000   25.284300  -107.354000
  C    -125.607000   23.723400  -105.816000
  H    -124.614000   23.716600  -106.313000
  H    -125.956000   22.713000  -105.433000
  H    -125.469000   24.418100  -104.961000
  H    -121.529000   24.768300  -109.419000
  H    -129.661000   24.914900  -111.659000

 Total Charge           Charge          ....    0
 Multiplicity           Mult            ....    1
 Number of Electrons    NEL             ....  134
 Basis Dimension        Dim             ....  322

ORBITAL ENERGIES
----------------

  NO   OCC          E(Eh)            E(eV)
   0   2.0000     -88.972592     -2421.0673
   1   2.0000     -88.967887     -2420.9393
   2   2.0000     -10.328054      -281.0406
   3   2.0000     -10.327785      -281.0333
   4   2.0000     -10.320278      -280.8290
   5   2.0000     -10.313914      -280.6559
   6   2.0000     -10.310185      -280.5544
   7   2.0000     -10.307909      -280.4925
   8   2.0000     -10.305000      -280.4133
   9   2.0000     -10.296675      -280.1868
  10   2.0000     -10.296236      -280.1748
  11   2.0000     -10.293016      -280.0872
  12   2.0000     -10.292618      -280.0764
  13   2.0000     -10.285580      -279.8848
  14   2.0000     -10.282071      -279.7894
  15   2.0000     -10.276633      -279.6414
  16   2.0000      -8.086168      -220.0358
  17   2.0000      -8.082530      -219.9368
  18   2.0000      -6.044653      -164.4834
  19   2.0000      -6.041052      -164.3854
  20   2.0000      -6.040861      -164.3802
  21   2.0000      -6.036999      -164.2751
  22   2.0000      -6.036960      -164.2740
  23   2.0000      -6.033376      -164.1765
  24   2.0000      -1.005921       -27.3725
  25   2.0000      -0.979671       -26.6582
  26   2.0000      -0.913638       -24.8614
  27   2.0000      -0.899662       -24.4810
  28   2.0000      -0.870517       -23.6880
  29   2.0000      -0.851711       -23.1762
  30   2.0000      -0.841380       -22.8951
  31   2.0000      -0.809187       -22.0191
  32   2.0000      -0.784824       -21.3561
  33   2.0000      -0.768191       -20.9035
  34   2.0000      -0.711182       -19.3523
  35   2.0000      -0.703095       -19.1322
  36   2.0000      -0.688902       -18.7460
  37   2.0000      -0.664690       -18.0871
  38   2.0000      -0.635396       -17.2900
  39   2.0000      -0.617056       -16.7909
  40   2.0000      -0.595235       -16.1972
  41   2.0000      -0.567748       -15.4492
  42   2.0000      -0.562703       -15.3119
  43   2.0000      -0.555756       -15.1229
  44   2.0000      -0.528242       -14.3742
  45   2.0000      -0.518621       -14.1124
  46   2.0000      -0.510934       -13.9032
  47   2.0000      -0.510438       -13.8897
  48   2.0000      -0.505296       -13.7498
  49   2.0000      -0.500379       -13.6160
  50   2.0000      -0.490031       -13.3344
  51   2.0000      -0.477426       -12.9914
  52   2.0000      -0.471365       -12.8265
  53   2.0000      -0.460743       -12.5374
  54   2.0000      -0.458520       -12.4770
  55   2.0000      -0.451298       -12.2805
  56   2.0000      -0.446143       -12.1402
  57   2.0000      -0.440222       -11.9791
  58   2.0000      -0.431528       -11.7425
  59   2.0000      -0.427442       -11.6313
  60   2.0000      -0.424134       -11.5413
  61   2.0000      -0.420758       -11.4494
  62   2.0000      -0.399502       -10.8710
  63   2.0000      -0.343398        -9.3443
  64   2.0000      -0.334622        -9.1055
  65   2.0000      -0.332867        -9.0578
  66   2.0000      -0.287189        -7.8148
  67   0.0000       0.023262         0.6330
  68   0.0000       0.070547         1.9197
  69   0.0000       0.105037         2.8582
  70   0.0000       0.113718         3.0944
  71   0.0000       0.126913         3.4535

MULLIKEN ATOMIC CHARGES
-----------------------
   0 S :    0.114663
   1 C :   -0.125083
   2 C :   -0.084613
   3 C :    0.017844
   4 C :   -0.154751
   5 H :    0.009629
   6 C :    0.054329
   7 H :    0.031705
   8 H :    0.036336
   9 C :   -0.050037
  10 H :    0.029985
  11 H :    0.035983
  12 C :   -0.050576
  13 H :    0.040032
  14 H :    0.027930
  15 H :    0.028156
  16 S :    0.116702
  17 C :   -0.080188
  18 C :   -0.033901
  19 C :   -0.010233
  20 C :   -0.169288
  21 H :    0.018099
  22 C :    0.033338
  23 H :    0.041888
  24 H :    0.025839
  25 C :   -0.059791
  26 H :    0.012161
  27 H :    0.022335
  28 C :   -0.093786
  29 H :    0.039664
  30 H :    0.052109
  31 H :    0.038212
  32 H :    0.034236
  33 H :    0.051073
Sum of atomic charges:    0.0000000

LOEWDIN ATOMIC CHARGES
----------------------
   0 S :    0.415427
   1 C :   -0.184230
   2 C :   -0.055708
   3 C :   -0.066593
   4 C :   -0.208973
   5 H :    0.025960
   6 C :   -0.033157
   7 H :    0.038770
   8 H :    0.036243
   9 C :   -0.036988
  10 H :    0.024180
  11 H :    0.029016
  12 C :   -0.065977
  13 H :    0.028604
  14 H :    0.022619
  15 H :    0.025770
  16 S :    0.416862
  17 C :   -0.190811
  18 C :   -0.066103
  19 C :   -0.056125
  20 C :   -0.199911
  21 H :    0.031047
  22 C :   -0.039785
  23 H :    0.026265
  24 H :    0.032389
  25 C :   -0.043932
  26 H :    0.013143
  27 H :    0.023530
  28 C :   -0.075462
  29 H :    0.028039
  30 H :    0.031216
  31 H :    0.028080
  32 H :    0.017601
  33 H :    0.028993

  Mayer bond orders larger than 0.100000
B(  0-S ,  1-C ) :   1.1400 B(  0-S ,  4-C ) :   1.1510 B(  1-C ,  2-C ) :   1.5981
B(  1-C , 32-H ) :   0.9667 B(  2-C ,  3-C ) :   1.2555 B(  2-C ,  6-C ) :   1.0042
B(  3-C ,  4-C ) :   1.5704 B(  3-C ,  5-H ) :   0.9822 B(  4-C , 20-C ) :   1.0484
B(  6-C ,  7-H ) :   0.9383 B(  6-C ,  8-H ) :   0.9396 B(  6-C ,  9-C ) :   1.0557
B(  9-C , 10-H ) :   0.9560 B(  9-C , 11-H ) :   0.9564 B(  9-C , 12-C ) :   1.0827
B( 12-C , 13-H ) :   0.9758 B( 12-C , 14-H ) :   0.9770 B( 12-C , 15-H ) :   0.9744
B( 16-S , 17-C ) :   1.1457 B( 16-S , 20-C ) :   1.1540 B( 17-C , 18-C ) :   1.6183
B( 17-C , 33-H ) :   0.9675 B( 18-C , 19-C ) :   1.2539 B( 18-C , 21-H ) :   0.9852
B( 19-C , 20-C ) :   1.5487 B( 19-C , 22-C ) :   1.0391 B( 22-C , 23-H ) :   0.9469
B( 22-C , 24-H ) :   0.9361 B( 22-C , 25-C ) :   1.0361 B( 25-C , 26-H ) :   0.9566
B( 25-C , 27-H ) :   0.9617 B( 25-C , 28-C ) :   1.0690 B( 28-C , 29-H ) :   0.9772
B( 28-C , 30-H ) :   0.9752 B( 28-C , 31-H ) :   0.9757

Dispersion correction           -0.014274486
FINAL SINGLE POINT ENERGY     -1339.874457347212

DIPOLE MOMENT
-------------
                                X             Y             Z
Electronic contribution:    -11.81506     -10.89614     -14.73994
Nuclear contribution   :     11.90398      11.21740      15.07366
                        -----------------------------------------
Total Dipole Moment    :      0.08891       0.32126       0.33371
                        -----------------------------------------
Magnitude (a.u.)       :      0.47167
Magnitude (Debye)      :      1.19890

Rotational constants in cm-1:     0.018489     0.008215     0.006612
Rotational constants in MHz :   554.276917   246.271933   198.235942

                             ****ORCA TERMINATED NORMALLY****
TOTAL RUN TIME: 0 days 0 hours 0 minutes 21 seconds 370 msec
