                         Program Version 4.2.1 -  RELEASE  -
|  1> ! wB97X-D3 SP def2-SVP
|  2> %pal
|  3> nprocs 24
|  4> end
|  5>
|  6> * xyz 0 1
|  7> S 	 30.0708 	 -22.7382 	 -124.119
|  8> C 	 30.047 	 -22.6226 	 -125.876
|  9> C 	 29.4 	 -23.7174 	 -126.463
| 10> C 	 29.0126 	 -24.6636 	 -125.467
| 11> C 	 29.2413 	 -24.2835 	 -124.193
| 12> H 	 28.6291 	 -25.6562 	 -125.626
| 13> C 	 29.286 	 -23.9225 	 -127.934
| 14> H 	 29.8512 	 -23.2502 	 -128.559
| 15> H 	 28.2191 	 -23.6461 	 -128.124
| 16> C 	 29.3029 	 -25.3893 	 -128.351
| 17> H 	 28.4835 	 -25.9258 	 -127.836
| 18> H 	 28.9525 	 -25.4134 	 -129.452
| 19> C 	 30.6524 	 -26.1209 	 -128.195
| 20> H 	 30.6525 	 -27.1903 	 -128.519
| 21> H 	 31.5459 	 -25.5544 	 -128.626
| 22> H 	 30.8143 	 -26.2368 	 -127.126
| 23> S 	 30.2861 	 -26.3356 	 -122.8
| 24> C 	 29.4081 	 -27.1488 	 -121.568
| 25> C 	 28.1668 	 -26.5879 	 -121.435
| 26> C 	 27.92 	 -25.4959 	 -122.309
| 27> C 	 29.0387 	 -25.1842 	 -123.106
| 28> H 	 27.4858 	 -27.0397 	 -120.768
| 29> C 	 26.5342 	 -24.888 	 -122.55
| 30> H 	 25.7824 	 -25.6669 	 -122.459
| 31> H 	 26.4556 	 -24.532 	 -123.554
| 32> C 	 26.1704 	 -23.7564 	 -121.504
| 33> H 	 25.9941 	 -24.1453 	 -120.472
| 34> H 	 25.2747 	 -23.234 	 -121.856
| 35> C 	 27.299 	 -22.7362 	 -121.35
| 36> H 	 28.1965 	 -23.2444 	 -121.029
| 37> H 	 26.9858 	 -22.0081 	 -120.671
| 38> H 	 27.5413 	 -22.3606 	 -122.344
| 39> H 	 30.4422 	 -21.8081 	 -126.465
| 40> H 	 29.8251 	 -27.9615 	 -120.979
| 41> *
| 42>
| 43>                          ****END OF INPUT****

CARTESIAN COORDINATES (ANGSTROEM)
---------------------------------
  S     30.070800  -22.738200  -124.119000
  C     30.047000  -22.622600  -125.876000
  C     29.400000  -23.717400  -126.463000
  C     29.012600  -24.663600  -125.467000
  C     29.241300  -24.283500  -124.193000
  H     28.629100  -25.656200  -125.626000
  C     29.286000  -23.922500  -127.934000
  H     29.851200  -23.250200  -128.559000
  H     28.219100  -23.646100  -128.124000
  C     29.302900  -25.389300  -128.351000
  H     28.483500  -25.925800  -127.836000
  H     28.952500  -25.413400  -129.452000
  C     30.652400  -26.120900  -128.195000
  H     30.652500  -27.190300  -128.519000
  H     31.545900  -25.554400  -128.626000
  H     30.814300  -26.236800  -127.126000
  S     30.286100  -26.335600  -122.800000
  C     29.408100  -27.148800  -121.568000
  C     28.166800  -26.587900  -121.435000
  C     27.920000  -25.495900  -122.309000
  C     29.038700  -25.184200  -123.106000
  H     27.485800  -27.039700  -120.768000
  C     26.534200  -24.888000  -122.550000
  H     25.782400  -25.666900  -122.459000
  H     26.455600  -24.532000  -123.554000
  C     26.170400  -23.756400  -121.504000
  H     25.994100  -24.145300  -120.472000
  H     25.274700  -23.234000  -121.856000
  C     27.299000  -22.736200  -121.350000
  H     28.196500  -23.244400  -121.029000
  H     26.985800  -22.008100  -120.671000
  H     27.541300  -22.360600  -122.344000
  H     30.442200  -21.808100  -126.465000
  H     29.825100  -27.961500  -120.979000

 Total Charge           Charge          ....    0
 Multiplicity           Mult            ....    1
 Number of Electrons    NEL             ....  134
 Basis Dimension        Dim             ....  322

ORBITAL ENERGIES
----------------

  NO   OCC          E(Eh)            E(eV)
   0   2.0000     -88.968446     -2420.9545
   1   2.0000     -88.962009     -2420.7793
   2   2.0000     -10.322369      -280.8859
   3   2.0000     -10.320735      -280.8415
   4   2.0000     -10.315490      -280.6987
   5   2.0000     -10.313904      -280.6556
   6   2.0000     -10.303922      -280.3840
   7   2.0000     -10.302596      -280.3479
   8   2.0000     -10.297680      -280.2141
   9   2.0000     -10.294838      -280.1368
  10   2.0000     -10.290867      -280.0287
  11   2.0000     -10.289159      -279.9823
  12   2.0000     -10.288365      -279.9606
  13   2.0000     -10.284099      -279.8446
  14   2.0000     -10.283873      -279.8384
  15   2.0000     -10.258935      -279.1598
  16   2.0000      -8.082441      -219.9344
  17   2.0000      -8.077909      -219.8111
  18   2.0000      -6.040963      -164.3829
  19   2.0000      -6.037071      -164.2770
  20   2.0000      -6.036216      -164.2538
  21   2.0000      -6.033196      -164.1716
  22   2.0000      -6.032039      -164.1401
  23   2.0000      -6.029020      -164.0580
  24   2.0000      -1.012296       -27.5460
  25   2.0000      -0.987273       -26.8651
  26   2.0000      -0.915637       -24.9158
  27   2.0000      -0.901354       -24.5271
  28   2.0000      -0.875198       -23.8154
  29   2.0000      -0.844703       -22.9855
  30   2.0000      -0.843042       -22.9403
  31   2.0000      -0.816702       -22.2236
  32   2.0000      -0.784936       -21.3592
  33   2.0000      -0.771381       -20.9904
  34   2.0000      -0.709996       -19.3200
  35   2.0000      -0.690834       -18.7985
  36   2.0000      -0.687053       -18.6957
  37   2.0000      -0.657788       -17.8993
  38   2.0000      -0.641678       -17.4609
  39   2.0000      -0.627006       -17.0617
  40   2.0000      -0.596656       -16.2358
  41   2.0000      -0.568713       -15.4755
  42   2.0000      -0.552825       -15.0431
  43   2.0000      -0.549265       -14.9462
  44   2.0000      -0.543451       -14.7880
  45   2.0000      -0.528694       -14.3865
  46   2.0000      -0.518674       -14.1138
  47   2.0000      -0.518232       -14.1018
  48   2.0000      -0.504700       -13.7336
  49   2.0000      -0.494078       -13.4446
  50   2.0000      -0.492044       -13.3892
  51   2.0000      -0.477316       -12.9884
  52   2.0000      -0.473286       -12.8788
  53   2.0000      -0.466896       -12.7049
  54   2.0000      -0.459878       -12.5139
  55   2.0000      -0.441901       -12.0247
  56   2.0000      -0.439082       -11.9480
  57   2.0000      -0.435907       -11.8616
  58   2.0000      -0.432287       -11.7631
  59   2.0000      -0.430550       -11.7159
  60   2.0000      -0.414811       -11.2876
  61   2.0000      -0.412491       -11.2244
  62   2.0000      -0.408205       -11.1078
  63   2.0000      -0.339151        -9.2288
  64   2.0000      -0.328185        -8.9304
  65   2.0000      -0.314981        -8.5711
  66   2.0000      -0.312454        -8.5023
  67   0.0000       0.046776         1.2728
  68   0.0000       0.052245         1.4217
  69   0.0000       0.114804         3.1240
  70   0.0000       0.121402         3.3035
  71   0.0000       0.129190         3.5154

MULLIKEN ATOMIC CHARGES
-----------------------
   0 S :    0.125344
   1 C :   -0.134963
   2 C :   -0.073536
   3 C :    0.029911
   4 C :   -0.157857
   5 H :    0.012657
   6 C :    0.098968
   7 H :    0.021095
   8 H :    0.040596
   9 C :   -0.128524
  10 H :    0.036156
  11 H :    0.036816
  12 C :   -0.056689
  13 H :    0.042243
  14 H :    0.048635
  15 H :    0.029625
  16 S :    0.118260
  17 C :   -0.100363
  18 C :   -0.019861
  19 C :   -0.033992
  20 C :   -0.202546
  21 H :    0.002372
  22 C :    0.095004
  23 H :    0.023071
  24 H :    0.022705
  25 C :   -0.102506
  26 H :    0.031045
  27 H :    0.030711
  28 C :   -0.021101
  29 H :    0.035941
  30 H :    0.026890
  31 H :    0.017141
  32 H :    0.044192
  33 H :    0.062560
Sum of atomic charges:    0.0000000

LOEWDIN ATOMIC CHARGES
----------------------
   0 S :    0.407147
   1 C :   -0.194601
   2 C :   -0.061006
   3 C :   -0.056163
   4 C :   -0.205147
   5 H :    0.030845
   6 C :   -0.035384
   7 H :    0.028025
   8 H :    0.046780
   9 C :   -0.050959
  10 H :    0.025561
  11 H :    0.030893
  12 C :   -0.080114
  13 H :    0.032110
  14 H :    0.035217
  15 H :    0.024480
  16 S :    0.436040
  17 C :   -0.194554
  18 C :   -0.072847
  19 C :   -0.051235
  20 C :   -0.214503
  21 H :    0.025270
  22 C :   -0.024850
  23 H :    0.029901
  24 H :    0.026308
  25 C :   -0.037850
  26 H :    0.023077
  27 H :    0.021840
  28 C :   -0.061300
  29 H :    0.022710
  30 H :    0.017426
  31 H :    0.017188
  32 H :    0.027027
  33 H :    0.032667

  Mayer bond orders larger than 0.100000
B(  0-S ,  1-C ) :   1.1372 B(  0-S ,  4-C ) :   1.1343 B(  1-C ,  2-C ) :   1.6086
B(  1-C , 32-H ) :   0.9707 B(  2-C ,  3-C ) :   1.2145 B(  2-C ,  6-C ) :   1.0224
B(  3-C ,  4-C ) :   1.6090 B(  3-C ,  5-H ) :   0.9893 B(  4-C , 20-C ) :   1.0250
B(  6-C ,  7-H ) :   0.9476 B(  6-C ,  8-H ) :   0.9186 B(  6-C ,  9-C ) :   1.0842
B(  9-C , 10-H ) :   0.9444 B(  9-C , 11-H ) :   0.9533 B(  9-C , 12-C ) :   1.0699
B( 12-C , 13-H ) :   0.9730 B( 12-C , 14-H ) :   0.9742 B( 12-C , 15-H ) :   0.9703
B( 16-S , 17-C ) :   1.1781 B( 16-S , 20-C ) :   1.1704 B( 17-C , 18-C ) :   1.5753
B( 17-C , 20-C ) :   0.1045 B( 17-C , 33-H ) :   0.9694 B( 18-C , 19-C ) :   1.2634
B( 18-C , 21-H ) :   1.0012 B( 19-C , 20-C ) :   1.5510 B( 19-C , 22-C ) :   1.0402
B( 22-C , 23-H ) :   0.9428 B( 22-C , 24-H ) :   0.9364 B( 22-C , 25-C ) :   1.0593
B( 25-C , 26-H ) :   0.9603 B( 25-C , 27-H ) :   0.9591 B( 25-C , 28-C ) :   1.0841
B( 28-C , 29-H ) :   0.9671 B( 28-C , 30-H ) :   0.9733 B( 28-C , 31-H ) :   0.9726

Dispersion correction           -0.015799652
FINAL SINGLE POINT ENERGY     -1339.887939661592

DIPOLE MOMENT
-------------
                                X             Y             Z
Electronic contribution:     10.59825       0.11022       9.38097
Nuclear contribution   :    -10.95758      -0.37167      -9.73861
                        -----------------------------------------
Total Dipole Moment    :     -0.35934      -0.26145      -0.35764
                        -----------------------------------------
Magnitude (a.u.)       :      0.57043
Magnitude (Debye)      :      1.44991

Rotational constants in cm-1:     0.019996     0.009355     0.007959
Rotational constants in MHz :   599.450663   280.453381   238.592901

                             ****ORCA TERMINATED NORMALLY****
TOTAL RUN TIME: 0 days 0 hours 0 minutes 21 seconds 384 msec
