                         Program Version 4.2.1 -  RELEASE  -
|  1> ! wB97X-D3 SP def2-SVP
|  2> %pal
|  3> nprocs 24
|  4> end
|  5>
|  6> * xyz 0 1
|  7> S 	 -128.571 	 58.1993 	 -60.9725
|  8> C 	 -129.836 	 58.4856 	 -62.1829
|  9> C 	 -130.848 	 57.5094 	 -62.1658
| 10> C 	 -130.599 	 56.55 	 -61.1194
| 11> C 	 -129.384 	 56.6944 	 -60.4932
| 12> H 	 -131.316 	 55.7793 	 -60.8039
| 13> C 	 -132.048 	 57.5205 	 -63.1417
| 14> H 	 -132.722 	 56.7599 	 -62.8075
| 15> H 	 -131.741 	 57.2542 	 -64.1453
| 16> C 	 -132.883 	 58.8057 	 -63.0557
| 17> H 	 -133.114 	 58.9961 	 -62.0161
| 18> H 	 -132.382 	 59.6566 	 -63.3533
| 19> C 	 -134.065 	 58.7663 	 -63.9793
| 20> H 	 -134.547 	 59.7364 	 -63.9451
| 21> H 	 -133.693 	 58.5726 	 -65.0256
| 22> H 	 -134.792 	 57.9811 	 -63.8145
| 23> S 	 -128.16 	 56.5933 	 -57.9829
| 24> C 	 -127.906 	 55.0715 	 -57.2778
| 25> C 	 -128.345 	 54.0101 	 -58.028
| 26> C 	 -128.752 	 54.4188 	 -59.3538
| 27> C 	 -128.78 	 55.851 	 -59.4583
| 28> H 	 -128.315 	 53.0007 	 -57.6131
| 29> C 	 -129.136 	 53.4747 	 -60.5362
| 30> H 	 -130.139 	 53.6377 	 -60.8423
| 31> H 	 -129.068 	 52.4194 	 -60.2722
| 32> C 	 -128.203 	 53.5288 	 -61.7208
| 33> H 	 -127.326 	 52.9969 	 -61.4496
| 34> H 	 -127.875 	 54.5779 	 -61.8134
| 35> C 	 -128.821 	 52.9871 	 -63.0185
| 36> H 	 -128.052 	 53.012 	 -63.7114
| 37> H 	 -129.722 	 53.5939 	 -63.4075
| 38> H 	 -129.233 	 51.9966 	 -62.9018
| 39> H 	 -129.961 	 59.3526 	 -62.8226
| 40> H 	 -127.521 	 55.088 	 -56.278
| 41> *
| 42>
| 43>                          ****END OF INPUT****

CARTESIAN COORDINATES (ANGSTROEM)
---------------------------------
  S    -128.571000   58.199300  -60.972500
  C    -129.836000   58.485600  -62.182900
  C    -130.848000   57.509400  -62.165800
  C    -130.599000   56.550000  -61.119400
  C    -129.384000   56.694400  -60.493200
  H    -131.316000   55.779300  -60.803900
  C    -132.048000   57.520500  -63.141700
  H    -132.722000   56.759900  -62.807500
  H    -131.741000   57.254200  -64.145300
  C    -132.883000   58.805700  -63.055700
  H    -133.114000   58.996100  -62.016100
  H    -132.382000   59.656600  -63.353300
  C    -134.065000   58.766300  -63.979300
  H    -134.547000   59.736400  -63.945100
  H    -133.693000   58.572600  -65.025600
  H    -134.792000   57.981100  -63.814500
  S    -128.160000   56.593300  -57.982900
  C    -127.906000   55.071500  -57.277800
  C    -128.345000   54.010100  -58.028000
  C    -128.752000   54.418800  -59.353800
  C    -128.780000   55.851000  -59.458300
  H    -128.315000   53.000700  -57.613100
  C    -129.136000   53.474700  -60.536200
  H    -130.139000   53.637700  -60.842300
  H    -129.068000   52.419400  -60.272200
  C    -128.203000   53.528800  -61.720800
  H    -127.326000   52.996900  -61.449600
  H    -127.875000   54.577900  -61.813400
  C    -128.821000   52.987100  -63.018500
  H    -128.052000   53.012000  -63.711400
  H    -129.722000   53.593900  -63.407500
  H    -129.233000   51.996600  -62.901800
  H    -129.961000   59.352600  -62.822600
  H    -127.521000   55.088000  -56.278000

 Total Charge           Charge          ....    0
 Multiplicity           Mult            ....    1
 Number of Electrons    NEL             ....  134
 Basis Dimension        Dim             ....  322

ORBITAL ENERGIES
----------------

  NO   OCC          E(Eh)            E(eV)
   0   2.0000     -88.967605     -2420.9316
   1   2.0000     -88.965706     -2420.8799
   2   2.0000     -10.331000      -281.1208
   3   2.0000     -10.329398      -281.0772
   4   2.0000     -10.315806      -280.7074
   5   2.0000     -10.313805      -280.6529
   6   2.0000     -10.312559      -280.6190
   7   2.0000     -10.305060      -280.4149
   8   2.0000     -10.297975      -280.2221
   9   2.0000     -10.297322      -280.2044
  10   2.0000     -10.293537      -280.1014
  11   2.0000     -10.286501      -279.9099
  12   2.0000     -10.279263      -279.7130
  13   2.0000     -10.278364      -279.6885
  14   2.0000     -10.275575      -279.6126
  15   2.0000     -10.275463      -279.6096
  16   2.0000      -8.081439      -219.9071
  17   2.0000      -8.081385      -219.9057
  18   2.0000      -6.039923      -164.3547
  19   2.0000      -6.039669      -164.3477
  20   2.0000      -6.036157      -164.2522
  21   2.0000      -6.035779      -164.2419
  22   2.0000      -6.032458      -164.1515
  23   2.0000      -6.032060      -164.1407
  24   2.0000      -1.001965       -27.2649
  25   2.0000      -0.979073       -26.6419
  26   2.0000      -0.916011       -24.9259
  27   2.0000      -0.909477       -24.7481
  28   2.0000      -0.866161       -23.5694
  29   2.0000      -0.850634       -23.1469
  30   2.0000      -0.844246       -22.9731
  31   2.0000      -0.811732       -22.0883
  32   2.0000      -0.784976       -21.3603
  33   2.0000      -0.769435       -20.9374
  34   2.0000      -0.708373       -19.2758
  35   2.0000      -0.701113       -19.0782
  36   2.0000      -0.687518       -18.7083
  37   2.0000      -0.659907       -17.9570
  38   2.0000      -0.635211       -17.2850
  39   2.0000      -0.617491       -16.8028
  40   2.0000      -0.599316       -16.3082
  41   2.0000      -0.574433       -15.6311
  42   2.0000      -0.567004       -15.4290
  43   2.0000      -0.557826       -15.1792
  44   2.0000      -0.528811       -14.3897
  45   2.0000      -0.524974       -14.2853
  46   2.0000      -0.518272       -14.1029
  47   2.0000      -0.507977       -13.8228
  48   2.0000      -0.499291       -13.5864
  49   2.0000      -0.494104       -13.4453
  50   2.0000      -0.492145       -13.3920
  51   2.0000      -0.483009       -13.1433
  52   2.0000      -0.473721       -12.8906
  53   2.0000      -0.463580       -12.6147
  54   2.0000      -0.454973       -12.3804
  55   2.0000      -0.454359       -12.3637
  56   2.0000      -0.443090       -12.0571
  57   2.0000      -0.436199       -11.8696
  58   2.0000      -0.434592       -11.8259
  59   2.0000      -0.427189       -11.6244
  60   2.0000      -0.424625       -11.5546
  61   2.0000      -0.420237       -11.4352
  62   2.0000      -0.407538       -11.0897
  63   2.0000      -0.345312        -9.3964
  64   2.0000      -0.333171        -9.0660
  65   2.0000      -0.330238        -8.9862
  66   2.0000      -0.285998        -7.7824
  67   0.0000       0.024262         0.6602
  68   0.0000       0.072732         1.9791
  69   0.0000       0.102782         2.7968
  70   0.0000       0.119733         3.2581
  71   0.0000       0.136239         3.7072

MULLIKEN ATOMIC CHARGES
-----------------------
   0 S :    0.103515
   1 C :   -0.111913
   2 C :   -0.118201
   3 C :    0.020886
   4 C :   -0.148688
   5 H :    0.027453
   6 C :    0.093467
   7 H :    0.006914
   8 H :    0.038522
   9 C :   -0.060954
  10 H :    0.029774
  11 H :    0.007946
  12 C :   -0.045522
  13 H :    0.036608
  14 H :    0.026723
  15 H :    0.027004
  16 S :    0.113843
  17 C :   -0.097700
  18 C :   -0.026112
  19 C :   -0.045529
  20 C :   -0.155639
  21 H :    0.026211
  22 C :    0.089197
  23 H :    0.011734
  24 H :    0.011383
  25 C :   -0.077768
  26 H :    0.016391
  27 H :    0.038693
  28 C :   -0.029147
  29 H :    0.025097
  30 H :    0.040196
  31 H :    0.023377
  32 H :    0.046250
  33 H :    0.055989
Sum of atomic charges:   -0.0000000

LOEWDIN ATOMIC CHARGES
----------------------
   0 S :    0.383088
   1 C :   -0.192384
   2 C :   -0.058701
   3 C :   -0.065432
   4 C :   -0.185895
   5 H :    0.036143
   6 C :   -0.023689
   7 H :    0.026782
   8 H :    0.031226
   9 C :   -0.037945
  10 H :    0.026933
  11 H :    0.012467
  12 C :   -0.062767
  13 H :    0.027745
  14 H :    0.030275
  15 H :    0.019528
  16 S :    0.425082
  17 C :   -0.196232
  18 C :   -0.075792
  19 C :   -0.042364
  20 C :   -0.206659
  21 H :    0.036365
  22 C :   -0.030674
  23 H :    0.019287
  24 H :    0.029314
  25 C :   -0.037551
  26 H :    0.018947
  27 H :    0.027080
  28 C :   -0.058340
  29 H :    0.018039
  30 H :    0.035136
  31 H :    0.020741
  32 H :    0.026698
  33 H :    0.023549

  Mayer bond orders larger than 0.100000
B(  0-S ,  1-C ) :   1.1305 B(  0-S ,  4-C ) :   1.1331 B(  1-C ,  2-C ) :   1.6252
B(  1-C , 32-H ) :   0.9674 B(  2-C ,  3-C ) :   1.2400 B(  2-C ,  6-C ) :   1.0109
B(  3-C ,  4-C ) :   1.5901 B(  3-C ,  5-H ) :   0.9849 B(  4-C , 20-C ) :   1.0480
B(  6-C ,  7-H ) :   0.9416 B(  6-C ,  8-H ) :   0.9403 B(  6-C ,  9-C ) :   1.0658
B(  9-C , 10-H ) :   0.9547 B(  9-C , 11-H ) :   0.9516 B(  9-C , 12-C ) :   1.0889
B( 12-C , 13-H ) :   0.9732 B( 12-C , 14-H ) :   0.9704 B( 12-C , 15-H ) :   0.9761
B( 16-S , 17-C ) :   1.1848 B( 16-S , 20-C ) :   1.1546 B( 17-C , 18-C ) :   1.5733
B( 17-C , 33-H ) :   0.9700 B( 18-C , 19-C ) :   1.2657 B( 18-C , 21-H ) :   0.9948
B( 19-C , 20-C ) :   1.5504 B( 19-C , 22-C ) :   1.0342 B( 22-C , 23-H ) :   0.9413
B( 22-C , 24-H ) :   0.9362 B( 22-C , 25-C ) :   1.0547 B( 25-C , 26-H ) :   0.9535
B( 25-C , 27-H ) :   0.9607 B( 25-C , 28-C ) :   1.0809 B( 28-C , 29-H ) :   0.9731
B( 28-C , 30-H ) :   0.9735 B( 28-C , 31-H ) :   0.9734

Dispersion correction           -0.014207676
FINAL SINGLE POINT ENERGY     -1339.879043401532

DIPOLE MOMENT
-------------
                                X             Y             Z
Electronic contribution:     17.02267       8.62613      21.74822
Nuclear contribution   :    -17.48254      -8.95771     -21.97029
                        -----------------------------------------
Total Dipole Moment    :     -0.45987      -0.33158      -0.22207
                        -----------------------------------------
Magnitude (a.u.)       :      0.60889
Magnitude (Debye)      :      1.54766

Rotational constants in cm-1:     0.019773     0.007988     0.006540
Rotational constants in MHz :   592.790180   239.484055   196.071094

                             ****ORCA TERMINATED NORMALLY****
TOTAL RUN TIME: 0 days 0 hours 0 minutes 21 seconds 486 msec
