                         Program Version 4.2.1 -  RELEASE  -
|  1> ! wB97X-D3 SP def2-SVP
|  2> %pal
|  3> nprocs 24
|  4> end
|  5>
|  6> * xyz 0 1
|  7> S 	 -37.1367 	 -50.6977 	 -73.2834
|  8> C 	 -37.4205 	 -49.1438 	 -74.0749
|  9> C 	 -38.6038 	 -48.5242 	 -73.6506
| 10> C 	 -39.3644 	 -49.3436 	 -72.762
| 11> C 	 -38.7441 	 -50.55 	 -72.488
| 12> H 	 -40.2637 	 -49.0672 	 -72.1944
| 13> C 	 -39.1333 	 -47.1905 	 -74.0154
| 14> H 	 -38.6265 	 -46.571 	 -73.3291
| 15> H 	 -40.2084 	 -47.2245 	 -73.8093
| 16> C 	 -38.8987 	 -46.7552 	 -75.4637
| 17> H 	 -39.4063 	 -45.8739 	 -75.7439
| 18> H 	 -37.8375 	 -46.6149 	 -75.6495
| 19> C 	 -39.51 	 -47.7467 	 -76.463
| 20> H 	 -40.6155 	 -47.9534 	 -76.3034
| 21> H 	 -39.3088 	 -47.4602 	 -77.5102
| 22> H 	 -39.0749 	 -48.729 	 -76.2927
| 23> S 	 -37.9339 	 -51.9395 	 -70.2266
| 24> C 	 -39.0173 	 -53.1715 	 -69.5736
| 25> C 	 -40.2495 	 -53.128 	 -70.13
| 26> C 	 -40.2923 	 -52.1922 	 -71.272
| 27> C 	 -39.1027 	 -51.5789 	 -71.4909
| 28> H 	 -41.0817 	 -53.7727 	 -69.8018
| 29> C 	 -41.5285 	 -51.8704 	 -72.0734
| 30> H 	 -41.2269 	 -51.6417 	 -73.087
| 31> H 	 -41.8793 	 -50.9515 	 -71.6049
| 32> C 	 -42.7097 	 -52.8196 	 -72.1316
| 33> H 	 -42.9627 	 -53.178 	 -71.0922
| 34> H 	 -42.3719 	 -53.709 	 -72.7306
| 35> C 	 -43.864 	 -52.265 	 -72.9869
| 36> H 	 -43.5667 	 -51.8359 	 -73.9462
| 37> H 	 -44.396 	 -51.4708 	 -72.4338
| 38> H 	 -44.6718 	 -53.0023 	 -73.0939
| 39> H 	 -36.6165 	 -48.6152 	 -74.6059
| 40> H 	 -38.7996 	 -53.7515 	 -68.71
| 41> *
| 42>
| 43>                          ****END OF INPUT****

CARTESIAN COORDINATES (ANGSTROEM)
---------------------------------
  S    -37.136700  -50.697700  -73.283400
  C    -37.420500  -49.143800  -74.074900
  C    -38.603800  -48.524200  -73.650600
  C    -39.364400  -49.343600  -72.762000
  C    -38.744100  -50.550000  -72.488000
  H    -40.263700  -49.067200  -72.194400
  C    -39.133300  -47.190500  -74.015400
  H    -38.626500  -46.571000  -73.329100
  H    -40.208400  -47.224500  -73.809300
  C    -38.898700  -46.755200  -75.463700
  H    -39.406300  -45.873900  -75.743900
  H    -37.837500  -46.614900  -75.649500
  C    -39.510000  -47.746700  -76.463000
  H    -40.615500  -47.953400  -76.303400
  H    -39.308800  -47.460200  -77.510200
  H    -39.074900  -48.729000  -76.292700
  S    -37.933900  -51.939500  -70.226600
  C    -39.017300  -53.171500  -69.573600
  C    -40.249500  -53.128000  -70.130000
  C    -40.292300  -52.192200  -71.272000
  C    -39.102700  -51.578900  -71.490900
  H    -41.081700  -53.772700  -69.801800
  C    -41.528500  -51.870400  -72.073400
  H    -41.226900  -51.641700  -73.087000
  H    -41.879300  -50.951500  -71.604900
  C    -42.709700  -52.819600  -72.131600
  H    -42.962700  -53.178000  -71.092200
  H    -42.371900  -53.709000  -72.730600
  C    -43.864000  -52.265000  -72.986900
  H    -43.566700  -51.835900  -73.946200
  H    -44.396000  -51.470800  -72.433800
  H    -44.671800  -53.002300  -73.093900
  H    -36.616500  -48.615200  -74.605900
  H    -38.799600  -53.751500  -68.710000

 Total Charge           Charge          ....    0
 Multiplicity           Mult            ....    1
 Number of Electrons    NEL             ....  134
 Basis Dimension        Dim             ....  322

ORBITAL ENERGIES
----------------

  NO   OCC          E(Eh)            E(eV)
   0   2.0000     -88.966858     -2420.9113
   1   2.0000     -88.961657     -2420.7698
   2   2.0000     -10.333331      -281.1842
   3   2.0000     -10.321099      -280.8514
   4   2.0000     -10.316648      -280.7303
   5   2.0000     -10.314016      -280.6586
   6   2.0000     -10.302774      -280.3527
   7   2.0000     -10.302368      -280.3417
   8   2.0000     -10.297811      -280.2177
   9   2.0000     -10.297675      -280.2140
  10   2.0000     -10.295059      -280.1428
  11   2.0000     -10.288194      -279.9560
  12   2.0000     -10.287896      -279.9479
  13   2.0000     -10.284265      -279.8491
  14   2.0000     -10.283783      -279.8360
  15   2.0000     -10.276897      -279.6486
  16   2.0000      -8.080504      -219.8817
  17   2.0000      -8.076323      -219.7679
  18   2.0000      -6.038978      -164.3289
  19   2.0000      -6.035306      -164.2290
  20   2.0000      -6.035013      -164.2211
  21   2.0000      -6.031233      -164.1182
  22   2.0000      -6.031023      -164.1125
  23   2.0000      -6.026705      -163.9950
  24   2.0000      -1.002371       -27.2759
  25   2.0000      -0.979787       -26.6613
  26   2.0000      -0.916518       -24.9397
  27   2.0000      -0.910587       -24.7783
  28   2.0000      -0.866023       -23.5657
  29   2.0000      -0.852738       -23.2042
  30   2.0000      -0.844193       -22.9717
  31   2.0000      -0.814151       -22.1542
  32   2.0000      -0.781554       -21.2672
  33   2.0000      -0.770968       -20.9791
  34   2.0000      -0.707310       -19.2469
  35   2.0000      -0.701409       -19.0863
  36   2.0000      -0.694812       -18.9068
  37   2.0000      -0.652624       -17.7588
  38   2.0000      -0.637161       -17.3380
  39   2.0000      -0.609466       -16.5844
  40   2.0000      -0.596483       -16.2311
  41   2.0000      -0.576462       -15.6863
  42   2.0000      -0.570947       -15.5363
  43   2.0000      -0.562370       -15.3029
  44   2.0000      -0.542501       -14.7622
  45   2.0000      -0.524112       -14.2618
  46   2.0000      -0.513275       -13.9669
  47   2.0000      -0.507953       -13.8221
  48   2.0000      -0.504717       -13.7340
  49   2.0000      -0.491635       -13.3781
  50   2.0000      -0.484359       -13.1801
  51   2.0000      -0.478795       -13.0287
  52   2.0000      -0.474203       -12.9037
  53   2.0000      -0.462037       -12.5727
  54   2.0000      -0.459675       -12.5084
  55   2.0000      -0.454221       -12.3600
  56   2.0000      -0.442308       -12.0358
  57   2.0000      -0.438879       -11.9425
  58   2.0000      -0.430438       -11.7128
  59   2.0000      -0.429071       -11.6756
  60   2.0000      -0.423666       -11.5285
  61   2.0000      -0.412340       -11.2203
  62   2.0000      -0.410376       -11.1669
  63   2.0000      -0.347839        -9.4652
  64   2.0000      -0.328721        -8.9449
  65   2.0000      -0.325725        -8.8634
  66   2.0000      -0.293527        -7.9873
  67   0.0000       0.029273         0.7965
  68   0.0000       0.070610         1.9214
  69   0.0000       0.104575         2.8456
  70   0.0000       0.118985         3.2378
  71   0.0000       0.131814         3.5868

MULLIKEN ATOMIC CHARGES
-----------------------
   0 S :    0.101526
   1 C :   -0.123985
   2 C :   -0.134520
   3 C :    0.014866
   4 C :   -0.166717
   5 H :    0.030047
   6 C :    0.111648
   7 H :    0.037244
   8 H :    0.024488
   9 C :   -0.044219
  10 H :    0.023209
  11 H :    0.027137
  12 C :   -0.095286
  13 H :    0.034815
  14 H :    0.041088
  15 H :    0.035649
  16 S :    0.094051
  17 C :   -0.067099
  18 C :   -0.039178
  19 C :   -0.041191
  20 C :   -0.141020
  21 H :    0.032608
  22 C :    0.040992
  23 H :    0.033411
  24 H :    0.032612
  25 C :   -0.096288
  26 H :    0.038598
  27 H :    0.037724
  28 C :   -0.045344
  29 H :    0.040339
  30 H :    0.022620
  31 H :    0.036738
  32 H :    0.058754
  33 H :    0.044685
Sum of atomic charges:   -0.0000000

LOEWDIN ATOMIC CHARGES
----------------------
   0 S :    0.382269
   1 C :   -0.204901
   2 C :   -0.057876
   3 C :   -0.063823
   4 C :   -0.169906
   5 H :    0.039008
   6 C :   -0.027802
   7 H :    0.034440
   8 H :    0.032969
   9 C :   -0.037558
  10 H :    0.021653
  11 H :    0.023236
  12 C :   -0.073395
  13 H :    0.030145
  14 H :    0.027022
  15 H :    0.021250
  16 S :    0.381839
  17 C :   -0.168442
  18 C :   -0.073474
  19 C :   -0.052528
  20 C :   -0.203232
  21 H :    0.036433
  22 C :   -0.038569
  23 H :    0.032327
  24 H :    0.031649
  25 C :   -0.048261
  26 H :    0.026353
  27 H :    0.030049
  28 C :   -0.067064
  29 H :    0.028569
  30 H :    0.023949
  31 H :    0.029696
  32 H :    0.029977
  33 H :    0.023998

  Mayer bond orders larger than 0.100000
B(  0-S ,  1-C ) :   1.1259 B(  0-S ,  4-C ) :   1.1482 B(  1-C ,  2-C ) :   1.6138
B(  1-C , 32-H ) :   0.9626 B(  2-C ,  3-C ) :   1.2383 B(  2-C ,  6-C ) :   1.0011
B(  3-C ,  4-C ) :   1.5861 B(  3-C ,  5-H ) :   0.9855 B(  4-C , 20-C ) :   1.0264
B(  6-C ,  7-H ) :   0.9233 B(  6-C ,  8-H ) :   0.9446 B(  6-C ,  9-C ) :   1.0872
B(  9-C , 10-H ) :   0.9578 B(  9-C , 11-H ) :   0.9496 B(  9-C , 12-C ) :   1.0725
B( 12-C , 13-H ) :   0.9741 B( 12-C , 14-H ) :   0.9752 B( 12-C , 15-H ) :   0.9724
B( 16-S , 17-C ) :   1.1301 B( 16-S , 20-C ) :   1.1152 B( 17-C , 18-C ) :   1.6599
B( 17-C , 33-H ) :   0.9665 B( 18-C , 19-C ) :   1.1877 B( 18-C , 21-H ) :   0.9837
B( 19-C , 20-C ) :   1.6686 B( 19-C , 22-C ) :   1.0406 B( 22-C , 23-H ) :   0.9300
B( 22-C , 24-H ) :   0.9271 B( 22-C , 25-C ) :   1.0739 B( 25-C , 26-H ) :   0.9475
B( 25-C , 27-H ) :   0.9563 B( 25-C , 28-C ) :   1.0815 B( 28-C , 29-H ) :   0.9730
B( 28-C , 30-H ) :   0.9733 B( 28-C , 31-H ) :   0.9731

Dispersion correction           -0.014059615
FINAL SINGLE POINT ENERGY     -1339.883444906370

DIPOLE MOMENT
-------------
                                X             Y             Z
Electronic contribution:     22.64523      -9.22313      15.12440
Nuclear contribution   :    -23.26510       9.58892     -15.11104
                        -----------------------------------------
Total Dipole Moment    :     -0.61987       0.36579       0.01336
                        -----------------------------------------
Magnitude (a.u.)       :      0.71987
Magnitude (Debye)      :      1.82978

Rotational constants in cm-1:     0.017880     0.008805     0.006383
Rotational constants in MHz :   536.025684   263.968740   191.357094

                             ****ORCA TERMINATED NORMALLY****
TOTAL RUN TIME: 0 days 0 hours 0 minutes 21 seconds 339 msec
