                         Program Version 4.2.1 -  RELEASE  -
|  1> ! wB97X-D3 SP def2-SVP
|  2> %pal
|  3> nprocs 24
|  4> end
|  5>
|  6> * xyz 0 1
|  7> S 	 -68.7158 	 1.84438 	 -72.2114
|  8> C 	 -68.7784 	 2.54289 	 -73.8338
|  9> C 	 -67.9236 	 1.89651 	 -74.6126
| 10> C 	 -67.2687 	 0.755949 	 -74.0104
| 11> C 	 -67.4131 	 0.771187 	 -72.6197
| 12> H 	 -66.5818 	 0.0138141 	 -74.4471
| 13> C 	 -67.7556 	 2.28517 	 -76.1172
| 14> H 	 -66.751 	 2.07201 	 -76.484
| 15> H 	 -67.9316 	 3.40433 	 -76.1819
| 16> C 	 -68.8168 	 1.57378 	 -77.0323
| 17> H 	 -69.8651 	 1.64172 	 -76.6024
| 18> H 	 -68.9778 	 2.02041 	 -78.014
| 19> C 	 -68.5239 	 0.0451263 	 -77.31
| 20> H 	 -67.5234 	 -0.101724 	 -77.7461
| 21> H 	 -68.5428 	 -0.567144 	 -76.3448
| 22> H 	 -69.3304 	 -0.326197 	 -77.9398
| 23> S 	 -65.0702 	 -0.0598366 	 -71.6836
| 24> C 	 -65.0267 	 -1.21561 	 -70.3859
| 25> C 	 -66.278 	 -1.58164 	 -69.9772
| 26> C 	 -67.2846 	 -0.940578 	 -70.7826
| 27> C 	 -66.7681 	 -0.0843042 	 -71.6962
| 28> H 	 -66.5017 	 -2.321 	 -69.2489
| 29> C 	 -68.7448 	 -1.26257 	 -70.5637
| 30> H 	 -69.4932 	 -0.556143 	 -71.0118
| 31> H 	 -69.0324 	 -1.15313 	 -69.4416
| 32> C 	 -69.1174 	 -2.72264 	 -71.107
| 33> H 	 -70.1595 	 -2.97688 	 -70.9636
| 34> H 	 -68.6176 	 -3.45537 	 -70.4983
| 35> C 	 -68.8461 	 -2.87324 	 -72.6281
| 36> H 	 -69.0347 	 -3.88036 	 -72.992
| 37> H 	 -67.7643 	 -2.71224 	 -72.8623
| 38> H 	 -69.3738 	 -2.14625 	 -73.3494
| 39> H 	 -69.3467 	 3.38371 	 -74.2575
| 40> H 	 -64.1143 	 -1.59715 	 -69.9727
| 41> *
| 42>
| 43>                          ****END OF INPUT****

CARTESIAN COORDINATES (ANGSTROEM)
---------------------------------
  S    -68.715800    1.844380  -72.211400
  C    -68.778400    2.542890  -73.833800
  C    -67.923600    1.896510  -74.612600
  C    -67.268700    0.755949  -74.010400
  C    -67.413100    0.771187  -72.619700
  H    -66.581800    0.013814  -74.447100
  C    -67.755600    2.285170  -76.117200
  H    -66.751000    2.072010  -76.484000
  H    -67.931600    3.404330  -76.181900
  C    -68.816800    1.573780  -77.032300
  H    -69.865100    1.641720  -76.602400
  H    -68.977800    2.020410  -78.014000
  C    -68.523900    0.045126  -77.310000
  H    -67.523400   -0.101724  -77.746100
  H    -68.542800   -0.567144  -76.344800
  H    -69.330400   -0.326197  -77.939800
  S    -65.070200   -0.059837  -71.683600
  C    -65.026700   -1.215610  -70.385900
  C    -66.278000   -1.581640  -69.977200
  C    -67.284600   -0.940578  -70.782600
  C    -66.768100   -0.084304  -71.696200
  H    -66.501700   -2.321000  -69.248900
  C    -68.744800   -1.262570  -70.563700
  H    -69.493200   -0.556143  -71.011800
  H    -69.032400   -1.153130  -69.441600
  C    -69.117400   -2.722640  -71.107000
  H    -70.159500   -2.976880  -70.963600
  H    -68.617600   -3.455370  -70.498300
  C    -68.846100   -2.873240  -72.628100
  H    -69.034700   -3.880360  -72.992000
  H    -67.764300   -2.712240  -72.862300
  H    -69.373800   -2.146250  -73.349400
  H    -69.346700    3.383710  -74.257500
  H    -64.114300   -1.597150  -69.972700

 Total Charge           Charge          ....    0
 Multiplicity           Mult            ....    1
 Number of Electrons    NEL             ....  134
 Basis Dimension        Dim             ....  322

ORBITAL ENERGIES
----------------

  NO   OCC          E(Eh)            E(eV)
   0   2.0000     -88.966668     -2420.9061
   1   2.0000     -88.964566     -2420.8489
   2   2.0000     -10.326903      -281.0093
   3   2.0000     -10.316697      -280.7316
   4   2.0000     -10.316069      -280.7145
   5   2.0000     -10.309429      -280.5338
   6   2.0000     -10.302710      -280.3510
   7   2.0000     -10.302365      -280.3416
   8   2.0000     -10.299748      -280.2704
   9   2.0000     -10.298302      -280.2310
  10   2.0000     -10.297443      -280.2077
  11   2.0000     -10.294485      -280.1272
  12   2.0000     -10.292951      -280.0854
  13   2.0000     -10.289761      -279.9986
  14   2.0000     -10.284247      -279.8486
  15   2.0000     -10.281094      -279.7628
  16   2.0000      -8.082712      -219.9418
  17   2.0000      -8.078942      -219.8392
  18   2.0000      -6.041144      -164.3879
  19   2.0000      -6.037576      -164.2908
  20   2.0000      -6.037018      -164.2756
  21   2.0000      -6.033560      -164.1815
  22   2.0000      -6.033493      -164.1797
  23   2.0000      -6.029487      -164.0707
  24   2.0000      -1.018284       -27.7089
  25   2.0000      -0.990463       -26.9519
  26   2.0000      -0.902734       -24.5646
  27   2.0000      -0.898509       -24.4497
  28   2.0000      -0.874277       -23.7903
  29   2.0000      -0.846363       -23.0307
  30   2.0000      -0.835249       -22.7283
  31   2.0000      -0.816708       -22.2237
  32   2.0000      -0.777162       -21.1477
  33   2.0000      -0.768495       -20.9118
  34   2.0000      -0.710020       -19.3206
  35   2.0000      -0.696475       -18.9520
  36   2.0000      -0.692849       -18.8534
  37   2.0000      -0.670238       -18.2381
  38   2.0000      -0.635080       -17.2814
  39   2.0000      -0.609440       -16.5837
  40   2.0000      -0.597597       -16.2614
  41   2.0000      -0.573737       -15.6122
  42   2.0000      -0.545021       -14.8308
  43   2.0000      -0.540000       -14.6941
  44   2.0000      -0.539279       -14.6745
  45   2.0000      -0.531482       -14.4624
  46   2.0000      -0.514518       -14.0007
  47   2.0000      -0.510138       -13.8816
  48   2.0000      -0.503076       -13.6894
  49   2.0000      -0.495568       -13.4851
  50   2.0000      -0.485853       -13.2207
  51   2.0000      -0.479071       -13.0362
  52   2.0000      -0.470502       -12.8030
  53   2.0000      -0.463778       -12.6200
  54   2.0000      -0.459939       -12.5156
  55   2.0000      -0.444728       -12.1017
  56   2.0000      -0.441448       -12.0124
  57   2.0000      -0.431817       -11.7503
  58   2.0000      -0.431405       -11.7391
  59   2.0000      -0.422884       -11.5073
  60   2.0000      -0.416748       -11.3403
  61   2.0000      -0.414341       -11.2748
  62   2.0000      -0.407819       -11.0973
  63   2.0000      -0.349126        -9.5002
  64   2.0000      -0.333142        -9.0652
  65   2.0000      -0.327008        -8.8983
  66   2.0000      -0.298190        -8.1142
  67   0.0000       0.032976         0.8973
  68   0.0000       0.073366         1.9964
  69   0.0000       0.111800         3.0422
  70   0.0000       0.121321         3.3013
  71   0.0000       0.127915         3.4807

MULLIKEN ATOMIC CHARGES
-----------------------
   0 S :    0.110941
   1 C :   -0.114668
   2 C :   -0.077230
   3 C :    0.012641
   4 C :   -0.155499
   5 H :    0.027010
   6 C :    0.050377
   7 H :    0.031558
   8 H :    0.037378
   9 C :   -0.089737
  10 H :    0.030452
  11 H :    0.031041
  12 C :   -0.089956
  13 H :    0.036954
  14 H :    0.046524
  15 H :    0.041269
  16 S :    0.125032
  17 C :   -0.081414
  18 C :   -0.005279
  19 C :   -0.020387
  20 C :   -0.164417
  21 H :    0.009889
  22 C :   -0.009568
  23 H :    0.035230
  24 H :    0.047894
  25 C :   -0.042814
  26 H :    0.027570
  27 H :    0.021437
  28 C :   -0.093136
  29 H :    0.031241
  30 H :    0.040103
  31 H :    0.049501
  32 H :    0.049970
  33 H :    0.050093
Sum of atomic charges:   -0.0000000

LOEWDIN ATOMIC CHARGES
----------------------
   0 S :    0.408366
   1 C :   -0.198013
   2 C :   -0.066863
   3 C :   -0.070901
   4 C :   -0.190736
   5 H :    0.033124
   6 C :   -0.029459
   7 H :    0.027096
   8 H :    0.036492
   9 C :   -0.048298
  10 H :    0.028157
  11 H :    0.020832
  12 C :   -0.074704
  13 H :    0.022995
  14 H :    0.030917
  15 H :    0.026534
  16 S :    0.439163
  17 C :   -0.180069
  18 C :   -0.057970
  19 C :   -0.060009
  20 C :   -0.221371
  21 H :    0.028305
  22 C :   -0.045967
  23 H :    0.024251
  24 H :    0.040593
  25 C :   -0.036368
  26 H :    0.023241
  27 H :    0.018297
  28 C :   -0.079295
  29 H :    0.023016
  30 H :    0.027287
  31 H :    0.035614
  32 H :    0.040522
  33 H :    0.025223

  Mayer bond orders larger than 0.100000
B(  0-S ,  1-C ) :   1.1085 B(  0-S ,  4-C ) :   1.1454 B(  1-C ,  2-C ) :   1.6708
B(  1-C , 32-H ) :   0.9611 B(  2-C ,  3-C ) :   1.2021 B(  2-C ,  6-C ) :   1.0166
B(  3-C ,  4-C ) :   1.5801 B(  3-C ,  5-H ) :   0.9871 B(  4-C , 20-C ) :   1.0476
B(  6-C ,  7-H ) :   0.9505 B(  6-C ,  8-H ) :   0.9456 B(  6-C ,  9-C ) :   1.0523
B(  9-C , 10-H ) :   0.9577 B(  9-C , 11-H ) :   0.9609 B(  9-C , 12-C ) :   1.0709
B( 12-C , 13-H ) :   0.9772 B( 12-C , 14-H ) :   0.9748 B( 12-C , 15-H ) :   0.9748
B( 16-S , 17-C ) :   1.1551 B( 16-S , 20-C ) :   1.1494 B( 17-C , 18-C ) :   1.6008
B( 17-C , 33-H ) :   0.9715 B( 18-C , 19-C ) :   1.2317 B( 18-C , 21-H ) :   0.9972
B( 19-C , 20-C ) :   1.6027 B( 19-C , 22-C ) :   1.0428 B( 22-C , 23-H ) :   0.9388
B( 22-C , 24-H ) :   0.9424 B( 22-C , 25-C ) :   1.0558 B( 25-C , 26-H ) :   0.9591
B( 25-C , 27-H ) :   0.9592 B( 25-C , 28-C ) :   1.0637 B( 28-C , 29-H ) :   0.9744
B( 28-C , 30-H ) :   0.9745 B( 28-C , 31-H ) :   0.9751

Dispersion correction           -0.015847539
FINAL SINGLE POINT ENERGY     -1339.880800027471

DIPOLE MOMENT
-------------
                                X             Y             Z
Electronic contribution:     11.82064      10.98714      16.31498
Nuclear contribution   :    -11.92433     -11.30093     -16.54797
                        -----------------------------------------
Total Dipole Moment    :     -0.10369      -0.31379      -0.23299
                        -----------------------------------------
Magnitude (a.u.)       :      0.40435
Magnitude (Debye)      :      1.02778

Rotational constants in cm-1:     0.020649     0.008722     0.008066
Rotational constants in MHz :   619.049803   261.470696   241.799791

                             ****ORCA TERMINATED NORMALLY****
TOTAL RUN TIME: 0 days 0 hours 0 minutes 21 seconds 230 msec
