                         Program Version 4.2.1 -  RELEASE  -
|  1> ! wB97X-D3 SP def2-SVP
|  2> %pal
|  3> nprocs 24
|  4> end
|  5>
|  6> * xyz 0 1
|  7> S 	 -25.4763 	 -34.9909 	 -91.7898
|  8> C 	 -23.9347 	 -35.7265 	 -91.3347
|  9> C 	 -23.1059 	 -35.854 	 -92.4283
| 10> C 	 -23.6915 	 -35.0861 	 -93.5462
| 11> C 	 -24.9475 	 -34.5734 	 -93.3831
| 12> H 	 -23.1509 	 -34.879 	 -94.4423
| 13> C 	 -21.71 	 -36.4234 	 -92.34
| 14> H 	 -21.2753 	 -35.8787 	 -91.5364
| 15> H 	 -21.1275 	 -36.0871 	 -93.1288
| 16> C 	 -21.4839 	 -37.9387 	 -92.0922
| 17> H 	 -22.1482 	 -38.314 	 -91.3327
| 18> H 	 -21.8861 	 -38.4125 	 -93.028
| 19> C 	 -20.0427 	 -38.385 	 -91.8982
| 20> H 	 -19.5127 	 -37.9207 	 -92.7502
| 21> H 	 -19.7457 	 -38.0304 	 -90.8928
| 22> H 	 -19.8194 	 -39.4675 	 -91.8868
| 23> S 	 -26.8769 	 -34.2852 	 -95.5147
| 24> C 	 -27.0435 	 -32.8034 	 -96.2204
| 25> C 	 -26.2738 	 -31.7976 	 -95.6043
| 26> C 	 -25.5759 	 -32.3182 	 -94.4513
| 27> C 	 -25.665 	 -33.6603 	 -94.2923
| 28> H 	 -26.2759 	 -30.7821 	 -95.9243
| 29> C 	 -24.7247 	 -31.3515 	 -93.591
| 30> H 	 -24.4161 	 -30.5024 	 -94.1098
| 31> H 	 -23.8234 	 -31.8989 	 -93.5021
| 32> C 	 -25.3418 	 -30.9284 	 -92.2063
| 33> H 	 -25.3817 	 -31.7692 	 -91.5723
| 34> H 	 -26.3147 	 -30.5301 	 -92.2364
| 35> C 	 -24.6408 	 -29.7652 	 -91.5631
| 36> H 	 -24.6444 	 -28.828 	 -92.1391
| 37> H 	 -23.6061 	 -29.9753 	 -91.5331
| 38> H 	 -24.8245 	 -29.5973 	 -90.5043
| 39> H 	 -23.6488 	 -36.0712 	 -90.3534
| 40> H 	 -27.4507 	 -32.6298 	 -97.2318
| 41> *
| 42>
| 43>                          ****END OF INPUT****

CARTESIAN COORDINATES (ANGSTROEM)
---------------------------------
  S    -25.476300  -34.990900  -91.789800
  C    -23.934700  -35.726500  -91.334700
  C    -23.105900  -35.854000  -92.428300
  C    -23.691500  -35.086100  -93.546200
  C    -24.947500  -34.573400  -93.383100
  H    -23.150900  -34.879000  -94.442300
  C    -21.710000  -36.423400  -92.340000
  H    -21.275300  -35.878700  -91.536400
  H    -21.127500  -36.087100  -93.128800
  C    -21.483900  -37.938700  -92.092200
  H    -22.148200  -38.314000  -91.332700
  H    -21.886100  -38.412500  -93.028000
  C    -20.042700  -38.385000  -91.898200
  H    -19.512700  -37.920700  -92.750200
  H    -19.745700  -38.030400  -90.892800
  H    -19.819400  -39.467500  -91.886800
  S    -26.876900  -34.285200  -95.514700
  C    -27.043500  -32.803400  -96.220400
  C    -26.273800  -31.797600  -95.604300
  C    -25.575900  -32.318200  -94.451300
  C    -25.665000  -33.660300  -94.292300
  H    -26.275900  -30.782100  -95.924300
  C    -24.724700  -31.351500  -93.591000
  H    -24.416100  -30.502400  -94.109800
  H    -23.823400  -31.898900  -93.502100
  C    -25.341800  -30.928400  -92.206300
  H    -25.381700  -31.769200  -91.572300
  H    -26.314700  -30.530100  -92.236400
  C    -24.640800  -29.765200  -91.563100
  H    -24.644400  -28.828000  -92.139100
  H    -23.606100  -29.975300  -91.533100
  H    -24.824500  -29.597300  -90.504300
  H    -23.648800  -36.071200  -90.353400
  H    -27.450700  -32.629800  -97.231800

 Total Charge           Charge          ....    0
 Multiplicity           Mult            ....    1
 Number of Electrons    NEL             ....  134
 Basis Dimension        Dim             ....  322

ORBITAL ENERGIES
----------------

  NO   OCC          E(Eh)            E(eV)
   0   2.0000     -88.964511     -2420.8474
   1   2.0000     -88.963620     -2420.8232
   2   2.0000     -10.329239      -281.0729
   3   2.0000     -10.328356      -281.0489
   4   2.0000     -10.317330      -280.7488
   5   2.0000     -10.316143      -280.7165
   6   2.0000     -10.307673      -280.4860
   7   2.0000     -10.304828      -280.4086
   8   2.0000     -10.296984      -280.1952
   9   2.0000     -10.291040      -280.0334
  10   2.0000     -10.290408      -280.0162
  11   2.0000     -10.288884      -279.9748
  12   2.0000     -10.287538      -279.9381
  13   2.0000     -10.285694      -279.8880
  14   2.0000     -10.274632      -279.5870
  15   2.0000     -10.267843      -279.4022
  16   2.0000      -8.079384      -219.8512
  17   2.0000      -8.079083      -219.8430
  18   2.0000      -6.037692      -164.2940
  19   2.0000      -6.037652      -164.2929
  20   2.0000      -6.033694      -164.1852
  21   2.0000      -6.033493      -164.1797
  22   2.0000      -6.030321      -164.0934
  23   2.0000      -6.029870      -164.0811
  24   2.0000      -1.005415       -27.3587
  25   2.0000      -0.986525       -26.8447
  26   2.0000      -0.914890       -24.8954
  27   2.0000      -0.906817       -24.6757
  28   2.0000      -0.871729       -23.7209
  29   2.0000      -0.855122       -23.2691
  30   2.0000      -0.843852       -22.9624
  31   2.0000      -0.811746       -22.0887
  32   2.0000      -0.786881       -21.4121
  33   2.0000      -0.777116       -21.1464
  34   2.0000      -0.708350       -19.2752
  35   2.0000      -0.704190       -19.1620
  36   2.0000      -0.694714       -18.9041
  37   2.0000      -0.659972       -17.9587
  38   2.0000      -0.645371       -17.5614
  39   2.0000      -0.615377       -16.7453
  40   2.0000      -0.593924       -16.1615
  41   2.0000      -0.579330       -15.7644
  42   2.0000      -0.565752       -15.3949
  43   2.0000      -0.559795       -15.2328
  44   2.0000      -0.528036       -14.3686
  45   2.0000      -0.524653       -14.2765
  46   2.0000      -0.517404       -14.0793
  47   2.0000      -0.512871       -13.9559
  48   2.0000      -0.508299       -13.8315
  49   2.0000      -0.505646       -13.7593
  50   2.0000      -0.500810       -13.6277
  51   2.0000      -0.482454       -13.1282
  52   2.0000      -0.471256       -12.8235
  53   2.0000      -0.463218       -12.6048
  54   2.0000      -0.460193       -12.5225
  55   2.0000      -0.455635       -12.3984
  56   2.0000      -0.446373       -12.1464
  57   2.0000      -0.433507       -11.7963
  58   2.0000      -0.428448       -11.6587
  59   2.0000      -0.423059       -11.5120
  60   2.0000      -0.421547       -11.4709
  61   2.0000      -0.411091       -11.1864
  62   2.0000      -0.406007       -11.0480
  63   2.0000      -0.336619        -9.1599
  64   2.0000      -0.327796        -8.9198
  65   2.0000      -0.323509        -8.8031
  66   2.0000      -0.311836        -8.4855
  67   0.0000       0.043459         1.1826
  68   0.0000       0.053524         1.4565
  69   0.0000       0.110726         3.0130
  70   0.0000       0.126648         3.4463
  71   0.0000       0.128791         3.5046

MULLIKEN ATOMIC CHARGES
-----------------------
   0 S :    0.111893
   1 C :   -0.119906
   2 C :   -0.086178
   3 C :    0.051198
   4 C :   -0.161934
   5 H :    0.000080
   6 C :    0.093828
   7 H :    0.017269
   8 H :   -0.008559
   9 C :   -0.077077
  10 H :    0.022764
  11 H :    0.029359
  12 C :   -0.057039
  13 H :    0.040029
  14 H :    0.034610
  15 H :    0.047890
  16 S :    0.116440
  17 C :   -0.088230
  18 C :   -0.047585
  19 C :   -0.030599
  20 C :   -0.190146
  21 H :    0.011086
  22 C :    0.127862
  23 H :   -0.008958
  24 H :    0.013541
  25 C :   -0.009141
  26 H :    0.015320
  27 H :    0.020249
  28 C :   -0.052481
  29 H :    0.030281
  30 H :   -0.001607
  31 H :    0.033571
  32 H :    0.046594
  33 H :    0.075575
Sum of atomic charges:    0.0000000

LOEWDIN ATOMIC CHARGES
----------------------
   0 S :    0.406816
   1 C :   -0.180338
   2 C :   -0.059531
   3 C :   -0.051625
   4 C :   -0.209440
   5 H :    0.025050
   6 C :   -0.031224
   7 H :    0.030639
   8 H :    0.019955
   9 C :   -0.043228
  10 H :    0.017447
  11 H :    0.027606
  12 C :   -0.068373
  13 H :    0.030741
  14 H :    0.027200
  15 H :    0.032497
  16 S :    0.418027
  17 C :   -0.214783
  18 C :   -0.080103
  19 C :   -0.039025
  20 C :   -0.192135
  21 H :    0.025585
  22 C :   -0.016465
  23 H :    0.018462
  24 H :    0.029565
  25 C :   -0.029065
  26 H :    0.015846
  27 H :    0.021784
  28 C :   -0.070649
  29 H :    0.026425
  30 H :    0.015116
  31 H :    0.029876
  32 H :    0.027484
  33 H :    0.039864

  Mayer bond orders larger than 0.100000
B(  0-S ,  1-C ) :   1.1475 B(  0-S ,  4-C ) :   1.1332 B(  1-C ,  2-C ) :   1.6175
B(  1-C , 32-H ) :   0.9696 B(  2-C ,  3-C ) :   1.2182 B(  2-C ,  6-C ) :   1.0202
B(  3-C ,  4-C ) :   1.6207 B(  3-C ,  5-H ) :   0.9961 B(  4-C , 20-C ) :   1.0087
B(  6-C ,  7-H ) :   0.9382 B(  6-C ,  8-H ) :   0.9344 B(  6-C ,  9-C ) :   1.0475
B(  9-C , 10-H ) :   0.9607 B(  9-C , 11-H ) :   0.9544 B(  9-C , 12-C ) :   1.0739
B( 12-C , 13-H ) :   0.9745 B( 12-C , 14-H ) :   0.9757 B( 12-C , 15-H ) :   0.9750
B( 16-S , 17-C ) :   1.2076 B( 16-S , 20-C ) :   1.1114 B( 17-C , 18-C ) :   1.5766
B( 17-C , 33-H ) :   0.9559 B( 18-C , 19-C ) :   1.2458 B( 18-C , 21-H ) :   0.9969
B( 19-C , 20-C ) :   1.6364 B( 19-C , 22-C ) :   1.0283 B( 22-C , 23-H ) :   0.9394
B( 22-C , 24-H ) :   0.9207 B( 22-C , 25-C ) :   1.0558 B( 25-C , 26-H ) :   0.9491
B( 25-C , 27-H ) :   0.9604 B( 25-C , 28-C ) :   1.0878 B( 28-C , 29-H ) :   0.9742
B( 28-C , 30-H ) :   0.9676 B( 28-C , 31-H ) :   0.9707

Dispersion correction           -0.013893404
FINAL SINGLE POINT ENERGY     -1339.855971205847

DIPOLE MOMENT
-------------
                                X             Y             Z
Electronic contribution:    -21.79684      -3.46030     -10.34788
Nuclear contribution   :     22.53671       3.65080      10.36233
                        -----------------------------------------
Total Dipole Moment    :      0.73987       0.19050       0.01446
                        -----------------------------------------
Magnitude (a.u.)       :      0.76414
Magnitude (Debye)      :      1.94229

Rotational constants in cm-1:     0.019617     0.007252     0.006113
Rotational constants in MHz :   588.109370   217.402151   183.270580

                             ****ORCA TERMINATED NORMALLY****
TOTAL RUN TIME: 0 days 0 hours 0 minutes 20 seconds 715 msec
