                         Program Version 4.2.1 -  RELEASE  -
|  1> ! wB97X-D3 SP def2-SVP
|  2> %pal
|  3> nprocs 24
|  4> end
|  5>
|  6> * xyz 0 1
|  7> S 	 27.6001 	 -3.05921 	 -108.68
|  8> C 	 28.6261 	 -3.19802 	 -110.052
|  9> C 	 27.8674 	 -3.17893 	 -111.218
| 10> C 	 26.4564 	 -3.21785 	 -110.939
| 11> C 	 26.1863 	 -3.14467 	 -109.588
| 12> H 	 25.7071 	 -3.11021 	 -111.628
| 13> C 	 28.4703 	 -3.34082 	 -112.562
| 14> H 	 28.4227 	 -4.37747 	 -112.819
| 15> H 	 29.5307 	 -3.0786 	 -112.51
| 16> C 	 27.9425 	 -2.34645 	 -113.614
| 17> H 	 26.8559 	 -2.41962 	 -113.632
| 18> H 	 28.1672 	 -1.33241 	 -113.237
| 19> C 	 28.4472 	 -2.63629 	 -114.982
| 20> H 	 27.9086 	 -2.14279 	 -115.757
| 21> H 	 29.4729 	 -2.3064 	 -115.168
| 22> H 	 28.3507 	 -3.62903 	 -115.208
| 23> S 	 24.3956 	 -1.26333 	 -108.619
| 24> C 	 22.783 	 -1.75424 	 -108.33
| 25> C 	 22.6721 	 -3.12544 	 -108.352
| 26> C 	 23.8224 	 -3.77599 	 -108.886
| 27> C 	 24.9082 	 -2.94047 	 -108.992
| 28> H 	 21.7152 	 -3.60299 	 -108.137
| 29> C 	 23.8814 	 -5.26533 	 -109.041
| 30> H 	 23.9615 	 -5.42911 	 -110.084
| 31> H 	 23.042 	 -5.8092 	 -108.561
| 32> C 	 25.123 	 -5.87467 	 -108.487
| 33> H 	 25.2183 	 -5.71725 	 -107.405
| 34> H 	 26.0378 	 -5.51304 	 -108.924
| 35> C 	 25.1409 	 -7.40483 	 -108.821
| 36> H 	 24.2849 	 -7.80712 	 -108.245
| 37> H 	 26.0892 	 -7.87394 	 -108.453
| 38> H 	 24.9682 	 -7.61102 	 -109.917
| 39> H 	 29.682 	 -3.33083 	 -110.085
| 40> H 	 22.0333 	 -0.988467 	 -108.107
| 41> *
| 42>
| 43>                          ****END OF INPUT****

CARTESIAN COORDINATES (ANGSTROEM)
---------------------------------
  S     27.600100   -3.059210  -108.680000
  C     28.626100   -3.198020  -110.052000
  C     27.867400   -3.178930  -111.218000
  C     26.456400   -3.217850  -110.939000
  C     26.186300   -3.144670  -109.588000
  H     25.707100   -3.110210  -111.628000
  C     28.470300   -3.340820  -112.562000
  H     28.422700   -4.377470  -112.819000
  H     29.530700   -3.078600  -112.510000
  C     27.942500   -2.346450  -113.614000
  H     26.855900   -2.419620  -113.632000
  H     28.167200   -1.332410  -113.237000
  C     28.447200   -2.636290  -114.982000
  H     27.908600   -2.142790  -115.757000
  H     29.472900   -2.306400  -115.168000
  H     28.350700   -3.629030  -115.208000
  S     24.395600   -1.263330  -108.619000
  C     22.783000   -1.754240  -108.330000
  C     22.672100   -3.125440  -108.352000
  C     23.822400   -3.775990  -108.886000
  C     24.908200   -2.940470  -108.992000
  H     21.715200   -3.602990  -108.137000
  C     23.881400   -5.265330  -109.041000
  H     23.961500   -5.429110  -110.084000
  H     23.042000   -5.809200  -108.561000
  C     25.123000   -5.874670  -108.487000
  H     25.218300   -5.717250  -107.405000
  H     26.037800   -5.513040  -108.924000
  C     25.140900   -7.404830  -108.821000
  H     24.284900   -7.807120  -108.245000
  H     26.089200   -7.873940  -108.453000
  H     24.968200   -7.611020  -109.917000
  H     29.682000   -3.330830  -110.085000
  H     22.033300   -0.988467  -108.107000

 Total Charge           Charge          ....    0
 Multiplicity           Mult            ....    1
 Number of Electrons    NEL             ....  134
 Basis Dimension        Dim             ....  322

ORBITAL ENERGIES
----------------

  NO   OCC          E(Eh)            E(eV)
   0   2.0000     -88.964786     -2420.8549
   1   2.0000     -88.960237     -2420.7311
   2   2.0000     -10.320188      -280.8266
   3   2.0000     -10.319868      -280.8179
   4   2.0000     -10.316816      -280.7348
   5   2.0000     -10.307527      -280.4821
   6   2.0000     -10.299998      -280.2772
   7   2.0000     -10.296759      -280.1891
   8   2.0000     -10.291535      -280.0469
   9   2.0000     -10.285633      -279.8863
  10   2.0000     -10.285066      -279.8709
  11   2.0000     -10.284786      -279.8633
  12   2.0000     -10.284768      -279.8628
  13   2.0000     -10.282096      -279.7901
  14   2.0000     -10.274292      -279.5777
  15   2.0000     -10.266036      -279.3530
  16   2.0000      -8.080932      -219.8933
  17   2.0000      -8.075562      -219.7472
  18   2.0000      -6.039258      -164.3366
  19   2.0000      -6.035056      -164.2222
  20   2.0000      -6.033964      -164.1925
  21   2.0000      -6.031974      -164.1384
  22   2.0000      -6.029961      -164.0836
  23   2.0000      -6.026419      -163.9872
  24   2.0000      -1.015185       -27.6246
  25   2.0000      -0.989447       -26.9242
  26   2.0000      -0.919964       -25.0335
  27   2.0000      -0.915534       -24.9129
  28   2.0000      -0.874852       -23.8059
  29   2.0000      -0.853921       -23.2364
  30   2.0000      -0.846340       -23.0301
  31   2.0000      -0.814855       -22.1733
  32   2.0000      -0.783488       -21.3198
  33   2.0000      -0.769536       -20.9401
  34   2.0000      -0.713287       -19.4095
  35   2.0000      -0.696863       -18.9626
  36   2.0000      -0.685328       -18.6487
  37   2.0000      -0.660482       -17.9726
  38   2.0000      -0.648022       -17.6336
  39   2.0000      -0.622823       -16.9479
  40   2.0000      -0.601492       -16.3674
  41   2.0000      -0.577496       -15.7145
  42   2.0000      -0.574033       -15.6202
  43   2.0000      -0.566484       -15.4148
  44   2.0000      -0.527934       -14.3658
  45   2.0000      -0.523957       -14.2576
  46   2.0000      -0.516202       -14.0466
  47   2.0000      -0.512725       -13.9520
  48   2.0000      -0.508430       -13.8351
  49   2.0000      -0.501101       -13.6357
  50   2.0000      -0.495862       -13.4931
  51   2.0000      -0.486439       -13.2367
  52   2.0000      -0.468833       -12.7576
  53   2.0000      -0.465494       -12.6667
  54   2.0000      -0.461498       -12.5580
  55   2.0000      -0.454276       -12.3615
  56   2.0000      -0.440451       -11.9853
  57   2.0000      -0.436596       -11.8804
  58   2.0000      -0.433089       -11.7849
  59   2.0000      -0.423649       -11.5281
  60   2.0000      -0.420264       -11.4360
  61   2.0000      -0.410791       -11.1782
  62   2.0000      -0.407508       -11.0889
  63   2.0000      -0.337675        -9.1886
  64   2.0000      -0.327577        -8.9138
  65   2.0000      -0.324625        -8.8335
  66   2.0000      -0.302038        -8.2189
  67   0.0000       0.046127         1.2552
  68   0.0000       0.055189         1.5018
  69   0.0000       0.120094         3.2679
  70   0.0000       0.127218         3.4618
  71   0.0000       0.133766         3.6399

MULLIKEN ATOMIC CHARGES
-----------------------
   0 S :    0.131102
   1 C :   -0.101996
   2 C :   -0.102892
   3 C :    0.089341
   4 C :   -0.208114
   5 H :   -0.023920
   6 C :    0.064461
   7 H :    0.036981
   8 H :    0.012840
   9 C :   -0.107628
  10 H :    0.024740
  11 H :    0.035093
  12 C :    0.027593
  13 H :    0.015824
  14 H :    0.025198
  15 H :    0.003195
  16 S :    0.108680
  17 C :   -0.108514
  18 C :   -0.026990
  19 C :   -0.019995
  20 C :   -0.153341
  21 H :    0.020505
  22 C :    0.113801
  23 H :    0.013936
  24 H :    0.026846
  25 C :   -0.109565
  26 H :    0.033043
  27 H :    0.042375
  28 C :   -0.077074
  29 H :    0.025258
  30 H :    0.045697
  31 H :    0.040087
  32 H :    0.033834
  33 H :    0.069601
Sum of atomic charges:   -0.0000000

LOEWDIN ATOMIC CHARGES
----------------------
   0 S :    0.455905
   1 C :   -0.209169
   2 C :   -0.059355
   3 C :   -0.052255
   4 C :   -0.219059
   5 H :    0.014452
   6 C :   -0.033171
   7 H :    0.029181
   8 H :    0.029976
   9 C :   -0.038603
  10 H :    0.019752
  11 H :    0.029685
  12 C :   -0.057668
  13 H :    0.025430
  14 H :    0.027493
  15 H :    0.014656
  16 S :    0.403937
  17 C :   -0.188507
  18 C :   -0.080655
  19 C :   -0.046390
  20 C :   -0.200250
  21 H :    0.032037
  22 C :   -0.030094
  23 H :    0.032282
  24 H :    0.035390
  25 C :   -0.043490
  26 H :    0.023765
  27 H :    0.018594
  28 C :   -0.070531
  29 H :    0.021443
  30 H :    0.029802
  31 H :    0.028312
  32 H :    0.024322
  33 H :    0.032783

  Mayer bond orders larger than 0.100000
B(  0-S ,  1-C ) :   1.1461 B(  0-S ,  4-C ) :   1.1828 B(  1-C ,  2-C ) :   1.5882
B(  1-C , 32-H ) :   0.9741 B(  2-C ,  3-C ) :   1.2468 B(  2-C ,  6-C ) :   1.0372
B(  3-C ,  4-C ) :   1.5606 B(  3-C ,  5-H ) :   1.0081 B(  4-C , 20-C ) :   1.0096
B(  6-C ,  7-H ) :   0.9403 B(  6-C ,  8-H ) :   0.9387 B(  6-C ,  9-C ) :   1.0531
B(  9-C , 10-H ) :   0.9582 B(  9-C , 11-H ) :   0.9568 B(  9-C , 12-C ) :   1.0946
B( 12-C , 13-H ) :   0.9672 B( 12-C , 14-H ) :   0.9701 B( 12-C , 15-H ) :   0.9679
B( 16-S , 17-C ) :   1.1868 B( 16-S , 20-C ) :   1.1242 B( 17-C , 18-C ) :   1.5793
B( 17-C , 20-C ) :   0.1016 B( 17-C , 33-H ) :   0.9661 B( 18-C , 19-C ) :   1.2458
B( 18-C , 21-H ) :   0.9910 B( 19-C , 20-C ) :   1.6062 B( 19-C , 22-C ) :   1.0433
B( 22-C , 23-H ) :   0.9023 B( 22-C , 24-H ) :   0.9468 B( 22-C , 25-C ) :   1.0864
B( 25-C , 26-H ) :   0.9561 B( 25-C , 27-H ) :   0.9424 B( 25-C , 28-C ) :   1.0784
B( 28-C , 29-H ) :   0.9756 B( 28-C , 30-H ) :   0.9742 B( 28-C , 31-H ) :   0.9745

Dispersion correction           -0.014454768
FINAL SINGLE POINT ENERGY     -1339.877607228329

DIPOLE MOMENT
-------------
                                X             Y             Z
Electronic contribution:     -4.45371      15.19489      17.84966
Nuclear contribution   :      4.36110     -15.45210     -18.33947
                        -----------------------------------------
Total Dipole Moment    :     -0.09261      -0.25722      -0.48981
                        -----------------------------------------
Magnitude (a.u.)       :      0.56093
Magnitude (Debye)      :      1.42578

Rotational constants in cm-1:     0.018235     0.008541     0.007441
Rotational constants in MHz :   546.665191   256.050639   223.081829

                             ****ORCA TERMINATED NORMALLY****
TOTAL RUN TIME: 0 days 0 hours 0 minutes 20 seconds 922 msec
