                         Program Version 4.2.1 -  RELEASE  -
|  1> ! wB97X-D3 SP def2-SVP
|  2> %pal
|  3> nprocs 24
|  4> end
|  5>
|  6> * xyz 0 1
|  7> S 	 -112.329 	 35.9502 	 -116.706
|  8> C 	 -113.101 	 34.6476 	 -117.458
|  9> C 	 -113.343 	 33.6672 	 -116.503
| 10> C 	 -112.918 	 33.9586 	 -115.202
| 11> C 	 -112.278 	 35.1734 	 -115.126
| 12> H 	 -112.862 	 33.3876 	 -114.261
| 13> C 	 -113.796 	 32.2628 	 -116.827
| 14> H 	 -114.596 	 32.3204 	 -117.449
| 15> H 	 -114.176 	 31.8029 	 -115.964
| 16> C 	 -112.804 	 31.2174 	 -117.457
| 17> H 	 -112.46 	 31.5424 	 -118.419
| 18> H 	 -111.91 	 31.0469 	 -116.822
| 19> C 	 -113.489 	 29.8803 	 -117.71
| 20> H 	 -113.915 	 29.4784 	 -116.759
| 21> H 	 -114.361 	 29.9859 	 -118.387
| 22> H 	 -112.777 	 29.1983 	 -118.127
| 23> S 	 -109.759 	 35.6038 	 -114.174
| 24> C 	 -109.562 	 36.2506 	 -112.521
| 25> C 	 -110.772 	 36.7018 	 -112.011
| 26> C 	 -111.88 	 36.3623 	 -112.859
| 27> C 	 -111.502 	 35.6692 	 -113.995
| 28> H 	 -110.808 	 37.1915 	 -111.035
| 29> C 	 -113.315 	 36.6962 	 -112.7
| 30> H 	 -113.883 	 36.7371 	 -113.555
| 31> H 	 -113.3 	 37.6827 	 -112.352
| 32> C 	 -113.994 	 35.7939 	 -111.6
| 33> H 	 -113.516 	 35.8358 	 -110.562
| 34> H 	 -113.967 	 34.7685 	 -112.026
| 35> C 	 -115.433 	 36.0984 	 -111.233
| 36> H 	 -115.753 	 35.3808 	 -110.563
| 37> H 	 -116.046 	 36.1381 	 -112.212
| 38> H 	 -115.536 	 37.045 	 -110.717
| 39> H 	 -113.574 	 34.5989 	 -118.428
| 40> H 	 -108.624 	 36.4692 	 -112.053
| 41> *
| 42>
| 43>                          ****END OF INPUT****

CARTESIAN COORDINATES (ANGSTROEM)
---------------------------------
  S    -112.329000   35.950200  -116.706000
  C    -113.101000   34.647600  -117.458000
  C    -113.343000   33.667200  -116.503000
  C    -112.918000   33.958600  -115.202000
  C    -112.278000   35.173400  -115.126000
  H    -112.862000   33.387600  -114.261000
  C    -113.796000   32.262800  -116.827000
  H    -114.596000   32.320400  -117.449000
  H    -114.176000   31.802900  -115.964000
  C    -112.804000   31.217400  -117.457000
  H    -112.460000   31.542400  -118.419000
  H    -111.910000   31.046900  -116.822000
  C    -113.489000   29.880300  -117.710000
  H    -113.915000   29.478400  -116.759000
  H    -114.361000   29.985900  -118.387000
  H    -112.777000   29.198300  -118.127000
  S    -109.759000   35.603800  -114.174000
  C    -109.562000   36.250600  -112.521000
  C    -110.772000   36.701800  -112.011000
  C    -111.880000   36.362300  -112.859000
  C    -111.502000   35.669200  -113.995000
  H    -110.808000   37.191500  -111.035000
  C    -113.315000   36.696200  -112.700000
  H    -113.883000   36.737100  -113.555000
  H    -113.300000   37.682700  -112.352000
  C    -113.994000   35.793900  -111.600000
  H    -113.516000   35.835800  -110.562000
  H    -113.967000   34.768500  -112.026000
  C    -115.433000   36.098400  -111.233000
  H    -115.753000   35.380800  -110.563000
  H    -116.046000   36.138100  -112.212000
  H    -115.536000   37.045000  -110.717000
  H    -113.574000   34.598900  -118.428000
  H    -108.624000   36.469200  -112.053000

 Total Charge           Charge          ....    0
 Multiplicity           Mult            ....    1
 Number of Electrons    NEL             ....  134
 Basis Dimension        Dim             ....  322

ORBITAL ENERGIES
----------------

  NO   OCC          E(Eh)            E(eV)
   0   2.0000     -88.966672     -2420.9062
   1   2.0000     -88.963671     -2420.8246
   2   2.0000     -10.325374      -280.9677
   3   2.0000     -10.321909      -280.8734
   4   2.0000     -10.320458      -280.8339
   5   2.0000     -10.310770      -280.5703
   6   2.0000     -10.302655      -280.3495
   7   2.0000     -10.299859      -280.2734
   8   2.0000     -10.296323      -280.1772
   9   2.0000     -10.291524      -280.0466
  10   2.0000     -10.291406      -280.0434
  11   2.0000     -10.284840      -279.8647
  12   2.0000     -10.279462      -279.7184
  13   2.0000     -10.278774      -279.6997
  14   2.0000     -10.276304      -279.6324
  15   2.0000     -10.274455      -279.5821
  16   2.0000      -8.081975      -219.9217
  17   2.0000      -8.077912      -219.8112
  18   2.0000      -6.040373      -164.3669
  19   2.0000      -6.036428      -164.2595
  20   2.0000      -6.036141      -164.2517
  21   2.0000      -6.033059      -164.1679
  22   2.0000      -6.032600      -164.1554
  23   2.0000      -6.028572      -164.0458
  24   2.0000      -1.010435       -27.4953
  25   2.0000      -0.985746       -26.8235
  26   2.0000      -0.907965       -24.7070
  27   2.0000      -0.907640       -24.6982
  28   2.0000      -0.872213       -23.7341
  29   2.0000      -0.853879       -23.2352
  30   2.0000      -0.851894       -23.1812
  31   2.0000      -0.819414       -22.2974
  32   2.0000      -0.781876       -21.2759
  33   2.0000      -0.768228       -20.9046
  34   2.0000      -0.702663       -19.1204
  35   2.0000      -0.698016       -18.9940
  36   2.0000      -0.690087       -18.7782
  37   2.0000      -0.662038       -18.0150
  38   2.0000      -0.649579       -17.6760
  39   2.0000      -0.616203       -16.7677
  40   2.0000      -0.598555       -16.2875
  41   2.0000      -0.572328       -15.5738
  42   2.0000      -0.565120       -15.3777
  43   2.0000      -0.557287       -15.1645
  44   2.0000      -0.532976       -14.5030
  45   2.0000      -0.525057       -14.2875
  46   2.0000      -0.522075       -14.2064
  47   2.0000      -0.514835       -14.0094
  48   2.0000      -0.507900       -13.8207
  49   2.0000      -0.499743       -13.5987
  50   2.0000      -0.495078       -13.4718
  51   2.0000      -0.478946       -13.0328
  52   2.0000      -0.474139       -12.9020
  53   2.0000      -0.464359       -12.6358
  54   2.0000      -0.459244       -12.4967
  55   2.0000      -0.448207       -12.1963
  56   2.0000      -0.438377       -11.9288
  57   2.0000      -0.434818       -11.8320
  58   2.0000      -0.427508       -11.6331
  59   2.0000      -0.423540       -11.5251
  60   2.0000      -0.416892       -11.3442
  61   2.0000      -0.416744       -11.3402
  62   2.0000      -0.415433       -11.3045
  63   2.0000      -0.344001        -9.3608
  64   2.0000      -0.329040        -8.9536
  65   2.0000      -0.322034        -8.7630
  66   2.0000      -0.301801        -8.2124
  67   0.0000       0.041768         1.1366
  68   0.0000       0.052044         1.4162
  69   0.0000       0.111598         3.0367
  70   0.0000       0.126743         3.4489
  71   0.0000       0.134296         3.6544

MULLIKEN ATOMIC CHARGES
-----------------------
   0 S :    0.130023
   1 C :   -0.107129
   2 C :   -0.090370
   3 C :    0.044234
   4 C :   -0.194198
   5 H :    0.029840
   6 C :    0.115747
   7 H :   -0.014724
   8 H :   -0.006837
   9 C :   -0.052591
  10 H :    0.016158
  11 H :    0.035036
  12 C :   -0.065796
  13 H :    0.029728
  14 H :    0.030305
  15 H :    0.038379
  16 S :    0.104845
  17 C :   -0.083475
  18 C :   -0.041409
  19 C :   -0.022192
  20 C :   -0.193031
  21 H :    0.026301
  22 C :    0.166015
  23 H :    0.009128
  24 H :   -0.002380
  25 C :   -0.143951
  26 H :    0.038657
  27 H :    0.030796
  28 C :   -0.019149
  29 H :    0.023945
  30 H :    0.036691
  31 H :    0.025493
  32 H :    0.054045
  33 H :    0.051865
Sum of atomic charges:   -0.0000000

LOEWDIN ATOMIC CHARGES
----------------------
   0 S :    0.431949
   1 C :   -0.217982
   2 C :   -0.068539
   3 C :   -0.061929
   4 C :   -0.200560
   5 H :    0.042157
   6 C :   -0.024768
   7 H :    0.013909
   8 H :    0.021649
   9 C :   -0.032498
  10 H :    0.017250
  11 H :    0.026889
  12 C :   -0.066025
  13 H :    0.025274
  14 H :    0.025297
  15 H :    0.024908
  16 S :    0.390265
  17 C :   -0.167554
  18 C :   -0.068982
  19 C :   -0.047040
  20 C :   -0.203431
  21 H :    0.035894
  22 C :   -0.020278
  23 H :    0.020933
  24 H :    0.025809
  25 C :   -0.042900
  26 H :    0.031377
  27 H :    0.023590
  28 C :   -0.065888
  29 H :    0.016889
  30 H :    0.031909
  31 H :    0.021333
  32 H :    0.035363
  33 H :    0.025728

  Mayer bond orders larger than 0.100000
B(  0-S ,  1-C ) :   1.1584 B(  0-S ,  4-C ) :   1.1643 B(  1-C ,  2-C ) :   1.5677
B(  1-C ,  4-C ) :   0.1046 B(  1-C , 32-H ) :   0.9705 B(  2-C ,  3-C ) :   1.2581
B(  2-C ,  6-C ) :   1.0390 B(  3-C ,  4-C ) :   1.5657 B(  3-C ,  5-H ) :   0.9887
B(  4-C , 20-C ) :   1.0215 B(  6-C ,  7-H ) :   0.9275 B(  6-C ,  8-H ) :   0.9379
B(  6-C ,  9-C ) :   1.0616 B(  9-C , 10-H ) :   0.9526 B(  9-C , 11-H ) :   0.9573
B(  9-C , 12-C ) :   1.0831 B( 12-C , 13-H ) :   0.9751 B( 12-C , 14-H ) :   0.9747
B( 12-C , 15-H ) :   0.9728 B( 16-S , 17-C ) :   1.1481 B( 16-S , 20-C ) :   1.1338
B( 17-C , 18-C ) :   1.6223 B( 17-C , 33-H ) :   0.9691 B( 18-C , 19-C ) :   1.2221
B( 18-C , 21-H ) :   0.9881 B( 19-C , 20-C ) :   1.6103 B( 19-C , 22-C ) :   1.0593
B( 22-C , 23-H ) :   0.9222 B( 22-C , 24-H ) :   0.9142 B( 22-C , 25-C ) :   1.0513
B( 25-C , 26-H ) :   0.9606 B( 25-C , 27-H ) :   0.9539 B( 25-C , 28-C ) :   1.0908
B( 28-C , 29-H ) :   0.9722 B( 28-C , 30-H ) :   0.9705 B( 28-C , 31-H ) :   0.9737

Dispersion correction           -0.013931926
FINAL SINGLE POINT ENERGY     -1339.862821732465

DIPOLE MOMENT
-------------
                                X             Y             Z
Electronic contribution:     18.31103      15.59019      -5.13093
Nuclear contribution   :    -18.63900     -15.73389       5.40749
                        -----------------------------------------
Total Dipole Moment    :     -0.32797      -0.14371       0.27656
                        -----------------------------------------
Magnitude (a.u.)       :      0.45244
Magnitude (Debye)      :      1.15001

Rotational constants in cm-1:     0.018198     0.007881     0.006722
Rotational constants in MHz :   545.566770   236.263201   201.530036

                             ****ORCA TERMINATED NORMALLY****
TOTAL RUN TIME: 0 days 0 hours 0 minutes 20 seconds 82 msec
