                         Program Version 4.2.1 -  RELEASE  -
|  1> ! wB97X-D3 SP def2-SVP
|  2> %pal
|  3> nprocs 24
|  4> end
|  5>
|  6> * xyz 0 1
|  7> S 	 -105.802 	 44.0639 	 -94.4034
|  8> C 	 -105.297 	 42.8806 	 -93.2364
|  9> C 	 -103.985 	 43.1101 	 -92.7859
| 10> C 	 -103.34 	 44.1238 	 -93.5222
| 11> C 	 -104.14 	 44.6282 	 -94.5561
| 12> H 	 -102.32 	 44.5458 	 -93.393
| 13> C 	 -103.365 	 42.2855 	 -91.6794
| 14> H 	 -104.093 	 42.1516 	 -90.9805
| 15> H 	 -102.589 	 42.9367 	 -91.2913
| 16> C 	 -102.713 	 40.9427 	 -92.1607
| 17> H 	 -103.333 	 40.1618 	 -92.5353
| 18> H 	 -102.052 	 41.1625 	 -93.0563
| 19> C 	 -101.759 	 40.2903 	 -91.1353
| 20> H 	 -100.916 	 40.8725 	 -90.8809
| 21> H 	 -102.295 	 40.1238 	 -90.1744
| 22> H 	 -101.36 	 39.4368 	 -91.5813
| 23> S 	 -104.418 	 47.3468 	 -95.0908
| 24> C 	 -103.615 	 48.0107 	 -96.4444
| 25> C 	 -102.67 	 47.1715 	 -96.9748
| 26> C 	 -102.766 	 45.9155 	 -96.337
| 27> C 	 -103.804 	 45.7558 	 -95.4752
| 28> H 	 -102.01 	 47.5766 	 -97.6709
| 29> C 	 -101.699 	 44.8361 	 -96.5378
| 30> H 	 -102.176 	 43.8802 	 -96.8503
| 31> H 	 -101.153 	 44.7006 	 -95.5527
| 32> C 	 -100.697 	 44.9358 	 -97.7556
| 33> H 	 -99.8935 	 45.6137 	 -97.5624
| 34> H 	 -101.16 	 45.2107 	 -98.6915
| 35> C 	 -99.9156 	 43.6358 	 -98.0161
| 36> H 	 -99.0027 	 43.6625 	 -98.7214
| 37> H 	 -100.553 	 42.7765 	 -98.3396
| 38> H 	 -99.4896 	 43.2704 	 -96.9925
| 39> H 	 -105.783 	 41.9792 	 -92.8943
| 40> H 	 -103.552 	 49.0753 	 -96.6387
| 41> *
| 42>
| 43>                          ****END OF INPUT****

CARTESIAN COORDINATES (ANGSTROEM)
---------------------------------
  S    -105.802000   44.063900  -94.403400
  C    -105.297000   42.880600  -93.236400
  C    -103.985000   43.110100  -92.785900
  C    -103.340000   44.123800  -93.522200
  C    -104.140000   44.628200  -94.556100
  H    -102.320000   44.545800  -93.393000
  C    -103.365000   42.285500  -91.679400
  H    -104.093000   42.151600  -90.980500
  H    -102.589000   42.936700  -91.291300
  C    -102.713000   40.942700  -92.160700
  H    -103.333000   40.161800  -92.535300
  H    -102.052000   41.162500  -93.056300
  C    -101.759000   40.290300  -91.135300
  H    -100.916000   40.872500  -90.880900
  H    -102.295000   40.123800  -90.174400
  H    -101.360000   39.436800  -91.581300
  S    -104.418000   47.346800  -95.090800
  C    -103.615000   48.010700  -96.444400
  C    -102.670000   47.171500  -96.974800
  C    -102.766000   45.915500  -96.337000
  C    -103.804000   45.755800  -95.475200
  H    -102.010000   47.576600  -97.670900
  C    -101.699000   44.836100  -96.537800
  H    -102.176000   43.880200  -96.850300
  H    -101.153000   44.700600  -95.552700
  C    -100.697000   44.935800  -97.755600
  H    -99.893500   45.613700  -97.562400
  H    -101.160000   45.210700  -98.691500
  C    -99.915600   43.635800  -98.016100
  H    -99.002700   43.662500  -98.721400
  H    -100.553000   42.776500  -98.339600
  H    -99.489600   43.270400  -96.992500
  H    -105.783000   41.979200  -92.894300
  H    -103.552000   49.075300  -96.638700

 Total Charge           Charge          ....    0
 Multiplicity           Mult            ....    1
 Number of Electrons    NEL             ....  134
 Basis Dimension        Dim             ....  322

ORBITAL ENERGIES
----------------

  NO   OCC          E(Eh)            E(eV)
   0   2.0000     -88.970368     -2421.0068
   1   2.0000     -88.961991     -2420.7789
   2   2.0000     -10.331963      -281.1470
   3   2.0000     -10.320604      -280.8379
   4   2.0000     -10.311998      -280.6037
   5   2.0000     -10.310323      -280.5582
   6   2.0000     -10.301196      -280.3098
   7   2.0000     -10.300529      -280.2917
   8   2.0000     -10.299620      -280.2669
   9   2.0000     -10.299282      -280.2577
  10   2.0000     -10.293863      -280.1103
  11   2.0000     -10.291272      -280.0398
  12   2.0000     -10.288604      -279.9671
  13   2.0000     -10.288237      -279.9572
  14   2.0000     -10.286122      -279.8996
  15   2.0000     -10.272361      -279.5251
  16   2.0000      -8.084607      -219.9933
  17   2.0000      -8.077789      -219.8078
  18   2.0000      -6.042963      -164.4374
  19   2.0000      -6.039259      -164.3366
  20   2.0000      -6.036152      -164.2521
  21   2.0000      -6.035486      -164.2339
  22   2.0000      -6.032358      -164.1488
  23   2.0000      -6.028423      -164.0417
  24   2.0000      -1.010806       -27.5054
  25   2.0000      -0.988121       -26.8881
  26   2.0000      -0.908908       -24.7326
  27   2.0000      -0.901576       -24.5331
  28   2.0000      -0.867572       -23.6078
  29   2.0000      -0.853380       -23.2217
  30   2.0000      -0.848572       -23.0908
  31   2.0000      -0.817573       -22.2473
  32   2.0000      -0.781119       -21.2553
  33   2.0000      -0.764817       -20.8117
  34   2.0000      -0.705704       -19.2032
  35   2.0000      -0.699343       -19.0301
  36   2.0000      -0.696106       -18.9420
  37   2.0000      -0.654703       -17.8154
  38   2.0000      -0.638992       -17.3879
  39   2.0000      -0.619337       -16.8530
  40   2.0000      -0.595483       -16.2039
  41   2.0000      -0.573331       -15.6011
  42   2.0000      -0.569441       -15.4953
  43   2.0000      -0.562476       -15.3058
  44   2.0000      -0.533697       -14.5226
  45   2.0000      -0.521232       -14.1834
  46   2.0000      -0.516103       -14.0439
  47   2.0000      -0.509552       -13.8656
  48   2.0000      -0.499462       -13.5911
  49   2.0000      -0.494414       -13.4537
  50   2.0000      -0.486569       -13.2402
  51   2.0000      -0.478140       -13.0108
  52   2.0000      -0.468024       -12.7356
  53   2.0000      -0.466133       -12.6841
  54   2.0000      -0.460476       -12.5302
  55   2.0000      -0.452347       -12.3090
  56   2.0000      -0.449047       -12.2192
  57   2.0000      -0.441924       -12.0254
  58   2.0000      -0.427305       -11.6276
  59   2.0000      -0.423858       -11.5338
  60   2.0000      -0.421148       -11.4600
  61   2.0000      -0.416028       -11.3207
  62   2.0000      -0.410195       -11.1620
  63   2.0000      -0.341851        -9.3022
  64   2.0000      -0.329728        -8.9723
  65   2.0000      -0.326529        -8.8853
  66   2.0000      -0.295745        -8.0476
  67   0.0000       0.033012         0.8983
  68   0.0000       0.056119         1.5271
  69   0.0000       0.112231         3.0540
  70   0.0000       0.114678         3.1205
  71   0.0000       0.134252         3.6532

MULLIKEN ATOMIC CHARGES
-----------------------
   0 S :    0.132422
   1 C :   -0.099103
   2 C :   -0.133683
   3 C :    0.032533
   4 C :   -0.191946
   5 H :    0.030967
   6 C :    0.140043
   7 H :    0.007440
   8 H :    0.017096
   9 C :   -0.095309
  10 H :    0.025831
  11 H :    0.028867
  12 C :   -0.019681
  13 H :    0.016321
  14 H :    0.032453
  15 H :    0.021726
  16 S :    0.108605
  17 C :   -0.072871
  18 C :   -0.032403
  19 C :   -0.030652
  20 C :   -0.138024
  21 H :   -0.000682
  22 C :    0.015155
  23 H :    0.046644
  24 H :    0.049549
  25 C :   -0.041491
  26 H :    0.024224
  27 H :    0.036082
  28 C :   -0.134199
  29 H :    0.055066
  30 H :    0.040733
  31 H :    0.032095
  32 H :    0.042660
  33 H :    0.053531
Sum of atomic charges:   -0.0000000

LOEWDIN ATOMIC CHARGES
----------------------
   0 S :    0.419972
   1 C :   -0.205844
   2 C :   -0.062250
   3 C :   -0.062711
   4 C :   -0.193927
   5 H :    0.038507
   6 C :   -0.019604
   7 H :    0.016831
   8 H :    0.034724
   9 C :   -0.038387
  10 H :    0.019078
  11 H :    0.030602
  12 C :   -0.060346
  13 H :    0.016970
  14 H :    0.027819
  15 H :    0.020025
  16 S :    0.422173
  17 C :   -0.189550
  18 C :   -0.069739
  19 C :   -0.058047
  20 C :   -0.211725
  21 H :    0.025723
  22 C :   -0.036623
  23 H :    0.040692
  24 H :    0.038098
  25 C :   -0.046424
  26 H :    0.019459
  27 H :    0.023849
  28 C :   -0.084785
  29 H :    0.035914
  30 H :    0.022729
  31 H :    0.029485
  32 H :    0.028881
  33 H :    0.028430

  Mayer bond orders larger than 0.100000
B(  0-S ,  1-C ) :   1.1521 B(  0-S ,  4-C ) :   1.1686 B(  1-C ,  2-C ) :   1.5860
B(  1-C ,  4-C ) :   0.1115 B(  1-C , 32-H ) :   0.9663 B(  2-C ,  3-C ) :   1.2703
B(  2-C ,  6-C ) :   1.0269 B(  3-C ,  4-C ) :   1.5484 B(  3-C ,  5-H ) :   0.9841
B(  4-C , 20-C ) :   1.0100 B(  6-C ,  7-H ) :   0.9335 B(  6-C ,  8-H ) :   0.9378
B(  6-C ,  9-C ) :   1.0515 B(  9-C , 10-H ) :   0.9611 B(  9-C , 11-H ) :   0.9577
B(  9-C , 12-C ) :   1.0861 B( 12-C , 13-H ) :   0.9758 B( 12-C , 14-H ) :   0.9746
B( 12-C , 15-H ) :   0.9732 B( 16-S , 17-C ) :   1.1847 B( 16-S , 20-C ) :   1.1417
B( 17-C , 18-C ) :   1.5895 B( 17-C , 33-H ) :   0.9577 B( 18-C , 19-C ) :   1.2442
B( 18-C , 21-H ) :   1.0111 B( 19-C , 20-C ) :   1.6209 B( 19-C , 22-C ) :   1.0269
B( 22-C , 23-H ) :   0.9447 B( 22-C , 24-H ) :   0.9313 B( 22-C , 25-C ) :   1.0636
B( 25-C , 26-H ) :   0.9486 B( 25-C , 27-H ) :   0.9566 B( 25-C , 28-C ) :   1.0734
B( 28-C , 29-H ) :   0.9741 B( 28-C , 30-H ) :   0.9739 B( 28-C , 31-H ) :   0.9727

Dispersion correction           -0.013516976
FINAL SINGLE POINT ENERGY     -1339.848123143616

DIPOLE MOMENT
-------------
                                X             Y             Z
Electronic contribution:    -24.33314      20.44533      -1.39997
Nuclear contribution   :     25.05391     -20.67967       1.55508
                        -----------------------------------------
Total Dipole Moment    :      0.72078      -0.23434       0.15511
                        -----------------------------------------
Magnitude (a.u.)       :      0.77362
Magnitude (Debye)      :      1.96639

Rotational constants in cm-1:     0.016472     0.008441     0.006172
Rotational constants in MHz :   493.819525   253.056581   185.023656

                             ****ORCA TERMINATED NORMALLY****
TOTAL RUN TIME: 0 days 0 hours 0 minutes 20 seconds 939 msec
