                         Program Version 4.2.1 -  RELEASE  -
|  1> ! wB97X-D3 SP def2-SVP
|  2> %pal
|  3> nprocs 24
|  4> end
|  5>
|  6> * xyz 0 1
|  7> S 	 -135.557 	 23.9569 	 -21.6134
|  8> C 	 -136.425 	 22.4121 	 -21.6426
|  9> C 	 -135.7 	 21.4532 	 -22.2967
| 10> C 	 -134.408 	 21.8937 	 -22.6918
| 11> C 	 -134.178 	 23.2059 	 -22.392
| 12> H 	 -133.678 	 21.2638 	 -23.1814
| 13> C 	 -136.123 	 20.0007 	 -22.2631
| 14> H 	 -137.02 	 19.8957 	 -21.6364
| 15> H 	 -135.43 	 19.4471 	 -21.6104
| 16> C 	 -136.264 	 19.3383 	 -23.604
| 17> H 	 -137.015 	 19.8321 	 -24.2292
| 18> H 	 -135.386 	 19.416 	 -24.2125
| 19> C 	 -136.727 	 17.8287 	 -23.5367
| 20> H 	 -137.562 	 17.6511 	 -22.798
| 21> H 	 -136.893 	 17.329 	 -24.518
| 22> H 	 -135.87 	 17.2304 	 -23.073
| 23> S 	 -133.238 	 25.5704 	 -23.298
| 24> C 	 -131.491 	 25.7947 	 -23.4051
| 25> C 	 -130.8 	 24.8591 	 -22.7548
| 26> C 	 -131.629 	 23.788 	 -22.3266
| 27> C 	 -132.972 	 24.0074 	 -22.552
| 28> H 	 -129.714 	 24.9447 	 -22.6723
| 29> C 	 -131.101 	 22.6622 	 -21.5656
| 30> H 	 -131.916 	 21.9769 	 -21.4021
| 31> H 	 -130.976 	 22.9174 	 -20.4816
| 32> C 	 -129.839 	 22.0404 	 -22.0887
| 33> H 	 -129.715 	 21.1277 	 -21.4513
| 34> H 	 -129.023 	 22.7245 	 -21.8551
| 35> C 	 -129.785 	 21.7807 	 -23.5621
| 36> H 	 -129.448 	 22.5645 	 -24.1256
| 37> H 	 -130.843 	 21.5727 	 -23.8428
| 38> H 	 -129.098 	 20.927 	 -23.8415
| 39> H 	 -137.301 	 22.2498 	 -21.0043
| 40> H 	 -131.125 	 26.7701 	 -23.645
| 41> *
| 42>
| 43>                          ****END OF INPUT****

CARTESIAN COORDINATES (ANGSTROEM)
---------------------------------
  S    -135.557000   23.956900  -21.613400
  C    -136.425000   22.412100  -21.642600
  C    -135.700000   21.453200  -22.296700
  C    -134.408000   21.893700  -22.691800
  C    -134.178000   23.205900  -22.392000
  H    -133.678000   21.263800  -23.181400
  C    -136.123000   20.000700  -22.263100
  H    -137.020000   19.895700  -21.636400
  H    -135.430000   19.447100  -21.610400
  C    -136.264000   19.338300  -23.604000
  H    -137.015000   19.832100  -24.229200
  H    -135.386000   19.416000  -24.212500
  C    -136.727000   17.828700  -23.536700
  H    -137.562000   17.651100  -22.798000
  H    -136.893000   17.329000  -24.518000
  H    -135.870000   17.230400  -23.073000
  S    -133.238000   25.570400  -23.298000
  C    -131.491000   25.794700  -23.405100
  C    -130.800000   24.859100  -22.754800
  C    -131.629000   23.788000  -22.326600
  C    -132.972000   24.007400  -22.552000
  H    -129.714000   24.944700  -22.672300
  C    -131.101000   22.662200  -21.565600
  H    -131.916000   21.976900  -21.402100
  H    -130.976000   22.917400  -20.481600
  C    -129.839000   22.040400  -22.088700
  H    -129.715000   21.127700  -21.451300
  H    -129.023000   22.724500  -21.855100
  C    -129.785000   21.780700  -23.562100
  H    -129.448000   22.564500  -24.125600
  H    -130.843000   21.572700  -23.842800
  H    -129.098000   20.927000  -23.841500
  H    -137.301000   22.249800  -21.004300
  H    -131.125000   26.770100  -23.645000

 Total Charge           Charge          ....    0
 Multiplicity           Mult            ....    1
 Number of Electrons    NEL             ....  134
 Basis Dimension        Dim             ....  322

ORBITAL ENERGIES
----------------

  NO   OCC          E(Eh)            E(eV)
   0   2.0000     -88.964367     -2420.8435
   1   2.0000     -88.960286     -2420.7325
   2   2.0000     -10.330684      -281.1122
   3   2.0000     -10.324205      -280.9359
   4   2.0000     -10.315074      -280.6874
   5   2.0000     -10.311251      -280.5834
   6   2.0000     -10.300550      -280.2922
   7   2.0000     -10.297816      -280.2178
   8   2.0000     -10.294340      -280.1232
   9   2.0000     -10.294231      -280.1203
  10   2.0000     -10.292556      -280.0747
  11   2.0000     -10.291454      -280.0447
  12   2.0000     -10.288077      -279.9528
  13   2.0000     -10.284353      -279.8515
  14   2.0000     -10.282506      -279.8012
  15   2.0000     -10.273684      -279.5611
  16   2.0000      -8.079192      -219.8460
  17   2.0000      -8.075528      -219.7463
  18   2.0000      -6.037683      -164.2937
  19   2.0000      -6.034010      -164.1938
  20   2.0000      -6.033801      -164.1881
  21   2.0000      -6.030137      -164.0884
  22   2.0000      -6.029835      -164.0802
  23   2.0000      -6.026111      -163.9788
  24   2.0000      -1.011850       -27.5338
  25   2.0000      -0.988701       -26.9039
  26   2.0000      -0.920677       -25.0529
  27   2.0000      -0.912295       -24.8248
  28   2.0000      -0.872876       -23.7522
  29   2.0000      -0.852199       -23.1895
  30   2.0000      -0.843556       -22.9543
  31   2.0000      -0.821668       -22.3587
  32   2.0000      -0.785333       -21.3700
  33   2.0000      -0.771547       -20.9949
  34   2.0000      -0.712487       -19.3878
  35   2.0000      -0.698763       -19.0143
  36   2.0000      -0.695044       -18.9131
  37   2.0000      -0.659758       -17.9529
  38   2.0000      -0.645102       -17.5541
  39   2.0000      -0.626257       -17.0413
  40   2.0000      -0.604419       -16.4471
  41   2.0000      -0.568146       -15.4600
  42   2.0000      -0.563234       -15.3264
  43   2.0000      -0.554748       -15.0954
  44   2.0000      -0.542675       -14.7669
  45   2.0000      -0.527846       -14.3634
  46   2.0000      -0.516861       -14.0645
  47   2.0000      -0.511340       -13.9143
  48   2.0000      -0.508413       -13.8346
  49   2.0000      -0.495664       -13.4877
  50   2.0000      -0.494798       -13.4641
  51   2.0000      -0.482792       -13.1374
  52   2.0000      -0.464649       -12.6437
  53   2.0000      -0.461961       -12.5706
  54   2.0000      -0.455046       -12.3824
  55   2.0000      -0.453433       -12.3385
  56   2.0000      -0.451969       -12.2987
  57   2.0000      -0.442419       -12.0388
  58   2.0000      -0.438908       -11.9433
  59   2.0000      -0.424000       -11.5376
  60   2.0000      -0.415761       -11.3134
  61   2.0000      -0.409282       -11.1371
  62   2.0000      -0.407255       -11.0820
  63   2.0000      -0.353596        -9.6218
  64   2.0000      -0.334391        -9.0992
  65   2.0000      -0.328544        -8.9401
  66   2.0000      -0.291885        -7.9426
  67   0.0000       0.031668         0.8617
  68   0.0000       0.067373         1.8333
  69   0.0000       0.103422         2.8142
  70   0.0000       0.121262         3.2997
  71   0.0000       0.126391         3.4393

MULLIKEN ATOMIC CHARGES
-----------------------
   0 S :    0.093839
   1 C :   -0.139594
   2 C :   -0.057555
   3 C :    0.030307
   4 C :   -0.134381
   5 H :    0.014529
   6 C :    0.054384
   7 H :    0.009018
   8 H :    0.029872
   9 C :   -0.059073
  10 H :    0.031328
  11 H :    0.024678
  12 C :   -0.098551
  13 H :    0.041652
  14 H :    0.051588
  15 H :    0.028902
  16 S :    0.082551
  17 C :   -0.072933
  18 C :   -0.032148
  19 C :   -0.047701
  20 C :   -0.134750
  21 H :    0.027451
  22 C :    0.059705
  23 H :    0.000297
  24 H :    0.041457
  25 C :   -0.085864
  26 H :    0.036811
  27 H :    0.022677
  28 C :   -0.017331
  29 H :    0.014455
  30 H :    0.031404
  31 H :    0.042135
  32 H :    0.062112
  33 H :    0.048729
Sum of atomic charges:   -0.0000000

LOEWDIN ATOMIC CHARGES
----------------------
   0 S :    0.387770
   1 C :   -0.188992
   2 C :   -0.062003
   3 C :   -0.064127
   4 C :   -0.182076
   5 H :    0.031976
   6 C :   -0.034076
   7 H :    0.030139
   8 H :    0.033066
   9 C :   -0.043372
  10 H :    0.027136
  11 H :    0.021053
  12 C :   -0.079884
  13 H :    0.029043
  14 H :    0.030870
  15 H :    0.026905
  16 S :    0.387646
  17 C :   -0.166843
  18 C :   -0.067450
  19 C :   -0.061691
  20 C :   -0.192865
  21 H :    0.038178
  22 C :   -0.047317
  23 H :    0.026219
  24 H :    0.045027
  25 C :   -0.047698
  26 H :    0.033127
  27 H :    0.020069
  28 C :   -0.063727
  29 H :    0.012578
  30 H :    0.030434
  31 H :    0.036560
  32 H :    0.032302
  33 H :    0.022022

  Mayer bond orders larger than 0.100000
B(  0-S ,  1-C ) :   1.1205 B(  0-S ,  4-C ) :   1.1529 B(  1-C ,  2-C ) :   1.6310
B(  1-C , 32-H ) :   0.9668 B(  2-C ,  3-C ) :   1.2188 B(  2-C ,  6-C ) :   1.0281
B(  3-C ,  4-C ) :   1.5987 B(  3-C ,  5-H ) :   0.9992 B(  4-C , 20-C ) :   1.0051
B(  6-C ,  7-H ) :   0.9405 B(  6-C ,  8-H ) :   0.9411 B(  6-C ,  9-C ) :   1.0488
B(  9-C , 10-H ) :   0.9555 B(  9-C , 11-H ) :   0.9587 B(  9-C , 12-C ) :   1.0717
B( 12-C , 13-H ) :   0.9756 B( 12-C , 14-H ) :   0.9760 B( 12-C , 15-H ) :   0.9750
B( 16-S , 17-C ) :   1.1403 B( 16-S , 20-C ) :   1.1337 B( 17-C , 18-C ) :   1.6488
B( 17-C , 33-H ) :   0.9626 B( 18-C , 19-C ) :   1.1979 B( 18-C , 21-H ) :   0.9895
B( 19-C , 20-C ) :   1.6180 B( 19-C , 22-C ) :   1.0685 B( 22-C , 23-H ) :   0.9212
B( 22-C , 24-H ) :   0.9210 B( 22-C , 25-C ) :   1.0738 B( 25-C , 26-H ) :   0.9525
B( 25-C , 27-H ) :   0.9485 B( 25-C , 28-C ) :   1.0872 B( 28-C , 29-H ) :   0.9646
B( 28-C , 30-H ) :   0.9754 B( 28-C , 31-H ) :   0.9712

Dispersion correction           -0.014294718
FINAL SINGLE POINT ENERGY     -1339.878562669629

DIPOLE MOMENT
-------------
                                X             Y             Z
Electronic contribution:     -6.60933      28.06987       3.04047
Nuclear contribution   :      7.00269     -28.60896      -2.82294
                        -----------------------------------------
Total Dipole Moment    :      0.39335      -0.53909       0.21752
                        -----------------------------------------
Magnitude (a.u.)       :      0.70190
Magnitude (Debye)      :      1.78409

Rotational constants in cm-1:     0.019310     0.008366     0.006458
Rotational constants in MHz :   578.908307   250.792185   193.595238

                             ****ORCA TERMINATED NORMALLY****
TOTAL RUN TIME: 0 days 0 hours 0 minutes 21 seconds 700 msec
