                         Program Version 4.2.1 -  RELEASE  -
|  1> ! wB97X-D3 SP def2-SVP
|  2> %pal
|  3> nprocs 24
|  4> end
|  5>
|  6> * xyz 0 1
|  7> S 	 -68.9544 	 17.1927 	 -70.0084
|  8> C 	 -69.2188 	 16.0996 	 -68.6545
|  9> C 	 -68.6486 	 16.5507 	 -67.5241
| 10> C 	 -68.22 	 17.9063 	 -67.7226
| 11> C 	 -68.3894 	 18.4613 	 -69.0187
| 12> H 	 -67.7751 	 18.6173 	 -67.0058
| 13> C 	 -68.8089 	 15.8998 	 -66.1712
| 14> H 	 -69.8007 	 15.4856 	 -66.1012
| 15> H 	 -68.7159 	 16.5579 	 -65.2969
| 16> C 	 -67.7938 	 14.8267 	 -65.8115
| 17> H 	 -68.0388 	 14.4957 	 -64.8428
| 18> H 	 -67.8352 	 13.9406 	 -66.4827
| 19> C 	 -66.4349 	 15.3888 	 -65.6043
| 20> H 	 -66.4882 	 16.1113 	 -64.7686
| 21> H 	 -65.7076 	 14.6915 	 -65.2899
| 22> H 	 -66.049 	 15.8172 	 -66.521
| 23> S 	 -67.6053 	 20.1521 	 -70.9907
| 24> C 	 -67.4264 	 21.8226 	 -70.7831
| 25> C 	 -67.7481 	 22.1202 	 -69.4939
| 26> C 	 -68.4477 	 21.122 	 -68.7684
| 27> C 	 -68.2757 	 19.9068 	 -69.4018
| 28> H 	 -67.7454 	 23.1207 	 -69.2339
| 29> C 	 -68.9709 	 21.3813 	 -67.3843
| 30> H 	 -68.9435 	 22.4636 	 -67.1824
| 31> H 	 -68.1636 	 20.9076 	 -66.776
| 32> C 	 -70.2539 	 20.6232 	 -66.8673
| 33> H 	 -70.3865 	 21.0412 	 -65.8906
| 34> H 	 -70.1105 	 19.5585 	 -66.6631
| 35> C 	 -71.5206 	 20.8244 	 -67.7229
| 36> H 	 -71.2878 	 20.6712 	 -68.7593
| 37> H 	 -71.8749 	 21.8548 	 -67.5003
| 38> H 	 -72.2226 	 20.0874 	 -67.5362
| 39> H 	 -69.7649 	 15.1607 	 -68.6309
| 40> H 	 -66.8809 	 22.3962 	 -71.4804
| 41> *
| 42>
| 43>                          ****END OF INPUT****

CARTESIAN COORDINATES (ANGSTROEM)
---------------------------------
  S    -68.954400   17.192700  -70.008400
  C    -69.218800   16.099600  -68.654500
  C    -68.648600   16.550700  -67.524100
  C    -68.220000   17.906300  -67.722600
  C    -68.389400   18.461300  -69.018700
  H    -67.775100   18.617300  -67.005800
  C    -68.808900   15.899800  -66.171200
  H    -69.800700   15.485600  -66.101200
  H    -68.715900   16.557900  -65.296900
  C    -67.793800   14.826700  -65.811500
  H    -68.038800   14.495700  -64.842800
  H    -67.835200   13.940600  -66.482700
  C    -66.434900   15.388800  -65.604300
  H    -66.488200   16.111300  -64.768600
  H    -65.707600   14.691500  -65.289900
  H    -66.049000   15.817200  -66.521000
  S    -67.605300   20.152100  -70.990700
  C    -67.426400   21.822600  -70.783100
  C    -67.748100   22.120200  -69.493900
  C    -68.447700   21.122000  -68.768400
  C    -68.275700   19.906800  -69.401800
  H    -67.745400   23.120700  -69.233900
  C    -68.970900   21.381300  -67.384300
  H    -68.943500   22.463600  -67.182400
  H    -68.163600   20.907600  -66.776000
  C    -70.253900   20.623200  -66.867300
  H    -70.386500   21.041200  -65.890600
  H    -70.110500   19.558500  -66.663100
  C    -71.520600   20.824400  -67.722900
  H    -71.287800   20.671200  -68.759300
  H    -71.874900   21.854800  -67.500300
  H    -72.222600   20.087400  -67.536200
  H    -69.764900   15.160700  -68.630900
  H    -66.880900   22.396200  -71.480400

 Total Charge           Charge          ....    0
 Multiplicity           Mult            ....    1
 Number of Electrons    NEL             ....  134
 Basis Dimension        Dim             ....  322

ORBITAL ENERGIES
----------------

  NO   OCC          E(Eh)            E(eV)
   0   2.0000     -88.966567     -2420.9034
   1   2.0000     -88.958852     -2420.6934
   2   2.0000     -10.332464      -281.1606
   3   2.0000     -10.329649      -281.0840
   4   2.0000     -10.312743      -280.6240
   5   2.0000     -10.309469      -280.5349
   6   2.0000     -10.304124      -280.3895
   7   2.0000     -10.300467      -280.2900
   8   2.0000     -10.299197      -280.2554
   9   2.0000     -10.297545      -280.2104
  10   2.0000     -10.292577      -280.0752
  11   2.0000     -10.284686      -279.8605
  12   2.0000     -10.284153      -279.8460
  13   2.0000     -10.279198      -279.7112
  14   2.0000     -10.269542      -279.4485
  15   2.0000     -10.266539      -279.3667
  16   2.0000      -8.081780      -219.9164
  17   2.0000      -8.075501      -219.7456
  18   2.0000      -6.040381      -164.3671
  19   2.0000      -6.036150      -164.2520
  20   2.0000      -6.033798      -164.1880
  21   2.0000      -6.032458      -164.1515
  22   2.0000      -6.029638      -164.0748
  23   2.0000      -6.026471      -163.9886
  24   2.0000      -1.014381       -27.6027
  25   2.0000      -0.994905       -27.0727
  26   2.0000      -0.922921       -25.1139
  27   2.0000      -0.906374       -24.6637
  28   2.0000      -0.874564       -23.7981
  29   2.0000      -0.853370       -23.2214
  30   2.0000      -0.844516       -22.9804
  31   2.0000      -0.813934       -22.1483
  32   2.0000      -0.787761       -21.4361
  33   2.0000      -0.781584       -21.2680
  34   2.0000      -0.708825       -19.2881
  35   2.0000      -0.698901       -19.0181
  36   2.0000      -0.691644       -18.8206
  37   2.0000      -0.670054       -18.2331
  38   2.0000      -0.637901       -17.3582
  39   2.0000      -0.610633       -16.6162
  40   2.0000      -0.591657       -16.0998
  41   2.0000      -0.587324       -15.9819
  42   2.0000      -0.560943       -15.2640
  43   2.0000      -0.555873       -15.1261
  44   2.0000      -0.549520       -14.9532
  45   2.0000      -0.545135       -14.8339
  46   2.0000      -0.516719       -14.0607
  47   2.0000      -0.508995       -13.8505
  48   2.0000      -0.507323       -13.8050
  49   2.0000      -0.497698       -13.5430
  50   2.0000      -0.489588       -13.3224
  51   2.0000      -0.482948       -13.1417
  52   2.0000      -0.472515       -12.8578
  53   2.0000      -0.471073       -12.8185
  54   2.0000      -0.463222       -12.6049
  55   2.0000      -0.446239       -12.1428
  56   2.0000      -0.439575       -11.9615
  57   2.0000      -0.431767       -11.7490
  58   2.0000      -0.428233       -11.6528
  59   2.0000      -0.424755       -11.5582
  60   2.0000      -0.420971       -11.4552
  61   2.0000      -0.417826       -11.3696
  62   2.0000      -0.411212       -11.1896
  63   2.0000      -0.354883        -9.6569
  64   2.0000      -0.329524        -8.9668
  65   2.0000      -0.326593        -8.8870
  66   2.0000      -0.288246        -7.8436
  67   0.0000       0.025939         0.7058
  68   0.0000       0.072897         1.9836
  69   0.0000       0.109144         2.9700
  70   0.0000       0.113010         3.0752
  71   0.0000       0.138201         3.7606

MULLIKEN ATOMIC CHARGES
-----------------------
   0 S :    0.118565
   1 C :   -0.128089
   2 C :   -0.029601
   3 C :   -0.022909
   4 C :   -0.119224
   5 H :    0.011117
   6 C :    0.047979
   7 H :    0.025841
   8 H :    0.017585
   9 C :   -0.048557
  10 H :    0.007457
  11 H :    0.029695
  12 C :   -0.040154
  13 H :    0.019364
  14 H :    0.022445
  15 H :    0.038260
  16 S :    0.086057
  17 C :   -0.064036
  18 C :   -0.018145
  19 C :   -0.068563
  20 C :   -0.135884
  21 H :   -0.004250
  22 C :    0.019923
  23 H :    0.028102
  24 H :    0.048574
  25 C :   -0.066316
  26 H :    0.018477
  27 H :    0.034470
  28 C :   -0.013327
  29 H :    0.035602
  30 H :    0.035928
  31 H :    0.016579
  32 H :    0.045046
  33 H :    0.051986
Sum of atomic charges:    0.0000000

LOEWDIN ATOMIC CHARGES
----------------------
   0 S :    0.418167
   1 C :   -0.187001
   2 C :   -0.071252
   3 C :   -0.069853
   4 C :   -0.215223
   5 H :    0.028209
   6 C :   -0.027122
   7 H :    0.030681
   8 H :    0.032059
   9 C :   -0.040478
  10 H :    0.018116
  11 H :    0.022460
  12 C :   -0.061192
  13 H :    0.026529
  14 H :    0.020922
  15 H :    0.024864
  16 S :    0.426299
  17 C :   -0.188949
  18 C :   -0.068805
  19 C :   -0.060847
  20 C :   -0.195927
  21 H :    0.016890
  22 C :   -0.035117
  23 H :    0.032958
  24 H :    0.044268
  25 C :   -0.039003
  26 H :    0.021753
  27 H :    0.024918
  28 C :   -0.058898
  29 H :    0.026186
  30 H :    0.030269
  31 H :    0.017074
  32 H :    0.033016
  33 H :    0.024029

  Mayer bond orders larger than 0.100000
B(  0-S ,  1-C ) :   1.1425 B(  0-S ,  4-C ) :   1.1575 B(  1-C ,  2-C ) :   1.6179
B(  1-C , 32-H ) :   0.9617 B(  2-C ,  3-C ) :   1.2275 B(  2-C ,  6-C ) :   1.0154
B(  3-C ,  4-C ) :   1.5672 B(  3-C ,  5-H ) :   0.9937 B(  4-C , 20-C ) :   1.0173
B(  6-C ,  7-H ) :   0.9449 B(  6-C ,  8-H ) :   0.9478 B(  6-C ,  9-C ) :   1.0816
B(  9-C , 10-H ) :   0.9509 B(  9-C , 11-H ) :   0.9535 B(  9-C , 12-C ) :   1.0846
B( 12-C , 13-H ) :   0.9706 B( 12-C , 14-H ) :   0.9706 B( 12-C , 15-H ) :   0.9747
B( 16-S , 17-C ) :   1.1750 B( 16-S , 20-C ) :   1.1581 B( 17-C , 18-C ) :   1.5913
B( 17-C , 33-H ) :   0.9739 B( 18-C , 19-C ) :   1.2616 B( 18-C , 21-H ) :   0.9869
B( 19-C , 20-C ) :   1.5620 B( 19-C , 22-C ) :   1.0429 B( 22-C , 23-H ) :   0.9384
B( 22-C , 24-H ) :   0.9302 B( 22-C , 25-C ) :   1.0678 B( 25-C , 26-H ) :   0.9529
B( 25-C , 27-H ) :   0.9496 B( 25-C , 28-C ) :   1.0782 B( 28-C , 29-H ) :   0.9749
B( 28-C , 30-H ) :   0.9784 B( 28-C , 31-H ) :   0.9738

Dispersion correction           -0.015015833
FINAL SINGLE POINT ENERGY     -1339.852933448609

DIPOLE MOMENT
-------------
                                X             Y             Z
Electronic contribution:      4.13798       4.02254     -24.97390
Nuclear contribution   :     -4.19726      -3.94643      25.75176
                        -----------------------------------------
Total Dipole Moment    :     -0.05927       0.07612       0.77786
                        -----------------------------------------
Magnitude (a.u.)       :      0.78382
Magnitude (Debye)      :      1.99231

Rotational constants in cm-1:     0.020396     0.008636     0.007539
Rotational constants in MHz :   611.443656   258.904244   226.027050

                             ****ORCA TERMINATED NORMALLY****
TOTAL RUN TIME: 0 days 0 hours 0 minutes 22 seconds 552 msec
