                         Program Version 4.2.1 -  RELEASE  -
|  1> ! wB97X-D3 SP def2-SVP
|  2> %pal
|  3> nprocs 24
|  4> end
|  5>
|  6> * xyz 0 1
|  7> S 	 41.2212 	 -10.6078 	 -125.45
|  8> C 	 41.3513 	 -10.8807 	 -123.66
|  9> C 	 41.2928 	 -12.2227 	 -123.313
| 10> C 	 41.0439 	 -13.0253 	 -124.539
| 11> C 	 41.0987 	 -12.3091 	 -125.727
| 12> H 	 40.8373 	 -14.0888 	 -124.48
| 13> C 	 41.4989 	 -12.728 	 -121.872
| 14> H 	 41.8709 	 -13.769 	 -121.952
| 15> H 	 40.5712 	 -12.8341 	 -121.401
| 16> C 	 42.4322 	 -11.869 	 -120.965
| 17> H 	 42.0625 	 -10.8659 	 -120.896
| 18> H 	 42.2898 	 -12.2298 	 -119.958
| 19> C 	 43.8985 	 -12.0699 	 -121.316
| 20> H 	 44.0713 	 -13.0492 	 -121.668
| 21> H 	 44.1444 	 -11.4001 	 -122.096
| 22> H 	 44.6007 	 -11.7848 	 -120.505
| 23> S 	 39.6501 	 -12.0335 	 -127.961
| 24> C 	 39.7133 	 -13.2268 	 -129.223
| 25> C 	 40.6206 	 -14.168 	 -128.963
| 26> C 	 41.308 	 -13.9848 	 -127.721
| 27> C 	 40.8175 	 -12.8868 	 -127.017
| 28> H 	 40.8602 	 -14.8037 	 -129.747
| 29> C 	 42.3689 	 -14.915 	 -127.212
| 30> H 	 42.8231 	 -14.5539 	 -126.287
| 31> H 	 43.2126 	 -14.8809 	 -127.881
| 32> C 	 41.8766 	 -16.2959 	 -126.78
| 33> H 	 41.3644 	 -16.7864 	 -127.544
| 34> H 	 41.1286 	 -16.1213 	 -126.031
| 35> C 	 43.092 	 -17.1537 	 -126.357
| 36> H 	 42.7605 	 -18.1936 	 -126.3
| 37> H 	 43.544 	 -16.8735 	 -125.416
| 38> H 	 43.794 	 -17.0727 	 -127.149
| 39> H 	 41.4411 	 -10.1436 	 -122.931
| 40> H 	 39.229 	 -13.1989 	 -130.176
| 41> *
| 42>
| 43>                          ****END OF INPUT****

CARTESIAN COORDINATES (ANGSTROEM)
---------------------------------
  S     41.221200  -10.607800  -125.450000
  C     41.351300  -10.880700  -123.660000
  C     41.292800  -12.222700  -123.313000
  C     41.043900  -13.025300  -124.539000
  C     41.098700  -12.309100  -125.727000
  H     40.837300  -14.088800  -124.480000
  C     41.498900  -12.728000  -121.872000
  H     41.870900  -13.769000  -121.952000
  H     40.571200  -12.834100  -121.401000
  C     42.432200  -11.869000  -120.965000
  H     42.062500  -10.865900  -120.896000
  H     42.289800  -12.229800  -119.958000
  C     43.898500  -12.069900  -121.316000
  H     44.071300  -13.049200  -121.668000
  H     44.144400  -11.400100  -122.096000
  H     44.600700  -11.784800  -120.505000
  S     39.650100  -12.033500  -127.961000
  C     39.713300  -13.226800  -129.223000
  C     40.620600  -14.168000  -128.963000
  C     41.308000  -13.984800  -127.721000
  C     40.817500  -12.886800  -127.017000
  H     40.860200  -14.803700  -129.747000
  C     42.368900  -14.915000  -127.212000
  H     42.823100  -14.553900  -126.287000
  H     43.212600  -14.880900  -127.881000
  C     41.876600  -16.295900  -126.780000
  H     41.364400  -16.786400  -127.544000
  H     41.128600  -16.121300  -126.031000
  C     43.092000  -17.153700  -126.357000
  H     42.760500  -18.193600  -126.300000
  H     43.544000  -16.873500  -125.416000
  H     43.794000  -17.072700  -127.149000
  H     41.441100  -10.143600  -122.931000
  H     39.229000  -13.198900  -130.176000

 Total Charge           Charge          ....    0
 Multiplicity           Mult            ....    1
 Number of Electrons    NEL             ....  134
 Basis Dimension        Dim             ....  322

ORBITAL ENERGIES
----------------

  NO   OCC          E(Eh)            E(eV)
   0   2.0000     -88.967980     -2420.9418
   1   2.0000     -88.960399     -2420.7355
   2   2.0000     -10.329206      -281.0720
   3   2.0000     -10.322625      -280.8929
   4   2.0000     -10.313248      -280.6377
   5   2.0000     -10.308589      -280.5110
   6   2.0000     -10.307512      -280.4817
   7   2.0000     -10.301008      -280.3047
   8   2.0000     -10.298970      -280.2492
   9   2.0000     -10.296874      -280.1922
  10   2.0000     -10.288378      -279.9610
  11   2.0000     -10.282915      -279.8123
  12   2.0000     -10.282391      -279.7981
  13   2.0000     -10.278662      -279.6966
  14   2.0000     -10.275741      -279.6171
  15   2.0000     -10.271531      -279.5026
  16   2.0000      -8.081946      -219.9209
  17   2.0000      -8.076111      -219.7621
  18   2.0000      -6.040659      -164.3747
  19   2.0000      -6.036699      -164.2669
  20   2.0000      -6.034615      -164.2102
  21   2.0000      -6.032383      -164.1495
  22   2.0000      -6.030405      -164.0957
  23   2.0000      -6.026892      -164.0001
  24   2.0000      -1.009856       -27.4796
  25   2.0000      -0.979413       -26.6512
  26   2.0000      -0.914398       -24.8820
  27   2.0000      -0.912495       -24.8302
  28   2.0000      -0.873446       -23.7677
  29   2.0000      -0.850363       -23.1395
  30   2.0000      -0.842599       -22.9283
  31   2.0000      -0.815901       -22.2018
  32   2.0000      -0.786356       -21.3978
  33   2.0000      -0.772264       -21.0144
  34   2.0000      -0.714835       -19.4516
  35   2.0000      -0.709798       -19.3146
  36   2.0000      -0.700997       -19.0751
  37   2.0000      -0.661889       -18.0109
  38   2.0000      -0.634913       -17.2769
  39   2.0000      -0.614822       -16.7301
  40   2.0000      -0.599606       -16.3161
  41   2.0000      -0.577845       -15.7240
  42   2.0000      -0.567541       -15.4436
  43   2.0000      -0.559275       -15.2186
  44   2.0000      -0.539429       -14.6786
  45   2.0000      -0.525882       -14.3100
  46   2.0000      -0.517099       -14.0710
  47   2.0000      -0.511573       -13.9206
  48   2.0000      -0.510958       -13.9039
  49   2.0000      -0.497975       -13.5506
  50   2.0000      -0.490324       -13.3424
  51   2.0000      -0.476061       -12.9543
  52   2.0000      -0.473313       -12.8795
  53   2.0000      -0.467233       -12.7141
  54   2.0000      -0.458869       -12.4865
  55   2.0000      -0.449517       -12.2320
  56   2.0000      -0.446868       -12.1599
  57   2.0000      -0.441396       -12.0110
  58   2.0000      -0.436196       -11.8695
  59   2.0000      -0.432750       -11.7757
  60   2.0000      -0.423767       -11.5313
  61   2.0000      -0.416995       -11.3470
  62   2.0000      -0.410613       -11.1734
  63   2.0000      -0.350288        -9.5318
  64   2.0000      -0.328308        -8.9337
  65   2.0000      -0.327534        -8.9126
  66   2.0000      -0.292522        -7.9599
  67   0.0000       0.032067         0.8726
  68   0.0000       0.078053         2.1239
  69   0.0000       0.104301         2.8382
  70   0.0000       0.124089         3.3766
  71   0.0000       0.132197         3.5973

MULLIKEN ATOMIC CHARGES
-----------------------
   0 S :    0.106692
   1 C :   -0.100332
   2 C :   -0.096900
   3 C :    0.010905
   4 C :   -0.117140
   5 H :    0.012424
   6 C :    0.068681
   7 H :    0.024539
   8 H :    0.029409
   9 C :   -0.072018
  10 H :    0.022905
  11 H :    0.018772
  12 C :   -0.006939
  13 H :    0.021591
  14 H :    0.023686
  15 H :    0.037318
  16 S :    0.098063
  17 C :   -0.072290
  18 C :   -0.012233
  19 C :   -0.026402
  20 C :   -0.154496
  21 H :   -0.005463
  22 C :    0.047116
  23 H :    0.009343
  24 H :    0.021299
  25 C :   -0.045418
  26 H :    0.008376
  27 H :    0.017725
  28 C :   -0.016940
  29 H :    0.032473
  30 H :    0.033905
  31 H :    0.020944
  32 H :    0.016087
  33 H :    0.044316
Sum of atomic charges:   -0.0000000

LOEWDIN ATOMIC CHARGES
----------------------
   0 S :    0.386034
   1 C :   -0.173032
   2 C :   -0.052630
   3 C :   -0.061260
   4 C :   -0.201355
   5 H :    0.027477
   6 C :   -0.025485
   7 H :    0.032668
   8 H :    0.026846
   9 C :   -0.035713
  10 H :    0.019484
  11 H :    0.024485
  12 C :   -0.057792
  13 H :    0.021043
  14 H :    0.022867
  15 H :    0.031428
  16 S :    0.411622
  17 C :   -0.181015
  18 C :   -0.067424
  19 C :   -0.053068
  20 C :   -0.199654
  21 H :    0.023412
  22 C :   -0.036765
  23 H :    0.029680
  24 H :    0.026739
  25 C :   -0.028672
  26 H :    0.012176
  27 H :    0.019752
  28 C :   -0.054846
  29 H :    0.028195
  30 H :    0.023565
  31 H :    0.021516
  32 H :    0.010864
  33 H :    0.028860

  Mayer bond orders larger than 0.100000
B(  0-S ,  1-C ) :   1.1069 B(  0-S ,  4-C ) :   1.1346 B(  1-C ,  2-C ) :   1.6574
B(  1-C , 32-H ) :   0.9708 B(  2-C ,  3-C ) :   1.2135 B(  2-C ,  6-C ) :   1.0015
B(  3-C ,  4-C ) :   1.5820 B(  3-C ,  5-H ) :   0.9910 B(  4-C , 20-C ) :   1.0505
B(  6-C ,  7-H ) :   0.9447 B(  6-C ,  8-H ) :   0.9312 B(  6-C ,  9-C ) :   1.0934
B(  9-C , 10-H ) :   0.9531 B(  9-C , 11-H ) :   0.9517 B(  9-C , 12-C ) :   1.0673
B( 12-C , 13-H ) :   0.9747 B( 12-C , 14-H ) :   0.9748 B( 12-C , 15-H ) :   0.9757
B( 16-S , 17-C ) :   1.1423 B( 16-S , 20-C ) :   1.1416 B( 17-C , 18-C ) :   1.6457
B( 17-C , 33-H ) :   0.9652 B( 18-C , 19-C ) :   1.2178 B( 18-C , 21-H ) :   0.9984
B( 19-C , 20-C ) :   1.5964 B( 19-C , 22-C ) :   1.0587 B( 22-C , 23-H ) :   0.9316
B( 22-C , 24-H ) :   0.9304 B( 22-C , 25-C ) :   1.0546 B( 25-C , 26-H ) :   0.9568
B( 25-C , 27-H ) :   0.9521 B( 25-C , 28-C ) :   1.0763 B( 28-C , 29-H ) :   0.9745
B( 28-C , 30-H ) :   0.9769 B( 28-C , 31-H ) :   0.9740

Dispersion correction           -0.014068752
FINAL SINGLE POINT ENERGY     -1339.874037207386

DIPOLE MOMENT
-------------
                                X             Y             Z
Electronic contribution:    -15.10947      18.39408     -17.47307
Nuclear contribution   :     15.35014     -18.93777      17.81323
                        -----------------------------------------
Total Dipole Moment    :      0.24067      -0.54368       0.34016
                        -----------------------------------------
Magnitude (a.u.)       :      0.68500
Magnitude (Debye)      :      1.74113

Rotational constants in cm-1:     0.018535     0.008815     0.006373
Rotational constants in MHz :   555.651991   264.278420   191.045346

                             ****ORCA TERMINATED NORMALLY****
TOTAL RUN TIME: 0 days 0 hours 0 minutes 21 seconds 649 msec
