                         Program Version 4.2.1 -  RELEASE  -
|  1> ! wB97X-D3 SP def2-SVP
|  2> %pal
|  3> nprocs 24
|  4> end
|  5>
|  6> * xyz 0 1
|  7> S 	 -112.487 	 36.9973 	 -115.974
|  8> C 	 -113.005 	 35.4203 	 -116.61
|  9> C 	 -113.732 	 34.7495 	 -115.682
| 10> C 	 -114.053 	 35.5443 	 -114.571
| 11> C 	 -113.449 	 36.8215 	 -114.548
| 12> H 	 -114.502 	 35.2684 	 -113.622
| 13> C 	 -114.393 	 33.3379 	 -115.902
| 14> H 	 -115.274 	 33.5084 	 -116.646
| 15> H 	 -114.833 	 33.192 	 -114.887
| 16> C 	 -113.35 	 32.1624 	 -116.303
| 17> H 	 -113.021 	 32.3259 	 -117.334
| 18> H 	 -112.579 	 32.3094 	 -115.574
| 19> C 	 -113.961 	 30.8031 	 -116.145
| 20> H 	 -114.093 	 30.4993 	 -115.081
| 21> H 	 -114.897 	 30.6096 	 -116.815
| 22> H 	 -113.234 	 30.0754 	 -116.508
| 23> S 	 -112.074 	 38.7596 	 -113.126
| 24> C 	 -112.86 	 39.6311 	 -111.811
| 25> C 	 -114.166 	 39.2236 	 -111.71
| 26> C 	 -114.564 	 38.1321 	 -112.532
| 27> C 	 -113.548 	 37.8028 	 -113.495
| 28> H 	 -114.781 	 39.7439 	 -111.011
| 29> C 	 -115.909 	 37.44 	 -112.481
| 30> H 	 -116.402 	 37.6319 	 -111.544
| 31> H 	 -115.725 	 36.3799 	 -112.418
| 32> C 	 -116.963 	 37.7358 	 -113.523
| 33> H 	 -116.658 	 37.3057 	 -114.461
| 34> H 	 -116.947 	 38.7902 	 -113.854
| 35> C 	 -118.364 	 37.1959 	 -113.2
| 36> H 	 -119.077 	 37.4434 	 -113.938
| 37> H 	 -118.732 	 37.6056 	 -112.297
| 38> H 	 -118.377 	 36.0979 	 -113.084
| 39> H 	 -112.691 	 34.887 	 -117.501
| 40> H 	 -112.524 	 40.5612 	 -111.281
| 41> *
| 42>
| 43>                          ****END OF INPUT****

CARTESIAN COORDINATES (ANGSTROEM)
---------------------------------
  S    -112.487000   36.997300  -115.974000
  C    -113.005000   35.420300  -116.610000
  C    -113.732000   34.749500  -115.682000
  C    -114.053000   35.544300  -114.571000
  C    -113.449000   36.821500  -114.548000
  H    -114.502000   35.268400  -113.622000
  C    -114.393000   33.337900  -115.902000
  H    -115.274000   33.508400  -116.646000
  H    -114.833000   33.192000  -114.887000
  C    -113.350000   32.162400  -116.303000
  H    -113.021000   32.325900  -117.334000
  H    -112.579000   32.309400  -115.574000
  C    -113.961000   30.803100  -116.145000
  H    -114.093000   30.499300  -115.081000
  H    -114.897000   30.609600  -116.815000
  H    -113.234000   30.075400  -116.508000
  S    -112.074000   38.759600  -113.126000
  C    -112.860000   39.631100  -111.811000
  C    -114.166000   39.223600  -111.710000
  C    -114.564000   38.132100  -112.532000
  C    -113.548000   37.802800  -113.495000
  H    -114.781000   39.743900  -111.011000
  C    -115.909000   37.440000  -112.481000
  H    -116.402000   37.631900  -111.544000
  H    -115.725000   36.379900  -112.418000
  C    -116.963000   37.735800  -113.523000
  H    -116.658000   37.305700  -114.461000
  H    -116.947000   38.790200  -113.854000
  C    -118.364000   37.195900  -113.200000
  H    -119.077000   37.443400  -113.938000
  H    -118.732000   37.605600  -112.297000
  H    -118.377000   36.097900  -113.084000
  H    -112.691000   34.887000  -117.501000
  H    -112.524000   40.561200  -111.281000

 Total Charge           Charge          ....    0
 Multiplicity           Mult            ....    1
 Number of Electrons    NEL             ....  134
 Basis Dimension        Dim             ....  322

ORBITAL ENERGIES
----------------

  NO   OCC          E(Eh)            E(eV)
   0   2.0000     -88.970093     -2420.9993
   1   2.0000     -88.967057     -2420.9167
   2   2.0000     -10.337473      -281.2969
   3   2.0000     -10.332348      -281.1575
   4   2.0000     -10.320770      -280.8424
   5   2.0000     -10.312235      -280.6102
   6   2.0000     -10.311862      -280.6000
   7   2.0000     -10.309123      -280.5255
   8   2.0000     -10.298828      -280.2454
   9   2.0000     -10.295951      -280.1671
  10   2.0000     -10.293006      -280.0869
  11   2.0000     -10.292552      -280.0746
  12   2.0000     -10.289155      -279.9821
  13   2.0000     -10.288448      -279.9629
  14   2.0000     -10.281024      -279.7609
  15   2.0000     -10.273765      -279.5634
  16   2.0000      -8.084300      -219.9850
  17   2.0000      -8.080722      -219.8876
  18   2.0000      -6.042894      -164.4355
  19   2.0000      -6.039368      -164.3395
  20   2.0000      -6.038785      -164.3237
  21   2.0000      -6.035265      -164.2279
  22   2.0000      -6.035081      -164.2229
  23   2.0000      -6.031508      -164.1257
  24   2.0000      -1.005323       -27.3562
  25   2.0000      -0.980856       -26.6904
  26   2.0000      -0.910397       -24.7732
  27   2.0000      -0.903950       -24.5977
  28   2.0000      -0.873273       -23.7630
  29   2.0000      -0.852069       -23.1860
  30   2.0000      -0.845425       -23.0052
  31   2.0000      -0.812669       -22.1138
  32   2.0000      -0.782132       -21.2829
  33   2.0000      -0.770416       -20.9641
  34   2.0000      -0.714664       -19.4470
  35   2.0000      -0.701934       -19.1006
  36   2.0000      -0.694133       -18.8883
  37   2.0000      -0.659612       -17.9490
  38   2.0000      -0.633935       -17.2502
  39   2.0000      -0.613028       -16.6814
  40   2.0000      -0.594010       -16.1638
  41   2.0000      -0.570382       -15.5209
  42   2.0000      -0.564635       -15.3645
  43   2.0000      -0.559161       -15.2156
  44   2.0000      -0.526537       -14.3278
  45   2.0000      -0.517482       -14.0814
  46   2.0000      -0.514536       -14.0012
  47   2.0000      -0.512007       -13.9324
  48   2.0000      -0.506156       -13.7732
  49   2.0000      -0.500021       -13.6063
  50   2.0000      -0.489710       -13.3257
  51   2.0000      -0.485955       -13.2235
  52   2.0000      -0.475964       -12.9516
  53   2.0000      -0.465053       -12.6547
  54   2.0000      -0.459147       -12.4940
  55   2.0000      -0.449753       -12.2384
  56   2.0000      -0.445504       -12.1228
  57   2.0000      -0.440407       -11.9841
  58   2.0000      -0.434171       -11.8144
  59   2.0000      -0.424413       -11.5489
  60   2.0000      -0.415645       -11.3103
  61   2.0000      -0.414577       -11.2812
  62   2.0000      -0.404644       -11.0109
  63   2.0000      -0.355920        -9.6851
  64   2.0000      -0.334853        -9.1118
  65   2.0000      -0.331637        -9.0243
  66   2.0000      -0.282181        -7.6785
  67   0.0000       0.013967         0.3801
  68   0.0000       0.076751         2.0885
  69   0.0000       0.106951         2.9103
  70   0.0000       0.119505         3.2519
  71   0.0000       0.132605         3.6084

MULLIKEN ATOMIC CHARGES
-----------------------
   0 S :    0.116082
   1 C :   -0.113068
   2 C :   -0.076607
   3 C :   -0.004731
   4 C :   -0.134181
   5 H :    0.012207
   6 C :   -0.005107
   7 H :    0.066833
   8 H :    0.027400
   9 C :   -0.060694
  10 H :    0.041133
  11 H :    0.038585
  12 C :   -0.074040
  13 H :    0.042880
  14 H :    0.049574
  15 H :    0.030871
  16 S :    0.089028
  17 C :   -0.100392
  18 C :   -0.034743
  19 C :   -0.033993
  20 C :   -0.144836
  21 H :    0.008887
  22 C :    0.082646
  23 H :   -0.002555
  24 H :    0.012945
  25 C :   -0.050041
  26 H :    0.016776
  27 H :    0.026382
  28 C :   -0.024206
  29 H :    0.027564
  30 H :    0.016935
  31 H :    0.030134
  32 H :    0.043952
  33 H :    0.078378
Sum of atomic charges:    0.0000000

LOEWDIN ATOMIC CHARGES
----------------------
   0 S :    0.411109
   1 C :   -0.194283
   2 C :   -0.073337
   3 C :   -0.073987
   4 C :   -0.201343
   5 H :    0.028463
   6 C :   -0.036177
   7 H :    0.042938
   8 H :    0.029641
   9 C :   -0.037790
  10 H :    0.025697
  11 H :    0.028181
  12 C :   -0.079144
  13 H :    0.030661
  14 H :    0.037598
  15 H :    0.026232
  16 S :    0.384053
  17 C :   -0.197052
  18 C :   -0.069963
  19 C :   -0.050303
  20 C :   -0.177725
  21 H :    0.028259
  22 C :   -0.034783
  23 H :    0.026854
  24 H :    0.027192
  25 C :   -0.043392
  26 H :    0.021433
  27 H :    0.029073
  28 C :   -0.057314
  29 H :    0.024560
  30 H :    0.017007
  31 H :    0.028962
  32 H :    0.031957
  33 H :    0.046722

  Mayer bond orders larger than 0.100000
B(  0-S ,  1-C ) :   1.1303 B(  0-S ,  4-C ) :   1.1564 B(  1-C ,  2-C ) :   1.6110
B(  1-C ,  4-C ) :   0.1006 B(  1-C , 32-H ) :   0.9668 B(  2-C ,  3-C ) :   1.2741
B(  2-C ,  6-C ) :   0.9938 B(  3-C ,  4-C ) :   1.5331 B(  3-C ,  5-H ) :   0.9831
B(  4-C , 20-C ) :   1.0979 B(  6-C ,  7-H ) :   0.9461 B(  6-C ,  8-H ) :   0.9508
B(  6-C ,  9-C ) :   1.0383 B(  9-C , 10-H ) :   0.9545 B(  9-C , 11-H ) :   0.9582
B(  9-C , 12-C ) :   1.1024 B( 12-C , 13-H ) :   0.9726 B( 12-C , 14-H ) :   0.9699
B( 12-C , 15-H ) :   0.9702 B( 16-S , 17-C ) :   1.1421 B( 16-S , 20-C ) :   1.1383
B( 17-C , 18-C ) :   1.6165 B( 17-C , 20-C ) :   0.1073 B( 17-C , 33-H ) :   0.9556
B( 18-C , 19-C ) :   1.2626 B( 18-C , 21-H ) :   0.9895 B( 19-C , 20-C ) :   1.5356
B( 19-C , 22-C ) :   1.0460 B( 22-C , 23-H ) :   0.9274 B( 22-C , 24-H ) :   0.9262
B( 22-C , 25-C ) :   1.0605 B( 25-C , 26-H ) :   0.9448 B( 25-C , 27-H ) :   0.9528
B( 25-C , 28-C ) :   1.0843 B( 28-C , 29-H ) :   0.9723 B( 28-C , 30-H ) :   0.9754
B( 28-C , 31-H ) :   0.9744

Dispersion correction           -0.013752455
FINAL SINGLE POINT ENERGY     -1339.865193538488

DIPOLE MOMENT
-------------
                                X             Y             Z
Electronic contribution:     21.35833      21.35411       0.79561
Nuclear contribution   :    -21.86170     -21.79939      -0.66689
                        -----------------------------------------
Total Dipole Moment    :     -0.50337      -0.44528       0.12872
                        -----------------------------------------
Magnitude (a.u.)       :      0.68427
Magnitude (Debye)      :      1.73928

Rotational constants in cm-1:     0.018222     0.008023     0.006193
Rotational constants in MHz :   546.292095   240.535730   185.672763

                             ****ORCA TERMINATED NORMALLY****
TOTAL RUN TIME: 0 days 0 hours 0 minutes 21 seconds 167 msec
