                         Program Version 4.2.1 -  RELEASE  -
|  1> ! wB97X-D3 SP def2-SVP
|  2> %pal
|  3> nprocs 24
|  4> end
|  5>
|  6> * xyz 0 1
|  7> S 	 46.9719 	 -15.6224 	 -118.051
|  8> C 	 47.6712 	 -15.9048 	 -116.514
|  9> C 	 48.2251 	 -14.7708 	 -115.994
| 10> C 	 48.0092 	 -13.6366 	 -116.855
| 11> C 	 47.1306 	 -13.8196 	 -117.896
| 12> H 	 48.5408 	 -12.7152 	 -116.747
| 13> C 	 49.1181 	 -14.6799 	 -114.772
| 14> H 	 50.1957 	 -14.6894 	 -114.964
| 15> H 	 49.0756 	 -15.6658 	 -114.331
| 16> C 	 48.7077 	 -13.6231 	 -113.748
| 17> H 	 48.7186 	 -12.6153 	 -114.118
| 18> H 	 47.6347 	 -13.6812 	 -113.54
| 19> C 	 49.4949 	 -13.7805 	 -112.467
| 20> H 	 49.0795 	 -13.1043 	 -111.72
| 21> H 	 49.2815 	 -14.801 	 -112.042
| 22> H 	 50.5786 	 -13.5667 	 -112.514
| 23> S 	 46.815 	 -13.3856 	 -120.568
| 24> C 	 46.3052 	 -11.7764 	 -121.115
| 25> C 	 46.039 	 -10.9662 	 -120.082
| 26> C 	 46.1294 	 -11.5921 	 -118.763
| 27> C 	 46.7184 	 -12.8677 	 -118.915
| 28> H 	 45.8139 	 -9.93727 	 -120.286
| 29> C 	 45.9623 	 -10.8675 	 -117.384
| 30> H 	 45.8629 	 -11.7746 	 -116.761
| 31> H 	 45.0194 	 -10.2864 	 -117.295
| 32> C 	 47.1159 	 -9.99285 	 -117.01
| 33> H 	 47.2989 	 -9.20742 	 -117.785
| 34> H 	 48.0581 	 -10.5771 	 -116.9
| 35> C 	 46.9051 	 -9.25276 	 -115.68
| 36> H 	 45.9922 	 -8.62856 	 -115.773
| 37> H 	 47.853 	 -8.62026 	 -115.536
| 38> H 	 46.7391 	 -9.71507 	 -114.724
| 39> H 	 47.7413 	 -16.8993 	 -116.044
| 40> H 	 46.2912 	 -11.4756 	 -122.113
| 41> *
| 42>
| 43>                          ****END OF INPUT****

CARTESIAN COORDINATES (ANGSTROEM)
---------------------------------
  S     46.971900  -15.622400  -118.051000
  C     47.671200  -15.904800  -116.514000
  C     48.225100  -14.770800  -115.994000
  C     48.009200  -13.636600  -116.855000
  C     47.130600  -13.819600  -117.896000
  H     48.540800  -12.715200  -116.747000
  C     49.118100  -14.679900  -114.772000
  H     50.195700  -14.689400  -114.964000
  H     49.075600  -15.665800  -114.331000
  C     48.707700  -13.623100  -113.748000
  H     48.718600  -12.615300  -114.118000
  H     47.634700  -13.681200  -113.540000
  C     49.494900  -13.780500  -112.467000
  H     49.079500  -13.104300  -111.720000
  H     49.281500  -14.801000  -112.042000
  H     50.578600  -13.566700  -112.514000
  S     46.815000  -13.385600  -120.568000
  C     46.305200  -11.776400  -121.115000
  C     46.039000  -10.966200  -120.082000
  C     46.129400  -11.592100  -118.763000
  C     46.718400  -12.867700  -118.915000
  H     45.813900   -9.937270  -120.286000
  C     45.962300  -10.867500  -117.384000
  H     45.862900  -11.774600  -116.761000
  H     45.019400  -10.286400  -117.295000
  C     47.115900   -9.992850  -117.010000
  H     47.298900   -9.207420  -117.785000
  H     48.058100  -10.577100  -116.900000
  C     46.905100   -9.252760  -115.680000
  H     45.992200   -8.628560  -115.773000
  H     47.853000   -8.620260  -115.536000
  H     46.739100   -9.715070  -114.724000
  H     47.741300  -16.899300  -116.044000
  H     46.291200  -11.475600  -122.113000

 Total Charge           Charge          ....    0
 Multiplicity           Mult            ....    1
 Number of Electrons    NEL             ....  134
 Basis Dimension        Dim             ....  322

ORBITAL ENERGIES
----------------

  NO   OCC          E(Eh)            E(eV)
   0   2.0000     -88.964712     -2420.8529
   1   2.0000     -88.962590     -2420.7951
   2   2.0000     -10.333054      -281.1767
   3   2.0000     -10.330916      -281.1185
   4   2.0000     -10.315408      -280.6965
   5   2.0000     -10.311350      -280.5861
   6   2.0000     -10.311068      -280.5784
   7   2.0000     -10.298798      -280.2446
   8   2.0000     -10.297162      -280.2000
   9   2.0000     -10.294246      -280.1207
  10   2.0000     -10.293617      -280.1036
  11   2.0000     -10.292596      -280.0758
  12   2.0000     -10.291279      -280.0399
  13   2.0000     -10.285155      -279.8733
  14   2.0000     -10.284644      -279.8594
  15   2.0000     -10.283237      -279.8211
  16   2.0000      -8.079595      -219.8570
  17   2.0000      -8.077328      -219.7953
  18   2.0000      -6.038208      -164.3080
  19   2.0000      -6.035987      -164.2476
  20   2.0000      -6.034202      -164.1990
  21   2.0000      -6.032016      -164.1395
  22   2.0000      -6.030120      -164.0879
  23   2.0000      -6.027723      -164.0227
  24   2.0000      -1.005830       -27.3700
  25   2.0000      -0.984457       -26.7884
  26   2.0000      -0.913012       -24.8443
  27   2.0000      -0.910109       -24.7653
  28   2.0000      -0.876171       -23.8418
  29   2.0000      -0.849326       -23.1113
  30   2.0000      -0.842998       -22.9391
  31   2.0000      -0.821380       -22.3509
  32   2.0000      -0.779610       -21.2143
  33   2.0000      -0.768921       -20.9234
  34   2.0000      -0.713018       -19.4022
  35   2.0000      -0.698051       -18.9949
  36   2.0000      -0.695287       -18.9197
  37   2.0000      -0.661320       -17.9954
  38   2.0000      -0.642202       -17.4752
  39   2.0000      -0.624197       -16.9853
  40   2.0000      -0.595141       -16.1946
  41   2.0000      -0.571350       -15.5472
  42   2.0000      -0.568391       -15.4667
  43   2.0000      -0.555818       -15.1246
  44   2.0000      -0.531876       -14.4731
  45   2.0000      -0.525430       -14.2977
  46   2.0000      -0.519802       -14.1445
  47   2.0000      -0.511139       -13.9088
  48   2.0000      -0.503271       -13.6947
  49   2.0000      -0.499389       -13.5891
  50   2.0000      -0.497270       -13.5314
  51   2.0000      -0.484472       -13.1832
  52   2.0000      -0.468888       -12.7591
  53   2.0000      -0.463188       -12.6040
  54   2.0000      -0.458615       -12.4795
  55   2.0000      -0.447909       -12.1882
  56   2.0000      -0.445117       -12.1122
  57   2.0000      -0.439866       -11.9694
  58   2.0000      -0.434801       -11.8315
  59   2.0000      -0.419654       -11.4194
  60   2.0000      -0.416479       -11.3330
  61   2.0000      -0.415058       -11.2943
  62   2.0000      -0.411678       -11.2023
  63   2.0000      -0.357481        -9.7276
  64   2.0000      -0.331538        -9.0216
  65   2.0000      -0.323411        -8.8005
  66   2.0000      -0.290915        -7.9162
  67   0.0000       0.025042         0.6814
  68   0.0000       0.072687         1.9779
  69   0.0000       0.100490         2.7345
  70   0.0000       0.123739         3.3671
  71   0.0000       0.127824         3.4783

MULLIKEN ATOMIC CHARGES
-----------------------
   0 S :    0.089690
   1 C :   -0.117663
   2 C :   -0.086273
   3 C :    0.020561
   4 C :   -0.127491
   5 H :    0.007766
   6 C :    0.088566
   7 H :    0.036071
   8 H :   -0.009537
   9 C :   -0.070132
  10 H :    0.020238
  11 H :    0.024285
  12 C :   -0.059002
  13 H :    0.028221
  14 H :    0.035112
  15 H :    0.044416
  16 S :    0.096457
  17 C :   -0.059454
  18 C :   -0.020857
  19 C :   -0.040636
  20 C :   -0.160910
  21 H :    0.013742
  22 C :    0.051537
  23 H :    0.042866
  24 H :    0.030814
  25 C :   -0.065502
  26 H :    0.038093
  27 H :    0.029806
  28 C :   -0.078236
  29 H :    0.028100
  30 H :    0.044624
  31 H :    0.032476
  32 H :    0.059463
  33 H :    0.032791
Sum of atomic charges:   -0.0000000

LOEWDIN ATOMIC CHARGES
----------------------
   0 S :    0.383289
   1 C :   -0.198992
   2 C :   -0.072406
   3 C :   -0.053024
   4 C :   -0.176221
   5 H :    0.024969
   6 C :   -0.035903
   7 H :    0.035305
   8 H :    0.026796
   9 C :   -0.046528
  10 H :    0.018950
  11 H :    0.029316
  12 C :   -0.069216
  13 H :    0.026403
  14 H :    0.030724
  15 H :    0.028008
  16 S :    0.393112
  17 C :   -0.165851
  18 C :   -0.066273
  19 C :   -0.050371
  20 C :   -0.196596
  21 H :    0.029845
  22 C :   -0.037742
  23 H :    0.037225
  24 H :    0.032856
  25 C :   -0.045618
  26 H :    0.032355
  27 H :    0.024197
  28 C :   -0.076731
  29 H :    0.025162
  30 H :    0.036549
  31 H :    0.020482
  32 H :    0.037032
  33 H :    0.018897

  Mayer bond orders larger than 0.100000
B(  0-S ,  1-C ) :   1.1449 B(  0-S ,  4-C ) :   1.1150 B(  1-C ,  2-C ) :   1.6212
B(  1-C , 32-H ) :   0.9603 B(  2-C ,  3-C ) :   1.2312 B(  2-C ,  6-C ) :   1.0313
B(  3-C ,  4-C ) :   1.5767 B(  3-C ,  5-H ) :   0.9937 B(  4-C , 20-C ) :   1.0700
B(  6-C ,  7-H ) :   0.9364 B(  6-C ,  8-H ) :   0.9321 B(  6-C ,  9-C ) :   1.0506
B(  9-C , 10-H ) :   0.9528 B(  9-C , 11-H ) :   0.9515 B(  9-C , 12-C ) :   1.0930
B( 12-C , 13-H ) :   0.9718 B( 12-C , 14-H ) :   0.9733 B( 12-C , 15-H ) :   0.9738
B( 16-S , 17-C ) :   1.1172 B( 16-S , 20-C ) :   1.1435 B( 17-C , 18-C ) :   1.6692
B( 17-C , 33-H ) :   0.9747 B( 18-C , 19-C ) :   1.1912 B( 18-C , 21-H ) :   0.9889
B( 19-C , 20-C ) :   1.5944 B( 19-C , 22-C ) :   1.0402 B( 22-C , 23-H ) :   0.9273
B( 22-C , 24-H ) :   0.9363 B( 22-C , 25-C ) :   1.0740 B( 25-C , 26-H ) :   0.9504
B( 25-C , 27-H ) :   0.9488 B( 25-C , 28-C ) :   1.0699 B( 28-C , 29-H ) :   0.9727
B( 28-C , 30-H ) :   0.9748 B( 28-C , 31-H ) :   0.9789

Dispersion correction           -0.014282863
FINAL SINGLE POINT ENERGY     -1339.872889533367

DIPOLE MOMENT
-------------
                                X             Y             Z
Electronic contribution:     -7.70339     -16.41804     -28.78181
Nuclear contribution   :      7.99005      16.92190      29.28794
                        -----------------------------------------
Total Dipole Moment    :      0.28666       0.50386       0.50612
                        -----------------------------------------
Magnitude (a.u.)       :      0.76955
Magnitude (Debye)      :      1.95605

Rotational constants in cm-1:     0.017386     0.009635     0.006481
Rotational constants in MHz :   521.227240   288.838595   194.297675

                             ****ORCA TERMINATED NORMALLY****
TOTAL RUN TIME: 0 days 0 hours 0 minutes 21 seconds 901 msec
