                         Program Version 4.2.1 -  RELEASE  -
|  1> ! wB97X-D3 SP def2-SVP
|  2> %pal
|  3> nprocs 24
|  4> end
|  5>
|  6> * xyz 0 1
|  7> S 	 -110.943 	 43.4871 	 -11.5897
|  8> C 	 -109.665 	 44.7506 	 -11.6717
|  9> C 	 -108.427 	 44.1814 	 -11.7312
| 10> C 	 -108.479 	 42.7458 	 -11.4509
| 11> C 	 -109.74 	 42.2464 	 -11.3091
| 12> H 	 -107.665 	 42.0746 	 -11.3994
| 13> C 	 -107.141 	 44.9778 	 -11.8122
| 14> H 	 -107.146 	 45.6856 	 -12.6342
| 15> H 	 -106.331 	 44.3061 	 -12.1108
| 16> C 	 -106.661 	 45.538 	 -10.4148
| 17> H 	 -105.721 	 46.1582 	 -10.4819
| 18> H 	 -107.447 	 46.2143 	 -10.095
| 19> C 	 -106.339 	 44.3791 	 -9.50508
| 20> H 	 -107.29 	 43.902 	 -9.2652
| 21> H 	 -105.699 	 43.634 	 -10.0268
| 22> H 	 -105.966 	 44.699 	 -8.5594
| 23> S 	 -110.864 	 39.9585 	 -12.261
| 24> C 	 -111.067 	 38.6016 	 -11.2034
| 25> C 	 -110.1 	 38.6368 	 -10.1813
| 26> C 	 -109.504 	 39.939 	 -10.1018
| 27> C 	 -109.957 	 40.8308 	 -11.0344
| 28> H 	 -109.794 	 37.7994 	 -9.65339
| 29> C 	 -108.527 	 40.2741 	 -9.02185
| 30> H 	 -107.897 	 41.129 	 -9.42787
| 31> H 	 -108.001 	 39.3503 	 -8.78871
| 32> C 	 -109.311 	 40.6176 	 -7.73523
| 33> H 	 -108.663 	 40.8977 	 -6.87553
| 34> H 	 -109.934 	 39.7071 	 -7.4442
| 35> C 	 -110.332 	 41.6814 	 -7.9671
| 36> H 	 -111.231 	 41.3097 	 -8.43646
| 37> H 	 -109.891 	 42.4253 	 -8.62385
| 38> H 	 -110.591 	 42.2605 	 -7.08788
| 39> H 	 -109.635 	 45.8325 	 -11.9938
| 40> H 	 -111.668 	 37.7879 	 -11.5311
| 41> *
| 42>
| 43>                          ****END OF INPUT****

CARTESIAN COORDINATES (ANGSTROEM)
---------------------------------
  S    -110.943000   43.487100  -11.589700
  C    -109.665000   44.750600  -11.671700
  C    -108.427000   44.181400  -11.731200
  C    -108.479000   42.745800  -11.450900
  C    -109.740000   42.246400  -11.309100
  H    -107.665000   42.074600  -11.399400
  C    -107.141000   44.977800  -11.812200
  H    -107.146000   45.685600  -12.634200
  H    -106.331000   44.306100  -12.110800
  C    -106.661000   45.538000  -10.414800
  H    -105.721000   46.158200  -10.481900
  H    -107.447000   46.214300  -10.095000
  C    -106.339000   44.379100   -9.505080
  H    -107.290000   43.902000   -9.265200
  H    -105.699000   43.634000  -10.026800
  H    -105.966000   44.699000   -8.559400
  S    -110.864000   39.958500  -12.261000
  C    -111.067000   38.601600  -11.203400
  C    -110.100000   38.636800  -10.181300
  C    -109.504000   39.939000  -10.101800
  C    -109.957000   40.830800  -11.034400
  H    -109.794000   37.799400   -9.653390
  C    -108.527000   40.274100   -9.021850
  H    -107.897000   41.129000   -9.427870
  H    -108.001000   39.350300   -8.788710
  C    -109.311000   40.617600   -7.735230
  H    -108.663000   40.897700   -6.875530
  H    -109.934000   39.707100   -7.444200
  C    -110.332000   41.681400   -7.967100
  H    -111.231000   41.309700   -8.436460
  H    -109.891000   42.425300   -8.623850
  H    -110.591000   42.260500   -7.087880
  H    -109.635000   45.832500  -11.993800
  H    -111.668000   37.787900  -11.531100

 Total Charge           Charge          ....    0
 Multiplicity           Mult            ....    1
 Number of Electrons    NEL             ....  134
 Basis Dimension        Dim             ....  322

ORBITAL ENERGIES
----------------

  NO   OCC          E(Eh)            E(eV)
   0   2.0000     -88.971842     -2421.0469
   1   2.0000     -88.960255     -2420.7316
   2   2.0000     -10.329998      -281.0935
   3   2.0000     -10.322584      -280.8918
   4   2.0000     -10.320295      -280.8295
   5   2.0000     -10.319143      -280.7982
   6   2.0000     -10.303492      -280.3723
   7   2.0000     -10.300205      -280.2828
   8   2.0000     -10.295537      -280.1558
   9   2.0000     -10.294913      -280.1388
  10   2.0000     -10.293101      -280.0895
  11   2.0000     -10.293055      -280.0883
  12   2.0000     -10.292761      -280.0803
  13   2.0000     -10.286431      -279.9080
  14   2.0000     -10.276991      -279.6511
  15   2.0000     -10.260190      -279.1940
  16   2.0000      -8.085224      -220.0101
  17   2.0000      -8.075798      -219.7536
  18   2.0000      -6.044144      -164.4695
  19   2.0000      -6.039957      -164.3556
  20   2.0000      -6.035540      -164.2354
  21   2.0000      -6.034183      -164.1985
  22   2.0000      -6.030395      -164.0954
  23   2.0000      -6.026444      -163.9879
  24   2.0000      -1.009036       -27.4573
  25   2.0000      -0.984948       -26.8018
  26   2.0000      -0.914231       -24.8775
  27   2.0000      -0.913609       -24.8606
  28   2.0000      -0.871744       -23.7214
  29   2.0000      -0.848142       -23.0791
  30   2.0000      -0.842624       -22.9290
  31   2.0000      -0.814845       -22.1731
  32   2.0000      -0.782836       -21.3021
  33   2.0000      -0.773544       -21.0492
  34   2.0000      -0.704345       -19.1662
  35   2.0000      -0.698887       -19.0177
  36   2.0000      -0.690457       -18.7883
  37   2.0000      -0.667612       -18.1666
  38   2.0000      -0.636656       -17.3243
  39   2.0000      -0.613448       -16.6928
  40   2.0000      -0.592040       -16.1102
  41   2.0000      -0.577815       -15.7232
  42   2.0000      -0.560042       -15.2395
  43   2.0000      -0.555632       -15.1195
  44   2.0000      -0.551580       -15.0093
  45   2.0000      -0.539365       -14.6769
  46   2.0000      -0.515543       -14.0286
  47   2.0000      -0.504574       -13.7302
  48   2.0000      -0.503591       -13.7034
  49   2.0000      -0.500358       -13.6154
  50   2.0000      -0.490247       -13.3403
  51   2.0000      -0.472903       -12.8684
  52   2.0000      -0.466326       -12.6894
  53   2.0000      -0.464514       -12.6401
  54   2.0000      -0.461025       -12.5451
  55   2.0000      -0.447697       -12.1825
  56   2.0000      -0.444439       -12.0938
  57   2.0000      -0.436507       -11.8780
  58   2.0000      -0.426974       -11.6186
  59   2.0000      -0.426287       -11.5999
  60   2.0000      -0.416204       -11.3255
  61   2.0000      -0.414909       -11.2903
  62   2.0000      -0.409634       -11.1467
  63   2.0000      -0.341038        -9.2801
  64   2.0000      -0.332271        -9.0416
  65   2.0000      -0.324349        -8.8260
  66   2.0000      -0.299027        -8.1369
  67   0.0000       0.026139         0.7113
  68   0.0000       0.063686         1.7330
  69   0.0000       0.095586         2.6010
  70   0.0000       0.109068         2.9679
  71   0.0000       0.128101         3.4858

MULLIKEN ATOMIC CHARGES
-----------------------
   0 S :    0.126480
   1 C :   -0.118502
   2 C :   -0.105796
   3 C :    0.031744
   4 C :   -0.136299
   5 H :    0.004197
   6 C :    0.045650
   7 H :    0.029492
   8 H :    0.014395
   9 C :   -0.070608
  10 H :    0.038008
  11 H :    0.028981
  12 C :   -0.047192
  13 H :    0.043852
  14 H :    0.034503
  15 H :    0.029439
  16 S :    0.098611
  17 C :   -0.082777
  18 C :   -0.009747
  19 C :   -0.063378
  20 C :   -0.187210
  21 H :   -0.000197
  22 C :    0.083790
  23 H :    0.037010
  24 H :    0.023354
  25 C :   -0.097454
  26 H :    0.039216
  27 H :    0.032555
  28 C :   -0.036002
  29 H :    0.044200
  30 H :    0.023659
  31 H :    0.025201
  32 H :    0.067470
  33 H :    0.053352
Sum of atomic charges:   -0.0000000

LOEWDIN ATOMIC CHARGES
----------------------
   0 S :    0.392186
   1 C :   -0.198265
   2 C :   -0.063033
   3 C :   -0.055582
   4 C :   -0.198171
   5 H :    0.022469
   6 C :   -0.036759
   7 H :    0.027899
   8 H :    0.027931
   9 C :   -0.036451
  10 H :    0.027596
  11 H :    0.020680
  12 C :   -0.064962
  13 H :    0.027345
  14 H :    0.028502
  15 H :    0.022612
  16 S :    0.405596
  17 C :   -0.173280
  18 C :   -0.061892
  19 C :   -0.055952
  20 C :   -0.196023
  21 H :    0.020823
  22 C :   -0.034885
  23 H :    0.035936
  24 H :    0.032893
  25 C :   -0.045485
  26 H :    0.025425
  27 H :    0.029807
  28 C :   -0.069623
  29 H :    0.026336
  30 H :    0.022148
  31 H :    0.024983
  32 H :    0.049370
  33 H :    0.019827

  Mayer bond orders larger than 0.100000
B(  0-S ,  1-C ) :   1.1069 B(  0-S ,  4-C ) :   1.1201 B(  1-C ,  2-C ) :   1.6693
B(  1-C , 32-H ) :   0.9487 B(  2-C ,  3-C ) :   1.1913 B(  2-C ,  6-C ) :   1.0365
B(  3-C ,  4-C ) :   1.6081 B(  3-C ,  5-H ) :   0.9945 B(  4-C , 20-C ) :   1.0402
B(  6-C ,  7-H ) :   0.9410 B(  6-C ,  8-H ) :   0.9424 B(  6-C ,  9-C ) :   1.0512
B(  9-C , 10-H ) :   0.9578 B(  9-C , 11-H ) :   0.9584 B(  9-C , 12-C ) :   1.0773
B( 12-C , 13-H ) :   0.9695 B( 12-C , 14-H ) :   0.9722 B( 12-C , 15-H ) :   0.9678
B( 16-S , 17-C ) :   1.1779 B( 16-S , 20-C ) :   1.1415 B( 17-C , 18-C ) :   1.5627
B( 17-C , 20-C ) :   0.1053 B( 17-C , 33-H ) :   0.9756 B( 18-C , 19-C ) :   1.2388
B( 18-C , 21-H ) :   1.0031 B( 19-C , 20-C ) :   1.6003 B( 19-C , 22-C ) :   1.0473
B( 22-C , 23-H ) :   0.9324 B( 22-C , 24-H ) :   0.9244 B( 22-C , 25-C ) :   1.0727
B( 25-C , 26-H ) :   0.9591 B( 25-C , 27-H ) :   0.9555 B( 25-C , 28-C ) :   1.0793
B( 28-C , 29-H ) :   0.9668 B( 28-C , 30-H ) :   0.9728 B( 28-C , 31-H ) :   0.9678

Dispersion correction           -0.016988237
FINAL SINGLE POINT ENERGY     -1339.859734646111

DIPOLE MOMENT
-------------
                                X             Y             Z
Electronic contribution:    -17.03926      -8.07002     -17.18592
Nuclear contribution   :     17.65638       8.06482      17.40071
                        -----------------------------------------
Total Dipole Moment    :      0.61711      -0.00520       0.21479
                        -----------------------------------------
Magnitude (a.u.)       :      0.65344
Magnitude (Debye)      :      1.66092

Rotational constants in cm-1:     0.021198     0.009961     0.008134
Rotational constants in MHz :   635.514706   298.628484   243.846210

                             ****ORCA TERMINATED NORMALLY****
TOTAL RUN TIME: 0 days 0 hours 0 minutes 24 seconds 180 msec
