                         Program Version 4.2.1 -  RELEASE  -
|  1> ! wB97X-D3 SP def2-SVP
|  2> %pal
|  3> nprocs 24
|  4> end
|  5>
|  6> * xyz 0 1
|  7> S 	 -54.5534 	 -51.2983 	 -74.9775
|  8> C 	 -52.9897 	 -51.1726 	 -74.0833
|  9> C 	 -52.4275 	 -52.4411 	 -73.8486
| 10> C 	 -53.2095 	 -53.4704 	 -74.5126
| 11> C 	 -54.3137 	 -53.0046 	 -75.2187
| 12> H 	 -53.0085 	 -54.4826 	 -74.5412
| 13> C 	 -51.1109 	 -52.6628 	 -73.2721
| 14> H 	 -50.9612 	 -53.7081 	 -72.8729
| 15> H 	 -50.9707 	 -52.0807 	 -72.3944
| 16> C 	 -49.9257 	 -52.3333 	 -74.1807
| 17> H 	 -49.9142 	 -53.0953 	 -74.9686
| 18> H 	 -49.9336 	 -51.3384 	 -74.5205
| 19> C 	 -48.587 	 -52.531 	 -73.4136
| 20> H 	 -48.4697 	 -51.9469 	 -72.4998
| 21> H 	 -48.3581 	 -53.6478 	 -73.1235
| 22> H 	 -47.8163 	 -52.0652 	 -74.0275
| 23> S 	 -57.0446 	 -53.6387 	 -75.9369
| 24> C 	 -57.3329 	 -54.4066 	 -77.4156
| 25> C 	 -56.1303 	 -54.8622 	 -77.9749
| 26> C 	 -54.9664 	 -54.4234 	 -77.3192
| 27> C 	 -55.2569 	 -53.707 	 -76.1477
| 28> H 	 -56.1735 	 -55.2683 	 -78.9263
| 29> C 	 -53.5867 	 -54.7568 	 -77.834
| 30> H 	 -53.6858 	 -55.6962 	 -78.3173
| 31> H 	 -52.9083 	 -54.941 	 -77.0238
| 32> C 	 -53.0233 	 -53.6702 	 -78.7259
| 33> H 	 -51.9837 	 -53.9038 	 -79.0469
| 34> H 	 -52.9305 	 -52.7545 	 -78.1755
| 35> C 	 -53.7862 	 -53.2403 	 -79.9556
| 36> H 	 -54.6888 	 -52.8225 	 -79.6589
| 37> H 	 -53.9534 	 -54.1001 	 -80.5552
| 38> H 	 -53.2119 	 -52.574 	 -80.5645
| 39> H 	 -52.5251 	 -50.3047 	 -73.657
| 40> H 	 -58.2458 	 -54.4744 	 -77.9638
| 41> *
| 42>
| 43>                          ****END OF INPUT****

CARTESIAN COORDINATES (ANGSTROEM)
---------------------------------
  S    -54.553400  -51.298300  -74.977500
  C    -52.989700  -51.172600  -74.083300
  C    -52.427500  -52.441100  -73.848600
  C    -53.209500  -53.470400  -74.512600
  C    -54.313700  -53.004600  -75.218700
  H    -53.008500  -54.482600  -74.541200
  C    -51.110900  -52.662800  -73.272100
  H    -50.961200  -53.708100  -72.872900
  H    -50.970700  -52.080700  -72.394400
  C    -49.925700  -52.333300  -74.180700
  H    -49.914200  -53.095300  -74.968600
  H    -49.933600  -51.338400  -74.520500
  C    -48.587000  -52.531000  -73.413600
  H    -48.469700  -51.946900  -72.499800
  H    -48.358100  -53.647800  -73.123500
  H    -47.816300  -52.065200  -74.027500
  S    -57.044600  -53.638700  -75.936900
  C    -57.332900  -54.406600  -77.415600
  C    -56.130300  -54.862200  -77.974900
  C    -54.966400  -54.423400  -77.319200
  C    -55.256900  -53.707000  -76.147700
  H    -56.173500  -55.268300  -78.926300
  C    -53.586700  -54.756800  -77.834000
  H    -53.685800  -55.696200  -78.317300
  H    -52.908300  -54.941000  -77.023800
  C    -53.023300  -53.670200  -78.725900
  H    -51.983700  -53.903800  -79.046900
  H    -52.930500  -52.754500  -78.175500
  C    -53.786200  -53.240300  -79.955600
  H    -54.688800  -52.822500  -79.658900
  H    -53.953400  -54.100100  -80.555200
  H    -53.211900  -52.574000  -80.564500
  H    -52.525100  -50.304700  -73.657000
  H    -58.245800  -54.474400  -77.963800

 Total Charge           Charge          ....    0
 Multiplicity           Mult            ....    1
 Number of Electrons    NEL             ....  134
 Basis Dimension        Dim             ....  322

ORBITAL ENERGIES
----------------

  NO   OCC          E(Eh)            E(eV)
   0   2.0000     -88.968727     -2420.9621
   1   2.0000     -88.967809     -2420.9371
   2   2.0000     -10.333950      -281.2011
   3   2.0000     -10.332378      -281.1583
   4   2.0000     -10.318475      -280.7800
   5   2.0000     -10.314781      -280.6795
   6   2.0000     -10.304313      -280.3946
   7   2.0000     -10.302813      -280.3538
   8   2.0000     -10.293471      -280.0996
   9   2.0000     -10.288977      -279.9773
  10   2.0000     -10.288110      -279.9537
  11   2.0000     -10.288081      -279.9529
  12   2.0000     -10.285713      -279.8885
  13   2.0000     -10.285365      -279.8790
  14   2.0000     -10.277236      -279.6578
  15   2.0000     -10.260377      -279.1990
  16   2.0000      -8.083345      -219.9590
  17   2.0000      -8.081634      -219.9124
  18   2.0000      -6.041744      -164.4042
  19   2.0000      -6.040262      -164.3639
  20   2.0000      -6.037720      -164.2947
  21   2.0000      -6.036210      -164.2536
  22   2.0000      -6.034374      -164.2037
  23   2.0000      -6.032355      -164.1487
  24   2.0000      -1.001826       -27.2611
  25   2.0000      -0.981311       -26.7028
  26   2.0000      -0.918352       -24.9896
  27   2.0000      -0.914996       -24.8983
  28   2.0000      -0.863906       -23.5081
  29   2.0000      -0.854179       -23.2434
  30   2.0000      -0.842424       -22.9235
  31   2.0000      -0.814152       -22.1542
  32   2.0000      -0.791032       -21.5251
  33   2.0000      -0.772366       -21.0172
  34   2.0000      -0.706295       -19.2193
  35   2.0000      -0.703191       -19.1348
  36   2.0000      -0.688785       -18.7428
  37   2.0000      -0.660774       -17.9806
  38   2.0000      -0.645489       -17.5646
  39   2.0000      -0.621035       -16.8992
  40   2.0000      -0.597297       -16.2533
  41   2.0000      -0.581234       -15.8162
  42   2.0000      -0.565801       -15.3962
  43   2.0000      -0.555351       -15.1119
  44   2.0000      -0.549679       -14.9575
  45   2.0000      -0.523437       -14.2434
  46   2.0000      -0.518898       -14.1199
  47   2.0000      -0.508889       -13.8476
  48   2.0000      -0.506226       -13.7751
  49   2.0000      -0.503933       -13.7127
  50   2.0000      -0.486805       -13.2467
  51   2.0000      -0.477783       -13.0011
  52   2.0000      -0.476375       -12.9628
  53   2.0000      -0.465087       -12.6557
  54   2.0000      -0.457797       -12.4573
  55   2.0000      -0.447421       -12.1749
  56   2.0000      -0.443939       -12.0802
  57   2.0000      -0.436461       -11.8767
  58   2.0000      -0.430489       -11.7142
  59   2.0000      -0.429057       -11.6752
  60   2.0000      -0.423669       -11.5286
  61   2.0000      -0.417632       -11.3643
  62   2.0000      -0.410087       -11.1590
  63   2.0000      -0.337424        -9.1818
  64   2.0000      -0.333611        -9.0780
  65   2.0000      -0.328814        -8.9475
  66   2.0000      -0.294370        -8.0102
  67   0.0000       0.027155         0.7389
  68   0.0000       0.062904         1.7117
  69   0.0000       0.109231         2.9723
  70   0.0000       0.116850         3.1797
  71   0.0000       0.125450         3.4137

MULLIKEN ATOMIC CHARGES
-----------------------
   0 S :    0.111917
   1 C :   -0.111581
   2 C :   -0.060713
   3 C :    0.068374
   4 C :   -0.159238
   5 H :   -0.018531
   6 C :    0.036734
   7 H :    0.026711
   8 H :    0.010102
   9 C :   -0.032948
  10 H :    0.034076
  11 H :    0.023227
  12 C :   -0.093117
  13 H :    0.025568
  14 H :    0.051519
  15 H :    0.033738
  16 S :    0.122441
  17 C :   -0.088164
  18 C :   -0.023931
  19 C :   -0.056765
  20 C :   -0.177731
  21 H :   -0.006624
  22 C :    0.150853
  23 H :    0.011211
  24 H :    0.010019
  25 C :   -0.088990
  26 H :    0.023079
  27 H :    0.025601
  28 C :   -0.001679
  29 H :    0.028877
  30 H :    0.007083
  31 H :    0.025820
  32 H :    0.038672
  33 H :    0.054389
Sum of atomic charges:   -0.0000000

LOEWDIN ATOMIC CHARGES
----------------------
   0 S :    0.395236
   1 C :   -0.181440
   2 C :   -0.056607
   3 C :   -0.052956
   4 C :   -0.189756
   5 H :    0.017144
   6 C :   -0.044576
   7 H :    0.037506
   8 H :    0.025332
   9 C :   -0.025079
  10 H :    0.028441
  11 H :    0.018747
  12 C :   -0.077721
  13 H :    0.020253
  14 H :    0.036502
  15 H :    0.026899
  16 S :    0.417403
  17 C :   -0.198090
  18 C :   -0.071837
  19 C :   -0.048520
  20 C :   -0.199568
  21 H :    0.017815
  22 C :   -0.023213
  23 H :    0.026507
  24 H :    0.029964
  25 C :   -0.038260
  26 H :    0.023911
  27 H :    0.024073
  28 C :   -0.052220
  29 H :    0.016946
  30 H :    0.015920
  31 H :    0.026713
  32 H :    0.024357
  33 H :    0.030173

  Mayer bond orders larger than 0.100000
B(  0-S ,  1-C ) :   1.1277 B(  0-S ,  4-C ) :   1.1503 B(  1-C ,  2-C ) :   1.6096
B(  1-C , 32-H ) :   0.9699 B(  2-C ,  3-C ) :   1.2091 B(  2-C ,  6-C ) :   1.0559
B(  3-C ,  4-C ) :   1.5903 B(  3-C ,  5-H ) :   1.0073 B(  4-C , 20-C ) :   1.0182
B(  6-C ,  7-H ) :   0.9391 B(  6-C ,  8-H ) :   0.9280 B(  6-C ,  9-C ) :   1.0701
B(  9-C , 10-H ) :   0.9548 B(  9-C , 11-H ) :   0.9550 B(  9-C , 12-C ) :   1.0806
B( 12-C , 13-H ) :   0.9734 B( 12-C , 14-H ) :   0.9740 B( 12-C , 15-H ) :   0.9738
B( 16-S , 17-C ) :   1.1851 B( 16-S , 20-C ) :   1.1455 B( 17-C , 18-C ) :   1.5677
B( 17-C , 20-C ) :   0.1048 B( 17-C , 33-H ) :   0.9684 B( 18-C , 19-C ) :   1.2840
B( 18-C , 21-H ) :   0.9931 B( 19-C , 20-C ) :   1.5589 B( 19-C , 22-C ) :   1.0310
B( 22-C , 23-H ) :   0.9314 B( 22-C , 24-H ) :   0.9260 B( 22-C , 25-C ) :   1.0738
B( 25-C , 26-H ) :   0.9550 B( 25-C , 27-H ) :   0.9551 B( 25-C , 28-C ) :   1.0886
B( 28-C , 29-H ) :   0.9717 B( 28-C , 30-H ) :   0.9726 B( 28-C , 31-H ) :   0.9698

Dispersion correction           -0.014750160
FINAL SINGLE POINT ENERGY     -1339.868211593336

DIPOLE MOMENT
-------------
                                X             Y             Z
Electronic contribution:    -27.75098       2.94072       6.43285
Nuclear contribution   :     28.38739      -3.07174      -6.65996
                        -----------------------------------------
Total Dipole Moment    :      0.63641      -0.13101      -0.22711
                        -----------------------------------------
Magnitude (a.u.)       :      0.68830
Magnitude (Debye)      :      1.74953

Rotational constants in cm-1:     0.021429     0.008106     0.006709
Rotational constants in MHz :   642.436088   243.015560   201.137972

                             ****ORCA TERMINATED NORMALLY****
TOTAL RUN TIME: 0 days 0 hours 0 minutes 22 seconds 26 msec
