                         Program Version 4.2.1 -  RELEASE  -
|  1> ! wB97X-D3 SP def2-SVP
|  2> %pal
|  3> nprocs 24
|  4> end
|  5>
|  6> * xyz 0 1
|  7> S 	 -121.395 	 62.3474 	 -62.2506
|  8> C 	 -122.232 	 61.0319 	 -63.0853
|  9> C 	 -122.907 	 60.2504 	 -62.136
| 10> C 	 -122.829 	 60.7782 	 -60.7924
| 11> C 	 -121.955 	 61.8816 	 -60.6806
| 12> H 	 -123.375 	 60.2969 	 -60.0123
| 13> C 	 -123.792 	 59.0503 	 -62.5775
| 14> H 	 -123.444 	 58.136 	 -62.0472
| 15> H 	 -123.711 	 58.8819 	 -63.6058
| 16> C 	 -125.326 	 59.3085 	 -62.2496
| 17> H 	 -125.475 	 59.6081 	 -61.2096
| 18> H 	 -125.494 	 60.1565 	 -62.8302
| 19> C 	 -126.433 	 58.2856 	 -62.6677
| 20> H 	 -126.488 	 57.2899 	 -62.1695
| 21> H 	 -127.46 	 58.6781 	 -62.5306
| 22> H 	 -126.434 	 58.1892 	 -63.7715
| 23> S 	 -121.434 	 64.1649 	 -59.0855
| 24> C 	 -120.787 	 63.8286 	 -57.4526
| 25> C 	 -120.575 	 62.5054 	 -57.2336
| 26> C 	 -120.789 	 61.7121 	 -58.3987
| 27> C 	 -121.335 	 62.4287 	 -59.4791
| 28> H 	 -120.162 	 62.1578 	 -56.236
| 29> C 	 -120.571 	 60.2351 	 -58.3758
| 30> H 	 -121.531 	 59.7273 	 -58.3726
| 31> H 	 -120.157 	 59.9036 	 -57.4269
| 32> C 	 -119.648 	 59.6044 	 -59.5407
| 33> H 	 -120.071 	 59.6771 	 -60.523
| 34> H 	 -119.558 	 58.5364 	 -59.4906
| 35> C 	 -118.282 	 60.2934 	 -59.4867
| 36> H 	 -118.32 	 61.3935 	 -59.4636
| 37> H 	 -117.732 	 59.9563 	 -60.3518
| 38> H 	 -117.76 	 60.0093 	 -58.6046
| 39> H 	 -122.25 	 60.8088 	 -64.185
| 40> H 	 -120.429 	 64.5184 	 -56.6653
| 41> *
| 42>
| 43>                          ****END OF INPUT****

CARTESIAN COORDINATES (ANGSTROEM)
---------------------------------
  S    -121.395000   62.347400  -62.250600
  C    -122.232000   61.031900  -63.085300
  C    -122.907000   60.250400  -62.136000
  C    -122.829000   60.778200  -60.792400
  C    -121.955000   61.881600  -60.680600
  H    -123.375000   60.296900  -60.012300
  C    -123.792000   59.050300  -62.577500
  H    -123.444000   58.136000  -62.047200
  H    -123.711000   58.881900  -63.605800
  C    -125.326000   59.308500  -62.249600
  H    -125.475000   59.608100  -61.209600
  H    -125.494000   60.156500  -62.830200
  C    -126.433000   58.285600  -62.667700
  H    -126.488000   57.289900  -62.169500
  H    -127.460000   58.678100  -62.530600
  H    -126.434000   58.189200  -63.771500
  S    -121.434000   64.164900  -59.085500
  C    -120.787000   63.828600  -57.452600
  C    -120.575000   62.505400  -57.233600
  C    -120.789000   61.712100  -58.398700
  C    -121.335000   62.428700  -59.479100
  H    -120.162000   62.157800  -56.236000
  C    -120.571000   60.235100  -58.375800
  H    -121.531000   59.727300  -58.372600
  H    -120.157000   59.903600  -57.426900
  C    -119.648000   59.604400  -59.540700
  H    -120.071000   59.677100  -60.523000
  H    -119.558000   58.536400  -59.490600
  C    -118.282000   60.293400  -59.486700
  H    -118.320000   61.393500  -59.463600
  H    -117.732000   59.956300  -60.351800
  H    -117.760000   60.009300  -58.604600
  H    -122.250000   60.808800  -64.185000
  H    -120.429000   64.518400  -56.665300

 Total Charge           Charge          ....    0
 Multiplicity           Mult            ....    1
 Number of Electrons    NEL             ....  134
 Basis Dimension        Dim             ....  322

ORBITAL ENERGIES
----------------

  NO   OCC          E(Eh)            E(eV)
   0   2.0000     -88.969536     -2420.9842
   1   2.0000     -88.968162     -2420.9468
   2   2.0000     -10.334962      -281.2286
   3   2.0000     -10.330923      -281.1187
   4   2.0000     -10.323663      -280.9211
   5   2.0000     -10.321548      -280.8636
   6   2.0000     -10.308450      -280.5072
   7   2.0000     -10.306472      -280.4534
   8   2.0000     -10.300514      -280.2912
   9   2.0000     -10.298552      -280.2378
  10   2.0000     -10.297713      -280.2150
  11   2.0000     -10.290679      -280.0236
  12   2.0000     -10.288591      -279.9668
  13   2.0000     -10.288241      -279.9573
  14   2.0000     -10.280904      -279.7576
  15   2.0000     -10.265300      -279.3330
  16   2.0000      -8.082948      -219.9482
  17   2.0000      -8.082657      -219.9403
  18   2.0000      -6.041669      -164.4022
  19   2.0000      -6.041192      -164.3892
  20   2.0000      -6.037677      -164.2935
  21   2.0000      -6.036940      -164.2735
  22   2.0000      -6.033642      -164.1837
  23   2.0000      -6.033521      -164.1805
  24   2.0000      -1.002202       -27.2713
  25   2.0000      -0.979539       -26.6546
  26   2.0000      -0.903199       -24.5773
  27   2.0000      -0.898755       -24.4564
  28   2.0000      -0.866483       -23.5782
  29   2.0000      -0.846124       -23.0242
  30   2.0000      -0.841977       -22.9114
  31   2.0000      -0.814119       -22.1533
  32   2.0000      -0.782605       -21.2958
  33   2.0000      -0.767209       -20.8768
  34   2.0000      -0.714231       -19.4352
  35   2.0000      -0.700303       -19.0562
  36   2.0000      -0.688465       -18.7341
  37   2.0000      -0.654391       -17.8069
  38   2.0000      -0.636519       -17.3206
  39   2.0000      -0.623769       -16.9736
  40   2.0000      -0.587323       -15.9819
  41   2.0000      -0.564923       -15.3723
  42   2.0000      -0.561577       -15.2813
  43   2.0000      -0.547659       -14.9026
  44   2.0000      -0.537489       -14.6258
  45   2.0000      -0.513841       -13.9823
  46   2.0000      -0.510248       -13.8845
  47   2.0000      -0.506052       -13.7704
  48   2.0000      -0.505123       -13.7451
  49   2.0000      -0.499883       -13.6025
  50   2.0000      -0.485773       -13.2185
  51   2.0000      -0.479514       -13.0482
  52   2.0000      -0.471623       -12.8335
  53   2.0000      -0.468995       -12.7620
  54   2.0000      -0.459018       -12.4905
  55   2.0000      -0.453569       -12.3422
  56   2.0000      -0.436627       -11.8812
  57   2.0000      -0.435228       -11.8432
  58   2.0000      -0.430388       -11.7115
  59   2.0000      -0.419870       -11.4252
  60   2.0000      -0.418414       -11.3856
  61   2.0000      -0.416961       -11.3461
  62   2.0000      -0.412262       -11.2182
  63   2.0000      -0.344139        -9.3645
  64   2.0000      -0.331236        -9.0134
  65   2.0000      -0.328929        -8.9506
  66   2.0000      -0.294702        -8.0193
  67   0.0000       0.022492         0.6120
  68   0.0000       0.066037         1.7970
  69   0.0000       0.107008         2.9118
  70   0.0000       0.120255         3.2723
  71   0.0000       0.127773         3.4769

MULLIKEN ATOMIC CHARGES
-----------------------
   0 S :    0.114078
   1 C :   -0.134473
   2 C :   -0.140538
   3 C :    0.052920
   4 C :   -0.147551
   5 H :    0.010122
   6 C :    0.098416
   7 H :    0.036933
   8 H :    0.001160
   9 C :   -0.079030
  10 H :    0.034225
  11 H :    0.019051
  12 C :   -0.071858
  13 H :    0.045182
  14 H :    0.031943
  15 H :    0.028318
  16 S :    0.108288
  17 C :   -0.091173
  18 C :   -0.060707
  19 C :   -0.041060
  20 C :   -0.138863
  21 H :    0.044347
  22 C :    0.059441
  23 H :    0.028199
  24 H :    0.007808
  25 C :   -0.048306
  26 H :    0.030258
  27 H :    0.016246
  28 C :   -0.043038
  29 H :    0.047663
  30 H :    0.029498
  31 H :    0.014957
  32 H :    0.072222
  33 H :    0.065318
Sum of atomic charges:   -0.0000000

LOEWDIN ATOMIC CHARGES
----------------------
   0 S :    0.416434
   1 C :   -0.208103
   2 C :   -0.063076
   3 C :   -0.055305
   4 C :   -0.200094
   5 H :    0.026874
   6 C :   -0.020455
   7 H :    0.031240
   8 H :    0.017768
   9 C :   -0.038972
  10 H :    0.022637
  11 H :    0.019879
  12 C :   -0.079037
  13 H :    0.027825
  14 H :    0.031829
  15 H :    0.026683
  16 S :    0.380326
  17 C :   -0.178490
  18 C :   -0.080260
  19 C :   -0.049997
  20 C :   -0.199644
  21 H :    0.045227
  22 C :   -0.033093
  23 H :    0.030130
  24 H :    0.026598
  25 C :   -0.032423
  26 H :    0.021288
  27 H :    0.021506
  28 C :   -0.062461
  29 H :    0.029577
  30 H :    0.024652
  31 H :    0.016848
  32 H :    0.042949
  33 H :    0.041141

  Mayer bond orders larger than 0.100000
B(  0-S ,  1-C ) :   1.1426 B(  0-S ,  4-C ) :   1.1736 B(  1-C ,  2-C ) :   1.5874
B(  1-C ,  4-C ) :   0.1025 B(  1-C , 32-H ) :   0.9621 B(  2-C ,  3-C ) :   1.2678
B(  2-C ,  6-C ) :   1.0322 B(  3-C ,  4-C ) :   1.5251 B(  3-C ,  5-H ) :   1.0008
B(  4-C , 20-C ) :   1.0395 B(  6-C ,  7-H ) :   0.9400 B(  6-C ,  8-H ) :   0.9455
B(  6-C ,  9-C ) :   1.0444 B(  9-C , 10-H ) :   0.9628 B(  9-C , 11-H ) :   0.9551
B(  9-C , 12-C ) :   1.0812 B( 12-C , 13-H ) :   0.9773 B( 12-C , 14-H ) :   0.9726
B( 12-C , 15-H ) :   0.9741 B( 16-S , 17-C ) :   1.1392 B( 16-S , 20-C ) :   1.1187
B( 17-C , 18-C ) :   1.6461 B( 17-C , 33-H ) :   0.9554 B( 18-C , 19-C ) :   1.2431
B( 18-C , 21-H ) :   0.9737 B( 19-C , 20-C ) :   1.5756 B( 19-C , 22-C ) :   1.0497
B( 22-C , 23-H ) :   0.9290 B( 22-C , 24-H ) :   0.9387 B( 22-C , 25-C ) :   1.0578
B( 25-C , 26-H ) :   0.9580 B( 25-C , 27-H ) :   0.9559 B( 25-C , 28-C ) :   1.0737
B( 28-C , 29-H ) :   0.9749 B( 28-C , 30-H ) :   0.9741 B( 28-C , 31-H ) :   0.9770

Dispersion correction           -0.015390852
FINAL SINGLE POINT ENERGY     -1339.870369002999

DIPOLE MOMENT
-------------
                                X             Y             Z
Electronic contribution:      6.19099      24.39076       2.15099
Nuclear contribution   :     -6.34404     -25.06180      -1.99336
                        -----------------------------------------
Total Dipole Moment    :     -0.15304      -0.67104       0.15763
                        -----------------------------------------
Magnitude (a.u.)       :      0.70609
Magnitude (Debye)      :      1.79475

Rotational constants in cm-1:     0.020780     0.007832     0.007330
Rotational constants in MHz :   622.964559   234.787799   219.735914

                             ****ORCA TERMINATED NORMALLY****
TOTAL RUN TIME: 0 days 0 hours 0 minutes 22 seconds 149 msec
