                         Program Version 4.2.1 -  RELEASE  -
|  1> ! wB97X-D3 SP def2-SVP
|  2> %pal
|  3> nprocs 24
|  4> end
|  5>
|  6> * xyz 0 1
|  7> S 	 -77.418 	 -4.96985 	 4.69526
|  8> C 	 -75.7163 	 -5.00644 	 5.11954
|  9> C 	 -75.2304 	 -6.2781 	 5.20205
| 10> C 	 -76.2369 	 -7.22631 	 4.82969
| 11> C 	 -77.5251 	 -6.67245 	 4.56845
| 12> H 	 -76.0457 	 -8.25825 	 4.75088
| 13> C 	 -73.765 	 -6.7043 	 5.29736
| 14> H 	 -73.5142 	 -6.40734 	 4.30645
| 15> H 	 -73.6637 	 -7.75205 	 5.44366
| 16> C 	 -72.904 	 -5.81509 	 6.22608
| 17> H 	 -71.9518 	 -6.23471 	 6.02115
| 18> H 	 -72.8658 	 -4.80861 	 5.8757
| 19> C 	 -73.2725 	 -5.78925 	 7.71009
| 20> H 	 -74.313 	 -5.52401 	 7.80689
| 21> H 	 -73.0875 	 -6.74388 	 8.23169
| 22> H 	 -72.8028 	 -5.01403 	 8.31181
| 23> S 	 -80.0862 	 -6.43713 	 3.66571
| 24> C 	 -81.0726 	 -7.80334 	 3.25943
| 25> C 	 -80.4321 	 -8.9547 	 3.592
| 26> C 	 -79.1269 	 -8.70698 	 4.17028
| 27> C 	 -78.7478 	 -7.37652 	 4.13742
| 28> H 	 -80.9638 	 -9.8617 	 3.51994
| 29> C 	 -78.2934 	 -9.79122 	 4.88512
| 30> H 	 -78.9887 	 -10.5726 	 5.26145
| 31> H 	 -77.8268 	 -9.34365 	 5.79393
| 32> C 	 -77.2701 	 -10.4173 	 3.97989
| 33> H 	 -76.7216 	 -9.65968 	 3.49231
| 34> H 	 -77.7194 	 -11.0237 	 3.16571
| 35> C 	 -76.271 	 -11.3365 	 4.76254
| 36> H 	 -76.8612 	 -11.9126 	 5.56072
| 37> H 	 -75.4989 	 -10.7687 	 5.28155
| 38> H 	 -75.6743 	 -12.0764 	 4.1786
| 39> H 	 -75.1476 	 -4.17419 	 5.40949
| 40> H 	 -82.0806 	 -7.87427 	 2.78656
| 41> *
| 42>
| 43>                          ****END OF INPUT****

CARTESIAN COORDINATES (ANGSTROEM)
---------------------------------
  S    -77.418000   -4.969850    4.695260
  C    -75.716300   -5.006440    5.119540
  C    -75.230400   -6.278100    5.202050
  C    -76.236900   -7.226310    4.829690
  C    -77.525100   -6.672450    4.568450
  H    -76.045700   -8.258250    4.750880
  C    -73.765000   -6.704300    5.297360
  H    -73.514200   -6.407340    4.306450
  H    -73.663700   -7.752050    5.443660
  C    -72.904000   -5.815090    6.226080
  H    -71.951800   -6.234710    6.021150
  H    -72.865800   -4.808610    5.875700
  C    -73.272500   -5.789250    7.710090
  H    -74.313000   -5.524010    7.806890
  H    -73.087500   -6.743880    8.231690
  H    -72.802800   -5.014030    8.311810
  S    -80.086200   -6.437130    3.665710
  C    -81.072600   -7.803340    3.259430
  C    -80.432100   -8.954700    3.592000
  C    -79.126900   -8.706980    4.170280
  C    -78.747800   -7.376520    4.137420
  H    -80.963800   -9.861700    3.519940
  C    -78.293400   -9.791220    4.885120
  H    -78.988700  -10.572600    5.261450
  H    -77.826800   -9.343650    5.793930
  C    -77.270100  -10.417300    3.979890
  H    -76.721600   -9.659680    3.492310
  H    -77.719400  -11.023700    3.165710
  C    -76.271000  -11.336500    4.762540
  H    -76.861200  -11.912600    5.560720
  H    -75.498900  -10.768700    5.281550
  H    -75.674300  -12.076400    4.178600
  H    -75.147600   -4.174190    5.409490
  H    -82.080600   -7.874270    2.786560

 Total Charge           Charge          ....    0
 Multiplicity           Mult            ....    1
 Number of Electrons    NEL             ....  134
 Basis Dimension        Dim             ....  322

ORBITAL ENERGIES
----------------

  NO   OCC          E(Eh)            E(eV)
   0   2.0000     -88.968472     -2420.9552
   1   2.0000     -88.964455     -2420.8459
   2   2.0000     -10.335993      -281.2567
   3   2.0000     -10.327522      -281.0262
   4   2.0000     -10.317237      -280.7463
   5   2.0000     -10.307104      -280.4706
   6   2.0000     -10.304417      -280.3974
   7   2.0000     -10.299118      -280.2532
   8   2.0000     -10.295523      -280.1554
   9   2.0000     -10.292899      -280.0840
  10   2.0000     -10.291692      -280.0512
  11   2.0000     -10.290978      -280.0318
  12   2.0000     -10.288239      -279.9572
  13   2.0000     -10.285961      -279.8952
  14   2.0000     -10.285767      -279.8899
  15   2.0000     -10.276706      -279.6434
  16   2.0000      -8.083507      -219.9634
  17   2.0000      -8.080456      -219.8804
  18   2.0000      -6.042107      -164.4141
  19   2.0000      -6.039068      -164.3314
  20   2.0000      -6.037917      -164.3001
  21   2.0000      -6.034773      -164.2145
  22   2.0000      -6.034234      -164.1998
  23   2.0000      -6.031038      -164.1129
  24   2.0000      -1.014104       -27.5952
  25   2.0000      -0.990283       -26.9470
  26   2.0000      -0.917586       -24.9688
  27   2.0000      -0.909803       -24.7570
  28   2.0000      -0.872750       -23.7487
  29   2.0000      -0.849505       -23.1162
  30   2.0000      -0.843558       -22.9544
  31   2.0000      -0.815510       -22.1911
  32   2.0000      -0.790207       -21.5026
  33   2.0000      -0.771324       -20.9888
  34   2.0000      -0.712760       -19.3952
  35   2.0000      -0.706118       -19.2144
  36   2.0000      -0.694599       -18.9010
  37   2.0000      -0.666805       -18.1447
  38   2.0000      -0.638156       -17.3651
  39   2.0000      -0.615960       -16.7611
  40   2.0000      -0.593021       -16.1369
  41   2.0000      -0.585295       -15.9267
  42   2.0000      -0.563895       -15.3444
  43   2.0000      -0.559157       -15.2154
  44   2.0000      -0.540566       -14.7095
  45   2.0000      -0.522892       -14.2286
  46   2.0000      -0.519560       -14.1379
  47   2.0000      -0.512056       -13.9338
  48   2.0000      -0.509824       -13.8730
  49   2.0000      -0.497818       -13.5463
  50   2.0000      -0.492578       -13.4037
  51   2.0000      -0.482198       -13.1213
  52   2.0000      -0.472866       -12.8673
  53   2.0000      -0.471609       -12.8331
  54   2.0000      -0.461895       -12.5688
  55   2.0000      -0.451695       -12.2912
  56   2.0000      -0.443233       -12.0610
  57   2.0000      -0.440245       -11.9797
  58   2.0000      -0.436656       -11.8820
  59   2.0000      -0.428661       -11.6645
  60   2.0000      -0.420394       -11.4395
  61   2.0000      -0.412725       -11.2308
  62   2.0000      -0.411377       -11.1941
  63   2.0000      -0.364116        -9.9081
  64   2.0000      -0.332609        -9.0508
  65   2.0000      -0.325582        -8.8595
  66   2.0000      -0.284376        -7.7383
  67   0.0000       0.020723         0.5639
  68   0.0000       0.092867         2.5271
  69   0.0000       0.101454         2.7607
  70   0.0000       0.121233         3.2989
  71   0.0000       0.132446         3.6040

MULLIKEN ATOMIC CHARGES
-----------------------
   0 S :    0.109471
   1 C :   -0.117328
   2 C :   -0.083502
   3 C :    0.006776
   4 C :   -0.093642
   5 H :   -0.045174
   6 C :    0.076445
   7 H :    0.044709
   8 H :    0.025243
   9 C :   -0.047802
  10 H :    0.017685
  11 H :    0.018126
  12 C :   -0.044186
  13 H :    0.029943
  14 H :    0.035143
  15 H :    0.029955
  16 S :    0.095559
  17 C :   -0.093825
  18 C :   -0.014070
  19 C :   -0.089319
  20 C :   -0.094825
  21 H :    0.002766
  22 C :    0.027345
  23 H :    0.026902
  24 H :    0.045767
  25 C :   -0.054226
  26 H :    0.025983
  27 H :    0.031621
  28 C :   -0.075973
  29 H :    0.036955
  30 H :    0.028626
  31 H :    0.041072
  32 H :    0.026917
  33 H :    0.070866
Sum of atomic charges:   -0.0000000

LOEWDIN ATOMIC CHARGES
----------------------
   0 S :    0.422435
   1 C :   -0.200832
   2 C :   -0.056809
   3 C :   -0.068987
   4 C :   -0.195752
   5 H :    0.016273
   6 C :   -0.017162
   7 H :    0.043071
   8 H :    0.025284
   9 C :   -0.036085
  10 H :    0.022331
  11 H :    0.020799
  12 C :   -0.069618
  13 H :    0.025165
  14 H :    0.027936
  15 H :    0.027319
  16 S :    0.424971
  17 C :   -0.198444
  18 C :   -0.069645
  19 C :   -0.058529
  20 C :   -0.207675
  21 H :    0.026228
  22 C :   -0.034712
  23 H :    0.032341
  24 H :    0.035136
  25 C :   -0.044541
  26 H :    0.014286
  27 H :    0.030279
  28 C :   -0.075656
  29 H :    0.031248
  30 H :    0.018555
  31 H :    0.028650
  32 H :    0.016099
  33 H :    0.046041

  Mayer bond orders larger than 0.100000
B(  0-S ,  1-C ) :   1.1319 B(  0-S ,  4-C ) :   1.1694 B(  1-C ,  2-C ) :   1.5962
B(  1-C , 32-H ) :   0.9702 B(  2-C ,  3-C ) :   1.2759 B(  2-C ,  6-C ) :   0.9972
B(  3-C ,  4-C ) :   1.5135 B(  3-C ,  5-H ) :   0.9964 B(  4-C , 20-C ) :   1.0768
B(  6-C ,  7-H ) :   0.9355 B(  6-C ,  8-H ) :   0.9484 B(  6-C ,  9-C ) :   1.0790
B(  9-C , 10-H ) :   0.9540 B(  9-C , 11-H ) :   0.9505 B(  9-C , 12-C ) :   1.0781
B( 12-C , 13-H ) :   0.9710 B( 12-C , 14-H ) :   0.9762 B( 12-C , 15-H ) :   0.9745
B( 16-S , 17-C ) :   1.1524 B( 16-S , 20-C ) :   1.1402 B( 17-C , 18-C ) :   1.6238
B( 17-C , 33-H ) :   0.9596 B( 18-C , 19-C ) :   1.2482 B( 18-C , 21-H ) :   0.9975
B( 19-C , 20-C ) :   1.5792 B( 19-C , 22-C ) :   1.0342 B( 22-C , 23-H ) :   0.9308
B( 22-C , 24-H ) :   0.9438 B( 22-C , 25-C ) :   1.0604 B( 25-C , 26-H ) :   0.9572
B( 25-C , 27-H ) :   0.9492 B( 25-C , 28-C ) :   1.0654 B( 28-C , 29-H ) :   0.9728
B( 28-C , 30-H ) :   0.9761 B( 28-C , 31-H ) :   0.9762

Dispersion correction           -0.014443957
FINAL SINGLE POINT ENERGY     -1339.875752694540

DIPOLE MOMENT
-------------
                                X             Y             Z
Electronic contribution:    -23.16153      16.34836      -9.84402
Nuclear contribution   :     23.57341     -16.84663       9.92813
                        -----------------------------------------
Total Dipole Moment    :      0.41187      -0.49827       0.08411
                        -----------------------------------------
Magnitude (a.u.)       :      0.65191
Magnitude (Debye)      :      1.65703

Rotational constants in cm-1:     0.019906     0.008941     0.006459
Rotational constants in MHz :   596.770284   268.046681   193.645121

                             ****ORCA TERMINATED NORMALLY****
TOTAL RUN TIME: 0 days 0 hours 0 minutes 22 seconds 40 msec
