                         Program Version 4.2.1 -  RELEASE  -
|  1> ! wB97X-D3 SP def2-SVP
|  2> %pal
|  3> nprocs 24
|  4> end
|  5>
|  6> * xyz 0 1
|  7> S 	 -115.168 	 19.7475 	 -118.197
|  8> C 	 -116.249 	 20.8726 	 -117.382
|  9> C 	 -115.493 	 21.8277 	 -116.678
| 10> C 	 -114.152 	 21.9286 	 -117.217
| 11> C 	 -113.792 	 20.8239 	 -117.988
| 12> H 	 -113.539 	 22.767 	 -117.105
| 13> C 	 -116.071 	 22.9406 	 -115.821
| 14> H 	 -117.152 	 22.9331 	 -115.638
| 15> H 	 -115.979 	 23.8047 	 -116.425
| 16> C 	 -115.363 	 23.0584 	 -114.466
| 17> H 	 -114.302 	 23.2422 	 -114.642
| 18> H 	 -115.777 	 23.9564 	 -113.917
| 19> C 	 -115.515 	 21.7532 	 -113.581
| 20> H 	 -115 	 20.9281 	 -114.127
| 21> H 	 -114.938 	 21.8336 	 -112.629
| 22> H 	 -116.568 	 21.3946 	 -113.496
| 23> S 	 -112.393 	 20.5866 	 -120.326
| 24> C 	 -110.62 	 20.4302 	 -120.236
| 25> C 	 -110.164 	 20.5205 	 -118.975
| 26> C 	 -111.204 	 20.744 	 -117.981
| 27> C 	 -112.493 	 20.6058 	 -118.553
| 28> H 	 -109.067 	 20.4841 	 -118.838
| 29> C 	 -110.782 	 20.7758 	 -116.538
| 30> H 	 -110.59 	 19.7877 	 -116.169
| 31> H 	 -111.655 	 21.0242 	 -115.99
| 32> C 	 -109.578 	 21.6145 	 -116.066
| 33> H 	 -108.734 	 21.3624 	 -116.644
| 34> H 	 -109.292 	 21.1867 	 -115.075
| 35> C 	 -109.804 	 23.1047 	 -115.96
| 36> H 	 -110.709 	 23.2627 	 -115.352
| 37> H 	 -109.913 	 23.4189 	 -117.041
| 38> H 	 -108.895 	 23.4894 	 -115.498
| 39> H 	 -117.246 	 20.6538 	 -117.097
| 40> H 	 -110.003 	 19.9356 	 -121.026
| 41> *
| 42>
| 43>                          ****END OF INPUT****

CARTESIAN COORDINATES (ANGSTROEM)
---------------------------------
  S    -115.168000   19.747500  -118.197000
  C    -116.249000   20.872600  -117.382000
  C    -115.493000   21.827700  -116.678000
  C    -114.152000   21.928600  -117.217000
  C    -113.792000   20.823900  -117.988000
  H    -113.539000   22.767000  -117.105000
  C    -116.071000   22.940600  -115.821000
  H    -117.152000   22.933100  -115.638000
  H    -115.979000   23.804700  -116.425000
  C    -115.363000   23.058400  -114.466000
  H    -114.302000   23.242200  -114.642000
  H    -115.777000   23.956400  -113.917000
  C    -115.515000   21.753200  -113.581000
  H    -115.000000   20.928100  -114.127000
  H    -114.938000   21.833600  -112.629000
  H    -116.568000   21.394600  -113.496000
  S    -112.393000   20.586600  -120.326000
  C    -110.620000   20.430200  -120.236000
  C    -110.164000   20.520500  -118.975000
  C    -111.204000   20.744000  -117.981000
  C    -112.493000   20.605800  -118.553000
  H    -109.067000   20.484100  -118.838000
  C    -110.782000   20.775800  -116.538000
  H    -110.590000   19.787700  -116.169000
  H    -111.655000   21.024200  -115.990000
  C    -109.578000   21.614500  -116.066000
  H    -108.734000   21.362400  -116.644000
  H    -109.292000   21.186700  -115.075000
  C    -109.804000   23.104700  -115.960000
  H    -110.709000   23.262700  -115.352000
  H    -109.913000   23.418900  -117.041000
  H    -108.895000   23.489400  -115.498000
  H    -117.246000   20.653800  -117.097000
  H    -110.003000   19.935600  -121.026000

 Total Charge           Charge          ....    0
 Multiplicity           Mult            ....    1
 Number of Electrons    NEL             ....  134
 Basis Dimension        Dim             ....  322

ORBITAL ENERGIES
----------------

  NO   OCC          E(Eh)            E(eV)
   0   2.0000     -88.967325     -2420.9240
   1   2.0000     -88.961754     -2420.7724
   2   2.0000     -10.331157      -281.1251
   3   2.0000     -10.330243      -281.1002
   4   2.0000     -10.316907      -280.7373
   5   2.0000     -10.315420      -280.6969
   6   2.0000     -10.311667      -280.5947
   7   2.0000     -10.306974      -280.4670
   8   2.0000     -10.295840      -280.1641
   9   2.0000     -10.295060      -280.1428
  10   2.0000     -10.294623      -280.1309
  11   2.0000     -10.291120      -280.0356
  12   2.0000     -10.287211      -279.9292
  13   2.0000     -10.285111      -279.8721
  14   2.0000     -10.284133      -279.8455
  15   2.0000     -10.283376      -279.8249
  16   2.0000      -8.081623      -219.9121
  17   2.0000      -8.076010      -219.7594
  18   2.0000      -6.040224      -164.3629
  19   2.0000      -6.036168      -164.2525
  20   2.0000      -6.034723      -164.2132
  21   2.0000      -6.032322      -164.1478
  22   2.0000      -6.030692      -164.1035
  23   2.0000      -6.026467      -163.9885
  24   2.0000      -1.002271       -27.2732
  25   2.0000      -0.978670       -26.6310
  26   2.0000      -0.912569       -24.8323
  27   2.0000      -0.909351       -24.7447
  28   2.0000      -0.870903       -23.6985
  29   2.0000      -0.849314       -23.1110
  30   2.0000      -0.840027       -22.8583
  31   2.0000      -0.814402       -22.1610
  32   2.0000      -0.783232       -21.3128
  33   2.0000      -0.772912       -21.0320
  34   2.0000      -0.711750       -19.3677
  35   2.0000      -0.695107       -18.9148
  36   2.0000      -0.692832       -18.8529
  37   2.0000      -0.649898       -17.6846
  38   2.0000      -0.641486       -17.4557
  39   2.0000      -0.624589       -16.9959
  40   2.0000      -0.598615       -16.2891
  41   2.0000      -0.566068       -15.4035
  42   2.0000      -0.555432       -15.1141
  43   2.0000      -0.552812       -15.0428
  44   2.0000      -0.540262       -14.7013
  45   2.0000      -0.535672       -14.5764
  46   2.0000      -0.521458       -14.1896
  47   2.0000      -0.508587       -13.8394
  48   2.0000      -0.505046       -13.7430
  49   2.0000      -0.497080       -13.5262
  50   2.0000      -0.487630       -13.2691
  51   2.0000      -0.480220       -13.0674
  52   2.0000      -0.466788       -12.7020
  53   2.0000      -0.462791       -12.5932
  54   2.0000      -0.457370       -12.4457
  55   2.0000      -0.446069       -12.1382
  56   2.0000      -0.443633       -12.0719
  57   2.0000      -0.435565       -11.8523
  58   2.0000      -0.430736       -11.7209
  59   2.0000      -0.428363       -11.6563
  60   2.0000      -0.424085       -11.5399
  61   2.0000      -0.412802       -11.2329
  62   2.0000      -0.412362       -11.2209
  63   2.0000      -0.343787        -9.3549
  64   2.0000      -0.326912        -8.8957
  65   2.0000      -0.325395        -8.8544
  66   2.0000      -0.296982        -8.0813
  67   0.0000       0.020437         0.5561
  68   0.0000       0.067445         1.8353
  69   0.0000       0.108945         2.9645
  70   0.0000       0.111749         3.0408
  71   0.0000       0.120512         3.2793

MULLIKEN ATOMIC CHARGES
-----------------------
   0 S :    0.112021
   1 C :   -0.087722
   2 C :   -0.110996
   3 C :    0.040967
   4 C :   -0.151321
   5 H :    0.003403
   6 C :    0.056365
   7 H :    0.020254
   8 H :    0.031683
   9 C :   -0.095146
  10 H :    0.027213
  11 H :    0.041227
  12 C :   -0.085448
  13 H :    0.042963
  14 H :    0.048636
  15 H :    0.042061
  16 S :    0.088508
  17 C :   -0.100243
  18 C :   -0.057404
  19 C :   -0.022540
  20 C :   -0.146038
  21 H :    0.038382
  22 C :    0.079836
  23 H :    0.033020
  24 H :   -0.006810
  25 C :   -0.091714
  26 H :    0.010278
  27 H :    0.019735
  28 C :   -0.035613
  29 H :    0.038421
  30 H :    0.050924
  31 H :    0.042460
  32 H :    0.045066
  33 H :    0.077574
Sum of atomic charges:    0.0000000

LOEWDIN ATOMIC CHARGES
----------------------
   0 S :    0.399681
   1 C :   -0.191948
   2 C :   -0.053789
   3 C :   -0.047785
   4 C :   -0.197751
   5 H :    0.022300
   6 C :   -0.036765
   7 H :    0.029937
   8 H :    0.031069
   9 C :   -0.043130
  10 H :    0.019714
  11 H :    0.028396
  12 C :   -0.076914
  13 H :    0.030064
  14 H :    0.031617
  15 H :    0.028651
  16 S :    0.375955
  17 C :   -0.184122
  18 C :   -0.075857
  19 C :   -0.047448
  20 C :   -0.192536
  21 H :    0.038796
  22 C :   -0.036237
  23 H :    0.037287
  24 H :    0.021523
  25 C :   -0.041390
  26 H :    0.012322
  27 H :    0.026674
  28 C :   -0.064487
  29 H :    0.027196
  30 H :    0.036755
  31 H :    0.029224
  32 H :    0.020997
  33 H :    0.042000

  Mayer bond orders larger than 0.100000
B(  0-S ,  1-C ) :   1.1343 B(  0-S ,  4-C ) :   1.1450 B(  1-C ,  2-C ) :   1.6097
B(  1-C , 32-H ) :   0.9666 B(  2-C ,  3-C ) :   1.2113 B(  2-C ,  6-C ) :   1.0264
B(  3-C ,  4-C ) :   1.5732 B(  3-C ,  5-H ) :   0.9982 B(  4-C , 20-C ) :   1.0553
B(  6-C ,  7-H ) :   0.9482 B(  6-C ,  8-H ) :   0.9434 B(  6-C ,  9-C ) :   1.0649
B(  9-C , 10-H ) :   0.9579 B(  9-C , 11-H ) :   0.9584 B(  9-C , 12-C ) :   1.0648
B( 12-C , 13-H ) :   0.9711 B( 12-C , 14-H ) :   0.9750 B( 12-C , 15-H ) :   0.9762
B( 16-S , 17-C ) :   1.1266 B( 16-S , 20-C ) :   1.1324 B( 17-C , 18-C ) :   1.6836
B( 17-C , 33-H ) :   0.9499 B( 18-C , 19-C ) :   1.1894 B( 18-C , 21-H ) :   0.9785
B( 19-C , 20-C ) :   1.5894 B( 19-C , 22-C ) :   1.0513 B( 22-C , 23-H ) :   0.9318
B( 22-C , 24-H ) :   0.9257 B( 22-C , 25-C ) :   1.0750 B( 25-C , 26-H ) :   0.9523
B( 25-C , 27-H ) :   0.9501 B( 25-C , 28-C ) :   1.0725 B( 28-C , 29-H ) :   0.9740
B( 28-C , 30-H ) :   0.9762 B( 28-C , 31-H ) :   0.9720

Dispersion correction           -0.014822639
FINAL SINGLE POINT ENERGY     -1339.862372020217

DIPOLE MOMENT
-------------
                                X             Y             Z
Electronic contribution:     -6.52252     -12.94232     -25.60164
Nuclear contribution   :      6.86700      13.18908      26.21725
                        -----------------------------------------
Total Dipole Moment    :      0.34448       0.24676       0.61561
                        -----------------------------------------
Magnitude (a.u.)       :      0.74735
Magnitude (Debye)      :      1.89962

Rotational constants in cm-1:     0.017290     0.009958     0.006958
Rotational constants in MHz :   518.337199   298.522104   208.582118

                             ****ORCA TERMINATED NORMALLY****
TOTAL RUN TIME: 0 days 0 hours 0 minutes 22 seconds 364 msec
