                         Program Version 4.2.1 -  RELEASE  -
|  1> ! wB97X-D3 SP def2-SVP
|  2> %pal
|  3> nprocs 24
|  4> end
|  5>
|  6> * xyz 0 1
|  7> S 	 -46.3694 	 5.91215 	 -18.3377
|  8> C 	 -47.5048 	 4.8242 	 -17.5812
|  9> C 	 -48.785 	 5.36085 	 -17.5593
| 10> C 	 -48.6895 	 6.80915 	 -17.9421
| 11> C 	 -47.5177 	 7.28095 	 -18.4489
| 12> H 	 -49.4736 	 7.49634 	 -17.8734
| 13> C 	 -50.1011 	 4.87025 	 -16.9655
| 14> H 	 -50.7389 	 4.54733 	 -17.8055
| 15> H 	 -50.5022 	 5.85268 	 -16.5638
| 16> C 	 -49.9026 	 3.71662 	 -15.9676
| 17> H 	 -49.0931 	 3.97578 	 -15.2106
| 18> H 	 -50.8513 	 3.75978 	 -15.3509
| 19> C 	 -49.6661 	 2.31847 	 -16.5686
| 20> H 	 -48.7137 	 2.25591 	 -17.1153
| 21> H 	 -49.7697 	 1.48151 	 -15.8422
| 22> H 	 -50.3888 	 2.17044 	 -17.3196
| 23> S 	 -45.4541 	 9.14185 	 -18.4222
| 24> C 	 -45.7443 	 10.8216 	 -18.9577
| 25> C 	 -47.0674 	 11.0078 	 -19.2348
| 26> C 	 -47.8651 	 9.79215 	 -19.1862
| 27> C 	 -47.1328 	 8.67002 	 -18.7554
| 28> H 	 -47.4478 	 11.8952 	 -19.4399
| 29> C 	 -49.3425 	 9.80292 	 -19.4533
| 30> H 	 -49.7382 	 10.7987 	 -19.1911
| 31> H 	 -49.7797 	 9.15007 	 -18.7215
| 32> C 	 -49.7184 	 9.2145 	 -20.7798
| 33> H 	 -49.0784 	 8.30328 	 -21.0144
| 34> H 	 -49.4891 	 9.94638 	 -21.5171
| 35> C 	 -51.1145 	 8.74103 	 -20.7255
| 36> H 	 -51.2416 	 7.98368 	 -20.0277
| 37> H 	 -51.17 	 8.41306 	 -21.7555
| 38> H 	 -51.8773 	 9.46155 	 -20.5223
| 39> H 	 -47.1447 	 3.88667 	 -17.1782
| 40> H 	 -45.1216 	 11.6729 	 -18.7319
| 41> *
| 42>
| 43>                          ****END OF INPUT****

CARTESIAN COORDINATES (ANGSTROEM)
---------------------------------
  S    -46.369400    5.912150  -18.337700
  C    -47.504800    4.824200  -17.581200
  C    -48.785000    5.360850  -17.559300
  C    -48.689500    6.809150  -17.942100
  C    -47.517700    7.280950  -18.448900
  H    -49.473600    7.496340  -17.873400
  C    -50.101100    4.870250  -16.965500
  H    -50.738900    4.547330  -17.805500
  H    -50.502200    5.852680  -16.563800
  C    -49.902600    3.716620  -15.967600
  H    -49.093100    3.975780  -15.210600
  H    -50.851300    3.759780  -15.350900
  C    -49.666100    2.318470  -16.568600
  H    -48.713700    2.255910  -17.115300
  H    -49.769700    1.481510  -15.842200
  H    -50.388800    2.170440  -17.319600
  S    -45.454100    9.141850  -18.422200
  C    -45.744300   10.821600  -18.957700
  C    -47.067400   11.007800  -19.234800
  C    -47.865100    9.792150  -19.186200
  C    -47.132800    8.670020  -18.755400
  H    -47.447800   11.895200  -19.439900
  C    -49.342500    9.802920  -19.453300
  H    -49.738200   10.798700  -19.191100
  H    -49.779700    9.150070  -18.721500
  C    -49.718400    9.214500  -20.779800
  H    -49.078400    8.303280  -21.014400
  H    -49.489100    9.946380  -21.517100
  C    -51.114500    8.741030  -20.725500
  H    -51.241600    7.983680  -20.027700
  H    -51.170000    8.413060  -21.755500
  H    -51.877300    9.461550  -20.522300
  H    -47.144700    3.886670  -17.178200
  H    -45.121600   11.672900  -18.731900

 Total Charge           Charge          ....    0
 Multiplicity           Mult            ....    1
 Number of Electrons    NEL             ....  134
 Basis Dimension        Dim             ....  322

ORBITAL ENERGIES
----------------

  NO   OCC          E(Eh)            E(eV)
   0   2.0000     -88.964826     -2420.8560
   1   2.0000     -88.959746     -2420.7177
   2   2.0000     -10.335122      -281.2330
   3   2.0000     -10.334217      -281.2083
   4   2.0000     -10.319248      -280.8010
   5   2.0000     -10.317903      -280.7644
   6   2.0000     -10.310309      -280.5578
   7   2.0000     -10.305606      -280.4298
   8   2.0000     -10.305236      -280.4197
   9   2.0000     -10.300608      -280.2938
  10   2.0000     -10.292764      -280.0803
  11   2.0000     -10.286993      -279.9233
  12   2.0000     -10.285284      -279.8768
  13   2.0000     -10.284772      -279.8629
  14   2.0000     -10.280792      -279.7546
  15   2.0000     -10.265607      -279.3414
  16   2.0000      -8.078516      -219.8276
  17   2.0000      -8.074313      -219.7132
  18   2.0000      -6.037294      -164.2831
  19   2.0000      -6.033160      -164.1706
  20   2.0000      -6.033119      -164.1695
  21   2.0000      -6.029090      -164.0599
  22   2.0000      -6.028769      -164.0512
  23   2.0000      -6.024789      -163.9428
  24   2.0000      -0.999401       -27.1951
  25   2.0000      -0.977704       -26.6047
  26   2.0000      -0.923621       -25.1330
  27   2.0000      -0.911093       -24.7921
  28   2.0000      -0.870612       -23.6906
  29   2.0000      -0.855360       -23.2755
  30   2.0000      -0.843331       -22.9482
  31   2.0000      -0.820048       -22.3146
  32   2.0000      -0.782478       -21.2923
  33   2.0000      -0.773194       -21.0397
  34   2.0000      -0.707515       -19.2525
  35   2.0000      -0.704852       -19.1800
  36   2.0000      -0.691778       -18.8242
  37   2.0000      -0.671596       -18.2751
  38   2.0000      -0.646497       -17.5921
  39   2.0000      -0.615332       -16.7440
  40   2.0000      -0.595630       -16.2079
  41   2.0000      -0.578411       -15.7394
  42   2.0000      -0.572600       -15.5812
  43   2.0000      -0.550094       -14.9688
  44   2.0000      -0.541538       -14.7360
  45   2.0000      -0.535287       -14.5659
  46   2.0000      -0.517192       -14.0735
  47   2.0000      -0.512607       -13.9488
  48   2.0000      -0.507511       -13.8101
  49   2.0000      -0.500295       -13.6137
  50   2.0000      -0.493059       -13.4168
  51   2.0000      -0.487309       -13.2603
  52   2.0000      -0.482195       -13.1212
  53   2.0000      -0.468671       -12.7532
  54   2.0000      -0.459211       -12.4958
  55   2.0000      -0.448287       -12.1985
  56   2.0000      -0.442381       -12.0378
  57   2.0000      -0.435199       -11.8424
  58   2.0000      -0.434803       -11.8316
  59   2.0000      -0.426068       -11.5939
  60   2.0000      -0.418630       -11.3915
  61   2.0000      -0.410303       -11.1649
  62   2.0000      -0.403231       -10.9725
  63   2.0000      -0.360005        -9.7962
  64   2.0000      -0.329114        -8.9556
  65   2.0000      -0.319671        -8.6987
  66   2.0000      -0.288657        -7.8548
  67   0.0000       0.020763         0.5650
  68   0.0000       0.082603         2.2477
  69   0.0000       0.099576         2.7096
  70   0.0000       0.113107         3.0778
  71   0.0000       0.130238         3.5440

MULLIKEN ATOMIC CHARGES
-----------------------
   0 S :    0.082295
   1 C :   -0.151086
   2 C :   -0.059761
   3 C :   -0.023346
   4 C :   -0.088070
   5 H :   -0.019581
   6 C :    0.045044
   7 H :    0.049735
   8 H :    0.050860
   9 C :   -0.118346
  10 H :    0.046076
  11 H :    0.038033
  12 C :   -0.028484
  13 H :    0.031429
  14 H :    0.050788
  15 H :    0.015596
  16 S :    0.087540
  17 C :   -0.070200
  18 C :    0.026244
  19 C :   -0.081901
  20 C :   -0.128497
  21 H :   -0.044882
  22 C :    0.090064
  23 H :    0.023642
  24 H :   -0.015103
  25 C :   -0.086738
  26 H :    0.051593
  27 H :    0.021504
  28 C :    0.016108
  29 H :    0.012624
  30 H :    0.030503
  31 H :    0.021154
  32 H :    0.062194
  33 H :    0.062968
Sum of atomic charges:    0.0000000

LOEWDIN ATOMIC CHARGES
----------------------
   0 S :    0.374455
   1 C :   -0.195030
   2 C :   -0.060103
   3 C :   -0.065662
   4 C :   -0.178925
   5 H :    0.010942
   6 C :   -0.038192
   7 H :    0.037961
   8 H :    0.043956
   9 C :   -0.053569
  10 H :    0.030795
  11 H :    0.031846
  12 C :   -0.064645
  13 H :    0.026335
  14 H :    0.035473
  15 H :    0.019230
  16 S :    0.381157
  17 C :   -0.172764
  18 C :   -0.049664
  19 C :   -0.049117
  20 C :   -0.184836
  21 H :    0.005008
  22 C :   -0.036584
  23 H :    0.032713
  24 H :    0.020660
  25 C :   -0.037280
  26 H :    0.040405
  27 H :    0.019804
  28 C :   -0.054478
  29 H :    0.015171
  30 H :    0.033764
  31 H :    0.020707
  32 H :    0.027193
  33 H :    0.033275

  Mayer bond orders larger than 0.100000
B(  0-S ,  1-C ) :   1.1371 B(  0-S ,  4-C ) :   1.1064 B(  1-C ,  2-C ) :   1.6218
B(  1-C , 32-H ) :   0.9649 B(  2-C ,  3-C ) :   1.2050 B(  2-C ,  6-C ) :   1.0035
B(  3-C ,  4-C ) :   1.6376 B(  3-C ,  5-H ) :   0.9860 B(  4-C , 20-C ) :   1.0637
B(  6-C ,  7-H ) :   0.9282 B(  6-C ,  8-H ) :   0.9477 B(  6-C ,  9-C ) :   1.0720
B(  9-C , 10-H ) :   0.9592 B(  9-C , 11-H ) :   0.9548 B(  9-C , 12-C ) :   1.0605
B( 12-C , 13-H ) :   0.9759 B( 12-C , 14-H ) :   0.9733 B( 12-C , 15-H ) :   0.9709
B( 16-S , 17-C ) :   1.1362 B( 16-S , 20-C ) :   1.1276 B( 17-C , 18-C ) :   1.6202
B( 17-C , 33-H ) :   0.9618 B( 18-C , 19-C ) :   1.2428 B( 18-C , 21-H ) :   1.0073
B( 19-C , 20-C ) :   1.5864 B( 19-C , 22-C ) :   1.0428 B( 22-C , 23-H ) :   0.9209
B( 22-C , 24-H ) :   0.9371 B( 22-C , 25-C ) :   1.0537 B( 25-C , 26-H ) :   0.9570
B( 25-C , 27-H ) :   0.9522 B( 25-C , 28-C ) :   1.0769 B( 28-C , 29-H ) :   0.9717
B( 28-C , 30-H ) :   0.9717 B( 28-C , 31-H ) :   0.9699

Dispersion correction           -0.014340573
FINAL SINGLE POINT ENERGY     -1339.849781016734

DIPOLE MOMENT
-------------
                                X             Y             Z
Electronic contribution:     25.72490       9.22066      -0.15803
Nuclear contribution   :    -26.58055      -9.09018       0.35357
                        -----------------------------------------
Total Dipole Moment    :     -0.85565       0.13048       0.19554
                        -----------------------------------------
Magnitude (a.u.)       :      0.88736
Magnitude (Debye)      :      2.25548

Rotational constants in cm-1:     0.020798     0.008257     0.006357
Rotational constants in MHz :   623.518031   247.544885   190.580285

                             ****ORCA TERMINATED NORMALLY****
TOTAL RUN TIME: 0 days 0 hours 0 minutes 21 seconds 860 msec
