                         Program Version 4.2.1 -  RELEASE  -
|  1> ! wB97X-D3 SP def2-SVP
|  2> %pal
|  3> nprocs 24
|  4> end
|  5>
|  6> * xyz 0 1
|  7> S 	 -80.1642 	 -8.25226 	 -58.6336
|  8> C 	 -80.2679 	 -8.44504 	 -56.9065
|  9> C 	 -81.3286 	 -7.79866 	 -56.3345
| 10> C 	 -81.9267 	 -6.94781 	 -57.3307
| 11> C 	 -81.5324 	 -7.13103 	 -58.6189
| 12> H 	 -82.7372 	 -6.25968 	 -57.2
| 13> C 	 -81.7754 	 -7.74784 	 -54.8443
| 14> H 	 -82.7123 	 -7.11089 	 -54.6615
| 15> H 	 -80.9229 	 -7.22532 	 -54.4006
| 16> C 	 -82.0149 	 -8.98016 	 -54.0843
| 17> H 	 -82.8316 	 -9.56938 	 -54.4844
| 18> H 	 -81.1654 	 -9.71695 	 -54.0744
| 19> C 	 -82.3264 	 -8.67603 	 -52.6133
| 20> H 	 -81.5055 	 -8.38267 	 -52.0214
| 21> H 	 -83.0496 	 -7.92946 	 -52.4657
| 22> H 	 -82.8177 	 -9.63229 	 -52.2606
| 23> S 	 -80.8403 	 -5.84141 	 -61.0297
| 24> C 	 -82.0976 	 -5.10986 	 -62.0353
| 25> C 	 -83.3638 	 -5.45557 	 -61.5885
| 26> C 	 -83.3451 	 -6.20837 	 -60.3423
| 27> C 	 -82.0403 	 -6.51143 	 -59.8593
| 28> H 	 -84.2206 	 -5.23368 	 -62.1766
| 29> C 	 -84.6168 	 -6.48898 	 -59.5518
| 30> H 	 -84.2474 	 -6.20543 	 -58.4857
| 31> H 	 -84.8093 	 -7.58762 	 -59.471
| 32> C 	 -85.8849 	 -5.78141 	 -59.9384
| 33> H 	 -86.0756 	 -6.02745 	 -61.001
| 34> H 	 -85.7362 	 -4.72569 	 -59.8619
| 35> C 	 -87.0783 	 -6.19212 	 -59.1168
| 36> H 	 -87.9172 	 -6.35977 	 -59.7251
| 37> H 	 -87.2761 	 -5.36271 	 -58.4842
| 38> H 	 -86.8853 	 -7.09811 	 -58.5673
| 39> H 	 -79.699 	 -9.10078 	 -56.2717
| 40> H 	 -81.9428 	 -4.54705 	 -62.9302
| 41> *
| 42>
| 43>                          ****END OF INPUT****

CARTESIAN COORDINATES (ANGSTROEM)
---------------------------------
  S    -80.164200   -8.252260  -58.633600
  C    -80.267900   -8.445040  -56.906500
  C    -81.328600   -7.798660  -56.334500
  C    -81.926700   -6.947810  -57.330700
  C    -81.532400   -7.131030  -58.618900
  H    -82.737200   -6.259680  -57.200000
  C    -81.775400   -7.747840  -54.844300
  H    -82.712300   -7.110890  -54.661500
  H    -80.922900   -7.225320  -54.400600
  C    -82.014900   -8.980160  -54.084300
  H    -82.831600   -9.569380  -54.484400
  H    -81.165400   -9.716950  -54.074400
  C    -82.326400   -8.676030  -52.613300
  H    -81.505500   -8.382670  -52.021400
  H    -83.049600   -7.929460  -52.465700
  H    -82.817700   -9.632290  -52.260600
  S    -80.840300   -5.841410  -61.029700
  C    -82.097600   -5.109860  -62.035300
  C    -83.363800   -5.455570  -61.588500
  C    -83.345100   -6.208370  -60.342300
  C    -82.040300   -6.511430  -59.859300
  H    -84.220600   -5.233680  -62.176600
  C    -84.616800   -6.488980  -59.551800
  H    -84.247400   -6.205430  -58.485700
  H    -84.809300   -7.587620  -59.471000
  C    -85.884900   -5.781410  -59.938400
  H    -86.075600   -6.027450  -61.001000
  H    -85.736200   -4.725690  -59.861900
  C    -87.078300   -6.192120  -59.116800
  H    -87.917200   -6.359770  -59.725100
  H    -87.276100   -5.362710  -58.484200
  H    -86.885300   -7.098110  -58.567300
  H    -79.699000   -9.100780  -56.271700
  H    -81.942800   -4.547050  -62.930200

 Total Charge           Charge          ....    0
 Multiplicity           Mult            ....    1
 Number of Electrons    NEL             ....  134
 Basis Dimension        Dim             ....  322

ORBITAL ENERGIES
----------------

  NO   OCC          E(Eh)            E(eV)
   0   2.0000     -88.965632     -2420.8779
   1   2.0000     -88.965171     -2420.8654
   2   2.0000     -10.335350      -281.2392
   3   2.0000     -10.330318      -281.1023
   4   2.0000     -10.320266      -280.8287
   5   2.0000     -10.312694      -280.6227
   6   2.0000     -10.311353      -280.5862
   7   2.0000     -10.303844      -280.3819
   8   2.0000     -10.300823      -280.2997
   9   2.0000     -10.298578      -280.2386
  10   2.0000     -10.295724      -280.1609
  11   2.0000     -10.289902      -280.0025
  12   2.0000     -10.288350      -279.9602
  13   2.0000     -10.283256      -279.8216
  14   2.0000     -10.276624      -279.6412
  15   2.0000     -10.268953      -279.4324
  16   2.0000      -8.080186      -219.8730
  17   2.0000      -8.078639      -219.8310
  18   2.0000      -6.038835      -164.3250
  19   2.0000      -6.037287      -164.2829
  20   2.0000      -6.034769      -164.2144
  21   2.0000      -6.033249      -164.1731
  22   2.0000      -6.030754      -164.1052
  23   2.0000      -6.029395      -164.0682
  24   2.0000      -1.001438       -27.2505
  25   2.0000      -0.976658       -26.5762
  26   2.0000      -0.918819       -25.0023
  27   2.0000      -0.914730       -24.8911
  28   2.0000      -0.870489       -23.6872
  29   2.0000      -0.853197       -23.2167
  30   2.0000      -0.844384       -22.9769
  31   2.0000      -0.816426       -22.2161
  32   2.0000      -0.784246       -21.3404
  33   2.0000      -0.772407       -21.0183
  34   2.0000      -0.706233       -19.2176
  35   2.0000      -0.705175       -19.1888
  36   2.0000      -0.696836       -18.9619
  37   2.0000      -0.651753       -17.7351
  38   2.0000      -0.641631       -17.4597
  39   2.0000      -0.616795       -16.7838
  40   2.0000      -0.596080       -16.2202
  41   2.0000      -0.579461       -15.7679
  42   2.0000      -0.576034       -15.6747
  43   2.0000      -0.565621       -15.3913
  44   2.0000      -0.530266       -14.4293
  45   2.0000      -0.526486       -14.3264
  46   2.0000      -0.521267       -14.1844
  47   2.0000      -0.512249       -13.9390
  48   2.0000      -0.503883       -13.7114
  49   2.0000      -0.499472       -13.5913
  50   2.0000      -0.492512       -13.4019
  51   2.0000      -0.478350       -13.0166
  52   2.0000      -0.472558       -12.8590
  53   2.0000      -0.465049       -12.6546
  54   2.0000      -0.460265       -12.5245
  55   2.0000      -0.452110       -12.3025
  56   2.0000      -0.444521       -12.0960
  57   2.0000      -0.440331       -11.9820
  58   2.0000      -0.435408       -11.8481
  59   2.0000      -0.421224       -11.4621
  60   2.0000      -0.418588       -11.3904
  61   2.0000      -0.416032       -11.3208
  62   2.0000      -0.410490       -11.1700
  63   2.0000      -0.350355        -9.5336
  64   2.0000      -0.330346        -8.9892
  65   2.0000      -0.325550        -8.8587
  66   2.0000      -0.288514        -7.8509
  67   0.0000       0.026118         0.7107
  68   0.0000       0.070854         1.9280
  69   0.0000       0.107803         2.9335
  70   0.0000       0.123088         3.3494
  71   0.0000       0.131103         3.5675

MULLIKEN ATOMIC CHARGES
-----------------------
   0 S :    0.112676
   1 C :   -0.100616
   2 C :   -0.066569
   3 C :    0.010983
   4 C :   -0.139545
   5 H :    0.002195
   6 C :    0.034163
   7 H :    0.038781
   8 H :    0.043748
   9 C :   -0.083288
  10 H :    0.029184
  11 H :    0.029375
  12 C :   -0.036919
  13 H :    0.030404
  14 H :    0.011747
  15 H :    0.038424
  16 S :    0.092904
  17 C :   -0.074290
  18 C :   -0.037321
  19 C :   -0.034762
  20 C :   -0.144237
  21 H :    0.015470
  22 C :    0.002982
  23 H :    0.028104
  24 H :    0.046989
  25 C :   -0.099483
  26 H :    0.035145
  27 H :    0.028457
  28 C :    0.027787
  29 H :    0.017964
  30 H :    0.027166
  31 H :    0.026374
  32 H :    0.033375
  33 H :    0.052635
Sum of atomic charges:   -0.0000000

LOEWDIN ATOMIC CHARGES
----------------------
   0 S :    0.397162
   1 C :   -0.196648
   2 C :   -0.061069
   3 C :   -0.063293
   4 C :   -0.186873
   5 H :    0.022917
   6 C :   -0.039479
   7 H :    0.040862
   8 H :    0.038595
   9 C :   -0.048707
  10 H :    0.023911
  11 H :    0.026786
  12 C :   -0.057725
  13 H :    0.019510
  14 H :    0.014646
  15 H :    0.037965
  16 S :    0.378710
  17 C :   -0.171498
  18 C :   -0.073809
  19 C :   -0.048250
  20 C :   -0.190173
  21 H :    0.027685
  22 C :   -0.045631
  23 H :    0.038501
  24 H :    0.036869
  25 C :   -0.045834
  26 H :    0.025049
  27 H :    0.022522
  28 C :   -0.051166
  29 H :    0.022421
  30 H :    0.026884
  31 H :    0.025644
  32 H :    0.025648
  33 H :    0.027867

  Mayer bond orders larger than 0.100000
B(  0-S ,  1-C ) :   1.1342 B(  0-S ,  4-C ) :   1.1237 B(  1-C ,  2-C ) :   1.6489
B(  1-C , 32-H ) :   0.9624 B(  2-C ,  3-C ) :   1.2195 B(  2-C ,  6-C ) :   0.9890
B(  3-C ,  4-C ) :   1.6244 B(  3-C ,  5-H ) :   0.9860 B(  4-C , 20-C ) :   1.0431
B(  6-C ,  7-H ) :   0.9483 B(  6-C ,  8-H ) :   0.9404 B(  6-C ,  9-C ) :   1.0764
B(  9-C , 10-H ) :   0.9567 B(  9-C , 11-H ) :   0.9486 B(  9-C , 12-C ) :   1.0780
B( 12-C , 13-H ) :   0.9771 B( 12-C , 14-H ) :   0.9733 B( 12-C , 15-H ) :   0.9750
B( 16-S , 17-C ) :   1.1561 B( 16-S , 20-C ) :   1.1238 B( 17-C , 18-C ) :   1.6046
B( 17-C , 20-C ) :   0.1024 B( 17-C , 33-H ) :   0.9654 B( 18-C , 19-C ) :   1.2453
B( 18-C , 21-H ) :   0.9899 B( 19-C , 20-C ) :   1.5884 B( 19-C , 22-C ) :   1.0240
B( 22-C , 23-H ) :   0.9353 B( 22-C , 24-H ) :   0.9227 B( 22-C , 25-C ) :   1.0970
B( 25-C , 26-H ) :   0.9468 B( 25-C , 27-H ) :   0.9569 B( 25-C , 28-C ) :   1.0736
B( 28-C , 29-H ) :   0.9728 B( 28-C , 30-H ) :   0.9751 B( 28-C , 31-H ) :   0.9754

Dispersion correction           -0.012971201
FINAL SINGLE POINT ENERGY     -1339.862425837513

DIPOLE MOMENT
-------------
                                X             Y             Z
Electronic contribution:     23.02575       2.12580     -21.95359
Nuclear contribution   :    -23.77126      -2.02589      22.39328
                        -----------------------------------------
Total Dipole Moment    :     -0.74551       0.09990       0.43969
                        -----------------------------------------
Magnitude (a.u.)       :      0.87126
Magnitude (Debye)      :      2.21456

Rotational constants in cm-1:     0.017403     0.007894     0.005665
Rotational constants in MHz :   521.734007   236.642483   169.842611

                             ****ORCA TERMINATED NORMALLY****
TOTAL RUN TIME: 0 days 0 hours 0 minutes 20 seconds 679 msec
