                         Program Version 4.2.1 -  RELEASE  -
|  1> ! wB97X-D3 SP def2-SVP
|  2> %pal
|  3> nprocs 24
|  4> end
|  5>
|  6> * xyz 0 1
|  7> S 	 -98.991 	 26.5779 	 -117.086
|  8> C 	 -100.316 	 26.4382 	 -115.94
|  9> C 	 -101.469 	 26.9187 	 -116.451
| 10> C 	 -101.289 	 27.3199 	 -117.802
| 11> C 	 -99.9912 	 27.2747 	 -118.319
| 12> H 	 -102.094 	 27.6007 	 -118.375
| 13> C 	 -102.858 	 26.7575 	 -115.933
| 14> H 	 -102.958 	 25.6817 	 -115.642
| 15> H 	 -103.527 	 26.7585 	 -116.763
| 16> C 	 -103.393 	 27.6915 	 -114.851
| 17> H 	 -102.972 	 27.3471 	 -113.9
| 18> H 	 -103.03 	 28.7686 	 -115.063
| 19> C 	 -104.949 	 27.7467 	 -114.746
| 20> H 	 -105.363 	 27.9244 	 -115.719
| 21> H 	 -105.517 	 26.8949 	 -114.334
| 22> H 	 -105.149 	 28.6215 	 -114.117
| 23> S 	 -98.9776 	 29.3054 	 -119.67
| 24> C 	 -98.4575 	 29.1183 	 -121.319
| 25> C 	 -98.7972 	 27.8603 	 -121.83
| 26> C 	 -99.3428 	 26.9714 	 -120.867
| 27> C 	 -99.5068 	 27.6244 	 -119.628
| 28> H 	 -98.5893 	 27.6985 	 -122.877
| 29> C 	 -99.645 	 25.5877 	 -121.226
| 30> H 	 -99.7258 	 25.588 	 -122.318
| 31> H 	 -100.596 	 25.1398 	 -120.844
| 32> C 	 -98.4993 	 24.6197 	 -120.876
| 33> H 	 -98.2285 	 24.8843 	 -119.788
| 34> H 	 -97.582 	 24.8282 	 -121.363
| 35> C 	 -98.7842 	 23.1714 	 -121.158
| 36> H 	 -97.9254 	 22.5194 	 -120.884
| 37> H 	 -98.918 	 23.1557 	 -122.251
| 38> H 	 -99.7299 	 22.9639 	 -120.678
| 39> H 	 -100.259 	 25.9771 	 -114.978
| 40> H 	 -98.0414 	 29.9487 	 -121.953
| 41> *
| 42>
| 43>                          ****END OF INPUT****

CARTESIAN COORDINATES (ANGSTROEM)
---------------------------------
  S    -98.991000   26.577900  -117.086000
  C    -100.316000   26.438200  -115.940000
  C    -101.469000   26.918700  -116.451000
  C    -101.289000   27.319900  -117.802000
  C    -99.991200   27.274700  -118.319000
  H    -102.094000   27.600700  -118.375000
  C    -102.858000   26.757500  -115.933000
  H    -102.958000   25.681700  -115.642000
  H    -103.527000   26.758500  -116.763000
  C    -103.393000   27.691500  -114.851000
  H    -102.972000   27.347100  -113.900000
  H    -103.030000   28.768600  -115.063000
  C    -104.949000   27.746700  -114.746000
  H    -105.363000   27.924400  -115.719000
  H    -105.517000   26.894900  -114.334000
  H    -105.149000   28.621500  -114.117000
  S    -98.977600   29.305400  -119.670000
  C    -98.457500   29.118300  -121.319000
  C    -98.797200   27.860300  -121.830000
  C    -99.342800   26.971400  -120.867000
  C    -99.506800   27.624400  -119.628000
  H    -98.589300   27.698500  -122.877000
  C    -99.645000   25.587700  -121.226000
  H    -99.725800   25.588000  -122.318000
  H    -100.596000   25.139800  -120.844000
  C    -98.499300   24.619700  -120.876000
  H    -98.228500   24.884300  -119.788000
  H    -97.582000   24.828200  -121.363000
  C    -98.784200   23.171400  -121.158000
  H    -97.925400   22.519400  -120.884000
  H    -98.918000   23.155700  -122.251000
  H    -99.729900   22.963900  -120.678000
  H    -100.259000   25.977100  -114.978000
  H    -98.041400   29.948700  -121.953000

 Total Charge           Charge          ....    0
 Multiplicity           Mult            ....    1
 Number of Electrons    NEL             ....  134
 Basis Dimension        Dim             ....  322

ORBITAL ENERGIES
----------------

  NO   OCC          E(Eh)            E(eV)
   0   2.0000     -88.966200     -2420.8934
   1   2.0000     -88.963795     -2420.8279
   2   2.0000     -10.326840      -281.0076
   3   2.0000     -10.325527      -280.9719
   4   2.0000     -10.320618      -280.8383
   5   2.0000     -10.309581      -280.5380
   6   2.0000     -10.307301      -280.4759
   7   2.0000     -10.296669      -280.1866
   8   2.0000     -10.293919      -280.1118
   9   2.0000     -10.291995      -280.0594
  10   2.0000     -10.291967      -280.0587
  11   2.0000     -10.288518      -279.9648
  12   2.0000     -10.284888      -279.8660
  13   2.0000     -10.281382      -279.7706
  14   2.0000     -10.280290      -279.7409
  15   2.0000     -10.277743      -279.6716
  16   2.0000      -8.080886      -219.8921
  17   2.0000      -8.078461      -219.8261
  18   2.0000      -6.039285      -164.3373
  19   2.0000      -6.036992      -164.2749
  20   2.0000      -6.035302      -164.2289
  21   2.0000      -6.032792      -164.1606
  22   2.0000      -6.031860      -164.1353
  23   2.0000      -6.029381      -164.0678
  24   2.0000      -1.007427       -27.4135
  25   2.0000      -0.985392       -26.8139
  26   2.0000      -0.915888       -24.9226
  27   2.0000      -0.910911       -24.7872
  28   2.0000      -0.870464       -23.6865
  29   2.0000      -0.856174       -23.2977
  30   2.0000      -0.846697       -23.0398
  31   2.0000      -0.810443       -22.0533
  32   2.0000      -0.784252       -21.3406
  33   2.0000      -0.771596       -20.9962
  34   2.0000      -0.705394       -19.1948
  35   2.0000      -0.701015       -19.0756
  36   2.0000      -0.688108       -18.7244
  37   2.0000      -0.661924       -18.0119
  38   2.0000      -0.644645       -17.5417
  39   2.0000      -0.619947       -16.8696
  40   2.0000      -0.600263       -16.3340
  41   2.0000      -0.571670       -15.5559
  42   2.0000      -0.563731       -15.3399
  43   2.0000      -0.556464       -15.1422
  44   2.0000      -0.527257       -14.3474
  45   2.0000      -0.525755       -14.3065
  46   2.0000      -0.520183       -14.1549
  47   2.0000      -0.513379       -13.9698
  48   2.0000      -0.505546       -13.7566
  49   2.0000      -0.501325       -13.6418
  50   2.0000      -0.492768       -13.4089
  51   2.0000      -0.478023       -13.0077
  52   2.0000      -0.469942       -12.7878
  53   2.0000      -0.462249       -12.5784
  54   2.0000      -0.456892       -12.4327
  55   2.0000      -0.448585       -12.2066
  56   2.0000      -0.442673       -12.0457
  57   2.0000      -0.435684       -11.8556
  58   2.0000      -0.434758       -11.8304
  59   2.0000      -0.430648       -11.7185
  60   2.0000      -0.420824       -11.4512
  61   2.0000      -0.413813       -11.2604
  62   2.0000      -0.402392       -10.9496
  63   2.0000      -0.335975        -9.1424
  64   2.0000      -0.326498        -8.8845
  65   2.0000      -0.316708        -8.6181
  66   2.0000      -0.311574        -8.4784
  67   0.0000       0.043832         1.1927
  68   0.0000       0.050376         1.3708
  69   0.0000       0.111274         3.0279
  70   0.0000       0.118094         3.2135
  71   0.0000       0.129936         3.5357

MULLIKEN ATOMIC CHARGES
-----------------------
   0 S :    0.121026
   1 C :   -0.119918
   2 C :   -0.045702
   3 C :    0.063122
   4 C :   -0.162820
   5 H :   -0.029093
   6 C :    0.053165
   7 H :    0.032694
   8 H :   -0.002078
   9 C :   -0.085390
  10 H :    0.032842
  11 H :    0.048258
  12 C :   -0.056549
  13 H :    0.023954
  14 H :    0.041828
  15 H :    0.038813
  16 S :    0.124040
  17 C :   -0.113026
  18 C :   -0.059955
  19 C :    0.037491
  20 C :   -0.210266
  21 H :    0.019087
  22 C :    0.069009
  23 H :    0.010297
  24 H :    0.034748
  25 C :   -0.107701
  26 H :    0.026011
  27 H :    0.010359
  28 C :   -0.009931
  29 H :    0.052446
  30 H :    0.024108
  31 H :    0.028651
  32 H :    0.035402
  33 H :    0.075079
Sum of atomic charges:   -0.0000000

LOEWDIN ATOMIC CHARGES
----------------------
   0 S :    0.416335
   1 C :   -0.183487
   2 C :   -0.072259
   3 C :   -0.047074
   4 C :   -0.219609
   5 H :    0.013844
   6 C :   -0.040089
   7 H :    0.038435
   8 H :    0.022588
   9 C :   -0.041303
  10 H :    0.023268
  11 H :    0.036552
  12 C :   -0.069284
  13 H :    0.019816
  14 H :    0.027634
  15 H :    0.031322
  16 S :    0.423272
  17 C :   -0.198702
  18 C :   -0.073902
  19 C :   -0.046845
  20 C :   -0.201557
  21 H :    0.031628
  22 C :   -0.035067
  23 H :    0.029876
  24 H :    0.036020
  25 C :   -0.046599
  26 H :    0.022738
  27 H :    0.015092
  28 C :   -0.062615
  29 H :    0.035517
  30 H :    0.027271
  31 H :    0.022378
  32 H :    0.025054
  33 H :    0.039751

  Mayer bond orders larger than 0.100000
B(  0-S ,  1-C ) :   1.1510 B(  0-S ,  4-C ) :   1.1517 B(  1-C ,  2-C ) :   1.6026
B(  1-C , 32-H ) :   0.9698 B(  2-C ,  3-C ) :   1.2600 B(  2-C ,  6-C ) :   1.0184
B(  3-C ,  4-C ) :   1.5648 B(  3-C ,  5-H ) :   1.0098 B(  4-C , 20-C ) :   1.0221
B(  6-C ,  7-H ) :   0.9370 B(  6-C ,  8-H ) :   0.9437 B(  6-C ,  9-C ) :   1.0492
B(  9-C , 10-H ) :   0.9558 B(  9-C , 11-H ) :   0.9599 B(  9-C , 12-C ) :   1.0755
B( 12-C , 13-H ) :   0.9749 B( 12-C , 14-H ) :   0.9770 B( 12-C , 15-H ) :   0.9766
B( 16-S , 17-C ) :   1.1680 B( 16-S , 20-C ) :   1.1685 B( 17-C , 18-C ) :   1.6016
B( 17-C , 20-C ) :   0.1111 B( 17-C , 33-H ) :   0.9587 B( 18-C , 19-C ) :   1.2467
B( 18-C , 21-H ) :   0.9879 B( 19-C , 20-C ) :   1.5608 B( 19-C , 22-C ) :   1.0655
B( 22-C , 23-H ) :   0.9178 B( 22-C , 24-H ) :   0.9326 B( 22-C , 25-C ) :   1.0582
B( 25-C , 26-H ) :   0.9517 B( 25-C , 27-H ) :   0.9520 B( 25-C , 28-C ) :   1.0781
B( 28-C , 29-H ) :   0.9711 B( 28-C , 30-H ) :   0.9706 B( 28-C , 31-H ) :   0.9743

Dispersion correction           -0.013610179
FINAL SINGLE POINT ENERGY     -1339.872906690086

DIPOLE MOMENT
-------------
                                X             Y             Z
Electronic contribution:     15.70560      13.43856      -2.25322
Nuclear contribution   :    -16.13209     -13.69578       2.04163
                        -----------------------------------------
Total Dipole Moment    :     -0.42650      -0.25722      -0.21159
                        -----------------------------------------
Magnitude (a.u.)       :      0.54114
Magnitude (Debye)      :      1.37547

Rotational constants in cm-1:     0.019980     0.007352     0.006349
Rotational constants in MHz :   598.997443   220.415122   190.328031

                             ****ORCA TERMINATED NORMALLY****
TOTAL RUN TIME: 0 days 0 hours 0 minutes 20 seconds 902 msec
