                         Program Version 4.2.1 -  RELEASE  -
|  1> ! wB97X-D3 SP def2-SVP
|  2> %pal
|  3> nprocs 24
|  4> end
|  5>
|  6> * xyz 0 1
|  7> S 	 -99.9631 	 2.69192 	 -108.473
|  8> C 	 -100.868 	 3.27556 	 -107.119
|  9> C 	 -100.249 	 4.26781 	 -106.439
| 10> C 	 -98.9401 	 4.4175 	 -106.832
| 11> C 	 -98.589 	 3.50183 	 -107.794
| 12> H 	 -98.1856 	 5.10324 	 -106.413
| 13> C 	 -100.857 	 5.02089 	 -105.247
| 14> H 	 -101.751 	 5.3574 	 -105.685
| 15> H 	 -100.163 	 5.87723 	 -105.1
| 16> C 	 -101.031 	 4.14595 	 -103.973
| 17> H 	 -101.692 	 3.28928 	 -104.231
| 18> H 	 -100.076 	 3.83694 	 -103.719
| 19> C 	 -101.626 	 4.88522 	 -102.827
| 20> H 	 -102.656 	 5.27457 	 -103.109
| 21> H 	 -101.732 	 4.22317 	 -102.018
| 22> H 	 -101.135 	 5.74184 	 -102.567
| 23> S 	 -97.3697 	 3.71426 	 -110.225
| 24> C 	 -95.6862 	 3.94931 	 -110.368
| 25> C 	 -95.0816 	 3.93475 	 -109.136
| 26> C 	 -95.9693 	 3.6439 	 -108.013
| 27> C 	 -97.2814 	 3.44047 	 -108.472
| 28> H 	 -94.0512 	 4.18462 	 -109.075
| 29> C 	 -95.478 	 3.47456 	 -106.633
| 30> H 	 -94.5788 	 2.8194 	 -106.649
| 31> H 	 -96.3145 	 3.13937 	 -105.981
| 32> C 	 -95.1619 	 4.82464 	 -106.111
| 33> H 	 -96.0479 	 5.46389 	 -106.411
| 34> H 	 -94.2096 	 5.24459 	 -106.501
| 35> C 	 -94.9419 	 4.93119 	 -104.559
| 36> H 	 -94.0837 	 4.33129 	 -104.212
| 37> H 	 -95.7059 	 4.53186 	 -103.911
| 38> H 	 -94.8369 	 5.99933 	 -104.196
| 39> H 	 -101.907 	 2.9483 	 -106.948
| 40> H 	 -95.0659 	 4.26397 	 -111.229
| 41> *
| 42>
| 43>                          ****END OF INPUT****

CARTESIAN COORDINATES (ANGSTROEM)
---------------------------------
  S    -99.963100    2.691920  -108.473000
  C    -100.868000    3.275560  -107.119000
  C    -100.249000    4.267810  -106.439000
  C    -98.940100    4.417500  -106.832000
  C    -98.589000    3.501830  -107.794000
  H    -98.185600    5.103240  -106.413000
  C    -100.857000    5.020890  -105.247000
  H    -101.751000    5.357400  -105.685000
  H    -100.163000    5.877230  -105.100000
  C    -101.031000    4.145950  -103.973000
  H    -101.692000    3.289280  -104.231000
  H    -100.076000    3.836940  -103.719000
  C    -101.626000    4.885220  -102.827000
  H    -102.656000    5.274570  -103.109000
  H    -101.732000    4.223170  -102.018000
  H    -101.135000    5.741840  -102.567000
  S    -97.369700    3.714260  -110.225000
  C    -95.686200    3.949310  -110.368000
  C    -95.081600    3.934750  -109.136000
  C    -95.969300    3.643900  -108.013000
  C    -97.281400    3.440470  -108.472000
  H    -94.051200    4.184620  -109.075000
  C    -95.478000    3.474560  -106.633000
  H    -94.578800    2.819400  -106.649000
  H    -96.314500    3.139370  -105.981000
  C    -95.161900    4.824640  -106.111000
  H    -96.047900    5.463890  -106.411000
  H    -94.209600    5.244590  -106.501000
  C    -94.941900    4.931190  -104.559000
  H    -94.083700    4.331290  -104.212000
  H    -95.705900    4.531860  -103.911000
  H    -94.836900    5.999330  -104.196000
  H    -101.907000    2.948300  -106.948000
  H    -95.065900    4.263970  -111.229000

 Total Charge           Charge          ....    0
 Multiplicity           Mult            ....    1
 Number of Electrons    NEL             ....  134
 Basis Dimension        Dim             ....  322

ORBITAL ENERGIES
----------------

  NO   OCC          E(Eh)            E(eV)
   0   2.0000     -88.966742     -2420.9081
   1   2.0000     -88.961663     -2420.7699
   2   2.0000     -10.326681      -281.0033
   3   2.0000     -10.326081      -280.9870
   4   2.0000     -10.313977      -280.6576
   5   2.0000     -10.307296      -280.4758
   6   2.0000     -10.304643      -280.4036
   7   2.0000     -10.294788      -280.1354
   8   2.0000     -10.292040      -280.0607
   9   2.0000     -10.290859      -280.0285
  10   2.0000     -10.290333      -280.0142
  11   2.0000     -10.289816      -280.0001
  12   2.0000     -10.289308      -279.9863
  13   2.0000     -10.284078      -279.8440
  14   2.0000     -10.283934      -279.8401
  15   2.0000     -10.269435      -279.4455
  16   2.0000      -8.082424      -219.9339
  17   2.0000      -8.076934      -219.7846
  18   2.0000      -6.040698      -164.3758
  19   2.0000      -6.037117      -164.2783
  20   2.0000      -6.035512      -164.2346
  21   2.0000      -6.033062      -164.1680
  22   2.0000      -6.031364      -164.1218
  23   2.0000      -6.027574      -164.0186
  24   2.0000      -1.014614       -27.6091
  25   2.0000      -0.988517       -26.8989
  26   2.0000      -0.921023       -25.0623
  27   2.0000      -0.915616       -24.9152
  28   2.0000      -0.871883       -23.7251
  29   2.0000      -0.858065       -23.3491
  30   2.0000      -0.843405       -22.9502
  31   2.0000      -0.815890       -22.2015
  32   2.0000      -0.785141       -21.3648
  33   2.0000      -0.771706       -20.9992
  34   2.0000      -0.707077       -19.2405
  35   2.0000      -0.701486       -19.0884
  36   2.0000      -0.690192       -18.7811
  37   2.0000      -0.660963       -17.9857
  38   2.0000      -0.637261       -17.3407
  39   2.0000      -0.622003       -16.9256
  40   2.0000      -0.594292       -16.1715
  41   2.0000      -0.577868       -15.7246
  42   2.0000      -0.574960       -15.6455
  43   2.0000      -0.559570       -15.2267
  44   2.0000      -0.535447       -14.5703
  45   2.0000      -0.525147       -14.2900
  46   2.0000      -0.518768       -14.1164
  47   2.0000      -0.514366       -13.9966
  48   2.0000      -0.499575       -13.5941
  49   2.0000      -0.497858       -13.5474
  50   2.0000      -0.489514       -13.3204
  51   2.0000      -0.484060       -13.1719
  52   2.0000      -0.475367       -12.9354
  53   2.0000      -0.465861       -12.6767
  54   2.0000      -0.460209       -12.5229
  55   2.0000      -0.453733       -12.3467
  56   2.0000      -0.443239       -12.0611
  57   2.0000      -0.434454       -11.8221
  58   2.0000      -0.430229       -11.7071
  59   2.0000      -0.427604       -11.6357
  60   2.0000      -0.423368       -11.5204
  61   2.0000      -0.421190       -11.4612
  62   2.0000      -0.415643       -11.3102
  63   2.0000      -0.349268        -9.5041
  64   2.0000      -0.336708        -9.1623
  65   2.0000      -0.325246        -8.8504
  66   2.0000      -0.286413        -7.7937
  67   0.0000       0.029641         0.8066
  68   0.0000       0.070783         1.9261
  69   0.0000       0.103372         2.8129
  70   0.0000       0.123056         3.3485
  71   0.0000       0.130406         3.5485

MULLIKEN ATOMIC CHARGES
-----------------------
   0 S :    0.116760
   1 C :   -0.140825
   2 C :   -0.080255
   3 C :    0.006928
   4 C :   -0.151768
   5 H :    0.005608
   6 C :    0.081049
   7 H :    0.016875
   8 H :    0.021045
   9 C :   -0.045074
  10 H :    0.033664
  11 H :    0.011679
  12 C :    0.015050
  13 H :    0.018868
  14 H :    0.027362
  15 H :    0.005991
  16 S :    0.089604
  17 C :   -0.079497
  18 C :   -0.042256
  19 C :   -0.084827
  20 C :   -0.109872
  21 H :    0.003986
  22 C :    0.110942
  23 H :    0.043747
  24 H :    0.029513
  25 C :   -0.136279
  26 H :    0.048197
  27 H :    0.039904
  28 C :   -0.059761
  29 H :    0.027736
  30 H :    0.017826
  31 H :    0.044323
  32 H :    0.047304
  33 H :    0.066454
Sum of atomic charges:   -0.0000000

LOEWDIN ATOMIC CHARGES
----------------------
   0 S :    0.418958
   1 C :   -0.202287
   2 C :   -0.069803
   3 C :   -0.067683
   4 C :   -0.194548
   5 H :    0.034112
   6 C :   -0.020993
   7 H :    0.022494
   8 H :    0.030761
   9 C :   -0.028249
  10 H :    0.030414
  11 H :    0.015746
  12 C :   -0.054155
  13 H :    0.031116
  14 H :    0.022266
  15 H :    0.011013
  16 S :    0.404796
  17 C :   -0.205919
  18 C :   -0.073192
  19 C :   -0.054446
  20 C :   -0.191187
  21 H :    0.022920
  22 C :   -0.038021
  23 H :    0.039226
  24 H :    0.038523
  25 C :   -0.044737
  26 H :    0.028691
  27 H :    0.027530
  28 C :   -0.080783
  29 H :    0.026247
  30 H :    0.017026
  31 H :    0.033747
  32 H :    0.027440
  33 H :    0.042979

  Mayer bond orders larger than 0.100000
B(  0-S ,  1-C ) :   1.1406 B(  0-S ,  4-C ) :   1.1694 B(  1-C ,  2-C ) :   1.6084
B(  1-C , 32-H ) :   0.9667 B(  2-C ,  3-C ) :   1.2730 B(  2-C ,  6-C ) :   0.9980
B(  3-C ,  4-C ) :   1.5466 B(  3-C ,  5-H ) :   0.9896 B(  4-C , 20-C ) :   1.0183
B(  6-C ,  7-H ) :   0.9307 B(  6-C ,  8-H ) :   0.9436 B(  6-C ,  9-C ) :   1.0704
B(  9-C , 10-H ) :   0.9540 B(  9-C , 11-H ) :   0.9520 B(  9-C , 12-C ) :   1.1016
B( 12-C , 13-H ) :   0.9693 B( 12-C , 14-H ) :   0.9710 B( 12-C , 15-H ) :   0.9706
B( 16-S , 17-C ) :   1.1526 B( 16-S , 20-C ) :   1.1317 B( 17-C , 18-C ) :   1.6347
B( 17-C , 33-H ) :   0.9593 B( 18-C , 19-C ) :   1.2150 B( 18-C , 21-H ) :   0.9923
B( 19-C , 20-C ) :   1.6079 B( 19-C , 22-C ) :   1.0668 B( 22-C , 23-H ) :   0.9290
B( 22-C , 24-H ) :   0.9285 B( 22-C , 25-C ) :   1.0513 B( 25-C , 26-H ) :   0.9519
B( 25-C , 27-H ) :   0.9510 B( 25-C , 28-C ) :   1.0774 B( 28-C , 29-H ) :   0.9706
B( 28-C , 30-H ) :   0.9740 B( 28-C , 31-H ) :   0.9766

Dispersion correction           -0.014160344
FINAL SINGLE POINT ENERGY     -1339.861265394435

DIPOLE MOMENT
-------------
                                X             Y             Z
Electronic contribution:     -2.36764     -10.09478     -30.44005
Nuclear contribution   :      2.54969      10.47950      31.05574
                        -----------------------------------------
Total Dipole Moment    :      0.18205       0.38472       0.61569
                        -----------------------------------------
Magnitude (a.u.)       :      0.74848
Magnitude (Debye)      :      1.90249

Rotational constants in cm-1:     0.018278     0.009100     0.006403
Rotational constants in MHz :   547.974509   272.819546   191.944016

                             ****ORCA TERMINATED NORMALLY****
TOTAL RUN TIME: 0 days 0 hours 0 minutes 21 seconds 997 msec
