                         Program Version 4.2.1 -  RELEASE  -
|  1> ! wB97X-D3 SP def2-SVP
|  2> %pal
|  3> nprocs 24
|  4> end
|  5>
|  6> * xyz 0 1
|  7> S 	 -114.171 	 61.3054 	 -72.0066
|  8> C 	 -113.024 	 62.3588 	 -71.3089
|  9> C 	 -113.371 	 62.7876 	 -70.0118
| 10> C 	 -114.743 	 62.4361 	 -69.7571
| 11> C 	 -115.322 	 61.5965 	 -70.7283
| 12> H 	 -115.386 	 62.6853 	 -68.8729
| 13> C 	 -112.397 	 63.5369 	 -69.0217
| 14> H 	 -111.891 	 62.7143 	 -68.521
| 15> H 	 -112.933 	 64.0155 	 -68.2821
| 16> C 	 -111.457 	 64.5711 	 -69.5713
| 17> H 	 -110.676 	 64.7809 	 -68.8712
| 18> H 	 -110.753 	 64.0641 	 -70.2522
| 19> C 	 -112.095 	 65.8932 	 -69.9296
| 20> H 	 -112.696 	 66.2714 	 -69.1406
| 21> H 	 -111.409 	 66.6365 	 -70.4363
| 22> H 	 -112.836 	 65.6719 	 -70.6726
| 23> S 	 -117.176 	 59.917 	 -69.5482
| 24> C 	 -118.828 	 59.9779 	 -70.0764
| 25> C 	 -119.025 	 60.9427 	 -71.0073
| 26> C 	 -117.785 	 61.4978 	 -71.4467
| 27> C 	 -116.674 	 61.0657 	 -70.7336
| 28> H 	 -119.98 	 61.2262 	 -71.448
| 29> C 	 -117.807 	 62.6454 	 -72.3708
| 30> H 	 -116.935 	 63.2806 	 -72.2924
| 31> H 	 -118.654 	 63.217 	 -72.0691
| 32> C 	 -118.144 	 62.2776 	 -73.8097
| 33> H 	 -118.29 	 61.1992 	 -74.0373
| 34> H 	 -117.23 	 62.6204 	 -74.4019
| 35> C 	 -119.398 	 62.9309 	 -74.4329
| 36> H 	 -119.673 	 62.5874 	 -75.3842
| 37> H 	 -119.272 	 63.9806 	 -74.4081
| 38> H 	 -120.329 	 62.7489 	 -73.9278
| 39> H 	 -112.017 	 62.4226 	 -71.7524
| 40> H 	 -119.65 	 59.4101 	 -69.7191
| 41> *
| 42>
| 43>                          ****END OF INPUT****

CARTESIAN COORDINATES (ANGSTROEM)
---------------------------------
  S    -114.171000   61.305400  -72.006600
  C    -113.024000   62.358800  -71.308900
  C    -113.371000   62.787600  -70.011800
  C    -114.743000   62.436100  -69.757100
  C    -115.322000   61.596500  -70.728300
  H    -115.386000   62.685300  -68.872900
  C    -112.397000   63.536900  -69.021700
  H    -111.891000   62.714300  -68.521000
  H    -112.933000   64.015500  -68.282100
  C    -111.457000   64.571100  -69.571300
  H    -110.676000   64.780900  -68.871200
  H    -110.753000   64.064100  -70.252200
  C    -112.095000   65.893200  -69.929600
  H    -112.696000   66.271400  -69.140600
  H    -111.409000   66.636500  -70.436300
  H    -112.836000   65.671900  -70.672600
  S    -117.176000   59.917000  -69.548200
  C    -118.828000   59.977900  -70.076400
  C    -119.025000   60.942700  -71.007300
  C    -117.785000   61.497800  -71.446700
  C    -116.674000   61.065700  -70.733600
  H    -119.980000   61.226200  -71.448000
  C    -117.807000   62.645400  -72.370800
  H    -116.935000   63.280600  -72.292400
  H    -118.654000   63.217000  -72.069100
  C    -118.144000   62.277600  -73.809700
  H    -118.290000   61.199200  -74.037300
  H    -117.230000   62.620400  -74.401900
  C    -119.398000   62.930900  -74.432900
  H    -119.673000   62.587400  -75.384200
  H    -119.272000   63.980600  -74.408100
  H    -120.329000   62.748900  -73.927800
  H    -112.017000   62.422600  -71.752400
  H    -119.650000   59.410100  -69.719100

 Total Charge           Charge          ....    0
 Multiplicity           Mult            ....    1
 Number of Electrons    NEL             ....  134
 Basis Dimension        Dim             ....  322

ORBITAL ENERGIES
----------------

  NO   OCC          E(Eh)            E(eV)
   0   2.0000     -88.966789     -2420.9094
   1   2.0000     -88.963751     -2420.8267
   2   2.0000     -10.327479      -281.0250
   3   2.0000     -10.319593      -280.8104
   4   2.0000     -10.313957      -280.6570
   5   2.0000     -10.312168      -280.6084
   6   2.0000     -10.310211      -280.5551
   7   2.0000     -10.301416      -280.3158
   8   2.0000     -10.295667      -280.1593
   9   2.0000     -10.291285      -280.0401
  10   2.0000     -10.289203      -279.9835
  11   2.0000     -10.287308      -279.9319
  12   2.0000     -10.283487      -279.8279
  13   2.0000     -10.278780      -279.6998
  14   2.0000     -10.276683      -279.6428
  15   2.0000     -10.267434      -279.3911
  16   2.0000      -8.082078      -219.9245
  17   2.0000      -8.079124      -219.8441
  18   2.0000      -6.040347      -164.3662
  19   2.0000      -6.037691      -164.2939
  20   2.0000      -6.036380      -164.2583
  21   2.0000      -6.033483      -164.1794
  22   2.0000      -6.033197      -164.1716
  23   2.0000      -6.029839      -164.0803
  24   2.0000      -1.009069       -27.4582
  25   2.0000      -0.987047       -26.8589
  26   2.0000      -0.915622       -24.9153
  27   2.0000      -0.911599       -24.8059
  28   2.0000      -0.871138       -23.7049
  29   2.0000      -0.850236       -23.1361
  30   2.0000      -0.847144       -23.0520
  31   2.0000      -0.813119       -22.1261
  32   2.0000      -0.788687       -21.4613
  33   2.0000      -0.773681       -21.0529
  34   2.0000      -0.710818       -19.3424
  35   2.0000      -0.702006       -19.1026
  36   2.0000      -0.690723       -18.7955
  37   2.0000      -0.663138       -18.0449
  38   2.0000      -0.642459       -17.4822
  39   2.0000      -0.607663       -16.5354
  40   2.0000      -0.598875       -16.2962
  41   2.0000      -0.576408       -15.6849
  42   2.0000      -0.559977       -15.2378
  43   2.0000      -0.551021       -14.9940
  44   2.0000      -0.537782       -14.6338
  45   2.0000      -0.536168       -14.5899
  46   2.0000      -0.518518       -14.1096
  47   2.0000      -0.511807       -13.9270
  48   2.0000      -0.506287       -13.7768
  49   2.0000      -0.497368       -13.5341
  50   2.0000      -0.486968       -13.2511
  51   2.0000      -0.479845       -13.0572
  52   2.0000      -0.471752       -12.8370
  53   2.0000      -0.470499       -12.8029
  54   2.0000      -0.461310       -12.5529
  55   2.0000      -0.448388       -12.2013
  56   2.0000      -0.447346       -12.1729
  57   2.0000      -0.438146       -11.9225
  58   2.0000      -0.435617       -11.8537
  59   2.0000      -0.432409       -11.7664
  60   2.0000      -0.414571       -11.2811
  61   2.0000      -0.407253       -11.0819
  62   2.0000      -0.400587       -10.9005
  63   2.0000      -0.337277        -9.1778
  64   2.0000      -0.333746        -9.0817
  65   2.0000      -0.321352        -8.7444
  66   2.0000      -0.299784        -8.1575
  67   0.0000       0.042278         1.1504
  68   0.0000       0.063867         1.7379
  69   0.0000       0.112159         3.0520
  70   0.0000       0.120799         3.2871
  71   0.0000       0.138612         3.7718

MULLIKEN ATOMIC CHARGES
-----------------------
   0 S :    0.135891
   1 C :   -0.146201
   2 C :   -0.107521
   3 C :    0.020492
   4 C :   -0.208043
   5 H :    0.032036
   6 C :    0.107964
   7 H :    0.042243
   8 H :   -0.007105
   9 C :   -0.060151
  10 H :    0.009187
  11 H :    0.011052
  12 C :   -0.014538
  13 H :    0.022376
  14 H :    0.050300
  15 H :    0.019616
  16 S :    0.117134
  17 C :   -0.067807
  18 C :   -0.030688
  19 C :   -0.039742
  20 C :   -0.166803
  21 H :    0.020876
  22 C :    0.110088
  23 H :    0.035648
  24 H :    0.012186
  25 C :   -0.114602
  26 H :    0.043559
  27 H :    0.041425
  28 C :   -0.026346
  29 H :    0.019027
  30 H :    0.023195
  31 H :    0.009180
  32 H :    0.063870
  33 H :    0.042202
Sum of atomic charges:    0.0000000

LOEWDIN ATOMIC CHARGES
----------------------
   0 S :    0.436403
   1 C :   -0.220471
   2 C :   -0.062445
   3 C :   -0.067828
   4 C :   -0.209988
   5 H :    0.039765
   6 C :   -0.019047
   7 H :    0.040273
   8 H :    0.016684
   9 C :   -0.053547
  10 H :    0.023750
  11 H :    0.024877
  12 C :   -0.063870
  13 H :    0.023536
  14 H :    0.038268
  15 H :    0.024412
  16 S :    0.423077
  17 C :   -0.180383
  18 C :   -0.070609
  19 C :   -0.048133
  20 C :   -0.224410
  21 H :    0.033403
  22 C :   -0.032710
  23 H :    0.031880
  24 H :    0.030861
  25 C :   -0.045264
  26 H :    0.027278
  27 H :    0.034642
  28 C :   -0.065414
  29 H :    0.021172
  30 H :    0.018807
  31 H :    0.019484
  32 H :    0.029601
  33 H :    0.025942

  Mayer bond orders larger than 0.100000
B(  0-S ,  1-C ) :   1.1765 B(  0-S ,  4-C ) :   1.1662 B(  1-C ,  2-C ) :   1.5671
B(  1-C ,  4-C ) :   0.1060 B(  1-C , 32-H ) :   0.9640 B(  2-C ,  3-C ) :   1.2644
B(  2-C ,  6-C ) :   0.9997 B(  3-C ,  4-C ) :   1.5668 B(  3-C ,  5-H ) :   0.9839
B(  4-C , 20-C ) :   1.0212 B(  6-C ,  7-H ) :   0.9302 B(  6-C ,  8-H ) :   0.9431
B(  6-C ,  9-C ) :   1.0966 B(  9-C , 10-H ) :   0.9417 B(  9-C , 11-H ) :   0.9437
B(  9-C , 12-C ) :   1.0656 B( 12-C , 13-H ) :   0.9683 B( 12-C , 14-H ) :   0.9722
B( 12-C , 15-H ) :   0.9753 B( 16-S , 17-C ) :   1.1629 B( 16-S , 20-C ) :   1.1321
B( 17-C , 18-C ) :   1.6036 B( 17-C , 33-H ) :   0.9697 B( 18-C , 19-C ) :   1.2544
B( 18-C , 21-H ) :   0.9870 B( 19-C , 20-C ) :   1.5864 B( 19-C , 22-C ) :   1.0665
B( 22-C , 23-H ) :   0.9307 B( 22-C , 24-H ) :   0.9425 B( 22-C , 25-C ) :   1.0115
B( 25-C , 26-H ) :   0.9705 B( 25-C , 27-H ) :   0.9567 B( 25-C , 28-C ) :   1.0828
B( 28-C , 29-H ) :   0.9720 B( 28-C , 30-H ) :   0.9755 B( 28-C , 31-H ) :   0.9701

Dispersion correction           -0.014226657
FINAL SINGLE POINT ENERGY     -1339.861871343148

DIPOLE MOMENT
-------------
                                X             Y             Z
Electronic contribution:     -1.90116     -20.84790       6.54391
Nuclear contribution   :      1.83438      21.28735      -6.45417
                        -----------------------------------------
Total Dipole Moment    :     -0.06678       0.43946       0.08974
                        -----------------------------------------
Magnitude (a.u.)       :      0.45347
Magnitude (Debye)      :      1.15263

Rotational constants in cm-1:     0.020703     0.007470     0.006357
Rotational constants in MHz :   620.655489   223.942364   190.581763

                             ****ORCA TERMINATED NORMALLY****
TOTAL RUN TIME: 0 days 0 hours 0 minutes 21 seconds 189 msec
