                         Program Version 4.2.1 -  RELEASE  -
|  1> ! wB97X-D3 SP def2-SVP
|  2> %pal
|  3> nprocs 24
|  4> end
|  5>
|  6> * xyz 0 1
|  7> S 	 -118.033 	 24.4062 	 -19.3506
|  8> C 	 -117.041 	 24.2437 	 -20.7344
|  9> C 	 -116.195 	 25.2999 	 -20.9446
| 10> C 	 -116.461 	 26.3657 	 -19.9952
| 11> C 	 -117.467 	 26.0264 	 -19.087
| 12> H 	 -116.083 	 27.3382 	 -20.0455
| 13> C 	 -115.296 	 25.449 	 -22.1511
| 14> H 	 -115.343 	 26.4173 	 -22.6064
| 15> H 	 -115.692 	 24.7474 	 -22.8821
| 16> C 	 -113.877 	 24.989 	 -21.7776
| 17> H 	 -113.473 	 25.6371 	 -20.9779
| 18> H 	 -113.688 	 24.0311 	 -21.4496
| 19> C 	 -112.932 	 25.0345 	 -22.998
| 20> H 	 -111.939 	 25.0105 	 -22.7445
| 21> H 	 -113.117 	 24.2507 	 -23.6911
| 22> H 	 -113.139 	 25.9469 	 -23.5509
| 23> S 	 -117.743 	 26.7125 	 -16.4043
| 24> C 	 -118.539 	 28.1467 	 -15.9716
| 25> C 	 -119.072 	 28.7977 	 -17.0778
| 26> C 	 -118.801 	 28.083 	 -18.3392
| 27> C 	 -118.048 	 26.9203 	 -18.1279
| 28> H 	 -119.569 	 29.7469 	 -16.7938
| 29> C 	 -119.254 	 28.6545 	 -19.6996
| 30> H 	 -118.493 	 28.5344 	 -20.5246
| 31> H 	 -119.56 	 29.6915 	 -19.6362
| 32> C 	 -120.533 	 27.8578 	 -20.2295
| 33> H 	 -120.318 	 26.7592 	 -20.4581
| 34> H 	 -120.932 	 28.3553 	 -21.1394
| 35> C 	 -121.627 	 27.7533 	 -19.2071
| 36> H 	 -122.005 	 28.7486 	 -18.9652
| 37> H 	 -121.4 	 27.3639 	 -18.2141
| 38> H 	 -122.548 	 27.2901 	 -19.5833
| 39> H 	 -116.984 	 23.3801 	 -21.3645
| 40> H 	 -118.712 	 28.5263 	 -15.0015
| 41> *
| 42>
| 43>                          ****END OF INPUT****

CARTESIAN COORDINATES (ANGSTROEM)
---------------------------------
  S    -118.033000   24.406200  -19.350600
  C    -117.041000   24.243700  -20.734400
  C    -116.195000   25.299900  -20.944600
  C    -116.461000   26.365700  -19.995200
  C    -117.467000   26.026400  -19.087000
  H    -116.083000   27.338200  -20.045500
  C    -115.296000   25.449000  -22.151100
  H    -115.343000   26.417300  -22.606400
  H    -115.692000   24.747400  -22.882100
  C    -113.877000   24.989000  -21.777600
  H    -113.473000   25.637100  -20.977900
  H    -113.688000   24.031100  -21.449600
  C    -112.932000   25.034500  -22.998000
  H    -111.939000   25.010500  -22.744500
  H    -113.117000   24.250700  -23.691100
  H    -113.139000   25.946900  -23.550900
  S    -117.743000   26.712500  -16.404300
  C    -118.539000   28.146700  -15.971600
  C    -119.072000   28.797700  -17.077800
  C    -118.801000   28.083000  -18.339200
  C    -118.048000   26.920300  -18.127900
  H    -119.569000   29.746900  -16.793800
  C    -119.254000   28.654500  -19.699600
  H    -118.493000   28.534400  -20.524600
  H    -119.560000   29.691500  -19.636200
  C    -120.533000   27.857800  -20.229500
  H    -120.318000   26.759200  -20.458100
  H    -120.932000   28.355300  -21.139400
  C    -121.627000   27.753300  -19.207100
  H    -122.005000   28.748600  -18.965200
  H    -121.400000   27.363900  -18.214100
  H    -122.548000   27.290100  -19.583300
  H    -116.984000   23.380100  -21.364500
  H    -118.712000   28.526300  -15.001500

 Total Charge           Charge          ....    0
 Multiplicity           Mult            ....    1
 Number of Electrons    NEL             ....  134
 Basis Dimension        Dim             ....  322

ORBITAL ENERGIES
----------------

  NO   OCC          E(Eh)            E(eV)
   0   2.0000     -88.967982     -2420.9419
   1   2.0000     -88.963660     -2420.8243
   2   2.0000     -10.325965      -280.9838
   3   2.0000     -10.325365      -280.9675
   4   2.0000     -10.314281      -280.6659
   5   2.0000     -10.311121      -280.5799
   6   2.0000     -10.308306      -280.5033
   7   2.0000     -10.300073      -280.2792
   8   2.0000     -10.299141      -280.2539
   9   2.0000     -10.298252      -280.2297
  10   2.0000     -10.293761      -280.1075
  11   2.0000     -10.293454      -280.0991
  12   2.0000     -10.289460      -279.9904
  13   2.0000     -10.280803      -279.7549
  14   2.0000     -10.265846      -279.3479
  15   2.0000     -10.265111      -279.3279
  16   2.0000      -8.083420      -219.9610
  17   2.0000      -8.079172      -219.8455
  18   2.0000      -6.041786      -164.4054
  19   2.0000      -6.037788      -164.2966
  20   2.0000      -6.037604      -164.2916
  21   2.0000      -6.034330      -164.2025
  22   2.0000      -6.033439      -164.1782
  23   2.0000      -6.030099      -164.0873
  24   2.0000      -1.008045       -27.4303
  25   2.0000      -0.985532       -26.8177
  26   2.0000      -0.915278       -24.9060
  27   2.0000      -0.900260       -24.4973
  28   2.0000      -0.872736       -23.7483
  29   2.0000      -0.852685       -23.2027
  30   2.0000      -0.839894       -22.8547
  31   2.0000      -0.814891       -22.1743
  32   2.0000      -0.783679       -21.3250
  33   2.0000      -0.771427       -20.9916
  34   2.0000      -0.710553       -19.3351
  35   2.0000      -0.704135       -19.1605
  36   2.0000      -0.681935       -18.5564
  37   2.0000      -0.657028       -17.8786
  38   2.0000      -0.646666       -17.5967
  39   2.0000      -0.619729       -16.8637
  40   2.0000      -0.587648       -15.9907
  41   2.0000      -0.576877       -15.6976
  42   2.0000      -0.560760       -15.2590
  43   2.0000      -0.547811       -14.9067
  44   2.0000      -0.537961       -14.6387
  45   2.0000      -0.532765       -14.4973
  46   2.0000      -0.517629       -14.0854
  47   2.0000      -0.509869       -13.8742
  48   2.0000      -0.508160       -13.8277
  49   2.0000      -0.504594       -13.7307
  50   2.0000      -0.480856       -13.0847
  51   2.0000      -0.480151       -13.0656
  52   2.0000      -0.472874       -12.8676
  53   2.0000      -0.465947       -12.6791
  54   2.0000      -0.463340       -12.6081
  55   2.0000      -0.451316       -12.2809
  56   2.0000      -0.440116       -11.9762
  57   2.0000      -0.433105       -11.7854
  58   2.0000      -0.429027       -11.6744
  59   2.0000      -0.426381       -11.6024
  60   2.0000      -0.418070       -11.3763
  61   2.0000      -0.415317       -11.3014
  62   2.0000      -0.404182       -10.9984
  63   2.0000      -0.336071        -9.1450
  64   2.0000      -0.328719        -8.9449
  65   2.0000      -0.326026        -8.8716
  66   2.0000      -0.302966        -8.2441
  67   0.0000       0.042072         1.1448
  68   0.0000       0.060311         1.6412
  69   0.0000       0.119320         3.2469
  70   0.0000       0.123497         3.3605
  71   0.0000       0.132280         3.5995

MULLIKEN ATOMIC CHARGES
-----------------------
   0 S :    0.135702
   1 C :   -0.103533
   2 C :   -0.098873
   3 C :    0.076371
   4 C :   -0.182203
   5 H :   -0.006835
   6 C :    0.084373
   7 H :    0.029577
   8 H :    0.014825
   9 C :   -0.072812
  10 H :    0.029217
  11 H :    0.014214
  12 C :   -0.001919
  13 H :    0.017022
  14 H :    0.019313
  15 H :    0.010930
  16 S :    0.121553
  17 C :   -0.081995
  18 C :   -0.069968
  19 C :   -0.024183
  20 C :   -0.175428
  21 H :    0.033423
  22 C :    0.087263
  23 H :    0.043710
  24 H :    0.025375
  25 C :   -0.103832
  26 H :    0.047228
  27 H :    0.035693
  28 C :   -0.055447
  29 H :   -0.001745
  30 H :    0.047382
  31 H :    0.029056
  32 H :    0.034554
  33 H :    0.041991
Sum of atomic charges:    0.0000000

LOEWDIN ATOMIC CHARGES
----------------------
   0 S :    0.433001
   1 C :   -0.205491
   2 C :   -0.060601
   3 C :   -0.042169
   4 C :   -0.206727
   5 H :    0.021966
   6 C :   -0.023277
   7 H :    0.030046
   8 H :    0.030734
   9 C :   -0.032032
  10 H :    0.026533
  11 H :    0.015808
  12 C :   -0.054848
  13 H :    0.014174
  14 H :    0.019607
  15 H :    0.020851
  16 S :    0.424054
  17 C :   -0.199354
  18 C :   -0.083933
  19 C :   -0.044608
  20 C :   -0.210060
  21 H :    0.038962
  22 C :   -0.029959
  23 H :    0.037404
  24 H :    0.028322
  25 C :   -0.044721
  26 H :    0.030210
  27 H :    0.026123
  28 C :   -0.078899
  29 H :    0.016348
  30 H :    0.026980
  31 H :    0.027133
  32 H :    0.024069
  33 H :    0.024353

  Mayer bond orders larger than 0.100000
B(  0-S ,  1-C ) :   1.1494 B(  0-S ,  4-C ) :   1.1557 B(  1-C ,  2-C ) :   1.6309
B(  1-C , 32-H ) :   0.9620 B(  2-C ,  3-C ) :   1.2292 B(  2-C ,  6-C ) :   1.0219
B(  3-C ,  4-C ) :   1.5750 B(  3-C ,  5-H ) :   1.0045 B(  4-C , 20-C ) :   1.0391
B(  6-C ,  7-H ) :   0.9442 B(  6-C ,  8-H ) :   0.9423 B(  6-C ,  9-C ) :   1.0549
B(  9-C , 10-H ) :   0.9592 B(  9-C , 11-H ) :   0.9615 B(  9-C , 12-C ) :   1.0808
B( 12-C , 13-H ) :   0.9738 B( 12-C , 14-H ) :   0.9759 B( 12-C , 15-H ) :   0.9718
B( 16-S , 17-C ) :   1.1716 B( 16-S , 20-C ) :   1.1430 B( 17-C , 18-C ) :   1.6255
B( 17-C , 33-H ) :   0.9688 B( 18-C , 19-C ) :   1.2097 B( 18-C , 21-H ) :   0.9868
B( 19-C , 20-C ) :   1.5918 B( 19-C , 22-C ) :   1.0477 B( 22-C , 23-H ) :   0.9386
B( 22-C , 24-H ) :   0.9393 B( 22-C , 25-C ) :   1.0534 B( 25-C , 26-H ) :   0.9590
B( 25-C , 27-H ) :   0.9573 B( 25-C , 28-C ) :   1.0792 B( 28-C , 29-H ) :   0.9694
B( 28-C , 30-H ) :   0.9690 B( 28-C , 31-H ) :   0.9711

Dispersion correction           -0.014920477
FINAL SINGLE POINT ENERGY     -1339.873125013804

DIPOLE MOMENT
-------------
                                X             Y             Z
Electronic contribution:     -3.45516      -5.82078      20.14151
Nuclear contribution   :      3.55507       6.14857     -20.60432
                        -----------------------------------------
Total Dipole Moment    :      0.09991       0.32780      -0.46281
                        -----------------------------------------
Magnitude (a.u.)       :      0.57587
Magnitude (Debye)      :      1.46375

Rotational constants in cm-1:     0.022613     0.007450     0.006865
Rotational constants in MHz :   677.908507   223.339128   205.793389

                             ****ORCA TERMINATED NORMALLY****
TOTAL RUN TIME: 0 days 0 hours 0 minutes 21 seconds 704 msec
