                         Program Version 4.2.1 -  RELEASE  -
|  1> ! wB97X-D3 SP def2-SVP
|  2> %pal
|  3> nprocs 24
|  4> end
|  5>
|  6> * xyz 0 1
|  7> S 	 -41.0323 	 -1.62078 	 -24.9335
|  8> C 	 -41.7 	 -0.788685 	 -23.6244
|  9> C 	 -42.9148 	 -1.35231 	 -23.2426
| 10> C 	 -43.0607 	 -2.67359 	 -23.8027
| 11> C 	 -41.9973 	 -3.03855 	 -24.5602
| 12> H 	 -43.7596 	 -3.4531 	 -23.5517
| 13> C 	 -43.9061 	 -0.811247 	 -22.2911
| 14> H 	 -43.2752 	 -0.405017 	 -21.4903
| 15> H 	 -44.2655 	 -1.69679 	 -21.699
| 16> C 	 -45.0328 	 0.123574 	 -22.8866
| 17> H 	 -45.6868 	 0.505351 	 -22.0143
| 18> H 	 -44.5137 	 0.974834 	 -23.3054
| 19> C 	 -45.9885 	 -0.632639 	 -23.8825
| 20> H 	 -45.3932 	 -1.17991 	 -24.578
| 21> H 	 -46.5387 	 -1.34272 	 -23.284
| 22> H 	 -46.5755 	 0.157459 	 -24.3474
| 23> S 	 -41.5885 	 -4.38713 	 -26.8743
| 24> C 	 -41.213 	 -6.11583 	 -26.8746
| 25> C 	 -41.4001 	 -6.65045 	 -25.6192
| 26> C 	 -41.6868 	 -5.62338 	 -24.6236
| 27> C 	 -41.751 	 -4.37127 	 -25.1414
| 28> H 	 -41.3319 	 -7.77379 	 -25.4864
| 29> C 	 -42.0301 	 -5.93455 	 -23.1972
| 30> H 	 -42.4154 	 -6.97657 	 -23.0006
| 31> H 	 -42.9255 	 -5.32722 	 -23.0561
| 32> C 	 -41.0962 	 -5.45584 	 -22.1184
| 33> H 	 -40.9387 	 -4.40248 	 -22.389
| 34> H 	 -40.1274 	 -5.8918 	 -22.1124
| 35> C 	 -41.5951 	 -5.57147 	 -20.7069
| 36> H 	 -40.8622 	 -5.17836 	 -20.0141
| 37> H 	 -41.9381 	 -6.61555 	 -20.5972
| 38> H 	 -42.4217 	 -4.85766 	 -20.4833
| 39> H 	 -41.3659 	 0.171021 	 -23.2499
| 40> H 	 -41.0979 	 -6.78007 	 -27.7618
| 41> *
| 42>
| 43>                          ****END OF INPUT****

CARTESIAN COORDINATES (ANGSTROEM)
---------------------------------
  S    -41.032300   -1.620780  -24.933500
  C    -41.700000   -0.788685  -23.624400
  C    -42.914800   -1.352310  -23.242600
  C    -43.060700   -2.673590  -23.802700
  C    -41.997300   -3.038550  -24.560200
  H    -43.759600   -3.453100  -23.551700
  C    -43.906100   -0.811247  -22.291100
  H    -43.275200   -0.405017  -21.490300
  H    -44.265500   -1.696790  -21.699000
  C    -45.032800    0.123574  -22.886600
  H    -45.686800    0.505351  -22.014300
  H    -44.513700    0.974834  -23.305400
  C    -45.988500   -0.632639  -23.882500
  H    -45.393200   -1.179910  -24.578000
  H    -46.538700   -1.342720  -23.284000
  H    -46.575500    0.157459  -24.347400
  S    -41.588500   -4.387130  -26.874300
  C    -41.213000   -6.115830  -26.874600
  C    -41.400100   -6.650450  -25.619200
  C    -41.686800   -5.623380  -24.623600
  C    -41.751000   -4.371270  -25.141400
  H    -41.331900   -7.773790  -25.486400
  C    -42.030100   -5.934550  -23.197200
  H    -42.415400   -6.976570  -23.000600
  H    -42.925500   -5.327220  -23.056100
  C    -41.096200   -5.455840  -22.118400
  H    -40.938700   -4.402480  -22.389000
  H    -40.127400   -5.891800  -22.112400
  C    -41.595100   -5.571470  -20.706900
  H    -40.862200   -5.178360  -20.014100
  H    -41.938100   -6.615550  -20.597200
  H    -42.421700   -4.857660  -20.483300
  H    -41.365900    0.171021  -23.249900
  H    -41.097900   -6.780070  -27.761800

 Total Charge           Charge          ....    0
 Multiplicity           Mult            ....    1
 Number of Electrons    NEL             ....  134
 Basis Dimension        Dim             ....  322

ORBITAL ENERGIES
----------------

  NO   OCC          E(Eh)            E(eV)
   0   2.0000     -88.965635     -2420.8780
   1   2.0000     -88.963025     -2420.8070
   2   2.0000     -10.327655      -281.0298
   3   2.0000     -10.324438      -280.9422
   4   2.0000     -10.319602      -280.8107
   5   2.0000     -10.313046      -280.6322
   6   2.0000     -10.303535      -280.3734
   7   2.0000     -10.301507      -280.3183
   8   2.0000     -10.301133      -280.3081
   9   2.0000     -10.300004      -280.2774
  10   2.0000     -10.294274      -280.1214
  11   2.0000     -10.292130      -280.0631
  12   2.0000     -10.290200      -280.0106
  13   2.0000     -10.278610      -279.6952
  14   2.0000     -10.277373      -279.6615
  15   2.0000     -10.273957      -279.5686
  16   2.0000      -8.081640      -219.9126
  17   2.0000      -8.077875      -219.8101
  18   2.0000      -6.040135      -164.3604
  19   2.0000      -6.036548      -164.2628
  20   2.0000      -6.036162      -164.2523
  21   2.0000      -6.032442      -164.1511
  22   2.0000      -6.032118      -164.1423
  23   2.0000      -6.028383      -164.0406
  24   2.0000      -1.014283       -27.6000
  25   2.0000      -0.989420       -26.9235
  26   2.0000      -0.914301       -24.8794
  27   2.0000      -0.907075       -24.6828
  28   2.0000      -0.871427       -23.7127
  29   2.0000      -0.853149       -23.2154
  30   2.0000      -0.847641       -23.0655
  31   2.0000      -0.820597       -22.3296
  32   2.0000      -0.779892       -21.2220
  33   2.0000      -0.769557       -20.9407
  34   2.0000      -0.703855       -19.1529
  35   2.0000      -0.702861       -19.1258
  36   2.0000      -0.687240       -18.7008
  37   2.0000      -0.662415       -18.0252
  38   2.0000      -0.645432       -17.5631
  39   2.0000      -0.614277       -16.7153
  40   2.0000      -0.592889       -16.1333
  41   2.0000      -0.571555       -15.5528
  42   2.0000      -0.566365       -15.4116
  43   2.0000      -0.549623       -14.9560
  44   2.0000      -0.543360       -14.7856
  45   2.0000      -0.528125       -14.3710
  46   2.0000      -0.517548       -14.0832
  47   2.0000      -0.508443       -13.8354
  48   2.0000      -0.505278       -13.7493
  49   2.0000      -0.499005       -13.5786
  50   2.0000      -0.497435       -13.5359
  51   2.0000      -0.483412       -13.1543
  52   2.0000      -0.471911       -12.8414
  53   2.0000      -0.465648       -12.6709
  54   2.0000      -0.458643       -12.4803
  55   2.0000      -0.447370       -12.1735
  56   2.0000      -0.438630       -11.9357
  57   2.0000      -0.435615       -11.8537
  58   2.0000      -0.431415       -11.7394
  59   2.0000      -0.423663       -11.5285
  60   2.0000      -0.420596       -11.4450
  61   2.0000      -0.412236       -11.2175
  62   2.0000      -0.407256       -11.0820
  63   2.0000      -0.350611        -9.5406
  64   2.0000      -0.330079        -8.9819
  65   2.0000      -0.325465        -8.8564
  66   2.0000      -0.293987        -7.9998
  67   0.0000       0.031144         0.8475
  68   0.0000       0.059736         1.6255
  69   0.0000       0.101158         2.7526
  70   0.0000       0.119696         3.2571
  71   0.0000       0.131688         3.5834

MULLIKEN ATOMIC CHARGES
-----------------------
   0 S :    0.130436
   1 C :   -0.096037
   2 C :   -0.112456
   3 C :    0.038655
   4 C :   -0.162018
   5 H :    0.017843
   6 C :    0.029494
   7 H :    0.022290
   8 H :    0.020902
   9 C :   -0.079360
  10 H :    0.044905
  11 H :    0.032566
  12 C :   -0.027872
  13 H :    0.039470
  14 H :    0.030988
  15 H :    0.047455
  16 S :    0.092884
  17 C :   -0.103601
  18 C :   -0.063506
  19 C :   -0.023753
  20 C :   -0.158695
  21 H :    0.045106
  22 C :    0.057903
  23 H :    0.022212
  24 H :   -0.000893
  25 C :   -0.062299
  26 H :    0.031595
  27 H :    0.020909
  28 C :   -0.041981
  29 H :    0.034845
  30 H :    0.038261
  31 H :    0.020764
  32 H :    0.042278
  33 H :    0.070712
Sum of atomic charges:    0.0000000

LOEWDIN ATOMIC CHARGES
----------------------
   0 S :    0.423505
   1 C :   -0.208140
   2 C :   -0.067654
   3 C :   -0.062439
   4 C :   -0.195035
   5 H :    0.029956
   6 C :   -0.052890
   7 H :    0.034472
   8 H :    0.032445
   9 C :   -0.034851
  10 H :    0.032540
  11 H :    0.019831
  12 C :   -0.055914
  13 H :    0.022096
  14 H :    0.025425
  15 H :    0.031399
  16 S :    0.394448
  17 C :   -0.190848
  18 C :   -0.075666
  19 C :   -0.060466
  20 C :   -0.193931
  21 H :    0.044701
  22 C :   -0.039122
  23 H :    0.030512
  24 H :    0.029296
  25 C :   -0.045433
  26 H :    0.028441
  27 H :    0.018923
  28 C :   -0.066230
  29 H :    0.029477
  30 H :    0.028321
  31 H :    0.024676
  32 H :    0.028238
  33 H :    0.039916

  Mayer bond orders larger than 0.100000
B(  0-S ,  1-C ) :   1.1505 B(  0-S ,  4-C ) :   1.1417 B(  1-C ,  2-C ) :   1.6031
B(  1-C , 32-H ) :   0.9705 B(  2-C ,  3-C ) :   1.2081 B(  2-C ,  6-C ) :   1.0234
B(  3-C ,  4-C ) :   1.5916 B(  3-C ,  5-H ) :   0.9937 B(  4-C , 20-C ) :   1.0134
B(  6-C ,  7-H ) :   0.9385 B(  6-C ,  8-H ) :   0.9452 B(  6-C ,  9-C ) :   1.0407
B(  9-C , 10-H ) :   0.9586 B(  9-C , 11-H ) :   0.9612 B(  9-C , 12-C ) :   1.0602
B( 12-C , 13-H ) :   0.9793 B( 12-C , 14-H ) :   0.9769 B( 12-C , 15-H ) :   0.9750
B( 16-S , 17-C ) :   1.1346 B( 16-S , 20-C ) :   1.1359 B( 17-C , 18-C ) :   1.6479
B( 17-C , 33-H ) :   0.9599 B( 18-C , 19-C ) :   1.2072 B( 18-C , 21-H ) :   0.9806
B( 19-C , 20-C ) :   1.6542 B( 19-C , 22-C ) :   1.0370 B( 22-C , 23-H ) :   0.9318
B( 22-C , 24-H ) :   0.9338 B( 22-C , 25-C ) :   1.0625 B( 25-C , 26-H ) :   0.9491
B( 25-C , 27-H ) :   0.9518 B( 25-C , 28-C ) :   1.0951 B( 28-C , 29-H ) :   0.9698
B( 28-C , 30-H ) :   0.9723 B( 28-C , 31-H ) :   0.9712

Dispersion correction           -0.015043258
FINAL SINGLE POINT ENERGY     -1339.860086202023

DIPOLE MOMENT
-------------
                                X             Y             Z
Electronic contribution:     13.59426      -0.37112     -22.08370
Nuclear contribution   :    -13.97553       0.29829      22.58922
                        -----------------------------------------
Total Dipole Moment    :     -0.38127      -0.07283       0.50552
                        -----------------------------------------
Magnitude (a.u.)       :      0.63735
Magnitude (Debye)      :      1.62003

Rotational constants in cm-1:     0.018073     0.009334     0.007599
Rotational constants in MHz :   541.800237   279.836388   227.817444

                             ****ORCA TERMINATED NORMALLY****
TOTAL RUN TIME: 0 days 0 hours 0 minutes 22 seconds 517 msec
