                         Program Version 4.2.1 -  RELEASE  -
|  1> ! wB97X-D3 SP def2-SVP
|  2> %pal
|  3> nprocs 24
|  4> end
|  5>
|  6> * xyz 0 1
|  7> S 	 33.6514 	 -25.3261 	 -118.899
|  8> C 	 35.1669 	 -24.6848 	 -118.244
|  9> C 	 36.2524 	 -25.4776 	 -118.427
| 10> C 	 35.8937 	 -26.6092 	 -119.186
| 11> C 	 34.5612 	 -26.6365 	 -119.576
| 12> H 	 36.6006 	 -27.3626 	 -119.478
| 13> C 	 37.6733 	 -25.3078 	 -118.014
| 14> H 	 37.8691 	 -24.2344 	 -118.065
| 15> H 	 38.3842 	 -25.6998 	 -118.722
| 16> C 	 37.9881 	 -25.9033 	 -116.687
| 17> H 	 37.4342 	 -26.8186 	 -116.615
| 18> H 	 39.0041 	 -26.1978 	 -116.686
| 19> C 	 37.7028 	 -24.9882 	 -115.513
| 20> H 	 38.3133 	 -25.19 	 -114.606
| 21> H 	 37.908 	 -23.9922 	 -115.822
| 22> H 	 36.6503 	 -25.0253 	 -115.219
| 23> S 	 33.4846 	 -27.1116 	 -122.094
| 24> C 	 32.6326 	 -28.6678 	 -122.342
| 25> C 	 32.8493 	 -29.6008 	 -121.319
| 26> C 	 33.5796 	 -28.9016 	 -120.238
| 27> C 	 33.9335 	 -27.5716 	 -120.455
| 28> H 	 32.6693 	 -30.6091 	 -121.432
| 29> C 	 33.9863 	 -29.6632 	 -118.977
| 30> H 	 33.0352 	 -29.9166 	 -118.434
| 31> H 	 34.5223 	 -29.0534 	 -118.203
| 32> C 	 34.9084 	 -30.9303 	 -119.218
| 33> H 	 34.483 	 -31.8152 	 -119.654
| 34> H 	 35.1469 	 -31.2449 	 -118.186
| 35> C 	 36.1165 	 -30.71 	 -120.126
| 36> H 	 36.8881 	 -31.4436 	 -119.898
| 37> H 	 36.6887 	 -29.8344 	 -119.936
| 38> H 	 35.9643 	 -30.7648 	 -121.206
| 39> H 	 35.2358 	 -23.8583 	 -117.504
| 40> H 	 32.1366 	 -28.9087 	 -123.256
| 41> *
| 42>
| 43>                          ****END OF INPUT****

CARTESIAN COORDINATES (ANGSTROEM)
---------------------------------
  S     33.651400  -25.326100  -118.899000
  C     35.166900  -24.684800  -118.244000
  C     36.252400  -25.477600  -118.427000
  C     35.893700  -26.609200  -119.186000
  C     34.561200  -26.636500  -119.576000
  H     36.600600  -27.362600  -119.478000
  C     37.673300  -25.307800  -118.014000
  H     37.869100  -24.234400  -118.065000
  H     38.384200  -25.699800  -118.722000
  C     37.988100  -25.903300  -116.687000
  H     37.434200  -26.818600  -116.615000
  H     39.004100  -26.197800  -116.686000
  C     37.702800  -24.988200  -115.513000
  H     38.313300  -25.190000  -114.606000
  H     37.908000  -23.992200  -115.822000
  H     36.650300  -25.025300  -115.219000
  S     33.484600  -27.111600  -122.094000
  C     32.632600  -28.667800  -122.342000
  C     32.849300  -29.600800  -121.319000
  C     33.579600  -28.901600  -120.238000
  C     33.933500  -27.571600  -120.455000
  H     32.669300  -30.609100  -121.432000
  C     33.986300  -29.663200  -118.977000
  H     33.035200  -29.916600  -118.434000
  H     34.522300  -29.053400  -118.203000
  C     34.908400  -30.930300  -119.218000
  H     34.483000  -31.815200  -119.654000
  H     35.146900  -31.244900  -118.186000
  C     36.116500  -30.710000  -120.126000
  H     36.888100  -31.443600  -119.898000
  H     36.688700  -29.834400  -119.936000
  H     35.964300  -30.764800  -121.206000
  H     35.235800  -23.858300  -117.504000
  H     32.136600  -28.908700  -123.256000

 Total Charge           Charge          ....    0
 Multiplicity           Mult            ....    1
 Number of Electrons    NEL             ....  134
 Basis Dimension        Dim             ....  322

ORBITAL ENERGIES
----------------

  NO   OCC          E(Eh)            E(eV)
   0   2.0000     -88.968403     -2420.9533
   1   2.0000     -88.962944     -2420.8048
   2   2.0000     -10.324057      -280.9319
   3   2.0000     -10.322806      -280.8978
   4   2.0000     -10.321342      -280.8580
   5   2.0000     -10.313637      -280.6483
   6   2.0000     -10.306868      -280.4641
   7   2.0000     -10.297889      -280.2198
   8   2.0000     -10.296399      -280.1792
   9   2.0000     -10.293026      -280.0875
  10   2.0000     -10.290421      -280.0166
  11   2.0000     -10.289105      -279.9808
  12   2.0000     -10.286359      -279.9061
  13   2.0000     -10.277071      -279.6533
  14   2.0000     -10.275892      -279.6212
  15   2.0000     -10.272763      -279.5361
  16   2.0000      -8.083084      -219.9519
  17   2.0000      -8.077008      -219.7866
  18   2.0000      -6.041503      -164.3977
  19   2.0000      -6.037754      -164.2956
  20   2.0000      -6.035634      -164.2380
  21   2.0000      -6.033777      -164.1874
  22   2.0000      -6.031685      -164.1305
  23   2.0000      -6.027598      -164.0193
  24   2.0000      -1.005985       -27.3742
  25   2.0000      -0.977335       -26.5946
  26   2.0000      -0.924759       -25.1640
  27   2.0000      -0.896985       -24.4082
  28   2.0000      -0.871349       -23.7106
  29   2.0000      -0.850774       -23.1507
  30   2.0000      -0.841581       -22.9006
  31   2.0000      -0.811297       -22.0765
  32   2.0000      -0.788927       -21.4678
  33   2.0000      -0.771275       -20.9875
  34   2.0000      -0.712372       -19.3846
  35   2.0000      -0.702319       -19.1111
  36   2.0000      -0.693198       -18.8629
  37   2.0000      -0.661553       -18.0018
  38   2.0000      -0.639070       -17.3900
  39   2.0000      -0.623964       -16.9789
  40   2.0000      -0.593332       -16.1454
  41   2.0000      -0.580267       -15.7899
  42   2.0000      -0.556841       -15.1524
  43   2.0000      -0.543511       -14.7897
  44   2.0000      -0.541131       -14.7249
  45   2.0000      -0.535298       -14.5662
  46   2.0000      -0.520005       -14.1501
  47   2.0000      -0.518873       -14.1192
  48   2.0000      -0.494017       -13.4429
  49   2.0000      -0.491232       -13.3671
  50   2.0000      -0.486943       -13.2504
  51   2.0000      -0.477107       -12.9827
  52   2.0000      -0.471249       -12.8233
  53   2.0000      -0.460036       -12.5182
  54   2.0000      -0.458370       -12.4729
  55   2.0000      -0.450971       -12.2715
  56   2.0000      -0.449252       -12.2248
  57   2.0000      -0.439055       -11.9473
  58   2.0000      -0.432026       -11.7560
  59   2.0000      -0.424515       -11.5516
  60   2.0000      -0.419449       -11.4138
  61   2.0000      -0.414427       -11.2771
  62   2.0000      -0.408625       -11.1193
  63   2.0000      -0.337416        -9.1815
  64   2.0000      -0.330256        -8.9867
  65   2.0000      -0.322965        -8.7883
  66   2.0000      -0.300580        -8.1792
  67   0.0000       0.038571         1.0496
  68   0.0000       0.058428         1.5899
  69   0.0000       0.106371         2.8945
  70   0.0000       0.115419         3.1407
  71   0.0000       0.126661         3.4466

MULLIKEN ATOMIC CHARGES
-----------------------
   0 S :    0.132917
   1 C :   -0.131026
   2 C :   -0.081653
   3 C :    0.046403
   4 C :   -0.178697
   5 H :   -0.002933
   6 C :    0.053358
   7 H :    0.022667
   8 H :    0.019539
   9 C :   -0.019609
  10 H :    0.018369
  11 H :    0.013437
  12 C :   -0.039853
  13 H :    0.039765
  14 H :    0.011581
  15 H :    0.035781
  16 S :    0.103421
  17 C :   -0.092675
  18 C :    0.016389
  19 C :   -0.031563
  20 C :   -0.161683
  21 H :    0.004075
  22 C :    0.022730
  23 H :    0.041295
  24 H :    0.038483
  25 C :   -0.069492
  26 H :    0.024427
  27 H :    0.031120
  28 C :   -0.037428
  29 H :    0.020991
  30 H :    0.004468
  31 H :    0.044490
  32 H :    0.048216
  33 H :    0.052692
Sum of atomic charges:    0.0000000

LOEWDIN ATOMIC CHARGES
----------------------
   0 S :    0.414165
   1 C :   -0.195203
   2 C :   -0.067195
   3 C :   -0.050340
   4 C :   -0.201358
   5 H :    0.026368
   6 C :   -0.029722
   7 H :    0.030820
   8 H :    0.032482
   9 C :   -0.037142
  10 H :    0.024152
  11 H :    0.019841
  12 C :   -0.062793
  13 H :    0.031590
  14 H :    0.016647
  15 H :    0.027264
  16 S :    0.381636
  17 C :   -0.157472
  18 C :   -0.056345
  19 C :   -0.047677
  20 C :   -0.213813
  21 H :    0.021793
  22 C :   -0.042363
  23 H :    0.036570
  24 H :    0.033721
  25 C :   -0.041889
  26 H :    0.020171
  27 H :    0.028879
  28 C :   -0.071719
  29 H :    0.030263
  30 H :    0.015788
  31 H :    0.030353
  32 H :    0.031033
  33 H :    0.021495

  Mayer bond orders larger than 0.100000
B(  0-S ,  1-C ) :   1.1304 B(  0-S ,  4-C ) :   1.1587 B(  1-C ,  2-C ) :   1.6442
B(  1-C , 32-H ) :   0.9516 B(  2-C ,  3-C ) :   1.2468 B(  2-C ,  6-C ) :   1.0213
B(  3-C ,  4-C ) :   1.5695 B(  3-C ,  5-H ) :   0.9994 B(  4-C , 20-C ) :   1.0430
B(  6-C ,  7-H ) :   0.9408 B(  6-C ,  8-H ) :   0.9370 B(  6-C ,  9-C ) :   1.0767
B(  9-C , 10-H ) :   0.9503 B(  9-C , 11-H ) :   0.9522 B(  9-C , 12-C ) :   1.0778
B( 12-C , 13-H ) :   0.9751 B( 12-C , 14-H ) :   0.9764 B( 12-C , 15-H ) :   0.9743
B( 16-S , 17-C ) :   1.1546 B( 16-S , 20-C ) :   1.1116 B( 17-C , 18-C ) :   1.6210
B( 17-C , 33-H ) :   0.9683 B( 18-C , 19-C ) :   1.2010 B( 18-C , 21-H ) :   1.0016
B( 19-C , 20-C ) :   1.6276 B( 19-C , 22-C ) :   1.0504 B( 22-C , 23-H ) :   0.9379
B( 22-C , 24-H ) :   0.9420 B( 22-C , 25-C ) :   1.0529 B( 25-C , 26-H ) :   0.9577
B( 25-C , 27-H ) :   0.9606 B( 25-C , 28-C ) :   1.0703 B( 28-C , 29-H ) :   0.9655
B( 28-C , 30-H ) :   0.9758 B( 28-C , 31-H ) :   0.9726

Dispersion correction           -0.015366195
FINAL SINGLE POINT ENERGY     -1339.867235418487

DIPOLE MOMENT
-------------
                                X             Y             Z
Electronic contribution:    -19.57122      10.66069     -16.00167
Nuclear contribution   :     20.11541     -11.13467      16.31142
                        -----------------------------------------
Total Dipole Moment    :      0.54419      -0.47398       0.30975
                        -----------------------------------------
Magnitude (a.u.)       :      0.78533
Magnitude (Debye)      :      1.99616

Rotational constants in cm-1:     0.020924     0.008730     0.006958
Rotational constants in MHz :   627.284280   261.723223   208.592475

                             ****ORCA TERMINATED NORMALLY****
TOTAL RUN TIME: 0 days 0 hours 0 minutes 22 seconds 272 msec
