                         Program Version 4.2.1 -  RELEASE  -
|  1> ! wB97X-D3 SP def2-SVP
|  2> %pal
|  3> nprocs 24
|  4> end
|  5>
|  6> * xyz 0 1
|  7> S 	 -116.288 	 31.9607 	 -21.3655
|  8> C 	 -116.786 	 31.1702 	 -22.9048
|  9> C 	 -117.067 	 29.8386 	 -22.7081
| 10> C 	 -116.814 	 29.3654 	 -21.3854
| 11> C 	 -116.269 	 30.3528 	 -20.5398
| 12> H 	 -117.155 	 28.3957 	 -20.9499
| 13> C 	 -117.519 	 28.9263 	 -23.8113
| 14> H 	 -118.083 	 29.5508 	 -24.564
| 15> H 	 -118.116 	 28.1126 	 -23.322
| 16> C 	 -116.392 	 28.2683 	 -24.6345
| 17> H 	 -115.809 	 29.1134 	 -25.1213
| 18> H 	 -115.656 	 27.7288 	 -23.982
| 19> C 	 -116.836 	 27.3692 	 -25.8458
| 20> H 	 -117.168 	 26.3279 	 -25.4455
| 21> H 	 -117.736 	 27.787 	 -26.336
| 22> H 	 -115.966 	 27.312 	 -26.5006
| 23> S 	 -116.118 	 31.4226 	 -18.0141
| 24> C 	 -114.91 	 30.827 	 -16.8905
| 25> C 	 -114.662 	 29.5063 	 -17.283
| 26> C 	 -115.169 	 29.0619 	 -18.5757
| 27> C 	 -115.807 	 30.1189 	 -19.1946
| 28> H 	 -114.089 	 28.9073 	 -16.6197
| 29> C 	 -114.862 	 27.7634 	 -19.1586
| 30> H 	 -115.814 	 27.344 	 -19.4179
| 31> H 	 -114.395 	 27.0345 	 -18.5364
| 32> C 	 -114.012 	 27.748 	 -20.399
| 33> H 	 -112.934 	 27.7905 	 -20.092
| 34> H 	 -114.214 	 28.5467 	 -21.128
| 35> C 	 -114.225 	 26.5426 	 -21.3175
| 36> H 	 -113.86 	 25.6223 	 -20.759
| 37> H 	 -113.661 	 26.6515 	 -22.2361
| 38> H 	 -115.243 	 26.2966 	 -21.7052
| 39> H 	 -116.946 	 31.7285 	 -23.8619
| 40> H 	 -114.645 	 31.1323 	 -15.9049
| 41> *
| 42>
| 43>                          ****END OF INPUT****

CARTESIAN COORDINATES (ANGSTROEM)
---------------------------------
  S    -116.288000   31.960700  -21.365500
  C    -116.786000   31.170200  -22.904800
  C    -117.067000   29.838600  -22.708100
  C    -116.814000   29.365400  -21.385400
  C    -116.269000   30.352800  -20.539800
  H    -117.155000   28.395700  -20.949900
  C    -117.519000   28.926300  -23.811300
  H    -118.083000   29.550800  -24.564000
  H    -118.116000   28.112600  -23.322000
  C    -116.392000   28.268300  -24.634500
  H    -115.809000   29.113400  -25.121300
  H    -115.656000   27.728800  -23.982000
  C    -116.836000   27.369200  -25.845800
  H    -117.168000   26.327900  -25.445500
  H    -117.736000   27.787000  -26.336000
  H    -115.966000   27.312000  -26.500600
  S    -116.118000   31.422600  -18.014100
  C    -114.910000   30.827000  -16.890500
  C    -114.662000   29.506300  -17.283000
  C    -115.169000   29.061900  -18.575700
  C    -115.807000   30.118900  -19.194600
  H    -114.089000   28.907300  -16.619700
  C    -114.862000   27.763400  -19.158600
  H    -115.814000   27.344000  -19.417900
  H    -114.395000   27.034500  -18.536400
  C    -114.012000   27.748000  -20.399000
  H    -112.934000   27.790500  -20.092000
  H    -114.214000   28.546700  -21.128000
  C    -114.225000   26.542600  -21.317500
  H    -113.860000   25.622300  -20.759000
  H    -113.661000   26.651500  -22.236100
  H    -115.243000   26.296600  -21.705200
  H    -116.946000   31.728500  -23.861900
  H    -114.645000   31.132300  -15.904900

 Total Charge           Charge          ....    0
 Multiplicity           Mult            ....    1
 Number of Electrons    NEL             ....  134
 Basis Dimension        Dim             ....  322

ORBITAL ENERGIES
----------------

  NO   OCC          E(Eh)            E(eV)
   0   2.0000     -88.970765     -2421.0176
   1   2.0000     -88.962342     -2420.7884
   2   2.0000     -10.338944      -281.3370
   3   2.0000     -10.330394      -281.1043
   4   2.0000     -10.322998      -280.9031
   5   2.0000     -10.317936      -280.7653
   6   2.0000     -10.307537      -280.4823
   7   2.0000     -10.303645      -280.3764
   8   2.0000     -10.303319      -280.3676
   9   2.0000     -10.301363      -280.3143
  10   2.0000     -10.297803      -280.2175
  11   2.0000     -10.295552      -280.1562
  12   2.0000     -10.293377      -280.0970
  13   2.0000     -10.285994      -279.8961
  14   2.0000     -10.285822      -279.8914
  15   2.0000     -10.284178      -279.8467
  16   2.0000      -8.083507      -219.9634
  17   2.0000      -8.076574      -219.7748
  18   2.0000      -6.042236      -164.4176
  19   2.0000      -6.038417      -164.3137
  20   2.0000      -6.035295      -164.2287
  21   2.0000      -6.033988      -164.1932
  22   2.0000      -6.031275      -164.1193
  23   2.0000      -6.026992      -164.0028
  24   2.0000      -1.002577       -27.2815
  25   2.0000      -0.978225       -26.6189
  26   2.0000      -0.919526       -25.0216
  27   2.0000      -0.907107       -24.6836
  28   2.0000      -0.867807       -23.6142
  29   2.0000      -0.852106       -23.1870
  30   2.0000      -0.842793       -22.9336
  31   2.0000      -0.812791       -22.1172
  32   2.0000      -0.783155       -21.3107
  33   2.0000      -0.770758       -20.9734
  34   2.0000      -0.711351       -19.3569
  35   2.0000      -0.692122       -18.8336
  36   2.0000      -0.689901       -18.7732
  37   2.0000      -0.665883       -18.1196
  38   2.0000      -0.635481       -17.2923
  39   2.0000      -0.618189       -16.8218
  40   2.0000      -0.600393       -16.3375
  41   2.0000      -0.572459       -15.5774
  42   2.0000      -0.566085       -15.4039
  43   2.0000      -0.557262       -15.1639
  44   2.0000      -0.528506       -14.3814
  45   2.0000      -0.523577       -14.2472
  46   2.0000      -0.517250       -14.0751
  47   2.0000      -0.512705       -13.9514
  48   2.0000      -0.509568       -13.8661
  49   2.0000      -0.499849       -13.6016
  50   2.0000      -0.498493       -13.5647
  51   2.0000      -0.482151       -13.1200
  52   2.0000      -0.473300       -12.8791
  53   2.0000      -0.467722       -12.7274
  54   2.0000      -0.457237       -12.4420
  55   2.0000      -0.443230       -12.0609
  56   2.0000      -0.437878       -11.9153
  57   2.0000      -0.433446       -11.7947
  58   2.0000      -0.428230       -11.6527
  59   2.0000      -0.424488       -11.5509
  60   2.0000      -0.420649       -11.4465
  61   2.0000      -0.412355       -11.2207
  62   2.0000      -0.408933       -11.1276
  63   2.0000      -0.352287        -9.5862
  64   2.0000      -0.332198        -9.0396
  65   2.0000      -0.323693        -8.8081
  66   2.0000      -0.285202        -7.7607
  67   0.0000       0.008875         0.2415
  68   0.0000       0.072096         1.9618
  69   0.0000       0.094602         2.5743
  70   0.0000       0.113230         3.0811
  71   0.0000       0.127668         3.4740

MULLIKEN ATOMIC CHARGES
-----------------------
   0 S :    0.111893
   1 C :   -0.150304
   2 C :   -0.048440
   3 C :   -0.025559
   4 C :   -0.121461
   5 H :    0.040105
   6 C :    0.048919
   7 H :    0.031091
   8 H :    0.032840
   9 C :   -0.120938
  10 H :    0.029564
  11 H :    0.035368
  12 C :   -0.064669
  13 H :    0.043882
  14 H :    0.037804
  15 H :    0.051259
  16 S :    0.088164
  17 C :   -0.059333
  18 C :   -0.059599
  19 C :    0.007069
  20 C :   -0.173609
  21 H :    0.002862
  22 C :    0.113938
  23 H :    0.011621
  24 H :    0.010849
  25 C :   -0.095543
  26 H :    0.041662
  27 H :    0.051169
  28 C :   -0.091406
  29 H :    0.029301
  30 H :    0.038361
  31 H :    0.033409
  32 H :    0.068236
  33 H :    0.051493
Sum of atomic charges:   -0.0000000

LOEWDIN ATOMIC CHARGES
----------------------
   0 S :    0.370835
   1 C :   -0.187785
   2 C :   -0.068622
   3 C :   -0.066972
   4 C :   -0.173945
   5 H :    0.039987
   6 C :   -0.038617
   7 H :    0.035588
   8 H :    0.033667
   9 C :   -0.051324
  10 H :    0.026239
  11 H :    0.024610
  12 C :   -0.072217
  13 H :    0.032562
  14 H :    0.026205
  15 H :    0.029797
  16 S :    0.381082
  17 C :   -0.184793
  18 C :   -0.062225
  19 C :   -0.049999
  20 C :   -0.176783
  21 H :    0.020031
  22 C :   -0.036217
  23 H :    0.029247
  24 H :    0.031869
  25 C :   -0.043064
  26 H :    0.032041
  27 H :    0.028835
  28 C :   -0.073765
  29 H :    0.025170
  30 H :    0.025454
  31 H :    0.023112
  32 H :    0.040239
  33 H :    0.029758

  Mayer bond orders larger than 0.100000
B(  0-S ,  1-C ) :   1.1146 B(  0-S ,  4-C ) :   1.1341 B(  1-C ,  2-C ) :   1.6192
B(  1-C , 32-H ) :   0.9613 B(  2-C ,  3-C ) :   1.2329 B(  2-C ,  6-C ) :   1.0356
B(  3-C ,  4-C ) :   1.5469 B(  3-C ,  5-H ) :   0.9819 B(  4-C , 20-C ) :   1.1111
B(  6-C ,  7-H ) :   0.9342 B(  6-C ,  8-H ) :   0.9375 B(  6-C ,  9-C ) :   1.0677
B(  9-C , 10-H ) :   0.9573 B(  9-C , 11-H ) :   0.9533 B(  9-C , 12-C ) :   1.0658
B( 12-C , 13-H ) :   0.9756 B( 12-C , 14-H ) :   0.9745 B( 12-C , 15-H ) :   0.9765
B( 16-S , 17-C ) :   1.1234 B( 16-S , 20-C ) :   1.1313 B( 17-C , 18-C ) :   1.6223
B( 17-C , 33-H ) :   0.9701 B( 18-C , 19-C ) :   1.2239 B( 18-C , 21-H ) :   0.9888
B( 19-C , 20-C ) :   1.5598 B( 19-C , 22-C ) :   1.0659 B( 22-C , 23-H ) :   0.9215
B( 22-C , 24-H ) :   0.9239 B( 22-C , 25-C ) :   1.0567 B( 25-C , 26-H ) :   0.9521
B( 25-C , 27-H ) :   0.9570 B( 25-C , 28-C ) :   1.0810 B( 28-C , 29-H ) :   0.9713
B( 28-C , 30-H ) :   0.9722 B( 28-C , 31-H ) :   0.9714

Dispersion correction           -0.015397081
FINAL SINGLE POINT ENERGY     -1339.860045473644

DIPOLE MOMENT
-------------
                                X             Y             Z
Electronic contribution:     -4.31068      26.21401      21.02212
Nuclear contribution   :      4.39783     -26.91244     -21.28589
                        -----------------------------------------
Total Dipole Moment    :      0.08715      -0.69843      -0.26377
                        -----------------------------------------
Magnitude (a.u.)       :      0.75164
Magnitude (Debye)      :      1.91053

Rotational constants in cm-1:     0.021506     0.009017     0.006706
Rotational constants in MHz :   644.720377   270.322490   201.051285

                             ****ORCA TERMINATED NORMALLY****
TOTAL RUN TIME: 0 days 0 hours 0 minutes 22 seconds 530 msec
