                         Program Version 4.2.1 -  RELEASE  -
|  1> ! wB97X-D3 SP def2-SVP
|  2> %pal
|  3> nprocs 24
|  4> end
|  5>
|  6> * xyz 0 1
|  7> S 	 -44.7145 	 19.2774 	 31.0205
|  8> C 	 -43.6882 	 18.4772 	 29.8958
|  9> C 	 -43.9403 	 18.9656 	 28.6062
| 10> C 	 -44.9169 	 20.0493 	 28.6659
| 11> C 	 -45.241 	 20.4931 	 29.8983
| 12> H 	 -45.2795 	 20.6273 	 27.8397
| 13> C 	 -43.4523 	 18.383 	 27.2814
| 14> H 	 -42.9508 	 17.4136 	 27.5658
| 15> H 	 -42.6942 	 18.9969 	 26.8474
| 16> C 	 -44.4925 	 18.1983 	 26.1366
| 17> H 	 -45.3183 	 17.6281 	 26.6297
| 18> H 	 -44.8723 	 19.2238 	 25.8293
| 19> C 	 -43.9013 	 17.5573 	 24.858
| 20> H 	 -42.9769 	 18.1812 	 24.764
| 21> H 	 -43.5054 	 16.5596 	 25.0975
| 22> H 	 -44.6673 	 17.6328 	 24.0431
| 23> S 	 -47.8017 	 21.3025 	 30.7342
| 24> C 	 -48.1228 	 22.9995 	 30.9257
| 25> C 	 -47.0514 	 23.7951 	 30.5696
| 26> C 	 -45.9284 	 23.0225 	 30.0804
| 27> C 	 -46.0902 	 21.641 	 30.2706
| 28> H 	 -47.1301 	 24.8795 	 30.7153
| 29> C 	 -44.6929 	 23.6716 	 29.5389
| 30> H 	 -45.0628 	 24.6132 	 29.1164
| 31> H 	 -44.5051 	 23.0793 	 28.6848
| 32> C 	 -43.5337 	 23.8047 	 30.5593
| 33> H 	 -42.5911 	 23.9003 	 30.0732
| 34> H 	 -43.3903 	 22.905 	 31.1668
| 35> C 	 -43.6705 	 25.0529 	 31.5305
| 36> H 	 -44.728 	 25.0865 	 31.9339
| 37> H 	 -43.5249 	 25.9327 	 30.9843
| 38> H 	 -43.0251 	 24.9737 	 32.3756
| 39> H 	 -43.0258 	 17.7029 	 30.1885
| 40> H 	 -48.9645 	 23.3438 	 31.458
| 41> *
| 42>
| 43>                          ****END OF INPUT****

CARTESIAN COORDINATES (ANGSTROEM)
---------------------------------
  S    -44.714500   19.277400   31.020500
  C    -43.688200   18.477200   29.895800
  C    -43.940300   18.965600   28.606200
  C    -44.916900   20.049300   28.665900
  C    -45.241000   20.493100   29.898300
  H    -45.279500   20.627300   27.839700
  C    -43.452300   18.383000   27.281400
  H    -42.950800   17.413600   27.565800
  H    -42.694200   18.996900   26.847400
  C    -44.492500   18.198300   26.136600
  H    -45.318300   17.628100   26.629700
  H    -44.872300   19.223800   25.829300
  C    -43.901300   17.557300   24.858000
  H    -42.976900   18.181200   24.764000
  H    -43.505400   16.559600   25.097500
  H    -44.667300   17.632800   24.043100
  S    -47.801700   21.302500   30.734200
  C    -48.122800   22.999500   30.925700
  C    -47.051400   23.795100   30.569600
  C    -45.928400   23.022500   30.080400
  C    -46.090200   21.641000   30.270600
  H    -47.130100   24.879500   30.715300
  C    -44.692900   23.671600   29.538900
  H    -45.062800   24.613200   29.116400
  H    -44.505100   23.079300   28.684800
  C    -43.533700   23.804700   30.559300
  H    -42.591100   23.900300   30.073200
  H    -43.390300   22.905000   31.166800
  C    -43.670500   25.052900   31.530500
  H    -44.728000   25.086500   31.933900
  H    -43.524900   25.932700   30.984300
  H    -43.025100   24.973700   32.375600
  H    -43.025800   17.702900   30.188500
  H    -48.964500   23.343800   31.458000

 Total Charge           Charge          ....    0
 Multiplicity           Mult            ....    1
 Number of Electrons    NEL             ....  134
 Basis Dimension        Dim             ....  322

ORBITAL ENERGIES
----------------

  NO   OCC          E(Eh)            E(eV)
   0   2.0000     -88.962743     -2420.7993
   1   2.0000     -88.960834     -2420.7474
   2   2.0000     -10.331007      -281.1210
   3   2.0000     -10.325756      -280.9781
   4   2.0000     -10.316400      -280.7235
   5   2.0000     -10.313948      -280.6568
   6   2.0000     -10.308754      -280.5155
   7   2.0000     -10.307759      -280.4884
   8   2.0000     -10.296959      -280.1945
   9   2.0000     -10.296873      -280.1922
  10   2.0000     -10.296709      -280.1877
  11   2.0000     -10.291413      -280.0436
  12   2.0000     -10.291292      -280.0403
  13   2.0000     -10.288175      -279.9555
  14   2.0000     -10.286865      -279.9198
  15   2.0000     -10.275673      -279.6153
  16   2.0000      -8.077089      -219.7888
  17   2.0000      -8.076717      -219.7786
  18   2.0000      -6.035635      -164.2380
  19   2.0000      -6.035156      -164.2250
  20   2.0000      -6.031675      -164.1302
  21   2.0000      -6.031048      -164.1132
  22   2.0000      -6.027813      -164.0251
  23   2.0000      -6.027469      -164.0158
  24   2.0000      -1.006314       -27.3832
  25   2.0000      -0.982172       -26.7262
  26   2.0000      -0.907952       -24.7066
  27   2.0000      -0.904734       -24.6191
  28   2.0000      -0.869895       -23.6711
  29   2.0000      -0.845912       -23.0184
  30   2.0000      -0.842525       -22.9263
  31   2.0000      -0.816493       -22.2179
  32   2.0000      -0.781898       -21.2765
  33   2.0000      -0.769534       -20.9401
  34   2.0000      -0.712176       -19.3793
  35   2.0000      -0.696553       -18.9542
  36   2.0000      -0.687222       -18.7003
  37   2.0000      -0.657772       -17.8989
  38   2.0000      -0.650371       -17.6975
  39   2.0000      -0.616769       -16.7831
  40   2.0000      -0.589899       -16.0520
  41   2.0000      -0.574558       -15.6345
  42   2.0000      -0.563252       -15.3269
  43   2.0000      -0.551296       -15.0015
  44   2.0000      -0.539366       -14.6769
  45   2.0000      -0.531738       -14.4693
  46   2.0000      -0.520745       -14.1702
  47   2.0000      -0.511401       -13.9159
  48   2.0000      -0.505823       -13.7642
  49   2.0000      -0.496498       -13.5104
  50   2.0000      -0.481850       -13.1118
  51   2.0000      -0.474806       -12.9201
  52   2.0000      -0.472440       -12.8557
  53   2.0000      -0.463472       -12.6117
  54   2.0000      -0.457621       -12.4525
  55   2.0000      -0.452080       -12.3017
  56   2.0000      -0.444476       -12.0948
  57   2.0000      -0.436786       -11.8856
  58   2.0000      -0.426377       -11.6023
  59   2.0000      -0.422299       -11.4913
  60   2.0000      -0.420343       -11.4381
  61   2.0000      -0.414870       -11.2892
  62   2.0000      -0.413942       -11.2639
  63   2.0000      -0.338619        -9.2143
  64   2.0000      -0.328201        -8.9308
  65   2.0000      -0.322101        -8.7648
  66   2.0000      -0.303842        -8.2680
  67   0.0000       0.035523         0.9666
  68   0.0000       0.057195         1.5564
  69   0.0000       0.112890         3.0719
  70   0.0000       0.117345         3.1931
  71   0.0000       0.131370         3.5748

MULLIKEN ATOMIC CHARGES
-----------------------
   0 S :    0.103994
   1 C :   -0.108287
   2 C :   -0.083839
   3 C :    0.049898
   4 C :   -0.181399
   5 H :    0.007009
   6 C :    0.056885
   7 H :    0.023792
   8 H :    0.023918
   9 C :   -0.138135
  10 H :    0.045223
  11 H :    0.041525
  12 C :   -0.038764
  13 H :    0.028928
  14 H :    0.035907
  15 H :    0.064105
  16 S :    0.095411
  17 C :   -0.076576
  18 C :   -0.045218
  19 C :   -0.081358
  20 C :   -0.149168
  21 H :    0.032098
  22 C :    0.124114
  23 H :    0.015709
  24 H :    0.008734
  25 C :   -0.043324
  26 H :    0.021725
  27 H :    0.035561
  28 C :   -0.047918
  29 H :    0.030389
  30 H :    0.023175
  31 H :    0.035167
  32 H :    0.043441
  33 H :    0.047277
Sum of atomic charges:   -0.0000000

LOEWDIN ATOMIC CHARGES
----------------------
   0 S :    0.418477
   1 C :   -0.193979
   2 C :   -0.063843
   3 C :   -0.059561
   4 C :   -0.206989
   5 H :    0.026278
   6 C :   -0.039592
   7 H :    0.032649
   8 H :    0.022995
   9 C :   -0.048326
  10 H :    0.024989
  11 H :    0.027149
  12 C :   -0.068627
  13 H :    0.031176
  14 H :    0.026299
  15 H :    0.038220
  16 S :    0.386184
  17 C :   -0.177565
  18 C :   -0.078721
  19 C :   -0.044250
  20 C :   -0.189447
  21 H :    0.036138
  22 C :   -0.031176
  23 H :    0.032413
  24 H :    0.027610
  25 C :   -0.029934
  26 H :    0.019248
  27 H :    0.028777
  28 C :   -0.058533
  29 H :    0.029920
  30 H :    0.014768
  31 H :    0.023161
  32 H :    0.023530
  33 H :    0.020562

  Mayer bond orders larger than 0.100000
B(  0-S ,  1-C ) :   1.1592 B(  0-S ,  4-C ) :   1.1458 B(  1-C ,  2-C ) :   1.5880
B(  1-C , 32-H ) :   0.9786 B(  2-C ,  3-C ) :   1.2226 B(  2-C ,  6-C ) :   1.0276
B(  3-C ,  4-C ) :   1.6078 B(  3-C ,  5-H ) :   0.9927 B(  4-C , 20-C ) :   1.0107
B(  6-C ,  7-H ) :   0.9457 B(  6-C ,  8-H ) :   0.9276 B(  6-C ,  9-C ) :   1.0642
B(  9-C , 10-H ) :   0.9602 B(  9-C , 11-H ) :   0.9479 B(  9-C , 12-C ) :   1.0674
B( 12-C , 13-H ) :   0.9718 B( 12-C , 14-H ) :   0.9751 B( 12-C , 15-H ) :   0.9725
B( 16-S , 17-C ) :   1.1624 B( 16-S , 20-C ) :   1.1314 B( 17-C , 18-C ) :   1.6221
B( 17-C , 20-C ) :   0.1008 B( 17-C , 33-H ) :   0.9668 B( 18-C , 19-C ) :   1.2216
B( 18-C , 21-H ) :   0.9850 B( 19-C , 20-C ) :   1.6139 B( 19-C , 22-C ) :   1.0357
B( 22-C , 23-H ) :   0.9345 B( 22-C , 24-H ) :   0.9201 B( 22-C , 25-C ) :   1.0542
B( 25-C , 26-H ) :   0.9584 B( 25-C , 27-H ) :   0.9622 B( 25-C , 28-C ) :   1.0680
B( 28-C , 29-H ) :   0.9777 B( 28-C , 30-H ) :   0.9792 B( 28-C , 31-H ) :   0.9763

Dispersion correction           -0.014231273
FINAL SINGLE POINT ENERGY     -1339.868091008624

DIPOLE MOMENT
-------------
                                X             Y             Z
Electronic contribution:    -14.39508      -5.23265      15.84412
Nuclear contribution   :     14.72326       5.47057     -16.29288
                        -----------------------------------------
Total Dipole Moment    :      0.32818       0.23792      -0.44876
                        -----------------------------------------
Magnitude (a.u.)       :      0.60472
Magnitude (Debye)      :      1.53708

Rotational constants in cm-1:     0.019495     0.007452     0.006915
Rotational constants in MHz :   584.440849   223.419664   207.305384

                             ****ORCA TERMINATED NORMALLY****
TOTAL RUN TIME: 0 days 0 hours 0 minutes 21 seconds 287 msec
