                         Program Version 4.2.1 -  RELEASE  -
|  1> ! wB97X-D3 SP def2-SVP
|  2> %pal
|  3> nprocs 24
|  4> end
|  5>
|  6> * xyz 0 1
|  7> S 	 -57.0915 	 -55.6621 	 -85.8765
|  8> C 	 -58.5408 	 -54.724 	 -85.3409
|  9> C 	 -59.5622 	 -55.5249 	 -84.8401
| 10> C 	 -59.1854 	 -56.9114 	 -84.822
| 11> C 	 -58.0102 	 -57.1688 	 -85.5171
| 12> H 	 -59.8581 	 -57.7109 	 -84.6071
| 13> C 	 -60.8827 	 -55.0714 	 -84.4246
| 14> H 	 -60.7808 	 -54.0489 	 -84.1459
| 15> H 	 -61.1161 	 -55.6147 	 -83.5038
| 16> C 	 -61.9817 	 -55.2016 	 -85.4389
| 17> H 	 -61.5919 	 -54.7688 	 -86.343
| 18> H 	 -62.0805 	 -56.2547 	 -85.6578
| 19> C 	 -63.1923 	 -54.4041 	 -85.0424
| 20> H 	 -63.5557 	 -54.8072 	 -84.1066
| 21> H 	 -63.0145 	 -53.3661 	 -84.9001
| 22> H 	 -63.9552 	 -54.5513 	 -85.8345
| 23> S 	 -55.9425 	 -58.9508 	 -85.8368
| 24> C 	 -56.2185 	 -60.5441 	 -86.529
| 25> C 	 -57.6113 	 -60.7545 	 -86.6246
| 26> C 	 -58.3863 	 -59.5542 	 -86.3342
| 27> C 	 -57.5902 	 -58.4934 	 -85.9691
| 28> H 	 -57.9689 	 -61.7094 	 -86.952
| 29> C 	 -59.899 	 -59.5643 	 -86.417
| 30> H 	 -60.4093 	 -59.3497 	 -85.4511
| 31> H 	 -59.9951 	 -60.593 	 -86.6671
| 32> C 	 -60.4669 	 -58.6479 	 -87.5212
| 33> H 	 -59.8606 	 -58.9838 	 -88.3614
| 34> H 	 -60.2814 	 -57.5735 	 -87.4723
| 35> C 	 -61.9686 	 -58.8758 	 -87.648
| 36> H 	 -62.4398 	 -58.3651 	 -88.4764
| 37> H 	 -62.6297 	 -58.6656 	 -86.742
| 38> H 	 -62.1454 	 -59.915 	 -87.7614
| 39> H 	 -58.6626 	 -53.6702 	 -85.4557
| 40> H 	 -55.4655 	 -61.2727 	 -86.7814
| 41> *
| 42>
| 43>                          ****END OF INPUT****

CARTESIAN COORDINATES (ANGSTROEM)
---------------------------------
  S    -57.091500  -55.662100  -85.876500
  C    -58.540800  -54.724000  -85.340900
  C    -59.562200  -55.524900  -84.840100
  C    -59.185400  -56.911400  -84.822000
  C    -58.010200  -57.168800  -85.517100
  H    -59.858100  -57.710900  -84.607100
  C    -60.882700  -55.071400  -84.424600
  H    -60.780800  -54.048900  -84.145900
  H    -61.116100  -55.614700  -83.503800
  C    -61.981700  -55.201600  -85.438900
  H    -61.591900  -54.768800  -86.343000
  H    -62.080500  -56.254700  -85.657800
  C    -63.192300  -54.404100  -85.042400
  H    -63.555700  -54.807200  -84.106600
  H    -63.014500  -53.366100  -84.900100
  H    -63.955200  -54.551300  -85.834500
  S    -55.942500  -58.950800  -85.836800
  C    -56.218500  -60.544100  -86.529000
  C    -57.611300  -60.754500  -86.624600
  C    -58.386300  -59.554200  -86.334200
  C    -57.590200  -58.493400  -85.969100
  H    -57.968900  -61.709400  -86.952000
  C    -59.899000  -59.564300  -86.417000
  H    -60.409300  -59.349700  -85.451100
  H    -59.995100  -60.593000  -86.667100
  C    -60.466900  -58.647900  -87.521200
  H    -59.860600  -58.983800  -88.361400
  H    -60.281400  -57.573500  -87.472300
  C    -61.968600  -58.875800  -87.648000
  H    -62.439800  -58.365100  -88.476400
  H    -62.629700  -58.665600  -86.742000
  H    -62.145400  -59.915000  -87.761400
  H    -58.662600  -53.670200  -85.455700
  H    -55.465500  -61.272700  -86.781400

 Total Charge           Charge          ....    0
 Multiplicity           Mult            ....    1
 Number of Electrons    NEL             ....  134
 Basis Dimension        Dim             ....  322

ORBITAL ENERGIES
----------------

  NO   OCC          E(Eh)            E(eV)
   0   2.0000     -88.968619     -2420.9592
   1   2.0000     -88.966249     -2420.8947
   2   2.0000     -10.334707      -281.2217
   3   2.0000     -10.323624      -280.9201
   4   2.0000     -10.322223      -280.8820
   5   2.0000     -10.315716      -280.7049
   6   2.0000     -10.303612      -280.3755
   7   2.0000     -10.301139      -280.3082
   8   2.0000     -10.298985      -280.2496
   9   2.0000     -10.293792      -280.1083
  10   2.0000     -10.291929      -280.0576
  11   2.0000     -10.286356      -279.9060
  12   2.0000     -10.281713      -279.7796
  13   2.0000     -10.280697      -279.7520
  14   2.0000     -10.278619      -279.6954
  15   2.0000     -10.278362      -279.6884
  16   2.0000      -8.081579      -219.9109
  17   2.0000      -8.081410      -219.9063
  18   2.0000      -6.040301      -164.3649
  19   2.0000      -6.039962      -164.3557
  20   2.0000      -6.036546      -164.2628
  21   2.0000      -6.035746      -164.2410
  22   2.0000      -6.032228      -164.1453
  23   2.0000      -6.032021      -164.1396
  24   2.0000      -1.005013       -27.3478
  25   2.0000      -0.978305       -26.6210
  26   2.0000      -0.923885       -25.1402
  27   2.0000      -0.913031       -24.8448
  28   2.0000      -0.869648       -23.6643
  29   2.0000      -0.853563       -23.2266
  30   2.0000      -0.847513       -23.0620
  31   2.0000      -0.814636       -22.1674
  32   2.0000      -0.782044       -21.2805
  33   2.0000      -0.771635       -20.9973
  34   2.0000      -0.712036       -19.3755
  35   2.0000      -0.707344       -19.2478
  36   2.0000      -0.695033       -18.9128
  37   2.0000      -0.669714       -18.2238
  38   2.0000      -0.638388       -17.3714
  39   2.0000      -0.624708       -16.9992
  40   2.0000      -0.593869       -16.1600
  41   2.0000      -0.578719       -15.7477
  42   2.0000      -0.565427       -15.3861
  43   2.0000      -0.561744       -15.2858
  44   2.0000      -0.530564       -14.4374
  45   2.0000      -0.527845       -14.3634
  46   2.0000      -0.516708       -14.0603
  47   2.0000      -0.513569       -13.9749
  48   2.0000      -0.511329       -13.9140
  49   2.0000      -0.497889       -13.5483
  50   2.0000      -0.490235       -13.3400
  51   2.0000      -0.487149       -13.2560
  52   2.0000      -0.476940       -12.9782
  53   2.0000      -0.468784       -12.7563
  54   2.0000      -0.455520       -12.3953
  55   2.0000      -0.448216       -12.1966
  56   2.0000      -0.445061       -12.1107
  57   2.0000      -0.442388       -12.0380
  58   2.0000      -0.435030       -11.8378
  59   2.0000      -0.430522       -11.7151
  60   2.0000      -0.422776       -11.5043
  61   2.0000      -0.416361       -11.3297
  62   2.0000      -0.407518       -11.0891
  63   2.0000      -0.348260        -9.4766
  64   2.0000      -0.331910        -9.0317
  65   2.0000      -0.328669        -8.9435
  66   2.0000      -0.287309        -7.8181
  67   0.0000       0.019070         0.5189
  68   0.0000       0.074485         2.0268
  69   0.0000       0.097237         2.6460
  70   0.0000       0.114662         3.1201
  71   0.0000       0.128717         3.5026

MULLIKEN ATOMIC CHARGES
-----------------------
   0 S :    0.099355
   1 C :   -0.102532
   2 C :   -0.117469
   3 C :    0.055247
   4 C :   -0.142418
   5 H :   -0.012387
   6 C :    0.073604
   7 H :   -0.002282
   8 H :    0.024299
   9 C :   -0.042380
  10 H :    0.012825
  11 H :    0.017065
  12 C :   -0.009412
  13 H :    0.020369
  14 H :    0.029123
  15 H :    0.040731
  16 S :    0.108444
  17 C :   -0.099221
  18 C :   -0.034955
  19 C :   -0.077632
  20 C :   -0.112521
  21 H :    0.016017
  22 C :    0.059760
  23 H :    0.041599
  24 H :    0.005053
  25 C :   -0.065014
  26 H :    0.029155
  27 H :    0.050966
  28 C :   -0.035299
  29 H :    0.035376
  30 H :    0.032831
  31 H :    0.007140
  32 H :    0.033857
  33 H :    0.060705
Sum of atomic charges:   -0.0000000

LOEWDIN ATOMIC CHARGES
----------------------
   0 S :    0.357193
   1 C :   -0.178235
   2 C :   -0.055900
   3 C :   -0.054339
   4 C :   -0.165909
   5 H :    0.024330
   6 C :   -0.035442
   7 H :    0.024493
   8 H :    0.032649
   9 C :   -0.037186
  10 H :    0.021935
  11 H :    0.022361
  12 C :   -0.055614
  13 H :    0.023122
  14 H :    0.022824
  15 H :    0.032867
  16 S :    0.419177
  17 C :   -0.184778
  18 C :   -0.068438
  19 C :   -0.061817
  20 C :   -0.208402
  21 H :    0.027047
  22 C :   -0.027793
  23 H :    0.026499
  24 H :    0.027168
  25 C :   -0.039557
  26 H :    0.029921
  27 H :    0.027298
  28 C :   -0.071162
  29 H :    0.025117
  30 H :    0.030808
  31 H :    0.018065
  32 H :    0.021127
  33 H :    0.030570

  Mayer bond orders larger than 0.100000
B(  0-S ,  1-C ) :   1.1035 B(  0-S ,  4-C ) :   1.1286 B(  1-C ,  2-C ) :   1.6482
B(  1-C , 32-H ) :   0.9659 B(  2-C ,  3-C ) :   1.2112 B(  2-C ,  6-C ) :   1.0466
B(  3-C ,  4-C ) :   1.5912 B(  3-C ,  5-H ) :   0.9865 B(  4-C , 20-C ) :   1.0569
B(  6-C ,  7-H ) :   0.9287 B(  6-C ,  8-H ) :   0.9249 B(  6-C ,  9-C ) :   1.0677
B(  9-C , 10-H ) :   0.9471 B(  9-C , 11-H ) :   0.9481 B(  9-C , 12-C ) :   1.0862
B( 12-C , 13-H ) :   0.9718 B( 12-C , 14-H ) :   0.9723 B( 12-C , 15-H ) :   0.9728
B( 16-S , 17-C ) :   1.1595 B( 16-S , 20-C ) :   1.1491 B( 17-C , 18-C ) :   1.5896
B( 17-C , 33-H ) :   0.9708 B( 18-C , 19-C ) :   1.2547 B( 18-C , 21-H ) :   0.9885
B( 19-C , 20-C ) :   1.5780 B( 19-C , 22-C ) :   1.0329 B( 22-C , 23-H ) :   0.9359
B( 22-C , 24-H ) :   0.9252 B( 22-C , 25-C ) :   1.0484 B( 25-C , 26-H ) :   0.9495
B( 25-C , 27-H ) :   0.9591 B( 25-C , 28-C ) :   1.0817 B( 28-C , 29-H ) :   0.9745
B( 28-C , 30-H ) :   0.9684 B( 28-C , 31-H ) :   0.9690

Dispersion correction           -0.015717727
FINAL SINGLE POINT ENERGY     -1339.871608329542

DIPOLE MOMENT
-------------
                                X             Y             Z
Electronic contribution:     33.44172      -2.99052       2.79692
Nuclear contribution   :    -34.22294       2.79996      -2.92334
                        -----------------------------------------
Total Dipole Moment    :     -0.78121      -0.19055      -0.12642
                        -----------------------------------------
Magnitude (a.u.)       :      0.81399
Magnitude (Debye)      :      2.06901

Rotational constants in cm-1:     0.020299     0.009614     0.006982
Rotational constants in MHz :   608.556823   288.215904   209.316020

                             ****ORCA TERMINATED NORMALLY****
TOTAL RUN TIME: 0 days 0 hours 0 minutes 21 seconds 983 msec
