                         Program Version 4.2.1 -  RELEASE  -
|  1> ! wB97X-D3 SP def2-SVP
|  2> %pal
|  3> nprocs 24
|  4> end
|  5>
|  6> * xyz 0 1
|  7> S 	 -58.5498 	 13.173 	 -98.9728
|  8> C 	 -57.8584 	 14.1394 	 -100.308
|  9> C 	 -57.2103 	 15.2318 	 -99.8615
| 10> C 	 -57.1346 	 15.2278 	 -98.4166
| 11> C 	 -57.7464 	 14.1609 	 -97.8146
| 12> H 	 -56.7317 	 15.9829 	 -97.8045
| 13> C 	 -56.3805 	 16.1503 	 -100.741
| 14> H 	 -56.2535 	 17.1484 	 -100.305
| 15> H 	 -56.9872 	 16.3761 	 -101.647
| 16> C 	 -54.9595 	 15.5573 	 -101.076
| 17> H 	 -54.6706 	 14.9632 	 -100.282
| 18> H 	 -54.9908 	 15.0238 	 -101.969
| 19> C 	 -53.8521 	 16.5664 	 -101.242
| 20> H 	 -53.0296 	 16.0755 	 -101.711
| 21> H 	 -54.2483 	 17.4581 	 -101.809
| 22> H 	 -53.514 	 17.1298 	 -100.402
| 23> S 	 -59.5396 	 13.8887 	 -95.7551
| 24> C 	 -59.0007 	 13.9452 	 -94.0986
| 25> C 	 -57.7104 	 14.3769 	 -94.051
| 26> C 	 -57.0702 	 14.4754 	 -95.3119
| 27> C 	 -57.9139 	 14.0865 	 -96.3936
| 28> H 	 -57.3594 	 14.6007 	 -93.0346
| 29> C 	 -55.5993 	 14.8026 	 -95.431
| 30> H 	 -55.0995 	 14.2386 	 -96.2194
| 31> H 	 -55.1775 	 14.4286 	 -94.4941
| 32> C 	 -55.204 	 16.2437 	 -95.5144
| 33> H 	 -55.5219 	 16.7238 	 -96.4572
| 34> H 	 -54.1006 	 16.1764 	 -95.5265
| 35> C 	 -55.7414 	 17.1097 	 -94.4004
| 36> H 	 -55.2073 	 16.8425 	 -93.5323
| 37> H 	 -56.8179 	 17.0552 	 -94.4447
| 38> H 	 -55.5888 	 18.1493 	 -94.6135
| 39> H 	 -57.9695 	 13.9428 	 -101.361
| 40> H 	 -59.6693 	 13.8889 	 -93.2234
| 41> *
| 42>
| 43>                          ****END OF INPUT****

CARTESIAN COORDINATES (ANGSTROEM)
---------------------------------
  S    -58.549800   13.173000  -98.972800
  C    -57.858400   14.139400  -100.308000
  C    -57.210300   15.231800  -99.861500
  C    -57.134600   15.227800  -98.416600
  C    -57.746400   14.160900  -97.814600
  H    -56.731700   15.982900  -97.804500
  C    -56.380500   16.150300  -100.741000
  H    -56.253500   17.148400  -100.305000
  H    -56.987200   16.376100  -101.647000
  C    -54.959500   15.557300  -101.076000
  H    -54.670600   14.963200  -100.282000
  H    -54.990800   15.023800  -101.969000
  C    -53.852100   16.566400  -101.242000
  H    -53.029600   16.075500  -101.711000
  H    -54.248300   17.458100  -101.809000
  H    -53.514000   17.129800  -100.402000
  S    -59.539600   13.888700  -95.755100
  C    -59.000700   13.945200  -94.098600
  C    -57.710400   14.376900  -94.051000
  C    -57.070200   14.475400  -95.311900
  C    -57.913900   14.086500  -96.393600
  H    -57.359400   14.600700  -93.034600
  C    -55.599300   14.802600  -95.431000
  H    -55.099500   14.238600  -96.219400
  H    -55.177500   14.428600  -94.494100
  C    -55.204000   16.243700  -95.514400
  H    -55.521900   16.723800  -96.457200
  H    -54.100600   16.176400  -95.526500
  C    -55.741400   17.109700  -94.400400
  H    -55.207300   16.842500  -93.532300
  H    -56.817900   17.055200  -94.444700
  H    -55.588800   18.149300  -94.613500
  H    -57.969500   13.942800  -101.361000
  H    -59.669300   13.888900  -93.223400

 Total Charge           Charge          ....    0
 Multiplicity           Mult            ....    1
 Number of Electrons    NEL             ....  134
 Basis Dimension        Dim             ....  322

ORBITAL ENERGIES
----------------

  NO   OCC          E(Eh)            E(eV)
   0   2.0000     -88.967309     -2420.9236
   1   2.0000     -88.961913     -2420.7767
   2   2.0000     -10.328882      -281.0632
   3   2.0000     -10.325328      -280.9664
   4   2.0000     -10.314406      -280.6693
   5   2.0000     -10.313179      -280.6359
   6   2.0000     -10.304834      -280.4088
   7   2.0000     -10.299794      -280.2716
   8   2.0000     -10.298403      -280.2338
   9   2.0000     -10.292221      -280.0656
  10   2.0000     -10.288412      -279.9619
  11   2.0000     -10.286817      -279.9185
  12   2.0000     -10.284381      -279.8522
  13   2.0000     -10.278016      -279.6790
  14   2.0000     -10.275039      -279.5980
  15   2.0000     -10.269087      -279.4361
  16   2.0000      -8.081992      -219.9222
  17   2.0000      -8.076829      -219.7817
  18   2.0000      -6.040710      -164.3761
  19   2.0000      -6.036556      -164.2630
  20   2.0000      -6.035325      -164.2296
  21   2.0000      -6.032483      -164.1522
  22   2.0000      -6.031326      -164.1207
  23   2.0000      -6.027572      -164.0186
  24   2.0000      -1.010162       -27.4879
  25   2.0000      -0.985673       -26.8215
  26   2.0000      -0.918405       -24.9911
  27   2.0000      -0.913692       -24.8628
  28   2.0000      -0.877351       -23.8739
  29   2.0000      -0.852245       -23.1908
  30   2.0000      -0.845963       -23.0198
  31   2.0000      -0.816953       -22.2304
  32   2.0000      -0.786794       -21.4098
  33   2.0000      -0.776458       -21.1285
  34   2.0000      -0.711444       -19.3594
  35   2.0000      -0.708578       -19.2814
  36   2.0000      -0.687316       -18.7028
  37   2.0000      -0.661009       -17.9870
  38   2.0000      -0.639292       -17.3960
  39   2.0000      -0.617917       -16.8144
  40   2.0000      -0.596959       -16.2441
  41   2.0000      -0.572810       -15.5870
  42   2.0000      -0.569473       -15.4962
  43   2.0000      -0.564137       -15.3510
  44   2.0000      -0.545392       -14.8409
  45   2.0000      -0.531595       -14.4654
  46   2.0000      -0.526749       -14.3336
  47   2.0000      -0.509232       -13.8569
  48   2.0000      -0.506740       -13.7891
  49   2.0000      -0.501738       -13.6530
  50   2.0000      -0.493453       -13.4275
  51   2.0000      -0.486178       -13.2296
  52   2.0000      -0.473763       -12.8918
  53   2.0000      -0.468698       -12.7539
  54   2.0000      -0.456085       -12.4107
  55   2.0000      -0.446718       -12.1558
  56   2.0000      -0.442119       -12.0307
  57   2.0000      -0.437569       -11.9068
  58   2.0000      -0.433283       -11.7902
  59   2.0000      -0.425867       -11.5884
  60   2.0000      -0.417609       -11.3637
  61   2.0000      -0.416677       -11.3384
  62   2.0000      -0.407889       -11.0992
  63   2.0000      -0.354177        -9.6376
  64   2.0000      -0.332155        -9.0384
  65   2.0000      -0.327649        -8.9158
  66   2.0000      -0.289629        -7.8812
  67   0.0000       0.024240         0.6596
  68   0.0000       0.077363         2.1052
  69   0.0000       0.109392         2.9767
  70   0.0000       0.122664         3.3379
  71   0.0000       0.132295         3.5999

MULLIKEN ATOMIC CHARGES
-----------------------
   0 S :    0.108525
   1 C :   -0.116467
   2 C :   -0.062488
   3 C :    0.037417
   4 C :   -0.123487
   5 H :   -0.043853
   6 C :    0.031717
   7 H :    0.021107
   8 H :    0.032715
   9 C :    0.012699
  10 H :    0.022249
  11 H :    0.019437
  12 C :   -0.071582
  13 H :    0.036991
  14 H :    0.022690
  15 H :    0.022494
  16 S :    0.089476
  17 C :   -0.102356
  18 C :   -0.048154
  19 C :   -0.051796
  20 C :   -0.127854
  21 H :    0.026296
  22 C :    0.069445
  23 H :    0.034724
  24 H :    0.013741
  25 C :   -0.094398
  26 H :    0.028543
  27 H :    0.029683
  28 C :   -0.011048
  29 H :    0.025456
  30 H :    0.040979
  31 H :    0.021174
  32 H :    0.039445
  33 H :    0.066482
Sum of atomic charges:    0.0000000

LOEWDIN ATOMIC CHARGES
----------------------
   0 S :    0.398807
   1 C :   -0.175641
   2 C :   -0.063995
   3 C :   -0.051564
   4 C :   -0.204681
   5 H :    0.017633
   6 C :   -0.032750
   7 H :    0.028257
   8 H :    0.034316
   9 C :   -0.024550
  10 H :    0.018848
  11 H :    0.020155
  12 C :   -0.067168
  13 H :    0.025966
  14 H :    0.028932
  15 H :    0.019121
  16 S :    0.401493
  17 C :   -0.193327
  18 C :   -0.079358
  19 C :   -0.062061
  20 C :   -0.188667
  21 H :    0.037508
  22 C :   -0.037286
  23 H :    0.034391
  24 H :    0.031389
  25 C :   -0.041746
  26 H :    0.017415
  27 H :    0.026872
  28 C :   -0.058900
  29 H :    0.020237
  30 H :    0.030496
  31 H :    0.025517
  32 H :    0.027858
  33 H :    0.036487

  Mayer bond orders larger than 0.100000
B(  0-S ,  1-C ) :   1.1149 B(  0-S ,  4-C ) :   1.1340 B(  1-C ,  2-C ) :   1.6447
B(  1-C , 32-H ) :   0.9698 B(  2-C ,  3-C ) :   1.2081 B(  2-C ,  6-C ) :   1.0441
B(  3-C ,  4-C ) :   1.5792 B(  3-C ,  5-H ) :   1.0019 B(  4-C , 20-C ) :   1.0698
B(  6-C ,  7-H ) :   0.9476 B(  6-C ,  8-H ) :   0.9362 B(  6-C ,  9-C ) :   1.0413
B(  9-C , 10-H ) :   0.9607 B(  9-C , 11-H ) :   0.9542 B(  9-C , 12-C ) :   1.0903
B( 12-C , 13-H ) :   0.9738 B( 12-C , 14-H ) :   0.9727 B( 12-C , 15-H ) :   0.9746
B( 16-S , 17-C ) :   1.1537 B( 16-S , 20-C ) :   1.1521 B( 17-C , 18-C ) :   1.6083
B( 17-C , 20-C ) :   0.1042 B( 17-C , 33-H ) :   0.9631 B( 18-C , 19-C ) :   1.2482
B( 18-C , 21-H ) :   0.9894 B( 19-C , 20-C ) :   1.5522 B( 19-C , 22-C ) :   1.0334
B( 22-C , 23-H ) :   0.9374 B( 22-C , 24-H ) :   0.9334 B( 22-C , 25-C ) :   1.0747
B( 25-C , 26-H ) :   0.9474 B( 25-C , 27-H ) :   0.9516 B( 25-C , 28-C ) :   1.0854
B( 28-C , 29-H ) :   0.9762 B( 28-C , 30-H ) :   0.9657 B( 28-C , 31-H ) :   0.9692

Dispersion correction           -0.014712424
FINAL SINGLE POINT ENERGY     -1339.866050975125

DIPOLE MOMENT
-------------
                                X             Y             Z
Electronic contribution:    -24.69978     -18.29365       4.20565
Nuclear contribution   :     25.27594      18.84687      -4.20726
                        -----------------------------------------
Total Dipole Moment    :      0.57616       0.55322      -0.00161
                        -----------------------------------------
Magnitude (a.u.)       :      0.79876
Magnitude (Debye)      :      2.03028

Rotational constants in cm-1:     0.018830     0.009484     0.006698
Rotational constants in MHz :   564.515856   284.333050   200.810959

                             ****ORCA TERMINATED NORMALLY****
TOTAL RUN TIME: 0 days 0 hours 0 minutes 22 seconds 431 msec
