                         Program Version 4.2.1 -  RELEASE  -
|  1> ! wB97X-D3 SP def2-SVP
|  2> %pal
|  3> nprocs 24
|  4> end
|  5>
|  6> * xyz 0 1
|  7> S 	 -44.3071 	 -5.27701 	 -7.85995
|  8> C 	 -44.5351 	 -3.83847 	 -6.90635
|  9> C 	 -45.4129 	 -2.97732 	 -7.56895
| 10> C 	 -45.8339 	 -3.50369 	 -8.83828
| 11> C 	 -45.3086 	 -4.75004 	 -9.19094
| 12> H 	 -46.6415 	 -2.99893 	 -9.39844
| 13> C 	 -45.992 	 -1.70079 	 -6.87272
| 14> H 	 -45.6249 	 -1.52402 	 -5.84071
| 15> H 	 -47.054 	 -2.07298 	 -6.7693
| 16> C 	 -45.8755 	 -0.296844 	 -7.57379
| 17> H 	 -44.7918 	 -0.202099 	 -7.79598
| 18> H 	 -46.3381 	 -0.285908 	 -8.54501
| 19> C 	 -46.4755 	 0.892221 	 -6.77165
| 20> H 	 -45.8398 	 1.08208 	 -5.88304
| 21> H 	 -46.4448 	 1.89302 	 -7.27549
| 22> H 	 -47.5009 	 0.786263 	 -6.46938
| 23> S 	 -44.836 	 -4.84126 	 -11.8237
| 24> C 	 -45.6076 	 -5.91824 	 -12.8723
| 25> C 	 -46.479 	 -6.7375 	 -12.1652
| 26> C 	 -46.5328 	 -6.47696 	 -10.7785
| 27> C 	 -45.6574 	 -5.44381 	 -10.4554
| 28> H 	 -46.9908 	 -7.42522 	 -12.7328
| 29> C 	 -47.4143 	 -7.2288 	 -9.81133
| 30> H 	 -46.6048 	 -7.68382 	 -9.3215
| 31> H 	 -47.8466 	 -8.07785 	 -10.2585
| 32> C 	 -48.3704 	 -6.35922 	 -8.96791
| 33> H 	 -49.1724 	 -6.10027 	 -9.62008
| 34> H 	 -47.9793 	 -5.34085 	 -8.68017
| 35> C 	 -49.058 	 -7.06887 	 -7.78518
| 36> H 	 -48.3542 	 -7.4138 	 -7.0171
| 37> H 	 -49.7449 	 -7.79115 	 -8.13696
| 38> H 	 -49.7689 	 -6.3541 	 -7.26499
| 39> H 	 -44.3962 	 -3.86678 	 -5.85816
| 40> H 	 -45.465 	 -5.93464 	 -13.9821
| 41> *
| 42>
| 43>                          ****END OF INPUT****

CARTESIAN COORDINATES (ANGSTROEM)
---------------------------------
  S    -44.307100   -5.277010   -7.859950
  C    -44.535100   -3.838470   -6.906350
  C    -45.412900   -2.977320   -7.568950
  C    -45.833900   -3.503690   -8.838280
  C    -45.308600   -4.750040   -9.190940
  H    -46.641500   -2.998930   -9.398440
  C    -45.992000   -1.700790   -6.872720
  H    -45.624900   -1.524020   -5.840710
  H    -47.054000   -2.072980   -6.769300
  C    -45.875500   -0.296844   -7.573790
  H    -44.791800   -0.202099   -7.795980
  H    -46.338100   -0.285908   -8.545010
  C    -46.475500    0.892221   -6.771650
  H    -45.839800    1.082080   -5.883040
  H    -46.444800    1.893020   -7.275490
  H    -47.500900    0.786263   -6.469380
  S    -44.836000   -4.841260  -11.823700
  C    -45.607600   -5.918240  -12.872300
  C    -46.479000   -6.737500  -12.165200
  C    -46.532800   -6.476960  -10.778500
  C    -45.657400   -5.443810  -10.455400
  H    -46.990800   -7.425220  -12.732800
  C    -47.414300   -7.228800   -9.811330
  H    -46.604800   -7.683820   -9.321500
  H    -47.846600   -8.077850  -10.258500
  C    -48.370400   -6.359220   -8.967910
  H    -49.172400   -6.100270   -9.620080
  H    -47.979300   -5.340850   -8.680170
  C    -49.058000   -7.068870   -7.785180
  H    -48.354200   -7.413800   -7.017100
  H    -49.744900   -7.791150   -8.136960
  H    -49.768900   -6.354100   -7.264990
  H    -44.396200   -3.866780   -5.858160
  H    -45.465000   -5.934640  -13.982100

 Total Charge           Charge          ....    0
 Multiplicity           Mult            ....    1
 Number of Electrons    NEL             ....  134
 Basis Dimension        Dim             ....  322

ORBITAL ENERGIES
----------------

  NO   OCC          E(Eh)            E(eV)
   0   2.0000     -88.965233     -2420.8671
   1   2.0000     -88.963769     -2420.8272
   2   2.0000     -10.333386      -281.1857
   3   2.0000     -10.321509      -280.8625
   4   2.0000     -10.313835      -280.6537
   5   2.0000     -10.311292      -280.5845
   6   2.0000     -10.308598      -280.5112
   7   2.0000     -10.305263      -280.4205
   8   2.0000     -10.303747      -280.3792
   9   2.0000     -10.297800      -280.2174
  10   2.0000     -10.293606      -280.1033
  11   2.0000     -10.286434      -279.9081
  12   2.0000     -10.285674      -279.8874
  13   2.0000     -10.284113      -279.8450
  14   2.0000     -10.283714      -279.8341
  15   2.0000     -10.278048      -279.6799
  16   2.0000      -8.080289      -219.8758
  17   2.0000      -8.079829      -219.8633
  18   2.0000      -6.038514      -164.3163
  19   2.0000      -6.038288      -164.3102
  20   2.0000      -6.034282      -164.2012
  21   2.0000      -6.034146      -164.1975
  22   2.0000      -6.031500      -164.1255
  23   2.0000      -6.030848      -164.1077
  24   2.0000      -1.011930       -27.5360
  25   2.0000      -0.987198       -26.8630
  26   2.0000      -0.909969       -24.7615
  27   2.0000      -0.898788       -24.4573
  28   2.0000      -0.868268       -23.6268
  29   2.0000      -0.853810       -23.2333
  30   2.0000      -0.843303       -22.9474
  31   2.0000      -0.813795       -22.1445
  32   2.0000      -0.784042       -21.3349
  33   2.0000      -0.771023       -20.9806
  34   2.0000      -0.709493       -19.3063
  35   2.0000      -0.701766       -19.0960
  36   2.0000      -0.691081       -18.8053
  37   2.0000      -0.663994       -18.0682
  38   2.0000      -0.639278       -17.3957
  39   2.0000      -0.619051       -16.8452
  40   2.0000      -0.592451       -16.1214
  41   2.0000      -0.568780       -15.4773
  42   2.0000      -0.560158       -15.2427
  43   2.0000      -0.556843       -15.1525
  44   2.0000      -0.526766       -14.3340
  45   2.0000      -0.520183       -14.1549
  46   2.0000      -0.514187       -13.9917
  47   2.0000      -0.510580       -13.8936
  48   2.0000      -0.504453       -13.7269
  49   2.0000      -0.500552       -13.6207
  50   2.0000      -0.491987       -13.3876
  51   2.0000      -0.487815       -13.2741
  52   2.0000      -0.475029       -12.9262
  53   2.0000      -0.462893       -12.5960
  54   2.0000      -0.461809       -12.5664
  55   2.0000      -0.449421       -12.2294
  56   2.0000      -0.439333       -11.9549
  57   2.0000      -0.431731       -11.7480
  58   2.0000      -0.430959       -11.7270
  59   2.0000      -0.425242       -11.5714
  60   2.0000      -0.422018       -11.4837
  61   2.0000      -0.413412       -11.2495
  62   2.0000      -0.409641       -11.1469
  63   2.0000      -0.333290        -9.0693
  64   2.0000      -0.328095        -8.9279
  65   2.0000      -0.320524        -8.7219
  66   2.0000      -0.309176        -8.4131
  67   0.0000       0.040324         1.0973
  68   0.0000       0.061708         1.6792
  69   0.0000       0.113421         3.0863
  70   0.0000       0.130903         3.5621
  71   0.0000       0.137221         3.7340

MULLIKEN ATOMIC CHARGES
-----------------------
   0 S :    0.108163
   1 C :   -0.114367
   2 C :   -0.092532
   3 C :    0.031161
   4 C :   -0.155180
   5 H :    0.028352
   6 C :    0.012112
   7 H :    0.027300
   8 H :    0.046510
   9 C :   -0.062310
  10 H :    0.041815
  11 H :    0.026772
  12 C :   -0.073716
  13 H :    0.033010
  14 H :    0.040401
  15 H :    0.035970
  16 S :    0.142803
  17 C :   -0.117221
  18 C :   -0.034676
  19 C :   -0.017754
  20 C :   -0.228457
  21 H :   -0.020874
  22 C :    0.173175
  23 H :    0.015668
  24 H :   -0.008598
  25 C :   -0.076709
  26 H :    0.017339
  27 H :    0.048394
  28 C :   -0.051422
  29 H :    0.045669
  30 H :    0.024176
  31 H :    0.028236
  32 H :    0.053634
  33 H :    0.073153
Sum of atomic charges:    0.0000000

LOEWDIN ATOMIC CHARGES
----------------------
   0 S :    0.413700
   1 C :   -0.204787
   2 C :   -0.061833
   3 C :   -0.070559
   4 C :   -0.209034
   5 H :    0.034185
   6 C :   -0.037774
   7 H :    0.030712
   8 H :    0.037987
   9 C :   -0.044550
  10 H :    0.032136
  11 H :    0.019185
  12 C :   -0.073751
  13 H :    0.027156
  14 H :    0.034382
  15 H :    0.023391
  16 S :    0.467045
  17 C :   -0.213491
  18 C :   -0.072790
  19 C :   -0.043902
  20 C :   -0.224361
  21 H :    0.016076
  22 C :   -0.027464
  23 H :    0.033055
  24 H :    0.024831
  25 C :   -0.041535
  26 H :    0.022572
  27 H :    0.034210
  28 C :   -0.067030
  29 H :    0.026837
  30 H :    0.018406
  31 H :    0.033168
  32 H :    0.023808
  33 H :    0.040017

  Mayer bond orders larger than 0.100000
B(  0-S ,  1-C ) :   1.1557 B(  0-S ,  4-C ) :   1.1616 B(  1-C ,  2-C ) :   1.5803
B(  1-C ,  4-C ) :   0.1002 B(  1-C , 32-H ) :   0.9683 B(  2-C ,  3-C ) :   1.2845
B(  2-C ,  6-C ) :   1.0082 B(  3-C ,  4-C ) :   1.5424 B(  3-C ,  5-H ) :   0.9858
B(  4-C , 20-C ) :   1.0093 B(  6-C ,  7-H ) :   0.9523 B(  6-C ,  8-H ) :   0.9424
B(  6-C ,  9-C ) :   1.0453 B(  9-C , 10-H ) :   0.9580 B(  9-C , 11-H ) :   0.9582
B(  9-C , 12-C ) :   1.0756 B( 12-C , 13-H ) :   0.9756 B( 12-C , 14-H ) :   0.9750
B( 12-C , 15-H ) :   0.9772 B( 16-S , 17-C ) :   1.1957 B( 16-S , 20-C ) :   1.1935
B( 17-C , 18-C ) :   1.5560 B( 17-C , 20-C ) :   0.1043 B( 17-C , 33-H ) :   0.9628
B( 18-C , 19-C ) :   1.2698 B( 18-C , 21-H ) :   1.0110 B( 19-C , 20-C ) :   1.5514
B( 19-C , 22-C ) :   1.0066 B( 22-C , 23-H ) :   0.9239 B( 22-C , 24-H ) :   0.9248
B( 22-C , 25-C ) :   1.0403 B( 25-C , 26-H ) :   0.9503 B( 25-C , 27-H ) :   0.9601
B( 25-C , 28-C ) :   1.0903 B( 28-C , 29-H ) :   0.9783 B( 28-C , 30-H ) :   0.9739
B( 28-C , 31-H ) :   0.9722

Dispersion correction           -0.014370362
FINAL SINGLE POINT ENERGY     -1339.863211688417

DIPOLE MOMENT
-------------
                                X             Y             Z
Electronic contribution:     18.06975     -11.21439     -13.73587
Nuclear contribution   :    -18.71727      11.33145      13.83272
                        -----------------------------------------
Total Dipole Moment    :     -0.64752       0.11706       0.09685
                        -----------------------------------------
Magnitude (a.u.)       :      0.66511
Magnitude (Debye)      :      1.69057

Rotational constants in cm-1:     0.017811     0.008015     0.007008
Rotational constants in MHz :   533.972066   240.272911   210.096278

                             ****ORCA TERMINATED NORMALLY****
TOTAL RUN TIME: 0 days 0 hours 0 minutes 21 seconds 200 msec
