                         Program Version 4.2.1 -  RELEASE  -
|  1> ! wB97X-D3 SP def2-SVP
|  2> %pal
|  3> nprocs 24
|  4> end
|  5>
|  6> * xyz 0 1
|  7> S 	 -39.0461 	 -9.6466 	 18.8158
|  8> C 	 -39.1416 	 -11.2347 	 18.1768
|  9> C 	 -40.3112 	 -11.865 	 18.5112
| 10> C 	 -41.2157 	 -11.0183 	 19.2654
| 11> C 	 -40.635 	 -9.74835 	 19.5161
| 12> H 	 -42.1396 	 -11.2561 	 19.7674
| 13> C 	 -40.6712 	 -13.2884 	 18.1552
| 14> H 	 -40.3846 	 -13.9769 	 19.0068
| 15> H 	 -40.0423 	 -13.7163 	 17.3463
| 16> C 	 -42.1227 	 -13.6109 	 17.6918
| 17> H 	 -42.7708 	 -13.2271 	 18.5162
| 18> H 	 -42.2705 	 -12.9401 	 16.8314
| 19> C 	 -42.3773 	 -15.1294 	 17.6137
| 20> H 	 -43.3824 	 -15.2511 	 18.0668
| 21> H 	 -42.4492 	 -15.5693 	 16.6508
| 22> H 	 -41.6463 	 -15.6227 	 18.232
| 23> S 	 -39.8986 	 -8.08166 	 21.6845
| 24> C 	 -41.1033 	 -6.94992 	 22.4272
| 25> C 	 -42.3169 	 -7.28481 	 21.9505
| 26> C 	 -42.3612 	 -8.26417 	 20.8953
| 27> C 	 -41.0622 	 -8.70476 	 20.5281
| 28> H 	 -43.1161 	 -6.84351 	 22.4751
| 29> C 	 -43.7095 	 -8.81607 	 20.3416
| 30> H 	 -43.9536 	 -9.65744 	 21.0564
| 31> H 	 -43.5283 	 -9.26622 	 19.2976
| 32> C 	 -44.8299 	 -7.76106 	 20.0954
| 33> H 	 -44.4799 	 -6.95922 	 19.5153
| 34> H 	 -44.9885 	 -7.23683 	 21.0589
| 35> C 	 -46.1172 	 -8.31582 	 19.4552
| 36> H 	 -46.5087 	 -9.0357 	 20.1441
| 37> H 	 -45.7992 	 -8.87542 	 18.5481
| 38> H 	 -46.7949 	 -7.4907 	 19.0769
| 39> H 	 -38.3268 	 -11.7749 	 17.688
| 40> H 	 -40.9583 	 -6.28987 	 23.2994
| 41> *
| 42>
| 43>                          ****END OF INPUT****

CARTESIAN COORDINATES (ANGSTROEM)
---------------------------------
  S    -39.046100   -9.646600   18.815800
  C    -39.141600  -11.234700   18.176800
  C    -40.311200  -11.865000   18.511200
  C    -41.215700  -11.018300   19.265400
  C    -40.635000   -9.748350   19.516100
  H    -42.139600  -11.256100   19.767400
  C    -40.671200  -13.288400   18.155200
  H    -40.384600  -13.976900   19.006800
  H    -40.042300  -13.716300   17.346300
  C    -42.122700  -13.610900   17.691800
  H    -42.770800  -13.227100   18.516200
  H    -42.270500  -12.940100   16.831400
  C    -42.377300  -15.129400   17.613700
  H    -43.382400  -15.251100   18.066800
  H    -42.449200  -15.569300   16.650800
  H    -41.646300  -15.622700   18.232000
  S    -39.898600   -8.081660   21.684500
  C    -41.103300   -6.949920   22.427200
  C    -42.316900   -7.284810   21.950500
  C    -42.361200   -8.264170   20.895300
  C    -41.062200   -8.704760   20.528100
  H    -43.116100   -6.843510   22.475100
  C    -43.709500   -8.816070   20.341600
  H    -43.953600   -9.657440   21.056400
  H    -43.528300   -9.266220   19.297600
  C    -44.829900   -7.761060   20.095400
  H    -44.479900   -6.959220   19.515300
  H    -44.988500   -7.236830   21.058900
  C    -46.117200   -8.315820   19.455200
  H    -46.508700   -9.035700   20.144100
  H    -45.799200   -8.875420   18.548100
  H    -46.794900   -7.490700   19.076900
  H    -38.326800  -11.774900   17.688000
  H    -40.958300   -6.289870   23.299400

 Total Charge           Charge          ....    0
 Multiplicity           Mult            ....    1
 Number of Electrons    NEL             ....  134
 Basis Dimension        Dim             ....  322

ORBITAL ENERGIES
----------------

  NO   OCC          E(Eh)            E(eV)
   0   2.0000     -88.969002     -2420.9696
   1   2.0000     -88.963967     -2420.8326
   2   2.0000     -10.338132      -281.3149
   3   2.0000     -10.337419      -281.2955
   4   2.0000     -10.319880      -280.8182
   5   2.0000     -10.312573      -280.6194
   6   2.0000     -10.310818      -280.5716
   7   2.0000     -10.308013      -280.4953
   8   2.0000     -10.305003      -280.4134
   9   2.0000     -10.302183      -280.3367
  10   2.0000     -10.296300      -280.1766
  11   2.0000     -10.292766      -280.0804
  12   2.0000     -10.289969      -280.0043
  13   2.0000     -10.285794      -279.8907
  14   2.0000     -10.285759      -279.8897
  15   2.0000     -10.280620      -279.7499
  16   2.0000      -8.084341      -219.9861
  17   2.0000      -8.077634      -219.8036
  18   2.0000      -6.042731      -164.4311
  19   2.0000      -6.038699      -164.3213
  20   2.0000      -6.036342      -164.2572
  21   2.0000      -6.035240      -164.2272
  22   2.0000      -6.032373      -164.1492
  23   2.0000      -6.028130      -164.0337
  24   2.0000      -1.003677       -27.3114
  25   2.0000      -0.981797       -26.7161
  26   2.0000      -0.909069       -24.7370
  27   2.0000      -0.900784       -24.5116
  28   2.0000      -0.869415       -23.6580
  29   2.0000      -0.850205       -23.1353
  30   2.0000      -0.841277       -22.8923
  31   2.0000      -0.818728       -22.2787
  32   2.0000      -0.778865       -21.1940
  33   2.0000      -0.766534       -20.8585
  34   2.0000      -0.708712       -19.2850
  35   2.0000      -0.698775       -19.0146
  36   2.0000      -0.688949       -18.7473
  37   2.0000      -0.652781       -17.7631
  38   2.0000      -0.640673       -17.4336
  39   2.0000      -0.621016       -16.8987
  40   2.0000      -0.590067       -16.0565
  41   2.0000      -0.573626       -15.6092
  42   2.0000      -0.563795       -15.3416
  43   2.0000      -0.561603       -15.2820
  44   2.0000      -0.529670       -14.4131
  45   2.0000      -0.522117       -14.2075
  46   2.0000      -0.513488       -13.9727
  47   2.0000      -0.510812       -13.8999
  48   2.0000      -0.500875       -13.6295
  49   2.0000      -0.496286       -13.5046
  50   2.0000      -0.488154       -13.2833
  51   2.0000      -0.479246       -13.0410
  52   2.0000      -0.474240       -12.9047
  53   2.0000      -0.465005       -12.6534
  54   2.0000      -0.459363       -12.4999
  55   2.0000      -0.453483       -12.3399
  56   2.0000      -0.446496       -12.1498
  57   2.0000      -0.437668       -11.9096
  58   2.0000      -0.435363       -11.8468
  59   2.0000      -0.427109       -11.6222
  60   2.0000      -0.417025       -11.3478
  61   2.0000      -0.407245       -11.0817
  62   2.0000      -0.405972       -11.0471
  63   2.0000      -0.354889        -9.6570
  64   2.0000      -0.330106        -8.9826
  65   2.0000      -0.326637        -8.8883
  66   2.0000      -0.291016        -7.9190
  67   0.0000       0.024035         0.6540
  68   0.0000       0.077317         2.1039
  69   0.0000       0.105562         2.8725
  70   0.0000       0.121842         3.3155
  71   0.0000       0.127093         3.4584

MULLIKEN ATOMIC CHARGES
-----------------------
   0 S :    0.118896
   1 C :   -0.114286
   2 C :   -0.065046
   3 C :    0.020832
   4 C :   -0.157747
   5 H :    0.020664
   6 C :   -0.003390
   7 H :    0.042923
   8 H :    0.022953
   9 C :   -0.112719
  10 H :    0.032597
  11 H :    0.045453
  12 C :   -0.016025
  13 H :    0.033782
  14 H :    0.039034
  15 H :    0.028880
  16 S :    0.082386
  17 C :   -0.107278
  18 C :   -0.019028
  19 C :   -0.043203
  20 C :   -0.124559
  21 H :    0.007206
  22 C :   -0.011178
  23 H :    0.061905
  24 H :    0.044876
  25 C :   -0.072766
  26 H :    0.020027
  27 H :    0.022990
  28 C :   -0.039018
  29 H :    0.033324
  30 H :    0.028120
  31 H :    0.055740
  32 H :    0.053645
  33 H :    0.070011
Sum of atomic charges:   -0.0000000

LOEWDIN ATOMIC CHARGES
----------------------
   0 S :    0.432691
   1 C :   -0.210558
   2 C :   -0.066661
   3 C :   -0.060061
   4 C :   -0.193365
   5 H :    0.029945
   6 C :   -0.047840
   7 H :    0.033800
   8 H :    0.028263
   9 C :   -0.045246
  10 H :    0.022612
  11 H :    0.028958
  12 C :   -0.060867
  13 H :    0.035698
  14 H :    0.022986
  15 H :    0.025851
  16 S :    0.372786
  17 C :   -0.172447
  18 C :   -0.071633
  19 C :   -0.062757
  20 C :   -0.194980
  21 H :    0.025733
  22 C :   -0.041626
  23 H :    0.038545
  24 H :    0.037597
  25 C :   -0.047061
  26 H :    0.019518
  27 H :    0.020410
  28 C :   -0.065589
  29 H :    0.022686
  30 H :    0.027885
  31 H :    0.038700
  32 H :    0.035128
  33 H :    0.040897

  Mayer bond orders larger than 0.100000
B(  0-S ,  1-C ) :   1.1428 B(  0-S ,  4-C ) :   1.1755 B(  1-C ,  2-C ) :   1.6165
B(  1-C , 32-H ) :   0.9638 B(  2-C ,  3-C ) :   1.2399 B(  2-C ,  6-C ) :   1.0242
B(  3-C ,  4-C ) :   1.5460 B(  3-C ,  5-H ) :   0.9883 B(  4-C , 20-C ) :   1.0287
B(  6-C ,  7-H ) :   0.9311 B(  6-C ,  8-H ) :   0.9490 B(  6-C ,  9-C ) :   1.0592
B(  9-C , 10-H ) :   0.9611 B(  9-C , 11-H ) :   0.9625 B(  9-C , 12-C ) :   1.0546
B( 12-C , 13-H ) :   0.9780 B( 12-C , 14-H ) :   0.9778 B( 12-C , 15-H ) :   0.9746
B( 16-S , 17-C ) :   1.1180 B( 16-S , 20-C ) :   1.1469 B( 17-C , 18-C ) :   1.6474
B( 17-C , 33-H ) :   0.9627 B( 18-C , 19-C ) :   1.2269 B( 18-C , 21-H ) :   0.9913
B( 19-C , 20-C ) :   1.5876 B( 19-C , 22-C ) :   1.0328 B( 22-C , 23-H ) :   0.9371
B( 22-C , 24-H ) :   0.9361 B( 22-C , 25-C ) :   1.0514 B( 25-C , 26-H ) :   0.9576
B( 25-C , 27-H ) :   0.9497 B( 25-C , 28-C ) :   1.0805 B( 28-C , 29-H ) :   0.9763
B( 28-C , 30-H ) :   0.9726 B( 28-C , 31-H ) :   0.9731

Dispersion correction           -0.013209714
FINAL SINGLE POINT ENERGY     -1339.865199304758

DIPOLE MOMENT
-------------
                                X             Y             Z
Electronic contribution:     25.73944      15.95417       8.52475
Nuclear contribution   :    -26.32609     -16.40005      -8.43593
                        -----------------------------------------
Total Dipole Moment    :     -0.58665      -0.44588       0.08882
                        -----------------------------------------
Magnitude (a.u.)       :      0.74220
Magnitude (Debye)      :      1.88652

Rotational constants in cm-1:     0.015783     0.008606     0.006022
Rotational constants in MHz :   473.161850   258.013264   180.524991

                             ****ORCA TERMINATED NORMALLY****
TOTAL RUN TIME: 0 days 0 hours 0 minutes 20 seconds 671 msec
