                         Program Version 4.2.1 -  RELEASE  -
|  1> ! wB97X-D3 SP def2-SVP
|  2> %pal
|  3> nprocs 24
|  4> end
|  5>
|  6> * xyz 0 1
|  7> S 	 -44.4198 	 -4.09084 	 -23.707
|  8> C 	 -45.6269 	 -5.18263 	 -24.4165
|  9> C 	 -45.0903 	 -5.978 	 -25.4182
| 10> C 	 -43.7066 	 -5.67332 	 -25.6274
| 11> C 	 -43.1936 	 -4.67284 	 -24.822
| 12> H 	 -42.911 	 -6.11444 	 -26.2402
| 13> C 	 -45.848 	 -7.00851 	 -26.2349
| 14> H 	 -46.3616 	 -7.6147 	 -25.401
| 15> H 	 -45.1207 	 -7.62459 	 -26.6896
| 16> C 	 -46.9057 	 -6.48065 	 -27.2224
| 17> H 	 -47.6298 	 -7.28495 	 -27.5908
| 18> H 	 -47.5601 	 -5.81475 	 -26.664
| 19> C 	 -46.2001 	 -5.77562 	 -28.4183
| 20> H 	 -45.7594 	 -4.86957 	 -27.9984
| 21> H 	 -45.4058 	 -6.31232 	 -28.8817
| 22> H 	 -46.9422 	 -5.32092 	 -29.1525
| 23> S 	 -41.7433 	 -2.36715 	 -24.749
| 24> C 	 -40.0289 	 -2.27825 	 -24.7971
| 25> C 	 -39.569 	 -3.58639 	 -24.4928
| 26> C 	 -40.5704 	 -4.60201 	 -24.6386
| 27> C 	 -41.8179 	 -4.11317 	 -24.7682
| 28> H 	 -38.5041 	 -3.69075 	 -24.2991
| 29> C 	 -40.1761 	 -6.00493 	 -24.7254
| 30> H 	 -39.4185 	 -6.18718 	 -25.4344
| 31> H 	 -41.022 	 -6.5734 	 -25.1094
| 32> C 	 -39.6443 	 -6.68979 	 -23.4771
| 33> H 	 -40.0518 	 -6.17071 	 -22.6171
| 34> H 	 -38.5269 	 -6.58305 	 -23.3313
| 35> C 	 -40.1205 	 -8.15243 	 -23.2951
| 36> H 	 -41.1702 	 -8.10013 	 -23.1521
| 37> H 	 -39.6761 	 -8.74683 	 -22.4547
| 38> H 	 -39.8524 	 -8.8533 	 -24.0805
| 39> H 	 -46.5871 	 -5.24331 	 -24.1623
| 40> H 	 -39.4657 	 -1.31435 	 -24.6867
| 41> *
| 42>
| 43>                          ****END OF INPUT****

CARTESIAN COORDINATES (ANGSTROEM)
---------------------------------
  S    -44.419800   -4.090840  -23.707000
  C    -45.626900   -5.182630  -24.416500
  C    -45.090300   -5.978000  -25.418200
  C    -43.706600   -5.673320  -25.627400
  C    -43.193600   -4.672840  -24.822000
  H    -42.911000   -6.114440  -26.240200
  C    -45.848000   -7.008510  -26.234900
  H    -46.361600   -7.614700  -25.401000
  H    -45.120700   -7.624590  -26.689600
  C    -46.905700   -6.480650  -27.222400
  H    -47.629800   -7.284950  -27.590800
  H    -47.560100   -5.814750  -26.664000
  C    -46.200100   -5.775620  -28.418300
  H    -45.759400   -4.869570  -27.998400
  H    -45.405800   -6.312320  -28.881700
  H    -46.942200   -5.320920  -29.152500
  S    -41.743300   -2.367150  -24.749000
  C    -40.028900   -2.278250  -24.797100
  C    -39.569000   -3.586390  -24.492800
  C    -40.570400   -4.602010  -24.638600
  C    -41.817900   -4.113170  -24.768200
  H    -38.504100   -3.690750  -24.299100
  C    -40.176100   -6.004930  -24.725400
  H    -39.418500   -6.187180  -25.434400
  H    -41.022000   -6.573400  -25.109400
  C    -39.644300   -6.689790  -23.477100
  H    -40.051800   -6.170710  -22.617100
  H    -38.526900   -6.583050  -23.331300
  C    -40.120500   -8.152430  -23.295100
  H    -41.170200   -8.100130  -23.152100
  H    -39.676100   -8.746830  -22.454700
  H    -39.852400   -8.853300  -24.080500
  H    -46.587100   -5.243310  -24.162300
  H    -39.465700   -1.314350  -24.686700

 Total Charge           Charge          ....    0
 Multiplicity           Mult            ....    1
 Number of Electrons    NEL             ....  134
 Basis Dimension        Dim             ....  322

ORBITAL ENERGIES
----------------

  NO   OCC          E(Eh)            E(eV)
   0   2.0000     -88.969192     -2420.9748
   1   2.0000     -88.960443     -2420.7367
   2   2.0000     -10.333869      -281.1989
   3   2.0000     -10.327888      -281.0361
   4   2.0000     -10.324303      -280.9386
   5   2.0000     -10.309066      -280.5240
   6   2.0000     -10.306203      -280.4460
   7   2.0000     -10.301042      -280.3056
   8   2.0000     -10.298905      -280.2474
   9   2.0000     -10.297218      -280.2015
  10   2.0000     -10.296916      -280.1933
  11   2.0000     -10.296768      -280.1893
  12   2.0000     -10.288155      -279.9549
  13   2.0000     -10.282488      -279.8007
  14   2.0000     -10.279451      -279.7181
  15   2.0000     -10.277930      -279.6767
  16   2.0000      -8.083194      -219.9549
  17   2.0000      -8.076227      -219.7653
  18   2.0000      -6.041796      -164.4056
  19   2.0000      -6.037766      -164.2960
  20   2.0000      -6.034709      -164.2128
  21   2.0000      -6.033939      -164.1918
  22   2.0000      -6.030488      -164.0979
  23   2.0000      -6.027021      -164.0036
  24   2.0000      -1.011529       -27.5251
  25   2.0000      -0.986493       -26.8438
  26   2.0000      -0.915825       -24.9209
  27   2.0000      -0.910411       -24.7735
  28   2.0000      -0.867182       -23.5972
  29   2.0000      -0.852558       -23.1993
  30   2.0000      -0.842735       -22.9320
  31   2.0000      -0.815551       -22.1923
  32   2.0000      -0.783411       -21.3177
  33   2.0000      -0.776162       -21.1204
  34   2.0000      -0.710040       -19.3212
  35   2.0000      -0.705340       -19.1933
  36   2.0000      -0.696064       -18.9409
  37   2.0000      -0.665212       -18.1014
  38   2.0000      -0.648067       -17.6348
  39   2.0000      -0.613404       -16.6916
  40   2.0000      -0.597599       -16.2615
  41   2.0000      -0.573883       -15.6162
  42   2.0000      -0.568578       -15.4718
  43   2.0000      -0.546957       -14.8835
  44   2.0000      -0.541461       -14.7339
  45   2.0000      -0.521885       -14.2012
  46   2.0000      -0.520211       -14.1557
  47   2.0000      -0.516608       -14.0576
  48   2.0000      -0.505436       -13.7536
  49   2.0000      -0.500992       -13.6327
  50   2.0000      -0.488626       -13.2962
  51   2.0000      -0.482803       -13.1377
  52   2.0000      -0.476780       -12.9738
  53   2.0000      -0.465652       -12.6710
  54   2.0000      -0.458866       -12.4864
  55   2.0000      -0.446149       -12.1403
  56   2.0000      -0.442728       -12.0472
  57   2.0000      -0.435857       -11.8603
  58   2.0000      -0.429147       -11.6777
  59   2.0000      -0.425062       -11.5665
  60   2.0000      -0.416888       -11.3441
  61   2.0000      -0.412199       -11.2165
  62   2.0000      -0.411836       -11.2066
  63   2.0000      -0.348996        -9.4967
  64   2.0000      -0.333044        -9.0626
  65   2.0000      -0.325049        -8.8450
  66   2.0000      -0.296750        -8.0750
  67   0.0000       0.031071         0.8455
  68   0.0000       0.061939         1.6854
  69   0.0000       0.108722         2.9585
  70   0.0000       0.118477         3.2239
  71   0.0000       0.129577         3.5260

MULLIKEN ATOMIC CHARGES
-----------------------
   0 S :    0.115801
   1 C :   -0.063619
   2 C :   -0.099240
   3 C :    0.023288
   4 C :   -0.154338
   5 H :    0.020268
   6 C :    0.065007
   7 H :    0.046309
   8 H :    0.014330
   9 C :   -0.058580
  10 H :    0.042608
  11 H :    0.022250
  12 C :   -0.067113
  13 H :    0.037652
  14 H :    0.034589
  15 H :    0.043990
  16 S :    0.090029
  17 C :   -0.115907
  18 C :   -0.049732
  19 C :   -0.026521
  20 C :   -0.154266
  21 H :    0.027001
  22 C :    0.107423
  23 H :    0.022530
  24 H :   -0.003848
  25 C :   -0.084948
  26 H :    0.028475
  27 H :    0.035782
  28 C :   -0.074863
  29 H :    0.040549
  30 H :    0.032478
  31 H :    0.026431
  32 H :   -0.012591
  33 H :    0.088774
Sum of atomic charges:    0.0000000

LOEWDIN ATOMIC CHARGES
----------------------
   0 S :    0.398114
   1 C :   -0.169462
   2 C :   -0.057716
   3 C :   -0.074266
   4 C :   -0.187750
   5 H :    0.034291
   6 C :   -0.032273
   7 H :    0.044585
   8 H :    0.021748
   9 C :   -0.041370
  10 H :    0.029944
  11 H :    0.021693
  12 C :   -0.072265
  13 H :    0.030131
  14 H :    0.020447
  15 H :    0.034931
  16 S :    0.416429
  17 C :   -0.203389
  18 C :   -0.068610
  19 C :   -0.064227
  20 C :   -0.195844
  21 H :    0.030370
  22 C :   -0.033459
  23 H :    0.031039
  24 H :    0.029360
  25 C :   -0.041431
  26 H :    0.023830
  27 H :    0.025906
  28 C :   -0.070765
  29 H :    0.023435
  30 H :    0.032408
  31 H :    0.021232
  32 H :   -0.000974
  33 H :    0.043908

  Mayer bond orders larger than 0.100000
B(  0-S ,  1-C ) :   1.1320 B(  0-S ,  4-C ) :   1.1504 B(  1-C ,  2-C ) :   1.6142
B(  1-C ,  4-C ) :   0.1018 B(  1-C , 32-H ) :   0.9837 B(  2-C ,  3-C ) :   1.2110
B(  2-C ,  6-C ) :   1.0109 B(  3-C ,  4-C ) :   1.6106 B(  3-C ,  5-H ) :   0.9857
B(  4-C , 20-C ) :   1.0019 B(  6-C ,  7-H ) :   0.9365 B(  6-C ,  8-H ) :   0.9459
B(  6-C ,  9-C ) :   1.0641 B(  9-C , 10-H ) :   0.9578 B(  9-C , 11-H ) :   0.9569
B(  9-C , 12-C ) :   1.0614 B( 12-C , 13-H ) :   0.9748 B( 12-C , 14-H ) :   0.9791
B( 12-C , 15-H ) :   0.9732 B( 16-S , 17-C ) :   1.1754 B( 16-S , 20-C ) :   1.1415
B( 17-C , 18-C ) :   1.5837 B( 17-C , 20-C ) :   0.1022 B( 17-C , 33-H ) :   0.9617
B( 18-C , 19-C ) :   1.2248 B( 18-C , 21-H ) :   0.9927 B( 19-C , 20-C ) :   1.6060
B( 19-C , 22-C ) :   1.0730 B( 22-C , 23-H ) :   0.9194 B( 22-C , 24-H ) :   0.9301
B( 22-C , 25-C ) :   1.0409 B( 25-C , 26-H ) :   0.9641 B( 25-C , 27-H ) :   0.9547
B( 25-C , 28-C ) :   1.0816 B( 28-C , 29-H ) :   0.9768 B( 28-C , 30-H ) :   0.9737
B( 28-C , 31-H ) :   0.9763

Dispersion correction           -0.014093117
FINAL SINGLE POINT ENERGY     -1339.857667233180

DIPOLE MOMENT
-------------
                                X             Y             Z
Electronic contribution:      0.88351      21.78781       8.26444
Nuclear contribution   :     -0.69944     -22.24514      -8.38753
                        -----------------------------------------
Total Dipole Moment    :      0.18407      -0.45732      -0.12309
                        -----------------------------------------
Magnitude (a.u.)       :      0.50811
Magnitude (Debye)      :      1.29152

Rotational constants in cm-1:     0.018544     0.008361     0.006935
Rotational constants in MHz :   555.920457   250.664444   207.908796

                             ****ORCA TERMINATED NORMALLY****
TOTAL RUN TIME: 0 days 0 hours 0 minutes 21 seconds 510 msec
