                         Program Version 4.2.1 -  RELEASE  -
|  1> ! wB97X-D3 SP def2-SVP
|  2> %pal
|  3> nprocs 24
|  4> end
|  5>
|  6> * xyz 0 1
|  7> S 	 -39.4166 	 -8.38708 	 19.227
|  8> C 	 -39.185 	 -9.9747 	 19.9412
|  9> C 	 -39.6581 	 -10.9666 	 19.1467
| 10> C 	 -40.0235 	 -10.5554 	 17.8655
| 11> C 	 -39.9024 	 -9.17602 	 17.6947
| 12> H 	 -40.3809 	 -11.1947 	 17.0554
| 13> C 	 -39.9189 	 -12.38 	 19.6202
| 14> H 	 -41.0098 	 -12.4156 	 19.8534
| 15> H 	 -39.4175 	 -12.4274 	 20.5246
| 16> C 	 -39.5213 	 -13.5596 	 18.7782
| 17> H 	 -39.6362 	 -14.4346 	 19.4486
| 18> H 	 -40.3462 	 -13.6564 	 18.0692
| 19> C 	 -38.1268 	 -13.4904 	 18.3395
| 20> H 	 -37.519 	 -13.4396 	 19.2784
| 21> H 	 -37.8412 	 -14.3969 	 17.9314
| 22> H 	 -37.9401 	 -12.6756 	 17.6437
| 23> S 	 -41.7371 	 -7.35996 	 16.7249
| 24> C 	 -41.8517 	 -7.10454 	 14.9789
| 25> C 	 -41.0162 	 -7.91737 	 14.3234
| 26> C 	 -40.1307 	 -8.55687 	 15.1914
| 27> C 	 -40.4004 	 -8.41767 	 16.5249
| 28> H 	 -41.2749 	 -8.07127 	 13.2479
| 29> C 	 -39.1602 	 -9.54751 	 14.7296
| 30> H 	 -39.6015 	 -10.5171 	 14.9489
| 31> H 	 -38.2865 	 -9.46684 	 15.3184
| 32> C 	 -38.7201 	 -9.46604 	 13.2473
| 33> H 	 -39.6076 	 -9.57789 	 12.5985
| 34> H 	 -37.9947 	 -10.3163 	 12.9483
| 35> C 	 -37.8463 	 -8.20427 	 12.9067
| 36> H 	 -36.8788 	 -8.41917 	 13.3776
| 37> H 	 -38.3448 	 -7.25536 	 13.2174
| 38> H 	 -37.7424 	 -8.12437 	 11.7625
| 39> H 	 -38.8453 	 -10.1293 	 20.9552
| 40> H 	 -42.736 	 -6.72573 	 14.5254
| 41> *
| 42>
| 43>                          ****END OF INPUT****

CARTESIAN COORDINATES (ANGSTROEM)
---------------------------------
  S    -39.416600   -8.387080   19.227000
  C    -39.185000   -9.974700   19.941200
  C    -39.658100  -10.966600   19.146700
  C    -40.023500  -10.555400   17.865500
  C    -39.902400   -9.176020   17.694700
  H    -40.380900  -11.194700   17.055400
  C    -39.918900  -12.380000   19.620200
  H    -41.009800  -12.415600   19.853400
  H    -39.417500  -12.427400   20.524600
  C    -39.521300  -13.559600   18.778200
  H    -39.636200  -14.434600   19.448600
  H    -40.346200  -13.656400   18.069200
  C    -38.126800  -13.490400   18.339500
  H    -37.519000  -13.439600   19.278400
  H    -37.841200  -14.396900   17.931400
  H    -37.940100  -12.675600   17.643700
  S    -41.737100   -7.359960   16.724900
  C    -41.851700   -7.104540   14.978900
  C    -41.016200   -7.917370   14.323400
  C    -40.130700   -8.556870   15.191400
  C    -40.400400   -8.417670   16.524900
  H    -41.274900   -8.071270   13.247900
  C    -39.160200   -9.547510   14.729600
  H    -39.601500  -10.517100   14.948900
  H    -38.286500   -9.466840   15.318400
  C    -38.720100   -9.466040   13.247300
  H    -39.607600   -9.577890   12.598500
  H    -37.994700  -10.316300   12.948300
  C    -37.846300   -8.204270   12.906700
  H    -36.878800   -8.419170   13.377600
  H    -38.344800   -7.255360   13.217400
  H    -37.742400   -8.124370   11.762500
  H    -38.845300  -10.129300   20.955200
  H    -42.736000   -6.725730   14.525400

 Total Charge           Charge          ....    0
 Multiplicity           Mult            ....    1
 Number of Electrons    NEL             ....  134
 Basis Dimension        Dim             ....  322

ORBITAL ENERGIES
----------------

  NO   OCC          E(Eh)            E(eV)
   0   2.0000     -88.968785     -2420.9637
   1   2.0000     -88.960264     -2420.7319
   2   2.0000     -10.335974      -281.2562
   3   2.0000     -10.320473      -280.8343
   4   2.0000     -10.311732      -280.5965
   5   2.0000     -10.307791      -280.4893
   6   2.0000     -10.295648      -280.1588
   7   2.0000     -10.294649      -280.1316
   8   2.0000     -10.294113      -280.1170
   9   2.0000     -10.292199      -280.0650
  10   2.0000     -10.289741      -279.9981
  11   2.0000     -10.286576      -279.9120
  12   2.0000     -10.283069      -279.8165
  13   2.0000     -10.282821      -279.8098
  14   2.0000     -10.280132      -279.7366
  15   2.0000     -10.272347      -279.5248
  16   2.0000      -8.082689      -219.9411
  17   2.0000      -8.075708      -219.7512
  18   2.0000      -6.041181      -164.3889
  19   2.0000      -6.037460      -164.2877
  20   2.0000      -6.034093      -164.1960
  21   2.0000      -6.033374      -164.1765
  22   2.0000      -6.030198      -164.0900
  23   2.0000      -6.026454      -163.9882
  24   2.0000      -1.013060       -27.5668
  25   2.0000      -0.991090       -26.9689
  26   2.0000      -0.924092       -25.1458
  27   2.0000      -0.907728       -24.7005
  28   2.0000      -0.876278       -23.8447
  29   2.0000      -0.852717       -23.2036
  30   2.0000      -0.842290       -22.9199
  31   2.0000      -0.822907       -22.3924
  32   2.0000      -0.786664       -21.4062
  33   2.0000      -0.769928       -20.9508
  34   2.0000      -0.711053       -19.3487
  35   2.0000      -0.695896       -18.9363
  36   2.0000      -0.691657       -18.8209
  37   2.0000      -0.651346       -17.7240
  38   2.0000      -0.639618       -17.4049
  39   2.0000      -0.625965       -17.0334
  40   2.0000      -0.599219       -16.3056
  41   2.0000      -0.571532       -15.5522
  42   2.0000      -0.566523       -15.4159
  43   2.0000      -0.554560       -15.0903
  44   2.0000      -0.551214       -14.9993
  45   2.0000      -0.535412       -14.5693
  46   2.0000      -0.522205       -14.2099
  47   2.0000      -0.512370       -13.9423
  48   2.0000      -0.500292       -13.6136
  49   2.0000      -0.497152       -13.5282
  50   2.0000      -0.488058       -13.2807
  51   2.0000      -0.478018       -13.0075
  52   2.0000      -0.471298       -12.8247
  53   2.0000      -0.470930       -12.8146
  54   2.0000      -0.459345       -12.4994
  55   2.0000      -0.451555       -12.2874
  56   2.0000      -0.440924       -11.9982
  57   2.0000      -0.438943       -11.9442
  58   2.0000      -0.428274       -11.6539
  59   2.0000      -0.423003       -11.5105
  60   2.0000      -0.418562       -11.3896
  61   2.0000      -0.412476       -11.2240
  62   2.0000      -0.409848       -11.1525
  63   2.0000      -0.349410        -9.5079
  64   2.0000      -0.333477        -9.0744
  65   2.0000      -0.325849        -8.8668
  66   2.0000      -0.294274        -8.0076
  67   0.0000       0.031657         0.8614
  68   0.0000       0.063319         1.7230
  69   0.0000       0.107410         2.9228
  70   0.0000       0.124108         3.3771
  71   0.0000       0.132803         3.6138

MULLIKEN ATOMIC CHARGES
-----------------------
   0 S :    0.111980
   1 C :   -0.124388
   2 C :   -0.099932
   3 C :    0.027117
   4 C :   -0.163558
   5 H :    0.022770
   6 C :    0.090944
   7 H :    0.047842
   8 H :   -0.018239
   9 C :   -0.084111
  10 H :    0.027204
  11 H :    0.023032
  12 C :    0.010709
  13 H :    0.025323
  14 H :    0.012735
  15 H :    0.045748
  16 S :    0.092503
  17 C :   -0.074873
  18 C :   -0.075519
  19 C :   -0.057741
  20 C :   -0.132835
  21 H :    0.046298
  22 C :    0.103418
  23 H :    0.031975
  24 H :    0.018805
  25 C :   -0.119948
  26 H :    0.029500
  27 H :    0.038535
  28 C :   -0.087852
  29 H :    0.045660
  30 H :    0.052182
  31 H :    0.045481
  32 H :    0.043600
  33 H :    0.045638
Sum of atomic charges:    0.0000000

LOEWDIN ATOMIC CHARGES
----------------------
   0 S :    0.389897
   1 C :   -0.191484
   2 C :   -0.070524
   3 C :   -0.056457
   4 C :   -0.176485
   5 H :    0.034646
   6 C :   -0.028311
   7 H :    0.041298
   8 H :    0.014016
   9 C :   -0.049719
  10 H :    0.031907
  11 H :    0.019776
  12 C :   -0.056352
  13 H :    0.036426
  14 H :    0.016888
  15 H :    0.029088
  16 S :    0.407332
  17 C :   -0.175507
  18 C :   -0.078020
  19 C :   -0.069178
  20 C :   -0.208677
  21 H :    0.047556
  22 C :   -0.034460
  23 H :    0.032707
  24 H :    0.028369
  25 C :   -0.050191
  26 H :    0.016436
  27 H :    0.033637
  28 C :   -0.074482
  29 H :    0.027935
  30 H :    0.027156
  31 H :    0.034430
  32 H :    0.027289
  33 H :    0.023059

  Mayer bond orders larger than 0.100000
B(  0-S ,  1-C ) :   1.1296 B(  0-S ,  4-C ) :   1.1523 B(  1-C ,  2-C ) :   1.6297
B(  1-C , 32-H ) :   0.9624 B(  2-C ,  3-C ) :   1.2454 B(  2-C ,  6-C ) :   1.0141
B(  3-C ,  4-C ) :   1.5639 B(  3-C ,  5-H ) :   0.9881 B(  4-C , 20-C ) :   1.0211
B(  6-C ,  7-H ) :   0.9350 B(  6-C ,  8-H ) :   0.9252 B(  6-C ,  9-C ) :   1.0820
B(  9-C , 10-H ) :   0.9495 B(  9-C , 11-H ) :   0.9471 B(  9-C , 12-C ) :   1.0896
B( 12-C , 13-H ) :   0.9659 B( 12-C , 14-H ) :   0.9675 B( 12-C , 15-H ) :   0.9689
B( 16-S , 17-C ) :   1.1537 B( 16-S , 20-C ) :   1.1517 B( 17-C , 18-C ) :   1.6372
B( 17-C , 33-H ) :   0.9584 B( 18-C , 19-C ) :   1.2298 B( 18-C , 21-H ) :   0.9812
B( 19-C , 20-C ) :   1.6094 B( 19-C , 22-C ) :   1.0501 B( 22-C , 23-H ) :   0.9213
B( 22-C , 24-H ) :   0.9205 B( 22-C , 25-C ) :   1.0817 B( 25-C , 26-H ) :   0.9491
B( 25-C , 27-H ) :   0.9591 B( 25-C , 28-C ) :   1.0641 B( 28-C , 29-H ) :   0.9761
B( 28-C , 30-H ) :   0.9764 B( 28-C , 31-H ) :   0.9751

Dispersion correction           -0.014577777
FINAL SINGLE POINT ENERGY     -1339.860889409766

DIPOLE MOMENT
-------------
                                X             Y             Z
Electronic contribution:    -11.66500      20.51762      11.82528
Nuclear contribution   :     11.56114     -21.36594     -12.03129
                        -----------------------------------------
Total Dipole Moment    :     -0.10386      -0.84832      -0.20601
                        -----------------------------------------
Magnitude (a.u.)       :      0.87914
Magnitude (Debye)      :      2.23459

Rotational constants in cm-1:     0.018609     0.008924     0.007007
Rotational constants in MHz :   557.890315   267.528891   210.077903

                             ****ORCA TERMINATED NORMALLY****
TOTAL RUN TIME: 0 days 0 hours 0 minutes 22 seconds 280 msec
