                         Program Version 4.2.1 -  RELEASE  -
|  1> ! wB97X-D3 SP def2-SVP
|  2> %pal
|  3> nprocs 24
|  4> end
|  5>
|  6> * xyz 0 1
|  7> S 	 -41.6414 	 -48.7722 	 -71.8697
|  8> C 	 -41.5443 	 -47.1159 	 -72.4715
|  9> C 	 -41.89 	 -46.2264 	 -71.5209
| 10> C 	 -42.2467 	 -46.8169 	 -70.3054
| 11> C 	 -41.9886 	 -48.149 	 -70.2353
| 12> H 	 -42.4359 	 -46.3085 	 -69.4309
| 13> C 	 -41.9848 	 -44.7526 	 -71.6694
| 14> H 	 -41.268 	 -44.3003 	 -72.3969
| 15> H 	 -41.9059 	 -44.2547 	 -70.6545
| 16> C 	 -43.3604 	 -44.1549 	 -72.2563
| 17> H 	 -43.2627 	 -43.1218 	 -72.3354
| 18> H 	 -43.583 	 -44.4197 	 -73.2431
| 19> C 	 -44.499 	 -44.257 	 -71.3108
| 20> H 	 -45.2083 	 -43.6894 	 -71.8263
| 21> H 	 -44.8618 	 -45.2714 	 -71.1092
| 22> H 	 -44.3638 	 -43.7306 	 -70.3178
| 23> S 	 -40.3303 	 -49.5446 	 -68.5517
| 24> C 	 -40.9977 	 -50.2424 	 -67.0493
| 25> C 	 -42.2841 	 -49.7706 	 -66.8742
| 26> C 	 -42.7934 	 -48.9566 	 -67.9358
| 27> C 	 -41.8655 	 -48.9161 	 -68.9649
| 28> H 	 -42.9024 	 -50.0784 	 -65.9789
| 29> C 	 -44.2801 	 -48.5278 	 -67.9461
| 30> H 	 -44.2347 	 -47.4812 	 -68.3779
| 31> H 	 -44.5587 	 -48.432 	 -66.8819
| 32> C 	 -45.171 	 -49.3979 	 -68.814
| 33> H 	 -45.1542 	 -50.4542 	 -68.4816
| 34> H 	 -44.6353 	 -49.4258 	 -69.7991
| 35> C 	 -46.5501 	 -48.8613 	 -69.2383
| 36> H 	 -47.2654 	 -48.7631 	 -68.4178
| 37> H 	 -46.9636 	 -49.4071 	 -70.1234
| 38> H 	 -46.3685 	 -47.8755 	 -69.6609
| 39> H 	 -41.1749 	 -46.9013 	 -73.4735
| 40> H 	 -40.4661 	 -50.875 	 -66.3232
| 41> *
| 42>
| 43>                          ****END OF INPUT****

CARTESIAN COORDINATES (ANGSTROEM)
---------------------------------
  S    -41.641400  -48.772200  -71.869700
  C    -41.544300  -47.115900  -72.471500
  C    -41.890000  -46.226400  -71.520900
  C    -42.246700  -46.816900  -70.305400
  C    -41.988600  -48.149000  -70.235300
  H    -42.435900  -46.308500  -69.430900
  C    -41.984800  -44.752600  -71.669400
  H    -41.268000  -44.300300  -72.396900
  H    -41.905900  -44.254700  -70.654500
  C    -43.360400  -44.154900  -72.256300
  H    -43.262700  -43.121800  -72.335400
  H    -43.583000  -44.419700  -73.243100
  C    -44.499000  -44.257000  -71.310800
  H    -45.208300  -43.689400  -71.826300
  H    -44.861800  -45.271400  -71.109200
  H    -44.363800  -43.730600  -70.317800
  S    -40.330300  -49.544600  -68.551700
  C    -40.997700  -50.242400  -67.049300
  C    -42.284100  -49.770600  -66.874200
  C    -42.793400  -48.956600  -67.935800
  C    -41.865500  -48.916100  -68.964900
  H    -42.902400  -50.078400  -65.978900
  C    -44.280100  -48.527800  -67.946100
  H    -44.234700  -47.481200  -68.377900
  H    -44.558700  -48.432000  -66.881900
  C    -45.171000  -49.397900  -68.814000
  H    -45.154200  -50.454200  -68.481600
  H    -44.635300  -49.425800  -69.799100
  C    -46.550100  -48.861300  -69.238300
  H    -47.265400  -48.763100  -68.417800
  H    -46.963600  -49.407100  -70.123400
  H    -46.368500  -47.875500  -69.660900
  H    -41.174900  -46.901300  -73.473500
  H    -40.466100  -50.875000  -66.323200

 Total Charge           Charge          ....    0
 Multiplicity           Mult            ....    1
 Number of Electrons    NEL             ....  134
 Basis Dimension        Dim             ....  322

ORBITAL ENERGIES
----------------

  NO   OCC          E(Eh)            E(eV)
   0   2.0000     -88.967580     -2420.9309
   1   2.0000     -88.965372     -2420.8708
   2   2.0000     -10.330147      -281.0976
   3   2.0000     -10.326846      -281.0078
   4   2.0000     -10.319961      -280.8204
   5   2.0000     -10.312824      -280.6262
   6   2.0000     -10.301943      -280.3301
   7   2.0000     -10.300014      -280.2776
   8   2.0000     -10.298630      -280.2400
   9   2.0000     -10.297842      -280.2185
  10   2.0000     -10.294511      -280.1279
  11   2.0000     -10.287924      -279.9487
  12   2.0000     -10.283299      -279.8228
  13   2.0000     -10.280807      -279.7550
  14   2.0000     -10.278150      -279.6827
  15   2.0000     -10.273192      -279.5478
  16   2.0000      -8.082342      -219.9317
  17   2.0000      -8.079539      -219.8554
  18   2.0000      -6.040837      -164.3795
  19   2.0000      -6.038107      -164.3052
  20   2.0000      -6.036863      -164.2714
  21   2.0000      -6.034222      -164.1995
  22   2.0000      -6.033075      -164.1683
  23   2.0000      -6.030183      -164.0896
  24   2.0000      -1.009102       -27.4591
  25   2.0000      -0.987603       -26.8741
  26   2.0000      -0.911462       -24.8021
  27   2.0000      -0.904961       -24.6252
  28   2.0000      -0.870837       -23.6967
  29   2.0000      -0.855407       -23.2768
  30   2.0000      -0.847644       -23.0656
  31   2.0000      -0.816146       -22.2085
  32   2.0000      -0.780065       -21.2266
  33   2.0000      -0.770308       -20.9611
  34   2.0000      -0.706005       -19.2114
  35   2.0000      -0.701596       -19.0914
  36   2.0000      -0.687420       -18.7057
  37   2.0000      -0.660797       -17.9812
  38   2.0000      -0.645342       -17.5607
  39   2.0000      -0.617319       -16.7981
  40   2.0000      -0.588799       -16.0220
  41   2.0000      -0.572004       -15.5650
  42   2.0000      -0.560629       -15.2555
  43   2.0000      -0.550269       -14.9736
  44   2.0000      -0.541235       -14.7278
  45   2.0000      -0.521066       -14.1789
  46   2.0000      -0.519215       -14.1285
  47   2.0000      -0.509800       -13.8724
  48   2.0000      -0.507990       -13.8231
  49   2.0000      -0.495453       -13.4820
  50   2.0000      -0.487210       -13.2577
  51   2.0000      -0.484250       -13.1771
  52   2.0000      -0.479392       -13.0449
  53   2.0000      -0.466539       -12.6952
  54   2.0000      -0.458123       -12.4662
  55   2.0000      -0.447324       -12.1723
  56   2.0000      -0.439776       -11.9669
  57   2.0000      -0.435929       -11.8622
  58   2.0000      -0.434932       -11.8351
  59   2.0000      -0.421891       -11.4802
  60   2.0000      -0.418900       -11.3988
  61   2.0000      -0.413220       -11.2443
  62   2.0000      -0.407642       -11.0925
  63   2.0000      -0.346546        -9.4300
  64   2.0000      -0.331421        -9.0184
  65   2.0000      -0.327502        -8.9118
  66   2.0000      -0.296635        -8.0719
  67   0.0000       0.028019         0.7624
  68   0.0000       0.069386         1.8881
  69   0.0000       0.112010         3.0480
  70   0.0000       0.116657         3.1744
  71   0.0000       0.127564         3.4712

MULLIKEN ATOMIC CHARGES
-----------------------
   0 S :    0.098145
   1 C :   -0.139015
   2 C :   -0.014628
   3 C :    0.065781
   4 C :   -0.171457
   5 H :   -0.011034
   6 C :    0.015902
   7 H :    0.033609
   8 H :    0.028507
   9 C :   -0.030290
  10 H :    0.006520
  11 H :    0.013754
  12 C :   -0.056619
  13 H :    0.016190
  14 H :    0.044090
  15 H :    0.030649
  16 S :    0.120776
  17 C :   -0.108151
  18 C :   -0.051240
  19 C :   -0.055634
  20 C :   -0.165079
  21 H :    0.038284
  22 C :    0.086436
  23 H :    0.015297
  24 H :    0.027384
  25 C :   -0.084223
  26 H :    0.033304
  27 H :    0.032412
  28 C :   -0.038869
  29 H :    0.038524
  30 H :    0.044313
  31 H :    0.021500
  32 H :    0.050213
  33 H :    0.064649
Sum of atomic charges:    0.0000000

LOEWDIN ATOMIC CHARGES
----------------------
   0 S :    0.377492
   1 C :   -0.182305
   2 C :   -0.072624
   3 C :   -0.052388
   4 C :   -0.177110
   5 H :    0.018878
   6 C :   -0.033550
   7 H :    0.034389
   8 H :    0.035265
   9 C :   -0.030698
  10 H :    0.019555
  11 H :    0.016593
  12 C :   -0.066397
  13 H :    0.021446
  14 H :    0.022189
  15 H :    0.029902
  16 S :    0.416512
  17 C :   -0.188631
  18 C :   -0.074191
  19 C :   -0.065360
  20 C :   -0.207090
  21 H :    0.039745
  22 C :   -0.032272
  23 H :    0.033823
  24 H :    0.028768
  25 C :   -0.051840
  26 H :    0.025556
  27 H :    0.034557
  28 C :   -0.068386
  29 H :    0.021561
  30 H :    0.035893
  31 H :    0.024937
  32 H :    0.029964
  33 H :    0.035814

  Mayer bond orders larger than 0.100000
B(  0-S ,  1-C ) :   1.1206 B(  0-S ,  4-C ) :   1.1377 B(  1-C ,  2-C ) :   1.6248
B(  1-C , 32-H ) :   0.9698 B(  2-C ,  3-C ) :   1.2298 B(  2-C ,  6-C ) :   1.0393
B(  3-C ,  4-C ) :   1.5959 B(  3-C ,  5-H ) :   0.9960 B(  4-C , 20-C ) :   1.0107
B(  6-C ,  7-H ) :   0.9423 B(  6-C ,  8-H ) :   0.9395 B(  6-C ,  9-C ) :   1.0701
B(  9-C , 10-H ) :   0.9520 B(  9-C , 11-H ) :   0.9549 B(  9-C , 12-C ) :   1.0852
B( 12-C , 13-H ) :   0.9712 B( 12-C , 14-H ) :   0.9744 B( 12-C , 15-H ) :   0.9710
B( 16-S , 17-C ) :   1.1331 B( 16-S , 20-C ) :   1.1736 B( 17-C , 18-C ) :   1.6178
B( 17-C , 33-H ) :   0.9681 B( 18-C , 19-C ) :   1.2543 B( 18-C , 21-H ) :   0.9742
B( 19-C , 20-C ) :   1.5805 B( 19-C , 22-C ) :   1.0416 B( 22-C , 23-H ) :   0.9215
B( 22-C , 24-H ) :   0.9325 B( 22-C , 25-C ) :   1.0679 B( 25-C , 26-H ) :   0.9548
B( 25-C , 27-H ) :   0.9504 B( 25-C , 28-C ) :   1.0768 B( 28-C , 29-H ) :   0.9768
B( 28-C , 30-H ) :   0.9734 B( 28-C , 31-H ) :   0.9709

Dispersion correction           -0.014936128
FINAL SINGLE POINT ENERGY     -1339.862282901325

DIPOLE MOMENT
-------------
                                X             Y             Z
Electronic contribution:     23.35626     -16.53178       0.88868
Nuclear contribution   :    -23.69598      17.05404      -0.81422
                        -----------------------------------------
Total Dipole Moment    :     -0.33972       0.52226       0.07447
                        -----------------------------------------
Magnitude (a.u.)       :      0.62746
Magnitude (Debye)      :      1.59488

Rotational constants in cm-1:     0.017538     0.009652     0.007506
Rotational constants in MHz :   525.771551   289.344997   225.029814

                             ****ORCA TERMINATED NORMALLY****
TOTAL RUN TIME: 0 days 0 hours 0 minutes 22 seconds 561 msec
