                         Program Version 4.2.1 -  RELEASE  -
|  1> ! wB97X-D3 SP def2-SVP
|  2> %pal
|  3> nprocs 24
|  4> end
|  5>
|  6> * xyz 0 1
|  7> S 	 48.8219 	 -11.7021 	 -110.392
|  8> C 	 47.8482 	 -11.4775 	 -111.817
|  9> C 	 46.6724 	 -10.9176 	 -111.466
| 10> C 	 46.4013 	 -10.8835 	 -110.036
| 11> C 	 47.4684 	 -11.3516 	 -109.276
| 12> H 	 45.5008 	 -10.5247 	 -109.53
| 13> C 	 45.5933 	 -10.67 	 -112.495
| 14> H 	 45.9392 	 -10.2865 	 -113.432
| 15> H 	 45.0381 	 -9.86686 	 -112.056
| 16> C 	 44.7276 	 -11.874 	 -112.824
| 17> H 	 45.2917 	 -12.6458 	 -113.245
| 18> H 	 44.3233 	 -12.2447 	 -111.927
| 19> C 	 43.6766 	 -11.5428 	 -113.934
| 20> H 	 44.1981 	 -11.5341 	 -114.869
| 21> H 	 42.8316 	 -12.2013 	 -113.991
| 22> H 	 43.1516 	 -10.5653 	 -113.773
| 23> S 	 46.5866 	 -12.6514 	 -106.973
| 24> C 	 47.1339 	 -12.018 	 -105.359
| 25> C 	 48.0176 	 -11.0323 	 -105.566
| 26> C 	 48.3134 	 -10.6899 	 -106.936
| 27> C 	 47.4809 	 -11.3445 	 -107.837
| 28> H 	 48.5165 	 -10.6198 	 -104.758
| 29> C 	 49.28 	 -9.63476 	 -107.451
| 30> H 	 48.7171 	 -8.93926 	 -108.057
| 31> H 	 49.9411 	 -10.1091 	 -108.126
| 32> C 	 50.1578 	 -8.90338 	 -106.477
| 33> H 	 49.5376 	 -8.42704 	 -105.659
| 34> H 	 50.6972 	 -8.11941 	 -106.94
| 35> C 	 51.3164 	 -9.73176 	 -105.902
| 36> H 	 52.1712 	 -9.69036 	 -106.556
| 37> H 	 50.9987 	 -10.7521 	 -105.748
| 38> H 	 51.6672 	 -9.39649 	 -104.906
| 39> H 	 48.1932 	 -11.6385 	 -112.857
| 40> H 	 46.8712 	 -12.3991 	 -104.404
| 41> *
| 42>
| 43>                          ****END OF INPUT****

CARTESIAN COORDINATES (ANGSTROEM)
---------------------------------
  S     48.821900  -11.702100  -110.392000
  C     47.848200  -11.477500  -111.817000
  C     46.672400  -10.917600  -111.466000
  C     46.401300  -10.883500  -110.036000
  C     47.468400  -11.351600  -109.276000
  H     45.500800  -10.524700  -109.530000
  C     45.593300  -10.670000  -112.495000
  H     45.939200  -10.286500  -113.432000
  H     45.038100   -9.866860  -112.056000
  C     44.727600  -11.874000  -112.824000
  H     45.291700  -12.645800  -113.245000
  H     44.323300  -12.244700  -111.927000
  C     43.676600  -11.542800  -113.934000
  H     44.198100  -11.534100  -114.869000
  H     42.831600  -12.201300  -113.991000
  H     43.151600  -10.565300  -113.773000
  S     46.586600  -12.651400  -106.973000
  C     47.133900  -12.018000  -105.359000
  C     48.017600  -11.032300  -105.566000
  C     48.313400  -10.689900  -106.936000
  C     47.480900  -11.344500  -107.837000
  H     48.516500  -10.619800  -104.758000
  C     49.280000   -9.634760  -107.451000
  H     48.717100   -8.939260  -108.057000
  H     49.941100  -10.109100  -108.126000
  C     50.157800   -8.903380  -106.477000
  H     49.537600   -8.427040  -105.659000
  H     50.697200   -8.119410  -106.940000
  C     51.316400   -9.731760  -105.902000
  H     52.171200   -9.690360  -106.556000
  H     50.998700  -10.752100  -105.748000
  H     51.667200   -9.396490  -104.906000
  H     48.193200  -11.638500  -112.857000
  H     46.871200  -12.399100  -104.404000

 Total Charge           Charge          ....    0
 Multiplicity           Mult            ....    1
 Number of Electrons    NEL             ....  134
 Basis Dimension        Dim             ....  322

ORBITAL ENERGIES
----------------

  NO   OCC          E(Eh)            E(eV)
   0   2.0000     -88.964927     -2420.8587
   1   2.0000     -88.961561     -2420.7671
   2   2.0000     -10.332708      -281.1673
   3   2.0000     -10.327284      -281.0197
   4   2.0000     -10.318843      -280.7900
   5   2.0000     -10.316156      -280.7169
   6   2.0000     -10.306170      -280.4452
   7   2.0000     -10.301530      -280.3189
   8   2.0000     -10.298912      -280.2476
   9   2.0000     -10.289141      -279.9818
  10   2.0000     -10.285028      -279.8699
  11   2.0000     -10.283990      -279.8416
  12   2.0000     -10.283069      -279.8165
  13   2.0000     -10.278149      -279.6827
  14   2.0000     -10.277188      -279.6565
  15   2.0000     -10.274869      -279.5934
  16   2.0000      -8.079072      -219.8427
  17   2.0000      -8.074663      -219.7227
  18   2.0000      -6.037764      -164.2959
  19   2.0000      -6.033645      -164.1838
  20   2.0000      -6.033494      -164.1797
  21   2.0000      -6.029661      -164.0754
  22   2.0000      -6.029474      -164.0703
  23   2.0000      -6.025073      -163.9506
  24   2.0000      -1.002288       -27.2736
  25   2.0000      -0.980326       -26.6760
  26   2.0000      -0.913121       -24.8473
  27   2.0000      -0.911504       -24.8033
  28   2.0000      -0.877160       -23.8687
  29   2.0000      -0.844918       -22.9914
  30   2.0000      -0.841213       -22.8906
  31   2.0000      -0.820461       -22.3259
  32   2.0000      -0.782085       -21.2816
  33   2.0000      -0.771960       -21.0061
  34   2.0000      -0.711282       -19.3550
  35   2.0000      -0.707175       -19.2432
  36   2.0000      -0.698369       -19.0036
  37   2.0000      -0.658881       -17.9291
  38   2.0000      -0.642389       -17.4803
  39   2.0000      -0.615961       -16.7611
  40   2.0000      -0.600747       -16.3472
  41   2.0000      -0.570345       -15.5199
  42   2.0000      -0.567602       -15.4452
  43   2.0000      -0.556177       -15.1344
  44   2.0000      -0.548365       -14.9218
  45   2.0000      -0.522610       -14.2209
  46   2.0000      -0.516172       -14.0457
  47   2.0000      -0.515002       -14.0139
  48   2.0000      -0.509861       -13.8740
  49   2.0000      -0.498739       -13.5714
  50   2.0000      -0.492514       -13.4020
  51   2.0000      -0.480595       -13.0777
  52   2.0000      -0.472882       -12.8678
  53   2.0000      -0.469411       -12.7733
  54   2.0000      -0.458055       -12.4643
  55   2.0000      -0.444724       -12.1015
  56   2.0000      -0.441290       -12.0081
  57   2.0000      -0.434889       -11.8339
  58   2.0000      -0.430918       -11.7259
  59   2.0000      -0.428756       -11.6671
  60   2.0000      -0.423370       -11.5205
  61   2.0000      -0.411433       -11.1957
  62   2.0000      -0.408037       -11.1033
  63   2.0000      -0.342997        -9.3334
  64   2.0000      -0.330742        -8.9999
  65   2.0000      -0.323307        -8.7976
  66   2.0000      -0.302830        -8.2404
  67   0.0000       0.031390         0.8542
  68   0.0000       0.055726         1.5164
  69   0.0000       0.110051         2.9946
  70   0.0000       0.114432         3.1139
  71   0.0000       0.135432         3.6853

MULLIKEN ATOMIC CHARGES
-----------------------
   0 S :    0.103180
   1 C :   -0.128004
   2 C :   -0.069216
   3 C :    0.015573
   4 C :   -0.145847
   5 H :    0.028890
   6 C :    0.063355
   7 H :    0.004484
   8 H :    0.013219
   9 C :   -0.006886
  10 H :    0.010867
  11 H :    0.012834
  12 C :   -0.058798
  13 H :    0.032344
  14 H :    0.030030
  15 H :    0.028995
  16 S :    0.078734
  17 C :   -0.063002
  18 C :   -0.000488
  19 C :   -0.051029
  20 C :   -0.173073
  21 H :   -0.009456
  22 C :    0.103871
  23 H :    0.040799
  24 H :    0.011278
  25 C :   -0.064886
  26 H :    0.034014
  27 H :    0.019871
  28 C :   -0.064381
  29 H :    0.032529
  30 H :    0.029084
  31 H :    0.031101
  32 H :    0.066113
  33 H :    0.043902
Sum of atomic charges:    0.0000000

LOEWDIN ATOMIC CHARGES
----------------------
   0 S :    0.389617
   1 C :   -0.191932
   2 C :   -0.070697
   3 C :   -0.051739
   4 C :   -0.188523
   5 H :    0.037317
   6 C :   -0.029274
   7 H :    0.022422
   8 H :    0.026202
   9 C :   -0.025855
  10 H :    0.017805
  11 H :    0.016615
  12 C :   -0.064723
  13 H :    0.022569
  14 H :    0.023583
  15 H :    0.027841
  16 S :    0.352514
  17 C :   -0.150134
  18 C :   -0.066287
  19 C :   -0.045749
  20 C :   -0.182790
  21 H :    0.020270
  22 C :   -0.032633
  23 H :    0.038685
  24 H :    0.023870
  25 C :   -0.045736
  26 H :    0.026382
  27 H :    0.024269
  28 C :   -0.066096
  29 H :    0.023772
  30 H :    0.020323
  31 H :    0.029402
  32 H :    0.041215
  33 H :    0.027496

  Mayer bond orders larger than 0.100000
B(  0-S ,  1-C ) :   1.1314 B(  0-S ,  4-C ) :   1.1202 B(  1-C ,  2-C ) :   1.6228
B(  1-C , 32-H ) :   0.9678 B(  2-C ,  3-C ) :   1.2105 B(  2-C ,  6-C ) :   1.0402
B(  3-C ,  4-C ) :   1.5813 B(  3-C ,  5-H ) :   0.9929 B(  4-C , 20-C ) :   1.0667
B(  6-C ,  7-H ) :   0.9416 B(  6-C ,  8-H ) :   0.9339 B(  6-C ,  9-C ) :   1.0683
B(  9-C , 10-H ) :   0.9561 B(  9-C , 11-H ) :   0.9560 B(  9-C , 12-C ) :   1.0691
B( 12-C , 13-H ) :   0.9782 B( 12-C , 14-H ) :   0.9762 B( 12-C , 15-H ) :   0.9774
B( 16-S , 17-C ) :   1.1206 B( 16-S , 20-C ) :   1.1195 B( 17-C , 18-C ) :   1.6441
B( 17-C , 33-H ) :   0.9693 B( 18-C , 19-C ) :   1.2165 B( 18-C , 21-H ) :   0.9939
B( 19-C , 20-C ) :   1.6130 B( 19-C , 22-C ) :   1.0268 B( 22-C , 23-H ) :   0.9279
B( 22-C , 24-H ) :   0.9191 B( 22-C , 25-C ) :   1.0940 B( 25-C , 26-H ) :   0.9541
B( 25-C , 27-H ) :   0.9524 B( 25-C , 28-C ) :   1.0647 B( 28-C , 29-H ) :   0.9771
B( 28-C , 30-H ) :   0.9819 B( 28-C , 31-H ) :   0.9744

Dispersion correction           -0.014130831
FINAL SINGLE POINT ENERGY     -1339.868827871356

DIPOLE MOMENT
-------------
                                X             Y             Z
Electronic contribution:      1.40393     -10.18400       7.83454
Nuclear contribution   :     -1.38697      10.58027      -7.96526
                        -----------------------------------------
Total Dipole Moment    :      0.01696       0.39627      -0.13071
                        -----------------------------------------
Magnitude (a.u.)       :      0.41762
Magnitude (Debye)      :      1.06150

Rotational constants in cm-1:     0.024912     0.006940     0.005960
Rotational constants in MHz :   746.853166   208.050094   178.675908

                             ****ORCA TERMINATED NORMALLY****
TOTAL RUN TIME: 0 days 0 hours 0 minutes 21 seconds 111 msec
