                         Program Version 4.2.1 -  RELEASE  -
|  1> ! wB97X-D3 SP def2-SVP
|  2> %pal
|  3> nprocs 24
|  4> end
|  5>
|  6> * xyz 0 1
|  7> S 	 -42.6949 	 -8.49208 	 8.65466
|  8> C 	 -41.1125 	 -8.22031 	 7.92646
|  9> C 	 -40.7583 	 -6.87271 	 8.11865
| 10> C 	 -41.5973 	 -6.20503 	 9.10383
| 11> C 	 -42.8098 	 -6.87566 	 9.31496
| 12> H 	 -41.4428 	 -5.18041 	 9.4446
| 13> C 	 -39.4876 	 -6.15684 	 7.57237
| 14> H 	 -38.6356 	 -6.84441 	 7.6497
| 15> H 	 -39.226 	 -5.22687 	 8.04669
| 16> C 	 -39.6049 	 -5.78294 	 6.05258
| 17> H 	 -38.5995 	 -5.4262 	 5.64343
| 18> H 	 -39.9963 	 -6.5907 	 5.44717
| 19> C 	 -40.6046 	 -4.61077 	 5.83089
| 20> H 	 -40.6495 	 -4.40612 	 4.76187
| 21> H 	 -41.563 	 -4.74488 	 6.3021
| 22> H 	 -40.2473 	 -3.6854 	 6.33123
| 23> S 	 -45.6479 	 -6.68358 	 9.41416
| 24> C 	 -46.3565 	 -5.9003 	 10.8261
| 25> C 	 -45.4098 	 -5.3461 	 11.6076
| 26> C 	 -44.0443 	 -5.63015 	 11.2262
| 27> C 	 -43.9884 	 -6.43521 	 10.117
| 28> H 	 -45.6692 	 -4.72649 	 12.4504
| 29> C 	 -42.9526 	 -4.96157 	 11.9799
| 30> H 	 -42.0182 	 -5.51408 	 11.8323
| 31> H 	 -43.1516 	 -5.08263 	 13.0299
| 32> C 	 -42.8829 	 -3.48195 	 11.6934
| 33> H 	 -43.843 	 -3.04974 	 11.8533
| 34> H 	 -42.6473 	 -3.43132 	 10.6508
| 35> C 	 -41.8217 	 -2.82284 	 12.4713
| 36> H 	 -41.761 	 -3.08138 	 13.5128
| 37> H 	 -41.8895 	 -1.74531 	 12.3616
| 38> H 	 -40.7939 	 -3.05787 	 12.243
| 39> H 	 -40.5864 	 -9.00779 	 7.44616
| 40> H 	 -47.4353 	 -5.72493 	 10.9929
| 41> *
| 42>
| 43>                          ****END OF INPUT****

CARTESIAN COORDINATES (ANGSTROEM)
---------------------------------
  S    -42.694900   -8.492080    8.654660
  C    -41.112500   -8.220310    7.926460
  C    -40.758300   -6.872710    8.118650
  C    -41.597300   -6.205030    9.103830
  C    -42.809800   -6.875660    9.314960
  H    -41.442800   -5.180410    9.444600
  C    -39.487600   -6.156840    7.572370
  H    -38.635600   -6.844410    7.649700
  H    -39.226000   -5.226870    8.046690
  C    -39.604900   -5.782940    6.052580
  H    -38.599500   -5.426200    5.643430
  H    -39.996300   -6.590700    5.447170
  C    -40.604600   -4.610770    5.830890
  H    -40.649500   -4.406120    4.761870
  H    -41.563000   -4.744880    6.302100
  H    -40.247300   -3.685400    6.331230
  S    -45.647900   -6.683580    9.414160
  C    -46.356500   -5.900300   10.826100
  C    -45.409800   -5.346100   11.607600
  C    -44.044300   -5.630150   11.226200
  C    -43.988400   -6.435210   10.117000
  H    -45.669200   -4.726490   12.450400
  C    -42.952600   -4.961570   11.979900
  H    -42.018200   -5.514080   11.832300
  H    -43.151600   -5.082630   13.029900
  C    -42.882900   -3.481950   11.693400
  H    -43.843000   -3.049740   11.853300
  H    -42.647300   -3.431320   10.650800
  C    -41.821700   -2.822840   12.471300
  H    -41.761000   -3.081380   13.512800
  H    -41.889500   -1.745310   12.361600
  H    -40.793900   -3.057870   12.243000
  H    -40.586400   -9.007790    7.446160
  H    -47.435300   -5.724930   10.992900

 Total Charge           Charge          ....    0
 Multiplicity           Mult            ....    1
 Number of Electrons    NEL             ....  134
 Basis Dimension        Dim             ....  322

ORBITAL ENERGIES
----------------

  NO   OCC          E(Eh)            E(eV)
   0   2.0000     -88.966853     -2420.9112
   1   2.0000     -88.964375     -2420.8437
   2   2.0000     -10.336996      -281.2840
   3   2.0000     -10.334220      -281.2084
   4   2.0000     -10.320005      -280.8216
   5   2.0000     -10.318925      -280.7922
   6   2.0000     -10.314015      -280.6586
   7   2.0000     -10.301611      -280.3211
   8   2.0000     -10.301547      -280.3193
   9   2.0000     -10.297466      -280.2083
  10   2.0000     -10.292458      -280.0720
  11   2.0000     -10.290414      -280.0164
  12   2.0000     -10.286786      -279.9177
  13   2.0000     -10.281750      -279.7806
  14   2.0000     -10.273649      -279.5602
  15   2.0000     -10.273191      -279.5477
  16   2.0000      -8.081314      -219.9037
  17   2.0000      -8.078122      -219.8169
  18   2.0000      -6.039850      -164.3527
  19   2.0000      -6.036943      -164.2736
  20   2.0000      -6.035721      -164.2403
  21   2.0000      -6.032971      -164.1655
  22   2.0000      -6.032189      -164.1442
  23   2.0000      -6.028403      -164.0412
  24   2.0000      -1.000858       -27.2347
  25   2.0000      -0.981013       -26.6947
  26   2.0000      -0.924814       -25.1655
  27   2.0000      -0.902379       -24.5550
  28   2.0000      -0.866212       -23.5708
  29   2.0000      -0.854881       -23.2625
  30   2.0000      -0.840099       -22.8603
  31   2.0000      -0.813423       -22.1344
  32   2.0000      -0.784376       -21.3440
  33   2.0000      -0.773369       -21.0444
  34   2.0000      -0.712353       -19.3841
  35   2.0000      -0.697739       -18.9865
  36   2.0000      -0.691102       -18.8058
  37   2.0000      -0.662918       -18.0389
  38   2.0000      -0.644445       -17.5362
  39   2.0000      -0.614498       -16.7213
  40   2.0000      -0.598864       -16.2959
  41   2.0000      -0.574649       -15.6370
  42   2.0000      -0.571606       -15.5542
  43   2.0000      -0.545800       -14.8520
  44   2.0000      -0.540384       -14.7046
  45   2.0000      -0.538437       -14.6516
  46   2.0000      -0.522342       -14.2136
  47   2.0000      -0.511408       -13.9161
  48   2.0000      -0.504950       -13.7404
  49   2.0000      -0.497580       -13.5399
  50   2.0000      -0.490667       -13.3517
  51   2.0000      -0.477227       -12.9860
  52   2.0000      -0.473349       -12.8805
  53   2.0000      -0.466993       -12.7075
  54   2.0000      -0.457565       -12.4510
  55   2.0000      -0.447763       -12.1843
  56   2.0000      -0.442305       -12.0357
  57   2.0000      -0.434505       -11.8235
  58   2.0000      -0.428429       -11.6581
  59   2.0000      -0.425997       -11.5920
  60   2.0000      -0.420051       -11.4302
  61   2.0000      -0.418920       -11.3994
  62   2.0000      -0.415395       -11.3035
  63   2.0000      -0.352901        -9.6029
  64   2.0000      -0.329830        -8.9751
  65   2.0000      -0.328560        -8.9406
  66   2.0000      -0.291670        -7.9367
  67   0.0000       0.026077         0.7096
  68   0.0000       0.071083         1.9343
  69   0.0000       0.105424         2.8687
  70   0.0000       0.111569         3.0359
  71   0.0000       0.127760         3.4765

MULLIKEN ATOMIC CHARGES
-----------------------
   0 S :    0.106201
   1 C :   -0.114800
   2 C :   -0.088962
   3 C :    0.012331
   4 C :   -0.145680
   5 H :    0.017624
   6 C :    0.070369
   7 H :    0.035606
   8 H :    0.019904
   9 C :   -0.101514
  10 H :    0.040979
  11 H :    0.035644
  12 C :   -0.068633
  13 H :    0.039733
  14 H :    0.040359
  15 H :    0.015484
  16 S :    0.085381
  17 C :   -0.083947
  18 C :   -0.035594
  19 C :   -0.044653
  20 C :   -0.123263
  21 H :    0.015249
  22 C :    0.044391
  23 H :    0.027010
  24 H :    0.012834
  25 C :   -0.023313
  26 H :    0.021987
  27 H :    0.017760
  28 C :   -0.004469
  29 H :    0.012455
  30 H :    0.033393
  31 H :    0.011645
  32 H :    0.050592
  33 H :    0.067901
Sum of atomic charges:    0.0000000

LOEWDIN ATOMIC CHARGES
----------------------
   0 S :    0.408134
   1 C :   -0.190458
   2 C :   -0.054877
   3 C :   -0.070743
   4 C :   -0.190304
   5 H :    0.029801
   6 C :   -0.029421
   7 H :    0.031933
   8 H :    0.025927
   9 C :   -0.040732
  10 H :    0.029943
  11 H :    0.020475
  12 C :   -0.071058
  13 H :    0.026590
  14 H :    0.023199
  15 H :    0.021363
  16 S :    0.361225
  17 C :   -0.177502
  18 C :   -0.071358
  19 C :   -0.051949
  20 C :   -0.175764
  21 H :    0.029232
  22 C :   -0.032654
  23 H :    0.031366
  24 H :    0.027323
  25 C :   -0.031699
  26 H :    0.023999
  27 H :    0.023538
  28 C :   -0.066489
  29 H :    0.023198
  30 H :    0.028950
  31 H :    0.025108
  32 H :    0.024213
  33 H :    0.039490

  Mayer bond orders larger than 0.100000
B(  0-S ,  1-C ) :   1.1392 B(  0-S ,  4-C ) :   1.1682 B(  1-C ,  2-C ) :   1.5826
B(  1-C ,  4-C ) :   0.1058 B(  1-C , 32-H ) :   0.9797 B(  2-C ,  3-C ) :   1.2510
B(  2-C ,  6-C ) :   1.0190 B(  3-C ,  4-C ) :   1.5580 B(  3-C ,  5-H ) :   0.9836
B(  4-C , 20-C ) :   1.0261 B(  6-C ,  7-H ) :   0.9462 B(  6-C ,  8-H ) :   0.9517
B(  6-C ,  9-C ) :   1.0587 B(  9-C , 10-H ) :   0.9582 B(  9-C , 11-H ) :   0.9617
B(  9-C , 12-C ) :   1.0689 B( 12-C , 13-H ) :   0.9759 B( 12-C , 14-H ) :   0.9773
B( 12-C , 15-H ) :   0.9744 B( 16-S , 17-C ) :   1.1233 B( 16-S , 20-C ) :   1.1094
B( 17-C , 18-C ) :   1.6612 B( 17-C , 33-H ) :   0.9601 B( 18-C , 19-C ) :   1.1970
B( 18-C , 21-H ) :   0.9870 B( 19-C , 20-C ) :   1.6516 B( 19-C , 22-C ) :   1.0590
B( 22-C , 23-H ) :   0.9306 B( 22-C , 24-H ) :   0.9199 B( 22-C , 25-C ) :   1.0717
B( 25-C , 26-H ) :   0.9489 B( 25-C , 27-H ) :   0.9455 B( 25-C , 28-C ) :   1.0959
B( 28-C , 29-H ) :   0.9663 B( 28-C , 30-H ) :   0.9703 B( 28-C , 31-H ) :   0.9660

Dispersion correction           -0.014395555
FINAL SINGLE POINT ENERGY     -1339.878764182599

DIPOLE MOMENT
-------------
                                X             Y             Z
Electronic contribution:    -18.53905     -21.22415      -0.24085
Nuclear contribution   :     18.95403      21.83350       0.48374
                        -----------------------------------------
Total Dipole Moment    :      0.41498       0.60935       0.24289
                        -----------------------------------------
Magnitude (a.u.)       :      0.77622
Magnitude (Debye)      :      1.97298

Rotational constants in cm-1:     0.016981     0.009218     0.007041
Rotational constants in MHz :   509.082362   276.336872   211.070852

                             ****ORCA TERMINATED NORMALLY****
TOTAL RUN TIME: 0 days 0 hours 0 minutes 21 seconds 750 msec
