                         Program Version 4.2.1 -  RELEASE  -
|  1> ! wB97X-D3 SP def2-SVP
|  2> %pal
|  3> nprocs 24
|  4> end
|  5>
|  6> * xyz 0 1
|  7> S 	 -49.0725 	 10.4489 	 -22.6918
|  8> C 	 -49.9533 	 10.2807 	 -21.1322
|  9> C 	 -49.4359 	 11.1488 	 -20.1438
| 10> C 	 -48.3941 	 11.9555 	 -20.6978
| 11> C 	 -48.0816 	 11.7573 	 -22.0433
| 12> H 	 -47.8674 	 12.7883 	 -20.2109
| 13> C 	 -49.9438 	 11.2904 	 -18.724
| 14> H 	 -50.7803 	 10.728 	 -18.495
| 15> H 	 -50.3802 	 12.2797 	 -18.6887
| 16> C 	 -48.8791 	 10.9928 	 -17.6843
| 17> H 	 -47.9775 	 11.6781 	 -17.6919
| 18> H 	 -49.314 	 10.9224 	 -16.707
| 19> C 	 -48.2995 	 9.60539 	 -17.7681
| 20> H 	 -48.913 	 8.67584 	 -17.5214
| 21> H 	 -47.9992 	 9.35519 	 -18.7686
| 22> H 	 -47.4002 	 9.54176 	 -17.124
| 23> S 	 -47.4357 	 12.9771 	 -24.472
| 24> C 	 -45.8105 	 13.3556 	 -24.7824
| 25> C 	 -45.0215 	 13.2704 	 -23.7036
| 26> C 	 -45.7347 	 12.7901 	 -22.5673
| 27> C 	 -47.0556 	 12.4208 	 -22.8605
| 28> H 	 -43.9535 	 13.4736 	 -23.8803
| 29> C 	 -45.0177 	 12.6343 	 -21.2416
| 30> H 	 -44.0191 	 12.283 	 -21.4481
| 31> H 	 -45.4217 	 11.8202 	 -20.6285
| 32> C 	 -45.1379 	 13.9179 	 -20.4278
| 33> H 	 -46.1522 	 14.2011 	 -20.2959
| 34> H 	 -44.8125 	 14.6934 	 -21.0991
| 35> C 	 -44.2671 	 14.0468 	 -19.2314
| 36> H 	 -44.629 	 14.9656 	 -18.7975
| 37> H 	 -43.1988 	 14.0633 	 -19.5568
| 38> H 	 -44.3129 	 13.1831 	 -18.5386
| 39> H 	 -50.8395 	 9.70883 	 -20.9367
| 40> H 	 -45.4035 	 13.6222 	 -25.7483
| 41> *
| 42>
| 43>                          ****END OF INPUT****

CARTESIAN COORDINATES (ANGSTROEM)
---------------------------------
  S    -49.072500   10.448900  -22.691800
  C    -49.953300   10.280700  -21.132200
  C    -49.435900   11.148800  -20.143800
  C    -48.394100   11.955500  -20.697800
  C    -48.081600   11.757300  -22.043300
  H    -47.867400   12.788300  -20.210900
  C    -49.943800   11.290400  -18.724000
  H    -50.780300   10.728000  -18.495000
  H    -50.380200   12.279700  -18.688700
  C    -48.879100   10.992800  -17.684300
  H    -47.977500   11.678100  -17.691900
  H    -49.314000   10.922400  -16.707000
  C    -48.299500    9.605390  -17.768100
  H    -48.913000    8.675840  -17.521400
  H    -47.999200    9.355190  -18.768600
  H    -47.400200    9.541760  -17.124000
  S    -47.435700   12.977100  -24.472000
  C    -45.810500   13.355600  -24.782400
  C    -45.021500   13.270400  -23.703600
  C    -45.734700   12.790100  -22.567300
  C    -47.055600   12.420800  -22.860500
  H    -43.953500   13.473600  -23.880300
  C    -45.017700   12.634300  -21.241600
  H    -44.019100   12.283000  -21.448100
  H    -45.421700   11.820200  -20.628500
  C    -45.137900   13.917900  -20.427800
  H    -46.152200   14.201100  -20.295900
  H    -44.812500   14.693400  -21.099100
  C    -44.267100   14.046800  -19.231400
  H    -44.629000   14.965600  -18.797500
  H    -43.198800   14.063300  -19.556800
  H    -44.312900   13.183100  -18.538600
  H    -50.839500    9.708830  -20.936700
  H    -45.403500   13.622200  -25.748300

 Total Charge           Charge          ....    0
 Multiplicity           Mult            ....    1
 Number of Electrons    NEL             ....  134
 Basis Dimension        Dim             ....  322

ORBITAL ENERGIES
----------------

  NO   OCC          E(Eh)            E(eV)
   0   2.0000     -88.967912     -2420.9400
   1   2.0000     -88.963695     -2420.8252
   2   2.0000     -10.333989      -281.2021
   3   2.0000     -10.328739      -281.0593
   4   2.0000     -10.319037      -280.7953
   5   2.0000     -10.308788      -280.5164
   6   2.0000     -10.307191      -280.4729
   7   2.0000     -10.305648      -280.4309
   8   2.0000     -10.296873      -280.1922
   9   2.0000     -10.289982      -280.0047
  10   2.0000     -10.289365      -279.9879
  11   2.0000     -10.289075      -279.9800
  12   2.0000     -10.286540      -279.9110
  13   2.0000     -10.280211      -279.7388
  14   2.0000     -10.277033      -279.6523
  15   2.0000     -10.274576      -279.5854
  16   2.0000      -8.081332      -219.9042
  17   2.0000      -8.079720      -219.8604
  18   2.0000      -6.039969      -164.3559
  19   2.0000      -6.038092      -164.3048
  20   2.0000      -6.035980      -164.2474
  21   2.0000      -6.034076      -164.1956
  22   2.0000      -6.032064      -164.1408
  23   2.0000      -6.030521      -164.0988
  24   2.0000      -1.009601       -27.4726
  25   2.0000      -0.981408       -26.7055
  26   2.0000      -0.918110       -24.9830
  27   2.0000      -0.917619       -24.9697
  28   2.0000      -0.869147       -23.6507
  29   2.0000      -0.856416       -23.3043
  30   2.0000      -0.842871       -22.9357
  31   2.0000      -0.816265       -22.2117
  32   2.0000      -0.788262       -21.4497
  33   2.0000      -0.774244       -21.0683
  34   2.0000      -0.707154       -19.2426
  35   2.0000      -0.698534       -19.0081
  36   2.0000      -0.692545       -18.8451
  37   2.0000      -0.657163       -17.8823
  38   2.0000      -0.642592       -17.4858
  39   2.0000      -0.620349       -16.8806
  40   2.0000      -0.600660       -16.3448
  41   2.0000      -0.574326       -15.6282
  42   2.0000      -0.562860       -15.3162
  43   2.0000      -0.556352       -15.1391
  44   2.0000      -0.543571       -14.7913
  45   2.0000      -0.539142       -14.6708
  46   2.0000      -0.515820       -14.0362
  47   2.0000      -0.513311       -13.9679
  48   2.0000      -0.504853       -13.7377
  49   2.0000      -0.499526       -13.5928
  50   2.0000      -0.491385       -13.3713
  51   2.0000      -0.474695       -12.9171
  52   2.0000      -0.468910       -12.7597
  53   2.0000      -0.466083       -12.6828
  54   2.0000      -0.458161       -12.4672
  55   2.0000      -0.451816       -12.2945
  56   2.0000      -0.445709       -12.1283
  57   2.0000      -0.443845       -12.0776
  58   2.0000      -0.434148       -11.8138
  59   2.0000      -0.421314       -11.4645
  60   2.0000      -0.418567       -11.3898
  61   2.0000      -0.408666       -11.1204
  62   2.0000      -0.406221       -11.0538
  63   2.0000      -0.347810        -9.4644
  64   2.0000      -0.333004        -9.0615
  65   2.0000      -0.329864        -8.9761
  66   2.0000      -0.291007        -7.9187
  67   0.0000       0.025354         0.6899
  68   0.0000       0.078207         2.1281
  69   0.0000       0.115562         3.1446
  70   0.0000       0.122715         3.3392
  71   0.0000       0.126757         3.4492

MULLIKEN ATOMIC CHARGES
-----------------------
   0 S :    0.106488
   1 C :   -0.109357
   2 C :   -0.121757
   3 C :    0.019032
   4 C :   -0.140633
   5 H :    0.003188
   6 C :    0.151150
   7 H :   -0.011366
   8 H :    0.034494
   9 C :   -0.067938
  10 H :    0.046785
  11 H :    0.029492
  12 C :   -0.097604
  13 H :    0.032180
  14 H :    0.030985
  15 H :    0.034050
  16 S :    0.114825
  17 C :   -0.079810
  18 C :   -0.047688
  19 C :   -0.041964
  20 C :   -0.157705
  21 H :    0.029578
  22 C :    0.076337
  23 H :    0.012890
  24 H :    0.020950
  25 C :   -0.072645
  26 H :    0.014434
  27 H :    0.009087
  28 C :   -0.010162
  29 H :    0.038980
  30 H :    0.035443
  31 H :    0.028520
  32 H :    0.041674
  33 H :    0.048070
Sum of atomic charges:    0.0000000

LOEWDIN ATOMIC CHARGES
----------------------
   0 S :    0.384935
   1 C :   -0.186848
   2 C :   -0.055648
   3 C :   -0.068605
   4 C :   -0.186285
   5 H :    0.030532
   6 C :   -0.026650
   7 H :    0.022205
   8 H :    0.037974
   9 C :   -0.043903
  10 H :    0.033427
  11 H :    0.027352
  12 C :   -0.076758
  13 H :    0.028904
  14 H :    0.018279
  15 H :    0.028741
  16 S :    0.423110
  17 C :   -0.193769
  18 C :   -0.082423
  19 C :   -0.044954
  20 C :   -0.207835
  21 H :    0.041201
  22 C :   -0.031810
  23 H :    0.026477
  24 H :    0.027754
  25 C :   -0.045659
  26 H :    0.016657
  27 H :    0.024915
  28 C :   -0.062081
  29 H :    0.030735
  30 H :    0.031317
  31 H :    0.023419
  32 H :    0.025467
  33 H :    0.029827

  Mayer bond orders larger than 0.100000
B(  0-S ,  1-C ) :   1.1310 B(  0-S ,  4-C ) :   1.1436 B(  1-C ,  2-C ) :   1.6025
B(  1-C ,  4-C ) :   0.1048 B(  1-C , 32-H ) :   0.9662 B(  2-C ,  3-C ) :   1.2328
B(  2-C ,  6-C ) :   1.0244 B(  3-C ,  4-C ) :   1.5801 B(  3-C ,  5-H ) :   0.9892
B(  4-C , 20-C ) :   1.0484 B(  6-C ,  7-H ) :   0.9307 B(  6-C ,  8-H ) :   0.9345
B(  6-C ,  9-C ) :   1.0717 B(  9-C , 10-H ) :   0.9571 B(  9-C , 11-H ) :   0.9557
B(  9-C , 12-C ) :   1.0661 B( 12-C , 13-H ) :   0.9737 B( 12-C , 14-H ) :   0.9724
B( 12-C , 15-H ) :   0.9739 B( 16-S , 17-C ) :   1.1625 B( 16-S , 20-C ) :   1.1429
B( 17-C , 18-C ) :   1.6293 B( 17-C , 33-H ) :   0.9620 B( 18-C , 19-C ) :   1.2305
B( 18-C , 21-H ) :   0.9906 B( 19-C , 20-C ) :   1.5793 B( 19-C , 22-C ) :   1.0517
B( 22-C , 23-H ) :   0.9367 B( 22-C , 24-H ) :   0.9279 B( 22-C , 25-C ) :   1.0562
B( 25-C , 26-H ) :   0.9501 B( 25-C , 27-H ) :   0.9446 B( 25-C , 28-C ) :   1.0798
B( 28-C , 29-H ) :   0.9709 B( 28-C , 30-H ) :   0.9728 B( 28-C , 31-H ) :   0.9732

Dispersion correction           -0.014817103
FINAL SINGLE POINT ENERGY     -1339.871528433042

DIPOLE MOMENT
-------------
                                X             Y             Z
Electronic contribution:     -9.91663      -1.57432     -28.99379
Nuclear contribution   :     10.20972       1.79597      29.50471
                        -----------------------------------------
Total Dipole Moment    :      0.29309       0.22166       0.51091
                        -----------------------------------------
Magnitude (a.u.)       :      0.62934
Magnitude (Debye)      :      1.59965

Rotational constants in cm-1:     0.017496     0.010082     0.006883
Rotational constants in MHz :   524.528509   302.247406   206.357411

                             ****ORCA TERMINATED NORMALLY****
TOTAL RUN TIME: 0 days 0 hours 0 minutes 22 seconds 312 msec
