                         Program Version 4.2.1 -  RELEASE  -
|  1> ! wB97X-D3 SP def2-SVP
|  2> %pal
|  3> nprocs 24
|  4> end
|  5>
|  6> * xyz 0 1
|  7> S 	 46.3912 	 -35.6419 	 -122.971
|  8> C 	 45.5265 	 -35.0461 	 -124.358
|  9> C 	 44.6576 	 -33.9686 	 -124.064
| 10> C 	 44.7014 	 -33.6833 	 -122.678
| 11> C 	 45.5655 	 -34.4809 	 -121.933
| 12> H 	 44.1711 	 -32.8503 	 -122.136
| 13> C 	 43.6236 	 -33.2947 	 -125.019
| 14> H 	 42.6199 	 -33.0691 	 -124.438
| 15> H 	 43.4013 	 -33.9347 	 -125.797
| 16> C 	 44.1531 	 -32.0103 	 -125.565
| 17> H 	 45.1773 	 -31.9986 	 -125.866
| 18> H 	 43.6398 	 -31.7547 	 -126.508
| 19> C 	 43.9335 	 -30.7766 	 -124.654
| 20> H 	 44.4469 	 -30.7443 	 -123.674
| 21> H 	 44.1969 	 -29.8608 	 -125.108
| 22> H 	 42.7922 	 -30.6916 	 -124.466
| 23> S 	 47.479 	 -34.1186 	 -119.999
| 24> C 	 46.9551 	 -33.9275 	 -118.325
| 25> C 	 45.6174 	 -34.2048 	 -118.174
| 26> C 	 44.9516 	 -34.4399 	 -119.399
| 27> C 	 45.8034 	 -34.2365 	 -120.515
| 28> H 	 45.1217 	 -34.2376 	 -117.246
| 29> C 	 43.4212 	 -34.6845 	 -119.423
| 30> H 	 43.1713 	 -35.0911 	 -118.506
| 31> H 	 43.2677 	 -35.4657 	 -120.179
| 32> C 	 42.514 	 -33.4732 	 -119.699
| 33> H 	 42.5515 	 -33.1889 	 -120.796
| 34> H 	 42.7063 	 -32.5529 	 -119.101
| 35> C 	 41.0969 	 -33.7257 	 -119.275
| 36> H 	 40.4345 	 -32.9858 	 -119.677
| 37> H 	 40.8904 	 -33.69 	 -118.21
| 38> H 	 40.7968 	 -34.7704 	 -119.508
| 39> H 	 45.6454 	 -35.3814 	 -125.4
| 40> H 	 47.487 	 -33.5465 	 -117.468
| 41> *
| 42>
| 43>                          ****END OF INPUT****

CARTESIAN COORDINATES (ANGSTROEM)
---------------------------------
  S     46.391200  -35.641900  -122.971000
  C     45.526500  -35.046100  -124.358000
  C     44.657600  -33.968600  -124.064000
  C     44.701400  -33.683300  -122.678000
  C     45.565500  -34.480900  -121.933000
  H     44.171100  -32.850300  -122.136000
  C     43.623600  -33.294700  -125.019000
  H     42.619900  -33.069100  -124.438000
  H     43.401300  -33.934700  -125.797000
  C     44.153100  -32.010300  -125.565000
  H     45.177300  -31.998600  -125.866000
  H     43.639800  -31.754700  -126.508000
  C     43.933500  -30.776600  -124.654000
  H     44.446900  -30.744300  -123.674000
  H     44.196900  -29.860800  -125.108000
  H     42.792200  -30.691600  -124.466000
  S     47.479000  -34.118600  -119.999000
  C     46.955100  -33.927500  -118.325000
  C     45.617400  -34.204800  -118.174000
  C     44.951600  -34.439900  -119.399000
  C     45.803400  -34.236500  -120.515000
  H     45.121700  -34.237600  -117.246000
  C     43.421200  -34.684500  -119.423000
  H     43.171300  -35.091100  -118.506000
  H     43.267700  -35.465700  -120.179000
  C     42.514000  -33.473200  -119.699000
  H     42.551500  -33.188900  -120.796000
  H     42.706300  -32.552900  -119.101000
  C     41.096900  -33.725700  -119.275000
  H     40.434500  -32.985800  -119.677000
  H     40.890400  -33.690000  -118.210000
  H     40.796800  -34.770400  -119.508000
  H     45.645400  -35.381400  -125.400000
  H     47.487000  -33.546500  -117.468000

 Total Charge           Charge          ....    0
 Multiplicity           Mult            ....    1
 Number of Electrons    NEL             ....  134
 Basis Dimension        Dim             ....  322

ORBITAL ENERGIES
----------------

  NO   OCC          E(Eh)            E(eV)
   0   2.0000     -88.973099     -2421.0811
   1   2.0000     -88.967319     -2420.9238
   2   2.0000     -10.327477      -281.0249
   3   2.0000     -10.327250      -281.0188
   4   2.0000     -10.318473      -280.7799
   5   2.0000     -10.315717      -280.7049
   6   2.0000     -10.304622      -280.4030
   7   2.0000     -10.304266      -280.3933
   8   2.0000     -10.299140      -280.2539
   9   2.0000     -10.293966      -280.1130
  10   2.0000     -10.291317      -280.0410
  11   2.0000     -10.290195      -280.0105
  12   2.0000     -10.287597      -279.9397
  13   2.0000     -10.283941      -279.8403
  14   2.0000     -10.280915      -279.7579
  15   2.0000     -10.274407      -279.5808
  16   2.0000      -8.087112      -220.0615
  17   2.0000      -8.081545      -219.9100
  18   2.0000      -6.045646      -164.5104
  19   2.0000      -6.041676      -164.4024
  20   2.0000      -6.040109      -164.3597
  21   2.0000      -6.037944      -164.3008
  22   2.0000      -6.036197      -164.2533
  23   2.0000      -6.032206      -164.1447
  24   2.0000      -1.002533       -27.2803
  25   2.0000      -0.980503       -26.6808
  26   2.0000      -0.912357       -24.8265
  27   2.0000      -0.909256       -24.7421
  28   2.0000      -0.867222       -23.5983
  29   2.0000      -0.852684       -23.2027
  30   2.0000      -0.844915       -22.9913
  31   2.0000      -0.811175       -22.0732
  32   2.0000      -0.784022       -21.3343
  33   2.0000      -0.769392       -20.9362
  34   2.0000      -0.702815       -19.1246
  35   2.0000      -0.697306       -18.9747
  36   2.0000      -0.691217       -18.8090
  37   2.0000      -0.662501       -18.0276
  38   2.0000      -0.638107       -17.3638
  39   2.0000      -0.615215       -16.7409
  40   2.0000      -0.593331       -16.1454
  41   2.0000      -0.570675       -15.5289
  42   2.0000      -0.564367       -15.3572
  43   2.0000      -0.552536       -15.0353
  44   2.0000      -0.537314       -14.6210
  45   2.0000      -0.529096       -14.3974
  46   2.0000      -0.513611       -13.9761
  47   2.0000      -0.510610       -13.8944
  48   2.0000      -0.500401       -13.6166
  49   2.0000      -0.496336       -13.5060
  50   2.0000      -0.484351       -13.1799
  51   2.0000      -0.478892       -13.0313
  52   2.0000      -0.468331       -12.7439
  53   2.0000      -0.459219       -12.4960
  54   2.0000      -0.456964       -12.4346
  55   2.0000      -0.454878       -12.3779
  56   2.0000      -0.444025       -12.0825
  57   2.0000      -0.439226       -11.9519
  58   2.0000      -0.436144       -11.8681
  59   2.0000      -0.428197       -11.6518
  60   2.0000      -0.422181       -11.4881
  61   2.0000      -0.412291       -11.2190
  62   2.0000      -0.404264       -11.0006
  63   2.0000      -0.345326        -9.3968
  64   2.0000      -0.332548        -9.0491
  65   2.0000      -0.329932        -8.9779
  66   2.0000      -0.287852        -7.8329
  67   0.0000       0.030294         0.8243
  68   0.0000       0.059737         1.6255
  69   0.0000       0.108247         2.9456
  70   0.0000       0.114531         3.1166
  71   0.0000       0.130721         3.5571

MULLIKEN ATOMIC CHARGES
-----------------------
   0 S :    0.135702
   1 C :   -0.135569
   2 C :   -0.078337
   3 C :   -0.014461
   4 C :   -0.152168
   5 H :    0.042197
   6 C :    0.086555
   7 H :    0.050457
   8 H :    0.004875
   9 C :   -0.052760
  10 H :    0.026776
  11 H :    0.024311
  12 C :   -0.084026
  13 H :    0.044984
  14 H :    0.022703
  15 H :    0.027593
  16 S :    0.107684
  17 C :   -0.074353
  18 C :   -0.018997
  19 C :   -0.053134
  20 C :   -0.182707
  21 H :    0.000441
  22 C :    0.117063
  23 H :   -0.007657
  24 H :    0.039834
  25 C :   -0.083005
  26 H :    0.040883
  27 H :    0.034512
  28 C :   -0.053972
  29 H :    0.030190
  30 H :    0.024566
  31 H :    0.023688
  32 H :    0.053639
  33 H :    0.052494
Sum of atomic charges:   -0.0000000

LOEWDIN ATOMIC CHARGES
----------------------
   0 S :    0.412857
   1 C :   -0.209779
   2 C :   -0.060644
   3 C :   -0.067855
   4 C :   -0.204522
   5 H :    0.038425
   6 C :   -0.023136
   7 H :    0.046157
   8 H :    0.018657
   9 C :   -0.045076
  10 H :    0.022919
  11 H :    0.027274
  12 C :   -0.071315
  13 H :    0.026144
  14 H :    0.017824
  15 H :    0.029052
  16 S :    0.401348
  17 C :   -0.181595
  18 C :   -0.066187
  19 C :   -0.047700
  20 C :   -0.198740
  21 H :    0.024535
  22 C :   -0.022568
  23 H :    0.017647
  24 H :    0.039072
  25 C :   -0.047255
  26 H :    0.028719
  27 H :    0.031022
  28 C :   -0.069821
  29 H :    0.025154
  30 H :    0.022063
  31 H :    0.023603
  32 H :    0.032388
  33 H :    0.031328

  Mayer bond orders larger than 0.100000
B(  0-S ,  1-C ) :   1.1516 B(  0-S ,  4-C ) :   1.1407 B(  1-C ,  2-C ) :   1.5951
B(  1-C , 32-H ) :   0.9606 B(  2-C ,  3-C ) :   1.2682 B(  2-C ,  6-C ) :   1.0096
B(  3-C ,  4-C ) :   1.5677 B(  3-C ,  5-H ) :   0.9703 B(  4-C , 20-C ) :   1.0624
B(  6-C ,  7-H ) :   0.9515 B(  6-C ,  8-H ) :   0.9362 B(  6-C ,  9-C ) :   1.0670
B(  9-C , 10-H ) :   0.9526 B(  9-C , 11-H ) :   0.9523 B(  9-C , 12-C ) :   1.0807
B( 12-C , 13-H ) :   0.9741 B( 12-C , 14-H ) :   0.9736 B( 12-C , 15-H ) :   0.9745
B( 16-S , 17-C ) :   1.1498 B( 16-S , 20-C ) :   1.1378 B( 17-C , 18-C ) :   1.6020
B( 17-C , 20-C ) :   0.1041 B( 17-C , 33-H ) :   0.9641 B( 18-C , 19-C ) :   1.2689
B( 18-C , 21-H ) :   0.9930 B( 19-C , 20-C ) :   1.5616 B( 19-C , 22-C ) :   1.0431
B( 22-C , 23-H ) :   0.9355 B( 22-C , 24-H ) :   0.9194 B( 22-C , 25-C ) :   1.0675
B( 25-C , 26-H ) :   0.9454 B( 25-C , 27-H ) :   0.9585 B( 25-C , 28-C ) :   1.0812
B( 28-C , 29-H ) :   0.9713 B( 28-C , 30-H ) :   0.9748 B( 28-C , 31-H ) :   0.9715

Dispersion correction           -0.014446032
FINAL SINGLE POINT ENERGY     -1339.863356917578

DIPOLE MOMENT
-------------
                                X             Y             Z
Electronic contribution:     25.74654     -14.37316       4.55432
Nuclear contribution   :    -26.33480      14.66556      -4.55189
                        -----------------------------------------
Total Dipole Moment    :     -0.58826       0.29240       0.00244
                        -----------------------------------------
Magnitude (a.u.)       :      0.65693
Magnitude (Debye)      :      1.66977

Rotational constants in cm-1:     0.016049     0.009568     0.007271
Rotational constants in MHz :   481.145522   286.831443   217.977204

                             ****ORCA TERMINATED NORMALLY****
TOTAL RUN TIME: 0 days 0 hours 0 minutes 21 seconds 886 msec
