                         Program Version 4.2.1 -  RELEASE  -
|  1> ! wB97X-D3 SP def2-SVP
|  2> %pal
|  3> nprocs 24
|  4> end
|  5>
|  6> * xyz 0 1
|  7> S 	 -34.5023 	 6.50038 	 4.4477
|  8> C 	 -34.5565 	 4.80716 	 4.19497
|  9> C 	 -34.0037 	 4.05866 	 5.22496
| 10> C 	 -33.6719 	 4.87316 	 6.34304
| 11> C 	 -33.8089 	 6.27938 	 6.05206
| 12> H 	 -33.1848 	 4.5841 	 7.28808
| 13> C 	 -33.9499 	 2.48913 	 5.32642
| 14> H 	 -34.8319 	 2.26383 	 5.90814
| 15> H 	 -33.0337 	 2.29731 	 5.87509
| 16> C 	 -33.8883 	 1.59279 	 4.06386
| 17> H 	 -34.69 	 1.84732 	 3.36934
| 18> H 	 -32.9619 	 2.01322 	 3.59593
| 19> C 	 -33.8095 	 0.0653405 	 4.25734
| 20> H 	 -34.7939 	 -0.242701 	 4.64213
| 21> H 	 -33.563 	 -0.528806 	 3.37211
| 22> H 	 -33.0434 	 -0.166517 	 4.99999
| 23> S 	 -34.7977 	 8.70826 	 6.93802
| 24> C 	 -33.8449 	 9.68442 	 8.04914
| 25> C 	 -32.7421 	 8.99219 	 8.40628
| 26> C 	 -32.5482 	 7.73468 	 7.77028
| 27> C 	 -33.5805 	 7.41494 	 6.90981
| 28> H 	 -32.0186 	 9.41415 	 9.07326
| 29> C 	 -31.3481 	 6.92079 	 8.14624
| 30> H 	 -31.6481 	 5.94231 	 8.05575
| 31> H 	 -31.0934 	 7.14604 	 9.24952
| 32> C 	 -30.1292 	 7.12818 	 7.30332
| 33> H 	 -29.3379 	 6.56437 	 7.66205
| 34> H 	 -29.8841 	 8.23697 	 7.29208
| 35> C 	 -30.3999 	 6.59018 	 5.90538
| 36> H 	 -30.8469 	 5.60145 	 6.10228
| 37> H 	 -29.5204 	 6.28267 	 5.26719
| 38> H 	 -31.0903 	 7.17747 	 5.29708
| 39> H 	 -34.741 	 4.4468 	 3.20827
| 40> H 	 -34.2576 	 10.6554 	 8.42299
| 41> *
| 42>
| 43>                          ****END OF INPUT****

CARTESIAN COORDINATES (ANGSTROEM)
---------------------------------
  S    -34.502300    6.500380    4.447700
  C    -34.556500    4.807160    4.194970
  C    -34.003700    4.058660    5.224960
  C    -33.671900    4.873160    6.343040
  C    -33.808900    6.279380    6.052060
  H    -33.184800    4.584100    7.288080
  C    -33.949900    2.489130    5.326420
  H    -34.831900    2.263830    5.908140
  H    -33.033700    2.297310    5.875090
  C    -33.888300    1.592790    4.063860
  H    -34.690000    1.847320    3.369340
  H    -32.961900    2.013220    3.595930
  C    -33.809500    0.065340    4.257340
  H    -34.793900   -0.242701    4.642130
  H    -33.563000   -0.528806    3.372110
  H    -33.043400   -0.166517    4.999990
  S    -34.797700    8.708260    6.938020
  C    -33.844900    9.684420    8.049140
  C    -32.742100    8.992190    8.406280
  C    -32.548200    7.734680    7.770280
  C    -33.580500    7.414940    6.909810
  H    -32.018600    9.414150    9.073260
  C    -31.348100    6.920790    8.146240
  H    -31.648100    5.942310    8.055750
  H    -31.093400    7.146040    9.249520
  C    -30.129200    7.128180    7.303320
  H    -29.337900    6.564370    7.662050
  H    -29.884100    8.236970    7.292080
  C    -30.399900    6.590180    5.905380
  H    -30.846900    5.601450    6.102280
  H    -29.520400    6.282670    5.267190
  H    -31.090300    7.177470    5.297080
  H    -34.741000    4.446800    3.208270
  H    -34.257600   10.655400    8.422990

 Total Charge           Charge          ....    0
 Multiplicity           Mult            ....    1
 Number of Electrons    NEL             ....  134
 Basis Dimension        Dim             ....  322

ORBITAL ENERGIES
----------------

  NO   OCC          E(Eh)            E(eV)
   0   2.0000     -88.969857     -2420.9929
   1   2.0000     -88.960966     -2420.7509
   2   2.0000     -10.335144      -281.2336
   3   2.0000     -10.328094      -281.0417
   4   2.0000     -10.320073      -280.8235
   5   2.0000     -10.309863      -280.5456
   6   2.0000     -10.309035      -280.5231
   7   2.0000     -10.303648      -280.3765
   8   2.0000     -10.299280      -280.2577
   9   2.0000     -10.298254      -280.2297
  10   2.0000     -10.293236      -280.0932
  11   2.0000     -10.288887      -279.9748
  12   2.0000     -10.287744      -279.9437
  13   2.0000     -10.286637      -279.9136
  14   2.0000     -10.281139      -279.7640
  15   2.0000     -10.272852      -279.5385
  16   2.0000      -8.084741      -219.9970
  17   2.0000      -8.075618      -219.7487
  18   2.0000      -6.043056      -164.4399
  19   2.0000      -6.039139      -164.3333
  20   2.0000      -6.035794      -164.2423
  21   2.0000      -6.034232      -164.1998
  22   2.0000      -6.030064      -164.0864
  23   2.0000      -6.026344      -163.9852
  24   2.0000      -1.006648       -27.3923
  25   2.0000      -0.984684       -26.7946
  26   2.0000      -0.919915       -25.0321
  27   2.0000      -0.906312       -24.6620
  28   2.0000      -0.870935       -23.6994
  29   2.0000      -0.853553       -23.2264
  30   2.0000      -0.845172       -22.9983
  31   2.0000      -0.809926       -22.0392
  32   2.0000      -0.782827       -21.3018
  33   2.0000      -0.771473       -20.9929
  34   2.0000      -0.707425       -19.2500
  35   2.0000      -0.702949       -19.1282
  36   2.0000      -0.691579       -18.8188
  37   2.0000      -0.663980       -18.0678
  38   2.0000      -0.641127       -17.4459
  39   2.0000      -0.612669       -16.6716
  40   2.0000      -0.598227       -16.2786
  41   2.0000      -0.574680       -15.6378
  42   2.0000      -0.562452       -15.3051
  43   2.0000      -0.558426       -15.1955
  44   2.0000      -0.545318       -14.8388
  45   2.0000      -0.520913       -14.1748
  46   2.0000      -0.515970       -14.0403
  47   2.0000      -0.508496       -13.8369
  48   2.0000      -0.505968       -13.7681
  49   2.0000      -0.495883       -13.4937
  50   2.0000      -0.493708       -13.4345
  51   2.0000      -0.481709       -13.1080
  52   2.0000      -0.475313       -12.9339
  53   2.0000      -0.465341       -12.6626
  54   2.0000      -0.462406       -12.5827
  55   2.0000      -0.443615       -12.0714
  56   2.0000      -0.440695       -11.9919
  57   2.0000      -0.436034       -11.8651
  58   2.0000      -0.428578       -11.6622
  59   2.0000      -0.426154       -11.5962
  60   2.0000      -0.420714       -11.4482
  61   2.0000      -0.414770       -11.2865
  62   2.0000      -0.411402       -11.1948
  63   2.0000      -0.353671        -9.6239
  64   2.0000      -0.334108        -9.0915
  65   2.0000      -0.330104        -8.9826
  66   2.0000      -0.285592        -7.7713
  67   0.0000       0.022545         0.6135
  68   0.0000       0.073396         1.9972
  69   0.0000       0.109041         2.9672
  70   0.0000       0.116651         3.1742
  71   0.0000       0.132350         3.6014

MULLIKEN ATOMIC CHARGES
-----------------------
   0 S :    0.122688
   1 C :   -0.120617
   2 C :   -0.088421
   3 C :    0.018385
   4 C :   -0.184358
   5 H :    0.032029
   6 C :    0.055474
   7 H :    0.046687
   8 H :    0.027240
   9 C :   -0.113875
  10 H :    0.033180
  11 H :    0.031164
  12 C :   -0.033077
  13 H :    0.035701
  14 H :    0.046137
  15 H :    0.028815
  16 S :    0.083292
  17 C :   -0.106822
  18 C :   -0.013960
  19 C :   -0.053193
  20 C :   -0.143053
  21 H :    0.009353
  22 C :    0.082651
  23 H :   -0.024815
  24 H :    0.038654
  25 C :   -0.004042
  26 H :    0.014786
  27 H :    0.033828
  28 C :   -0.081757
  29 H :    0.011539
  30 H :    0.036707
  31 H :    0.052165
  32 H :    0.048107
  33 H :    0.079409
Sum of atomic charges:   -0.0000000

LOEWDIN ATOMIC CHARGES
----------------------
   0 S :    0.428343
   1 C :   -0.212916
   2 C :   -0.060222
   3 C :   -0.063926
   4 C :   -0.188498
   5 H :    0.033056
   6 C :   -0.026814
   7 H :    0.031740
   8 H :    0.028922
   9 C :   -0.051568
  10 H :    0.020119
  11 H :    0.027074
  12 C :   -0.062996
  13 H :    0.028579
  14 H :    0.031987
  15 H :    0.025437
  16 S :    0.381397
  17 C :   -0.181889
  18 C :   -0.071518
  19 C :   -0.057099
  20 C :   -0.193102
  21 H :    0.027971
  22 C :   -0.028045
  23 H :    0.011097
  24 H :    0.041483
  25 C :   -0.033761
  26 H :    0.016869
  27 H :    0.029084
  28 C :   -0.072312
  29 H :    0.023786
  30 H :    0.029783
  31 H :    0.025971
  32 H :    0.020412
  33 H :    0.041554

  Mayer bond orders larger than 0.100000
B(  0-S ,  1-C ) :   1.1571 B(  0-S ,  4-C ) :   1.1725 B(  1-C ,  2-C ) :   1.5839
B(  1-C ,  4-C ) :   0.1065 B(  1-C , 32-H ) :   0.9649 B(  2-C ,  3-C ) :   1.2765
B(  2-C ,  6-C ) :   0.9994 B(  3-C ,  4-C ) :   1.5289 B(  3-C ,  5-H ) :   0.9808
B(  4-C , 20-C ) :   1.0711 B(  6-C ,  7-H ) :   0.9447 B(  6-C ,  8-H ) :   0.9452
B(  6-C ,  9-C ) :   1.0573 B(  9-C , 10-H ) :   0.9550 B(  9-C , 11-H ) :   0.9611
B(  9-C , 12-C ) :   1.0783 B( 12-C , 13-H ) :   0.9750 B( 12-C , 14-H ) :   0.9744
B( 12-C , 15-H ) :   0.9756 B( 16-S , 17-C ) :   1.1413 B( 16-S , 20-C ) :   1.1318
B( 17-C , 18-C ) :   1.6017 B( 17-C , 33-H ) :   0.9642 B( 18-C , 19-C ) :   1.2479
B( 18-C , 21-H ) :   0.9917 B( 19-C , 20-C ) :   1.5914 B( 19-C , 22-C ) :   1.0305
B( 22-C , 23-H ) :   0.9263 B( 22-C , 24-H ) :   0.9320 B( 22-C , 25-C ) :   1.0894
B( 25-C , 26-H ) :   0.9491 B( 25-C , 27-H ) :   0.9513 B( 25-C , 28-C ) :   1.0714
B( 28-C , 29-H ) :   0.9690 B( 28-C , 30-H ) :   0.9732 B( 28-C , 31-H ) :   0.9725

Dispersion correction           -0.015022324
FINAL SINGLE POINT ENERGY     -1339.878218015718

DIPOLE MOMENT
-------------
                                X             Y             Z
Electronic contribution:    -15.23820      23.49789       1.46600
Nuclear contribution   :     15.66649     -23.96717      -1.25662
                        -----------------------------------------
Total Dipole Moment    :      0.42829      -0.46928       0.20938
                        -----------------------------------------
Magnitude (a.u.)       :      0.66895
Magnitude (Debye)      :      1.70034

Rotational constants in cm-1:     0.023911     0.007593     0.006422
Rotational constants in MHz :   716.827273   227.632432   192.523163

                             ****ORCA TERMINATED NORMALLY****
TOTAL RUN TIME: 0 days 0 hours 0 minutes 22 seconds 38 msec
