                         Program Version 4.2.1 -  RELEASE  -
|  1> ! wB97X-D3 SP def2-SVP
|  2> %pal
|  3> nprocs 24
|  4> end
|  5>
|  6> * xyz 0 1
|  7> S 	 -65.4338 	 10.5832 	 -75.6514
|  8> C 	 -64.2118 	 11.0976 	 -74.6285
|  9> C 	 -64.6772 	 11.7952 	 -73.5211
| 10> C 	 -66.126 	 11.8068 	 -73.4447
| 11> C 	 -66.7442 	 11.191 	 -74.5059
| 12> H 	 -66.7004 	 12.253 	 -72.7002
| 13> C 	 -63.8686 	 12.5656 	 -72.4825
| 14> H 	 -64.4759 	 13.3911 	 -72.1461
| 15> H 	 -63.0914 	 13.0356 	 -73.1251
| 16> C 	 -63.2515 	 11.8376 	 -71.2359
| 17> H 	 -62.9659 	 12.4116 	 -70.389
| 18> H 	 -64.001 	 11.1472 	 -70.7522
| 19> C 	 -62.1365 	 10.9834 	 -71.7663
| 20> H 	 -62.443 	 10.1741 	 -72.3617
| 21> H 	 -61.4953 	 11.6764 	 -72.3767
| 22> H 	 -61.4878 	 10.6329 	 -70.9077
| 23> S 	 -68.7859 	 12.4039 	 -75.9553
| 24> C 	 -70.4325 	 11.7914 	 -75.7849
| 25> C 	 -70.4439 	 10.69 	 -74.9885
| 26> C 	 -69.1813 	 10.3042 	 -74.4368
| 27> C 	 -68.1854 	 11.1832 	 -74.8325
| 28> H 	 -71.4452 	 10.2611 	 -74.7191
| 29> C 	 -68.975 	 9.25574 	 -73.3394
| 30> H 	 -70.0107 	 8.92905 	 -73.0131
| 31> H 	 -68.6164 	 9.76216 	 -72.4124
| 32> C 	 -68.0777 	 8.13761 	 -73.6475
| 33> H 	 -68.3968 	 7.34254 	 -72.9649
| 34> H 	 -67.0257 	 8.49383 	 -73.5557
| 35> C 	 -68.3989 	 7.40711 	 -74.9217
| 36> H 	 -67.9557 	 6.37204 	 -74.8234
| 37> H 	 -67.966 	 7.84388 	 -75.8269
| 38> H 	 -69.4666 	 7.24462 	 -74.9696
| 39> H 	 -63.1428 	 10.8578 	 -74.7399
| 40> H 	 -71.165 	 12.1125 	 -76.5139
| 41> *
| 42>
| 43>                          ****END OF INPUT****

CARTESIAN COORDINATES (ANGSTROEM)
---------------------------------
  S    -65.433800   10.583200  -75.651400
  C    -64.211800   11.097600  -74.628500
  C    -64.677200   11.795200  -73.521100
  C    -66.126000   11.806800  -73.444700
  C    -66.744200   11.191000  -74.505900
  H    -66.700400   12.253000  -72.700200
  C    -63.868600   12.565600  -72.482500
  H    -64.475900   13.391100  -72.146100
  H    -63.091400   13.035600  -73.125100
  C    -63.251500   11.837600  -71.235900
  H    -62.965900   12.411600  -70.389000
  H    -64.001000   11.147200  -70.752200
  C    -62.136500   10.983400  -71.766300
  H    -62.443000   10.174100  -72.361700
  H    -61.495300   11.676400  -72.376700
  H    -61.487800   10.632900  -70.907700
  S    -68.785900   12.403900  -75.955300
  C    -70.432500   11.791400  -75.784900
  C    -70.443900   10.690000  -74.988500
  C    -69.181300   10.304200  -74.436800
  C    -68.185400   11.183200  -74.832500
  H    -71.445200   10.261100  -74.719100
  C    -68.975000    9.255740  -73.339400
  H    -70.010700    8.929050  -73.013100
  H    -68.616400    9.762160  -72.412400
  C    -68.077700    8.137610  -73.647500
  H    -68.396800    7.342540  -72.964900
  H    -67.025700    8.493830  -73.555700
  C    -68.398900    7.407110  -74.921700
  H    -67.955700    6.372040  -74.823400
  H    -67.966000    7.843880  -75.826900
  H    -69.466600    7.244620  -74.969600
  H    -63.142800   10.857800  -74.739900
  H    -71.165000   12.112500  -76.513900

 Total Charge           Charge          ....    0
 Multiplicity           Mult            ....    1
 Number of Electrons    NEL             ....  134
 Basis Dimension        Dim             ....  322

ORBITAL ENERGIES
----------------

  NO   OCC          E(Eh)            E(eV)
   0   2.0000     -88.966988     -2420.9148
   1   2.0000     -88.962168     -2420.7837
   2   2.0000     -10.334347      -281.2119
   3   2.0000     -10.327306      -281.0203
   4   2.0000     -10.316159      -280.7170
   5   2.0000     -10.315560      -280.7007
   6   2.0000     -10.304426      -280.3977
   7   2.0000     -10.303504      -280.3726
   8   2.0000     -10.297555      -280.2107
   9   2.0000     -10.295298      -280.1493
  10   2.0000     -10.294530      -280.1284
  11   2.0000     -10.292326      -280.0684
  12   2.0000     -10.288922      -279.9758
  13   2.0000     -10.277962      -279.6776
  14   2.0000     -10.276618      -279.6410
  15   2.0000     -10.271531      -279.5026
  16   2.0000      -8.081633      -219.9124
  17   2.0000      -8.076862      -219.7826
  18   2.0000      -6.040188      -164.3619
  19   2.0000      -6.036063      -164.2496
  20   2.0000      -6.035326      -164.2296
  21   2.0000      -6.032417      -164.1504
  22   2.0000      -6.031322      -164.1206
  23   2.0000      -6.027727      -164.0228
  24   2.0000      -1.002468       -27.2786
  25   2.0000      -0.984136       -26.7797
  26   2.0000      -0.916236       -24.9320
  27   2.0000      -0.909057       -24.7367
  28   2.0000      -0.871382       -23.7115
  29   2.0000      -0.851830       -23.1795
  30   2.0000      -0.845904       -23.0182
  31   2.0000      -0.814441       -22.1621
  32   2.0000      -0.780629       -21.2420
  33   2.0000      -0.767303       -20.8794
  34   2.0000      -0.707781       -19.2597
  35   2.0000      -0.697611       -18.9830
  36   2.0000      -0.678737       -18.4694
  37   2.0000      -0.658449       -17.9173
  38   2.0000      -0.648502       -17.6466
  39   2.0000      -0.613856       -16.7039
  40   2.0000      -0.589140       -16.0313
  41   2.0000      -0.570736       -15.5305
  42   2.0000      -0.567294       -15.4369
  43   2.0000      -0.548517       -14.9259
  44   2.0000      -0.544749       -14.8234
  45   2.0000      -0.543505       -14.7895
  46   2.0000      -0.514737       -14.0067
  47   2.0000      -0.510426       -13.8894
  48   2.0000      -0.502830       -13.6827
  49   2.0000      -0.494639       -13.4598
  50   2.0000      -0.485489       -13.2108
  51   2.0000      -0.478424       -13.0186
  52   2.0000      -0.474346       -12.9076
  53   2.0000      -0.464097       -12.6287
  54   2.0000      -0.454732       -12.3739
  55   2.0000      -0.454009       -12.3542
  56   2.0000      -0.434345       -11.8191
  57   2.0000      -0.431569       -11.7436
  58   2.0000      -0.429510       -11.6876
  59   2.0000      -0.419143       -11.4055
  60   2.0000      -0.416268       -11.3272
  61   2.0000      -0.412839       -11.2339
  62   2.0000      -0.401310       -10.9202
  63   2.0000      -0.343474        -9.3464
  64   2.0000      -0.332272        -9.0416
  65   2.0000      -0.319013        -8.6808
  66   2.0000      -0.307762        -8.3746
  67   0.0000       0.039957         1.0873
  68   0.0000       0.048225         1.3123
  69   0.0000       0.114655         3.1199
  70   0.0000       0.115743         3.1495
  71   0.0000       0.124855         3.3975

MULLIKEN ATOMIC CHARGES
-----------------------
   0 S :    0.116217
   1 C :   -0.116309
   2 C :   -0.112075
   3 C :    0.081522
   4 C :   -0.177946
   5 H :   -0.006076
   6 C :    0.037390
   7 H :    0.020572
   8 H :    0.035781
   9 C :   -0.032894
  10 H :    0.027007
  11 H :    0.027746
  12 C :   -0.070135
  13 H :    0.037157
  14 H :    0.022627
  15 H :    0.037957
  16 S :    0.099286
  17 C :   -0.102848
  18 C :   -0.049366
  19 C :   -0.013965
  20 C :   -0.194591
  21 H :    0.037289
  22 C :    0.057945
  23 H :    0.013063
  24 H :    0.038001
  25 C :   -0.065753
  26 H :    0.024649
  27 H :    0.057634
  28 C :   -0.053882
  29 H :    0.031607
  30 H :    0.040643
  31 H :    0.020807
  32 H :    0.062280
  33 H :    0.068659
Sum of atomic charges:   -0.0000000

LOEWDIN ATOMIC CHARGES
----------------------
   0 S :    0.400843
   1 C :   -0.219102
   2 C :   -0.071403
   3 C :   -0.039923
   4 C :   -0.176598
   5 H :    0.024425
   6 C :   -0.034055
   7 H :    0.027536
   8 H :    0.034993
   9 C :   -0.043283
  10 H :    0.021183
  11 H :    0.029968
  12 C :   -0.067052
  13 H :    0.016475
  14 H :    0.024362
  15 H :    0.031036
  16 S :    0.393103
  17 C :   -0.180931
  18 C :   -0.078505
  19 C :   -0.054654
  20 C :   -0.197879
  21 H :    0.039856
  22 C :   -0.038651
  23 H :    0.030033
  24 H :    0.038176
  25 C :   -0.054913
  26 H :    0.034016
  27 H :    0.032385
  28 C :   -0.066069
  29 H :    0.031097
  30 H :    0.023028
  31 H :    0.022612
  32 H :    0.036930
  33 H :    0.030964

  Mayer bond orders larger than 0.100000
B(  0-S ,  1-C ) :   1.1640 B(  0-S ,  4-C ) :   1.1137 B(  1-C ,  2-C ) :   1.6098
B(  1-C , 32-H ) :   0.9572 B(  2-C ,  3-C ) :   1.2337 B(  2-C ,  6-C ) :   1.0079
B(  3-C ,  4-C ) :   1.6112 B(  3-C ,  5-H ) :   0.9993 B(  4-C , 20-C ) :   1.0248
B(  6-C ,  7-H ) :   0.9425 B(  6-C ,  8-H ) :   0.9512 B(  6-C ,  9-C ) :   1.0530
B(  9-C , 10-H ) :   0.9596 B(  9-C , 11-H ) :   0.9527 B(  9-C , 12-C ) :   1.0759
B( 12-C , 13-H ) :   0.9762 B( 12-C , 14-H ) :   0.9766 B( 12-C , 15-H ) :   0.9711
B( 16-S , 17-C ) :   1.1504 B( 16-S , 20-C ) :   1.1529 B( 17-C , 18-C ) :   1.6229
B( 17-C , 33-H ) :   0.9647 B( 18-C , 19-C ) :   1.2480 B( 18-C , 21-H ) :   0.9762
B( 19-C , 20-C ) :   1.5945 B( 19-C , 22-C ) :   1.0191 B( 22-C , 23-H ) :   0.9310
B( 22-C , 24-H ) :   0.9378 B( 22-C , 25-C ) :   1.0904 B( 25-C , 26-H ) :   0.9494
B( 25-C , 27-H ) :   0.9495 B( 25-C , 28-C ) :   1.0842 B( 28-C , 29-H ) :   0.9773
B( 28-C , 30-H ) :   0.9671 B( 28-C , 31-H ) :   0.9724

Dispersion correction           -0.015336945
FINAL SINGLE POINT ENERGY     -1339.867733981458

DIPOLE MOMENT
-------------
                                X             Y             Z
Electronic contribution:    -10.15094      11.11784     -17.25423
Nuclear contribution   :     10.13970     -11.20115      17.81361
                        -----------------------------------------
Total Dipole Moment    :     -0.01124      -0.08331       0.55938
                        -----------------------------------------
Magnitude (a.u.)       :      0.56566
Magnitude (Debye)      :      1.43780

Rotational constants in cm-1:     0.022210     0.008097     0.007199
Rotational constants in MHz :   665.846278   242.749087   215.822075

                             ****ORCA TERMINATED NORMALLY****
TOTAL RUN TIME: 0 days 0 hours 0 minutes 21 seconds 4 msec
