                         Program Version 4.2.1 -  RELEASE  -
|  1> ! wB97X-D3 SP def2-SVP
|  2> %pal
|  3> nprocs 24
|  4> end
|  5>
|  6> * xyz 0 1
|  7> S 	 -138.246 	 12.5579 	 0.140045
|  8> C 	 -136.508 	 12.8839 	 0.471245
|  9> C 	 -135.677 	 12.3972 	 -0.564039
| 10> C 	 -136.423 	 11.703 	 -1.59701
| 11> C 	 -137.801 	 11.7713 	 -1.43536
| 12> H 	 -136.068 	 11.3161 	 -2.58099
| 13> C 	 -134.147 	 12.5322 	 -0.544299
| 14> H 	 -133.673 	 11.8818 	 -1.33093
| 15> H 	 -133.785 	 12.0609 	 0.369099
| 16> C 	 -133.575 	 13.9979 	 -0.538444
| 17> H 	 -133.688 	 14.5146 	 -1.47614
| 18> H 	 -134.137 	 14.6705 	 0.0959523
| 19> C 	 -132.087 	 14.1252 	 -0.284416
| 20> H 	 -131.385 	 13.4342 	 -0.893486
| 21> H 	 -131.685 	 15.1565 	 -0.243558
| 22> H 	 -132.003 	 13.68 	 0.691721
| 23> S 	 -139.99 	 12.219 	 -3.01459
| 24> C 	 -140.617 	 10.8895 	 -3.93497
| 25> C 	 -140.11 	 9.64202 	 -3.573
| 26> C 	 -139.029 	 9.79664 	 -2.66449
| 27> C 	 -138.832 	 11.0951 	 -2.22363
| 28> H 	 -140.492 	 8.72904 	 -4.03188
| 29> C 	 -138.143 	 8.6338 	 -2.16013
| 30> H 	 -137.224 	 8.96642 	 -1.70958
| 31> H 	 -137.744 	 8.0846 	 -3.08379
| 32> C 	 -138.857 	 7.57252 	 -1.2578
| 33> H 	 -139.907 	 7.52231 	 -1.59451
| 34> H 	 -138.826 	 7.98367 	 -0.229307
| 35> C 	 -137.983 	 6.30027 	 -1.08332
| 36> H 	 -136.95 	 6.65341 	 -1.01499
| 37> H 	 -138.255 	 5.6713 	 -1.95993
| 38> H 	 -138.353 	 5.66939 	 -0.245091
| 39> H 	 -136.114 	 13.2322 	 1.41489
| 40> H 	 -141.441 	 11.0753 	 -4.55041
| 41> *
| 42>
| 43>                          ****END OF INPUT****

CARTESIAN COORDINATES (ANGSTROEM)
---------------------------------
  S    -138.246000   12.557900    0.140045
  C    -136.508000   12.883900    0.471245
  C    -135.677000   12.397200   -0.564039
  C    -136.423000   11.703000   -1.597010
  C    -137.801000   11.771300   -1.435360
  H    -136.068000   11.316100   -2.580990
  C    -134.147000   12.532200   -0.544299
  H    -133.673000   11.881800   -1.330930
  H    -133.785000   12.060900    0.369099
  C    -133.575000   13.997900   -0.538444
  H    -133.688000   14.514600   -1.476140
  H    -134.137000   14.670500    0.095952
  C    -132.087000   14.125200   -0.284416
  H    -131.385000   13.434200   -0.893486
  H    -131.685000   15.156500   -0.243558
  H    -132.003000   13.680000    0.691721
  S    -139.990000   12.219000   -3.014590
  C    -140.617000   10.889500   -3.934970
  C    -140.110000    9.642020   -3.573000
  C    -139.029000    9.796640   -2.664490
  C    -138.832000   11.095100   -2.223630
  H    -140.492000    8.729040   -4.031880
  C    -138.143000    8.633800   -2.160130
  H    -137.224000    8.966420   -1.709580
  H    -137.744000    8.084600   -3.083790
  C    -138.857000    7.572520   -1.257800
  H    -139.907000    7.522310   -1.594510
  H    -138.826000    7.983670   -0.229307
  C    -137.983000    6.300270   -1.083320
  H    -136.950000    6.653410   -1.014990
  H    -138.255000    5.671300   -1.959930
  H    -138.353000    5.669390   -0.245091
  H    -136.114000   13.232200    1.414890
  H    -141.441000   11.075300   -4.550410

 Total Charge           Charge          ....    0
 Multiplicity           Mult            ....    1
 Number of Electrons    NEL             ....  134
 Basis Dimension        Dim             ....  322

ORBITAL ENERGIES
----------------

  NO   OCC          E(Eh)            E(eV)
   0   2.0000     -88.968022     -2420.9429
   1   2.0000     -88.964090     -2420.8359
   2   2.0000     -10.336058      -281.2584
   3   2.0000     -10.328278      -281.0467
   4   2.0000     -10.322271      -280.8833
   5   2.0000     -10.317469      -280.7526
   6   2.0000     -10.312833      -280.6264
   7   2.0000     -10.310273      -280.5568
   8   2.0000     -10.304050      -280.3875
   9   2.0000     -10.303978      -280.3855
  10   2.0000     -10.300356      -280.2869
  11   2.0000     -10.296126      -280.1718
  12   2.0000     -10.288875      -279.9745
  13   2.0000     -10.286423      -279.9078
  14   2.0000     -10.286258      -279.9033
  15   2.0000     -10.284184      -279.8469
  16   2.0000      -8.080937      -219.8935
  17   2.0000      -8.078913      -219.8384
  18   2.0000      -6.039564      -164.3449
  19   2.0000      -6.037202      -164.2806
  20   2.0000      -6.035769      -164.2416
  21   2.0000      -6.033479      -164.1793
  22   2.0000      -6.031598      -164.1281
  23   2.0000      -6.029822      -164.0798
  24   2.0000      -0.998808       -27.1790
  25   2.0000      -0.972713       -26.4689
  26   2.0000      -0.905058       -24.6279
  27   2.0000      -0.901396       -24.5282
  28   2.0000      -0.866229       -23.5713
  29   2.0000      -0.851070       -23.1588
  30   2.0000      -0.843880       -22.9631
  31   2.0000      -0.811985       -22.0952
  32   2.0000      -0.778269       -21.1778
  33   2.0000      -0.765116       -20.8199
  34   2.0000      -0.703521       -19.1438
  35   2.0000      -0.698842       -19.0165
  36   2.0000      -0.691893       -18.8274
  37   2.0000      -0.662214       -18.0197
  38   2.0000      -0.641727       -17.4623
  39   2.0000      -0.612702       -16.6725
  40   2.0000      -0.600165       -16.3313
  41   2.0000      -0.565317       -15.3831
  42   2.0000      -0.557442       -15.1688
  43   2.0000      -0.551034       -14.9944
  44   2.0000      -0.530795       -14.4437
  45   2.0000      -0.524379       -14.2691
  46   2.0000      -0.517345       -14.0777
  47   2.0000      -0.510667       -13.8960
  48   2.0000      -0.499572       -13.5940
  49   2.0000      -0.494617       -13.4592
  50   2.0000      -0.490229       -13.3398
  51   2.0000      -0.475485       -12.9386
  52   2.0000      -0.466324       -12.6893
  53   2.0000      -0.461590       -12.5605
  54   2.0000      -0.454523       -12.3682
  55   2.0000      -0.450173       -12.2498
  56   2.0000      -0.447383       -12.1739
  57   2.0000      -0.440713       -11.9924
  58   2.0000      -0.436943       -11.8898
  59   2.0000      -0.426301       -11.6002
  60   2.0000      -0.420872       -11.4525
  61   2.0000      -0.403305       -10.9745
  62   2.0000      -0.400045       -10.8858
  63   2.0000      -0.341617        -9.2959
  64   2.0000      -0.332907        -9.0589
  65   2.0000      -0.330660        -8.9977
  66   2.0000      -0.293954        -7.9989
  67   0.0000       0.030260         0.8234
  68   0.0000       0.053029         1.4430
  69   0.0000       0.106549         2.8994
  70   0.0000       0.117181         3.1887
  71   0.0000       0.119999         3.2653

MULLIKEN ATOMIC CHARGES
-----------------------
   0 S :    0.095916
   1 C :   -0.115942
   2 C :   -0.086180
   3 C :    0.027934
   4 C :   -0.146838
   5 H :    0.040763
   6 C :    0.047608
   7 H :    0.032008
   8 H :    0.028426
   9 C :   -0.048696
  10 H :    0.021279
  11 H :    0.022992
  12 C :   -0.080532
  13 H :    0.040459
  14 H :    0.051272
  15 H :    0.012978
  16 S :    0.096392
  17 C :   -0.077630
  18 C :   -0.029998
  19 C :   -0.015738
  20 C :   -0.170448
  21 H :    0.029254
  22 C :    0.031954
  23 H :    0.017151
  24 H :    0.028478
  25 C :   -0.098342
  26 H :    0.039036
  27 H :    0.038427
  28 C :   -0.062015
  29 H :    0.051794
  30 H :    0.037215
  31 H :    0.045521
  32 H :    0.052511
  33 H :    0.042991
Sum of atomic charges:   -0.0000000

LOEWDIN ATOMIC CHARGES
----------------------
   0 S :    0.362507
   1 C :   -0.183227
   2 C :   -0.058901
   3 C :   -0.067133
   4 C :   -0.175918
   5 H :    0.043426
   6 C :   -0.033637
   7 H :    0.036191
   8 H :    0.030440
   9 C :   -0.044653
  10 H :    0.021894
  11 H :    0.024159
  12 C :   -0.076652
  13 H :    0.033635
  14 H :    0.032905
  15 H :    0.017345
  16 S :    0.395055
  17 C :   -0.167464
  18 C :   -0.072933
  19 C :   -0.049134
  20 C :   -0.192737
  21 H :    0.037317
  22 C :   -0.035820
  23 H :    0.022500
  24 H :    0.032562
  25 C :   -0.047106
  26 H :    0.023886
  27 H :    0.028287
  28 C :   -0.069474
  29 H :    0.031583
  30 H :    0.028495
  31 H :    0.031521
  32 H :    0.027250
  33 H :    0.013829

  Mayer bond orders larger than 0.100000
B(  0-S ,  1-C ) :   1.1268 B(  0-S ,  4-C ) :   1.1316 B(  1-C ,  2-C ) :   1.6207
B(  1-C ,  4-C ) :   0.1022 B(  1-C , 32-H ) :   0.9685 B(  2-C ,  3-C ) :   1.2228
B(  2-C ,  6-C ) :   1.0186 B(  3-C ,  4-C ) :   1.6155 B(  3-C ,  5-H ) :   0.9806
B(  4-C , 20-C ) :   1.0050 B(  6-C ,  7-H ) :   0.9474 B(  6-C ,  8-H ) :   0.9432
B(  6-C ,  9-C ) :   1.0425 B(  9-C , 10-H ) :   0.9554 B(  9-C , 11-H ) :   0.9566
B(  9-C , 12-C ) :   1.0754 B( 12-C , 13-H ) :   0.9734 B( 12-C , 14-H ) :   0.9729
B( 12-C , 15-H ) :   0.9748 B( 16-S , 17-C ) :   1.1821 B( 16-S , 20-C ) :   1.1252
B( 17-C , 18-C ) :   1.5936 B( 17-C , 20-C ) :   0.1031 B( 17-C , 33-H ) :   0.9730
B( 18-C , 19-C ) :   1.2262 B( 18-C , 21-H ) :   0.9932 B( 19-C , 20-C ) :   1.6261
B( 19-C , 22-C ) :   1.0318 B( 22-C , 23-H ) :   0.9349 B( 22-C , 24-H ) :   0.9423
B( 22-C , 25-C ) :   1.0487 B( 25-C , 26-H ) :   0.9656 B( 25-C , 27-H ) :   0.9574
B( 25-C , 28-C ) :   1.0588 B( 28-C , 29-H ) :   0.9714 B( 28-C , 30-H ) :   0.9777
B( 28-C , 31-H ) :   0.9760

Dispersion correction           -0.013430108
FINAL SINGLE POINT ENERGY     -1339.863079614913

DIPOLE MOMENT
-------------
                                X             Y             Z
Electronic contribution:    -22.71630      11.81276      -4.13611
Nuclear contribution   :     23.11461     -12.23154       4.06816
                        -----------------------------------------
Total Dipole Moment    :      0.39831      -0.41878      -0.06795
                        -----------------------------------------
Magnitude (a.u.)       :      0.58193
Magnitude (Debye)      :      1.47915

Rotational constants in cm-1:     0.018794     0.007224     0.006038
Rotational constants in MHz :   563.424700   216.572658   181.000564

                             ****ORCA TERMINATED NORMALLY****
TOTAL RUN TIME: 0 days 0 hours 0 minutes 20 seconds 608 msec
