                         Program Version 4.2.1 -  RELEASE  -
|  1> ! wB97X-D3 SP def2-SVP
|  2> %pal
|  3> nprocs 24
|  4> end
|  5>
|  6> * xyz 0 1
|  7> S 	 -53.9916 	 25.1628 	 25.6394
|  8> C 	 -52.8403 	 24.3485 	 24.618
|  9> C 	 -51.6062 	 24.1868 	 25.193
| 10> C 	 -51.6295 	 24.7536 	 26.4995
| 11> C 	 -52.7901 	 25.471 	 26.8627
| 12> H 	 -50.79 	 24.6936 	 27.2123
| 13> C 	 -50.5061 	 23.4585 	 24.5127
| 14> H 	 -49.8653 	 24.1299 	 23.9985
| 15> H 	 -50.9738 	 22.8935 	 23.6543
| 16> C 	 -49.6477 	 22.5702 	 25.3919
| 17> H 	 -49.3842 	 23.1106 	 26.2665
| 18> H 	 -50.2538 	 21.6939 	 25.6072
| 19> C 	 -48.3111 	 22.1839 	 24.75
| 20> H 	 -47.8464 	 23.0746 	 24.2886
| 21> H 	 -47.5914 	 21.8269 	 25.4369
| 22> H 	 -48.5699 	 21.607 	 23.8589
| 23> S 	 -52.2693 	 25.7141 	 29.5243
| 24> C 	 -52.8235 	 27.0948 	 30.4139
| 25> C 	 -53.621 	 27.9289 	 29.6567
| 26> C 	 -53.8135 	 27.4161 	 28.3151
| 27> C 	 -52.9749 	 26.286 	 28.0455
| 28> H 	 -54.0955 	 28.7918 	 30.123
| 29> C 	 -54.7406 	 28.1022 	 27.3979
| 30> H 	 -55.4327 	 28.663 	 28.0396
| 31> H 	 -55.3692 	 27.4472 	 26.8314
| 32> C 	 -54.0779 	 29.1337 	 26.4847
| 33> H 	 -53.2918 	 29.7011 	 26.9477
| 34> H 	 -54.9208 	 29.8066 	 26.2229
| 35> C 	 -53.4263 	 28.6113 	 25.2119
| 36> H 	 -54.0843 	 27.8948 	 24.7668
| 37> H 	 -52.5615 	 27.9849 	 25.4834
| 38> H 	 -53.1046 	 29.3175 	 24.4044
| 39> H 	 -53.0628 	 23.9983 	 23.6864
| 40> H 	 -52.3394 	 27.452 	 31.3228
| 41> *
| 42>
| 43>                          ****END OF INPUT****

CARTESIAN COORDINATES (ANGSTROEM)
---------------------------------
  S    -53.991600   25.162800   25.639400
  C    -52.840300   24.348500   24.618000
  C    -51.606200   24.186800   25.193000
  C    -51.629500   24.753600   26.499500
  C    -52.790100   25.471000   26.862700
  H    -50.790000   24.693600   27.212300
  C    -50.506100   23.458500   24.512700
  H    -49.865300   24.129900   23.998500
  H    -50.973800   22.893500   23.654300
  C    -49.647700   22.570200   25.391900
  H    -49.384200   23.110600   26.266500
  H    -50.253800   21.693900   25.607200
  C    -48.311100   22.183900   24.750000
  H    -47.846400   23.074600   24.288600
  H    -47.591400   21.826900   25.436900
  H    -48.569900   21.607000   23.858900
  S    -52.269300   25.714100   29.524300
  C    -52.823500   27.094800   30.413900
  C    -53.621000   27.928900   29.656700
  C    -53.813500   27.416100   28.315100
  C    -52.974900   26.286000   28.045500
  H    -54.095500   28.791800   30.123000
  C    -54.740600   28.102200   27.397900
  H    -55.432700   28.663000   28.039600
  H    -55.369200   27.447200   26.831400
  C    -54.077900   29.133700   26.484700
  H    -53.291800   29.701100   26.947700
  H    -54.920800   29.806600   26.222900
  C    -53.426300   28.611300   25.211900
  H    -54.084300   27.894800   24.766800
  H    -52.561500   27.984900   25.483400
  H    -53.104600   29.317500   24.404400
  H    -53.062800   23.998300   23.686400
  H    -52.339400   27.452000   31.322800

 Total Charge           Charge          ....    0
 Multiplicity           Mult            ....    1
 Number of Electrons    NEL             ....  134
 Basis Dimension        Dim             ....  322

ORBITAL ENERGIES
----------------

  NO   OCC          E(Eh)            E(eV)
   0   2.0000     -88.968502     -2420.9560
   1   2.0000     -88.966123     -2420.8913
   2   2.0000     -10.333361      -281.1850
   3   2.0000     -10.331394      -281.1315
   4   2.0000     -10.314367      -280.6682
   5   2.0000     -10.307296      -280.4758
   6   2.0000     -10.306126      -280.4440
   7   2.0000     -10.299381      -280.2604
   8   2.0000     -10.298557      -280.2380
   9   2.0000     -10.296856      -280.1917
  10   2.0000     -10.291631      -280.0495
  11   2.0000     -10.287130      -279.9271
  12   2.0000     -10.282789      -279.8089
  13   2.0000     -10.280384      -279.7435
  14   2.0000     -10.277877      -279.6753
  15   2.0000     -10.266125      -279.3555
  16   2.0000      -8.082791      -219.9439
  17   2.0000      -8.081195      -219.9005
  18   2.0000      -6.041281      -164.3916
  19   2.0000      -6.039787      -164.3509
  20   2.0000      -6.037318      -164.2838
  21   2.0000      -6.035558      -164.2359
  22   2.0000      -6.033652      -164.1840
  23   2.0000      -6.031963      -164.1381
  24   2.0000      -1.008048       -27.4304
  25   2.0000      -0.986661       -26.8484
  26   2.0000      -0.920505       -25.0482
  27   2.0000      -0.912678       -24.8352
  28   2.0000      -0.874946       -23.8085
  29   2.0000      -0.852115       -23.1872
  30   2.0000      -0.843577       -22.9549
  31   2.0000      -0.814434       -22.1619
  32   2.0000      -0.787083       -21.4176
  33   2.0000      -0.771386       -20.9905
  34   2.0000      -0.714873       -19.4527
  35   2.0000      -0.699102       -19.0235
  36   2.0000      -0.685892       -18.6641
  37   2.0000      -0.667391       -18.1606
  38   2.0000      -0.635591       -17.2953
  39   2.0000      -0.623529       -16.9671
  40   2.0000      -0.602403       -16.3922
  41   2.0000      -0.576089       -15.6762
  42   2.0000      -0.573625       -15.6091
  43   2.0000      -0.546086       -14.8598
  44   2.0000      -0.536503       -14.5990
  45   2.0000      -0.532098       -14.4791
  46   2.0000      -0.523204       -14.2371
  47   2.0000      -0.512028       -13.9330
  48   2.0000      -0.502565       -13.6755
  49   2.0000      -0.497157       -13.5283
  50   2.0000      -0.488672       -13.2974
  51   2.0000      -0.487053       -13.2534
  52   2.0000      -0.474588       -12.9142
  53   2.0000      -0.468146       -12.7389
  54   2.0000      -0.460415       -12.5285
  55   2.0000      -0.451365       -12.2823
  56   2.0000      -0.438696       -11.9375
  57   2.0000      -0.434528       -11.8241
  58   2.0000      -0.432222       -11.7614
  59   2.0000      -0.426268       -11.5993
  60   2.0000      -0.422385       -11.4937
  61   2.0000      -0.413875       -11.2621
  62   2.0000      -0.407074       -11.0771
  63   2.0000      -0.352329        -9.5874
  64   2.0000      -0.330714        -8.9992
  65   2.0000      -0.327975        -8.9247
  66   2.0000      -0.282742        -7.6938
  67   0.0000       0.016848         0.4585
  68   0.0000       0.083103         2.2613
  69   0.0000       0.106125         2.8878
  70   0.0000       0.120277         3.2729
  71   0.0000       0.126151         3.4327

MULLIKEN ATOMIC CHARGES
-----------------------
   0 S :    0.112238
   1 C :   -0.093523
   2 C :   -0.053543
   3 C :   -0.020005
   4 C :   -0.135130
   5 H :    0.018084
   6 C :    0.084403
   7 H :    0.018304
   8 H :    0.019848
   9 C :   -0.085015
  10 H :    0.027144
  11 H :    0.040577
  12 C :   -0.029028
  13 H :    0.016349
  14 H :    0.039573
  15 H :    0.028054
  16 S :    0.103730
  17 C :   -0.087312
  18 C :   -0.050090
  19 C :   -0.070862
  20 C :   -0.129491
  21 H :    0.029441
  22 C :    0.075303
  23 H :    0.016613
  24 H :    0.022934
  25 C :   -0.055842
  26 H :    0.025086
  27 H :    0.029174
  28 C :   -0.055750
  29 H :    0.010130
  30 H :    0.035807
  31 H :    0.044113
  32 H :    0.002503
  33 H :    0.066183
Sum of atomic charges:    0.0000000

LOEWDIN ATOMIC CHARGES
----------------------
   0 S :    0.430758
   1 C :   -0.179641
   2 C :   -0.061743
   3 C :   -0.068113
   4 C :   -0.201673
   5 H :    0.025305
   6 C :   -0.030961
   7 H :    0.025989
   8 H :    0.035633
   9 C :   -0.035988
  10 H :    0.019061
  11 H :    0.028245
  12 C :   -0.061939
  13 H :    0.025787
  14 H :    0.023484
  15 H :    0.027501
  16 S :    0.425165
  17 C :   -0.199674
  18 C :   -0.067878
  19 C :   -0.054888
  20 C :   -0.203077
  21 H :    0.036098
  22 C :   -0.036034
  23 H :    0.036693
  24 H :    0.022812
  25 C :   -0.035556
  26 H :    0.021952
  27 H :    0.025634
  28 C :   -0.077861
  29 H :    0.007350
  30 H :    0.027394
  31 H :    0.031568
  32 H :    0.005906
  33 H :    0.032691

  Mayer bond orders larger than 0.100000
B(  0-S ,  1-C ) :   1.1493 B(  0-S ,  4-C ) :   1.1510 B(  1-C ,  2-C ) :   1.5947
B(  1-C , 32-H ) :   0.9763 B(  2-C ,  3-C ) :   1.2689 B(  2-C ,  6-C ) :   1.0242
B(  3-C ,  4-C ) :   1.5241 B(  3-C ,  5-H ) :   0.9829 B(  4-C , 20-C ) :   1.0874
B(  6-C ,  7-H ) :   0.9249 B(  6-C ,  8-H ) :   0.9350 B(  6-C ,  9-C ) :   1.0658
B(  9-C , 10-H ) :   0.9533 B(  9-C , 11-H ) :   0.9575 B(  9-C , 12-C ) :   1.0891
B( 12-C , 13-H ) :   0.9715 B( 12-C , 14-H ) :   0.9745 B( 12-C , 15-H ) :   0.9734
B( 16-S , 17-C ) :   1.1592 B( 16-S , 20-C ) :   1.1537 B( 17-C , 18-C ) :   1.6118
B( 17-C , 33-H ) :   0.9575 B( 18-C , 19-C ) :   1.2585 B( 18-C , 21-H ) :   0.9856
B( 19-C , 20-C ) :   1.5185 B( 19-C , 22-C ) :   1.0626 B( 22-C , 23-H ) :   0.9242
B( 22-C , 24-H ) :   0.9312 B( 22-C , 25-C ) :   1.0674 B( 25-C , 26-H ) :   0.9571
B( 25-C , 27-H ) :   0.9551 B( 25-C , 28-C ) :   1.0802 B( 28-C , 29-H ) :   0.9680
B( 28-C , 30-H ) :   0.9715 B( 28-C , 31-H ) :   0.9721

Dispersion correction           -0.014885386
FINAL SINGLE POINT ENERGY     -1339.875342691677

DIPOLE MOMENT
-------------
                                X             Y             Z
Electronic contribution:    -10.72648      -0.91384      14.12379
Nuclear contribution   :     10.96185       1.02775     -14.32620
                        -----------------------------------------
Total Dipole Moment    :      0.23536       0.11391      -0.20241
                        -----------------------------------------
Magnitude (a.u.)       :      0.33067
Magnitude (Debye)      :      0.84049

Rotational constants in cm-1:     0.021395     0.008451     0.006786
Rotational constants in MHz :   641.399479   253.367296   203.429112

                             ****ORCA TERMINATED NORMALLY****
TOTAL RUN TIME: 0 days 0 hours 0 minutes 22 seconds 87 msec
