                         Program Version 4.2.1 -  RELEASE  -
|  1> ! wB97X-D3 SP def2-SVP
|  2> %pal
|  3> nprocs 24
|  4> end
|  5>
|  6> * xyz 0 1
|  7> S 	 -65.1359 	 -46.7066 	 -89.132
|  8> C 	 -64.4622 	 -47.9258 	 -90.1414
|  9> C 	 -64.5955 	 -49.2185 	 -89.5794
| 10> C 	 -65.3054 	 -49.1819 	 -88.3657
| 11> C 	 -65.6641 	 -47.9329 	 -87.8957
| 12> H 	 -65.6733 	 -50.0653 	 -87.8321
| 13> C 	 -64.101 	 -50.5126 	 -90.0853
| 14> H 	 -63.8144 	 -50.2942 	 -91.0629
| 15> H 	 -64.9559 	 -51.1338 	 -90.1513
| 16> C 	 -62.9612 	 -51.1382 	 -89.288
| 17> H 	 -62.2449 	 -50.3339 	 -89.0601
| 18> H 	 -63.3949 	 -51.4118 	 -88.3332
| 19> C 	 -62.1363 	 -52.1994 	 -90.0337
| 20> H 	 -62.8356 	 -53.0423 	 -90.1018
| 21> H 	 -61.8418 	 -51.9417 	 -90.9659
| 22> H 	 -61.2701 	 -52.5339 	 -89.4032
| 23> S 	 -66.0959 	 -46.2066 	 -85.8788
| 24> C 	 -67.6056 	 -46.2402 	 -84.9645
| 25> C 	 -68.3336 	 -47.3411 	 -85.2855
| 26> C 	 -67.6973 	 -48.1802 	 -86.2469
| 27> C 	 -66.548 	 -47.6417 	 -86.7311
| 28> H 	 -69.2603 	 -47.4102 	 -84.7714
| 29> C 	 -68.4021 	 -49.4787 	 -86.7506
| 30> H 	 -69.1704 	 -49.8172 	 -86.0084
| 31> H 	 -67.6025 	 -50.2138 	 -86.8313
| 32> C 	 -68.965 	 -49.3781 	 -88.0998
| 33> H 	 -68.1907 	 -49.0419 	 -88.7767
| 34> H 	 -69.8035 	 -48.6377 	 -88.1461
| 35> C 	 -69.5035 	 -50.8048 	 -88.5599
| 36> H 	 -69.9251 	 -51.3448 	 -87.7657
| 37> H 	 -68.6589 	 -51.3706 	 -88.9752
| 38> H 	 -70.2834 	 -50.6155 	 -89.3177
| 39> H 	 -63.8268 	 -47.7793 	 -91.0717
| 40> H 	 -67.9742 	 -45.5477 	 -84.1828
| 41> *
| 42>
| 43>                          ****END OF INPUT****

CARTESIAN COORDINATES (ANGSTROEM)
---------------------------------
  S    -65.135900  -46.706600  -89.132000
  C    -64.462200  -47.925800  -90.141400
  C    -64.595500  -49.218500  -89.579400
  C    -65.305400  -49.181900  -88.365700
  C    -65.664100  -47.932900  -87.895700
  H    -65.673300  -50.065300  -87.832100
  C    -64.101000  -50.512600  -90.085300
  H    -63.814400  -50.294200  -91.062900
  H    -64.955900  -51.133800  -90.151300
  C    -62.961200  -51.138200  -89.288000
  H    -62.244900  -50.333900  -89.060100
  H    -63.394900  -51.411800  -88.333200
  C    -62.136300  -52.199400  -90.033700
  H    -62.835600  -53.042300  -90.101800
  H    -61.841800  -51.941700  -90.965900
  H    -61.270100  -52.533900  -89.403200
  S    -66.095900  -46.206600  -85.878800
  C    -67.605600  -46.240200  -84.964500
  C    -68.333600  -47.341100  -85.285500
  C    -67.697300  -48.180200  -86.246900
  C    -66.548000  -47.641700  -86.731100
  H    -69.260300  -47.410200  -84.771400
  C    -68.402100  -49.478700  -86.750600
  H    -69.170400  -49.817200  -86.008400
  H    -67.602500  -50.213800  -86.831300
  C    -68.965000  -49.378100  -88.099800
  H    -68.190700  -49.041900  -88.776700
  H    -69.803500  -48.637700  -88.146100
  C    -69.503500  -50.804800  -88.559900
  H    -69.925100  -51.344800  -87.765700
  H    -68.658900  -51.370600  -88.975200
  H    -70.283400  -50.615500  -89.317700
  H    -63.826800  -47.779300  -91.071700
  H    -67.974200  -45.547700  -84.182800

 Total Charge           Charge          ....    0
 Multiplicity           Mult            ....    1
 Number of Electrons    NEL             ....  134
 Basis Dimension        Dim             ....  322

ORBITAL ENERGIES
----------------

  NO   OCC          E(Eh)            E(eV)
   0   2.0000     -88.971815     -2421.0462
   1   2.0000     -88.963036     -2420.8073
   2   2.0000     -10.336691      -281.2756
   3   2.0000     -10.326717      -281.0042
   4   2.0000     -10.322031      -280.8767
   5   2.0000     -10.315756      -280.7060
   6   2.0000     -10.303463      -280.3715
   7   2.0000     -10.298370      -280.2329
   8   2.0000     -10.293141      -280.0906
   9   2.0000     -10.292555      -280.0747
  10   2.0000     -10.288721      -279.9703
  11   2.0000     -10.286464      -279.9089
  12   2.0000     -10.282460      -279.8000
  13   2.0000     -10.280353      -279.7426
  14   2.0000     -10.277683      -279.6700
  15   2.0000     -10.277469      -279.6642
  16   2.0000      -8.085345      -220.0134
  17   2.0000      -8.078135      -219.8172
  18   2.0000      -6.044009      -164.4658
  19   2.0000      -6.039930      -164.3549
  20   2.0000      -6.036698      -164.2669
  21   2.0000      -6.036075      -164.2500
  22   2.0000      -6.032579      -164.1548
  23   2.0000      -6.028820      -164.0525
  24   2.0000      -1.007659       -27.4198
  25   2.0000      -0.985900       -26.8277
  26   2.0000      -0.917667       -24.9710
  27   2.0000      -0.912114       -24.8199
  28   2.0000      -0.870047       -23.6752
  29   2.0000      -0.854364       -23.2484
  30   2.0000      -0.844123       -22.9698
  31   2.0000      -0.819096       -22.2887
  32   2.0000      -0.780871       -21.2486
  33   2.0000      -0.771686       -20.9986
  34   2.0000      -0.711198       -19.3527
  35   2.0000      -0.699982       -19.0475
  36   2.0000      -0.688111       -18.7244
  37   2.0000      -0.664148       -18.0724
  38   2.0000      -0.636195       -17.3117
  39   2.0000      -0.626194       -17.0396
  40   2.0000      -0.591479       -16.0950
  41   2.0000      -0.575164       -15.6510
  42   2.0000      -0.572174       -15.5696
  43   2.0000      -0.560208       -15.2440
  44   2.0000      -0.529700       -14.4139
  45   2.0000      -0.521703       -14.1963
  46   2.0000      -0.515147       -14.0179
  47   2.0000      -0.513334       -13.9685
  48   2.0000      -0.507827       -13.8187
  49   2.0000      -0.497014       -13.5244
  50   2.0000      -0.492580       -13.4038
  51   2.0000      -0.485300       -13.2057
  52   2.0000      -0.477844       -13.0028
  53   2.0000      -0.470275       -12.7968
  54   2.0000      -0.460100       -12.5200
  55   2.0000      -0.449678       -12.2364
  56   2.0000      -0.441243       -12.0068
  57   2.0000      -0.438944       -11.9443
  58   2.0000      -0.434292       -11.8177
  59   2.0000      -0.431333       -11.7372
  60   2.0000      -0.419578       -11.4173
  61   2.0000      -0.410828       -11.1792
  62   2.0000      -0.405575       -11.0362
  63   2.0000      -0.353102        -9.6084
  64   2.0000      -0.333947        -9.0872
  65   2.0000      -0.330447        -8.9919
  66   2.0000      -0.290037        -7.8923
  67   0.0000       0.027149         0.7388
  68   0.0000       0.071151         1.9361
  69   0.0000       0.110229         2.9995
  70   0.0000       0.113098         3.0775
  71   0.0000       0.130018         3.5380

MULLIKEN ATOMIC CHARGES
-----------------------
   0 S :    0.121648
   1 C :   -0.134694
   2 C :   -0.134202
   3 C :   -0.006693
   4 C :   -0.107003
   5 H :    0.015689
   6 C :    0.142218
   7 H :   -0.019534
   8 H :    0.019208
   9 C :   -0.089345
  10 H :    0.029463
  11 H :    0.026128
  12 C :   -0.004318
  13 H :    0.023212
  14 H :    0.013957
  15 H :    0.046198
  16 S :    0.096271
  17 C :   -0.099306
  18 C :   -0.042827
  19 C :   -0.014289
  20 C :   -0.172440
  21 H :    0.006897
  22 C :    0.062873
  23 H :    0.030276
  24 H :    0.012914
  25 C :   -0.093037
  26 H :    0.044458
  27 H :    0.030434
  28 C :   -0.034545
  29 H :    0.020574
  30 H :    0.035182
  31 H :    0.039928
  32 H :    0.071803
  33 H :    0.062901
Sum of atomic charges:    0.0000000

LOEWDIN ATOMIC CHARGES
----------------------
   0 S :    0.400366
   1 C :   -0.221598
   2 C :   -0.065624
   3 C :   -0.066832
   4 C :   -0.179761
   5 H :    0.031259
   6 C :   -0.029019
   7 H :    0.018856
   8 H :    0.027825
   9 C :   -0.037285
  10 H :    0.026229
  11 H :    0.022165
  12 C :   -0.052971
  13 H :    0.026828
  14 H :    0.008727
  15 H :    0.036525
  16 S :    0.403600
  17 C :   -0.185061
  18 C :   -0.071579
  19 C :   -0.056143
  20 C :   -0.198351
  21 H :    0.029868
  22 C :   -0.031900
  23 H :    0.033395
  24 H :    0.024718
  25 C :   -0.041256
  26 H :    0.026211
  27 H :    0.024439
  28 C :   -0.059302
  29 H :    0.014206
  30 H :    0.026625
  31 H :    0.030638
  32 H :    0.045188
  33 H :    0.039017

  Mayer bond orders larger than 0.100000
B(  0-S ,  1-C ) :   1.1512 B(  0-S ,  4-C ) :   1.1331 B(  1-C ,  2-C ) :   1.5857
B(  1-C ,  4-C ) :   0.1032 B(  1-C , 32-H ) :   0.9508 B(  2-C ,  3-C ) :   1.2598
B(  2-C ,  6-C ) :   1.0371 B(  3-C ,  4-C ) :   1.5673 B(  3-C ,  5-H ) :   0.9904
B(  4-C , 20-C ) :   1.0283 B(  6-C ,  7-H ) :   0.9210 B(  6-C ,  8-H ) :   0.9269
B(  6-C ,  9-C ) :   1.0556 B(  9-C , 10-H ) :   0.9572 B(  9-C , 11-H ) :   0.9549
B(  9-C , 12-C ) :   1.0822 B( 12-C , 13-H ) :   0.9751 B( 12-C , 14-H ) :   0.9757
B( 12-C , 15-H ) :   0.9747 B( 16-S , 17-C ) :   1.1353 B( 16-S , 20-C ) :   1.1391
B( 17-C , 18-C ) :   1.6532 B( 17-C , 33-H ) :   0.9606 B( 18-C , 19-C ) :   1.2146
B( 18-C , 21-H ) :   0.9976 B( 19-C , 20-C ) :   1.6219 B( 19-C , 22-C ) :   1.0216
B( 22-C , 23-H ) :   0.9333 B( 22-C , 24-H ) :   0.9335 B( 22-C , 25-C ) :   1.0834
B( 25-C , 26-H ) :   0.9535 B( 25-C , 27-H ) :   0.9555 B( 25-C , 28-C ) :   1.0673
B( 28-C , 29-H ) :   0.9765 B( 28-C , 30-H ) :   0.9766 B( 28-C , 31-H ) :   0.9777

Dispersion correction           -0.014423796
FINAL SINGLE POINT ENERGY     -1339.867562132836

DIPOLE MOMENT
-------------
                                X             Y             Z
Electronic contribution:      1.98301      27.43153       9.63954
Nuclear contribution   :     -2.20975     -28.03435      -9.76058
                        -----------------------------------------
Total Dipole Moment    :     -0.22674      -0.60282      -0.12104
                        -----------------------------------------
Magnitude (a.u.)       :      0.65533
Magnitude (Debye)      :      1.66571

Rotational constants in cm-1:     0.018349     0.008601     0.006916
Rotational constants in MHz :   550.088339   257.849151   207.330999

                             ****ORCA TERMINATED NORMALLY****
TOTAL RUN TIME: 0 days 0 hours 0 minutes 21 seconds 840 msec
