                         Program Version 4.2.1 -  RELEASE  -
|  1> ! wB97X-D3 SP def2-SVP
|  2> %pal
|  3> nprocs 24
|  4> end
|  5>
|  6> * xyz 0 1
|  7> S 	 -96.8042 	 9.31124 	 -0.964448
|  8> C 	 -97.6851 	 9.31077 	 -2.48299
|  9> C 	 -96.9056 	 9.66237 	 -3.57838
| 10> C 	 -95.5291 	 9.89753 	 -3.1742
| 11> C 	 -95.2987 	 9.56376 	 -1.83106
| 12> H 	 -94.75 	 10.2163 	 -3.81827
| 13> C 	 -97.3109 	 9.91965 	 -5.01242
| 14> H 	 -96.4662 	 10.5134 	 -5.34273
| 15> H 	 -98.1435 	 10.5505 	 -5.05816
| 16> C 	 -97.5923 	 8.7267 	 -5.93137
| 17> H 	 -96.7166 	 8.06046 	 -5.90762
| 18> H 	 -98.4234 	 8.14686 	 -5.40232
| 19> C 	 -97.8815 	 8.97565 	 -7.35664
| 20> H 	 -98.8618 	 9.49243 	 -7.40789
| 21> H 	 -96.9743 	 9.47725 	 -7.80097
| 22> H 	 -98.0366 	 8.01348 	 -7.87094
| 23> S 	 -93.2399 	 8.21138 	 -0.617158
| 24> C 	 -92.2248 	 9.01212 	 0.539604
| 25> C 	 -92.3816 	 10.3726 	 0.383165
| 26> C 	 -93.3818 	 10.7829 	 -0.567967
| 27> C 	 -94.0411 	 9.7151 	 -1.08263
| 28> H 	 -91.7343 	 11.0414 	 1.01621
| 29> C 	 -93.7006 	 12.2745 	 -0.693247
| 30> H 	 -94.1502 	 12.5306 	 0.26212
| 31> H 	 -94.4102 	 12.3478 	 -1.41361
| 32> C 	 -92.4561 	 13.1211 	 -0.975386
| 33> H 	 -91.8517 	 12.6156 	 -1.65919
| 34> H 	 -91.8187 	 13.0497 	 -0.0662932
| 35> C 	 -92.7156 	 14.6273 	 -1.32761
| 36> H 	 -93.2435 	 15.1809 	 -0.537118
| 37> H 	 -93.3068 	 14.6274 	 -2.27276
| 38> H 	 -91.7638 	 15.1456 	 -1.55459
| 39> H 	 -98.7721 	 9.29337 	 -2.53518
| 40> H 	 -91.4622 	 8.53541 	 1.15734
| 41> *
| 42>
| 43>                          ****END OF INPUT****

CARTESIAN COORDINATES (ANGSTROEM)
---------------------------------
  S    -96.804200    9.311240   -0.964448
  C    -97.685100    9.310770   -2.482990
  C    -96.905600    9.662370   -3.578380
  C    -95.529100    9.897530   -3.174200
  C    -95.298700    9.563760   -1.831060
  H    -94.750000   10.216300   -3.818270
  C    -97.310900    9.919650   -5.012420
  H    -96.466200   10.513400   -5.342730
  H    -98.143500   10.550500   -5.058160
  C    -97.592300    8.726700   -5.931370
  H    -96.716600    8.060460   -5.907620
  H    -98.423400    8.146860   -5.402320
  C    -97.881500    8.975650   -7.356640
  H    -98.861800    9.492430   -7.407890
  H    -96.974300    9.477250   -7.800970
  H    -98.036600    8.013480   -7.870940
  S    -93.239900    8.211380   -0.617158
  C    -92.224800    9.012120    0.539604
  C    -92.381600   10.372600    0.383165
  C    -93.381800   10.782900   -0.567967
  C    -94.041100    9.715100   -1.082630
  H    -91.734300   11.041400    1.016210
  C    -93.700600   12.274500   -0.693247
  H    -94.150200   12.530600    0.262120
  H    -94.410200   12.347800   -1.413610
  C    -92.456100   13.121100   -0.975386
  H    -91.851700   12.615600   -1.659190
  H    -91.818700   13.049700   -0.066293
  C    -92.715600   14.627300   -1.327610
  H    -93.243500   15.180900   -0.537118
  H    -93.306800   14.627400   -2.272760
  H    -91.763800   15.145600   -1.554590
  H    -98.772100    9.293370   -2.535180
  H    -91.462200    8.535410    1.157340

 Total Charge           Charge          ....    0
 Multiplicity           Mult            ....    1
 Number of Electrons    NEL             ....  134
 Basis Dimension        Dim             ....  322

ORBITAL ENERGIES
----------------

  NO   OCC          E(Eh)            E(eV)
   0   2.0000     -88.968745     -2420.9626
   1   2.0000     -88.957497     -2420.6566
   2   2.0000     -10.330917      -281.1185
   3   2.0000     -10.322905      -280.9005
   4   2.0000     -10.316182      -280.7176
   5   2.0000     -10.315883      -280.7095
   6   2.0000     -10.303967      -280.3852
   7   2.0000     -10.301594      -280.3206
   8   2.0000     -10.297324      -280.2044
   9   2.0000     -10.294121      -280.1173
  10   2.0000     -10.287869      -279.9472
  11   2.0000     -10.287397      -279.9343
  12   2.0000     -10.287115      -279.9266
  13   2.0000     -10.285691      -279.8879
  14   2.0000     -10.284739      -279.8620
  15   2.0000     -10.282767      -279.8083
  16   2.0000      -8.083141      -219.9535
  17   2.0000      -8.072731      -219.6702
  18   2.0000      -6.041662      -164.4020
  19   2.0000      -6.037786      -164.2965
  20   2.0000      -6.033813      -164.1884
  21   2.0000      -6.031303      -164.1201
  22   2.0000      -6.027116      -164.0062
  23   2.0000      -6.023438      -163.9061
  24   2.0000      -1.004099       -27.3229
  25   2.0000      -0.981928       -26.7196
  26   2.0000      -0.915493       -24.9118
  27   2.0000      -0.908038       -24.7090
  28   2.0000      -0.868527       -23.6338
  29   2.0000      -0.852775       -23.2052
  30   2.0000      -0.842855       -22.9353
  31   2.0000      -0.811216       -22.0743
  32   2.0000      -0.783902       -21.3311
  33   2.0000      -0.774638       -21.0790
  34   2.0000      -0.707831       -19.2610
  35   2.0000      -0.698044       -18.9947
  36   2.0000      -0.691022       -18.8037
  37   2.0000      -0.653798       -17.7907
  38   2.0000      -0.643065       -17.4987
  39   2.0000      -0.618808       -16.8386
  40   2.0000      -0.594620       -16.1804
  41   2.0000      -0.571031       -15.5385
  42   2.0000      -0.565715       -15.3939
  43   2.0000      -0.561346       -15.2750
  44   2.0000      -0.526090       -14.3156
  45   2.0000      -0.523748       -14.2519
  46   2.0000      -0.514661       -14.0046
  47   2.0000      -0.513453       -13.9718
  48   2.0000      -0.507269       -13.8035
  49   2.0000      -0.503605       -13.7038
  50   2.0000      -0.489471       -13.3192
  51   2.0000      -0.477677       -12.9982
  52   2.0000      -0.473630       -12.8881
  53   2.0000      -0.465751       -12.6737
  54   2.0000      -0.458361       -12.4727
  55   2.0000      -0.451530       -12.2867
  56   2.0000      -0.444032       -12.0827
  57   2.0000      -0.439192       -11.9510
  58   2.0000      -0.433821       -11.8049
  59   2.0000      -0.419968       -11.4279
  60   2.0000      -0.417537       -11.3618
  61   2.0000      -0.414294       -11.2735
  62   2.0000      -0.411756       -11.2045
  63   2.0000      -0.333703        -9.0805
  64   2.0000      -0.328274        -8.9328
  65   2.0000      -0.322394        -8.7728
  66   2.0000      -0.308866        -8.4047
  67   0.0000       0.040366         1.0984
  68   0.0000       0.057601         1.5674
  69   0.0000       0.105865         2.8807
  70   0.0000       0.121253         3.2995
  71   0.0000       0.132087         3.5943

MULLIKEN ATOMIC CHARGES
-----------------------
   0 S :    0.127089
   1 C :   -0.118059
   2 C :   -0.104055
   3 C :    0.049507
   4 C :   -0.162142
   5 H :    0.006265
   6 C :    0.114747
   7 H :    0.004536
   8 H :    0.007657
   9 C :   -0.107827
  10 H :    0.023755
  11 H :    0.030756
  12 C :   -0.035398
  13 H :    0.035929
  14 H :    0.045971
  15 H :    0.041133
  16 S :    0.097058
  17 C :   -0.093189
  18 C :   -0.079313
  19 C :   -0.024359
  20 C :   -0.217551
  21 H :    0.038437
  22 C :    0.175488
  23 H :    0.034235
  24 H :   -0.016323
  25 C :   -0.102369
  26 H :    0.017041
  27 H :    0.023350
  28 C :   -0.048005
  29 H :    0.043493
  30 H :    0.037591
  31 H :    0.041674
  32 H :    0.049119
  33 H :    0.063760
Sum of atomic charges:    0.0000000

LOEWDIN ATOMIC CHARGES
----------------------
   0 S :    0.413057
   1 C :   -0.195766
   2 C :   -0.059323
   3 C :   -0.050362
   4 C :   -0.199600
   5 H :    0.026250
   6 C :   -0.030393
   7 H :    0.028149
   8 H :    0.021085
   9 C :   -0.051337
  10 H :    0.023110
  11 H :    0.027928
  12 C :   -0.070022
  13 H :    0.028473
  14 H :    0.035010
  15 H :    0.032838
  16 S :    0.397063
  17 C :   -0.189242
  18 C :   -0.084143
  19 C :   -0.052221
  20 C :   -0.203623
  21 H :    0.036061
  22 C :   -0.014212
  23 H :    0.036389
  24 H :    0.010724
  25 C :   -0.039338
  26 H :    0.016460
  27 H :    0.023874
  28 C :   -0.066934
  29 H :    0.028150
  30 H :    0.029043
  31 H :    0.030632
  32 H :    0.027656
  33 H :    0.034566

  Mayer bond orders larger than 0.100000
B(  0-S ,  1-C ) :   1.1427 B(  0-S ,  4-C ) :   1.1609 B(  1-C ,  2-C ) :   1.6159
B(  1-C , 32-H ) :   0.9655 B(  2-C ,  3-C ) :   1.2429 B(  2-C ,  6-C ) :   1.0179
B(  3-C ,  4-C ) :   1.5815 B(  3-C ,  5-H ) :   0.9966 B(  4-C , 20-C ) :   1.0023
B(  6-C ,  7-H ) :   0.9347 B(  6-C ,  8-H ) :   0.9315 B(  6-C ,  9-C ) :   1.0601
B(  9-C , 10-H ) :   0.9536 B(  9-C , 11-H ) :   0.9521 B(  9-C , 12-C ) :   1.0954
B( 12-C , 13-H ) :   0.9705 B( 12-C , 14-H ) :   0.9699 B( 12-C , 15-H ) :   0.9694
B( 16-S , 17-C ) :   1.1497 B( 16-S , 20-C ) :   1.1392 B( 17-C , 18-C ) :   1.6326
B( 17-C , 33-H ) :   0.9672 B( 18-C , 19-C ) :   1.2027 B( 18-C , 21-H ) :   0.9788
B( 19-C , 20-C ) :   1.6340 B( 19-C , 22-C ) :   1.0363 B( 22-C , 23-H ) :   0.9318
B( 22-C , 24-H ) :   0.9248 B( 22-C , 25-C ) :   1.0503 B( 25-C , 26-H ) :   0.9627
B( 25-C , 27-H ) :   0.9504 B( 25-C , 28-C ) :   1.0794 B( 28-C , 29-H ) :   0.9752
B( 28-C , 30-H ) :   0.9759 B( 28-C , 31-H ) :   0.9753

Dispersion correction           -0.013417625
FINAL SINGLE POINT ENERGY     -1339.873234938035

DIPOLE MOMENT
-------------
                                X             Y             Z
Electronic contribution:      1.41847     -16.44552      18.45488
Nuclear contribution   :     -1.39743      16.99453     -18.76429
                        -----------------------------------------
Total Dipole Moment    :      0.02104       0.54902      -0.30941
                        -----------------------------------------
Magnitude (a.u.)       :      0.63055
Magnitude (Debye)      :      1.60274

Rotational constants in cm-1:     0.018638     0.007197     0.006069
Rotational constants in MHz :   558.758835   215.747497   181.956954

                             ****ORCA TERMINATED NORMALLY****
TOTAL RUN TIME: 0 days 0 hours 0 minutes 20 seconds 619 msec
