                         Program Version 4.2.1 -  RELEASE  -
|  1> ! wB97X-D3 SP def2-SVP
|  2> %pal
|  3> nprocs 24
|  4> end
|  5>
|  6> * xyz 0 1
|  7> S 	 -56.3662 	 21.6371 	 22.6476
|  8> C 	 -57.6756 	 20.8917 	 23.3839
|  9> C 	 -57.4077 	 19.6053 	 23.8293
| 10> C 	 -56.1234 	 19.135 	 23.4152
| 11> C 	 -55.4435 	 20.0864 	 22.7769
| 12> H 	 -55.5564 	 18.2168 	 23.5628
| 13> C 	 -58.4 	 18.7644 	 24.6624
| 14> H 	 -58.726 	 17.915 	 24.0604
| 15> H 	 -59.2366 	 19.4197 	 24.895
| 16> C 	 -57.7793 	 18.18 	 25.9114
| 17> H 	 -56.7926 	 17.6464 	 25.6978
| 18> H 	 -57.4612 	 19.0845 	 26.5099
| 19> C 	 -58.7366 	 17.2256 	 26.6609
| 20> H 	 -59.6665 	 17.8107 	 26.7787
| 21> H 	 -59.0184 	 16.2748 	 26.1823
| 22> H 	 -58.2834 	 17.0553 	 27.6113
| 23> S 	 -53.8324 	 19.3413 	 20.7359
| 24> C 	 -52.1158 	 19.5508 	 20.8744
| 25> C 	 -51.7745 	 20.0731 	 22.1424
| 26> C 	 -52.921 	 20.3046 	 22.9525
| 27> C 	 -54.0864 	 19.9422 	 22.3266
| 28> H 	 -50.7987 	 20.1775 	 22.5538
| 29> C 	 -52.8528 	 21.0086 	 24.3413
| 30> H 	 -53.6245 	 21.8385 	 24.353
| 31> H 	 -51.8497 	 21.5232 	 24.4594
| 32> C 	 -53.0092 	 20.1288 	 25.5532
| 33> H 	 -54.0082 	 19.7162 	 25.5826
| 34> H 	 -52.9847 	 20.7728 	 26.4333
| 35> C 	 -51.8476 	 19.0889 	 25.6759
| 36> H 	 -51.9486 	 18.4964 	 24.7833
| 37> H 	 -52.0359 	 18.4828 	 26.635
| 38> H 	 -50.869 	 19.5971 	 25.7501
| 39> H 	 -58.6398 	 21.3633 	 23.5045
| 40> H 	 -51.4473 	 19.2518 	 20.1648
| 41> *
| 42>
| 43>                          ****END OF INPUT****

CARTESIAN COORDINATES (ANGSTROEM)
---------------------------------
  S    -56.366200   21.637100   22.647600
  C    -57.675600   20.891700   23.383900
  C    -57.407700   19.605300   23.829300
  C    -56.123400   19.135000   23.415200
  C    -55.443500   20.086400   22.776900
  H    -55.556400   18.216800   23.562800
  C    -58.400000   18.764400   24.662400
  H    -58.726000   17.915000   24.060400
  H    -59.236600   19.419700   24.895000
  C    -57.779300   18.180000   25.911400
  H    -56.792600   17.646400   25.697800
  H    -57.461200   19.084500   26.509900
  C    -58.736600   17.225600   26.660900
  H    -59.666500   17.810700   26.778700
  H    -59.018400   16.274800   26.182300
  H    -58.283400   17.055300   27.611300
  S    -53.832400   19.341300   20.735900
  C    -52.115800   19.550800   20.874400
  C    -51.774500   20.073100   22.142400
  C    -52.921000   20.304600   22.952500
  C    -54.086400   19.942200   22.326600
  H    -50.798700   20.177500   22.553800
  C    -52.852800   21.008600   24.341300
  H    -53.624500   21.838500   24.353000
  H    -51.849700   21.523200   24.459400
  C    -53.009200   20.128800   25.553200
  H    -54.008200   19.716200   25.582600
  H    -52.984700   20.772800   26.433300
  C    -51.847600   19.088900   25.675900
  H    -51.948600   18.496400   24.783300
  H    -52.035900   18.482800   26.635000
  H    -50.869000   19.597100   25.750100
  H    -58.639800   21.363300   23.504500
  H    -51.447300   19.251800   20.164800

 Total Charge           Charge          ....    0
 Multiplicity           Mult            ....    1
 Number of Electrons    NEL             ....  134
 Basis Dimension        Dim             ....  322

ORBITAL ENERGIES
----------------

  NO   OCC          E(Eh)            E(eV)
   0   2.0000     -88.966958     -2420.9140
   1   2.0000     -88.964705     -2420.8527
   2   2.0000     -10.320832      -280.8441
   3   2.0000     -10.315663      -280.7035
   4   2.0000     -10.314568      -280.6737
   5   2.0000     -10.309982      -280.5489
   6   2.0000     -10.300774      -280.2983
   7   2.0000     -10.299655      -280.2679
   8   2.0000     -10.297327      -280.2045
   9   2.0000     -10.294373      -280.1241
  10   2.0000     -10.294000      -280.1140
  11   2.0000     -10.291776      -280.0535
  12   2.0000     -10.289992      -280.0049
  13   2.0000     -10.283281      -279.8223
  14   2.0000     -10.281118      -279.7635
  15   2.0000     -10.280143      -279.7369
  16   2.0000      -8.082420      -219.9338
  17   2.0000      -8.080043      -219.8691
  18   2.0000      -6.040724      -164.3764
  19   2.0000      -6.038359      -164.3121
  20   2.0000      -6.036724      -164.2676
  21   2.0000      -6.034649      -164.2111
  22   2.0000      -6.033458      -164.1787
  23   2.0000      -6.030778      -164.1058
  24   2.0000      -1.012393       -27.5486
  25   2.0000      -0.988676       -26.9032
  26   2.0000      -0.909781       -24.7564
  27   2.0000      -0.905711       -24.6456
  28   2.0000      -0.877634       -23.8816
  29   2.0000      -0.849917       -23.1274
  30   2.0000      -0.846259       -23.0279
  31   2.0000      -0.815151       -22.1814
  32   2.0000      -0.777817       -21.1655
  33   2.0000      -0.767937       -20.8966
  34   2.0000      -0.706651       -19.2289
  35   2.0000      -0.690247       -18.7826
  36   2.0000      -0.683932       -18.6107
  37   2.0000      -0.671571       -18.2744
  38   2.0000      -0.651282       -17.7223
  39   2.0000      -0.615168       -16.7396
  40   2.0000      -0.592776       -16.1302
  41   2.0000      -0.569790       -15.5048
  42   2.0000      -0.558481       -15.1970
  43   2.0000      -0.549763       -14.9598
  44   2.0000      -0.545851       -14.8534
  45   2.0000      -0.524780       -14.2800
  46   2.0000      -0.519731       -14.1426
  47   2.0000      -0.509437       -13.8625
  48   2.0000      -0.505021       -13.7423
  49   2.0000      -0.496544       -13.5117
  50   2.0000      -0.484679       -13.1888
  51   2.0000      -0.481031       -13.0895
  52   2.0000      -0.474337       -12.9074
  53   2.0000      -0.466748       -12.7009
  54   2.0000      -0.460644       -12.5348
  55   2.0000      -0.449634       -12.2351
  56   2.0000      -0.444655       -12.0997
  57   2.0000      -0.436809       -11.8862
  58   2.0000      -0.432801       -11.7771
  59   2.0000      -0.423816       -11.5326
  60   2.0000      -0.420934       -11.4542
  61   2.0000      -0.411315       -11.1925
  62   2.0000      -0.407867       -11.0986
  63   2.0000      -0.344733        -9.3807
  64   2.0000      -0.334068        -9.0904
  65   2.0000      -0.317103        -8.6288
  66   2.0000      -0.307029        -8.3547
  67   0.0000       0.047627         1.2960
  68   0.0000       0.055177         1.5015
  69   0.0000       0.111284         3.0282
  70   0.0000       0.121942         3.3182
  71   0.0000       0.132514         3.6059

MULLIKEN ATOMIC CHARGES
-----------------------
   0 S :    0.122135
   1 C :   -0.113648
   2 C :   -0.094405
   3 C :    0.046878
   4 C :   -0.172507
   5 H :    0.025817
   6 C :    0.114054
   7 H :    0.030280
   8 H :    0.013745
   9 C :   -0.163665
  10 H :    0.040214
  11 H :    0.039446
  12 C :   -0.017416
  13 H :    0.026124
  14 H :    0.043770
  15 H :    0.033308
  16 S :    0.132867
  17 C :   -0.062606
  18 C :   -0.017358
  19 C :   -0.025272
  20 C :   -0.227996
  21 H :    0.006765
  22 C :    0.040386
  23 H :    0.041067
  24 H :    0.022791
  25 C :   -0.058591
  26 H :    0.026542
  27 H :    0.021313
  28 C :   -0.075838
  29 H :    0.045109
  30 H :    0.049622
  31 H :    0.036149
  32 H :    0.044723
  33 H :    0.026197
Sum of atomic charges:    0.0000000

LOEWDIN ATOMIC CHARGES
----------------------
   0 S :    0.405283
   1 C :   -0.215004
   2 C :   -0.065492
   3 C :   -0.055059
   4 C :   -0.180718
   5 H :    0.041393
   6 C :   -0.032179
   7 H :    0.029583
   8 H :    0.026395
   9 C :   -0.053044
  10 H :    0.025653
  11 H :    0.030066
  12 C :   -0.064209
  13 H :    0.027636
  14 H :    0.029154
  15 H :    0.024891
  16 S :    0.438976
  17 C :   -0.176591
  18 C :   -0.063591
  19 C :   -0.059139
  20 C :   -0.220696
  21 H :    0.025554
  22 C :   -0.035331
  23 H :    0.034908
  24 H :    0.031614
  25 C :   -0.045588
  26 H :    0.020460
  27 H :    0.022113
  28 C :   -0.068063
  29 H :    0.023049
  30 H :    0.036125
  31 H :    0.025669
  32 H :    0.027673
  33 H :    0.008510

  Mayer bond orders larger than 0.100000
B(  0-S ,  1-C ) :   1.1499 B(  0-S ,  4-C ) :   1.1189 B(  1-C ,  2-C ) :   1.6343
B(  1-C , 32-H ) :   0.9645 B(  2-C ,  3-C ) :   1.1880 B(  2-C ,  6-C ) :   1.0270
B(  3-C ,  4-C ) :   1.6504 B(  3-C ,  5-H ) :   0.9846 B(  4-C , 20-C ) :   1.0146
B(  6-C ,  7-H ) :   0.9356 B(  6-C ,  8-H ) :   0.9371 B(  6-C ,  9-C ) :   1.0599
B(  9-C , 10-H ) :   0.9538 B(  9-C , 11-H ) :   0.9548 B(  9-C , 12-C ) :   1.0752
B( 12-C , 13-H ) :   0.9724 B( 12-C , 14-H ) :   0.9748 B( 12-C , 15-H ) :   0.9732
B( 16-S , 17-C ) :   1.1755 B( 16-S , 20-C ) :   1.1713 B( 17-C , 18-C ) :   1.5577
B( 17-C , 20-C ) :   0.1061 B( 17-C , 33-H ) :   0.9833 B( 18-C , 19-C ) :   1.2789
B( 18-C , 21-H ) :   0.9896 B( 19-C , 20-C ) :   1.5879 B( 19-C , 22-C ) :   1.0241
B( 22-C , 23-H ) :   0.9320 B( 22-C , 24-H ) :   0.9401 B( 22-C , 25-C ) :   1.0854
B( 25-C , 26-H ) :   0.9541 B( 25-C , 27-H ) :   0.9520 B( 25-C , 28-C ) :   1.0593
B( 28-C , 29-H ) :   0.9785 B( 28-C , 30-H ) :   0.9747 B( 28-C , 31-H ) :   0.9747

Dispersion correction           -0.015296700
FINAL SINGLE POINT ENERGY     -1339.884678432656

DIPOLE MOMENT
-------------
                                X             Y             Z
Electronic contribution:      1.97405      10.43996     -26.03789
Nuclear contribution   :     -1.99199     -10.64884      26.53425
                        -----------------------------------------
Total Dipole Moment    :     -0.01794      -0.20888       0.49636
                        -----------------------------------------
Magnitude (a.u.)       :      0.53882
Magnitude (Debye)      :      1.36957

Rotational constants in cm-1:     0.018630     0.008948     0.007438
Rotational constants in MHz :   558.499343   268.243931   222.995462

                             ****ORCA TERMINATED NORMALLY****
TOTAL RUN TIME: 0 days 0 hours 0 minutes 22 seconds 302 msec
