                         Program Version 4.2.1 -  RELEASE  -
|  1> ! wB97X-D3 SP def2-SVP
|  2> %pal
|  3> nprocs 24
|  4> end
|  5>
|  6> * xyz 0 1
|  7> S 	 -2.28433 	 -24.3986 	 -109.081
|  8> C 	 -1.2586 	 -23.4897 	 -110.139
|  9> C 	 -0.486688 	 -24.3495 	 -110.923
| 10> C 	 -0.639915 	 -25.7386 	 -110.543
| 11> C 	 -1.53712 	 -25.9138 	 -109.548
| 12> H 	 0.0384658 	 -26.4854 	 -110.96
| 13> C 	 0.595767 	 -23.8145 	 -111.806
| 14> H 	 0.579745 	 -22.7378 	 -111.882
| 15> H 	 0.458285 	 -24.1937 	 -112.836
| 16> C 	 2.08654 	 -24.1232 	 -111.457
| 17> H 	 2.36409 	 -23.8109 	 -110.459
| 18> H 	 2.1602 	 -25.2303 	 -111.5
| 19> C 	 3.09573 	 -23.6369 	 -112.537
| 20> H 	 3.23333 	 -22.5604 	 -112.412
| 21> H 	 4.13775 	 -23.9008 	 -112.353
| 22> H 	 2.80818 	 -23.8 	 -113.656
| 23> S 	 -1.7245 	 -27.3474 	 -107.129
| 24> C 	 -1.99195 	 -29.1191 	 -107.216
| 25> C 	 -2.0672 	 -29.5428 	 -108.533
| 26> C 	 -2.02704 	 -28.4891 	 -109.449
| 27> C 	 -1.7189 	 -27.251 	 -108.895
| 28> H 	 -2.14852 	 -30.6301 	 -108.78
| 29> C 	 -2.00239 	 -28.8066 	 -110.946
| 30> H 	 -1.91002 	 -27.8594 	 -111.463
| 31> H 	 -2.97661 	 -29.2096 	 -111.194
| 32> C 	 -0.933595 	 -29.8055 	 -111.318
| 33> H 	 -1.261 	 -30.8018 	 -111.06
| 34> H 	 0.00741127 	 -29.7678 	 -110.822
| 35> C 	 -0.536184 	 -29.7519 	 -112.811
| 36> H 	 -0.0280136 	 -30.7031 	 -113.154
| 37> H 	 0.0623251 	 -28.8911 	 -113.071
| 38> H 	 -1.42185 	 -29.7278 	 -113.436
| 39> H 	 -1.2331 	 -22.3835 	 -110.268
| 40> H 	 -2.09981 	 -29.7578 	 -106.332
| 41> *
| 42>
| 43>                          ****END OF INPUT****

CARTESIAN COORDINATES (ANGSTROEM)
---------------------------------
  S     -2.284330  -24.398600  -109.081000
  C     -1.258600  -23.489700  -110.139000
  C     -0.486688  -24.349500  -110.923000
  C     -0.639915  -25.738600  -110.543000
  C     -1.537120  -25.913800  -109.548000
  H      0.038466  -26.485400  -110.960000
  C      0.595767  -23.814500  -111.806000
  H      0.579745  -22.737800  -111.882000
  H      0.458285  -24.193700  -112.836000
  C      2.086540  -24.123200  -111.457000
  H      2.364090  -23.810900  -110.459000
  H      2.160200  -25.230300  -111.500000
  C      3.095730  -23.636900  -112.537000
  H      3.233330  -22.560400  -112.412000
  H      4.137750  -23.900800  -112.353000
  H      2.808180  -23.800000  -113.656000
  S     -1.724500  -27.347400  -107.129000
  C     -1.991950  -29.119100  -107.216000
  C     -2.067200  -29.542800  -108.533000
  C     -2.027040  -28.489100  -109.449000
  C     -1.718900  -27.251000  -108.895000
  H     -2.148520  -30.630100  -108.780000
  C     -2.002390  -28.806600  -110.946000
  H     -1.910020  -27.859400  -111.463000
  H     -2.976610  -29.209600  -111.194000
  C     -0.933595  -29.805500  -111.318000
  H     -1.261000  -30.801800  -111.060000
  H      0.007411  -29.767800  -110.822000
  C     -0.536184  -29.751900  -112.811000
  H     -0.028014  -30.703100  -113.154000
  H      0.062325  -28.891100  -113.071000
  H     -1.421850  -29.727800  -113.436000
  H     -1.233100  -22.383500  -110.268000
  H     -2.099810  -29.757800  -106.332000

 Total Charge           Charge          ....    0
 Multiplicity           Mult            ....    1
 Number of Electrons    NEL             ....  134
 Basis Dimension        Dim             ....  322

ORBITAL ENERGIES
----------------

  NO   OCC          E(Eh)            E(eV)
   0   2.0000     -88.969360     -2420.9794
   1   2.0000     -88.966004     -2420.8880
   2   2.0000     -10.332223      -281.1541
   3   2.0000     -10.330920      -281.1186
   4   2.0000     -10.322762      -280.8966
   5   2.0000     -10.318062      -280.7687
   6   2.0000     -10.301736      -280.3245
   7   2.0000     -10.299791      -280.2716
   8   2.0000     -10.295973      -280.1677
   9   2.0000     -10.295056      -280.1427
  10   2.0000     -10.293315      -280.0953
  11   2.0000     -10.292777      -280.0807
  12   2.0000     -10.289119      -279.9812
  13   2.0000     -10.287790      -279.9450
  14   2.0000     -10.282513      -279.8014
  15   2.0000     -10.280498      -279.7466
  16   2.0000      -8.084124      -219.9802
  17   2.0000      -8.079742      -219.8610
  18   2.0000      -6.042724      -164.4309
  19   2.0000      -6.038573      -164.3179
  20   2.0000      -6.038294      -164.3103
  21   2.0000      -6.034826      -164.2160
  22   2.0000      -6.034432      -164.2052
  23   2.0000      -6.030487      -164.0979
  24   2.0000      -1.005631       -27.3646
  25   2.0000      -0.983984       -26.7756
  26   2.0000      -0.910543       -24.7771
  27   2.0000      -0.906906       -24.6782
  28   2.0000      -0.867023       -23.5929
  29   2.0000      -0.850887       -23.1538
  30   2.0000      -0.845523       -23.0078
  31   2.0000      -0.815863       -22.2008
  32   2.0000      -0.778744       -21.1907
  33   2.0000      -0.768164       -20.9028
  34   2.0000      -0.707503       -19.2521
  35   2.0000      -0.702286       -19.1102
  36   2.0000      -0.692808       -18.8523
  37   2.0000      -0.657594       -17.8940
  38   2.0000      -0.638613       -17.3776
  39   2.0000      -0.624545       -16.9947
  40   2.0000      -0.594811       -16.1856
  41   2.0000      -0.570510       -15.5244
  42   2.0000      -0.566726       -15.4214
  43   2.0000      -0.557096       -15.1594
  44   2.0000      -0.528823       -14.3900
  45   2.0000      -0.521784       -14.1985
  46   2.0000      -0.512237       -13.9387
  47   2.0000      -0.507494       -13.8096
  48   2.0000      -0.502891       -13.6844
  49   2.0000      -0.495147       -13.4736
  50   2.0000      -0.492532       -13.4025
  51   2.0000      -0.482245       -13.1226
  52   2.0000      -0.469566       -12.7775
  53   2.0000      -0.463854       -12.6221
  54   2.0000      -0.459015       -12.4904
  55   2.0000      -0.453202       -12.3322
  56   2.0000      -0.443080       -12.0568
  57   2.0000      -0.440705       -11.9922
  58   2.0000      -0.438169       -11.9232
  59   2.0000      -0.426264       -11.5992
  60   2.0000      -0.423710       -11.5297
  61   2.0000      -0.411489       -11.1972
  62   2.0000      -0.406127       -11.0513
  63   2.0000      -0.350039        -9.5250
  64   2.0000      -0.333476        -9.0743
  65   2.0000      -0.327425        -8.9097
  66   2.0000      -0.293972        -7.9994
  67   0.0000       0.030433         0.8281
  68   0.0000       0.072864         1.9827
  69   0.0000       0.111917         3.0454
  70   0.0000       0.117327         3.1926
  71   0.0000       0.127074         3.4579

MULLIKEN ATOMIC CHARGES
-----------------------
   0 S :    0.124209
   1 C :   -0.141203
   2 C :   -0.063612
   3 C :    0.012048
   4 C :   -0.121161
   5 H :    0.025678
   6 C :    0.044577
   7 H :    0.010434
   8 H :    0.027132
   9 C :   -0.070935
  10 H :    0.035705
  11 H :    0.026560
  12 C :   -0.087097
  13 H :    0.022044
  14 H :    0.035066
  15 H :    0.052978
  16 S :    0.096067
  17 C :   -0.106573
  18 C :   -0.044152
  19 C :   -0.047790
  20 C :   -0.163893
  21 H :    0.040592
  22 C :    0.103070
  23 H :    0.020658
  24 H :    0.027347
  25 C :   -0.063943
  26 H :    0.016502
  27 H :    0.027711
  28 C :   -0.067583
  29 H :    0.037733
  30 H :    0.036968
  31 H :    0.021449
  32 H :    0.067739
  33 H :    0.065678
Sum of atomic charges:    0.0000000

LOEWDIN ATOMIC CHARGES
----------------------
   0 S :    0.411415
   1 C :   -0.207666
   2 C :   -0.066185
   3 C :   -0.061499
   4 C :   -0.192153
   5 H :    0.035329
   6 C :   -0.036704
   7 H :    0.024289
   8 H :    0.032679
   9 C :   -0.037828
  10 H :    0.024319
  11 H :    0.021159
  12 C :   -0.083113
  13 H :    0.022677
  14 H :    0.028800
  15 H :    0.038295
  16 S :    0.380349
  17 C :   -0.170890
  18 C :   -0.076125
  19 C :   -0.058051
  20 C :   -0.189297
  21 H :    0.042016
  22 C :   -0.025635
  23 H :    0.026863
  24 H :    0.033735
  25 C :   -0.042544
  26 H :    0.021251
  27 H :    0.022777
  28 C :   -0.066448
  29 H :    0.033037
  30 H :    0.021676
  31 H :    0.020408
  32 H :    0.040474
  33 H :    0.032589

  Mayer bond orders larger than 0.100000
B(  0-S ,  1-C ) :   1.1326 B(  0-S ,  4-C ) :   1.1477 B(  1-C ,  2-C ) :   1.6109
B(  1-C , 32-H ) :   0.9609 B(  2-C ,  3-C ) :   1.2318 B(  2-C ,  6-C ) :   1.0508
B(  3-C ,  4-C ) :   1.5745 B(  3-C ,  5-H ) :   0.9921 B(  4-C , 20-C ) :   1.0236
B(  6-C ,  7-H ) :   0.9482 B(  6-C ,  8-H ) :   0.9294 B(  6-C ,  9-C ) :   1.0543
B(  9-C , 10-H ) :   0.9577 B(  9-C , 11-H ) :   0.9564 B(  9-C , 12-C ) :   1.0734
B( 12-C , 13-H ) :   0.9732 B( 12-C , 14-H ) :   0.9722 B( 12-C , 15-H ) :   0.9733
B( 16-S , 17-C ) :   1.1523 B( 16-S , 20-C ) :   1.1315 B( 17-C , 18-C ) :   1.6024
B( 17-C , 20-C ) :   0.1037 B( 17-C , 33-H ) :   0.9662 B( 18-C , 19-C ) :   1.2461
B( 18-C , 21-H ) :   0.9825 B( 19-C , 20-C ) :   1.6015 B( 19-C , 22-C ) :   1.0459
B( 22-C , 23-H ) :   0.9431 B( 22-C , 24-H ) :   0.9171 B( 22-C , 25-C ) :   1.0550
B( 25-C , 26-H ) :   0.9450 B( 25-C , 27-H ) :   0.9632 B( 25-C , 28-C ) :   1.0867
B( 28-C , 29-H ) :   0.9741 B( 28-C , 30-H ) :   0.9779 B( 28-C , 31-H ) :   0.9734

Dispersion correction           -0.013935104
FINAL SINGLE POINT ENERGY     -1339.880529611458

DIPOLE MOMENT
-------------
                                X             Y             Z
Electronic contribution:    -18.35948       4.94981      25.18463
Nuclear contribution   :     18.77030      -5.19701     -25.65093
                        -----------------------------------------
Total Dipole Moment    :      0.41082      -0.24719      -0.46630
                        -----------------------------------------
Magnitude (a.u.)       :      0.66882
Magnitude (Debye)      :      1.70000

Rotational constants in cm-1:     0.016398     0.008950     0.006648
Rotational constants in MHz :   491.601375   268.326641   199.288589

                             ****ORCA TERMINATED NORMALLY****
TOTAL RUN TIME: 0 days 0 hours 0 minutes 20 seconds 348 msec
