                         Program Version 4.2.1 -  RELEASE  -
|  1> ! wB97X-D3 SP def2-SVP
|  2> %pal
|  3> nprocs 24
|  4> end
|  5>
|  6> * xyz 0 1
|  7> S 	 -145.424 	 17.9622 	 -4.68799
|  8> C 	 -144.084 	 16.8393 	 -4.97984
|  9> C 	 -144.306 	 15.5556 	 -4.46403
| 10> C 	 -145.675 	 15.4459 	 -4.0089
| 11> C 	 -146.455 	 16.6156 	 -4.12288
| 12> H 	 -146.037 	 14.582 	 -3.52843
| 13> C 	 -143.179 	 14.4402 	 -4.27142
| 14> H 	 -143.174 	 13.9385 	 -3.29712
| 15> H 	 -142.204 	 14.9763 	 -4.3475
| 16> C 	 -143.139 	 13.3389 	 -5.36805
| 17> H 	 -142.421 	 12.5579 	 -5.08653
| 18> H 	 -144.094 	 12.8506 	 -5.42297
| 19> C 	 -142.856 	 13.8751 	 -6.76564
| 20> H 	 -142.612 	 13.0774 	 -7.41224
| 21> H 	 -143.636 	 14.5059 	 -7.27426
| 22> H 	 -141.853 	 14.44 	 -6.75708
| 23> S 	 -147.83 	 18.3093 	 -2.49458
| 24> C 	 -149.581 	 18.2697 	 -2.50722
| 25> C 	 -150.039 	 17.1479 	 -3.18062
| 26> C 	 -148.997 	 16.3168 	 -3.78273
| 27> C 	 -147.79 	 16.9331 	 -3.61798
| 28> H 	 -151.092 	 16.8604 	 -3.12429
| 29> C 	 -149.348 	 14.9996 	 -4.52937
| 30> H 	 -148.918 	 14.9597 	 -5.5191
| 31> H 	 -150.368 	 15.151 	 -4.84605
| 32> C 	 -149.241 	 13.6959 	 -3.75873
| 33> H 	 -149.999 	 13.7657 	 -3.00679
| 34> H 	 -148.299 	 13.781 	 -3.11217
| 35> C 	 -149.139 	 12.3122 	 -4.46106
| 36> H 	 -149.887 	 12.2438 	 -5.1913
| 37> H 	 -149.152 	 11.4677 	 -3.70091
| 38> H 	 -148.248 	 12.4139 	 -5.12194
| 39> H 	 -143 	 17.1128 	 -5.01596
| 40> H 	 -150.168 	 18.8701 	 -1.79143
| 41> *
| 42>
| 43>                          ****END OF INPUT****

CARTESIAN COORDINATES (ANGSTROEM)
---------------------------------
  S    -145.424000   17.962200   -4.687990
  C    -144.084000   16.839300   -4.979840
  C    -144.306000   15.555600   -4.464030
  C    -145.675000   15.445900   -4.008900
  C    -146.455000   16.615600   -4.122880
  H    -146.037000   14.582000   -3.528430
  C    -143.179000   14.440200   -4.271420
  H    -143.174000   13.938500   -3.297120
  H    -142.204000   14.976300   -4.347500
  C    -143.139000   13.338900   -5.368050
  H    -142.421000   12.557900   -5.086530
  H    -144.094000   12.850600   -5.422970
  C    -142.856000   13.875100   -6.765640
  H    -142.612000   13.077400   -7.412240
  H    -143.636000   14.505900   -7.274260
  H    -141.853000   14.440000   -6.757080
  S    -147.830000   18.309300   -2.494580
  C    -149.581000   18.269700   -2.507220
  C    -150.039000   17.147900   -3.180620
  C    -148.997000   16.316800   -3.782730
  C    -147.790000   16.933100   -3.617980
  H    -151.092000   16.860400   -3.124290
  C    -149.348000   14.999600   -4.529370
  H    -148.918000   14.959700   -5.519100
  H    -150.368000   15.151000   -4.846050
  C    -149.241000   13.695900   -3.758730
  H    -149.999000   13.765700   -3.006790
  H    -148.299000   13.781000   -3.112170
  C    -149.139000   12.312200   -4.461060
  H    -149.887000   12.243800   -5.191300
  H    -149.152000   11.467700   -3.700910
  H    -148.248000   12.413900   -5.121940
  H    -143.000000   17.112800   -5.015960
  H    -150.168000   18.870100   -1.791430

 Total Charge           Charge          ....    0
 Multiplicity           Mult            ....    1
 Number of Electrons    NEL             ....  134
 Basis Dimension        Dim             ....  322

ORBITAL ENERGIES
----------------

  NO   OCC          E(Eh)            E(eV)
   0   2.0000     -88.969096     -2420.9722
   1   2.0000     -88.966512     -2420.9019
   2   2.0000     -10.335982      -281.2564
   3   2.0000     -10.330616      -281.1104
   4   2.0000     -10.321641      -280.8661
   5   2.0000     -10.317557      -280.7550
   6   2.0000     -10.311202      -280.5821
   7   2.0000     -10.310880      -280.5733
   8   2.0000     -10.305682      -280.4319
   9   2.0000     -10.300585      -280.2932
  10   2.0000     -10.297887      -280.2198
  11   2.0000     -10.294903      -280.1386
  12   2.0000     -10.290887      -280.0293
  13   2.0000     -10.289030      -279.9787
  14   2.0000     -10.288108      -279.9536
  15   2.0000     -10.279220      -279.7118
  16   2.0000      -8.082538      -219.9370
  17   2.0000      -8.081059      -219.8968
  18   2.0000      -6.041193      -164.3892
  19   2.0000      -6.039616      -164.3463
  20   2.0000      -6.037296      -164.2832
  21   2.0000      -6.035715      -164.2402
  22   2.0000      -6.033115      -164.1694
  23   2.0000      -6.031641      -164.1293
  24   2.0000      -1.001636       -27.2559
  25   2.0000      -0.974641       -26.5213
  26   2.0000      -0.907477       -24.6937
  27   2.0000      -0.903743       -24.5921
  28   2.0000      -0.865003       -23.5379
  29   2.0000      -0.851406       -23.1679
  30   2.0000      -0.839199       -22.8358
  31   2.0000      -0.808304       -21.9951
  32   2.0000      -0.788070       -21.4445
  33   2.0000      -0.775207       -21.0945
  34   2.0000      -0.706730       -19.2311
  35   2.0000      -0.697522       -18.9805
  36   2.0000      -0.688007       -18.7216
  37   2.0000      -0.662869       -18.0376
  38   2.0000      -0.632986       -17.2244
  39   2.0000      -0.617054       -16.7909
  40   2.0000      -0.596943       -16.2436
  41   2.0000      -0.563249       -15.3268
  42   2.0000      -0.556491       -15.1429
  43   2.0000      -0.545217       -14.8361
  44   2.0000      -0.541497       -14.7349
  45   2.0000      -0.533602       -14.5201
  46   2.0000      -0.513409       -13.9706
  47   2.0000      -0.507088       -13.7986
  48   2.0000      -0.505979       -13.7684
  49   2.0000      -0.486785       -13.2461
  50   2.0000      -0.482052       -13.1173
  51   2.0000      -0.474295       -12.9062
  52   2.0000      -0.469723       -12.7818
  53   2.0000      -0.458446       -12.4749
  54   2.0000      -0.457760       -12.4563
  55   2.0000      -0.450283       -12.2528
  56   2.0000      -0.444560       -12.0971
  57   2.0000      -0.439437       -11.9577
  58   2.0000      -0.431901       -11.7526
  59   2.0000      -0.427801       -11.6411
  60   2.0000      -0.424425       -11.5492
  61   2.0000      -0.417398       -11.3580
  62   2.0000      -0.402822       -10.9613
  63   2.0000      -0.346331        -9.4242
  64   2.0000      -0.335721        -9.1354
  65   2.0000      -0.328640        -8.9427
  66   2.0000      -0.293931        -7.9983
  67   0.0000       0.022682         0.6172
  68   0.0000       0.060775         1.6538
  69   0.0000       0.101368         2.7584
  70   0.0000       0.113713         3.0943
  71   0.0000       0.127973         3.4823

MULLIKEN ATOMIC CHARGES
-----------------------
   0 S :    0.102452
   1 C :   -0.105768
   2 C :   -0.127374
   3 C :    0.060790
   4 C :   -0.142860
   5 H :   -0.011301
   6 C :    0.045977
   7 H :    0.041071
   8 H :    0.022622
   9 C :   -0.060303
  10 H :    0.034647
  11 H :    0.024843
  12 C :   -0.077644
  13 H :    0.021450
  14 H :    0.063085
  15 H :    0.022703
  16 S :    0.102060
  17 C :   -0.095056
  18 C :   -0.045131
  19 C :   -0.039694
  20 C :   -0.171682
  21 H :    0.026231
  22 C :    0.101546
  23 H :    0.019994
  24 H :    0.005294
  25 C :   -0.095207
  26 H :    0.013335
  27 H :    0.028740
  28 C :   -0.017495
  29 H :    0.016173
  30 H :    0.064601
  31 H :    0.033361
  32 H :    0.066089
  33 H :    0.072448
Sum of atomic charges:   -0.0000000

LOEWDIN ATOMIC CHARGES
----------------------
   0 S :    0.389122
   1 C :   -0.210345
   2 C :   -0.057491
   3 C :   -0.056111
   4 C :   -0.181328
   5 H :    0.019737
   6 C :   -0.027299
   7 H :    0.032744
   8 H :    0.029817
   9 C :   -0.044061
  10 H :    0.028194
  11 H :    0.020720
  12 C :   -0.075723
  13 H :    0.019033
  14 H :    0.036078
  15 H :    0.028400
  16 S :    0.391441
  17 C :   -0.190583
  18 C :   -0.069024
  19 C :   -0.050590
  20 C :   -0.185248
  21 H :    0.031865
  22 C :   -0.033177
  23 H :    0.030484
  24 H :    0.028452
  25 C :   -0.050022
  26 H :    0.016988
  27 H :    0.026333
  28 C :   -0.062727
  29 H :    0.014422
  30 H :    0.042999
  31 H :    0.033202
  32 H :    0.038081
  33 H :    0.035618

  Mayer bond orders larger than 0.100000
B(  0-S ,  1-C ) :   1.1357 B(  0-S ,  4-C ) :   1.1385 B(  1-C ,  2-C ) :   1.6328
B(  1-C , 32-H ) :   0.9470 B(  2-C ,  3-C ) :   1.2527 B(  2-C ,  6-C ) :   1.0049
B(  3-C ,  4-C ) :   1.5652 B(  3-C ,  5-H ) :   0.9982 B(  4-C , 20-C ) :   1.0413
B(  6-C ,  7-H ) :   0.9519 B(  6-C ,  8-H ) :   0.9462 B(  6-C ,  9-C ) :   1.0687
B(  9-C , 10-H ) :   0.9552 B(  9-C , 11-H ) :   0.9548 B(  9-C , 12-C ) :   1.0803
B( 12-C , 13-H ) :   0.9716 B( 12-C , 14-H ) :   0.9728 B( 12-C , 15-H ) :   0.9724
B( 16-S , 17-C ) :   1.1321 B( 16-S , 20-C ) :   1.1427 B( 17-C , 18-C ) :   1.6333
B( 17-C , 33-H ) :   0.9636 B( 18-C , 19-C ) :   1.2214 B( 18-C , 21-H ) :   0.9807
B( 19-C , 20-C ) :   1.6354 B( 19-C , 22-C ) :   1.0364 B( 22-C , 23-H ) :   0.9338
B( 22-C , 24-H ) :   0.9257 B( 22-C , 25-C ) :   1.0481 B( 25-C , 26-H ) :   0.9498
B( 25-C , 27-H ) :   0.9614 B( 25-C , 28-C ) :   1.0683 B( 28-C , 29-H ) :   0.9758
B( 28-C , 30-H ) :   0.9718 B( 28-C , 31-H ) :   0.9718

Dispersion correction           -0.014122150
FINAL SINGLE POINT ENERGY     -1339.858132400339

DIPOLE MOMENT
-------------
                                X             Y             Z
Electronic contribution:     -4.54617      28.44508       8.96507
Nuclear contribution   :      4.43803     -29.19712      -8.76143
                        -----------------------------------------
Total Dipole Moment    :     -0.10813      -0.75203       0.20364
                        -----------------------------------------
Magnitude (a.u.)       :      0.78659
Magnitude (Debye)      :      1.99934

Rotational constants in cm-1:     0.017666     0.009071     0.006446
Rotational constants in MHz :   529.605830   271.952289   193.258763

                             ****ORCA TERMINATED NORMALLY****
TOTAL RUN TIME: 0 days 0 hours 0 minutes 21 seconds 293 msec
