                         Program Version 4.2.1 -  RELEASE  -
|  1> ! wB97X-D3 SP def2-SVP
|  2> %pal
|  3> nprocs 24
|  4> end
|  5>
|  6> * xyz 0 1
|  7> S 	 -68.0408 	 -45.4314 	 -88.683
|  8> C 	 -67.1611 	 -43.9272 	 -88.6385
|  9> C 	 -66.0428 	 -44.0308 	 -89.3849
| 10> C 	 -65.8632 	 -45.3501 	 -89.8906
| 11> C 	 -66.8957 	 -46.2329 	 -89.6044
| 12> H 	 -65.0984 	 -45.6624 	 -90.6143
| 13> C 	 -64.9916 	 -42.9263 	 -89.6286
| 14> H 	 -65.2014 	 -42.1197 	 -88.8309
| 15> H 	 -65.1042 	 -42.3235 	 -90.5571
| 16> C 	 -63.5419 	 -43.4371 	 -89.2946
| 17> H 	 -63.4983 	 -43.4471 	 -88.2432
| 18> H 	 -63.3811 	 -44.4133 	 -89.75
| 19> C 	 -62.4703 	 -42.5064 	 -89.7717
| 20> H 	 -62.6583 	 -41.5289 	 -89.4425
| 21> H 	 -61.4889 	 -42.8318 	 -89.2327
| 22> H 	 -62.3243 	 -42.4645 	 -90.8622
| 23> S 	 -68.3212 	 -48.1885 	 -91.0414
| 24> C 	 -67.7243 	 -49.8108 	 -90.992
| 25> C 	 -66.6424 	 -49.9214 	 -90.1464
| 26> C 	 -66.2055 	 -48.6826 	 -89.6044
| 27> C 	 -67.0862 	 -47.6421 	 -89.9313
| 28> H 	 -66.1263 	 -50.914 	 -90.1405
| 29> C 	 -64.8784 	 -48.6175 	 -88.8178
| 30> H 	 -64.8533 	 -49.5218 	 -88.2552
| 31> H 	 -64.8758 	 -47.6833 	 -88.2994
| 32> C 	 -63.6109 	 -48.6593 	 -89.7011
| 33> H 	 -63.4293 	 -47.6523 	 -90.1652
| 34> H 	 -63.6293 	 -49.412 	 -90.5777
| 35> C 	 -62.3807 	 -49.0344 	 -88.8713
| 36> H 	 -61.9826 	 -48.1425 	 -88.3009
| 37> H 	 -61.6007 	 -49.2185 	 -89.5199
| 38> H 	 -62.452 	 -49.9066 	 -88.2223
| 39> H 	 -67.4836 	 -43.0356 	 -88.1019
| 40> H 	 -68.0553 	 -50.648 	 -91.5877
| 41> *
| 42>
| 43>                          ****END OF INPUT****

CARTESIAN COORDINATES (ANGSTROEM)
---------------------------------
  S    -68.040800  -45.431400  -88.683000
  C    -67.161100  -43.927200  -88.638500
  C    -66.042800  -44.030800  -89.384900
  C    -65.863200  -45.350100  -89.890600
  C    -66.895700  -46.232900  -89.604400
  H    -65.098400  -45.662400  -90.614300
  C    -64.991600  -42.926300  -89.628600
  H    -65.201400  -42.119700  -88.830900
  H    -65.104200  -42.323500  -90.557100
  C    -63.541900  -43.437100  -89.294600
  H    -63.498300  -43.447100  -88.243200
  H    -63.381100  -44.413300  -89.750000
  C    -62.470300  -42.506400  -89.771700
  H    -62.658300  -41.528900  -89.442500
  H    -61.488900  -42.831800  -89.232700
  H    -62.324300  -42.464500  -90.862200
  S    -68.321200  -48.188500  -91.041400
  C    -67.724300  -49.810800  -90.992000
  C    -66.642400  -49.921400  -90.146400
  C    -66.205500  -48.682600  -89.604400
  C    -67.086200  -47.642100  -89.931300
  H    -66.126300  -50.914000  -90.140500
  C    -64.878400  -48.617500  -88.817800
  H    -64.853300  -49.521800  -88.255200
  H    -64.875800  -47.683300  -88.299400
  C    -63.610900  -48.659300  -89.701100
  H    -63.429300  -47.652300  -90.165200
  H    -63.629300  -49.412000  -90.577700
  C    -62.380700  -49.034400  -88.871300
  H    -61.982600  -48.142500  -88.300900
  H    -61.600700  -49.218500  -89.519900
  H    -62.452000  -49.906600  -88.222300
  H    -67.483600  -43.035600  -88.101900
  H    -68.055300  -50.648000  -91.587700

 Total Charge           Charge          ....    0
 Multiplicity           Mult            ....    1
 Number of Electrons    NEL             ....  134
 Basis Dimension        Dim             ....  322

ORBITAL ENERGIES
----------------

  NO   OCC          E(Eh)            E(eV)
   0   2.0000     -88.968565     -2420.9577
   1   2.0000     -88.960798     -2420.7464
   2   2.0000     -10.326201      -280.9902
   3   2.0000     -10.323839      -280.9259
   4   2.0000     -10.315338      -280.6946
   5   2.0000     -10.310214      -280.5552
   6   2.0000     -10.304571      -280.4016
   7   2.0000     -10.303162      -280.3633
   8   2.0000     -10.299029      -280.2508
   9   2.0000     -10.296967      -280.1947
  10   2.0000     -10.293215      -280.0926
  11   2.0000     -10.291851      -280.0555
  12   2.0000     -10.289510      -279.9918
  13   2.0000     -10.284151      -279.8460
  14   2.0000     -10.280185      -279.7381
  15   2.0000     -10.274984      -279.5965
  16   2.0000      -8.083411      -219.9608
  17   2.0000      -8.077457      -219.7988
  18   2.0000      -6.041933      -164.4093
  19   2.0000      -6.037847      -164.2982
  20   2.0000      -6.035761      -164.2414
  21   2.0000      -6.034206      -164.1991
  22   2.0000      -6.031528      -164.1262
  23   2.0000      -6.028452      -164.0425
  24   2.0000      -1.014470       -27.6051
  25   2.0000      -0.990401       -26.9502
  26   2.0000      -0.911559       -24.8048
  27   2.0000      -0.907778       -24.7019
  28   2.0000      -0.874329       -23.7917
  29   2.0000      -0.851697       -23.1759
  30   2.0000      -0.844375       -22.9766
  31   2.0000      -0.814026       -22.1508
  32   2.0000      -0.783716       -21.3260
  33   2.0000      -0.772555       -21.0223
  34   2.0000      -0.707786       -19.2598
  35   2.0000      -0.693618       -18.8743
  36   2.0000      -0.688569       -18.7369
  37   2.0000      -0.655160       -17.8278
  38   2.0000      -0.643408       -17.5080
  39   2.0000      -0.620914       -16.8959
  40   2.0000      -0.594313       -16.1721
  41   2.0000      -0.570712       -15.5299
  42   2.0000      -0.568640       -15.4735
  43   2.0000      -0.566754       -15.4222
  44   2.0000      -0.525347       -14.2954
  45   2.0000      -0.519696       -14.1416
  46   2.0000      -0.519164       -14.1272
  47   2.0000      -0.511032       -13.9059
  48   2.0000      -0.504961       -13.7407
  49   2.0000      -0.503144       -13.6913
  50   2.0000      -0.495438       -13.4816
  51   2.0000      -0.478520       -13.0212
  52   2.0000      -0.470582       -12.8052
  53   2.0000      -0.463828       -12.6214
  54   2.0000      -0.461642       -12.5619
  55   2.0000      -0.450280       -12.2528
  56   2.0000      -0.445129       -12.1126
  57   2.0000      -0.436866       -11.8877
  58   2.0000      -0.432481       -11.7684
  59   2.0000      -0.423593       -11.5265
  60   2.0000      -0.420060       -11.4304
  61   2.0000      -0.413979       -11.2649
  62   2.0000      -0.411009       -11.1841
  63   2.0000      -0.342312        -9.3148
  64   2.0000      -0.333707        -9.0806
  65   2.0000      -0.326008        -8.8711
  66   2.0000      -0.301133        -8.1943
  67   0.0000       0.042257         1.1499
  68   0.0000       0.066215         1.8018
  69   0.0000       0.119871         3.2619
  70   0.0000       0.124545         3.3890
  71   0.0000       0.128258         3.4901

MULLIKEN ATOMIC CHARGES
-----------------------
   0 S :    0.113947
   1 C :   -0.132932
   2 C :   -0.056030
   3 C :    0.006191
   4 C :   -0.181994
   5 H :    0.023243
   6 C :    0.010018
   7 H :    0.021472
   8 H :    0.052663
   9 C :   -0.065105
  10 H :    0.028832
  11 H :    0.036753
  12 C :   -0.051596
  13 H :    0.013478
  14 H :    0.040420
  15 H :    0.039952
  16 S :    0.128307
  17 C :   -0.098334
  18 C :   -0.054287
  19 C :   -0.033488
  20 C :   -0.159975
  21 H :    0.033710
  22 C :    0.142406
  23 H :    0.016478
  24 H :    0.033919
  25 C :   -0.135882
  26 H :    0.032853
  27 H :    0.042240
  28 C :   -0.030604
  29 H :    0.033985
  30 H :    0.009734
  31 H :    0.035662
  32 H :    0.048420
  33 H :    0.055541
Sum of atomic charges:   -0.0000000

LOEWDIN ATOMIC CHARGES
----------------------
   0 S :    0.444368
   1 C :   -0.200783
   2 C :   -0.071257
   3 C :   -0.076565
   4 C :   -0.217490
   5 H :    0.031347
   6 C :   -0.037725
   7 H :    0.033733
   8 H :    0.032974
   9 C :   -0.035991
  10 H :    0.023706
  11 H :    0.021538
  12 C :   -0.065909
  13 H :    0.013517
  14 H :    0.037810
  15 H :    0.026077
  16 S :    0.421046
  17 C :   -0.191826
  18 C :   -0.082074
  19 C :   -0.045398
  20 C :   -0.218837
  21 H :    0.039024
  22 C :   -0.019193
  23 H :    0.028624
  24 H :    0.031677
  25 C :   -0.044764
  26 H :    0.026128
  27 H :    0.029502
  28 C :   -0.069205
  29 H :    0.032414
  30 H :    0.015351
  31 H :    0.024639
  32 H :    0.031914
  33 H :    0.031628

  Mayer bond orders larger than 0.100000
B(  0-S ,  1-C ) :   1.1464 B(  0-S ,  4-C ) :   1.1967 B(  1-C ,  2-C ) :   1.6148
B(  1-C , 32-H ) :   0.9700 B(  2-C ,  3-C ) :   1.2525 B(  2-C ,  6-C ) :   1.0058
B(  3-C ,  4-C ) :   1.5640 B(  3-C ,  5-H ) :   0.9913 B(  4-C , 20-C ) :   0.9999
B(  6-C ,  7-H ) :   0.9467 B(  6-C ,  8-H ) :   0.9500 B(  6-C ,  9-C ) :   1.0434
B(  9-C , 10-H ) :   0.9563 B(  9-C , 11-H ) :   0.9601 B(  9-C , 12-C ) :   1.0934
B( 12-C , 13-H ) :   0.9696 B( 12-C , 14-H ) :   0.9720 B( 12-C , 15-H ) :   0.9765
B( 16-S , 17-C ) :   1.1641 B( 16-S , 20-C ) :   1.1471 B( 17-C , 18-C ) :   1.6161
B( 17-C , 33-H ) :   0.9655 B( 18-C , 19-C ) :   1.2473 B( 18-C , 21-H ) :   0.9799
B( 19-C , 20-C ) :   1.5839 B( 19-C , 22-C ) :   1.0483 B( 22-C , 23-H ) :   0.9352
B( 22-C , 24-H ) :   0.9245 B( 22-C , 25-C ) :   1.0621 B( 25-C , 26-H ) :   0.9491
B( 25-C , 27-H ) :   0.9624 B( 25-C , 28-C ) :   1.0834 B( 28-C , 29-H ) :   0.9721
B( 28-C , 30-H ) :   0.9705 B( 28-C , 31-H ) :   0.9750

Dispersion correction           -0.014161510
FINAL SINGLE POINT ENERGY     -1339.875466851179

DIPOLE MOMENT
-------------
                                X             Y             Z
Electronic contribution:    -32.18204      -6.45622      -2.95171
Nuclear contribution   :     32.91296       6.46229       2.87102
                        -----------------------------------------
Total Dipole Moment    :      0.73092       0.00607      -0.08068
                        -----------------------------------------
Magnitude (a.u.)       :      0.73538
Magnitude (Debye)      :      1.86919

Rotational constants in cm-1:     0.016606     0.009538     0.006704
Rotational constants in MHz :   497.825146   285.929864   200.980641

                             ****ORCA TERMINATED NORMALLY****
TOTAL RUN TIME: 0 days 0 hours 0 minutes 21 seconds 849 msec
