                         Program Version 4.2.1 -  RELEASE  -
|  1> ! wB97X-D3 SP def2-SVP
|  2> %pal
|  3> nprocs 24
|  4> end
|  5>
|  6> * xyz 0 1
|  7> S 	 35.0401 	 -26.9966 	 -118.112
|  8> C 	 36.4732 	 -26.1792 	 -117.595
|  9> C 	 37.3113 	 -25.9672 	 -118.646
| 10> C 	 36.8158 	 -26.5046 	 -119.89
| 11> C 	 35.6458 	 -27.2082 	 -119.785
| 12> H 	 37.2611 	 -26.4264 	 -120.931
| 13> C 	 38.5011 	 -25.0517 	 -118.553
| 14> H 	 38.6913 	 -25.1279 	 -117.516
| 15> H 	 38.3506 	 -23.9859 	 -118.777
| 16> C 	 39.7487 	 -25.4462 	 -119.402
| 17> H 	 39.4321 	 -25.7055 	 -120.432
| 18> H 	 40.3624 	 -24.5813 	 -119.52
| 19> C 	 40.5324 	 -26.6461 	 -118.92
| 20> H 	 41.0729 	 -26.4049 	 -117.973
| 21> H 	 39.7434 	 -27.3655 	 -118.708
| 22> H 	 41.2124 	 -27.0249 	 -119.66
| 23> S 	 34.9083 	 -27.2772 	 -122.468
| 24> C 	 33.6842 	 -28.4347 	 -122.998
| 25> C 	 33.3549 	 -29.2843 	 -121.929
| 26> C 	 33.9412 	 -28.9641 	 -120.689
| 27> C 	 34.8677 	 -27.9254 	 -120.803
| 28> H 	 32.5005 	 -29.9763 	 -122.148
| 29> C 	 33.5883 	 -29.8267 	 -119.529
| 30> H 	 32.5405 	 -30.1272 	 -119.593
| 31> H 	 33.5649 	 -29.1517 	 -118.633
| 32> C 	 34.424 	 -31.1765 	 -119.42
| 33> H 	 35.4831 	 -30.9983 	 -119.385
| 34> H 	 34.2302 	 -31.6261 	 -120.426
| 35> C 	 33.918 	 -32.1801 	 -118.278
| 36> H 	 34.3973 	 -33.1618 	 -118.354
| 37> H 	 32.84 	 -32.3962 	 -118.311
| 38> H 	 33.9933 	 -31.725 	 -117.349
| 39> H 	 36.6833 	 -25.9044 	 -116.584
| 40> H 	 33.1967 	 -28.5874 	 -123.948
| 41> *
| 42>
| 43>                          ****END OF INPUT****

CARTESIAN COORDINATES (ANGSTROEM)
---------------------------------
  S     35.040100  -26.996600  -118.112000
  C     36.473200  -26.179200  -117.595000
  C     37.311300  -25.967200  -118.646000
  C     36.815800  -26.504600  -119.890000
  C     35.645800  -27.208200  -119.785000
  H     37.261100  -26.426400  -120.931000
  C     38.501100  -25.051700  -118.553000
  H     38.691300  -25.127900  -117.516000
  H     38.350600  -23.985900  -118.777000
  C     39.748700  -25.446200  -119.402000
  H     39.432100  -25.705500  -120.432000
  H     40.362400  -24.581300  -119.520000
  C     40.532400  -26.646100  -118.920000
  H     41.072900  -26.404900  -117.973000
  H     39.743400  -27.365500  -118.708000
  H     41.212400  -27.024900  -119.660000
  S     34.908300  -27.277200  -122.468000
  C     33.684200  -28.434700  -122.998000
  C     33.354900  -29.284300  -121.929000
  C     33.941200  -28.964100  -120.689000
  C     34.867700  -27.925400  -120.803000
  H     32.500500  -29.976300  -122.148000
  C     33.588300  -29.826700  -119.529000
  H     32.540500  -30.127200  -119.593000
  H     33.564900  -29.151700  -118.633000
  C     34.424000  -31.176500  -119.420000
  H     35.483100  -30.998300  -119.385000
  H     34.230200  -31.626100  -120.426000
  C     33.918000  -32.180100  -118.278000
  H     34.397300  -33.161800  -118.354000
  H     32.840000  -32.396200  -118.311000
  H     33.993300  -31.725000  -117.349000
  H     36.683300  -25.904400  -116.584000
  H     33.196700  -28.587400  -123.948000

 Total Charge           Charge          ....    0
 Multiplicity           Mult            ....    1
 Number of Electrons    NEL             ....  134
 Basis Dimension        Dim             ....  322

ORBITAL ENERGIES
----------------

  NO   OCC          E(Eh)            E(eV)
   0   2.0000     -88.972889     -2421.0754
   1   2.0000     -88.964301     -2420.8417
   2   2.0000     -10.336630      -281.2740
   3   2.0000     -10.335082      -281.2319
   4   2.0000     -10.323029      -280.9039
   5   2.0000     -10.312157      -280.6080
   6   2.0000     -10.305881      -280.4373
   7   2.0000     -10.300472      -280.2901
   8   2.0000     -10.298790      -280.2443
   9   2.0000     -10.297073      -280.1976
  10   2.0000     -10.296257      -280.1754
  11   2.0000     -10.295065      -280.1430
  12   2.0000     -10.288421      -279.9622
  13   2.0000     -10.281400      -279.7711
  14   2.0000     -10.278953      -279.7045
  15   2.0000     -10.272652      -279.5331
  16   2.0000      -8.086260      -220.0383
  17   2.0000      -8.078669      -219.8318
  18   2.0000      -6.044971      -164.4920
  19   2.0000      -6.040894      -164.3811
  20   2.0000      -6.037331      -164.2841
  21   2.0000      -6.036957      -164.2739
  22   2.0000      -6.033258      -164.1733
  23   2.0000      -6.029259      -164.0645
  24   2.0000      -1.005388       -27.3580
  25   2.0000      -0.984781       -26.7973
  26   2.0000      -0.910258       -24.7694
  27   2.0000      -0.900595       -24.5064
  28   2.0000      -0.872250       -23.7351
  29   2.0000      -0.848360       -23.0850
  30   2.0000      -0.841768       -22.9057
  31   2.0000      -0.817474       -22.2446
  32   2.0000      -0.782753       -21.2998
  33   2.0000      -0.770887       -20.9769
  34   2.0000      -0.714597       -19.4452
  35   2.0000      -0.702627       -19.1194
  36   2.0000      -0.687474       -18.7071
  37   2.0000      -0.669112       -18.2075
  38   2.0000      -0.632158       -17.2019
  39   2.0000      -0.618818       -16.8389
  40   2.0000      -0.591048       -16.0832
  41   2.0000      -0.570772       -15.5315
  42   2.0000      -0.553149       -15.0519
  43   2.0000      -0.551776       -15.0146
  44   2.0000      -0.533210       -14.5094
  45   2.0000      -0.525489       -14.2993
  46   2.0000      -0.523140       -14.2354
  47   2.0000      -0.514196       -13.9920
  48   2.0000      -0.511464       -13.9176
  49   2.0000      -0.494763       -13.4632
  50   2.0000      -0.492458       -13.4005
  51   2.0000      -0.478721       -13.0267
  52   2.0000      -0.468113       -12.7380
  53   2.0000      -0.461795       -12.5661
  54   2.0000      -0.454338       -12.3632
  55   2.0000      -0.446827       -12.1588
  56   2.0000      -0.442494       -12.0409
  57   2.0000      -0.437639       -11.9088
  58   2.0000      -0.434315       -11.8183
  59   2.0000      -0.424701       -11.5567
  60   2.0000      -0.421896       -11.4804
  61   2.0000      -0.413981       -11.2650
  62   2.0000      -0.406145       -11.0518
  63   2.0000      -0.358328        -9.7506
  64   2.0000      -0.335461        -9.1284
  65   2.0000      -0.327435        -8.9100
  66   2.0000      -0.287605        -7.8261
  67   0.0000       0.018588         0.5058
  68   0.0000       0.077018         2.0958
  69   0.0000       0.101822         2.7707
  70   0.0000       0.115783         3.1506
  71   0.0000       0.125478         3.4144

MULLIKEN ATOMIC CHARGES
-----------------------
   0 S :    0.086162
   1 C :   -0.103671
   2 C :   -0.089329
   3 C :   -0.027319
   4 C :   -0.114032
   5 H :    0.041801
   6 C :    0.083373
   7 H :   -0.001327
   8 H :    0.050480
   9 C :   -0.091122
  10 H :    0.023690
  11 H :    0.016860
  12 C :   -0.043930
  13 H :    0.033698
  14 H :    0.033567
  15 H :    0.037708
  16 S :    0.102079
  17 C :   -0.086449
  18 C :   -0.070593
  19 C :   -0.049894
  20 C :   -0.129858
  21 H :    0.039844
  22 C :    0.048038
  23 H :    0.016840
  24 H :    0.028409
  25 C :   -0.064601
  26 H :    0.040719
  27 H :    0.028472
  28 C :   -0.032101
  29 H :    0.046640
  30 H :    0.020608
  31 H :    0.025067
  32 H :    0.044178
  33 H :    0.055994
Sum of atomic charges:   -0.0000000

LOEWDIN ATOMIC CHARGES
----------------------
   0 S :    0.400142
   1 C :   -0.192030
   2 C :   -0.070932
   3 C :   -0.079793
   4 C :   -0.172450
   5 H :    0.039230
   6 C :   -0.029180
   7 H :    0.023191
   8 H :    0.039306
   9 C :   -0.043793
  10 H :    0.023590
  11 H :    0.015765
  12 C :   -0.065076
  13 H :    0.026842
  14 H :    0.027864
  15 H :    0.024242
  16 S :    0.395394
  17 C :   -0.183785
  18 C :   -0.076295
  19 C :   -0.062192
  20 C :   -0.184086
  21 H :    0.040313
  22 C :   -0.041641
  23 H :    0.030729
  24 H :    0.019941
  25 C :   -0.028108
  26 H :    0.023366
  27 H :    0.027434
  28 C :   -0.064658
  29 H :    0.031559
  30 H :    0.026789
  31 H :    0.017079
  32 H :    0.027764
  33 H :    0.033480

  Mayer bond orders larger than 0.100000
B(  0-S ,  1-C ) :   1.1343 B(  0-S ,  4-C ) :   1.1250 B(  1-C ,  2-C ) :   1.6287
B(  1-C , 32-H ) :   0.9681 B(  2-C ,  3-C ) :   1.2094 B(  2-C ,  6-C ) :   1.0194
B(  3-C ,  4-C ) :   1.6068 B(  3-C ,  5-H ) :   0.9771 B(  4-C , 20-C ) :   1.0781
B(  6-C ,  7-H ) :   0.9377 B(  6-C ,  8-H ) :   0.9423 B(  6-C ,  9-C ) :   1.0684
B(  9-C , 10-H ) :   0.9553 B(  9-C , 11-H ) :   0.9566 B(  9-C , 12-C ) :   1.0776
B( 12-C , 13-H ) :   0.9737 B( 12-C , 14-H ) :   0.9765 B( 12-C , 15-H ) :   0.9743
B( 16-S , 17-C ) :   1.1468 B( 16-S , 20-C ) :   1.1291 B( 17-C , 18-C ) :   1.6207
B( 17-C , 20-C ) :   0.1031 B( 17-C , 33-H ) :   0.9655 B( 18-C , 19-C ) :   1.2523
B( 18-C , 21-H ) :   0.9753 B( 19-C , 20-C ) :   1.5555 B( 19-C , 22-C ) :   1.0616
B( 22-C , 23-H ) :   0.9289 B( 22-C , 24-H ) :   0.9246 B( 22-C , 25-C ) :   1.0391
B( 25-C , 26-H ) :   0.9631 B( 25-C , 27-H ) :   0.9575 B( 25-C , 28-C ) :   1.0653
B( 28-C , 29-H ) :   0.9769 B( 28-C , 30-H ) :   0.9744 B( 28-C , 31-H ) :   0.9787

Dispersion correction           -0.013817806
FINAL SINGLE POINT ENERGY     -1339.872821172406

DIPOLE MOMENT
-------------
                                X             Y             Z
Electronic contribution:    -12.03257      10.05581      -8.60576
Nuclear contribution   :     12.02004     -10.20534       8.61975
                        -----------------------------------------
Total Dipole Moment    :     -0.01253      -0.14953       0.01399
                        -----------------------------------------
Magnitude (a.u.)       :      0.15071
Magnitude (Debye)      :      0.38307

Rotational constants in cm-1:     0.018421     0.008164     0.006793
Rotational constants in MHz :   552.248062   244.754663   203.646495

                             ****ORCA TERMINATED NORMALLY****
TOTAL RUN TIME: 0 days 0 hours 0 minutes 21 seconds 69 msec
