                         Program Version 4.2.1 -  RELEASE  -
|  1> ! wB97X-D3 SP def2-SVP
|  2> %pal
|  3> nprocs 24
|  4> end
|  5>
|  6> * xyz 0 1
|  7> S 	 -34.9431 	 -6.12983 	 5.57541
|  8> C 	 -35.8042 	 -5.17133 	 6.7998
|  9> C 	 -36.7128 	 -4.33338 	 6.13386
| 10> C 	 -36.908 	 -4.75884 	 4.77901
| 11> C 	 -36.012 	 -5.72788 	 4.30866
| 12> H 	 -37.6582 	 -4.38226 	 4.15488
| 13> C 	 -37.4412 	 -3.16936 	 6.67062
| 14> H 	 -37.1018 	 -2.96527 	 7.59486
| 15> H 	 -38.4573 	 -3.25962 	 6.85706
| 16> C 	 -37.1025 	 -1.80551 	 6.01405
| 17> H 	 -37.2626 	 -1.90775 	 4.91081
| 18> H 	 -37.8746 	 -1.05531 	 6.35213
| 19> C 	 -35.6626 	 -1.26076 	 6.18526
| 20> H 	 -35.6618 	 -0.25798 	 5.77508
| 21> H 	 -35.3863 	 -1.13977 	 7.26638
| 22> H 	 -34.869 	 -1.83141 	 5.69627
| 23> S 	 -36.0601 	 -7.92776 	 2.79031
| 24> C 	 -36.1486 	 -7.79748 	 1.01903
| 25> C 	 -35.8191 	 -6.51268 	 0.68735
| 26> C 	 -35.8358 	 -5.59227 	 1.7413
| 27> C 	 -35.9149 	 -6.20304 	 2.95495
| 28> H 	 -35.6377 	 -6.34158 	 -0.411046
| 29> C 	 -35.5927 	 -4.09883 	 1.53771
| 30> H 	 -34.6505 	 -4.00967 	 1.03758
| 31> H 	 -35.3141 	 -3.57788 	 2.44859
| 32> C 	 -36.7375 	 -3.28636 	 0.799761
| 33> H 	 -37.5741 	 -3.15294 	 1.5214
| 34> H 	 -37.0304 	 -3.83697 	 -0.108655
| 35> C 	 -36.1693 	 -1.9097 	 0.372849
| 36> H 	 -35.3018 	 -1.97818 	 -0.289225
| 37> H 	 -35.7821 	 -1.36786 	 1.24127
| 38> H 	 -36.9269 	 -1.24902 	 -0.126746
| 39> H 	 -35.5891 	 -5.10316 	 7.80804
| 40> H 	 -36.1042 	 -8.57891 	 0.272902
| 41> *
| 42>
| 43>                          ****END OF INPUT****

CARTESIAN COORDINATES (ANGSTROEM)
---------------------------------
  S    -34.943100   -6.129830    5.575410
  C    -35.804200   -5.171330    6.799800
  C    -36.712800   -4.333380    6.133860
  C    -36.908000   -4.758840    4.779010
  C    -36.012000   -5.727880    4.308660
  H    -37.658200   -4.382260    4.154880
  C    -37.441200   -3.169360    6.670620
  H    -37.101800   -2.965270    7.594860
  H    -38.457300   -3.259620    6.857060
  C    -37.102500   -1.805510    6.014050
  H    -37.262600   -1.907750    4.910810
  H    -37.874600   -1.055310    6.352130
  C    -35.662600   -1.260760    6.185260
  H    -35.661800   -0.257980    5.775080
  H    -35.386300   -1.139770    7.266380
  H    -34.869000   -1.831410    5.696270
  S    -36.060100   -7.927760    2.790310
  C    -36.148600   -7.797480    1.019030
  C    -35.819100   -6.512680    0.687350
  C    -35.835800   -5.592270    1.741300
  C    -35.914900   -6.203040    2.954950
  H    -35.637700   -6.341580   -0.411046
  C    -35.592700   -4.098830    1.537710
  H    -34.650500   -4.009670    1.037580
  H    -35.314100   -3.577880    2.448590
  C    -36.737500   -3.286360    0.799761
  H    -37.574100   -3.152940    1.521400
  H    -37.030400   -3.836970   -0.108655
  C    -36.169300   -1.909700    0.372849
  H    -35.301800   -1.978180   -0.289225
  H    -35.782100   -1.367860    1.241270
  H    -36.926900   -1.249020   -0.126746
  H    -35.589100   -5.103160    7.808040
  H    -36.104200   -8.578910    0.272902

 Total Charge           Charge          ....    0
 Multiplicity           Mult            ....    1
 Number of Electrons    NEL             ....  134
 Basis Dimension        Dim             ....  322

ORBITAL ENERGIES
----------------

  NO   OCC          E(Eh)            E(eV)
   0   2.0000     -88.966576     -2420.9036
   1   2.0000     -88.962543     -2420.7939
   2   2.0000     -10.326368      -280.9947
   3   2.0000     -10.323678      -280.9215
   4   2.0000     -10.317094      -280.7424
   5   2.0000     -10.314473      -280.6711
   6   2.0000     -10.302324      -280.3405
   7   2.0000     -10.301894      -280.3288
   8   2.0000     -10.297178      -280.2004
   9   2.0000     -10.296923      -280.1935
  10   2.0000     -10.295177      -280.1460
  11   2.0000     -10.290784      -280.0265
  12   2.0000     -10.287680      -279.9420
  13   2.0000     -10.283672      -279.8329
  14   2.0000     -10.282252      -279.7943
  15   2.0000     -10.275752      -279.6174
  16   2.0000      -8.081435      -219.9070
  17   2.0000      -8.077350      -219.7959
  18   2.0000      -6.040032      -164.3576
  19   2.0000      -6.035929      -164.2460
  20   2.0000      -6.035780      -164.2419
  21   2.0000      -6.032222      -164.1451
  22   2.0000      -6.031868      -164.1355
  23   2.0000      -6.027973      -164.0295
  24   2.0000      -1.012413       -27.5492
  25   2.0000      -0.987080       -26.8598
  26   2.0000      -0.916886       -24.9497
  27   2.0000      -0.901842       -24.5404
  28   2.0000      -0.872108       -23.7313
  29   2.0000      -0.849439       -23.1144
  30   2.0000      -0.842748       -22.9323
  31   2.0000      -0.816030       -22.2053
  32   2.0000      -0.788876       -21.4664
  33   2.0000      -0.772723       -21.0269
  34   2.0000      -0.711780       -19.3685
  35   2.0000      -0.700284       -19.0557
  36   2.0000      -0.695977       -18.9385
  37   2.0000      -0.659509       -17.9461
  38   2.0000      -0.647284       -17.6135
  39   2.0000      -0.625400       -17.0180
  40   2.0000      -0.597364       -16.2551
  41   2.0000      -0.574201       -15.6248
  42   2.0000      -0.559312       -15.2197
  43   2.0000      -0.554538       -15.0897
  44   2.0000      -0.537414       -14.6238
  45   2.0000      -0.525896       -14.3103
  46   2.0000      -0.519762       -14.1434
  47   2.0000      -0.512259       -13.9393
  48   2.0000      -0.507565       -13.8116
  49   2.0000      -0.503394       -13.6980
  50   2.0000      -0.493511       -13.4291
  51   2.0000      -0.476531       -12.9671
  52   2.0000      -0.469308       -12.7705
  53   2.0000      -0.462105       -12.5745
  54   2.0000      -0.459431       -12.5017
  55   2.0000      -0.446853       -12.1595
  56   2.0000      -0.443016       -12.0551
  57   2.0000      -0.441408       -12.0113
  58   2.0000      -0.434381       -11.8201
  59   2.0000      -0.428402       -11.6574
  60   2.0000      -0.419628       -11.4187
  61   2.0000      -0.415137       -11.2965
  62   2.0000      -0.409566       -11.1449
  63   2.0000      -0.343714        -9.3529
  64   2.0000      -0.330424        -8.9913
  65   2.0000      -0.326021        -8.8715
  66   2.0000      -0.298068        -8.1108
  67   0.0000       0.030631         0.8335
  68   0.0000       0.067575         1.8388
  69   0.0000       0.109861         2.9895
  70   0.0000       0.113600         3.0912
  71   0.0000       0.125211         3.4072

MULLIKEN ATOMIC CHARGES
-----------------------
   0 S :    0.114337
   1 C :   -0.083290
   2 C :   -0.110945
   3 C :    0.042355
   4 C :   -0.133742
   5 H :   -0.012842
   6 C :    0.183356
   7 H :   -0.037449
   8 H :    0.019185
   9 C :   -0.138927
  10 H :    0.028291
  11 H :    0.039307
  12 C :   -0.057986
  13 H :    0.034206
  14 H :    0.031406
  15 H :    0.050869
  16 S :    0.098845
  17 C :   -0.084029
  18 C :   -0.073752
  19 C :    0.021168
  20 C :   -0.166316
  21 H :    0.039144
  22 C :    0.033997
  23 H :    0.018445
  24 H :    0.018443
  25 C :   -0.066179
  26 H :    0.044720
  27 H :    0.039608
  28 C :   -0.070894
  29 H :    0.029969
  30 H :    0.026384
  31 H :    0.045611
  32 H :    0.021058
  33 H :    0.055647
Sum of atomic charges:   -0.0000000

LOEWDIN ATOMIC CHARGES
----------------------
   0 S :    0.419301
   1 C :   -0.180553
   2 C :   -0.052310
   3 C :   -0.056367
   4 C :   -0.213672
   5 H :    0.018720
   6 C :   -0.032235
   7 H :    0.016072
   8 H :    0.028017
   9 C :   -0.038848
  10 H :    0.020595
  11 H :    0.031141
  12 C :   -0.069818
  13 H :    0.028367
  14 H :    0.026521
  15 H :    0.029005
  16 S :    0.401194
  17 C :   -0.179028
  18 C :   -0.074784
  19 C :   -0.060228
  20 C :   -0.196272
  21 H :    0.041257
  22 C :   -0.032767
  23 H :    0.028920
  24 H :    0.028439
  25 C :   -0.034332
  26 H :    0.028553
  27 H :    0.025293
  28 C :   -0.074112
  29 H :    0.023890
  30 H :    0.023822
  31 H :    0.030580
  32 H :    0.014243
  33 H :    0.031395

  Mayer bond orders larger than 0.100000
B(  0-S ,  1-C ) :   1.1381 B(  0-S ,  4-C ) :   1.1707 B(  1-C ,  2-C ) :   1.5735
B(  1-C ,  4-C ) :   0.1027 B(  1-C , 32-H ) :   0.9797 B(  2-C ,  3-C ) :   1.2512
B(  2-C ,  6-C ) :   1.0443 B(  3-C ,  4-C ) :   1.5357 B(  3-C ,  5-H ) :   1.0087
B(  4-C , 20-C ) :   1.0225 B(  6-C ,  7-H ) :   0.9120 B(  6-C ,  8-H ) :   0.9300
B(  6-C ,  9-C ) :   1.0578 B(  9-C , 10-H ) :   0.9581 B(  9-C , 11-H ) :   0.9556
B(  9-C , 12-C ) :   1.0744 B( 12-C , 13-H ) :   0.9724 B( 12-C , 14-H ) :   0.9736
B( 12-C , 15-H ) :   0.9752 B( 16-S , 17-C ) :   1.1407 B( 16-S , 20-C ) :   1.1436
B( 17-C , 18-C ) :   1.6395 B( 17-C , 20-C ) :   0.1066 B( 17-C , 33-H ) :   0.9639
B( 18-C , 19-C ) :   1.2226 B( 18-C , 21-H ) :   0.9770 B( 19-C , 20-C ) :   1.6134
B( 19-C , 22-C ) :   1.0316 B( 22-C , 23-H ) :   0.9424 B( 22-C , 24-H ) :   0.9359
B( 22-C , 25-C ) :   1.0458 B( 25-C , 26-H ) :   0.9549 B( 25-C , 27-H ) :   0.9615
B( 25-C , 28-C ) :   1.0755 B( 28-C , 29-H ) :   0.9764 B( 28-C , 30-H ) :   0.9735
B( 28-C , 31-H ) :   0.9746

Dispersion correction           -0.014732538
FINAL SINGLE POINT ENERGY     -1339.863837873132

DIPOLE MOMENT
-------------
                                X             Y             Z
Electronic contribution:      4.36894     -30.98125       4.44173
Nuclear contribution   :     -4.44126      31.70021      -4.66175
                        -----------------------------------------
Total Dipole Moment    :     -0.07232       0.71896      -0.22002
                        -----------------------------------------
Magnitude (a.u.)       :      0.75534
Magnitude (Debye)      :      1.91993

Rotational constants in cm-1:     0.016579     0.010451     0.006987
Rotational constants in MHz :   497.015289   313.299494   209.477303

                             ****ORCA TERMINATED NORMALLY****
TOTAL RUN TIME: 0 days 0 hours 0 minutes 22 seconds 224 msec
