                         Program Version 4.2.1 -  RELEASE  -
|  1> ! wB97X-D3 SP def2-SVP
|  2> %pal
|  3> nprocs 24
|  4> end
|  5>
|  6> * xyz 0 1
|  7> S 	 1.81546 	 -16.784 	 -103.286
|  8> C 	 2.32433 	 -16.9701 	 -104.938
|  9> C 	 1.48173 	 -16.3277 	 -105.799
| 10> C 	 0.339502 	 -15.7979 	 -105.222
| 11> C 	 0.414585 	 -15.7986 	 -103.844
| 12> H 	 -0.479033 	 -15.2181 	 -105.674
| 13> C 	 1.66427 	 -16.4112 	 -107.32
| 14> H 	 2.59485 	 -15.8952 	 -107.567
| 15> H 	 0.756054 	 -15.8925 	 -107.648
| 16> C 	 1.60998 	 -17.861 	 -108.003
| 17> H 	 2.15493 	 -18.4707 	 -107.263
| 18> H 	 0.602863 	 -18.1986 	 -108.073
| 19> C 	 2.16321 	 -17.7585 	 -109.43
| 20> H 	 2.17145 	 -18.7605 	 -109.922
| 21> H 	 1.65678 	 -17.0785 	 -110.034
| 22> H 	 3.18444 	 -17.4561 	 -109.357
| 23> S 	 -1.43729 	 -16.6719 	 -102.002
| 24> C 	 -2.18911 	 -15.5299 	 -100.942
| 25> C 	 -1.84813 	 -14.211 	 -101.218
| 26> C 	 -0.899227 	 -14.1518 	 -102.292
| 27> C 	 -0.685677 	 -15.4102 	 -102.953
| 28> H 	 -2.15373 	 -13.3585 	 -100.636
| 29> C 	 -0.188412 	 -12.8403 	 -102.504
| 30> H 	 0.156961 	 -13.008 	 -103.531
| 31> H 	 0.779752 	 -12.834 	 -102.031
| 32> C 	 -0.98184 	 -11.4895 	 -102.337
| 33> H 	 -1.6459 	 -11.4134 	 -101.498
| 34> H 	 -1.63795 	 -11.4848 	 -103.278
| 35> C 	 -0.0608025 	 -10.2833 	 -102.642
| 36> H 	 -0.658223 	 -9.37935 	 -102.682
| 37> H 	 0.477117 	 -10.2629 	 -103.639
| 38> H 	 0.698456 	 -10.1612 	 -101.848
| 39> H 	 3.20734 	 -17.4057 	 -105.21
| 40> H 	 -2.66091 	 -15.7424 	 -100.003
| 41> *
| 42>
| 43>                          ****END OF INPUT****

CARTESIAN COORDINATES (ANGSTROEM)
---------------------------------
  S      1.815460  -16.784000  -103.286000
  C      2.324330  -16.970100  -104.938000
  C      1.481730  -16.327700  -105.799000
  C      0.339502  -15.797900  -105.222000
  C      0.414585  -15.798600  -103.844000
  H     -0.479033  -15.218100  -105.674000
  C      1.664270  -16.411200  -107.320000
  H      2.594850  -15.895200  -107.567000
  H      0.756054  -15.892500  -107.648000
  C      1.609980  -17.861000  -108.003000
  H      2.154930  -18.470700  -107.263000
  H      0.602863  -18.198600  -108.073000
  C      2.163210  -17.758500  -109.430000
  H      2.171450  -18.760500  -109.922000
  H      1.656780  -17.078500  -110.034000
  H      3.184440  -17.456100  -109.357000
  S     -1.437290  -16.671900  -102.002000
  C     -2.189110  -15.529900  -100.942000
  C     -1.848130  -14.211000  -101.218000
  C     -0.899227  -14.151800  -102.292000
  C     -0.685677  -15.410200  -102.953000
  H     -2.153730  -13.358500  -100.636000
  C     -0.188412  -12.840300  -102.504000
  H      0.156961  -13.008000  -103.531000
  H      0.779752  -12.834000  -102.031000
  C     -0.981840  -11.489500  -102.337000
  H     -1.645900  -11.413400  -101.498000
  H     -1.637950  -11.484800  -103.278000
  C     -0.060803  -10.283300  -102.642000
  H     -0.658223   -9.379350  -102.682000
  H      0.477117  -10.262900  -103.639000
  H      0.698456  -10.161200  -101.848000
  H      3.207340  -17.405700  -105.210000
  H     -2.660910  -15.742400  -100.003000

 Total Charge           Charge          ....    0
 Multiplicity           Mult            ....    1
 Number of Electrons    NEL             ....  134
 Basis Dimension        Dim             ....  322

ORBITAL ENERGIES
----------------

  NO   OCC          E(Eh)            E(eV)
   0   2.0000     -88.966917     -2420.9129
   1   2.0000     -88.966115     -2420.8911
   2   2.0000     -10.328903      -281.0638
   3   2.0000     -10.324162      -280.9347
   4   2.0000     -10.315912      -280.7102
   5   2.0000     -10.307251      -280.4746
   6   2.0000     -10.304950      -280.4119
   7   2.0000     -10.299712      -280.2694
   8   2.0000     -10.292549      -280.0745
   9   2.0000     -10.291963      -280.0585
  10   2.0000     -10.291315      -280.0409
  11   2.0000     -10.290779      -280.0263
  12   2.0000     -10.288981      -279.9774
  13   2.0000     -10.288245      -279.9574
  14   2.0000     -10.286467      -279.9090
  15   2.0000     -10.274660      -279.5877
  16   2.0000      -8.081644      -219.9127
  17   2.0000      -8.080280      -219.8756
  18   2.0000      -6.040061      -164.3584
  19   2.0000      -6.038648      -164.3200
  20   2.0000      -6.036080      -164.2501
  21   2.0000      -6.034905      -164.2181
  22   2.0000      -6.032561      -164.1543
  23   2.0000      -6.031183      -164.1168
  24   2.0000      -1.003894       -27.3174
  25   2.0000      -0.983419       -26.7602
  26   2.0000      -0.904054       -24.6005
  27   2.0000      -0.902043       -24.5458
  28   2.0000      -0.867527       -23.6066
  29   2.0000      -0.853176       -23.2161
  30   2.0000      -0.848311       -23.0837
  31   2.0000      -0.815440       -22.1893
  32   2.0000      -0.776979       -21.1427
  33   2.0000      -0.763333       -20.7714
  34   2.0000      -0.708610       -19.2823
  35   2.0000      -0.705628       -19.2011
  36   2.0000      -0.698012       -18.9939
  37   2.0000      -0.652258       -17.7489
  38   2.0000      -0.647152       -17.6099
  39   2.0000      -0.614261       -16.7149
  40   2.0000      -0.593912       -16.1612
  41   2.0000      -0.568222       -15.4621
  42   2.0000      -0.560619       -15.2552
  43   2.0000      -0.556520       -15.1437
  44   2.0000      -0.525200       -14.2914
  45   2.0000      -0.520452       -14.1622
  46   2.0000      -0.516910       -14.0658
  47   2.0000      -0.511234       -13.9114
  48   2.0000      -0.506177       -13.7738
  49   2.0000      -0.497280       -13.5317
  50   2.0000      -0.495901       -13.4942
  51   2.0000      -0.478335       -13.0162
  52   2.0000      -0.473884       -12.8950
  53   2.0000      -0.467084       -12.7100
  54   2.0000      -0.463317       -12.6075
  55   2.0000      -0.449906       -12.2426
  56   2.0000      -0.442415       -12.0387
  57   2.0000      -0.435013       -11.8373
  58   2.0000      -0.429919       -11.6987
  59   2.0000      -0.422886       -11.5073
  60   2.0000      -0.418427       -11.3860
  61   2.0000      -0.410609       -11.1732
  62   2.0000      -0.409445       -11.1416
  63   2.0000      -0.341641        -9.2965
  64   2.0000      -0.329075        -8.9546
  65   2.0000      -0.322020        -8.7626
  66   2.0000      -0.296522        -8.0688
  67   0.0000       0.032369         0.8808
  68   0.0000       0.052005         1.4151
  69   0.0000       0.117272         3.1911
  70   0.0000       0.120222         3.2714
  71   0.0000       0.134916         3.6713

MULLIKEN ATOMIC CHARGES
-----------------------
   0 S :    0.111088
   1 C :   -0.094405
   2 C :   -0.065538
   3 C :    0.014714
   4 C :   -0.170756
   5 H :    0.034417
   6 C :    0.031143
   7 H :    0.039288
   8 H :    0.019613
   9 C :   -0.060762
  10 H :    0.029296
  11 H :    0.028456
  12 C :   -0.025089
  13 H :    0.040246
  14 H :    0.025108
  15 H :    0.020125
  16 S :    0.115127
  17 C :   -0.074525
  18 C :   -0.030582
  19 C :   -0.073353
  20 C :   -0.158570
  21 H :    0.015886
  22 C :    0.072956
  23 H :    0.015733
  24 H :    0.034450
  25 C :   -0.094897
  26 H :    0.044172
  27 H :    0.043296
  28 C :   -0.067854
  29 H :    0.031091
  30 H :    0.045569
  31 H :    0.036790
  32 H :    0.015196
  33 H :    0.052571
Sum of atomic charges:   -0.0000000

LOEWDIN ATOMIC CHARGES
----------------------
   0 S :    0.391401
   1 C :   -0.181281
   2 C :   -0.073268
   3 C :   -0.059918
   4 C :   -0.185261
   5 H :    0.042359
   6 C :   -0.031248
   7 H :    0.029942
   8 H :    0.027895
   9 C :   -0.030906
  10 H :    0.022662
  11 H :    0.020406
  12 C :   -0.059133
  13 H :    0.032638
  14 H :    0.017969
  15 H :    0.020904
  16 S :    0.426370
  17 C :   -0.185972
  18 C :   -0.075273
  19 C :   -0.039674
  20 C :   -0.229757
  21 H :    0.028795
  22 C :   -0.043726
  23 H :    0.035769
  24 H :    0.032379
  25 C :   -0.041513
  26 H :    0.019828
  27 H :    0.039307
  28 C :   -0.071329
  29 H :    0.024630
  30 H :    0.035720
  31 H :    0.023091
  32 H :    0.008295
  33 H :    0.027900

  Mayer bond orders larger than 0.100000
B(  0-S ,  1-C ) :   1.1452 B(  0-S ,  4-C ) :   1.1495 B(  1-C ,  2-C ) :   1.5921
B(  1-C , 32-H ) :   0.9788 B(  2-C ,  3-C ) :   1.2634 B(  2-C ,  6-C ) :   1.0117
B(  3-C ,  4-C ) :   1.5775 B(  3-C ,  5-H ) :   0.9829 B(  4-C , 20-C ) :   1.0352
B(  6-C ,  7-H ) :   0.9443 B(  6-C ,  8-H ) :   0.9452 B(  6-C ,  9-C ) :   1.0499
B(  9-C , 10-H ) :   0.9635 B(  9-C , 11-H ) :   0.9589 B(  9-C , 12-C ) :   1.0746
B( 12-C , 13-H ) :   0.9730 B( 12-C , 14-H ) :   0.9751 B( 12-C , 15-H ) :   0.9769
B( 16-S , 17-C ) :   1.1885 B( 16-S , 20-C ) :   1.1378 B( 17-C , 18-C ) :   1.5760
B( 17-C , 33-H ) :   0.9621 B( 18-C , 19-C ) :   1.2852 B( 18-C , 21-H ) :   0.9881
B( 19-C , 20-C ) :   1.5453 B( 19-C , 22-C ) :   1.0376 B( 22-C , 23-H ) :   0.9282
B( 22-C , 24-H ) :   0.9273 B( 22-C , 25-C ) :   1.0390 B( 25-C , 26-H ) :   0.9617
B( 25-C , 27-H ) :   0.9585 B( 25-C , 28-C ) :   1.0749 B( 28-C , 29-H ) :   0.9746
B( 28-C , 30-H ) :   0.9752 B( 28-C , 31-H ) :   0.9768

Dispersion correction           -0.013200802
FINAL SINGLE POINT ENERGY     -1339.848957216090

DIPOLE MOMENT
-------------
                                X             Y             Z
Electronic contribution:     -4.54281     -14.72101      18.51128
Nuclear contribution   :      4.64866      15.17060     -18.71731
                        -----------------------------------------
Total Dipole Moment    :      0.10585       0.44958      -0.20603
                        -----------------------------------------
Magnitude (a.u.)       :      0.50574
Magnitude (Debye)      :      1.28550

Rotational constants in cm-1:     0.020144     0.006927     0.005806
Rotational constants in MHz :   603.890268   207.651335   174.053410

                             ****ORCA TERMINATED NORMALLY****
TOTAL RUN TIME: 0 days 0 hours 0 minutes 20 seconds 299 msec
