                         Program Version 4.2.1 -  RELEASE  -
|  1> ! wB97X-D3 SP def2-SVP
|  2> %pal
|  3> nprocs 24
|  4> end
|  5>
|  6> * xyz 0 1
|  7> S 	 -78.6553 	 -0.86316 	 10.6908
|  8> C 	 -80.2745 	 -1.54715 	 10.6141
|  9> C 	 -80.5186 	 -2.3255 	 11.7408
| 10> C 	 -79.5545 	 -2.11747 	 12.777
| 11> C 	 -78.486 	 -1.32489 	 12.338
| 12> H 	 -79.4314 	 -2.58318 	 13.7704
| 13> C 	 -81.6274 	 -3.27445 	 11.9347
| 14> H 	 -82.5049 	 -2.6358 	 12.0076
| 15> H 	 -81.5126 	 -3.85263 	 12.8937
| 16> C 	 -81.8098 	 -4.25198 	 10.798
| 17> H 	 -82.6191 	 -4.97773 	 11.0638
| 18> H 	 -82.2079 	 -3.78314 	 9.93377
| 19> C 	 -80.585 	 -5.21851 	 10.3464
| 20> H 	 -80.9023 	 -5.94694 	 9.5556
| 21> H 	 -79.7279 	 -4.63773 	 9.97512
| 22> H 	 -80.2743 	 -5.6279 	 11.3011
| 23> S 	 -75.916 	 -2.13761 	 12.4929
| 24> C 	 -74.9444 	 -1.47758 	 13.7954
| 25> C 	 -75.6004 	 -0.64163 	 14.6745
| 26> C 	 -76.9589 	 -0.381889 	 14.255
| 27> C 	 -77.25 	 -1.08933 	 13.0788
| 28> H 	 -75.162 	 -0.252262 	 15.5476
| 29> C 	 -77.9327 	 0.522425 	 15.0167
| 30> H 	 -77.9447 	 0.306904 	 16.0971
| 31> H 	 -78.9534 	 0.285119 	 14.6779
| 32> C 	 -77.7955 	 2.06101 	 14.7628
| 33> H 	 -76.8729 	 2.36486 	 15.1864
| 34> H 	 -78.6172 	 2.48879 	 15.3065
| 35> C 	 -77.7228 	 2.53075 	 13.3317
| 36> H 	 -77.5301 	 3.58114 	 13.3022
| 37> H 	 -78.6145 	 2.28139 	 12.7485
| 38> H 	 -76.7337 	 2.34652 	 12.8857
| 39> H 	 -80.795 	 -1.79652 	 9.7535
| 40> H 	 -73.8714 	 -1.61025 	 13.8271
| 41> *
| 42>
| 43>                          ****END OF INPUT****

CARTESIAN COORDINATES (ANGSTROEM)
---------------------------------
  S    -78.655300   -0.863160   10.690800
  C    -80.274500   -1.547150   10.614100
  C    -80.518600   -2.325500   11.740800
  C    -79.554500   -2.117470   12.777000
  C    -78.486000   -1.324890   12.338000
  H    -79.431400   -2.583180   13.770400
  C    -81.627400   -3.274450   11.934700
  H    -82.504900   -2.635800   12.007600
  H    -81.512600   -3.852630   12.893700
  C    -81.809800   -4.251980   10.798000
  H    -82.619100   -4.977730   11.063800
  H    -82.207900   -3.783140    9.933770
  C    -80.585000   -5.218510   10.346400
  H    -80.902300   -5.946940    9.555600
  H    -79.727900   -4.637730    9.975120
  H    -80.274300   -5.627900   11.301100
  S    -75.916000   -2.137610   12.492900
  C    -74.944400   -1.477580   13.795400
  C    -75.600400   -0.641630   14.674500
  C    -76.958900   -0.381889   14.255000
  C    -77.250000   -1.089330   13.078800
  H    -75.162000   -0.252262   15.547600
  C    -77.932700    0.522425   15.016700
  H    -77.944700    0.306904   16.097100
  H    -78.953400    0.285119   14.677900
  C    -77.795500    2.061010   14.762800
  H    -76.872900    2.364860   15.186400
  H    -78.617200    2.488790   15.306500
  C    -77.722800    2.530750   13.331700
  H    -77.530100    3.581140   13.302200
  H    -78.614500    2.281390   12.748500
  H    -76.733700    2.346520   12.885700
  H    -80.795000   -1.796520    9.753500
  H    -73.871400   -1.610250   13.827100

 Total Charge           Charge          ....    0
 Multiplicity           Mult            ....    1
 Number of Electrons    NEL             ....  134
 Basis Dimension        Dim             ....  322

ORBITAL ENERGIES
----------------

  NO   OCC          E(Eh)            E(eV)
   0   2.0000     -88.967090     -2420.9176
   1   2.0000     -88.966397     -2420.8987
   2   2.0000     -10.327168      -281.0165
   3   2.0000     -10.324780      -280.9516
   4   2.0000     -10.316534      -280.7272
   5   2.0000     -10.308666      -280.5131
   6   2.0000     -10.304521      -280.4003
   7   2.0000     -10.299313      -280.2586
   8   2.0000     -10.294383      -280.1244
   9   2.0000     -10.293215      -280.0926
  10   2.0000     -10.292744      -280.0798
  11   2.0000     -10.292658      -280.0775
  12   2.0000     -10.288657      -279.9686
  13   2.0000     -10.284707      -279.8611
  14   2.0000     -10.279917      -279.7308
  15   2.0000     -10.269301      -279.4419
  16   2.0000      -8.081782      -219.9165
  17   2.0000      -8.080607      -219.8845
  18   2.0000      -6.040203      -164.3623
  19   2.0000      -6.039061      -164.3312
  20   2.0000      -6.036312      -164.2564
  21   2.0000      -6.035393      -164.2314
  22   2.0000      -6.032608      -164.1556
  23   2.0000      -6.031251      -164.1187
  24   2.0000      -1.003606       -27.3095
  25   2.0000      -0.978844       -26.6357
  26   2.0000      -0.913705       -24.8632
  27   2.0000      -0.904079       -24.6012
  28   2.0000      -0.861888       -23.4532
  29   2.0000      -0.849189       -23.1076
  30   2.0000      -0.842533       -22.9265
  31   2.0000      -0.808525       -22.0011
  32   2.0000      -0.785516       -21.3750
  33   2.0000      -0.773851       -21.0576
  34   2.0000      -0.707222       -19.2445
  35   2.0000      -0.701656       -19.0930
  36   2.0000      -0.687022       -18.6948
  37   2.0000      -0.660775       -17.9806
  38   2.0000      -0.637447       -17.3458
  39   2.0000      -0.604006       -16.4358
  40   2.0000      -0.592817       -16.1314
  41   2.0000      -0.574071       -15.6213
  42   2.0000      -0.561988       -15.2925
  43   2.0000      -0.555281       -15.1100
  44   2.0000      -0.537949       -14.6383
  45   2.0000      -0.533167       -14.5082
  46   2.0000      -0.513303       -13.9677
  47   2.0000      -0.508386       -13.8339
  48   2.0000      -0.498847       -13.5743
  49   2.0000      -0.491396       -13.3716
  50   2.0000      -0.482552       -13.1309
  51   2.0000      -0.480991       -13.0884
  52   2.0000      -0.468642       -12.7524
  53   2.0000      -0.462155       -12.5759
  54   2.0000      -0.457001       -12.4356
  55   2.0000      -0.453272       -12.3341
  56   2.0000      -0.444646       -12.0994
  57   2.0000      -0.437737       -11.9114
  58   2.0000      -0.434730       -11.8296
  59   2.0000      -0.416985       -11.3467
  60   2.0000      -0.416688       -11.3387
  61   2.0000      -0.410626       -11.1737
  62   2.0000      -0.407026       -11.0757
  63   2.0000      -0.337102        -9.1730
  64   2.0000      -0.326906        -8.8956
  65   2.0000      -0.323336        -8.7984
  66   2.0000      -0.300002        -8.1635
  67   0.0000       0.034212         0.9310
  68   0.0000       0.058372         1.5884
  69   0.0000       0.106221         2.8904
  70   0.0000       0.115226         3.1355
  71   0.0000       0.129187         3.5154

MULLIKEN ATOMIC CHARGES
-----------------------
   0 S :    0.119089
   1 C :   -0.065310
   2 C :   -0.132812
   3 C :    0.041906
   4 C :   -0.186933
   5 H :    0.025914
   6 C :    0.084758
   7 H :    0.047055
   8 H :    0.033387
   9 C :   -0.118775
  10 H :    0.031017
  11 H :    0.018155
  12 C :   -0.068742
  13 H :    0.055954
  14 H :    0.043807
  15 H :    0.030968
  16 S :    0.108421
  17 C :   -0.081488
  18 C :   -0.019056
  19 C :   -0.016853
  20 C :   -0.189768
  21 H :    0.001742
  22 C :    0.055447
  23 H :    0.034178
  24 H :    0.020836
  25 C :   -0.050671
  26 H :    0.009974
  27 H :    0.029905
  28 C :   -0.033133
  29 H :    0.012298
  30 H :    0.049504
  31 H :    0.028116
  32 H :    0.025489
  33 H :    0.055622
Sum of atomic charges:    0.0000000

LOEWDIN ATOMIC CHARGES
----------------------
   0 S :    0.425587
   1 C :   -0.204868
   2 C :   -0.054901
   3 C :   -0.069188
   4 C :   -0.212431
   5 H :    0.038611
   6 C :   -0.038247
   7 H :    0.044034
   8 H :    0.036794
   9 C :   -0.045981
  10 H :    0.028921
  11 H :    0.011429
  12 C :   -0.068166
  13 H :    0.034911
  14 H :    0.025276
  15 H :    0.023335
  16 S :    0.387366
  17 C :   -0.177694
  18 C :   -0.064784
  19 C :   -0.046250
  20 C :   -0.188106
  21 H :    0.024635
  22 C :   -0.034380
  23 H :    0.033622
  24 H :    0.029821
  25 C :   -0.033620
  26 H :    0.016351
  27 H :    0.023032
  28 C :   -0.073712
  29 H :    0.027085
  30 H :    0.028410
  31 H :    0.035053
  32 H :    0.012810
  33 H :    0.025246

  Mayer bond orders larger than 0.100000
B(  0-S ,  1-C ) :   1.1259 B(  0-S ,  4-C ) :   1.1832 B(  1-C ,  2-C ) :   1.6051
B(  1-C ,  4-C ) :   0.1011 B(  1-C , 32-H ) :   0.9678 B(  2-C ,  3-C ) :   1.2410
B(  2-C ,  6-C ) :   1.0175 B(  3-C ,  4-C ) :   1.5574 B(  3-C ,  5-H ) :   0.9899
B(  4-C , 20-C ) :   1.0088 B(  6-C ,  7-H ) :   0.9271 B(  6-C ,  8-H ) :   0.9465
B(  6-C ,  9-C ) :   1.0816 B(  9-C , 10-H ) :   0.9561 B(  9-C , 11-H ) :   0.9552
B(  9-C , 12-C ) :   1.0570 B( 12-C , 13-H ) :   0.9765 B( 12-C , 14-H ) :   0.9763
B( 12-C , 15-H ) :   0.9782 B( 16-S , 17-C ) :   1.1428 B( 16-S , 20-C ) :   1.1410
B( 17-C , 18-C ) :   1.6337 B( 17-C , 33-H ) :   0.9643 B( 18-C , 19-C ) :   1.2089
B( 18-C , 21-H ) :   0.9978 B( 19-C , 20-C ) :   1.6240 B( 19-C , 22-C ) :   1.0404
B( 22-C , 23-H ) :   0.9412 B( 22-C , 24-H ) :   0.9323 B( 22-C , 25-C ) :   1.0651
B( 25-C , 26-H ) :   0.9541 B( 25-C , 27-H ) :   0.9573 B( 25-C , 28-C ) :   1.1008
B( 28-C , 29-H ) :   0.9606 B( 28-C , 30-H ) :   0.9752 B( 28-C , 31-H ) :   0.9594

Dispersion correction           -0.015249552
FINAL SINGLE POINT ENERGY     -1339.863450671771

DIPOLE MOMENT
-------------
                                X             Y             Z
Electronic contribution:     13.26728      -0.65091      -4.18420
Nuclear contribution   :    -13.45432       0.58124       4.57003
                        -----------------------------------------
Total Dipole Moment    :     -0.18704      -0.06967       0.38583
                        -----------------------------------------
Magnitude (a.u.)       :      0.43440
Magnitude (Debye)      :      1.10416

Rotational constants in cm-1:     0.022486     0.008301     0.007249
Rotational constants in MHz :   674.107262   248.861834   217.308311

                             ****ORCA TERMINATED NORMALLY****
TOTAL RUN TIME: 0 days 0 hours 0 minutes 21 seconds 894 msec
