                         Program Version 4.2.1 -  RELEASE  -
|  1> ! wB97X-D3 SP def2-SVP
|  2> %pal
|  3> nprocs 24
|  4> end
|  5>
|  6> * xyz 0 1
|  7> S 	 33.06 	 -33.3168 	 -130.682
|  8> C 	 33.6672 	 -32.9395 	 -129.11
|  9> C 	 35.0761 	 -33.2796 	 -129.027
| 10> C 	 35.5634 	 -33.831 	 -130.215
| 11> C 	 34.5491 	 -33.9529 	 -131.195
| 12> H 	 36.5967 	 -34.1031 	 -130.295
| 13> C 	 35.8749 	 -33.0213 	 -127.781
| 14> H 	 36.0798 	 -33.9143 	 -127.19
| 15> H 	 35.2611 	 -32.4406 	 -127.121
| 16> C 	 37.2495 	 -32.3245 	 -127.908
| 17> H 	 37.9417 	 -32.369 	 -127.07
| 18> H 	 37.8676 	 -32.9027 	 -128.625
| 19> C 	 37.2089 	 -30.831 	 -128.398
| 20> H 	 38.2405 	 -30.404 	 -128.297
| 21> H 	 36.9095 	 -30.8923 	 -129.521
| 22> H 	 36.4905 	 -30.094 	 -127.952
| 23> S 	 34.3334 	 -33.0411 	 -133.837
| 24> C 	 34.5937 	 -34.2889 	 -135.077
| 25> C 	 35.0165 	 -35.5227 	 -134.589
| 26> C 	 35.1057 	 -35.4822 	 -133.185
| 27> C 	 34.6451 	 -34.3001 	 -132.596
| 28> H 	 35.1572 	 -36.3298 	 -135.31
| 29> C 	 35.3528 	 -36.708 	 -132.383
| 30> H 	 35.8912 	 -36.253 	 -131.459
| 31> H 	 36.1319 	 -37.3573 	 -132.897
| 32> C 	 34.0847 	 -37.462 	 -131.864
| 33> H 	 33.3965 	 -37.7573 	 -132.68
| 34> H 	 33.4496 	 -36.7596 	 -131.263
| 35> C 	 34.512 	 -38.6603 	 -130.967
| 36> H 	 35.3211 	 -39.1906 	 -131.47
| 37> H 	 33.673 	 -39.3274 	 -130.769
| 38> H 	 35.1443 	 -38.4407 	 -129.983
| 39> H 	 33.0884 	 -32.6302 	 -128.255
| 40> H 	 34.4254 	 -34.2148 	 -136.085
| 41> *
| 42>
| 43>                          ****END OF INPUT****

CARTESIAN COORDINATES (ANGSTROEM)
---------------------------------
  S     33.060000  -33.316800  -130.682000
  C     33.667200  -32.939500  -129.110000
  C     35.076100  -33.279600  -129.027000
  C     35.563400  -33.831000  -130.215000
  C     34.549100  -33.952900  -131.195000
  H     36.596700  -34.103100  -130.295000
  C     35.874900  -33.021300  -127.781000
  H     36.079800  -33.914300  -127.190000
  H     35.261100  -32.440600  -127.121000
  C     37.249500  -32.324500  -127.908000
  H     37.941700  -32.369000  -127.070000
  H     37.867600  -32.902700  -128.625000
  C     37.208900  -30.831000  -128.398000
  H     38.240500  -30.404000  -128.297000
  H     36.909500  -30.892300  -129.521000
  H     36.490500  -30.094000  -127.952000
  S     34.333400  -33.041100  -133.837000
  C     34.593700  -34.288900  -135.077000
  C     35.016500  -35.522700  -134.589000
  C     35.105700  -35.482200  -133.185000
  C     34.645100  -34.300100  -132.596000
  H     35.157200  -36.329800  -135.310000
  C     35.352800  -36.708000  -132.383000
  H     35.891200  -36.253000  -131.459000
  H     36.131900  -37.357300  -132.897000
  C     34.084700  -37.462000  -131.864000
  H     33.396500  -37.757300  -132.680000
  H     33.449600  -36.759600  -131.263000
  C     34.512000  -38.660300  -130.967000
  H     35.321100  -39.190600  -131.470000
  H     33.673000  -39.327400  -130.769000
  H     35.144300  -38.440700  -129.983000
  H     33.088400  -32.630200  -128.255000
  H     34.425400  -34.214800  -136.085000

 Total Charge           Charge          ....    0
 Multiplicity           Mult            ....    1
 Number of Electrons    NEL             ....  134
 Basis Dimension        Dim             ....  322

ORBITAL ENERGIES
----------------

  NO   OCC          E(Eh)            E(eV)
   0   2.0000     -88.973934     -2421.1038
   1   2.0000     -88.969282     -2420.9772
   2   2.0000     -10.329575      -281.0820
   3   2.0000     -10.325220      -280.9635
   4   2.0000     -10.317089      -280.7423
   5   2.0000     -10.312493      -280.6172
   6   2.0000     -10.305593      -280.4294
   7   2.0000     -10.298799      -280.2446
   8   2.0000     -10.297526      -280.2099
   9   2.0000     -10.296724      -280.1881
  10   2.0000     -10.294337      -280.1232
  11   2.0000     -10.293740      -280.1069
  12   2.0000     -10.293224      -280.0929
  13   2.0000     -10.292081      -280.0618
  14   2.0000     -10.289143      -279.9818
  15   2.0000     -10.285996      -279.8962
  16   2.0000      -8.089208      -220.1185
  17   2.0000      -8.082605      -219.9389
  18   2.0000      -6.047329      -164.5562
  19   2.0000      -6.043343      -164.4477
  20   2.0000      -6.041167      -164.3885
  21   2.0000      -6.040647      -164.3744
  22   2.0000      -6.037431      -164.2869
  23   2.0000      -6.033264      -164.1735
  24   2.0000      -1.009194       -27.4616
  25   2.0000      -0.980873       -26.6909
  26   2.0000      -0.910008       -24.7626
  27   2.0000      -0.899184       -24.4680
  28   2.0000      -0.864770       -23.5316
  29   2.0000      -0.850210       -23.1354
  30   2.0000      -0.844895       -22.9908
  31   2.0000      -0.812052       -22.0971
  32   2.0000      -0.780098       -21.2275
  33   2.0000      -0.759859       -20.6768
  34   2.0000      -0.711824       -19.3697
  35   2.0000      -0.695272       -18.9193
  36   2.0000      -0.691639       -18.8205
  37   2.0000      -0.659349       -17.9418
  38   2.0000      -0.640255       -17.4222
  39   2.0000      -0.629036       -17.1169
  40   2.0000      -0.587487       -15.9863
  41   2.0000      -0.568184       -15.4611
  42   2.0000      -0.549768       -14.9600
  43   2.0000      -0.547325       -14.8935
  44   2.0000      -0.532408       -14.4876
  45   2.0000      -0.525270       -14.2933
  46   2.0000      -0.516094       -14.0436
  47   2.0000      -0.506171       -13.7736
  48   2.0000      -0.498062       -13.5530
  49   2.0000      -0.495670       -13.4879
  50   2.0000      -0.486762       -13.2455
  51   2.0000      -0.476953       -12.9786
  52   2.0000      -0.467395       -12.7185
  53   2.0000      -0.466215       -12.6863
  54   2.0000      -0.458069       -12.4647
  55   2.0000      -0.452123       -12.3029
  56   2.0000      -0.441006       -12.0004
  57   2.0000      -0.434160       -11.8141
  58   2.0000      -0.429405       -11.6847
  59   2.0000      -0.428286       -11.6543
  60   2.0000      -0.421339       -11.4652
  61   2.0000      -0.405648       -11.0383
  62   2.0000      -0.405154       -11.0248
  63   2.0000      -0.343828        -9.3560
  64   2.0000      -0.333019        -9.0619
  65   2.0000      -0.329327        -8.9614
  66   2.0000      -0.286740        -7.8026
  67   0.0000       0.026536         0.7221
  68   0.0000       0.057429         1.5627
  69   0.0000       0.110907         3.0179
  70   0.0000       0.118792         3.2325
  71   0.0000       0.124099         3.3769

MULLIKEN ATOMIC CHARGES
-----------------------
   0 S :    0.145153
   1 C :   -0.121502
   2 C :   -0.115179
   3 C :    0.071851
   4 C :   -0.206467
   5 H :    0.012314
   6 C :    0.103718
   7 H :    0.038938
   8 H :    0.004395
   9 C :   -0.092471
  10 H :    0.024867
  11 H :    0.021825
  12 C :   -0.114649
  13 H :    0.043886
  14 H :    0.053593
  15 H :    0.047276
  16 S :    0.116135
  17 C :   -0.054545
  18 C :   -0.049745
  19 C :    0.001143
  20 C :   -0.149791
  21 H :    0.027109
  22 C :   -0.006857
  23 H :    0.031901
  24 H :    0.037575
  25 C :   -0.046985
  26 H :    0.035440
  27 H :    0.038482
  28 C :   -0.073421
  29 H :    0.019151
  30 H :    0.046231
  31 H :    0.043604
  32 H :    0.050620
  33 H :    0.016406
Sum of atomic charges:   -0.0000000

LOEWDIN ATOMIC CHARGES
----------------------
   0 S :    0.467172
   1 C :   -0.218202
   2 C :   -0.056751
   3 C :   -0.058430
   4 C :   -0.215307
   5 H :    0.030543
   6 C :   -0.034744
   7 H :    0.036754
   8 H :    0.025505
   9 C :   -0.048565
  10 H :    0.023600
  11 H :    0.024168
  12 C :   -0.084268
  13 H :    0.029390
  14 H :    0.036672
  15 H :    0.027828
  16 S :    0.380514
  17 C :   -0.160358
  18 C :   -0.067756
  19 C :   -0.060854
  20 C :   -0.198964
  21 H :    0.038382
  22 C :   -0.047615
  23 H :    0.040917
  24 H :    0.033153
  25 C :   -0.040222
  26 H :    0.027399
  27 H :    0.029914
  28 C :   -0.081384
  29 H :    0.020310
  30 H :    0.026053
  31 H :    0.040060
  32 H :    0.026058
  33 H :    0.009024

  Mayer bond orders larger than 0.100000
B(  0-S ,  1-C ) :   1.1773 B(  0-S ,  4-C ) :   1.2090 B(  1-C ,  2-C ) :   1.5145
B(  1-C ,  4-C ) :   0.1195 B(  1-C , 32-H ) :   0.9694 B(  2-C ,  3-C ) :   1.3328
B(  2-C ,  6-C ) :   1.0297 B(  3-C ,  4-C ) :   1.4727 B(  3-C ,  5-H ) :   0.9926
B(  4-C , 20-C ) :   1.0358 B(  6-C ,  7-H ) :   0.9320 B(  6-C ,  8-H ) :   0.9399
B(  6-C ,  9-C ) :   1.0643 B(  9-C , 10-H ) :   0.9599 B(  9-C , 11-H ) :   0.9530
B(  9-C , 12-C ) :   1.0601 B( 12-C , 13-H ) :   0.9756 B( 12-C , 14-H ) :   0.9765
B( 12-C , 15-H ) :   0.9786 B( 16-S , 17-C ) :   1.1467 B( 16-S , 20-C ) :   1.1216
B( 17-C , 18-C ) :   1.6299 B( 17-C , 20-C ) :   0.1051 B( 17-C , 33-H ) :   0.9698
B( 18-C , 19-C ) :   1.2303 B( 18-C , 21-H ) :   0.9911 B( 19-C , 20-C ) :   1.5877
B( 19-C , 22-C ) :   1.0608 B( 22-C , 23-H ) :   0.9249 B( 22-C , 24-H ) :   0.9369
B( 22-C , 25-C ) :   1.0524 B( 25-C , 26-H ) :   0.9567 B( 25-C , 27-H ) :   0.9526
B( 25-C , 28-C ) :   1.0656 B( 28-C , 29-H ) :   0.9735 B( 28-C , 30-H ) :   0.9748
B( 28-C , 31-H ) :   0.9732

Dispersion correction           -0.014653049
FINAL SINGLE POINT ENERGY     -1339.859930348979

DIPOLE MOMENT
-------------
                                X             Y             Z
Electronic contribution:    -13.03994       9.56723     -15.73492
Nuclear contribution   :     13.30615      -9.90187      15.97301
                        -----------------------------------------
Total Dipole Moment    :      0.26622      -0.33464       0.23809
                        -----------------------------------------
Magnitude (a.u.)       :      0.48943
Magnitude (Debye)      :      1.24403

Rotational constants in cm-1:     0.018065     0.008854     0.007416
Rotational constants in MHz :   541.582820   265.447824   222.312338

                             ****ORCA TERMINATED NORMALLY****
TOTAL RUN TIME: 0 days 0 hours 0 minutes 21 seconds 803 msec
