                         Program Version 4.2.1 -  RELEASE  -
|  1> ! wB97X-D3 SP def2-SVP
|  2> %pal
|  3> nprocs 24
|  4> end
|  5>
|  6> * xyz 0 1
|  7> S 	 -114.534 	 58.9858 	 -72.0949
|  8> C 	 -112.917 	 58.6975 	 -71.673
|  9> C 	 -112.292 	 59.8588 	 -71.2668
| 10> C 	 -113.224 	 60.9408 	 -71.0473
| 11> C 	 -114.516 	 60.6397 	 -71.4813
| 12> H 	 -113.092 	 61.9243 	 -70.5817
| 13> C 	 -110.926 	 59.9722 	 -70.7843
| 14> H 	 -110.513 	 60.8719 	 -71.2519
| 15> H 	 -110.311 	 59.159 	 -71.2254
| 16> C 	 -110.752 	 60.0858 	 -69.2798
| 17> H 	 -109.651 	 60.2881 	 -69.2353
| 18> H 	 -111.266 	 61.0343 	 -68.9009
| 19> C 	 -111.189 	 58.8021 	 -68.5172
| 20> H 	 -111.223 	 58.9868 	 -67.4499
| 21> H 	 -112.187 	 58.4748 	 -68.8193
| 22> H 	 -110.521 	 57.9176 	 -68.6419
| 23> S 	 -115.995 	 62.3156 	 -69.9671
| 24> C 	 -117.255 	 63.2486 	 -70.8201
| 25> C 	 -117.39 	 62.87 	 -72.1791
| 26> C 	 -116.55 	 61.7997 	 -72.5555
| 27> C 	 -115.679 	 61.5001 	 -71.4947
| 28> H 	 -118.222 	 63.3674 	 -72.7365
| 29> C 	 -116.526 	 61.1417 	 -73.9244
| 30> H 	 -115.499 	 60.6672 	 -74.0961
| 31> H 	 -116.715 	 61.9014 	 -74.6347
| 32> C 	 -117.477 	 59.9687 	 -74.0998
| 33> H 	 -117.346 	 59.4446 	 -73.2251
| 34> H 	 -117.207 	 59.4522 	 -75.0119
| 35> C 	 -119.013 	 60.4502 	 -74.1532
| 36> H 	 -119.39 	 60.6662 	 -73.1964
| 37> H 	 -119.583 	 59.6359 	 -74.4983
| 38> H 	 -119.027 	 61.3939 	 -74.844
| 39> H 	 -112.353 	 57.8717 	 -72.0414
| 40> H 	 -117.831 	 64.0488 	 -70.3281
| 41> *
| 42>
| 43>                          ****END OF INPUT****

CARTESIAN COORDINATES (ANGSTROEM)
---------------------------------
  S    -114.534000   58.985800  -72.094900
  C    -112.917000   58.697500  -71.673000
  C    -112.292000   59.858800  -71.266800
  C    -113.224000   60.940800  -71.047300
  C    -114.516000   60.639700  -71.481300
  H    -113.092000   61.924300  -70.581700
  C    -110.926000   59.972200  -70.784300
  H    -110.513000   60.871900  -71.251900
  H    -110.311000   59.159000  -71.225400
  C    -110.752000   60.085800  -69.279800
  H    -109.651000   60.288100  -69.235300
  H    -111.266000   61.034300  -68.900900
  C    -111.189000   58.802100  -68.517200
  H    -111.223000   58.986800  -67.449900
  H    -112.187000   58.474800  -68.819300
  H    -110.521000   57.917600  -68.641900
  S    -115.995000   62.315600  -69.967100
  C    -117.255000   63.248600  -70.820100
  C    -117.390000   62.870000  -72.179100
  C    -116.550000   61.799700  -72.555500
  C    -115.679000   61.500100  -71.494700
  H    -118.222000   63.367400  -72.736500
  C    -116.526000   61.141700  -73.924400
  H    -115.499000   60.667200  -74.096100
  H    -116.715000   61.901400  -74.634700
  C    -117.477000   59.968700  -74.099800
  H    -117.346000   59.444600  -73.225100
  H    -117.207000   59.452200  -75.011900
  C    -119.013000   60.450200  -74.153200
  H    -119.390000   60.666200  -73.196400
  H    -119.583000   59.635900  -74.498300
  H    -119.027000   61.393900  -74.844000
  H    -112.353000   57.871700  -72.041400
  H    -117.831000   64.048800  -70.328100

 Total Charge           Charge          ....    0
 Multiplicity           Mult            ....    1
 Number of Electrons    NEL             ....  134
 Basis Dimension        Dim             ....  322

ORBITAL ENERGIES
----------------

  NO   OCC          E(Eh)            E(eV)
   0   2.0000     -88.972918     -2421.0762
   1   2.0000     -88.963662     -2420.8243
   2   2.0000     -10.328452      -281.0515
   3   2.0000     -10.328094      -281.0417
   4   2.0000     -10.324616      -280.9471
   5   2.0000     -10.306823      -280.4629
   6   2.0000     -10.306474      -280.4534
   7   2.0000     -10.303221      -280.3649
   8   2.0000     -10.296279      -280.1760
   9   2.0000     -10.295801      -280.1630
  10   2.0000     -10.295185      -280.1462
  11   2.0000     -10.289580      -279.9937
  12   2.0000     -10.285710      -279.8884
  13   2.0000     -10.279663      -279.7238
  14   2.0000     -10.278643      -279.6961
  15   2.0000     -10.278362      -279.6885
  16   2.0000      -8.086572      -220.0468
  17   2.0000      -8.078775      -219.8346
  18   2.0000      -6.044925      -164.4908
  19   2.0000      -6.041354      -164.3936
  20   2.0000      -6.037450      -164.2874
  21   2.0000      -6.037199      -164.2805
  22   2.0000      -6.033134      -164.1699
  23   2.0000      -6.029708      -164.0767
  24   2.0000      -1.007004       -27.4020
  25   2.0000      -0.983238       -26.7553
  26   2.0000      -0.914500       -24.8848
  27   2.0000      -0.908819       -24.7302
  28   2.0000      -0.868908       -23.6442
  29   2.0000      -0.846900       -23.0453
  30   2.0000      -0.841385       -22.8953
  31   2.0000      -0.809247       -22.0207
  32   2.0000      -0.783030       -21.3073
  33   2.0000      -0.772717       -21.0267
  34   2.0000      -0.710988       -19.3470
  35   2.0000      -0.696037       -18.9401
  36   2.0000      -0.688065       -18.7232
  37   2.0000      -0.664325       -18.0772
  38   2.0000      -0.637687       -17.3523
  39   2.0000      -0.614441       -16.7198
  40   2.0000      -0.596174       -16.2227
  41   2.0000      -0.565519       -15.3885
  42   2.0000      -0.555218       -15.1083
  43   2.0000      -0.548598       -14.9281
  44   2.0000      -0.544159       -14.8073
  45   2.0000      -0.529445       -14.4069
  46   2.0000      -0.517245       -14.0749
  47   2.0000      -0.510234       -13.8842
  48   2.0000      -0.498505       -13.5650
  49   2.0000      -0.492623       -13.4049
  50   2.0000      -0.485832       -13.2202
  51   2.0000      -0.478517       -13.0211
  52   2.0000      -0.471749       -12.8370
  53   2.0000      -0.467898       -12.7322
  54   2.0000      -0.457341       -12.4449
  55   2.0000      -0.448853       -12.2139
  56   2.0000      -0.438717       -11.9381
  57   2.0000      -0.437804       -11.9133
  58   2.0000      -0.433477       -11.7955
  59   2.0000      -0.429890       -11.6979
  60   2.0000      -0.421153       -11.4602
  61   2.0000      -0.411360       -11.1937
  62   2.0000      -0.409510       -11.1433
  63   2.0000      -0.346019        -9.4157
  64   2.0000      -0.339061        -9.2263
  65   2.0000      -0.322871        -8.7858
  66   2.0000      -0.288089        -7.8393
  67   0.0000       0.025699         0.6993
  68   0.0000       0.071560         1.9472
  69   0.0000       0.099722         2.7136
  70   0.0000       0.111814         3.0426
  71   0.0000       0.129907         3.5349

MULLIKEN ATOMIC CHARGES
-----------------------
   0 S :    0.094796
   1 C :   -0.082459
   2 C :   -0.100914
   3 C :    0.003978
   4 C :   -0.158114
   5 H :    0.020422
   6 C :    0.044898
   7 H :    0.026379
   8 H :    0.017052
   9 C :   -0.081319
  10 H :    0.037542
  11 H :    0.042973
  12 C :   -0.054079
  13 H :    0.034004
  14 H :    0.044810
  15 H :    0.033193
  16 S :    0.118781
  17 C :   -0.120383
  18 C :   -0.053813
  19 C :   -0.017952
  20 C :   -0.164964
  21 H :    0.038933
  22 C :    0.041726
  23 H :    0.042038
  24 H :    0.015223
  25 C :   -0.025650
  26 H :    0.011467
  27 H :    0.040594
  28 C :   -0.062183
  29 H :    0.031544
  30 H :    0.031087
  31 H :    0.038404
  32 H :    0.046442
  33 H :    0.065543
Sum of atomic charges:   -0.0000000

LOEWDIN ATOMIC CHARGES
----------------------
   0 S :    0.425198
   1 C :   -0.216471
   2 C :   -0.066944
   3 C :   -0.066903
   4 C :   -0.190757
   5 H :    0.031128
   6 C :   -0.045943
   7 H :    0.034093
   8 H :    0.030171
   9 C :   -0.041187
  10 H :    0.030801
  11 H :    0.031417
  12 C :   -0.071380
  13 H :    0.025845
  14 H :    0.028070
  15 H :    0.029508
  16 S :    0.400905
  17 C :   -0.185846
  18 C :   -0.070760
  19 C :   -0.054101
  20 C :   -0.192635
  21 H :    0.041603
  22 C :   -0.033855
  23 H :    0.034426
  24 H :    0.020060
  25 C :   -0.024807
  26 H :    0.008499
  27 H :    0.026229
  28 C :   -0.062584
  29 H :    0.017531
  30 H :    0.019486
  31 H :    0.032822
  32 H :    0.025589
  33 H :    0.030796

  Mayer bond orders larger than 0.100000
B(  0-S ,  1-C ) :   1.1442 B(  0-S ,  4-C ) :   1.1481 B(  1-C ,  2-C ) :   1.6013
B(  1-C , 32-H ) :   0.9617 B(  2-C ,  3-C ) :   1.2170 B(  2-C ,  6-C ) :   1.0597
B(  3-C ,  4-C ) :   1.5748 B(  3-C ,  5-H ) :   0.9882 B(  4-C , 20-C ) :   1.0440
B(  6-C ,  7-H ) :   0.9261 B(  6-C ,  8-H ) :   0.9377 B(  6-C ,  9-C ) :   1.0725
B(  9-C , 10-H ) :   0.9543 B(  9-C , 11-H ) :   0.9532 B(  9-C , 12-C ) :   1.0616
B( 12-C , 13-H ) :   0.9753 B( 12-C , 14-H ) :   0.9756 B( 12-C , 15-H ) :   0.9746
B( 16-S , 17-C ) :   1.1424 B( 16-S , 20-C ) :   1.1544 B( 17-C , 18-C ) :   1.6087
B( 17-C , 20-C ) :   0.1098 B( 17-C , 33-H ) :   0.9656 B( 18-C , 19-C ) :   1.2413
B( 18-C , 21-H ) :   0.9794 B( 19-C , 20-C ) :   1.5598 B( 19-C , 22-C ) :   1.0448
B( 22-C , 23-H ) :   0.9249 B( 22-C , 24-H ) :   0.9350 B( 22-C , 25-C ) :   1.0724
B( 25-C , 26-H ) :   0.9480 B( 25-C , 27-H ) :   0.9602 B( 25-C , 28-C ) :   1.0713
B( 28-C , 29-H ) :   0.9752 B( 28-C , 30-H ) :   0.9758 B( 28-C , 31-H ) :   0.9784

Dispersion correction           -0.015145700
FINAL SINGLE POINT ENERGY     -1339.872185731904

DIPOLE MOMENT
-------------
                                X             Y             Z
Electronic contribution:     -4.55842       4.83039       3.30336
Nuclear contribution   :      4.70730      -4.70877      -3.44754
                        -----------------------------------------
Total Dipole Moment    :      0.14888       0.12163      -0.14418
                        -----------------------------------------
Magnitude (a.u.)       :      0.24031
Magnitude (Debye)      :      0.61082

Rotational constants in cm-1:     0.024799     0.008224     0.006689
Rotational constants in MHz :   743.442872   246.553132   200.526636

                             ****ORCA TERMINATED NORMALLY****
TOTAL RUN TIME: 0 days 0 hours 0 minutes 24 seconds 27 msec
