                         Program Version 4.2.1 -  RELEASE  -
|  1> ! wB97X-D3 SP def2-SVP
|  2> %pal
|  3> nprocs 24
|  4> end
|  5>
|  6> * xyz 0 1
|  7> S 	 -125.51 	 21.2241 	 -21.4372
|  8> C 	 -123.895 	 21.2604 	 -20.9548
|  9> C 	 -123.088 	 21.8774 	 -21.9025
| 10> C 	 -123.809 	 22.2089 	 -23.0852
| 11> C 	 -125.151 	 22.014 	 -22.948
| 12> H 	 -123.479 	 22.646 	 -24.0262
| 13> C 	 -121.6 	 21.9075 	 -21.7204
| 14> H 	 -121.162 	 22.0384 	 -22.6876
| 15> H 	 -121.209 	 20.9601 	 -21.3284
| 16> C 	 -121.17 	 23.1185 	 -20.8461
| 17> H 	 -121.772 	 24.0207 	 -21.0817
| 18> H 	 -121.253 	 22.9597 	 -19.7626
| 19> C 	 -119.687 	 23.542 	 -21.0686
| 20> H 	 -118.941 	 22.8059 	 -20.742
| 21> H 	 -119.543 	 23.7798 	 -22.086
| 22> H 	 -119.504 	 24.5012 	 -20.5248
| 23> S 	 -127.394 	 23.6159 	 -23.4177
| 24> C 	 -127.856 	 24.0061 	 -25.1002
| 25> C 	 -127.087 	 23.2011 	 -25.9318
| 26> C 	 -126.209 	 22.2458 	 -25.3046
| 27> C 	 -126.161 	 22.4459 	 -23.9507
| 28> H 	 -127.309 	 23.3921 	 -26.9814
| 29> C 	 -125.364 	 21.2356 	 -26.098
| 30> H 	 -124.415 	 21.6352 	 -26.4694
| 31> H 	 -125.845 	 21.1415 	 -27.1189
| 32> C 	 -125.245 	 19.8312 	 -25.5363
| 33> H 	 -126.313 	 19.4567 	 -25.4415
| 34> H 	 -124.793 	 19.9535 	 -24.602
| 35> C 	 -124.224 	 18.8683 	 -26.2636
| 36> H 	 -124.334 	 17.794 	 -25.9596
| 37> H 	 -123.247 	 19.238 	 -26.102
| 38> H 	 -124.297 	 18.902 	 -27.3132
| 39> H 	 -123.448 	 20.9216 	 -20.0794
| 40> H 	 -128.646 	 24.6464 	 -25.4329
| 41> *
| 42>
| 43>                          ****END OF INPUT****

CARTESIAN COORDINATES (ANGSTROEM)
---------------------------------
  S    -125.510000   21.224100  -21.437200
  C    -123.895000   21.260400  -20.954800
  C    -123.088000   21.877400  -21.902500
  C    -123.809000   22.208900  -23.085200
  C    -125.151000   22.014000  -22.948000
  H    -123.479000   22.646000  -24.026200
  C    -121.600000   21.907500  -21.720400
  H    -121.162000   22.038400  -22.687600
  H    -121.209000   20.960100  -21.328400
  C    -121.170000   23.118500  -20.846100
  H    -121.772000   24.020700  -21.081700
  H    -121.253000   22.959700  -19.762600
  C    -119.687000   23.542000  -21.068600
  H    -118.941000   22.805900  -20.742000
  H    -119.543000   23.779800  -22.086000
  H    -119.504000   24.501200  -20.524800
  S    -127.394000   23.615900  -23.417700
  C    -127.856000   24.006100  -25.100200
  C    -127.087000   23.201100  -25.931800
  C    -126.209000   22.245800  -25.304600
  C    -126.161000   22.445900  -23.950700
  H    -127.309000   23.392100  -26.981400
  C    -125.364000   21.235600  -26.098000
  H    -124.415000   21.635200  -26.469400
  H    -125.845000   21.141500  -27.118900
  C    -125.245000   19.831200  -25.536300
  H    -126.313000   19.456700  -25.441500
  H    -124.793000   19.953500  -24.602000
  C    -124.224000   18.868300  -26.263600
  H    -124.334000   17.794000  -25.959600
  H    -123.247000   19.238000  -26.102000
  H    -124.297000   18.902000  -27.313200
  H    -123.448000   20.921600  -20.079400
  H    -128.646000   24.646400  -25.432900

 Total Charge           Charge          ....    0
 Multiplicity           Mult            ....    1
 Number of Electrons    NEL             ....  134
 Basis Dimension        Dim             ....  322

ORBITAL ENERGIES
----------------

  NO   OCC          E(Eh)            E(eV)
   0   2.0000     -88.969336     -2420.9787
   1   2.0000     -88.962302     -2420.7873
   2   2.0000     -10.331649      -281.1385
   3   2.0000     -10.327906      -281.0366
   4   2.0000     -10.320305      -280.8298
   5   2.0000     -10.309184      -280.5272
   6   2.0000     -10.304787      -280.4075
   7   2.0000     -10.298062      -280.2245
   8   2.0000     -10.297372      -280.2057
   9   2.0000     -10.296964      -280.1946
  10   2.0000     -10.294291      -280.1219
  11   2.0000     -10.290995      -280.0322
  12   2.0000     -10.289923      -280.0030
  13   2.0000     -10.283353      -279.8243
  14   2.0000     -10.276831      -279.6468
  15   2.0000     -10.276428      -279.6358
  16   2.0000      -8.084904      -220.0014
  17   2.0000      -8.076177      -219.7640
  18   2.0000      -6.043275      -164.4459
  19   2.0000      -6.039166      -164.3341
  20   2.0000      -6.035896      -164.2451
  21   2.0000      -6.034810      -164.2155
  22   2.0000      -6.030806      -164.1066
  23   2.0000      -6.026831      -163.9984
  24   2.0000      -1.011225       -27.5168
  25   2.0000      -0.984097       -26.7786
  26   2.0000      -0.909263       -24.7423
  27   2.0000      -0.903396       -24.5827
  28   2.0000      -0.869242       -23.6533
  29   2.0000      -0.851949       -23.1827
  30   2.0000      -0.842907       -22.9367
  31   2.0000      -0.818922       -22.2840
  32   2.0000      -0.781433       -21.2639
  33   2.0000      -0.772072       -21.0091
  34   2.0000      -0.710634       -19.3373
  35   2.0000      -0.698737       -19.0136
  36   2.0000      -0.690875       -18.7997
  37   2.0000      -0.660980       -17.9862
  38   2.0000      -0.647538       -17.6204
  39   2.0000      -0.617010       -16.7897
  40   2.0000      -0.590839       -16.0776
  41   2.0000      -0.571289       -15.5456
  42   2.0000      -0.564061       -15.3489
  43   2.0000      -0.560835       -15.2611
  44   2.0000      -0.527007       -14.3406
  45   2.0000      -0.521202       -14.1826
  46   2.0000      -0.519015       -14.1231
  47   2.0000      -0.515234       -14.0202
  48   2.0000      -0.503466       -13.7000
  49   2.0000      -0.500109       -13.6087
  50   2.0000      -0.495508       -13.4835
  51   2.0000      -0.483008       -13.1433
  52   2.0000      -0.470000       -12.7893
  53   2.0000      -0.463728       -12.6187
  54   2.0000      -0.460523       -12.5315
  55   2.0000      -0.444404       -12.0928
  56   2.0000      -0.438000       -11.9186
  57   2.0000      -0.435779       -11.8582
  58   2.0000      -0.430028       -11.7017
  59   2.0000      -0.427799       -11.6410
  60   2.0000      -0.421861       -11.4794
  61   2.0000      -0.417735       -11.3671
  62   2.0000      -0.407082       -11.0773
  63   2.0000      -0.347377        -9.4526
  64   2.0000      -0.329484        -8.9657
  65   2.0000      -0.328332        -8.9344
  66   2.0000      -0.298003        -8.1091
  67   0.0000       0.033802         0.9198
  68   0.0000       0.066721         1.8156
  69   0.0000       0.117306         3.1921
  70   0.0000       0.118553         3.2260
  71   0.0000       0.133011         3.6194

MULLIKEN ATOMIC CHARGES
-----------------------
   0 S :    0.139810
   1 C :   -0.068451
   2 C :   -0.105922
   3 C :    0.036617
   4 C :   -0.183099
   5 H :    0.016737
   6 C :    0.093999
   7 H :    0.005407
   8 H :    0.035758
   9 C :   -0.106228
  10 H :    0.041917
  11 H :    0.034536
  12 C :   -0.057607
  13 H :    0.037584
  14 H :    0.019217
  15 H :    0.035534
  16 S :    0.088915
  17 C :   -0.095490
  18 C :   -0.055775
  19 C :    0.002243
  20 C :   -0.150482
  21 H :    0.023113
  22 C :    0.036257
  23 H :    0.023976
  24 H :    0.016099
  25 C :   -0.074384
  26 H :    0.048272
  27 H :    0.037236
  28 C :   -0.026642
  29 H :    0.051391
  30 H :    0.017061
  31 H :    0.009175
  32 H :    0.016648
  33 H :    0.056578
Sum of atomic charges:    0.0000000

LOEWDIN ATOMIC CHARGES
----------------------
   0 S :    0.442567
   1 C :   -0.204676
   2 C :   -0.063636
   3 C :   -0.060269
   4 C :   -0.202788
   5 H :    0.036191
   6 C :   -0.029940
   7 H :    0.025445
   8 H :    0.033402
   9 C :   -0.041433
  10 H :    0.030425
  11 H :    0.023104
  12 C :   -0.068575
  13 H :    0.024346
  14 H :    0.014101
  15 H :    0.031264
  16 S :    0.371867
  17 C :   -0.173695
  18 C :   -0.070946
  19 C :   -0.061852
  20 C :   -0.178992
  21 H :    0.032479
  22 C :   -0.041862
  23 H :    0.026897
  24 H :    0.034487
  25 C :   -0.040014
  26 H :    0.034713
  27 H :    0.017162
  28 C :   -0.059902
  29 H :    0.037356
  30 H :    0.020565
  31 H :    0.013648
  32 H :    0.018037
  33 H :    0.030522

  Mayer bond orders larger than 0.100000
B(  0-S ,  1-C ) :   1.1585 B(  0-S ,  4-C ) :   1.1609 B(  1-C ,  2-C ) :   1.5864
B(  1-C , 32-H ) :   0.9747 B(  2-C ,  3-C ) :   1.2509 B(  2-C ,  6-C ) :   1.0321
B(  3-C ,  4-C ) :   1.5702 B(  3-C ,  5-H ) :   0.9951 B(  4-C , 20-C ) :   1.0134
B(  6-C ,  7-H ) :   0.9424 B(  6-C ,  8-H ) :   0.9441 B(  6-C ,  9-C ) :   1.0438
B(  9-C , 10-H ) :   0.9613 B(  9-C , 11-H ) :   0.9579 B(  9-C , 12-C ) :   1.0847
B( 12-C , 13-H ) :   0.9755 B( 12-C , 14-H ) :   0.9769 B( 12-C , 15-H ) :   0.9753
B( 16-S , 17-C ) :   1.1279 B( 16-S , 20-C ) :   1.1355 B( 17-C , 18-C ) :   1.6473
B( 17-C , 33-H ) :   0.9711 B( 18-C , 19-C ) :   1.2085 B( 18-C , 21-H ) :   0.9868
B( 19-C , 20-C ) :   1.6120 B( 19-C , 22-C ) :   1.0305 B( 22-C , 23-H ) :   0.9318
B( 22-C , 24-H ) :   0.9296 B( 22-C , 25-C ) :   1.0569 B( 25-C , 26-H ) :   0.9592
B( 25-C , 27-H ) :   0.9551 B( 25-C , 28-C ) :   1.0721 B( 28-C , 29-H ) :   0.9760
B( 28-C , 30-H ) :   0.9737 B( 28-C , 31-H ) :   0.9772

Dispersion correction           -0.014327212
FINAL SINGLE POINT ENERGY     -1339.871785275113

DIPOLE MOMENT
-------------
                                X             Y             Z
Electronic contribution:    -24.69651       6.13640       7.04529
Nuclear contribution   :     25.24928      -6.17514      -7.42846
                        -----------------------------------------
Total Dipole Moment    :      0.55277      -0.03875      -0.38316
                        -----------------------------------------
Magnitude (a.u.)       :      0.67370
Magnitude (Debye)      :      1.71240

Rotational constants in cm-1:     0.017683     0.008258     0.007050
Rotational constants in MHz :   530.114296   247.561250   211.341703

                             ****ORCA TERMINATED NORMALLY****
TOTAL RUN TIME: 0 days 0 hours 0 minutes 20 seconds 312 msec
