                         Program Version 4.2.1 -  RELEASE  -
|  1> ! wB97X-D3 SP def2-SVP
|  2> %pal
|  3> nprocs 24
|  4> end
|  5>
|  6> * xyz 0 1
|  7> S 	 -47.8365 	 11.9426 	 24.7718
|  8> C 	 -47.9804 	 12.2382 	 26.5441
|  9> C 	 -49.2579 	 12.7025 	 26.7474
| 10> C 	 -50.0772 	 12.8314 	 25.6157
| 11> C 	 -49.47 	 12.5411 	 24.3916
| 12> H 	 -51.1712 	 12.9723 	 25.7289
| 13> C 	 -49.7915 	 12.9608 	 28.136
| 14> H 	 -48.9458 	 12.806 	 28.7659
| 15> H 	 -50.5538 	 12.1933 	 28.3507
| 16> C 	 -50.5239 	 14.2994 	 28.2709
| 17> H 	 -51.527 	 14.1394 	 27.8131
| 18> H 	 -50.8515 	 14.484 	 29.2935
| 19> C 	 -49.8832 	 15.5955 	 27.6827
| 20> H 	 -50.7129 	 16.2534 	 27.4155
| 21> H 	 -49.2353 	 16.0489 	 28.3779
| 22> H 	 -49.286 	 15.4069 	 26.7913
| 23> S 	 -50.1106 	 10.7912 	 22.4907
| 24> C 	 -50.8777 	 11.2348 	 20.9809
| 25> C 	 -51.0657 	 12.6272 	 20.9849
| 26> C 	 -50.6213 	 13.2917 	 22.1143
| 27> C 	 -50.0161 	 12.4443 	 23.037
| 28> H 	 -51.6662 	 13.0991 	 20.224
| 29> C 	 -50.8505 	 14.7752 	 22.4099
| 30> H 	 -51.5241 	 14.8146 	 23.2657
| 31> H 	 -51.2814 	 15.1103 	 21.3917
| 32> C 	 -49.6339 	 15.6199 	 22.7421
| 33> H 	 -48.9914 	 15.2265 	 23.5519
| 34> H 	 -49.9504 	 16.5871 	 23.0244
| 35> C 	 -48.7932 	 15.7938 	 21.498
| 36> H 	 -49.3835 	 16.3361 	 20.8123
| 37> H 	 -48.4315 	 14.8535 	 21.1027
| 38> H 	 -47.9447 	 16.3547 	 21.8875
| 39> H 	 -47.185 	 12.2313 	 27.3692
| 40> H 	 -51.2281 	 10.518 	 20.2688
| 41> *
| 42>
| 43>                          ****END OF INPUT****

CARTESIAN COORDINATES (ANGSTROEM)
---------------------------------
  S    -47.836500   11.942600   24.771800
  C    -47.980400   12.238200   26.544100
  C    -49.257900   12.702500   26.747400
  C    -50.077200   12.831400   25.615700
  C    -49.470000   12.541100   24.391600
  H    -51.171200   12.972300   25.728900
  C    -49.791500   12.960800   28.136000
  H    -48.945800   12.806000   28.765900
  H    -50.553800   12.193300   28.350700
  C    -50.523900   14.299400   28.270900
  H    -51.527000   14.139400   27.813100
  H    -50.851500   14.484000   29.293500
  C    -49.883200   15.595500   27.682700
  H    -50.712900   16.253400   27.415500
  H    -49.235300   16.048900   28.377900
  H    -49.286000   15.406900   26.791300
  S    -50.110600   10.791200   22.490700
  C    -50.877700   11.234800   20.980900
  C    -51.065700   12.627200   20.984900
  C    -50.621300   13.291700   22.114300
  C    -50.016100   12.444300   23.037000
  H    -51.666200   13.099100   20.224000
  C    -50.850500   14.775200   22.409900
  H    -51.524100   14.814600   23.265700
  H    -51.281400   15.110300   21.391700
  C    -49.633900   15.619900   22.742100
  H    -48.991400   15.226500   23.551900
  H    -49.950400   16.587100   23.024400
  C    -48.793200   15.793800   21.498000
  H    -49.383500   16.336100   20.812300
  H    -48.431500   14.853500   21.102700
  H    -47.944700   16.354700   21.887500
  H    -47.185000   12.231300   27.369200
  H    -51.228100   10.518000   20.268800

 Total Charge           Charge          ....    0
 Multiplicity           Mult            ....    1
 Number of Electrons    NEL             ....  134
 Basis Dimension        Dim             ....  322

ORBITAL ENERGIES
----------------

  NO   OCC          E(Eh)            E(eV)
   0   2.0000     -88.966157     -2420.8922
   1   2.0000     -88.965405     -2420.8717
   2   2.0000     -10.339696      -281.3574
   3   2.0000     -10.327036      -281.0129
   4   2.0000     -10.323995      -280.9302
   5   2.0000     -10.321165      -280.8532
   6   2.0000     -10.302252      -280.3385
   7   2.0000     -10.296402      -280.1793
   8   2.0000     -10.296326      -280.1773
   9   2.0000     -10.295767      -280.1621
  10   2.0000     -10.294488      -280.1273
  11   2.0000     -10.289874      -280.0017
  12   2.0000     -10.289768      -279.9988
  13   2.0000     -10.275830      -279.6196
  14   2.0000     -10.273797      -279.5642
  15   2.0000     -10.263880      -279.2944
  16   2.0000      -8.080976      -219.8945
  17   2.0000      -8.078722      -219.8332
  18   2.0000      -6.039337      -164.3387
  19   2.0000      -6.037426      -164.2867
  20   2.0000      -6.035199      -164.2261
  21   2.0000      -6.033311      -164.1748
  22   2.0000      -6.032130      -164.1426
  23   2.0000      -6.029410      -164.0686
  24   2.0000      -1.007583       -27.4177
  25   2.0000      -0.984171       -26.7807
  26   2.0000      -0.913869       -24.8676
  27   2.0000      -0.910228       -24.7686
  28   2.0000      -0.868458       -23.6320
  29   2.0000      -0.853433       -23.2231
  30   2.0000      -0.837470       -22.7887
  31   2.0000      -0.815460       -22.1898
  32   2.0000      -0.783322       -21.3153
  33   2.0000      -0.772932       -21.0326
  34   2.0000      -0.713983       -19.4285
  35   2.0000      -0.695695       -18.9308
  36   2.0000      -0.687356       -18.7039
  37   2.0000      -0.668805       -18.1991
  38   2.0000      -0.631506       -17.1842
  39   2.0000      -0.619704       -16.8630
  40   2.0000      -0.590762       -16.0755
  41   2.0000      -0.564232       -15.3535
  42   2.0000      -0.559581       -15.2270
  43   2.0000      -0.553738       -15.0680
  44   2.0000      -0.549500       -14.9527
  45   2.0000      -0.540441       -14.7061
  46   2.0000      -0.521919       -14.2021
  47   2.0000      -0.512688       -13.9509
  48   2.0000      -0.507942       -13.8218
  49   2.0000      -0.494049       -13.4438
  50   2.0000      -0.489177       -13.3112
  51   2.0000      -0.481873       -13.1124
  52   2.0000      -0.471145       -12.8205
  53   2.0000      -0.469232       -12.7684
  54   2.0000      -0.454242       -12.3606
  55   2.0000      -0.443770       -12.0756
  56   2.0000      -0.440240       -11.9795
  57   2.0000      -0.435570       -11.8525
  58   2.0000      -0.431820       -11.7504
  59   2.0000      -0.419667       -11.4197
  60   2.0000      -0.418763       -11.3951
  61   2.0000      -0.410799       -11.1784
  62   2.0000      -0.407195       -11.0803
  63   2.0000      -0.342700        -9.3254
  64   2.0000      -0.332239        -9.0407
  65   2.0000      -0.327206        -8.9037
  66   2.0000      -0.297835        -8.1045
  67   0.0000       0.028292         0.7699
  68   0.0000       0.053797         1.4639
  69   0.0000       0.113543         3.0897
  70   0.0000       0.120003         3.2654
  71   0.0000       0.128489         3.4964

MULLIKEN ATOMIC CHARGES
-----------------------
   0 S :    0.091384
   1 C :   -0.148449
   2 C :   -0.141809
   3 C :    0.041616
   4 C :   -0.152477
   5 H :    0.028445
   6 C :    0.126352
   7 H :    0.000896
   8 H :    0.042500
   9 C :   -0.119882
  10 H :    0.020063
  11 H :    0.025056
  12 C :   -0.025134
  13 H :    0.034484
  14 H :    0.027287
  15 H :    0.043408
  16 S :    0.115480
  17 C :   -0.091480
  18 C :   -0.053476
  19 C :   -0.018236
  20 C :   -0.182685
  21 H :    0.016046
  22 C :    0.062332
  23 H :    0.039854
  24 H :    0.022851
  25 C :   -0.065975
  26 H :    0.051247
  27 H :    0.013563
  28 C :   -0.031938
  29 H :    0.017747
  30 H :    0.040915
  31 H :    0.029070
  32 H :    0.082133
  33 H :    0.058812
Sum of atomic charges:    0.0000000

LOEWDIN ATOMIC CHARGES
----------------------
   0 S :    0.375777
   1 C :   -0.202505
   2 C :   -0.075097
   3 C :   -0.071969
   4 C :   -0.184743
   5 H :    0.037309
   6 C :   -0.027223
   7 H :    0.020052
   8 H :    0.040666
   9 C :   -0.049539
  10 H :    0.023440
  11 H :    0.024638
  12 C :   -0.062030
  13 H :    0.030992
  14 H :    0.018572
  15 H :    0.027716
  16 S :    0.429822
  17 C :   -0.182410
  18 C :   -0.076464
  19 C :   -0.061882
  20 C :   -0.207368
  21 H :    0.030041
  22 C :   -0.028976
  23 H :    0.032719
  24 H :    0.036739
  25 C :   -0.040067
  26 H :    0.029321
  27 H :    0.018500
  28 C :   -0.054546
  29 H :    0.015590
  30 H :    0.024652
  31 H :    0.028094
  32 H :    0.052765
  33 H :    0.027411

  Mayer bond orders larger than 0.100000
B(  0-S ,  1-C ) :   1.1174 B(  0-S ,  4-C ) :   1.1535 B(  1-C ,  2-C ) :   1.6137
B(  1-C ,  4-C ) :   0.1086 B(  1-C , 32-H ) :   0.9528 B(  2-C ,  3-C ) :   1.2507
B(  2-C ,  6-C ) :   1.0250 B(  3-C ,  4-C ) :   1.5578 B(  3-C ,  5-H ) :   0.9874
B(  4-C , 20-C ) :   1.0124 B(  6-C ,  7-H ) :   0.9394 B(  6-C ,  8-H ) :   0.9364
B(  6-C ,  9-C ) :   1.0659 B(  9-C , 10-H ) :   0.9540 B(  9-C , 11-H ) :   0.9549
B(  9-C , 12-C ) :   1.0686 B( 12-C , 13-H ) :   0.9756 B( 12-C , 14-H ) :   0.9775
B( 12-C , 15-H ) :   0.9731 B( 16-S , 17-C ) :   1.1829 B( 16-S , 20-C ) :   1.1826
B( 17-C , 18-C ) :   1.5366 B( 17-C , 20-C ) :   0.1221 B( 17-C , 33-H ) :   0.9751
B( 18-C , 19-C ) :   1.3088 B( 18-C , 21-H ) :   0.9858 B( 19-C , 20-C ) :   1.5404
B( 19-C , 22-C ) :   1.0167 B( 22-C , 23-H ) :   0.9325 B( 22-C , 24-H ) :   0.9365
B( 22-C , 25-C ) :   1.0834 B( 25-C , 26-H ) :   0.9530 B( 25-C , 27-H ) :   0.9506
B( 25-C , 28-C ) :   1.0744 B( 28-C , 29-H ) :   0.9758 B( 28-C , 30-H ) :   0.9779
B( 28-C , 31-H ) :   0.9737

Dispersion correction           -0.015295828
FINAL SINGLE POINT ENERGY     -1339.869512114381

DIPOLE MOMENT
-------------
                                X             Y             Z
Electronic contribution:      4.81556     -23.28009      -8.84026
Nuclear contribution   :     -5.30357      23.65700       9.14314
                        -----------------------------------------
Total Dipole Moment    :     -0.48802       0.37690       0.30288
                        -----------------------------------------
Magnitude (a.u.)       :      0.68699
Magnitude (Debye)      :      1.74618

Rotational constants in cm-1:     0.019286     0.009588     0.007833
Rotational constants in MHz :   578.194672   287.435488   234.838291

                             ****ORCA TERMINATED NORMALLY****
TOTAL RUN TIME: 0 days 0 hours 0 minutes 22 seconds 731 msec
