                         Program Version 4.2.1 -  RELEASE  -
|  1> ! wB97X-D3 SP def2-SVP
|  2> %pal
|  3> nprocs 24
|  4> end
|  5>
|  6> * xyz 0 1
|  7> S 	 -36.1318 	 3.33028 	 -5.40381
|  8> C 	 -36.6786 	 1.74401 	 -6.09216
|  9> C 	 -36.9906 	 0.806233 	 -5.11457
| 10> C 	 -36.6866 	 1.37128 	 -3.82023
| 11> C 	 -36.027 	 2.60561 	 -3.83214
| 12> H 	 -36.8914 	 0.90831 	 -2.86055
| 13> C 	 -37.6125 	 -0.605121 	 -5.2501
| 14> H 	 -38.1778 	 -0.621148 	 -6.17885
| 15> H 	 -38.3505 	 -0.73839 	 -4.50374
| 16> C 	 -36.7207 	 -1.85805 	 -5.30954
| 17> H 	 -35.8113 	 -1.56959 	 -5.79893
| 18> H 	 -36.3745 	 -2.16567 	 -4.37594
| 19> C 	 -37.5196 	 -3.05947 	 -5.94316
| 20> H 	 -36.7806 	 -3.92101 	 -6.11043
| 21> H 	 -38.3705 	 -3.39386 	 -5.29184
| 22> H 	 -37.9216 	 -2.88728 	 -6.93711
| 23> S 	 -36.4366 	 4.8436 	 -2.39866
| 24> C 	 -35.6056 	 5.16235 	 -0.928744
| 25> C 	 -34.6604 	 4.18988 	 -0.723476
| 26> C 	 -34.5739 	 3.14128 	 -1.71924
| 27> C 	 -35.5114 	 3.37088 	 -2.69155
| 28> H 	 -33.8945 	 4.23168 	 0.0879999
| 29> C 	 -33.5737 	 2.038 	 -1.66897
| 30> H 	 -33.7591 	 1.41376 	 -2.55514
| 31> H 	 -33.7639 	 1.37042 	 -0.916322
| 32> C 	 -32.0376 	 2.41558 	 -1.75832
| 33> H 	 -31.4367 	 1.54049 	 -2.13084
| 34> H 	 -31.7166 	 2.81397 	 -0.735632
| 35> C 	 -31.7326 	 3.39294 	 -2.89266
| 36> H 	 -32.1752 	 3.08353 	 -3.88076
| 37> H 	 -30.7034 	 3.41488 	 -3.0905
| 38> H 	 -32.0702 	 4.41391 	 -2.75256
| 39> H 	 -37.0043 	 1.56005 	 -7.13965
| 40> H 	 -35.6803 	 6.00489 	 -0.234211
| 41> *
| 42>
| 43>                          ****END OF INPUT****

CARTESIAN COORDINATES (ANGSTROEM)
---------------------------------
  S    -36.131800    3.330280   -5.403810
  C    -36.678600    1.744010   -6.092160
  C    -36.990600    0.806233   -5.114570
  C    -36.686600    1.371280   -3.820230
  C    -36.027000    2.605610   -3.832140
  H    -36.891400    0.908310   -2.860550
  C    -37.612500   -0.605121   -5.250100
  H    -38.177800   -0.621148   -6.178850
  H    -38.350500   -0.738390   -4.503740
  C    -36.720700   -1.858050   -5.309540
  H    -35.811300   -1.569590   -5.798930
  H    -36.374500   -2.165670   -4.375940
  C    -37.519600   -3.059470   -5.943160
  H    -36.780600   -3.921010   -6.110430
  H    -38.370500   -3.393860   -5.291840
  H    -37.921600   -2.887280   -6.937110
  S    -36.436600    4.843600   -2.398660
  C    -35.605600    5.162350   -0.928744
  C    -34.660400    4.189880   -0.723476
  C    -34.573900    3.141280   -1.719240
  C    -35.511400    3.370880   -2.691550
  H    -33.894500    4.231680    0.088000
  C    -33.573700    2.038000   -1.668970
  H    -33.759100    1.413760   -2.555140
  H    -33.763900    1.370420   -0.916322
  C    -32.037600    2.415580   -1.758320
  H    -31.436700    1.540490   -2.130840
  H    -31.716600    2.813970   -0.735632
  C    -31.732600    3.392940   -2.892660
  H    -32.175200    3.083530   -3.880760
  H    -30.703400    3.414880   -3.090500
  H    -32.070200    4.413910   -2.752560
  H    -37.004300    1.560050   -7.139650
  H    -35.680300    6.004890   -0.234211

 Total Charge           Charge          ....    0
 Multiplicity           Mult            ....    1
 Number of Electrons    NEL             ....  134
 Basis Dimension        Dim             ....  322

ORBITAL ENERGIES
----------------

  NO   OCC          E(Eh)            E(eV)
   0   2.0000     -88.968818     -2420.9646
   1   2.0000     -88.963587     -2420.8223
   2   2.0000     -10.329904      -281.0910
   3   2.0000     -10.326347      -280.9942
   4   2.0000     -10.322290      -280.8838
   5   2.0000     -10.316395      -280.7234
   6   2.0000     -10.308550      -280.5099
   7   2.0000     -10.303491      -280.3722
   8   2.0000     -10.299736      -280.2701
   9   2.0000     -10.295747      -280.1615
  10   2.0000     -10.294203      -280.1195
  11   2.0000     -10.293571      -280.1023
  12   2.0000     -10.293215      -280.0926
  13   2.0000     -10.285986      -279.8959
  14   2.0000     -10.285692      -279.8879
  15   2.0000     -10.269887      -279.4578
  16   2.0000      -8.082720      -219.9420
  17   2.0000      -8.078852      -219.8367
  18   2.0000      -6.041371      -164.3941
  19   2.0000      -6.037509      -164.2890
  20   2.0000      -6.037451      -164.2874
  21   2.0000      -6.033223      -164.1723
  22   2.0000      -6.033200      -164.1717
  23   2.0000      -6.029525      -164.0717
  24   2.0000      -1.006644       -27.3922
  25   2.0000      -0.980141       -26.6710
  26   2.0000      -0.909234       -24.7415
  27   2.0000      -0.906268       -24.6608
  28   2.0000      -0.867189       -23.5974
  29   2.0000      -0.849869       -23.1261
  30   2.0000      -0.839430       -22.8421
  31   2.0000      -0.807683       -21.9782
  32   2.0000      -0.784773       -21.3548
  33   2.0000      -0.775761       -21.1095
  34   2.0000      -0.711659       -19.3652
  35   2.0000      -0.700762       -19.0687
  36   2.0000      -0.691187       -18.8082
  37   2.0000      -0.656685       -17.8693
  38   2.0000      -0.638561       -17.3761
  39   2.0000      -0.614369       -16.7178
  40   2.0000      -0.596474       -16.2309
  41   2.0000      -0.570925       -15.5357
  42   2.0000      -0.554828       -15.0976
  43   2.0000      -0.551921       -15.0185
  44   2.0000      -0.547001       -14.8846
  45   2.0000      -0.516389       -14.0517
  46   2.0000      -0.513824       -13.9819
  47   2.0000      -0.505085       -13.7441
  48   2.0000      -0.500310       -13.6141
  49   2.0000      -0.498002       -13.5513
  50   2.0000      -0.493283       -13.4229
  51   2.0000      -0.471918       -12.8415
  52   2.0000      -0.469001       -12.7622
  53   2.0000      -0.462158       -12.5760
  54   2.0000      -0.455953       -12.4071
  55   2.0000      -0.446981       -12.1630
  56   2.0000      -0.442938       -12.0529
  57   2.0000      -0.439101       -11.9485
  58   2.0000      -0.436685       -11.8828
  59   2.0000      -0.426839       -11.6149
  60   2.0000      -0.422185       -11.4882
  61   2.0000      -0.417228       -11.3534
  62   2.0000      -0.410745       -11.1769
  63   2.0000      -0.338849        -9.2205
  64   2.0000      -0.332575        -9.0498
  65   2.0000      -0.327978        -8.9247
  66   2.0000      -0.298844        -8.1320
  67   0.0000       0.033829         0.9205
  68   0.0000       0.064215         1.7474
  69   0.0000       0.099919         2.7189
  70   0.0000       0.126097         3.4313
  71   0.0000       0.130444         3.5496

MULLIKEN ATOMIC CHARGES
-----------------------
   0 S :    0.107163
   1 C :   -0.127551
   2 C :   -0.093739
   3 C :    0.047203
   4 C :   -0.168103
   5 H :    0.010875
   6 C :    0.074189
   7 H :    0.010512
   8 H :    0.019008
   9 C :   -0.008042
  10 H :    0.023783
  11 H :    0.011387
  12 C :   -0.108271
  13 H :    0.046847
  14 H :    0.049444
  15 H :    0.035784
  16 S :    0.106236
  17 C :   -0.073975
  18 C :   -0.062830
  19 C :   -0.031432
  20 C :   -0.178040
  21 H :    0.024748
  22 C :    0.115429
  23 H :    0.015133
  24 H :    0.014347
  25 C :   -0.111868
  26 H :    0.046637
  27 H :    0.046997
  28 C :   -0.049015
  29 H :    0.029885
  30 H :    0.020978
  31 H :    0.036964
  32 H :    0.057410
  33 H :    0.061907
Sum of atomic charges:   -0.0000000

LOEWDIN ATOMIC CHARGES
----------------------
   0 S :    0.389708
   1 C :   -0.188074
   2 C :   -0.059874
   3 C :   -0.059569
   4 C :   -0.205344
   5 H :    0.029055
   6 C :   -0.027518
   7 H :    0.029200
   8 H :    0.026395
   9 C :   -0.031508
  10 H :    0.024105
  11 H :    0.015256
  12 C :   -0.072178
  13 H :    0.036094
  14 H :    0.032214
  15 H :    0.020972
  16 S :    0.411246
  17 C :   -0.200122
  18 C :   -0.077880
  19 C :   -0.055485
  20 C :   -0.192796
  21 H :    0.032206
  22 C :   -0.032094
  23 H :    0.035644
  24 H :    0.020114
  25 C :   -0.040654
  26 H :    0.037087
  27 H :    0.027783
  28 C :   -0.070843
  29 H :    0.032826
  30 H :    0.017667
  31 H :    0.023153
  32 H :    0.034439
  33 H :    0.038774

  Mayer bond orders larger than 0.100000
B(  0-S ,  1-C ) :   1.1228 B(  0-S ,  4-C ) :   1.1454 B(  1-C ,  2-C ) :   1.6377
B(  1-C , 32-H ) :   0.9582 B(  2-C ,  3-C ) :   1.2233 B(  2-C ,  6-C ) :   1.0200
B(  3-C ,  4-C ) :   1.5873 B(  3-C ,  5-H ) :   0.9949 B(  4-C , 20-C ) :   0.9999
B(  6-C ,  7-H ) :   0.9437 B(  6-C ,  8-H ) :   0.9406 B(  6-C ,  9-C ) :   1.0557
B(  9-C , 10-H ) :   0.9569 B(  9-C , 11-H ) :   0.9527 B(  9-C , 12-C ) :   1.0703
B( 12-C , 13-H ) :   0.9754 B( 12-C , 14-H ) :   0.9764 B( 12-C , 15-H ) :   0.9779
B( 16-S , 17-C ) :   1.1415 B( 16-S , 20-C ) :   1.1472 B( 17-C , 18-C ) :   1.6264
B( 17-C , 33-H ) :   0.9658 B( 18-C , 19-C ) :   1.2205 B( 18-C , 21-H ) :   0.9782
B( 19-C , 20-C ) :   1.6295 B( 19-C , 22-C ) :   1.0542 B( 22-C , 23-H ) :   0.9231
B( 22-C , 24-H ) :   0.9307 B( 22-C , 25-C ) :   1.0631 B( 25-C , 26-H ) :   0.9606
B( 25-C , 27-H ) :   0.9552 B( 25-C , 28-C ) :   1.0723 B( 28-C , 29-H ) :   0.9725
B( 28-C , 30-H ) :   0.9758 B( 28-C , 31-H ) :   0.9708

Dispersion correction           -0.014120291
FINAL SINGLE POINT ENERGY     -1339.865971637358

DIPOLE MOMENT
-------------
                                X             Y             Z
Electronic contribution:     -9.50754      23.73952       1.54654
Nuclear contribution   :      9.62743     -24.34213      -1.35432
                        -----------------------------------------
Total Dipole Moment    :      0.11990      -0.60261       0.19222
                        -----------------------------------------
Magnitude (a.u.)       :      0.64378
Magnitude (Debye)      :      1.63637

Rotational constants in cm-1:     0.020391     0.007506     0.006530
Rotational constants in MHz :   611.294766   225.036586   195.763807

                             ****ORCA TERMINATED NORMALLY****
TOTAL RUN TIME: 0 days 0 hours 0 minutes 21 seconds 97 msec
