                         Program Version 4.2.1 -  RELEASE  -
|  1> ! wB97X-D3 SP def2-SVP
|  2> %pal
|  3> nprocs 24
|  4> end
|  5>
|  6> * xyz 0 1
|  7> S 	 -47.1135 	 19.1376 	 29.845
|  8> C 	 -47.6672 	 17.8226 	 28.8253
|  9> C 	 -49.0454 	 17.853 	 28.6668
| 10> C 	 -49.5367 	 19.0807 	 29.0725
| 11> C 	 -48.6699 	 19.8924 	 29.718
| 12> H 	 -50.6059 	 19.4226 	 28.8842
| 13> C 	 -49.9674 	 16.8658 	 27.9038
| 14> H 	 -49.571 	 16.8587 	 26.9325
| 15> H 	 -50.9383 	 17.3371 	 27.8872
| 16> C 	 -50.1045 	 15.4984 	 28.5632
| 17> H 	 -49.1394 	 14.9518 	 28.5573
| 18> H 	 -50.3605 	 15.5808 	 29.5647
| 19> C 	 -51.0522 	 14.5544 	 27.8496
| 20> H 	 -50.8405 	 14.437 	 26.7973
| 21> H 	 -50.8276 	 13.6041 	 28.2932
| 22> H 	 -52.0757 	 14.9098 	 27.8898
| 23> S 	 -50.4466 	 21.4093 	 31.0943
| 24> C 	 -50.0518 	 23.077 	 31.411
| 25> C 	 -48.932 	 23.4873 	 30.7593
| 26> C 	 -48.3005 	 22.4306 	 29.9994
| 27> C 	 -48.9453 	 21.1932 	 30.2534
| 28> H 	 -48.6673 	 24.5563 	 30.834
| 29> C 	 -47.0455 	 22.6856 	 29.2679
| 30> H 	 -47.1358 	 23.637 	 28.7364
| 31> H 	 -46.8919 	 21.895 	 28.4719
| 32> C 	 -45.6634 	 22.6501 	 29.9156
| 33> H 	 -44.8533 	 22.3595 	 29.1749
| 34> H 	 -45.7489 	 21.785 	 30.662
| 35> C 	 -45.3366 	 23.8427 	 30.7043
| 36> H 	 -46.0567 	 24.1435 	 31.427
| 37> H 	 -44.988 	 24.7147 	 30.146
| 38> H 	 -44.4176 	 23.5771 	 31.3475
| 39> H 	 -46.9564 	 17.0079 	 28.5597
| 40> H 	 -50.6873 	 23.7638 	 31.9271
| 41> *
| 42>
| 43>                          ****END OF INPUT****

CARTESIAN COORDINATES (ANGSTROEM)
---------------------------------
  S    -47.113500   19.137600   29.845000
  C    -47.667200   17.822600   28.825300
  C    -49.045400   17.853000   28.666800
  C    -49.536700   19.080700   29.072500
  C    -48.669900   19.892400   29.718000
  H    -50.605900   19.422600   28.884200
  C    -49.967400   16.865800   27.903800
  H    -49.571000   16.858700   26.932500
  H    -50.938300   17.337100   27.887200
  C    -50.104500   15.498400   28.563200
  H    -49.139400   14.951800   28.557300
  H    -50.360500   15.580800   29.564700
  C    -51.052200   14.554400   27.849600
  H    -50.840500   14.437000   26.797300
  H    -50.827600   13.604100   28.293200
  H    -52.075700   14.909800   27.889800
  S    -50.446600   21.409300   31.094300
  C    -50.051800   23.077000   31.411000
  C    -48.932000   23.487300   30.759300
  C    -48.300500   22.430600   29.999400
  C    -48.945300   21.193200   30.253400
  H    -48.667300   24.556300   30.834000
  C    -47.045500   22.685600   29.267900
  H    -47.135800   23.637000   28.736400
  H    -46.891900   21.895000   28.471900
  C    -45.663400   22.650100   29.915600
  H    -44.853300   22.359500   29.174900
  H    -45.748900   21.785000   30.662000
  C    -45.336600   23.842700   30.704300
  H    -46.056700   24.143500   31.427000
  H    -44.988000   24.714700   30.146000
  H    -44.417600   23.577100   31.347500
  H    -46.956400   17.007900   28.559700
  H    -50.687300   23.763800   31.927100

 Total Charge           Charge          ....    0
 Multiplicity           Mult            ....    1
 Number of Electrons    NEL             ....  134
 Basis Dimension        Dim             ....  322

ORBITAL ENERGIES
----------------

  NO   OCC          E(Eh)            E(eV)
   0   2.0000     -88.966800     -2420.9097
   1   2.0000     -88.966022     -2420.8885
   2   2.0000     -10.325308      -280.9659
   3   2.0000     -10.319522      -280.8085
   4   2.0000     -10.315726      -280.7052
   5   2.0000     -10.311341      -280.5859
   6   2.0000     -10.305966      -280.4396
   7   2.0000     -10.297747      -280.2159
   8   2.0000     -10.293732      -280.1067
   9   2.0000     -10.288592      -279.9668
  10   2.0000     -10.288413      -279.9619
  11   2.0000     -10.287538      -279.9381
  12   2.0000     -10.285910      -279.8938
  13   2.0000     -10.279954      -279.7318
  14   2.0000     -10.272676      -279.5337
  15   2.0000     -10.272468      -279.5281
  16   2.0000      -8.081406      -219.9062
  17   2.0000      -8.081119      -219.8984
  18   2.0000      -6.039751      -164.3500
  19   2.0000      -6.039548      -164.3445
  20   2.0000      -6.036026      -164.2486
  21   2.0000      -6.035656      -164.2385
  22   2.0000      -6.032262      -164.1462
  23   2.0000      -6.031868      -164.1355
  24   2.0000      -1.012451       -27.5502
  25   2.0000      -0.987719       -26.8772
  26   2.0000      -0.914293       -24.8792
  27   2.0000      -0.912631       -24.8339
  28   2.0000      -0.873598       -23.7718
  29   2.0000      -0.856866       -23.3165
  30   2.0000      -0.848971       -23.1017
  31   2.0000      -0.813098       -22.1255
  32   2.0000      -0.787015       -21.4158
  33   2.0000      -0.770776       -20.9739
  34   2.0000      -0.705594       -19.2002
  35   2.0000      -0.703506       -19.1434
  36   2.0000      -0.682628       -18.5753
  37   2.0000      -0.663528       -18.0555
  38   2.0000      -0.634109       -17.2550
  39   2.0000      -0.618265       -16.8239
  40   2.0000      -0.594859       -16.1869
  41   2.0000      -0.574217       -15.6252
  42   2.0000      -0.560449       -15.2506
  43   2.0000      -0.551111       -14.9965
  44   2.0000      -0.543427       -14.7874
  45   2.0000      -0.529222       -14.4009
  46   2.0000      -0.517537       -14.0829
  47   2.0000      -0.511294       -13.9130
  48   2.0000      -0.509057       -13.8521
  49   2.0000      -0.499140       -13.5823
  50   2.0000      -0.487841       -13.2748
  51   2.0000      -0.484992       -13.1973
  52   2.0000      -0.474305       -12.9065
  53   2.0000      -0.466158       -12.6848
  54   2.0000      -0.463583       -12.6147
  55   2.0000      -0.448924       -12.2158
  56   2.0000      -0.441009       -12.0005
  57   2.0000      -0.433710       -11.8019
  58   2.0000      -0.428945       -11.6722
  59   2.0000      -0.424125       -11.5410
  60   2.0000      -0.418464       -11.3870
  61   2.0000      -0.415384       -11.3032
  62   2.0000      -0.398699       -10.8491
  63   2.0000      -0.347154        -9.4466
  64   2.0000      -0.336375        -9.1532
  65   2.0000      -0.326603        -8.8873
  66   2.0000      -0.289110        -7.8671
  67   0.0000       0.027488         0.7480
  68   0.0000       0.074974         2.0401
  69   0.0000       0.107033         2.9125
  70   0.0000       0.111400         3.0314
  71   0.0000       0.134978         3.6729

MULLIKEN ATOMIC CHARGES
-----------------------
   0 S :    0.111872
   1 C :   -0.163106
   2 C :   -0.073972
   3 C :   -0.029987
   4 C :   -0.139429
   5 H :    0.032854
   6 C :    0.112972
   7 H :    0.028414
   8 H :    0.010088
   9 C :   -0.082529
  10 H :    0.022313
  11 H :    0.019350
  12 C :   -0.015350
  13 H :    0.017750
  14 H :    0.030834
  15 H :    0.031786
  16 S :    0.112064
  17 C :   -0.079309
  18 C :   -0.042184
  19 C :   -0.012307
  20 C :   -0.146606
  21 H :    0.031849
  22 C :    0.027235
  23 H :    0.021121
  24 H :    0.032499
  25 C :   -0.070437
  26 H :    0.045601
  27 H :    0.027266
  28 C :   -0.058350
  29 H :    0.029161
  30 H :    0.030322
  31 H :    0.030378
  32 H :    0.063857
  33 H :    0.043978
Sum of atomic charges:   -0.0000000

LOEWDIN ATOMIC CHARGES
----------------------
   0 S :    0.421066
   1 C :   -0.202475
   2 C :   -0.062240
   3 C :   -0.080727
   4 C :   -0.202830
   5 H :    0.038357
   6 C :   -0.017304
   7 H :    0.027853
   8 H :    0.027150
   9 C :   -0.036616
  10 H :    0.025992
  11 H :    0.017636
  12 C :   -0.060079
  13 H :    0.022263
  14 H :    0.028084
  15 H :    0.022972
  16 S :    0.419493
  17 C :   -0.185620
  18 C :   -0.072845
  19 C :   -0.052258
  20 C :   -0.201051
  21 H :    0.038038
  22 C :   -0.051962
  23 H :    0.030194
  24 H :    0.037205
  25 C :   -0.050209
  26 H :    0.035319
  27 H :    0.026395
  28 C :   -0.077010
  29 H :    0.020749
  30 H :    0.022657
  31 H :    0.036106
  32 H :    0.031284
  33 H :    0.024414

  Mayer bond orders larger than 0.100000
B(  0-S ,  1-C ) :   1.1520 B(  0-S ,  4-C ) :   1.1517 B(  1-C ,  2-C ) :   1.5748
B(  1-C ,  4-C ) :   0.1029 B(  1-C , 32-H ) :   0.9678 B(  2-C ,  3-C ) :   1.2794
B(  2-C ,  6-C ) :   1.0037 B(  3-C ,  4-C ) :   1.5782 B(  3-C ,  5-H ) :   0.9759
B(  4-C , 20-C ) :   1.0519 B(  6-C ,  7-H ) :   0.9377 B(  6-C ,  8-H ) :   0.9420
B(  6-C ,  9-C ) :   1.0694 B(  9-C , 10-H ) :   0.9569 B(  9-C , 11-H ) :   0.9559
B(  9-C , 12-C ) :   1.0898 B( 12-C , 13-H ) :   0.9718 B( 12-C , 14-H ) :   0.9742
B( 12-C , 15-H ) :   0.9744 B( 16-S , 17-C ) :   1.1460 B( 16-S , 20-C ) :   1.1500
B( 17-C , 18-C ) :   1.6347 B( 17-C , 33-H ) :   0.9666 B( 18-C , 19-C ) :   1.2190
B( 18-C , 21-H ) :   0.9836 B( 19-C , 20-C ) :   1.5456 B( 19-C , 22-C ) :   1.0889
B( 22-C , 23-H ) :   0.9269 B( 22-C , 24-H ) :   0.9210 B( 22-C , 25-C ) :   1.0598
B( 25-C , 26-H ) :   0.9532 B( 25-C , 27-H ) :   0.9466 B( 25-C , 28-C ) :   1.0951
B( 28-C , 29-H ) :   0.9697 B( 28-C , 30-H ) :   0.9712 B( 28-C , 31-H ) :   0.9679

Dispersion correction           -0.014126727
FINAL SINGLE POINT ENERGY     -1339.872378849259

DIPOLE MOMENT
-------------
                                X             Y             Z
Electronic contribution:     -4.27944       6.66744       8.14494
Nuclear contribution   :      4.23515      -6.69902      -8.43344
                        -----------------------------------------
Total Dipole Moment    :     -0.04429      -0.03159      -0.28850
                        -----------------------------------------
Magnitude (a.u.)       :      0.29359
Magnitude (Debye)      :      0.74624

Rotational constants in cm-1:     0.026031     0.007174     0.005905
Rotational constants in MHz :   780.398656   215.063642   177.041212

                             ****ORCA TERMINATED NORMALLY****
TOTAL RUN TIME: 0 days 0 hours 0 minutes 20 seconds 121 msec
