                         Program Version 4.2.1 -  RELEASE  -
|  1> ! wB97X-D3 SP def2-SVP
|  2> %pal
|  3> nprocs 24
|  4> end
|  5>
|  6> * xyz 0 1
|  7> S 	 -114.611 	 58.1546 	 -71.4688
|  8> C 	 -112.898 	 57.5933 	 -71.5968
|  9> C 	 -112.074 	 58.4666 	 -72.2638
| 10> C 	 -112.919 	 59.512 	 -72.8268
| 11> C 	 -114.25 	 59.3107 	 -72.7971
| 12> H 	 -112.651 	 60.3278 	 -73.434
| 13> C 	 -110.63 	 58.2278 	 -72.5869
| 14> H 	 -110.648 	 57.6592 	 -73.51
| 15> H 	 -110.379 	 57.5268 	 -71.8063
| 16> C 	 -109.743 	 59.4316 	 -72.4431
| 17> H 	 -108.784 	 59.1343 	 -72.7173
| 18> H 	 -109.911 	 60.2397 	 -73.1223
| 19> C 	 -109.52 	 60.1231 	 -71.0782
| 20> H 	 -109.036 	 61.0702 	 -71.1824
| 21> H 	 -110.43 	 60.584 	 -70.7494
| 22> H 	 -108.949 	 59.5233 	 -70.295
| 23> S 	 -116.506 	 60.7532 	 -72.4513
| 24> C 	 -117.251 	 61.6399 	 -73.7176
| 25> C 	 -116.492 	 61.5559 	 -74.8427
| 26> C 	 -115.237 	 60.8478 	 -74.6111
| 27> C 	 -115.243 	 60.1609 	 -73.3921
| 28> H 	 -116.826 	 62.0984 	 -75.6998
| 29> C 	 -114.213 	 60.7467 	 -75.7411
| 30> H 	 -113.217 	 61.0593 	 -75.3466
| 31> H 	 -114.508 	 61.4617 	 -76.476
| 32> C 	 -114.15 	 59.4126 	 -76.3832
| 33> H 	 -113.956 	 58.6955 	 -75.6337
| 34> H 	 -113.274 	 59.2479 	 -77.0649
| 35> C 	 -115.492 	 58.9401 	 -77.0082
| 36> H 	 -116.274 	 58.8788 	 -76.2056
| 37> H 	 -115.324 	 57.9589 	 -77.408
| 38> H 	 -115.852 	 59.7081 	 -77.7717
| 39> H 	 -112.457 	 56.6989 	 -71.0848
| 40> H 	 -118.171 	 62.1462 	 -73.6675
| 41> *
| 42>
| 43>                          ****END OF INPUT****

CARTESIAN COORDINATES (ANGSTROEM)
---------------------------------
  S    -114.611000   58.154600  -71.468800
  C    -112.898000   57.593300  -71.596800
  C    -112.074000   58.466600  -72.263800
  C    -112.919000   59.512000  -72.826800
  C    -114.250000   59.310700  -72.797100
  H    -112.651000   60.327800  -73.434000
  C    -110.630000   58.227800  -72.586900
  H    -110.648000   57.659200  -73.510000
  H    -110.379000   57.526800  -71.806300
  C    -109.743000   59.431600  -72.443100
  H    -108.784000   59.134300  -72.717300
  H    -109.911000   60.239700  -73.122300
  C    -109.520000   60.123100  -71.078200
  H    -109.036000   61.070200  -71.182400
  H    -110.430000   60.584000  -70.749400
  H    -108.949000   59.523300  -70.295000
  S    -116.506000   60.753200  -72.451300
  C    -117.251000   61.639900  -73.717600
  C    -116.492000   61.555900  -74.842700
  C    -115.237000   60.847800  -74.611100
  C    -115.243000   60.160900  -73.392100
  H    -116.826000   62.098400  -75.699800
  C    -114.213000   60.746700  -75.741100
  H    -113.217000   61.059300  -75.346600
  H    -114.508000   61.461700  -76.476000
  C    -114.150000   59.412600  -76.383200
  H    -113.956000   58.695500  -75.633700
  H    -113.274000   59.247900  -77.064900
  C    -115.492000   58.940100  -77.008200
  H    -116.274000   58.878800  -76.205600
  H    -115.324000   57.958900  -77.408000
  H    -115.852000   59.708100  -77.771700
  H    -112.457000   56.698900  -71.084800
  H    -118.171000   62.146200  -73.667500

 Total Charge           Charge          ....    0
 Multiplicity           Mult            ....    1
 Number of Electrons    NEL             ....  134
 Basis Dimension        Dim             ....  322

ORBITAL ENERGIES
----------------

  NO   OCC          E(Eh)            E(eV)
   0   2.0000     -88.962581     -2420.7949
   1   2.0000     -88.962480     -2420.7922
   2   2.0000     -10.327518      -281.0261
   3   2.0000     -10.322654      -280.8937
   4   2.0000     -10.318738      -280.7871
   5   2.0000     -10.309163      -280.5266
   6   2.0000     -10.305741      -280.4335
   7   2.0000     -10.302527      -280.3460
   8   2.0000     -10.295261      -280.1483
   9   2.0000     -10.292191      -280.0648
  10   2.0000     -10.288932      -279.9761
  11   2.0000     -10.288715      -279.9702
  12   2.0000     -10.283959      -279.8407
  13   2.0000     -10.281027      -279.7610
  14   2.0000     -10.279348      -279.7153
  15   2.0000     -10.277608      -279.6679
  16   2.0000      -8.079359      -219.8505
  17   2.0000      -8.075978      -219.7585
  18   2.0000      -6.037772      -164.2961
  19   2.0000      -6.034757      -164.2141
  20   2.0000      -6.033469      -164.1790
  21   2.0000      -6.031199      -164.1173
  22   2.0000      -6.030191      -164.0898
  23   2.0000      -6.025971      -163.9750
  24   2.0000      -1.015511       -27.6335
  25   2.0000      -0.984549       -26.7909
  26   2.0000      -0.919668       -25.0254
  27   2.0000      -0.914179       -24.8761
  28   2.0000      -0.877137       -23.8681
  29   2.0000      -0.845702       -23.0127
  30   2.0000      -0.841627       -22.9018
  31   2.0000      -0.820526       -22.3276
  32   2.0000      -0.787979       -21.4420
  33   2.0000      -0.775710       -21.1081
  34   2.0000      -0.718559       -19.5530
  35   2.0000      -0.701760       -19.0959
  36   2.0000      -0.686290       -18.6749
  37   2.0000      -0.667136       -18.1537
  38   2.0000      -0.638295       -17.3689
  39   2.0000      -0.620917       -16.8960
  40   2.0000      -0.591116       -16.0851
  41   2.0000      -0.570119       -15.5137
  42   2.0000      -0.566448       -15.4138
  43   2.0000      -0.555871       -15.1260
  44   2.0000      -0.546653       -14.8752
  45   2.0000      -0.541410       -14.7325
  46   2.0000      -0.523827       -14.2540
  47   2.0000      -0.513922       -13.9845
  48   2.0000      -0.501882       -13.6569
  49   2.0000      -0.495375       -13.4798
  50   2.0000      -0.488371       -13.2892
  51   2.0000      -0.474858       -12.9215
  52   2.0000      -0.471166       -12.8211
  53   2.0000      -0.467091       -12.7102
  54   2.0000      -0.460567       -12.5327
  55   2.0000      -0.452261       -12.3066
  56   2.0000      -0.443973       -12.0811
  57   2.0000      -0.442166       -12.0319
  58   2.0000      -0.428882       -11.6705
  59   2.0000      -0.424038       -11.5387
  60   2.0000      -0.416178       -11.3248
  61   2.0000      -0.412294       -11.2191
  62   2.0000      -0.404652       -11.0111
  63   2.0000      -0.356578        -9.7030
  64   2.0000      -0.328947        -8.9511
  65   2.0000      -0.323517        -8.8034
  66   2.0000      -0.289919        -7.8891
  67   0.0000       0.021742         0.5916
  68   0.0000       0.074163         2.0181
  69   0.0000       0.102923         2.8007
  70   0.0000       0.117884         3.2078
  71   0.0000       0.139662         3.8004

MULLIKEN ATOMIC CHARGES
-----------------------
   0 S :    0.081812
   1 C :   -0.130672
   2 C :   -0.098264
   3 C :    0.030189
   4 C :   -0.130099
   5 H :   -0.020243
   6 C :    0.128472
   7 H :    0.055020
   8 H :    0.006300
   9 C :   -0.044245
  10 H :    0.007499
  11 H :    0.019106
  12 C :   -0.055586
  13 H :    0.016439
  14 H :    0.023415
  15 H :    0.053940
  16 S :    0.108134
  17 C :   -0.068531
  18 C :   -0.030054
  19 C :   -0.110296
  20 C :   -0.123864
  21 H :    0.013464
  22 C :    0.101620
  23 H :    0.033678
  24 H :    0.005346
  25 C :   -0.061891
  26 H :    0.016910
  27 H :    0.029014
  28 C :   -0.077690
  29 H :    0.054380
  30 H :    0.036465
  31 H :    0.034522
  32 H :    0.055882
  33 H :    0.039828
Sum of atomic charges:    0.0000000

LOEWDIN ATOMIC CHARGES
----------------------
   0 S :    0.340898
   1 C :   -0.179927
   2 C :   -0.060977
   3 C :   -0.053436
   4 C :   -0.169907
   5 H :    0.018863
   6 C :   -0.026796
   7 H :    0.042993
   8 H :    0.033081
   9 C :   -0.041266
  10 H :    0.020387
  11 H :    0.023982
  12 C :   -0.070539
  13 H :    0.028262
  14 H :    0.025364
  15 H :    0.034604
  16 S :    0.446168
  17 C :   -0.189625
  18 C :   -0.070323
  19 C :   -0.055856
  20 C :   -0.220682
  21 H :    0.029101
  22 C :   -0.032372
  23 H :    0.031579
  24 H :    0.024224
  25 C :   -0.048102
  26 H :    0.018270
  27 H :    0.027052
  28 C :   -0.065558
  29 H :    0.032430
  30 H :    0.023500
  31 H :    0.026155
  32 H :    0.034903
  33 H :    0.023549

  Mayer bond orders larger than 0.100000
B(  0-S ,  1-C ) :   1.1019 B(  0-S ,  4-C ) :   1.0914 B(  1-C ,  2-C ) :   1.6824
B(  1-C , 32-H ) :   0.9563 B(  2-C ,  3-C ) :   1.1492 B(  2-C ,  6-C ) :   1.0081
B(  3-C ,  4-C ) :   1.6477 B(  3-C ,  5-H ) :   0.9989 B(  4-C , 20-C ) :   1.0822
B(  6-C ,  7-H ) :   0.9397 B(  6-C ,  8-H ) :   0.9250 B(  6-C ,  9-C ) :   1.0694
B(  9-C , 10-H ) :   0.9484 B(  9-C , 11-H ) :   0.9526 B(  9-C , 12-C ) :   1.0913
B( 12-C , 13-H ) :   0.9648 B( 12-C , 14-H ) :   0.9660 B( 12-C , 15-H ) :   0.9744
B( 16-S , 17-C ) :   1.1623 B( 16-S , 20-C ) :   1.1653 B( 17-C , 18-C ) :   1.6082
B( 17-C , 33-H ) :   0.9741 B( 18-C , 19-C ) :   1.2411 B( 18-C , 21-H ) :   0.9940
B( 19-C , 20-C ) :   1.5520 B( 19-C , 22-C ) :   1.0460 B( 22-C , 23-H ) :   0.9295
B( 22-C , 24-H ) :   0.9288 B( 22-C , 25-C ) :   1.0785 B( 25-C , 26-H ) :   0.9491
B( 25-C , 27-H ) :   0.9534 B( 25-C , 28-C ) :   1.0715 B( 28-C , 29-H ) :   0.9714
B( 28-C , 30-H ) :   0.9731 B( 28-C , 31-H ) :   0.9771

Dispersion correction           -0.015128827
FINAL SINGLE POINT ENERGY     -1339.844468228613

DIPOLE MOMENT
-------------
                                X             Y             Z
Electronic contribution:    -20.00387      -0.22000      13.29512
Nuclear contribution   :     20.63968       0.43260     -13.73456
                        -----------------------------------------
Total Dipole Moment    :      0.63581       0.21260      -0.43944
                        -----------------------------------------
Magnitude (a.u.)       :      0.80160
Magnitude (Debye)      :      2.03750

Rotational constants in cm-1:     0.019757     0.008896     0.007625
Rotational constants in MHz :   592.289899   266.699142   228.586303

                             ****ORCA TERMINATED NORMALLY****
TOTAL RUN TIME: 0 days 0 hours 0 minutes 22 seconds 564 msec
