                         Program Version 4.2.1 -  RELEASE  -
|  1> ! wB97X-D3 SP def2-SVP
|  2> %pal
|  3> nprocs 24
|  4> end
|  5>
|  6> * xyz 0 1
|  7> S 	 -35.9857 	 -48.9466 	 -75.9509
|  8> C 	 -34.3664 	 -49.3323 	 -76.3904
|  9> C 	 -33.594 	 -48.1951 	 -76.5811
| 10> C 	 -34.3418 	 -46.9685 	 -76.4313
| 11> C 	 -35.7061 	 -47.2405 	 -76.1918
| 12> H 	 -33.8258 	 -46.0389 	 -76.6
| 13> C 	 -32.1082 	 -48.1681 	 -76.8724
| 14> H 	 -31.8954 	 -47.6396 	 -77.8159
| 15> H 	 -31.9332 	 -49.1926 	 -77.2085
| 16> C 	 -31.193 	 -47.5611 	 -75.7562
| 17> H 	 -30.196 	 -47.3827 	 -76.1688
| 18> H 	 -31.6904 	 -46.6007 	 -75.5598
| 19> C 	 -31.0249 	 -48.5184 	 -74.5253
| 20> H 	 -31.9729 	 -48.9763 	 -74.1446
| 21> H 	 -30.3668 	 -49.4203 	 -74.6575
| 22> H 	 -30.6427 	 -47.9727 	 -73.691
| 23> S 	 -37.5377 	 -46.4681 	 -74.4469
| 24> C 	 -38.658 	 -45.1546 	 -74.7765
| 25> C 	 -38.4272 	 -44.5885 	 -76.0499
| 26> C 	 -37.1899 	 -45.1153 	 -76.6249
| 27> C 	 -36.7632 	 -46.2667 	 -75.9667
| 28> H 	 -39.0138 	 -43.786 	 -76.3719
| 29> C 	 -36.6744 	 -44.6749 	 -77.9691
| 30> H 	 -36.21 	 -45.464 	 -78.5389
| 31> H 	 -35.9048 	 -43.9541 	 -77.7802
| 32> C 	 -37.684 	 -44.1242 	 -79.0043
| 33> H 	 -37.9717 	 -43.1507 	 -78.5919
| 34> H 	 -38.5389 	 -44.8474 	 -79.1026
| 35> C 	 -37.0898 	 -43.9692 	 -80.4322
| 36> H 	 -37.7143 	 -43.3665 	 -81.0028
| 37> H 	 -37.149 	 -44.9081 	 -81.0138
| 38> H 	 -36.1422 	 -43.3578 	 -80.4999
| 39> H 	 -34.1172 	 -50.3783 	 -76.5405
| 40> H 	 -39.4066 	 -44.7309 	 -74.162
| 41> *
| 42>
| 43>                          ****END OF INPUT****

CARTESIAN COORDINATES (ANGSTROEM)
---------------------------------
  S    -35.985700  -48.946600  -75.950900
  C    -34.366400  -49.332300  -76.390400
  C    -33.594000  -48.195100  -76.581100
  C    -34.341800  -46.968500  -76.431300
  C    -35.706100  -47.240500  -76.191800
  H    -33.825800  -46.038900  -76.600000
  C    -32.108200  -48.168100  -76.872400
  H    -31.895400  -47.639600  -77.815900
  H    -31.933200  -49.192600  -77.208500
  C    -31.193000  -47.561100  -75.756200
  H    -30.196000  -47.382700  -76.168800
  H    -31.690400  -46.600700  -75.559800
  C    -31.024900  -48.518400  -74.525300
  H    -31.972900  -48.976300  -74.144600
  H    -30.366800  -49.420300  -74.657500
  H    -30.642700  -47.972700  -73.691000
  S    -37.537700  -46.468100  -74.446900
  C    -38.658000  -45.154600  -74.776500
  C    -38.427200  -44.588500  -76.049900
  C    -37.189900  -45.115300  -76.624900
  C    -36.763200  -46.266700  -75.966700
  H    -39.013800  -43.786000  -76.371900
  C    -36.674400  -44.674900  -77.969100
  H    -36.210000  -45.464000  -78.538900
  H    -35.904800  -43.954100  -77.780200
  C    -37.684000  -44.124200  -79.004300
  H    -37.971700  -43.150700  -78.591900
  H    -38.538900  -44.847400  -79.102600
  C    -37.089800  -43.969200  -80.432200
  H    -37.714300  -43.366500  -81.002800
  H    -37.149000  -44.908100  -81.013800
  H    -36.142200  -43.357800  -80.499900
  H    -34.117200  -50.378300  -76.540500
  H    -39.406600  -44.730900  -74.162000

 Total Charge           Charge          ....    0
 Multiplicity           Mult            ....    1
 Number of Electrons    NEL             ....  134
 Basis Dimension        Dim             ....  322

ORBITAL ENERGIES
----------------

  NO   OCC          E(Eh)            E(eV)
   0   2.0000     -88.967296     -2420.9232
   1   2.0000     -88.964514     -2420.8475
   2   2.0000     -10.332955      -281.1740
   3   2.0000     -10.322145      -280.8798
   4   2.0000     -10.314767      -280.6791
   5   2.0000     -10.313378      -280.6413
   6   2.0000     -10.305141      -280.4172
   7   2.0000     -10.300471      -280.2901
   8   2.0000     -10.297690      -280.2144
   9   2.0000     -10.296683      -280.1870
  10   2.0000     -10.294964      -280.1402
  11   2.0000     -10.292560      -280.0748
  12   2.0000     -10.291368      -280.0424
  13   2.0000     -10.282575      -279.8031
  14   2.0000     -10.280928      -279.7583
  15   2.0000     -10.280129      -279.7365
  16   2.0000      -8.082696      -219.9414
  17   2.0000      -8.079572      -219.8563
  18   2.0000      -6.041139      -164.3877
  19   2.0000      -6.038080      -164.3045
  20   2.0000      -6.037047      -164.2764
  21   2.0000      -6.033963      -164.1925
  22   2.0000      -6.033550      -164.1812
  23   2.0000      -6.030370      -164.0947
  24   2.0000      -1.007176       -27.4067
  25   2.0000      -0.981476       -26.7073
  26   2.0000      -0.907018       -24.6812
  27   2.0000      -0.903384       -24.5823
  28   2.0000      -0.866371       -23.5752
  29   2.0000      -0.849043       -23.1036
  30   2.0000      -0.842492       -22.9254
  31   2.0000      -0.811889       -22.0926
  32   2.0000      -0.780514       -21.2389
  33   2.0000      -0.771091       -20.9825
  34   2.0000      -0.711567       -19.3627
  35   2.0000      -0.697395       -18.9771
  36   2.0000      -0.692529       -18.8447
  37   2.0000      -0.657098       -17.8805
  38   2.0000      -0.640244       -17.4219
  39   2.0000      -0.623850       -16.9758
  40   2.0000      -0.593699       -16.1554
  41   2.0000      -0.573467       -15.6048
  42   2.0000      -0.563586       -15.3360
  43   2.0000      -0.543455       -14.7882
  44   2.0000      -0.536085       -14.5876
  45   2.0000      -0.522146       -14.2083
  46   2.0000      -0.517249       -14.0751
  47   2.0000      -0.508991       -13.8503
  48   2.0000      -0.499565       -13.5938
  49   2.0000      -0.494098       -13.4451
  50   2.0000      -0.488355       -13.2888
  51   2.0000      -0.482739       -13.1360
  52   2.0000      -0.467249       -12.7145
  53   2.0000      -0.462285       -12.5794
  54   2.0000      -0.454593       -12.3701
  55   2.0000      -0.451223       -12.2784
  56   2.0000      -0.445226       -12.1152
  57   2.0000      -0.437241       -11.8979
  58   2.0000      -0.430091       -11.7034
  59   2.0000      -0.424660       -11.5556
  60   2.0000      -0.419552       -11.4166
  61   2.0000      -0.417935       -11.3726
  62   2.0000      -0.405702       -11.0397
  63   2.0000      -0.346749        -9.4355
  64   2.0000      -0.329300        -8.9607
  65   2.0000      -0.326678        -8.8894
  66   2.0000      -0.287340        -7.8189
  67   0.0000       0.032262         0.8779
  68   0.0000       0.068076         1.8525
  69   0.0000       0.114478         3.1151
  70   0.0000       0.120376         3.2756
  71   0.0000       0.131504         3.5784

MULLIKEN ATOMIC CHARGES
-----------------------
   0 S :    0.116695
   1 C :   -0.133384
   2 C :   -0.104317
   3 C :    0.047202
   4 C :   -0.147769
   5 H :    0.014389
   6 C :    0.046719
   7 H :    0.029292
   8 H :    0.005532
   9 C :   -0.041764
  10 H :    0.037957
  11 H :    0.034216
  12 C :   -0.071341
  13 H :    0.038441
  14 H :    0.038558
  15 H :    0.029482
  16 S :    0.111307
  17 C :   -0.072220
  18 C :   -0.031391
  19 C :   -0.026826
  20 C :   -0.146154
  21 H :    0.005167
  22 C :    0.057299
  23 H :    0.026035
  24 H :    0.024228
  25 C :   -0.114626
  26 H :    0.030809
  27 H :    0.047371
  28 C :   -0.034529
  29 H :    0.006602
  30 H :    0.043593
  31 H :    0.038212
  32 H :    0.054839
  33 H :    0.040376
Sum of atomic charges:   -0.0000000

LOEWDIN ATOMIC CHARGES
----------------------
   0 S :    0.423446
   1 C :   -0.209450
   2 C :   -0.064065
   3 C :   -0.057508
   4 C :   -0.197430
   5 H :    0.030035
   6 C :   -0.041583
   7 H :    0.031684
   8 H :    0.026092
   9 C :   -0.032059
  10 H :    0.027905
  11 H :    0.027658
  12 C :   -0.075503
  13 H :    0.030088
  14 H :    0.031480
  15 H :    0.021238
  16 S :    0.420294
  17 C :   -0.184219
  18 C :   -0.059012
  19 C :   -0.055165
  20 C :   -0.208309
  21 H :    0.021509
  22 C :   -0.039139
  23 H :    0.029150
  24 H :    0.028297
  25 C :   -0.039514
  26 H :    0.019302
  27 H :    0.033415
  28 C :   -0.074461
  29 H :    0.017994
  30 H :    0.033737
  31 H :    0.034109
  32 H :    0.027805
  33 H :    0.022178

  Mayer bond orders larger than 0.100000
B(  0-S ,  1-C ) :   1.1449 B(  0-S ,  4-C ) :   1.1738 B(  1-C ,  2-C ) :   1.5854
B(  1-C , 32-H ) :   0.9698 B(  2-C ,  3-C ) :   1.2617 B(  2-C ,  6-C ) :   1.0284
B(  3-C ,  4-C ) :   1.5249 B(  3-C ,  5-H ) :   0.9940 B(  4-C , 20-C ) :   1.0281
B(  6-C ,  7-H ) :   0.9397 B(  6-C ,  8-H ) :   0.9407 B(  6-C ,  9-C ) :   1.0531
B(  9-C , 10-H ) :   0.9570 B(  9-C , 11-H ) :   0.9574 B(  9-C , 12-C ) :   1.0632
B( 12-C , 13-H ) :   0.9784 B( 12-C , 14-H ) :   0.9766 B( 12-C , 15-H ) :   0.9759
B( 16-S , 17-C ) :   1.1498 B( 16-S , 20-C ) :   1.1545 B( 17-C , 18-C ) :   1.6130
B( 17-C , 33-H ) :   0.9705 B( 18-C , 19-C ) :   1.2286 B( 18-C , 21-H ) :   0.9927
B( 19-C , 20-C ) :   1.5963 B( 19-C , 22-C ) :   1.0423 B( 22-C , 23-H ) :   0.9494
B( 22-C , 24-H ) :   0.9164 B( 22-C , 25-C ) :   1.0739 B( 25-C , 26-H ) :   0.9484
B( 25-C , 27-H ) :   0.9581 B( 25-C , 28-C ) :   1.0938 B( 28-C , 29-H ) :   0.9672
B( 28-C , 30-H ) :   0.9710 B( 28-C , 31-H ) :   0.9709

Dispersion correction           -0.013752158
FINAL SINGLE POINT ENERGY     -1339.867416204323

DIPOLE MOMENT
-------------
                                X             Y             Z
Electronic contribution:    -15.87932      -9.08484      14.02993
Nuclear contribution   :     16.20540       9.44314     -14.44323
                        -----------------------------------------
Total Dipole Moment    :      0.32608       0.35830      -0.41329
                        -----------------------------------------
Magnitude (a.u.)       :      0.63681
Magnitude (Debye)      :      1.61863

Rotational constants in cm-1:     0.018593     0.008011     0.006568
Rotational constants in MHz :   557.402269   240.156179   196.891776

                             ****ORCA TERMINATED NORMALLY****
TOTAL RUN TIME: 0 days 0 hours 0 minutes 20 seconds 906 msec
