                         Program Version 4.2.1 -  RELEASE  -
|  1> ! wB97X-D3 SP def2-SVP
|  2> %pal
|  3> nprocs 24
|  4> end
|  5>
|  6> * xyz 0 1
|  7> S 	 -87.0177 	 -4.35467 	 -62.7918
|  8> C 	 -87.7351 	 -4.04298 	 -64.3962
|  9> C 	 -86.9102 	 -3.42446 	 -65.2545
| 10> C 	 -85.6048 	 -3.27743 	 -64.6477
| 11> C 	 -85.4597 	 -3.81294 	 -63.4089
| 12> H 	 -84.7633 	 -2.67522 	 -64.9325
| 13> C 	 -87.4012 	 -2.85721 	 -66.5892
| 14> H 	 -86.692 	 -1.96334 	 -66.6958
| 15> H 	 -88.4274 	 -2.49775 	 -66.5307
| 16> C 	 -87.1556 	 -3.78831 	 -67.8313
| 17> H 	 -87.4743 	 -3.19431 	 -68.6197
| 18> H 	 -86.0275 	 -3.97697 	 -67.9174
| 19> C 	 -87.8535 	 -5.22511 	 -67.8556
| 20> H 	 -87.3267 	 -5.84058 	 -68.624
| 21> H 	 -87.7533 	 -5.59006 	 -66.8007
| 22> H 	 -88.842 	 -5.08944 	 -68.0836
| 23> S 	 -84.1257 	 -2.80586 	 -61.1073
| 24> C 	 -82.3853 	 -2.98266 	 -61.1053
| 25> C 	 -81.947 	 -3.89786 	 -62.0996
| 26> C 	 -82.9698 	 -4.30426 	 -62.9873
| 27> C 	 -84.2274 	 -3.7641 	 -62.614
| 28> H 	 -80.8643 	 -4.10592 	 -62.1771
| 29> C 	 -82.7341 	 -5.14597 	 -64.228
| 30> H 	 -83.6237 	 -5.18468 	 -64.7979
| 31> H 	 -82.6312 	 -6.18878 	 -63.8859
| 32> C 	 -81.5839 	 -4.77967 	 -65.0458
| 33> H 	 -80.7783 	 -5.44278 	 -64.9528
| 34> H 	 -81.238 	 -3.77387 	 -64.8903
| 35> C 	 -81.8992 	 -4.87609 	 -66.5423
| 36> H 	 -81.0049 	 -4.48533 	 -67.1208
| 37> H 	 -82.6803 	 -4.26178 	 -66.8199
| 38> H 	 -82.1314 	 -5.84741 	 -66.8693
| 39> H 	 -88.7762 	 -4.18848 	 -64.7011
| 40> H 	 -81.8359 	 -2.51741 	 -60.2626
| 41> *
| 42>
| 43>                          ****END OF INPUT****

CARTESIAN COORDINATES (ANGSTROEM)
---------------------------------
  S    -87.017700   -4.354670  -62.791800
  C    -87.735100   -4.042980  -64.396200
  C    -86.910200   -3.424460  -65.254500
  C    -85.604800   -3.277430  -64.647700
  C    -85.459700   -3.812940  -63.408900
  H    -84.763300   -2.675220  -64.932500
  C    -87.401200   -2.857210  -66.589200
  H    -86.692000   -1.963340  -66.695800
  H    -88.427400   -2.497750  -66.530700
  C    -87.155600   -3.788310  -67.831300
  H    -87.474300   -3.194310  -68.619700
  H    -86.027500   -3.976970  -67.917400
  C    -87.853500   -5.225110  -67.855600
  H    -87.326700   -5.840580  -68.624000
  H    -87.753300   -5.590060  -66.800700
  H    -88.842000   -5.089440  -68.083600
  S    -84.125700   -2.805860  -61.107300
  C    -82.385300   -2.982660  -61.105300
  C    -81.947000   -3.897860  -62.099600
  C    -82.969800   -4.304260  -62.987300
  C    -84.227400   -3.764100  -62.614000
  H    -80.864300   -4.105920  -62.177100
  C    -82.734100   -5.145970  -64.228000
  H    -83.623700   -5.184680  -64.797900
  H    -82.631200   -6.188780  -63.885900
  C    -81.583900   -4.779670  -65.045800
  H    -80.778300   -5.442780  -64.952800
  H    -81.238000   -3.773870  -64.890300
  C    -81.899200   -4.876090  -66.542300
  H    -81.004900   -4.485330  -67.120800
  H    -82.680300   -4.261780  -66.819900
  H    -82.131400   -5.847410  -66.869300
  H    -88.776200   -4.188480  -64.701100
  H    -81.835900   -2.517410  -60.262600

 Total Charge           Charge          ....    0
 Multiplicity           Mult            ....    1
 Number of Electrons    NEL             ....  134
 Basis Dimension        Dim             ....  322

ORBITAL ENERGIES
----------------

  NO   OCC          E(Eh)            E(eV)
   0   2.0000     -88.968713     -2420.9618
   1   2.0000     -88.963276     -2420.8138
   2   2.0000     -10.329666      -281.0845
   3   2.0000     -10.326825      -281.0072
   4   2.0000     -10.326377      -280.9950
   5   2.0000     -10.311014      -280.5770
   6   2.0000     -10.308130      -280.4985
   7   2.0000     -10.303894      -280.3832
   8   2.0000     -10.301844      -280.3274
   9   2.0000     -10.299363      -280.2599
  10   2.0000     -10.292159      -280.0639
  11   2.0000     -10.290993      -280.0322
  12   2.0000     -10.282113      -279.7905
  13   2.0000     -10.280118      -279.7362
  14   2.0000     -10.273680      -279.5610
  15   2.0000     -10.269798      -279.4554
  16   2.0000      -8.082829      -219.9450
  17   2.0000      -8.077546      -219.8012
  18   2.0000      -6.041196      -164.3893
  19   2.0000      -6.037432      -164.2869
  20   2.0000      -6.036220      -164.2539
  21   2.0000      -6.033775      -164.1874
  22   2.0000      -6.032331      -164.1481
  23   2.0000      -6.027955      -164.0290
  24   2.0000      -1.002253       -27.2727
  25   2.0000      -0.980045       -26.6684
  26   2.0000      -0.921780       -25.0829
  27   2.0000      -0.903684       -24.5905
  28   2.0000      -0.864647       -23.5282
  29   2.0000      -0.853847       -23.2343
  30   2.0000      -0.840341       -22.8668
  31   2.0000      -0.810312       -22.0497
  32   2.0000      -0.786506       -21.4019
  33   2.0000      -0.775808       -21.1108
  34   2.0000      -0.708931       -19.2910
  35   2.0000      -0.700045       -19.0492
  36   2.0000      -0.692073       -18.8323
  37   2.0000      -0.651175       -17.7194
  38   2.0000      -0.640264       -17.4225
  39   2.0000      -0.615659       -16.7529
  40   2.0000      -0.601052       -16.3555
  41   2.0000      -0.576573       -15.6893
  42   2.0000      -0.566892       -15.4259
  43   2.0000      -0.542811       -14.7706
  44   2.0000      -0.537295       -14.6205
  45   2.0000      -0.530026       -14.4227
  46   2.0000      -0.519386       -14.1332
  47   2.0000      -0.516444       -14.0532
  48   2.0000      -0.501205       -13.6385
  49   2.0000      -0.489354       -13.3160
  50   2.0000      -0.485583       -13.2134
  51   2.0000      -0.481487       -13.1019
  52   2.0000      -0.469595       -12.7783
  53   2.0000      -0.466816       -12.7027
  54   2.0000      -0.461633       -12.5617
  55   2.0000      -0.446033       -12.1372
  56   2.0000      -0.442259       -12.0345
  57   2.0000      -0.439824       -11.9682
  58   2.0000      -0.436174       -11.8689
  59   2.0000      -0.427939       -11.6448
  60   2.0000      -0.422717       -11.5027
  61   2.0000      -0.418202       -11.3799
  62   2.0000      -0.407708       -11.0943
  63   2.0000      -0.340449        -9.2641
  64   2.0000      -0.333591        -9.0775
  65   2.0000      -0.329152        -8.9567
  66   2.0000      -0.294010        -8.0004
  67   0.0000       0.031830         0.8661
  68   0.0000       0.062574         1.7027
  69   0.0000       0.107279         2.9192
  70   0.0000       0.118674         3.2293
  71   0.0000       0.125275         3.4089

MULLIKEN ATOMIC CHARGES
-----------------------
   0 S :    0.098310
   1 C :   -0.119681
   2 C :   -0.076198
   3 C :    0.028708
   4 C :   -0.177971
   5 H :    0.011587
   6 C :    0.028686
   7 H :    0.042324
   8 H :    0.037418
   9 C :   -0.085924
  10 H :    0.022473
  11 H :    0.039110
  12 C :   -0.045799
  13 H :    0.051861
  14 H :    0.049932
  15 H :    0.017957
  16 S :    0.111614
  17 C :   -0.129673
  18 C :   -0.037770
  19 C :   -0.053754
  20 C :   -0.166251
  21 H :    0.037623
  22 C :    0.133384
  23 H :    0.010955
  24 H :    0.036078
  25 C :   -0.042681
  26 H :    0.014682
  27 H :    0.030665
  28 C :   -0.058236
  29 H :    0.031727
  30 H :    0.013376
  31 H :    0.023488
  32 H :    0.043320
  33 H :    0.078658
Sum of atomic charges:   -0.0000000

LOEWDIN ATOMIC CHARGES
----------------------
   0 S :    0.372636
   1 C :   -0.185205
   2 C :   -0.070549
   3 C :   -0.064249
   4 C :   -0.188082
   5 H :    0.030274
   6 C :   -0.031475
   7 H :    0.044393
   8 H :    0.029225
   9 C :   -0.037125
  10 H :    0.011033
  11 H :    0.030442
  12 C :   -0.063090
  13 H :    0.035451
  14 H :    0.034144
  15 H :    0.008616
  16 S :    0.396127
  17 C :   -0.187297
  18 C :   -0.076819
  19 C :   -0.043100
  20 C :   -0.199431
  21 H :    0.038287
  22 C :   -0.030788
  23 H :    0.025212
  24 H :    0.043729
  25 C :   -0.039230
  26 H :    0.020212
  27 H :    0.025018
  28 C :   -0.051374
  29 H :    0.032767
  30 H :    0.010104
  31 H :    0.016031
  32 H :    0.029944
  33 H :    0.034170

  Mayer bond orders larger than 0.100000
B(  0-S ,  1-C ) :   1.1138 B(  0-S ,  4-C ) :   1.1187 B(  1-C ,  2-C ) :   1.6736
B(  1-C , 32-H ) :   0.9595 B(  2-C ,  3-C ) :   1.1872 B(  2-C ,  6-C ) :   1.0045
B(  3-C ,  4-C ) :   1.6345 B(  3-C ,  5-H ) :   0.9927 B(  4-C , 20-C ) :   1.0341
B(  6-C ,  7-H ) :   0.9419 B(  6-C ,  8-H ) :   0.9489 B(  6-C ,  9-C ) :   1.0635
B(  9-C , 10-H ) :   0.9602 B(  9-C , 11-H ) :   0.9612 B(  9-C , 12-C ) :   1.0615
B( 12-C , 13-H ) :   0.9771 B( 12-C , 14-H ) :   0.9745 B( 12-C , 15-H ) :   0.9786
B( 16-S , 17-C ) :   1.1776 B( 16-S , 20-C ) :   1.1420 B( 17-C , 18-C ) :   1.5635
B( 17-C , 20-C ) :   0.1115 B( 17-C , 33-H ) :   0.9649 B( 18-C , 19-C ) :   1.2611
B( 18-C , 21-H ) :   0.9860 B( 19-C , 20-C ) :   1.5678 B( 19-C , 22-C ) :   1.0490
B( 22-C , 23-H ) :   0.9352 B( 22-C , 24-H ) :   0.9114 B( 22-C , 25-C ) :   1.0527
B( 25-C , 26-H ) :   0.9432 B( 25-C , 27-H ) :   0.9653 B( 25-C , 28-C ) :   1.0975
B( 28-C , 29-H ) :   0.9736 B( 28-C , 30-H ) :   0.9761 B( 28-C , 31-H ) :   0.9751

Dispersion correction           -0.014622630
FINAL SINGLE POINT ENERGY     -1339.857420477964

DIPOLE MOMENT
-------------
                                X             Y             Z
Electronic contribution:     -5.06648       5.99934      29.85350
Nuclear contribution   :      5.36593      -5.88755     -30.45558
                        -----------------------------------------
Total Dipole Moment    :      0.29946       0.11179      -0.60207
                        -----------------------------------------
Magnitude (a.u.)       :      0.68166
Magnitude (Debye)      :      1.73264

Rotational constants in cm-1:     0.018195     0.009333     0.006767
Rotational constants in MHz :   545.480446   279.802455   202.866246

                             ****ORCA TERMINATED NORMALLY****
TOTAL RUN TIME: 0 days 0 hours 0 minutes 22 seconds 6 msec
