                         Program Version 4.2.1 -  RELEASE  -
|  1> ! wB97X-D3 SP def2-SVP
|  2> %pal
|  3> nprocs 24
|  4> end
|  5>
|  6> * xyz 0 1
|  7> S 	 -65.0514 	 9.89784 	 -74.5885
|  8> C 	 -64.6157 	 8.15353 	 -74.4475
|  9> C 	 -65.7078 	 7.41134 	 -74.7884
| 10> C 	 -66.8867 	 8.1442 	 -74.8734
| 11> C 	 -66.7101 	 9.50284 	 -74.7825
| 12> H 	 -67.8528 	 7.65326 	 -75.1808
| 13> C 	 -65.6893 	 5.85746 	 -74.8553
| 14> H 	 -66.6397 	 5.62751 	 -74.5254
| 15> H 	 -65.042 	 5.29663 	 -74.1347
| 16> C 	 -65.4538 	 5.32333 	 -76.2378
| 17> H 	 -65.7926 	 4.32126 	 -76.427
| 18> H 	 -65.9916 	 5.86602 	 -77.0189
| 19> C 	 -64.0171 	 5.35919 	 -76.5566
| 20> H 	 -63.8722 	 5.11881 	 -77.6631
| 21> H 	 -63.606 	 6.36109 	 -76.3817
| 22> H 	 -63.3639 	 4.75353 	 -75.9771
| 23> S 	 -67.3837 	 11.2707 	 -76.748
| 24> C 	 -68.967 	 12.1088 	 -76.6304
| 25> C 	 -69.6562 	 11.7521 	 -75.4847
| 26> C 	 -68.8245 	 10.9833 	 -74.5599
| 27> C 	 -67.6541 	 10.5419 	 -75.152
| 28> H 	 -70.6531 	 12.1444 	 -75.3002
| 29> C 	 -69.3709 	 10.7529 	 -73.1894
| 30> H 	 -69.7793 	 9.72076 	 -73.0848
| 31> H 	 -70.218 	 11.5185 	 -72.9995
| 32> C 	 -68.5214 	 10.8359 	 -71.9339
| 33> H 	 -67.8515 	 11.6718 	 -71.925
| 34> H 	 -67.8885 	 9.98059 	 -71.9946
| 35> C 	 -69.3527 	 10.8101 	 -70.6407
| 36> H 	 -69.8544 	 11.7763 	 -70.5244
| 37> H 	 -68.854 	 10.5111 	 -69.7611
| 38> H 	 -70.1551 	 10.1048 	 -70.5955
| 39> H 	 -63.6161 	 7.76717 	 -74.2681
| 40> H 	 -69.3714 	 12.6172 	 -77.4355
| 41> *
| 42>
| 43>                          ****END OF INPUT****

CARTESIAN COORDINATES (ANGSTROEM)
---------------------------------
  S    -65.051400    9.897840  -74.588500
  C    -64.615700    8.153530  -74.447500
  C    -65.707800    7.411340  -74.788400
  C    -66.886700    8.144200  -74.873400
  C    -66.710100    9.502840  -74.782500
  H    -67.852800    7.653260  -75.180800
  C    -65.689300    5.857460  -74.855300
  H    -66.639700    5.627510  -74.525400
  H    -65.042000    5.296630  -74.134700
  C    -65.453800    5.323330  -76.237800
  H    -65.792600    4.321260  -76.427000
  H    -65.991600    5.866020  -77.018900
  C    -64.017100    5.359190  -76.556600
  H    -63.872200    5.118810  -77.663100
  H    -63.606000    6.361090  -76.381700
  H    -63.363900    4.753530  -75.977100
  S    -67.383700   11.270700  -76.748000
  C    -68.967000   12.108800  -76.630400
  C    -69.656200   11.752100  -75.484700
  C    -68.824500   10.983300  -74.559900
  C    -67.654100   10.541900  -75.152000
  H    -70.653100   12.144400  -75.300200
  C    -69.370900   10.752900  -73.189400
  H    -69.779300    9.720760  -73.084800
  H    -70.218000   11.518500  -72.999500
  C    -68.521400   10.835900  -71.933900
  H    -67.851500   11.671800  -71.925000
  H    -67.888500    9.980590  -71.994600
  C    -69.352700   10.810100  -70.640700
  H    -69.854400   11.776300  -70.524400
  H    -68.854000   10.511100  -69.761100
  H    -70.155100   10.104800  -70.595500
  H    -63.616100    7.767170  -74.268100
  H    -69.371400   12.617200  -77.435500

 Total Charge           Charge          ....    0
 Multiplicity           Mult            ....    1
 Number of Electrons    NEL             ....  134
 Basis Dimension        Dim             ....  322

ORBITAL ENERGIES
----------------

  NO   OCC          E(Eh)            E(eV)
   0   2.0000     -88.966004     -2420.8880
   1   2.0000     -88.964139     -2420.8373
   2   2.0000     -10.328488      -281.0524
   3   2.0000     -10.328120      -281.0424
   4   2.0000     -10.317119      -280.7431
   5   2.0000     -10.317100      -280.7426
   6   2.0000     -10.308005      -280.4951
   7   2.0000     -10.300056      -280.2788
   8   2.0000     -10.299060      -280.2517
   9   2.0000     -10.296388      -280.1790
  10   2.0000     -10.296022      -280.1690
  11   2.0000     -10.289600      -279.9942
  12   2.0000     -10.277861      -279.6748
  13   2.0000     -10.277137      -279.6551
  14   2.0000     -10.271737      -279.5082
  15   2.0000     -10.271478      -279.5011
  16   2.0000      -8.080734      -219.8880
  17   2.0000      -8.078116      -219.8167
  18   2.0000      -6.039193      -164.3348
  19   2.0000      -6.036733      -164.2679
  20   2.0000      -6.035257      -164.2277
  21   2.0000      -6.032865      -164.1626
  22   2.0000      -6.031506      -164.1256
  23   2.0000      -6.028662      -164.0482
  24   2.0000      -1.009703       -27.4754
  25   2.0000      -0.980492       -26.6805
  26   2.0000      -0.921413       -25.0729
  27   2.0000      -0.908574       -24.7236
  28   2.0000      -0.872503       -23.7420
  29   2.0000      -0.849912       -23.1273
  30   2.0000      -0.847057       -23.0496
  31   2.0000      -0.812947       -22.1214
  32   2.0000      -0.785595       -21.3771
  33   2.0000      -0.775369       -21.0989
  34   2.0000      -0.714882       -19.4529
  35   2.0000      -0.698821       -19.0159
  36   2.0000      -0.690855       -18.7991
  37   2.0000      -0.665180       -18.1005
  38   2.0000      -0.641575       -17.4581
  39   2.0000      -0.622339       -16.9347
  40   2.0000      -0.597475       -16.2581
  41   2.0000      -0.573600       -15.6084
  42   2.0000      -0.570158       -15.5148
  43   2.0000      -0.557057       -15.1583
  44   2.0000      -0.538821       -14.6621
  45   2.0000      -0.521464       -14.1898
  46   2.0000      -0.519095       -14.1253
  47   2.0000      -0.513281       -13.9671
  48   2.0000      -0.504252       -13.7214
  49   2.0000      -0.493507       -13.4290
  50   2.0000      -0.489044       -13.3076
  51   2.0000      -0.479993       -13.0613
  52   2.0000      -0.476297       -12.9607
  53   2.0000      -0.464164       -12.6305
  54   2.0000      -0.456161       -12.4128
  55   2.0000      -0.450376       -12.2554
  56   2.0000      -0.444225       -12.0880
  57   2.0000      -0.431053       -11.7295
  58   2.0000      -0.430342       -11.7102
  59   2.0000      -0.427265       -11.6265
  60   2.0000      -0.423636       -11.5277
  61   2.0000      -0.410313       -11.1652
  62   2.0000      -0.405455       -11.0330
  63   2.0000      -0.340237        -9.2583
  64   2.0000      -0.336127        -9.1465
  65   2.0000      -0.324456        -8.8289
  66   2.0000      -0.301615        -8.2074
  67   0.0000       0.034458         0.9376
  68   0.0000       0.054741         1.4896
  69   0.0000       0.107924         2.9367
  70   0.0000       0.118702         3.2300
  71   0.0000       0.124662         3.3922

MULLIKEN ATOMIC CHARGES
-----------------------
   0 S :    0.100390
   1 C :   -0.120923
   2 C :   -0.099684
   3 C :    0.038913
   4 C :   -0.160839
   5 H :    0.033395
   6 C :    0.087743
   7 H :   -0.009067
   8 H :    0.034066
   9 C :   -0.027656
  10 H :    0.019342
  11 H :    0.022635
  12 C :   -0.061272
  13 H :    0.038289
  14 H :    0.017146
  15 H :    0.014544
  16 S :    0.095189
  17 C :   -0.067841
  18 C :   -0.032409
  19 C :   -0.001682
  20 C :   -0.149425
  21 H :    0.029839
  22 C :   -0.005123
  23 H :    0.041494
  24 H :    0.030043
  25 C :   -0.036820
  26 H :    0.024120
  27 H :    0.023263
  28 C :   -0.028526
  29 H :    0.031024
  30 H :    0.023422
  31 H :    0.005887
  32 H :    0.053213
  33 H :    0.037312
Sum of atomic charges:   -0.0000000

LOEWDIN ATOMIC CHARGES
----------------------
   0 S :    0.402714
   1 C :   -0.177893
   2 C :   -0.062743
   3 C :   -0.068849
   4 C :   -0.207586
   5 H :    0.043212
   6 C :   -0.022021
   7 H :    0.016839
   8 H :    0.036782
   9 C :   -0.046380
  10 H :    0.022332
  11 H :    0.028192
  12 C :   -0.067670
  13 H :    0.033568
  14 H :    0.022240
  15 H :    0.014736
  16 S :    0.374276
  17 C :   -0.156912
  18 C :   -0.060609
  19 C :   -0.054615
  20 C :   -0.193261
  21 H :    0.034370
  22 C :   -0.042149
  23 H :    0.040148
  24 H :    0.035466
  25 C :   -0.037015
  26 H :    0.020639
  27 H :    0.020150
  28 C :   -0.063082
  29 H :    0.027938
  30 H :    0.024106
  31 H :    0.020691
  32 H :    0.029130
  33 H :    0.013256

  Mayer bond orders larger than 0.100000
B(  0-S ,  1-C ) :   1.1241 B(  0-S ,  4-C ) :   1.1686 B(  1-C ,  2-C ) :   1.6086
B(  1-C ,  4-C ) :   0.1026 B(  1-C , 32-H ) :   0.9706 B(  2-C ,  3-C ) :   1.2782
B(  2-C ,  6-C ) :   0.9972 B(  3-C ,  4-C ) :   1.5624 B(  3-C ,  5-H ) :   0.9808
B(  4-C , 20-C ) :   1.0160 B(  6-C ,  7-H ) :   0.9316 B(  6-C ,  8-H ) :   0.9542
B(  6-C ,  9-C ) :   1.0704 B(  9-C , 10-H ) :   0.9499 B(  9-C , 11-H ) :   0.9491
B(  9-C , 12-C ) :   1.0868 B( 12-C , 13-H ) :   0.9700 B( 12-C , 14-H ) :   0.9706
B( 12-C , 15-H ) :   0.9735 B( 16-S , 17-C ) :   1.1309 B( 16-S , 20-C ) :   1.1218
B( 17-C , 18-C ) :   1.6528 B( 17-C , 33-H ) :   0.9739 B( 18-C , 19-C ) :   1.2057
B( 18-C , 21-H ) :   0.9846 B( 19-C , 20-C ) :   1.6351 B( 19-C , 22-C ) :   1.0426
B( 22-C , 23-H ) :   0.9233 B( 22-C , 24-H ) :   0.9482 B( 22-C , 25-C ) :   1.0617
B( 25-C , 26-H ) :   0.9598 B( 25-C , 27-H ) :   0.9489 B( 25-C , 28-C ) :   1.0838
B( 28-C , 29-H ) :   0.9747 B( 28-C , 30-H ) :   0.9722 B( 28-C , 31-H ) :   0.9705

Dispersion correction           -0.014123875
FINAL SINGLE POINT ENERGY     -1339.858938111503

DIPOLE MOMENT
-------------
                                X             Y             Z
Electronic contribution:      4.08280      15.67891     -10.92421
Nuclear contribution   :     -4.48233     -16.15784      11.06676
                        -----------------------------------------
Total Dipole Moment    :     -0.39953      -0.47893       0.14255
                        -----------------------------------------
Magnitude (a.u.)       :      0.63978
Magnitude (Debye)      :      1.62619

Rotational constants in cm-1:     0.019462     0.008204     0.006844
Rotational constants in MHz :   583.466094   245.960357   205.184574

                             ****ORCA TERMINATED NORMALLY****
TOTAL RUN TIME: 0 days 0 hours 0 minutes 21 seconds 362 msec
