                         Program Version 4.2.1 -  RELEASE  -
|  1> ! wB97X-D3 SP def2-SVP
|  2> %pal
|  3> nprocs 24
|  4> end
|  5>
|  6> * xyz 0 1
|  7> S 	 -103.803 	 44.0074 	 -92.4644
|  8> C 	 -103.661 	 42.2822 	 -92.6052
|  9> C 	 -103.813 	 41.7105 	 -91.3412
| 10> C 	 -104.121 	 42.6473 	 -90.3387
| 11> C 	 -104.287 	 43.9674 	 -90.775
| 12> H 	 -104.161 	 42.4101 	 -89.2938
| 13> C 	 -103.982 	 40.2521 	 -91.0238
| 14> H 	 -104.928 	 39.8259 	 -91.4739
| 15> H 	 -103.969 	 40.2351 	 -89.9597
| 16> C 	 -102.82 	 39.3339 	 -91.5481
| 17> H 	 -103.03 	 38.2912 	 -91.1415
| 18> H 	 -102.926 	 39.2065 	 -92.586
| 19> C 	 -101.421 	 39.8802 	 -91.144
| 20> H 	 -101.321 	 40.8541 	 -91.6209
| 21> H 	 -101.343 	 40.0447 	 -89.9906
| 22> H 	 -100.488 	 39.418 	 -91.5488
| 23> S 	 -106.073 	 45.9851 	 -90.8254
| 24> C 	 -106.234 	 47.1047 	 -89.581
| 25> C 	 -105.353 	 46.7934 	 -88.5606
| 26> C 	 -104.446 	 45.7194 	 -88.8379
| 27> C 	 -104.678 	 45.2247 	 -90.1116
| 28> H 	 -105.398 	 47.4183 	 -87.6254
| 29> C 	 -103.563 	 45.1395 	 -87.7149
| 30> H 	 -102.56 	 44.9525 	 -88.1319
| 31> H 	 -104.008 	 44.163 	 -87.4807
| 32> C 	 -103.256 	 45.886 	 -86.3813
| 33> H 	 -104.135 	 46.4005 	 -85.9471
| 34> H 	 -102.535 	 46.7305 	 -86.5331
| 35> C 	 -102.617 	 44.9474 	 -85.3294
| 36> H 	 -103.252 	 44.0939 	 -85.2349
| 37> H 	 -102.533 	 45.3457 	 -84.3326
| 38> H 	 -101.689 	 44.5292 	 -85.6887
| 39> H 	 -103.537 	 41.7729 	 -93.5468
| 40> H 	 -106.95 	 47.8627 	 -89.5775
| 41> *
| 42>
| 43>                          ****END OF INPUT****

CARTESIAN COORDINATES (ANGSTROEM)
---------------------------------
  S    -103.803000   44.007400  -92.464400
  C    -103.661000   42.282200  -92.605200
  C    -103.813000   41.710500  -91.341200
  C    -104.121000   42.647300  -90.338700
  C    -104.287000   43.967400  -90.775000
  H    -104.161000   42.410100  -89.293800
  C    -103.982000   40.252100  -91.023800
  H    -104.928000   39.825900  -91.473900
  H    -103.969000   40.235100  -89.959700
  C    -102.820000   39.333900  -91.548100
  H    -103.030000   38.291200  -91.141500
  H    -102.926000   39.206500  -92.586000
  C    -101.421000   39.880200  -91.144000
  H    -101.321000   40.854100  -91.620900
  H    -101.343000   40.044700  -89.990600
  H    -100.488000   39.418000  -91.548800
  S    -106.073000   45.985100  -90.825400
  C    -106.234000   47.104700  -89.581000
  C    -105.353000   46.793400  -88.560600
  C    -104.446000   45.719400  -88.837900
  C    -104.678000   45.224700  -90.111600
  H    -105.398000   47.418300  -87.625400
  C    -103.563000   45.139500  -87.714900
  H    -102.560000   44.952500  -88.131900
  H    -104.008000   44.163000  -87.480700
  C    -103.256000   45.886000  -86.381300
  H    -104.135000   46.400500  -85.947100
  H    -102.535000   46.730500  -86.533100
  C    -102.617000   44.947400  -85.329400
  H    -103.252000   44.093900  -85.234900
  H    -102.533000   45.345700  -84.332600
  H    -101.689000   44.529200  -85.688700
  H    -103.537000   41.772900  -93.546800
  H    -106.950000   47.862700  -89.577500

 Total Charge           Charge          ....    0
 Multiplicity           Mult            ....    1
 Number of Electrons    NEL             ....  134
 Basis Dimension        Dim             ....  322

ORBITAL ENERGIES
----------------

  NO   OCC          E(Eh)            E(eV)
   0   2.0000     -88.964438     -2420.8454
   1   2.0000     -88.963227     -2420.8125
   2   2.0000     -10.332387      -281.1585
   3   2.0000     -10.328027      -281.0399
   4   2.0000     -10.313139      -280.6348
   5   2.0000     -10.311098      -280.5792
   6   2.0000     -10.311019      -280.5771
   7   2.0000     -10.302979      -280.3583
   8   2.0000     -10.298286      -280.2306
   9   2.0000     -10.296969      -280.1948
  10   2.0000     -10.296368      -280.1784
  11   2.0000     -10.293567      -280.1022
  12   2.0000     -10.292197      -280.0649
  13   2.0000     -10.290773      -280.0262
  14   2.0000     -10.285046      -279.8703
  15   2.0000     -10.278258      -279.6856
  16   2.0000      -8.080752      -219.8884
  17   2.0000      -8.078011      -219.8139
  18   2.0000      -6.039073      -164.3315
  19   2.0000      -6.036439      -164.2599
  20   2.0000      -6.034859      -164.2169
  21   2.0000      -6.032310      -164.1475
  22   2.0000      -6.031761      -164.1326
  23   2.0000      -6.029057      -164.0590
  24   2.0000      -1.011885       -27.5348
  25   2.0000      -0.988948       -26.9106
  26   2.0000      -0.907798       -24.7025
  27   2.0000      -0.907313       -24.6893
  28   2.0000      -0.866409       -23.5762
  29   2.0000      -0.854249       -23.2453
  30   2.0000      -0.843501       -22.9528
  31   2.0000      -0.808923       -22.0119
  32   2.0000      -0.783659       -21.3245
  33   2.0000      -0.771714       -20.9994
  34   2.0000      -0.708824       -19.2881
  35   2.0000      -0.704636       -19.1741
  36   2.0000      -0.697045       -18.9676
  37   2.0000      -0.656278       -17.8582
  38   2.0000      -0.640419       -17.4267
  39   2.0000      -0.616016       -16.7626
  40   2.0000      -0.600852       -16.3500
  41   2.0000      -0.569019       -15.4838
  42   2.0000      -0.565526       -15.3887
  43   2.0000      -0.553808       -15.0699
  44   2.0000      -0.534405       -14.5419
  45   2.0000      -0.530445       -14.4341
  46   2.0000      -0.514006       -13.9868
  47   2.0000      -0.511564       -13.9204
  48   2.0000      -0.504606       -13.7310
  49   2.0000      -0.499168       -13.5831
  50   2.0000      -0.490275       -13.3411
  51   2.0000      -0.477216       -12.9857
  52   2.0000      -0.470323       -12.7982
  53   2.0000      -0.467116       -12.7109
  54   2.0000      -0.461237       -12.5509
  55   2.0000      -0.450729       -12.2650
  56   2.0000      -0.439552       -11.9608
  57   2.0000      -0.435304       -11.8452
  58   2.0000      -0.430625       -11.7179
  59   2.0000      -0.425596       -11.5811
  60   2.0000      -0.421162       -11.4604
  61   2.0000      -0.420155       -11.4330
  62   2.0000      -0.408037       -11.1033
  63   2.0000      -0.344385        -9.3712
  64   2.0000      -0.332192        -9.0394
  65   2.0000      -0.326997        -8.8980
  66   2.0000      -0.294240        -8.0067
  67   0.0000       0.027312         0.7432
  68   0.0000       0.069765         1.8984
  69   0.0000       0.117830         3.2063
  70   0.0000       0.120634         3.2826
  71   0.0000       0.129027         3.5110

MULLIKEN ATOMIC CHARGES
-----------------------
   0 S :    0.104874
   1 C :   -0.120822
   2 C :   -0.102735
   3 C :    0.033874
   4 C :   -0.167005
   5 H :    0.001029
   6 C :    0.064001
   7 H :    0.059780
   8 H :    0.011685
   9 C :   -0.073586
  10 H :    0.036068
  11 H :    0.018185
  12 C :   -0.090347
  13 H :    0.037692
  14 H :    0.045298
  15 H :    0.041821
  16 S :    0.119636
  17 C :   -0.054539
  18 C :   -0.090853
  19 C :   -0.000036
  20 C :   -0.143881
  21 H :    0.037977
  22 C :    0.024927
  23 H :    0.041312
  24 H :    0.045804
  25 C :   -0.094381
  26 H :    0.031944
  27 H :    0.040978
  28 C :   -0.023413
  29 H :    0.012915
  30 H :    0.038357
  31 H :    0.026189
  32 H :    0.051997
  33 H :    0.035254
Sum of atomic charges:    0.0000000

LOEWDIN ATOMIC CHARGES
----------------------
   0 S :    0.415901
   1 C :   -0.201955
   2 C :   -0.072099
   3 C :   -0.066597
   4 C :   -0.193819
   5 H :    0.025479
   6 C :   -0.026158
   7 H :    0.044737
   8 H :    0.022654
   9 C :   -0.043104
  10 H :    0.028787
  11 H :    0.012581
  12 C :   -0.085293
  13 H :    0.025899
  14 H :    0.035312
  15 H :    0.030212
  16 S :    0.450576
  17 C :   -0.194937
  18 C :   -0.083127
  19 C :   -0.051282
  20 C :   -0.214382
  21 H :    0.037215
  22 C :   -0.034105
  23 H :    0.039305
  24 H :    0.033697
  25 C :   -0.044489
  26 H :    0.021169
  27 H :    0.028704
  28 C :   -0.059609
  29 H :    0.019841
  30 H :    0.028256
  31 H :    0.024448
  32 H :    0.027571
  33 H :    0.018610

  Mayer bond orders larger than 0.100000
B(  0-S ,  1-C ) :   1.1587 B(  0-S ,  4-C ) :   1.1780 B(  1-C ,  2-C ) :   1.5405
B(  1-C ,  4-C ) :   0.1110 B(  1-C , 32-H ) :   0.9775 B(  2-C ,  3-C ) :   1.2929
B(  2-C ,  6-C ) :   1.0198 B(  3-C ,  4-C ) :   1.5418 B(  3-C ,  5-H ) :   0.9953
B(  4-C , 20-C ) :   1.0047 B(  6-C ,  7-H ) :   0.9436 B(  6-C ,  8-H ) :   0.9402
B(  6-C ,  9-C ) :   1.0637 B(  9-C , 10-H ) :   0.9600 B(  9-C , 11-H ) :   0.9571
B(  9-C , 12-C ) :   1.0656 B( 12-C , 13-H ) :   0.9651 B( 12-C , 14-H ) :   0.9768
B( 12-C , 15-H ) :   0.9750 B( 16-S , 17-C ) :   1.1873 B( 16-S , 20-C ) :   1.1692
B( 17-C , 18-C ) :   1.5652 B( 17-C , 33-H ) :   0.9775 B( 18-C , 19-C ) :   1.2686
B( 18-C , 21-H ) :   0.9813 B( 19-C , 20-C ) :   1.5748 B( 19-C , 22-C ) :   1.0230
B( 22-C , 23-H ) :   0.9361 B( 22-C , 24-H ) :   0.9377 B( 22-C , 25-C ) :   1.0608
B( 25-C , 26-H ) :   0.9510 B( 25-C , 27-H ) :   0.9578 B( 25-C , 28-C ) :   1.0807
B( 28-C , 29-H ) :   0.9745 B( 28-C , 30-H ) :   0.9733 B( 28-C , 31-H ) :   0.9746

Dispersion correction           -0.013720182
FINAL SINGLE POINT ENERGY     -1339.873259411388

DIPOLE MOMENT
-------------
                                X             Y             Z
Electronic contribution:    -14.22355      16.03801     -18.74279
Nuclear contribution   :     14.20726     -16.28020      19.30052
                        -----------------------------------------
Total Dipole Moment    :     -0.01628      -0.24219       0.55773
                        -----------------------------------------
Magnitude (a.u.)       :      0.60826
Magnitude (Debye)      :      1.54608

Rotational constants in cm-1:     0.017787     0.008345     0.006116
Rotational constants in MHz :   533.240803   250.163874   183.340277

                             ****ORCA TERMINATED NORMALLY****
TOTAL RUN TIME: 0 days 0 hours 0 minutes 21 seconds 172 msec
