                         Program Version 4.2.1 -  RELEASE  -
|  1> ! wB97X-D3 SP def2-SVP
|  2> %pal
|  3> nprocs 24
|  4> end
|  5>
|  6> * xyz 0 1
|  7> S 	 -39.2022 	 -47.8117 	 -74.3709
|  8> C 	 -39.747 	 -46.2477 	 -73.8371
|  9> C 	 -38.9248 	 -45.7385 	 -72.8506
| 10> C 	 -37.8052 	 -46.6389 	 -72.5018
| 11> C 	 -37.8524 	 -47.832 	 -73.2336
| 12> H 	 -36.9403 	 -46.4489 	 -71.881
| 13> C 	 -38.9299 	 -44.3251 	 -72.3238
| 14> H 	 -39.8615 	 -43.829 	 -72.6541
| 15> H 	 -38.044 	 -43.8491 	 -72.7073
| 16> C 	 -38.9919 	 -44.16 	 -70.8349
| 17> H 	 -38.1235 	 -44.5361 	 -70.3269
| 18> H 	 -38.8951 	 -43.1491 	 -70.4708
| 19> C 	 -40.2222 	 -44.8309 	 -70.227
| 20> H 	 -41.1447 	 -44.3116 	 -70.3933
| 21> H 	 -40.3476 	 -45.8798 	 -70.5383
| 22> H 	 -40.2103 	 -44.7094 	 -69.2291
| 23> S 	 -37.6935 	 -50.6169 	 -73.1309
| 24> C 	 -36.1408 	 -51.433 	 -73.2961
| 25> C 	 -35.1859 	 -50.4923 	 -73.5031
| 26> C 	 -35.6085 	 -49.0819 	 -73.5337
| 27> C 	 -36.9807 	 -49.0116 	 -73.289
| 28> H 	 -34.17 	 -50.8427 	 -73.4284
| 29> C 	 -34.724 	 -47.897 	 -73.834
| 30> H 	 -34.1174 	 -47.655 	 -72.9431
| 31> H 	 -35.3493 	 -46.9516 	 -73.9272
| 32> C 	 -33.854 	 -48.0404 	 -75.1433
| 33> H 	 -33.4256 	 -49.0379 	 -75.1342
| 34> H 	 -33.074 	 -47.2609 	 -75.1191
| 35> C 	 -34.7076 	 -47.7414 	 -76.3775
| 36> H 	 -34.3083 	 -48.2759 	 -77.255
| 37> H 	 -34.8185 	 -46.7003 	 -76.6735
| 38> H 	 -35.7365 	 -48.0996 	 -76.2602
| 39> H 	 -40.5243 	 -45.6391 	 -74.1993
| 40> H 	 -35.8627 	 -52.4546 	 -73.316
| 41> *
| 42>
| 43>                          ****END OF INPUT****

CARTESIAN COORDINATES (ANGSTROEM)
---------------------------------
  S    -39.202200  -47.811700  -74.370900
  C    -39.747000  -46.247700  -73.837100
  C    -38.924800  -45.738500  -72.850600
  C    -37.805200  -46.638900  -72.501800
  C    -37.852400  -47.832000  -73.233600
  H    -36.940300  -46.448900  -71.881000
  C    -38.929900  -44.325100  -72.323800
  H    -39.861500  -43.829000  -72.654100
  H    -38.044000  -43.849100  -72.707300
  C    -38.991900  -44.160000  -70.834900
  H    -38.123500  -44.536100  -70.326900
  H    -38.895100  -43.149100  -70.470800
  C    -40.222200  -44.830900  -70.227000
  H    -41.144700  -44.311600  -70.393300
  H    -40.347600  -45.879800  -70.538300
  H    -40.210300  -44.709400  -69.229100
  S    -37.693500  -50.616900  -73.130900
  C    -36.140800  -51.433000  -73.296100
  C    -35.185900  -50.492300  -73.503100
  C    -35.608500  -49.081900  -73.533700
  C    -36.980700  -49.011600  -73.289000
  H    -34.170000  -50.842700  -73.428400
  C    -34.724000  -47.897000  -73.834000
  H    -34.117400  -47.655000  -72.943100
  H    -35.349300  -46.951600  -73.927200
  C    -33.854000  -48.040400  -75.143300
  H    -33.425600  -49.037900  -75.134200
  H    -33.074000  -47.260900  -75.119100
  C    -34.707600  -47.741400  -76.377500
  H    -34.308300  -48.275900  -77.255000
  H    -34.818500  -46.700300  -76.673500
  H    -35.736500  -48.099600  -76.260200
  H    -40.524300  -45.639100  -74.199300
  H    -35.862700  -52.454600  -73.316000

 Total Charge           Charge          ....    0
 Multiplicity           Mult            ....    1
 Number of Electrons    NEL             ....  134
 Basis Dimension        Dim             ....  322

ORBITAL ENERGIES
----------------

  NO   OCC          E(Eh)            E(eV)
   0   2.0000     -88.966129     -2420.8915
   1   2.0000     -88.965570     -2420.8762
   2   2.0000     -10.335548      -281.2446
   3   2.0000     -10.331305      -281.1291
   4   2.0000     -10.316083      -280.7149
   5   2.0000     -10.312155      -280.6080
   6   2.0000     -10.310061      -280.5510
   7   2.0000     -10.305650      -280.4310
   8   2.0000     -10.302802      -280.3535
   9   2.0000     -10.298621      -280.2397
  10   2.0000     -10.293971      -280.1132
  11   2.0000     -10.291196      -280.0377
  12   2.0000     -10.290424      -280.0167
  13   2.0000     -10.279393      -279.7165
  14   2.0000     -10.272817      -279.5376
  15   2.0000     -10.261953      -279.2419
  16   2.0000      -8.080630      -219.8851
  17   2.0000      -8.079850      -219.8639
  18   2.0000      -6.039251      -164.3364
  19   2.0000      -6.038633      -164.3196
  20   2.0000      -6.035035      -164.2217
  21   2.0000      -6.034371      -164.2036
  22   2.0000      -6.031404      -164.1228
  23   2.0000      -6.030354      -164.0943
  24   2.0000      -1.002861       -27.2892
  25   2.0000      -0.980485       -26.6804
  26   2.0000      -0.917432       -24.9646
  27   2.0000      -0.903429       -24.5836
  28   2.0000      -0.872329       -23.7373
  29   2.0000      -0.846429       -23.0325
  30   2.0000      -0.839380       -22.8407
  31   2.0000      -0.820132       -22.3169
  32   2.0000      -0.785453       -21.3733
  33   2.0000      -0.771476       -20.9929
  34   2.0000      -0.714144       -19.4329
  35   2.0000      -0.699145       -19.0247
  36   2.0000      -0.698274       -19.0010
  37   2.0000      -0.651109       -17.7176
  38   2.0000      -0.642293       -17.4777
  39   2.0000      -0.618957       -16.8427
  40   2.0000      -0.597252       -16.2520
  41   2.0000      -0.571424       -15.5492
  42   2.0000      -0.566250       -15.4085
  43   2.0000      -0.548027       -14.9126
  44   2.0000      -0.540320       -14.7028
  45   2.0000      -0.536954       -14.6113
  46   2.0000      -0.520718       -14.1695
  47   2.0000      -0.506105       -13.7718
  48   2.0000      -0.505375       -13.7519
  49   2.0000      -0.494614       -13.4591
  50   2.0000      -0.488345       -13.2886
  51   2.0000      -0.478030       -13.0079
  52   2.0000      -0.470216       -12.7952
  53   2.0000      -0.464378       -12.6364
  54   2.0000      -0.457259       -12.4426
  55   2.0000      -0.452491       -12.3129
  56   2.0000      -0.438422       -11.9301
  57   2.0000      -0.437612       -11.9080
  58   2.0000      -0.429127       -11.6771
  59   2.0000      -0.426156       -11.5963
  60   2.0000      -0.423337       -11.5196
  61   2.0000      -0.412427       -11.2227
  62   2.0000      -0.405630       -11.0378
  63   2.0000      -0.347139        -9.4461
  64   2.0000      -0.329377        -8.9628
  65   2.0000      -0.325739        -8.8638
  66   2.0000      -0.299932        -8.1616
  67   0.0000       0.033011         0.8983
  68   0.0000       0.068706         1.8696
  69   0.0000       0.110366         3.0032
  70   0.0000       0.120612         3.2820
  71   0.0000       0.125633         3.4186

MULLIKEN ATOMIC CHARGES
-----------------------
   0 S :    0.109190
   1 C :   -0.074797
   2 C :   -0.131793
   3 C :    0.046192
   4 C :   -0.171652
   5 H :    0.019776
   6 C :    0.094521
   7 H :    0.017142
   8 H :    0.038552
   9 C :   -0.067832
  10 H :    0.009035
  11 H :    0.014830
  12 C :   -0.014825
  13 H :    0.008352
  14 H :    0.055931
  15 H :   -0.003795
  16 S :    0.105985
  17 C :   -0.066614
  18 C :   -0.050113
  19 C :   -0.010425
  20 C :   -0.159544
  21 H :    0.021312
  22 C :    0.005195
  23 H :    0.039312
  24 H :    0.036048
  25 C :   -0.051240
  26 H :    0.037689
  27 H :    0.033803
  28 C :   -0.062317
  29 H :    0.031246
  30 H :    0.033466
  31 H :    0.035134
  32 H :    0.026295
  33 H :    0.045940
Sum of atomic charges:   -0.0000000

LOEWDIN ATOMIC CHARGES
----------------------
   0 S :    0.405310
   1 C :   -0.196814
   2 C :   -0.059459
   3 C :   -0.060141
   4 C :   -0.182234
   5 H :    0.031996
   6 C :   -0.030048
   7 H :    0.032048
   8 H :    0.033291
   9 C :   -0.045034
  10 H :    0.017547
  11 H :    0.024957
  12 C :   -0.059604
  13 H :    0.022874
  14 H :    0.034073
  15 H :    0.011899
  16 S :    0.392410
  17 C :   -0.177793
  18 C :   -0.073668
  19 C :   -0.054445
  20 C :   -0.201689
  21 H :    0.027826
  22 C :   -0.042984
  23 H :    0.032374
  24 H :    0.036949
  25 C :   -0.035027
  26 H :    0.023187
  27 H :    0.028139
  28 C :   -0.071637
  29 H :    0.028143
  30 H :    0.025665
  31 H :    0.026847
  32 H :    0.023317
  33 H :    0.031724

  Mayer bond orders larger than 0.100000
B(  0-S ,  1-C ) :   1.1244 B(  0-S ,  4-C ) :   1.1539 B(  1-C ,  2-C ) :   1.6438
B(  1-C , 32-H ) :   0.9684 B(  2-C ,  3-C ) :   1.1833 B(  2-C ,  6-C ) :   1.0295
B(  3-C ,  4-C ) :   1.6000 B(  3-C ,  5-H ) :   0.9959 B(  4-C , 20-C ) :   1.0255
B(  6-C ,  7-H ) :   0.9407 B(  6-C ,  8-H ) :   0.9392 B(  6-C ,  9-C ) :   1.0770
B(  9-C , 10-H ) :   0.9489 B(  9-C , 11-H ) :   0.9501 B(  9-C , 12-C ) :   1.0841
B( 12-C , 13-H ) :   0.9678 B( 12-C , 14-H ) :   0.9729 B( 12-C , 15-H ) :   0.9645
B( 16-S , 17-C ) :   1.1213 B( 16-S , 20-C ) :   1.1356 B( 17-C , 18-C ) :   1.6715
B( 17-C , 33-H ) :   0.9685 B( 18-C , 19-C ) :   1.1968 B( 18-C , 21-H ) :   0.9796
B( 19-C , 20-C ) :   1.6005 B( 19-C , 22-C ) :   1.0499 B( 22-C , 23-H ) :   0.9325
B( 22-C , 24-H ) :   0.9359 B( 22-C , 25-C ) :   1.0608 B( 25-C , 26-H ) :   0.9630
B( 25-C , 27-H ) :   0.9558 B( 25-C , 28-C ) :   1.0687 B( 28-C , 29-H ) :   0.9738
B( 28-C , 30-H ) :   0.9751 B( 28-C , 31-H ) :   0.9783

Dispersion correction           -0.014690876
FINAL SINGLE POINT ENERGY     -1339.874627662895

DIPOLE MOMENT
-------------
                                X             Y             Z
Electronic contribution:     -8.06682     -19.12800      -3.24431
Nuclear contribution   :      8.58565      19.63007       3.38919
                        -----------------------------------------
Total Dipole Moment    :      0.51883       0.50207       0.14489
                        -----------------------------------------
Magnitude (a.u.)       :      0.73638
Magnitude (Debye)      :      1.87172

Rotational constants in cm-1:     0.020662     0.008131     0.007203
Rotational constants in MHz :   619.436370   243.759710   215.933662

                             ****ORCA TERMINATED NORMALLY****
TOTAL RUN TIME: 0 days 0 hours 0 minutes 21 seconds 653 msec
