                         Program Version 4.2.1 -  RELEASE  -
|  1> ! wB97X-D3 SP def2-SVP
|  2> %pal
|  3> nprocs 24
|  4> end
|  5>
|  6> * xyz 0 1
|  7> S 	 -68.6152 	 -53.9216 	 -83.5318
|  8> C 	 -69.9604 	 -54.372 	 -84.5791
|  9> C 	 -70.4741 	 -55.575 	 -84.2185
| 10> C 	 -69.8445 	 -56.091 	 -83.0327
| 11> C 	 -68.9013 	 -55.2786 	 -82.5
| 12> H 	 -70.0013 	 -56.9753 	 -82.439
| 13> C 	 -71.5037 	 -56.3898 	 -84.8055
| 14> H 	 -72.3655 	 -55.7339 	 -85.0394
| 15> H 	 -72.0005 	 -57.0576 	 -84.0979
| 16> C 	 -71.1385 	 -57.1472 	 -86.0963
| 17> H 	 -71.8963 	 -57.8136 	 -86.4896
| 18> H 	 -70.9848 	 -56.3753 	 -86.864
| 19> C 	 -69.9335 	 -58.0351 	 -85.9085
| 20> H 	 -68.978 	 -57.6636 	 -85.6172
| 21> H 	 -70.1559 	 -58.5807 	 -85.0252
| 22> H 	 -69.7628 	 -58.7722 	 -86.6736
| 23> S 	 -68.7602 	 -54.6758 	 -79.8873
| 24> C 	 -67.6107 	 -55.5994 	 -78.8918
| 25> C 	 -67.0462 	 -56.6612 	 -79.5658
| 26> C 	 -67.4216 	 -56.6614 	 -80.9906
| 27> C 	 -68.2357 	 -55.5842 	 -81.2635
| 28> H 	 -66.4677 	 -57.3296 	 -79.0164
| 29> C 	 -66.8839 	 -57.6131 	 -81.9841
| 30> H 	 -67.7376 	 -58.252 	 -82.1911
| 31> H 	 -66.1025 	 -58.3374 	 -81.6631
| 32> C 	 -66.3255 	 -57.0988 	 -83.3643
| 33> H 	 -67.2052 	 -56.6612 	 -83.8869
| 34> H 	 -66.0098 	 -57.9453 	 -83.967
| 35> C 	 -65.2132 	 -56.0187 	 -83.1866
| 36> H 	 -65.5838 	 -55.044 	 -82.8546
| 37> H 	 -64.6722 	 -55.9344 	 -84.096
| 38> H 	 -64.5251 	 -56.4083 	 -82.364
| 39> H 	 -70.3758 	 -53.8919 	 -85.3983
| 40> H 	 -67.4324 	 -55.4337 	 -77.8034
| 41> *
| 42>
| 43>                          ****END OF INPUT****

CARTESIAN COORDINATES (ANGSTROEM)
---------------------------------
  S    -68.615200  -53.921600  -83.531800
  C    -69.960400  -54.372000  -84.579100
  C    -70.474100  -55.575000  -84.218500
  C    -69.844500  -56.091000  -83.032700
  C    -68.901300  -55.278600  -82.500000
  H    -70.001300  -56.975300  -82.439000
  C    -71.503700  -56.389800  -84.805500
  H    -72.365500  -55.733900  -85.039400
  H    -72.000500  -57.057600  -84.097900
  C    -71.138500  -57.147200  -86.096300
  H    -71.896300  -57.813600  -86.489600
  H    -70.984800  -56.375300  -86.864000
  C    -69.933500  -58.035100  -85.908500
  H    -68.978000  -57.663600  -85.617200
  H    -70.155900  -58.580700  -85.025200
  H    -69.762800  -58.772200  -86.673600
  S    -68.760200  -54.675800  -79.887300
  C    -67.610700  -55.599400  -78.891800
  C    -67.046200  -56.661200  -79.565800
  C    -67.421600  -56.661400  -80.990600
  C    -68.235700  -55.584200  -81.263500
  H    -66.467700  -57.329600  -79.016400
  C    -66.883900  -57.613100  -81.984100
  H    -67.737600  -58.252000  -82.191100
  H    -66.102500  -58.337400  -81.663100
  C    -66.325500  -57.098800  -83.364300
  H    -67.205200  -56.661200  -83.886900
  H    -66.009800  -57.945300  -83.967000
  C    -65.213200  -56.018700  -83.186600
  H    -65.583800  -55.044000  -82.854600
  H    -64.672200  -55.934400  -84.096000
  H    -64.525100  -56.408300  -82.364000
  H    -70.375800  -53.891900  -85.398300
  H    -67.432400  -55.433700  -77.803400

 Total Charge           Charge          ....    0
 Multiplicity           Mult            ....    1
 Number of Electrons    NEL             ....  134
 Basis Dimension        Dim             ....  322

ORBITAL ENERGIES
----------------

  NO   OCC          E(Eh)            E(eV)
   0   2.0000     -88.968078     -2420.9445
   1   2.0000     -88.965883     -2420.8848
   2   2.0000     -10.320512      -280.8354
   3   2.0000     -10.319942      -280.8199
   4   2.0000     -10.318411      -280.7782
   5   2.0000     -10.309152      -280.5263
   6   2.0000     -10.307794      -280.4893
   7   2.0000     -10.295297      -280.1493
   8   2.0000     -10.294427      -280.1256
   9   2.0000     -10.291665      -280.0504
  10   2.0000     -10.288042      -279.9518
  11   2.0000     -10.287993      -279.9505
  12   2.0000     -10.286584      -279.9122
  13   2.0000     -10.284589      -279.8579
  14   2.0000     -10.275678      -279.6154
  15   2.0000     -10.265510      -279.3387
  16   2.0000      -8.082347      -219.9318
  17   2.0000      -8.080621      -219.8849
  18   2.0000      -6.040950      -164.3826
  19   2.0000      -6.039179      -164.3344
  20   2.0000      -6.036931      -164.2733
  21   2.0000      -6.035280      -164.2283
  22   2.0000      -6.033014      -164.1667
  23   2.0000      -6.031171      -164.1165
  24   2.0000      -1.012743       -27.5581
  25   2.0000      -0.985514       -26.8172
  26   2.0000      -0.920793       -25.0561
  27   2.0000      -0.903054       -24.5734
  28   2.0000      -0.874762       -23.8035
  29   2.0000      -0.851552       -23.1719
  30   2.0000      -0.843796       -22.9608
  31   2.0000      -0.816976       -22.2310
  32   2.0000      -0.787100       -21.4181
  33   2.0000      -0.773359       -21.0442
  34   2.0000      -0.714518       -19.4430
  35   2.0000      -0.707664       -19.2565
  36   2.0000      -0.684672       -18.6309
  37   2.0000      -0.664033       -18.0692
  38   2.0000      -0.646633       -17.5958
  39   2.0000      -0.609311       -16.5802
  40   2.0000      -0.590583       -16.0706
  41   2.0000      -0.580519       -15.7967
  42   2.0000      -0.557772       -15.1778
  43   2.0000      -0.553871       -15.0716
  44   2.0000      -0.546517       -14.8715
  45   2.0000      -0.544706       -14.8222
  46   2.0000      -0.512069       -13.9341
  47   2.0000      -0.509795       -13.8722
  48   2.0000      -0.501197       -13.6383
  49   2.0000      -0.494470       -13.4552
  50   2.0000      -0.489660       -13.3243
  51   2.0000      -0.477509       -12.9937
  52   2.0000      -0.470594       -12.8055
  53   2.0000      -0.465056       -12.6548
  54   2.0000      -0.462820       -12.5940
  55   2.0000      -0.447167       -12.1680
  56   2.0000      -0.443122       -12.0580
  57   2.0000      -0.434302       -11.8180
  58   2.0000      -0.432578       -11.7710
  59   2.0000      -0.426289       -11.5999
  60   2.0000      -0.425828       -11.5874
  61   2.0000      -0.410179       -11.1615
  62   2.0000      -0.402929       -10.9642
  63   2.0000      -0.338613        -9.2141
  64   2.0000      -0.327916        -8.9231
  65   2.0000      -0.324595        -8.8327
  66   2.0000      -0.306518        -8.3408
  67   0.0000       0.037994         1.0339
  68   0.0000       0.065187         1.7738
  69   0.0000       0.108230         2.9451
  70   0.0000       0.115818         3.1516
  71   0.0000       0.126984         3.4554

MULLIKEN ATOMIC CHARGES
-----------------------
   0 S :    0.121078
   1 C :   -0.076466
   2 C :   -0.044507
   3 C :    0.027282
   4 C :   -0.197421
   5 H :    0.007221
   6 C :    0.037278
   7 H :    0.024698
   8 H :    0.024816
   9 C :   -0.035841
  10 H :    0.030174
  11 H :    0.023152
  12 C :   -0.030577
  13 H :    0.025506
  14 H :   -0.002323
  15 H :    0.028398
  16 S :    0.120046
  17 C :   -0.106401
  18 C :   -0.011275
  19 C :    0.009172
  20 C :   -0.184002
  21 H :   -0.004297
  22 C :    0.027474
  23 H :    0.026113
  24 H :    0.029083
  25 C :   -0.096635
  26 H :    0.056278
  27 H :    0.030704
  28 C :   -0.037196
  29 H :    0.039200
  30 H :    0.033757
  31 H :    0.029616
  32 H :    0.008271
  33 H :    0.067625
Sum of atomic charges:   -0.0000000

LOEWDIN ATOMIC CHARGES
----------------------
   0 S :    0.411041
   1 C :   -0.179486
   2 C :   -0.061548
   3 C :   -0.059349
   4 C :   -0.208428
   5 H :    0.031024
   6 C :   -0.041999
   7 H :    0.036817
   8 H :    0.031515
   9 C :   -0.031915
  10 H :    0.028198
  11 H :    0.020356
  12 C :   -0.070358
  13 H :    0.021439
  14 H :    0.021442
  15 H :    0.024965
  16 S :    0.403314
  17 C :   -0.179869
  18 C :   -0.057964
  19 C :   -0.048364
  20 C :   -0.208835
  21 H :    0.022035
  22 C :   -0.044765
  23 H :    0.034574
  24 H :    0.033749
  25 C :   -0.040575
  26 H :    0.023646
  27 H :    0.023404
  28 C :   -0.064151
  29 H :    0.024061
  30 H :    0.021077
  31 H :    0.030180
  32 H :    0.018155
  33 H :    0.036612

  Mayer bond orders larger than 0.100000
B(  0-S ,  1-C ) :   1.1182 B(  0-S ,  4-C ) :   1.1373 B(  1-C ,  2-C ) :   1.6365
B(  1-C , 32-H ) :   0.9744 B(  2-C ,  3-C ) :   1.1891 B(  2-C ,  6-C ) :   1.0386
B(  3-C ,  4-C ) :   1.6217 B(  3-C ,  5-H ) :   0.9974 B(  4-C , 20-C ) :   1.0249
B(  6-C ,  7-H ) :   0.9272 B(  6-C ,  8-H ) :   0.9403 B(  6-C ,  9-C ) :   1.0782
B(  9-C , 10-H ) :   0.9541 B(  9-C , 11-H ) :   0.9562 B(  9-C , 12-C ) :   1.0713
B( 12-C , 13-H ) :   0.9707 B( 12-C , 14-H ) :   0.9654 B( 12-C , 15-H ) :   0.9727
B( 16-S , 17-C ) :   1.1304 B( 16-S , 20-C ) :   1.1438 B( 17-C , 18-C ) :   1.6588
B( 17-C , 33-H ) :   0.9610 B( 18-C , 19-C ) :   1.1815 B( 18-C , 21-H ) :   1.0005
B( 19-C , 20-C ) :   1.6219 B( 19-C , 22-C ) :   1.0412 B( 22-C , 23-H ) :   0.9154
B( 22-C , 24-H ) :   0.9459 B( 22-C , 25-C ) :   1.0804 B( 25-C , 26-H ) :   0.9440
B( 25-C , 27-H ) :   0.9563 B( 25-C , 28-C ) :   1.0700 B( 28-C , 29-H ) :   0.9712
B( 28-C , 30-H ) :   0.9765 B( 28-C , 31-H ) :   0.9774

Dispersion correction           -0.017187771
FINAL SINGLE POINT ENERGY     -1339.865363395498

DIPOLE MOMENT
-------------
                                X             Y             Z
Electronic contribution:     -2.80226      17.55707      16.77766
Nuclear contribution   :      2.67124     -18.20934     -16.93566
                        -----------------------------------------
Total Dipole Moment    :     -0.13103      -0.65227      -0.15800
                        -----------------------------------------
Magnitude (a.u.)       :      0.68381
Magnitude (Debye)      :      1.73810

Rotational constants in cm-1:     0.020969     0.009781     0.008594
Rotational constants in MHz :   628.637642   293.220891   257.647074

                             ****ORCA TERMINATED NORMALLY****
TOTAL RUN TIME: 0 days 0 hours 0 minutes 22 seconds 755 msec
