                         Program Version 4.2.1 -  RELEASE  -
|  1> ! wB97X-D3 SP def2-SVP
|  2> %pal
|  3> nprocs 24
|  4> end
|  5>
|  6> * xyz 0 1
|  7> S 	 -114.696 	 17.4843 	 -114.021
|  8> C 	 -116.216 	 17.1567 	 -113.227
|  9> C 	 -116.91 	 16.2103 	 -114.01
| 10> C 	 -116.176 	 15.7382 	 -115.093
| 11> C 	 -114.908 	 16.2893 	 -115.217
| 12> H 	 -116.461 	 14.9832 	 -115.791
| 13> C 	 -118.357 	 15.8825 	 -113.749
| 14> H 	 -118.326 	 15.3023 	 -112.801
| 15> H 	 -118.67 	 15.1528 	 -114.501
| 16> C 	 -119.245 	 17.1503 	 -113.746
| 17> H 	 -120.288 	 16.8721 	 -113.473
| 18> H 	 -118.971 	 17.8401 	 -112.945
| 19> C 	 -119.188 	 17.7868 	 -115.101
| 20> H 	 -120.097 	 18.3738 	 -115.172
| 21> H 	 -118.37 	 18.4984 	 -115.196
| 22> H 	 -119.192 	 17.1016 	 -115.922
| 23> S 	 -112.438 	 15.1239 	 -115.353
| 24> C 	 -111.702 	 14.9429 	 -116.958
| 25> C 	 -112.603 	 15.2727 	 -117.978
| 26> C 	 -113.868 	 15.7189 	 -117.532
| 27> C 	 -113.86 	 15.8783 	 -116.155
| 28> H 	 -112.282 	 15.0667 	 -119.012
| 29> C 	 -114.956 	 16.1037 	 -118.564
| 30> H 	 -115.05 	 17.1849 	 -118.629
| 31> H 	 -115.923 	 15.8447 	 -118.074
| 32> C 	 -114.854 	 15.5844 	 -119.99
| 33> H 	 -114.47 	 14.6168 	 -120.005
| 34> H 	 -114.184 	 16.1185 	 -120.619
| 35> C 	 -116.117 	 15.3929 	 -120.706
| 36> H 	 -116.558 	 16.3412 	 -120.876
| 37> H 	 -116.867 	 14.814 	 -120.164
| 38> H 	 -116.065 	 14.9428 	 -121.644
| 39> H 	 -116.654 	 17.7199 	 -112.367
| 40> H 	 -110.692 	 14.5921 	 -117.187
| 41> *
| 42>
| 43>                          ****END OF INPUT****

CARTESIAN COORDINATES (ANGSTROEM)
---------------------------------
  S    -114.696000   17.484300  -114.021000
  C    -116.216000   17.156700  -113.227000
  C    -116.910000   16.210300  -114.010000
  C    -116.176000   15.738200  -115.093000
  C    -114.908000   16.289300  -115.217000
  H    -116.461000   14.983200  -115.791000
  C    -118.357000   15.882500  -113.749000
  H    -118.326000   15.302300  -112.801000
  H    -118.670000   15.152800  -114.501000
  C    -119.245000   17.150300  -113.746000
  H    -120.288000   16.872100  -113.473000
  H    -118.971000   17.840100  -112.945000
  C    -119.188000   17.786800  -115.101000
  H    -120.097000   18.373800  -115.172000
  H    -118.370000   18.498400  -115.196000
  H    -119.192000   17.101600  -115.922000
  S    -112.438000   15.123900  -115.353000
  C    -111.702000   14.942900  -116.958000
  C    -112.603000   15.272700  -117.978000
  C    -113.868000   15.718900  -117.532000
  C    -113.860000   15.878300  -116.155000
  H    -112.282000   15.066700  -119.012000
  C    -114.956000   16.103700  -118.564000
  H    -115.050000   17.184900  -118.629000
  H    -115.923000   15.844700  -118.074000
  C    -114.854000   15.584400  -119.990000
  H    -114.470000   14.616800  -120.005000
  H    -114.184000   16.118500  -120.619000
  C    -116.117000   15.392900  -120.706000
  H    -116.558000   16.341200  -120.876000
  H    -116.867000   14.814000  -120.164000
  H    -116.065000   14.942800  -121.644000
  H    -116.654000   17.719900  -112.367000
  H    -110.692000   14.592100  -117.187000

 Total Charge           Charge          ....    0
 Multiplicity           Mult            ....    1
 Number of Electrons    NEL             ....  134
 Basis Dimension        Dim             ....  322

ORBITAL ENERGIES
----------------

  NO   OCC          E(Eh)            E(eV)
   0   2.0000     -88.967528     -2420.9295
   1   2.0000     -88.965872     -2420.8844
   2   2.0000     -10.329390      -281.0770
   3   2.0000     -10.322745      -280.8962
   4   2.0000     -10.319456      -280.8067
   5   2.0000     -10.314850      -280.6813
   6   2.0000     -10.308454      -280.5073
   7   2.0000     -10.298439      -280.2348
   8   2.0000     -10.295875      -280.1650
   9   2.0000     -10.293984      -280.1135
  10   2.0000     -10.290189      -280.0103
  11   2.0000     -10.288713      -279.9701
  12   2.0000     -10.285816      -279.8913
  13   2.0000     -10.276605      -279.6406
  14   2.0000     -10.269903      -279.4583
  15   2.0000     -10.266893      -279.3764
  16   2.0000      -8.081022      -219.8958
  17   2.0000      -8.080970      -219.8944
  18   2.0000      -6.039499      -164.3431
  19   2.0000      -6.039306      -164.3379
  20   2.0000      -6.035842      -164.2436
  21   2.0000      -6.035192      -164.2259
  22   2.0000      -6.032262      -164.1462
  23   2.0000      -6.031595      -164.1280
  24   2.0000      -1.006929       -27.3999
  25   2.0000      -0.980934       -26.6926
  26   2.0000      -0.919229       -25.0135
  27   2.0000      -0.914466       -24.8839
  28   2.0000      -0.863015       -23.4838
  29   2.0000      -0.858227       -23.3535
  30   2.0000      -0.848038       -23.0763
  31   2.0000      -0.809776       -22.0351
  32   2.0000      -0.786416       -21.3995
  33   2.0000      -0.770877       -20.9766
  34   2.0000      -0.711489       -19.3606
  35   2.0000      -0.705061       -19.1857
  36   2.0000      -0.694714       -18.9041
  37   2.0000      -0.653264       -17.7762
  38   2.0000      -0.638548       -17.3758
  39   2.0000      -0.610994       -16.6260
  40   2.0000      -0.596513       -16.2319
  41   2.0000      -0.574754       -15.6399
  42   2.0000      -0.573013       -15.5925
  43   2.0000      -0.556736       -15.1496
  44   2.0000      -0.540287       -14.7019
  45   2.0000      -0.532792       -14.4980
  46   2.0000      -0.516227       -14.0472
  47   2.0000      -0.512751       -13.9527
  48   2.0000      -0.502919       -13.6851
  49   2.0000      -0.496750       -13.5172
  50   2.0000      -0.487196       -13.2573
  51   2.0000      -0.483878       -13.1670
  52   2.0000      -0.471428       -12.8282
  53   2.0000      -0.465897       -12.6777
  54   2.0000      -0.458396       -12.4736
  55   2.0000      -0.449621       -12.2348
  56   2.0000      -0.438603       -11.9350
  57   2.0000      -0.436631       -11.8813
  58   2.0000      -0.430942       -11.7265
  59   2.0000      -0.430856       -11.7242
  60   2.0000      -0.425387       -11.5754
  61   2.0000      -0.415059       -11.2943
  62   2.0000      -0.411587       -11.1998
  63   2.0000      -0.338998        -9.2246
  64   2.0000      -0.331880        -9.0309
  65   2.0000      -0.325249        -8.8505
  66   2.0000      -0.292035        -7.9467
  67   0.0000       0.029105         0.7920
  68   0.0000       0.063037         1.7153
  69   0.0000       0.105632         2.8744
  70   0.0000       0.123546         3.3618
  71   0.0000       0.136714         3.7202

MULLIKEN ATOMIC CHARGES
-----------------------
   0 S :    0.128386
   1 C :   -0.150549
   2 C :   -0.108685
   3 C :    0.048985
   4 C :   -0.191774
   5 H :    0.000677
   6 C :    0.058876
   7 H :    0.041720
   8 H :    0.017859
   9 C :   -0.075960
  10 H :    0.029623
  11 H :    0.025577
  12 C :   -0.016031
  13 H :    0.023234
  14 H :    0.042056
  15 H :    0.022850
  16 S :    0.111381
  17 C :   -0.091676
  18 C :   -0.062281
  19 C :   -0.010565
  20 C :   -0.166605
  21 H :    0.028663
  22 C :    0.084772
  23 H :    0.041359
  24 H :    0.013801
  25 C :   -0.038490
  26 H :    0.009487
  27 H :    0.022938
  28 C :   -0.013797
  29 H :    0.008497
  30 H :    0.022690
  31 H :    0.016694
  32 H :    0.069046
  33 H :    0.057240
Sum of atomic charges:   -0.0000000

LOEWDIN ATOMIC CHARGES
----------------------
   0 S :    0.441884
   1 C :   -0.218319
   2 C :   -0.066479
   3 C :   -0.069618
   4 C :   -0.220357
   5 H :    0.026407
   6 C :   -0.036395
   7 H :    0.036112
   8 H :    0.026555
   9 C :   -0.040095
  10 H :    0.024898
  11 H :    0.022887
  12 C :   -0.060506
  13 H :    0.027413
  14 H :    0.029974
  15 H :    0.021089
  16 S :    0.385626
  17 C :   -0.182294
  18 C :   -0.076111
  19 C :   -0.050517
  20 C :   -0.184206
  21 H :    0.035092
  22 C :   -0.027062
  23 H :    0.038635
  24 H :    0.034002
  25 C :   -0.043131
  26 H :    0.018685
  27 H :    0.024019
  28 C :   -0.052582
  29 H :    0.017843
  30 H :    0.025610
  31 H :    0.020976
  32 H :    0.038731
  33 H :    0.031235

  Mayer bond orders larger than 0.100000
B(  0-S ,  1-C ) :   1.1616 B(  0-S ,  4-C ) :   1.1987 B(  1-C ,  2-C ) :   1.5306
B(  1-C ,  4-C ) :   0.1129 B(  1-C , 32-H ) :   0.9695 B(  2-C ,  3-C ) :   1.3093
B(  2-C ,  6-C ) :   1.0067 B(  3-C ,  4-C ) :   1.5105 B(  3-C ,  5-H ) :   0.9970
B(  4-C , 20-C ) :   1.0194 B(  6-C ,  7-H ) :   0.9354 B(  6-C ,  8-H ) :   0.9495
B(  6-C ,  9-C ) :   1.0732 B(  9-C , 10-H ) :   0.9602 B(  9-C , 11-H ) :   0.9533
B(  9-C , 12-C ) :   1.0684 B( 12-C , 13-H ) :   0.9712 B( 12-C , 14-H ) :   0.9711
B( 12-C , 15-H ) :   0.9785 B( 16-S , 17-C ) :   1.1425 B( 16-S , 20-C ) :   1.1434
B( 17-C , 18-C ) :   1.6248 B( 17-C , 20-C ) :   0.1082 B( 17-C , 33-H ) :   0.9622
B( 18-C , 19-C ) :   1.2375 B( 18-C , 21-H ) :   0.9783 B( 19-C , 20-C ) :   1.6109
B( 19-C , 22-C ) :   1.0264 B( 22-C , 23-H ) :   0.9257 B( 22-C , 24-H ) :   0.9337
B( 22-C , 25-C ) :   1.0637 B( 25-C , 26-H ) :   0.9523 B( 25-C , 27-H ) :   0.9409
B( 25-C , 28-C ) :   1.1042 B( 28-C , 29-H ) :   0.9697 B( 28-C , 30-H ) :   0.9705
B( 28-C , 31-H ) :   0.9672

Dispersion correction           -0.014231854
FINAL SINGLE POINT ENERGY     -1339.869321171794

DIPOLE MOMENT
-------------
                                X             Y             Z
Electronic contribution:     23.83945      -0.80159      16.22810
Nuclear contribution   :    -24.37257       0.70748     -16.74016
                        -----------------------------------------
Total Dipole Moment    :     -0.53311      -0.09411      -0.51206
                        -----------------------------------------
Magnitude (a.u.)       :      0.74516
Magnitude (Debye)      :      1.89406

Rotational constants in cm-1:     0.017581     0.009112     0.006490
Rotational constants in MHz :   527.073386   273.160318   194.577710

                             ****ORCA TERMINATED NORMALLY****
TOTAL RUN TIME: 0 days 0 hours 0 minutes 21 seconds 602 msec
