                         Program Version 4.2.1 -  RELEASE  -
|  1> ! wB97X-D3 SP def2-SVP
|  2> %pal
|  3> nprocs 24
|  4> end
|  5>
|  6> * xyz 0 1
|  7> S 	 -59.0437 	 4.05656 	 -22.2033
|  8> C 	 -60.7653 	 4.09287 	 -22.4766
|  9> C 	 -61.4536 	 3.55214 	 -21.4038
| 10> C 	 -60.6156 	 3.10909 	 -20.3654
| 11> C 	 -59.2646 	 3.16291 	 -20.6447
| 12> H 	 -60.958 	 2.56883 	 -19.5367
| 13> C 	 -62.9394 	 3.50061 	 -21.2908
| 14> H 	 -63.4837 	 4.42213 	 -21.4455
| 15> H 	 -63.2506 	 3.06752 	 -20.3785
| 16> C 	 -63.5978 	 2.69654 	 -22.488
| 17> H 	 -63.4594 	 3.28711 	 -23.4642
| 18> H 	 -63.0374 	 1.81738 	 -22.8324
| 19> C 	 -65.0614 	 2.30047 	 -22.2109
| 20> H 	 -64.9654 	 1.31279 	 -21.7017
| 21> H 	 -65.6198 	 2.9869 	 -21.587
| 22> H 	 -65.4946 	 1.96941 	 -23.1912
| 23> S 	 -57.3282 	 1.21726 	 -20.4461
| 24> C 	 -56.2812 	 1.09853 	 -19.0006
| 25> C 	 -56.6533 	 2.0611 	 -18.1007
| 26> C 	 -57.8267 	 2.84308 	 -18.4517
| 27> C 	 -58.2253 	 2.52745 	 -19.7794
| 28> H 	 -56.2127 	 2.1505 	 -17.1146
| 29> C 	 -58.5316 	 3.90355 	 -17.6383
| 30> H 	 -58.3413 	 3.65726 	 -16.5825
| 31> H 	 -59.6332 	 3.80321 	 -17.743
| 32> C 	 -58.1497 	 5.31855 	 -18.0759
| 33> H 	 -58.452 	 5.64052 	 -19.0336
| 34> H 	 -57.0597 	 5.34342 	 -18.0692
| 35> C 	 -58.6939 	 6.34098 	 -17.225
| 36> H 	 -59.7584 	 6.19271 	 -17.1046
| 37> H 	 -58.6601 	 7.32633 	 -17.5858
| 38> H 	 -58.1528 	 6.5129 	 -16.2591
| 39> H 	 -61.2453 	 4.25795 	 -23.4417
| 40> H 	 -55.4658 	 0.478785 	 -18.8354
| 41> *
| 42>
| 43>                          ****END OF INPUT****

CARTESIAN COORDINATES (ANGSTROEM)
---------------------------------
  S    -59.043700    4.056560  -22.203300
  C    -60.765300    4.092870  -22.476600
  C    -61.453600    3.552140  -21.403800
  C    -60.615600    3.109090  -20.365400
  C    -59.264600    3.162910  -20.644700
  H    -60.958000    2.568830  -19.536700
  C    -62.939400    3.500610  -21.290800
  H    -63.483700    4.422130  -21.445500
  H    -63.250600    3.067520  -20.378500
  C    -63.597800    2.696540  -22.488000
  H    -63.459400    3.287110  -23.464200
  H    -63.037400    1.817380  -22.832400
  C    -65.061400    2.300470  -22.210900
  H    -64.965400    1.312790  -21.701700
  H    -65.619800    2.986900  -21.587000
  H    -65.494600    1.969410  -23.191200
  S    -57.328200    1.217260  -20.446100
  C    -56.281200    1.098530  -19.000600
  C    -56.653300    2.061100  -18.100700
  C    -57.826700    2.843080  -18.451700
  C    -58.225300    2.527450  -19.779400
  H    -56.212700    2.150500  -17.114600
  C    -58.531600    3.903550  -17.638300
  H    -58.341300    3.657260  -16.582500
  H    -59.633200    3.803210  -17.743000
  C    -58.149700    5.318550  -18.075900
  H    -58.452000    5.640520  -19.033600
  H    -57.059700    5.343420  -18.069200
  C    -58.693900    6.340980  -17.225000
  H    -59.758400    6.192710  -17.104600
  H    -58.660100    7.326330  -17.585800
  H    -58.152800    6.512900  -16.259100
  H    -61.245300    4.257950  -23.441700
  H    -55.465800    0.478785  -18.835400

 Total Charge           Charge          ....    0
 Multiplicity           Mult            ....    1
 Number of Electrons    NEL             ....  134
 Basis Dimension        Dim             ....  322

ORBITAL ENERGIES
----------------

  NO   OCC          E(Eh)            E(eV)
   0   2.0000     -88.969753     -2420.9901
   1   2.0000     -88.966688     -2420.9066
   2   2.0000     -10.335233      -281.2360
   3   2.0000     -10.329053      -281.0678
   4   2.0000     -10.316025      -280.7133
   5   2.0000     -10.313866      -280.6545
   6   2.0000     -10.306336      -280.4497
   7   2.0000     -10.297908      -280.2203
   8   2.0000     -10.296941      -280.1940
   9   2.0000     -10.294410      -280.1251
  10   2.0000     -10.294203      -280.1195
  11   2.0000     -10.290300      -280.0133
  12   2.0000     -10.288712      -279.9701
  13   2.0000     -10.286637      -279.9136
  14   2.0000     -10.271888      -279.5123
  15   2.0000     -10.263774      -279.2915
  16   2.0000      -8.083198      -219.9550
  17   2.0000      -8.081042      -219.8963
  18   2.0000      -6.041802      -164.4058
  19   2.0000      -6.039635      -164.3468
  20   2.0000      -6.037826      -164.2976
  21   2.0000      -6.035423      -164.2322
  22   2.0000      -6.033981      -164.1930
  23   2.0000      -6.031903      -164.1364
  24   2.0000      -1.001089       -27.2410
  25   2.0000      -0.981748       -26.7147
  26   2.0000      -0.917614       -24.9696
  27   2.0000      -0.907261       -24.6878
  28   2.0000      -0.866900       -23.5895
  29   2.0000      -0.854700       -23.2576
  30   2.0000      -0.849979       -23.1291
  31   2.0000      -0.818760       -22.2796
  32   2.0000      -0.779011       -21.1980
  33   2.0000      -0.766879       -20.8678
  34   2.0000      -0.708607       -19.2822
  35   2.0000      -0.698622       -19.0105
  36   2.0000      -0.690558       -18.7911
  37   2.0000      -0.660761       -17.9802
  38   2.0000      -0.643486       -17.5101
  39   2.0000      -0.623135       -16.9564
  40   2.0000      -0.598464       -16.2850
  41   2.0000      -0.571362       -15.5475
  42   2.0000      -0.570398       -15.5213
  43   2.0000      -0.554677       -15.0935
  44   2.0000      -0.529796       -14.4165
  45   2.0000      -0.527889       -14.3646
  46   2.0000      -0.523576       -14.2472
  47   2.0000      -0.515555       -14.0290
  48   2.0000      -0.502952       -13.6860
  49   2.0000      -0.499898       -13.6029
  50   2.0000      -0.492752       -13.4085
  51   2.0000      -0.479156       -13.0385
  52   2.0000      -0.470344       -12.7987
  53   2.0000      -0.465683       -12.6719
  54   2.0000      -0.457123       -12.4389
  55   2.0000      -0.454701       -12.3731
  56   2.0000      -0.450080       -12.2473
  57   2.0000      -0.431595       -11.7443
  58   2.0000      -0.426142       -11.5959
  59   2.0000      -0.423896       -11.5348
  60   2.0000      -0.420311       -11.4373
  61   2.0000      -0.409677       -11.1479
  62   2.0000      -0.402403       -10.9499
  63   2.0000      -0.344601        -9.3771
  64   2.0000      -0.331707        -9.0262
  65   2.0000      -0.321309        -8.7432
  66   2.0000      -0.296948        -8.0804
  67   0.0000       0.027081         0.7369
  68   0.0000       0.061510         1.6738
  69   0.0000       0.114837         3.1249
  70   0.0000       0.119079         3.2403
  71   0.0000       0.129485         3.5235

MULLIKEN ATOMIC CHARGES
-----------------------
   0 S :    0.114855
   1 C :   -0.132394
   2 C :   -0.064505
   3 C :    0.051214
   4 C :   -0.149618
   5 H :    0.001390
   6 C :    0.110366
   7 H :    0.041101
   8 H :    0.006422
   9 C :   -0.166251
  10 H :    0.026329
  11 H :    0.028271
  12 C :   -0.043494
  13 H :    0.036533
  14 H :    0.045108
  15 H :    0.040780
  16 S :    0.115754
  17 C :   -0.063149
  18 C :   -0.028866
  19 C :   -0.050734
  20 C :   -0.192361
  21 H :    0.018288
  22 C :    0.069854
  23 H :    0.022982
  24 H :    0.022369
  25 C :   -0.026767
  26 H :    0.024336
  27 H :    0.019237
  28 C :   -0.021277
  29 H :    0.017206
  30 H :    0.008021
  31 H :    0.024543
  32 H :    0.060855
  33 H :    0.033602
Sum of atomic charges:   -0.0000000

LOEWDIN ATOMIC CHARGES
----------------------
   0 S :    0.390057
   1 C :   -0.201553
   2 C :   -0.063959
   3 C :   -0.054601
   4 C :   -0.178804
   5 H :    0.024366
   6 C :   -0.026210
   7 H :    0.037073
   8 H :    0.020593
   9 C :   -0.050622
  10 H :    0.019587
  11 H :    0.020478
  12 C :   -0.072898
  13 H :    0.033193
  14 H :    0.023689
  15 H :    0.036071
  16 S :    0.411768
  17 C :   -0.170539
  18 C :   -0.067861
  19 C :   -0.053541
  20 C :   -0.207598
  21 H :    0.030469
  22 C :   -0.031824
  23 H :    0.032740
  24 H :    0.032592
  25 C :   -0.040266
  26 H :    0.025708
  27 H :    0.025513
  28 C :   -0.067471
  29 H :    0.024704
  30 H :    0.019543
  31 H :    0.027230
  32 H :    0.032636
  33 H :    0.019736

  Mayer bond orders larger than 0.100000
B(  0-S ,  1-C ) :   1.1424 B(  0-S ,  4-C ) :   1.1337 B(  1-C ,  2-C ) :   1.5908
B(  1-C , 32-H ) :   0.9631 B(  2-C ,  3-C ) :   1.2656 B(  2-C ,  6-C ) :   1.0400
B(  3-C ,  4-C ) :   1.5696 B(  3-C ,  5-H ) :   0.9919 B(  4-C , 20-C ) :   1.0316
B(  6-C ,  7-H ) :   0.9363 B(  6-C ,  8-H ) :   0.9485 B(  6-C ,  9-C ) :   1.0257
B(  9-C , 10-H ) :   0.9591 B(  9-C , 11-H ) :   0.9631 B(  9-C , 12-C ) :   1.0729
B( 12-C , 13-H ) :   0.9759 B( 12-C , 14-H ) :   0.9756 B( 12-C , 15-H ) :   0.9706
B( 16-S , 17-C ) :   1.1366 B( 16-S , 20-C ) :   1.1669 B( 17-C , 18-C ) :   1.6121
B( 17-C , 33-H ) :   0.9767 B( 18-C , 19-C ) :   1.2595 B( 18-C , 21-H ) :   0.9805
B( 19-C , 20-C ) :   1.5607 B( 19-C , 22-C ) :   1.0536 B( 22-C , 23-H ) :   0.9331
B( 22-C , 24-H ) :   0.9240 B( 22-C , 25-C ) :   1.0619 B( 25-C , 26-H ) :   0.9476
B( 25-C , 27-H ) :   0.9514 B( 25-C , 28-C ) :   1.1090 B( 28-C , 29-H ) :   0.9625
B( 28-C , 30-H ) :   0.9669 B( 28-C , 31-H ) :   0.9684

Dispersion correction           -0.014209215
FINAL SINGLE POINT ENERGY     -1339.856581746413

DIPOLE MOMENT
-------------
                                X             Y             Z
Electronic contribution:     20.60005      -9.06924      -8.33249
Nuclear contribution   :    -21.02195       9.08468       8.66334
                        -----------------------------------------
Total Dipole Moment    :     -0.42189       0.01544       0.33085
                        -----------------------------------------
Magnitude (a.u.)       :      0.53637
Magnitude (Debye)      :      1.36334

Rotational constants in cm-1:     0.019007     0.007835     0.006742
Rotational constants in MHz :   569.814047   234.873093   202.134053

                             ****ORCA TERMINATED NORMALLY****
TOTAL RUN TIME: 0 days 0 hours 0 minutes 21 seconds 424 msec
