                         Program Version 4.2.1 -  RELEASE  -
|  1> ! wB97X-D3 SP def2-SVP
|  2> %pal
|  3> nprocs 24
|  4> end
|  5>
|  6> * xyz 0 1
|  7> S 	 -54.801 	 6.68393 	 -101.257
|  8> C 	 -55.7133 	 7.26732 	 -102.579
|  9> C 	 -56.1239 	 8.63808 	 -102.298
| 10> C 	 -55.5936 	 9.10511 	 -101.063
| 11> C 	 -54.7813 	 8.23926 	 -100.383
| 12> H 	 -55.8849 	 10.0898 	 -100.667
| 13> C 	 -56.8963 	 9.54682 	 -103.32
| 14> H 	 -57.0473 	 10.442 	 -102.767
| 15> H 	 -57.8637 	 9.23764 	 -103.529
| 16> C 	 -56.0747 	 9.88591 	 -104.563
| 17> H 	 -55.3433 	 10.6872 	 -104.352
| 18> H 	 -55.4557 	 9.01479 	 -104.816
| 19> C 	 -56.9257 	 10.2507 	 -105.774
| 20> H 	 -57.5072 	 11.128 	 -105.521
| 21> H 	 -56.2349 	 10.4169 	 -106.7
| 22> H 	 -57.4915 	 9.39596 	 -106.074
| 23> S 	 -54.1705 	 7.4055 	 -97.8426
| 24> C 	 -53.2373 	 8.37564 	 -96.8009
| 25> C 	 -52.9253 	 9.58317 	 -97.4295
| 26> C 	 -53.2584 	 9.66993 	 -98.7998
| 27> C 	 -53.9885 	 8.54443 	 -99.193
| 28> H 	 -52.5252 	 10.4551 	 -96.8771
| 29> C 	 -53.0824 	 10.9656 	 -99.5883
| 30> H 	 -53.3968 	 10.7827 	 -100.606
| 31> H 	 -52.0085 	 11.1726 	 -99.661
| 32> C 	 -53.6801 	 12.3208 	 -99.1063
| 33> H 	 -53.3661 	 12.4245 	 -98.1204
| 34> H 	 -54.81 	 12.2995 	 -99.1404
| 35> C 	 -53.0947 	 13.592 	 -99.8317
| 36> H 	 -52.0127 	 13.7695 	 -99.551
| 37> H 	 -53.5027 	 14.5032 	 -99.4043
| 38> H 	 -53.1921 	 13.7121 	 -100.854
| 39> H 	 -55.9674 	 6.73409 	 -103.475
| 40> H 	 -52.8313 	 8.11568 	 -95.8051
| 41> *
| 42>
| 43>                          ****END OF INPUT****

CARTESIAN COORDINATES (ANGSTROEM)
---------------------------------
  S    -54.801000    6.683930  -101.257000
  C    -55.713300    7.267320  -102.579000
  C    -56.123900    8.638080  -102.298000
  C    -55.593600    9.105110  -101.063000
  C    -54.781300    8.239260  -100.383000
  H    -55.884900   10.089800  -100.667000
  C    -56.896300    9.546820  -103.320000
  H    -57.047300   10.442000  -102.767000
  H    -57.863700    9.237640  -103.529000
  C    -56.074700    9.885910  -104.563000
  H    -55.343300   10.687200  -104.352000
  H    -55.455700    9.014790  -104.816000
  C    -56.925700   10.250700  -105.774000
  H    -57.507200   11.128000  -105.521000
  H    -56.234900   10.416900  -106.700000
  H    -57.491500    9.395960  -106.074000
  S    -54.170500    7.405500  -97.842600
  C    -53.237300    8.375640  -96.800900
  C    -52.925300    9.583170  -97.429500
  C    -53.258400    9.669930  -98.799800
  C    -53.988500    8.544430  -99.193000
  H    -52.525200   10.455100  -96.877100
  C    -53.082400   10.965600  -99.588300
  H    -53.396800   10.782700  -100.606000
  H    -52.008500   11.172600  -99.661000
  C    -53.680100   12.320800  -99.106300
  H    -53.366100   12.424500  -98.120400
  H    -54.810000   12.299500  -99.140400
  C    -53.094700   13.592000  -99.831700
  H    -52.012700   13.769500  -99.551000
  H    -53.502700   14.503200  -99.404300
  H    -53.192100   13.712100  -100.854000
  H    -55.967400    6.734090  -103.475000
  H    -52.831300    8.115680  -95.805100

 Total Charge           Charge          ....    0
 Multiplicity           Mult            ....    1
 Number of Electrons    NEL             ....  134
 Basis Dimension        Dim             ....  322

ORBITAL ENERGIES
----------------

  NO   OCC          E(Eh)            E(eV)
   0   2.0000     -88.969672     -2420.9879
   1   2.0000     -88.966340     -2420.8972
   2   2.0000     -10.331818      -281.1431
   3   2.0000     -10.330744      -281.1138
   4   2.0000     -10.319985      -280.8211
   5   2.0000     -10.318825      -280.7895
   6   2.0000     -10.308593      -280.5111
   7   2.0000     -10.306266      -280.4478
   8   2.0000     -10.296248      -280.1752
   9   2.0000     -10.295967      -280.1675
  10   2.0000     -10.293858      -280.1101
  11   2.0000     -10.292218      -280.0655
  12   2.0000     -10.286809      -279.9183
  13   2.0000     -10.285128      -279.8726
  14   2.0000     -10.283104      -279.8175
  15   2.0000     -10.282634      -279.8047
  16   2.0000      -8.084075      -219.9789
  17   2.0000      -8.081546      -219.9101
  18   2.0000      -6.042520      -164.4253
  19   2.0000      -6.040016      -164.3572
  20   2.0000      -6.038395      -164.3131
  21   2.0000      -6.035829      -164.2433
  22   2.0000      -6.035132      -164.2243
  23   2.0000      -6.032479      -164.1521
  24   2.0000      -1.005720       -27.3670
  25   2.0000      -0.983949       -26.7746
  26   2.0000      -0.909512       -24.7491
  27   2.0000      -0.905300       -24.6345
  28   2.0000      -0.868142       -23.6233
  29   2.0000      -0.852888       -23.2083
  30   2.0000      -0.847574       -23.0636
  31   2.0000      -0.809976       -22.0406
  32   2.0000      -0.785569       -21.3764
  33   2.0000      -0.769828       -20.9481
  34   2.0000      -0.709855       -19.3161
  35   2.0000      -0.700098       -19.0506
  36   2.0000      -0.693623       -18.8744
  37   2.0000      -0.658525       -17.9194
  38   2.0000      -0.642482       -17.4828
  39   2.0000      -0.620729       -16.8909
  40   2.0000      -0.596347       -16.2274
  41   2.0000      -0.570785       -15.5319
  42   2.0000      -0.564995       -15.3743
  43   2.0000      -0.556088       -15.1319
  44   2.0000      -0.524151       -14.2629
  45   2.0000      -0.521274       -14.1846
  46   2.0000      -0.517029       -14.0691
  47   2.0000      -0.516364       -14.0510
  48   2.0000      -0.505424       -13.7533
  49   2.0000      -0.501697       -13.6519
  50   2.0000      -0.494026       -13.4431
  51   2.0000      -0.479975       -13.0608
  52   2.0000      -0.474515       -12.9122
  53   2.0000      -0.466770       -12.7015
  54   2.0000      -0.456445       -12.4205
  55   2.0000      -0.451920       -12.2974
  56   2.0000      -0.441511       -12.0141
  57   2.0000      -0.433434       -11.7943
  58   2.0000      -0.428921       -11.6715
  59   2.0000      -0.427282       -11.6269
  60   2.0000      -0.425925       -11.5900
  61   2.0000      -0.422387       -11.4937
  62   2.0000      -0.409644       -11.1470
  63   2.0000      -0.348685        -9.4882
  64   2.0000      -0.332522        -9.0484
  65   2.0000      -0.328560        -8.9406
  66   2.0000      -0.287386        -7.8202
  67   0.0000       0.024737         0.6731
  68   0.0000       0.065520         1.7829
  69   0.0000       0.108412         2.9500
  70   0.0000       0.125209         3.4071
  71   0.0000       0.130228         3.5437

MULLIKEN ATOMIC CHARGES
-----------------------
   0 S :    0.128094
   1 C :   -0.114530
   2 C :   -0.146297
   3 C :    0.023220
   4 C :   -0.137177
   5 H :    0.022735
   6 C :    0.126607
   7 H :   -0.000762
   8 H :    0.013444
   9 C :   -0.092088
  10 H :    0.032652
  11 H :    0.025845
  12 C :   -0.061955
  13 H :    0.041948
  14 H :    0.043732
  15 H :    0.031013
  16 S :    0.113761
  17 C :   -0.091557
  18 C :   -0.083002
  19 C :    0.002414
  20 C :   -0.166909
  21 H :    0.031572
  22 C :    0.049787
  23 H :    0.021197
  24 H :    0.024355
  25 C :   -0.045047
  26 H :    0.009760
  27 H :    0.043845
  28 C :   -0.057710
  29 H :    0.031077
  30 H :    0.024609
  31 H :    0.028469
  32 H :    0.054261
  33 H :    0.072636
Sum of atomic charges:    0.0000000

LOEWDIN ATOMIC CHARGES
----------------------
   0 S :    0.423517
   1 C :   -0.210154
   2 C :   -0.059871
   3 C :   -0.066077
   4 C :   -0.200182
   5 H :    0.035674
   6 C :   -0.024976
   7 H :    0.025594
   8 H :    0.019469
   9 C :   -0.044982
  10 H :    0.026586
  11 H :    0.021433
  12 C :   -0.067519
  13 H :    0.023966
  14 H :    0.038498
  15 H :    0.020066
  16 S :    0.422433
  17 C :   -0.208887
  18 C :   -0.079419
  19 C :   -0.056641
  20 C :   -0.186970
  21 H :    0.033078
  22 C :   -0.035923
  23 H :    0.026106
  24 H :    0.034280
  25 C :   -0.030026
  26 H :    0.014385
  27 H :    0.028347
  28 C :   -0.066253
  29 H :    0.033548
  30 H :    0.029213
  31 H :    0.012942
  32 H :    0.028402
  33 H :    0.040345

  Mayer bond orders larger than 0.100000
B(  0-S ,  1-C ) :   1.1848 B(  0-S ,  4-C ) :   1.1512 B(  1-C ,  2-C ) :   1.5262
B(  1-C ,  4-C ) :   0.1119 B(  1-C , 32-H ) :   0.9746 B(  2-C ,  3-C ) :   1.3140
B(  2-C ,  6-C ) :   1.0199 B(  3-C ,  4-C ) :   1.5300 B(  3-C ,  5-H ) :   0.9873
B(  4-C , 20-C ) :   1.0390 B(  6-C ,  7-H ) :   0.9326 B(  6-C ,  8-H ) :   0.9453
B(  6-C ,  9-C ) :   1.0471 B(  9-C , 10-H ) :   0.9551 B(  9-C , 11-H ) :   0.9656
B(  9-C , 12-C ) :   1.0805 B( 12-C , 13-H ) :   0.9753 B( 12-C , 14-H ) :   0.9720
B( 12-C , 15-H ) :   0.9768 B( 16-S , 17-C ) :   1.1714 B( 16-S , 20-C ) :   1.1578
B( 17-C , 18-C ) :   1.5748 B( 17-C , 20-C ) :   0.1056 B( 17-C , 33-H ) :   0.9640
B( 18-C , 19-C ) :   1.2719 B( 18-C , 21-H ) :   0.9814 B( 19-C , 20-C ) :   1.5592
B( 19-C , 22-C ) :   1.0519 B( 22-C , 23-H ) :   0.9339 B( 22-C , 24-H ) :   0.9269
B( 22-C , 25-C ) :   1.0638 B( 25-C , 26-H ) :   0.9475 B( 25-C , 27-H ) :   0.9577
B( 25-C , 28-C ) :   1.0790 B( 28-C , 29-H ) :   0.9717 B( 28-C , 30-H ) :   0.9720
B( 28-C , 31-H ) :   0.9831

Dispersion correction           -0.013605098
FINAL SINGLE POINT ENERGY     -1339.864353461610

DIPOLE MOMENT
-------------
                                X             Y             Z
Electronic contribution:      2.80562     -27.92599      17.41913
Nuclear contribution   :     -2.88103      28.66494     -17.60802
                        -----------------------------------------
Total Dipole Moment    :     -0.07541       0.73895      -0.18889
                        -----------------------------------------
Magnitude (a.u.)       :      0.76643
Magnitude (Debye)      :      1.94811

Rotational constants in cm-1:     0.016929     0.008690     0.005999
Rotational constants in MHz :   507.524116   260.508519   179.837710

                             ****ORCA TERMINATED NORMALLY****
TOTAL RUN TIME: 0 days 0 hours 0 minutes 19 seconds 991 msec
