                         Program Version 4.2.1 -  RELEASE  -
|  1> ! wB97X-D3 SP def2-SVP
|  2> %pal
|  3> nprocs 24
|  4> end
|  5>
|  6> * xyz 0 1
|  7> S 	 -73.6834 	 2.13086 	 12.9162
|  8> C 	 -72.2403 	 2.41592 	 11.9963
|  9> C 	 -71.3183 	 3.25008 	 12.6151
| 10> C 	 -71.9455 	 3.81477 	 13.7878
| 11> C 	 -73.2661 	 3.5257 	 13.92
| 12> H 	 -71.4998 	 4.55436 	 14.4979
| 13> C 	 -69.887 	 3.57636 	 12.1392
| 14> H 	 -69.6844 	 4.67627 	 12.3538
| 15> H 	 -69.7977 	 3.39503 	 11.0884
| 16> C 	 -68.7439 	 2.98662 	 12.9575
| 17> H 	 -67.8079 	 3.5958 	 12.6645
| 18> H 	 -68.9034 	 3.16507 	 14.0293
| 19> C 	 -68.4811 	 1.47361 	 12.8059
| 20> H 	 -67.7924 	 1.01593 	 13.5731
| 21> H 	 -69.4457 	 0.951193 	 12.763
| 22> H 	 -68.0183 	 1.25749 	 11.8292
| 23> S 	 -75.5828 	 4.78415 	 13.8564
| 24> C 	 -76.1711 	 5.6678 	 15.2847
| 25> C 	 -75.2424 	 5.70753 	 16.3123
| 26> C 	 -74.077 	 4.86795 	 15.9631
| 27> C 	 -74.1928 	 4.24853 	 14.7505
| 28> H 	 -75.4281 	 6.30642 	 17.1485
| 29> C 	 -72.9465 	 4.63396 	 16.9708
| 30> H 	 -72.3431 	 3.73023 	 16.6691
| 31> H 	 -73.426 	 4.25252 	 17.8501
| 32> C 	 -72.2893 	 5.9582 	 17.4077
| 33> H 	 -71.4762 	 5.67165 	 18.1529
| 34> H 	 -72.9642 	 6.51252 	 18.056
| 35> C 	 -71.6519 	 6.7504 	 16.2607
| 36> H 	 -72.3271 	 7.01779 	 15.4458
| 37> H 	 -70.7731 	 6.31121 	 15.8203
| 38> H 	 -71.2776 	 7.7059 	 16.7241
| 39> H 	 -71.9758 	 1.70059 	 11.2809
| 40> H 	 -77.0089 	 6.31518 	 15.1757
| 41> *
| 42>
| 43>                          ****END OF INPUT****

CARTESIAN COORDINATES (ANGSTROEM)
---------------------------------
  S    -73.683400    2.130860   12.916200
  C    -72.240300    2.415920   11.996300
  C    -71.318300    3.250080   12.615100
  C    -71.945500    3.814770   13.787800
  C    -73.266100    3.525700   13.920000
  H    -71.499800    4.554360   14.497900
  C    -69.887000    3.576360   12.139200
  H    -69.684400    4.676270   12.353800
  H    -69.797700    3.395030   11.088400
  C    -68.743900    2.986620   12.957500
  H    -67.807900    3.595800   12.664500
  H    -68.903400    3.165070   14.029300
  C    -68.481100    1.473610   12.805900
  H    -67.792400    1.015930   13.573100
  H    -69.445700    0.951193   12.763000
  H    -68.018300    1.257490   11.829200
  S    -75.582800    4.784150   13.856400
  C    -76.171100    5.667800   15.284700
  C    -75.242400    5.707530   16.312300
  C    -74.077000    4.867950   15.963100
  C    -74.192800    4.248530   14.750500
  H    -75.428100    6.306420   17.148500
  C    -72.946500    4.633960   16.970800
  H    -72.343100    3.730230   16.669100
  H    -73.426000    4.252520   17.850100
  C    -72.289300    5.958200   17.407700
  H    -71.476200    5.671650   18.152900
  H    -72.964200    6.512520   18.056000
  C    -71.651900    6.750400   16.260700
  H    -72.327100    7.017790   15.445800
  H    -70.773100    6.311210   15.820300
  H    -71.277600    7.705900   16.724100
  H    -71.975800    1.700590   11.280900
  H    -77.008900    6.315180   15.175700

 Total Charge           Charge          ....    0
 Multiplicity           Mult            ....    1
 Number of Electrons    NEL             ....  134
 Basis Dimension        Dim             ....  322

ORBITAL ENERGIES
----------------

  NO   OCC          E(Eh)            E(eV)
   0   2.0000     -88.964818     -2420.8558
   1   2.0000     -88.959956     -2420.7235
   2   2.0000     -10.325073      -280.9595
   3   2.0000     -10.320706      -280.8407
   4   2.0000     -10.317317      -280.7485
   5   2.0000     -10.308890      -280.5192
   6   2.0000     -10.307319      -280.4764
   7   2.0000     -10.305671      -280.4316
   8   2.0000     -10.300995      -280.3043
   9   2.0000     -10.298478      -280.2358
  10   2.0000     -10.297780      -280.2169
  11   2.0000     -10.295925      -280.1664
  12   2.0000     -10.294411      -280.1252
  13   2.0000     -10.293253      -280.0937
  14   2.0000     -10.281949      -279.7861
  15   2.0000     -10.281468      -279.7730
  16   2.0000      -8.079799      -219.8625
  17   2.0000      -8.075003      -219.7320
  18   2.0000      -6.038225      -164.3085
  19   2.0000      -6.034656      -164.2113
  20   2.0000      -6.033527      -164.1806
  21   2.0000      -6.030254      -164.0916
  22   2.0000      -6.029586      -164.0734
  23   2.0000      -6.025582      -163.9644
  24   2.0000      -1.008344       -27.4384
  25   2.0000      -0.981204       -26.6999
  26   2.0000      -0.909547       -24.7500
  27   2.0000      -0.906658       -24.6714
  28   2.0000      -0.872143       -23.7322
  29   2.0000      -0.847409       -23.0592
  30   2.0000      -0.840488       -22.8708
  31   2.0000      -0.814898       -22.1745
  32   2.0000      -0.783879       -21.3304
  33   2.0000      -0.776481       -21.1291
  34   2.0000      -0.709381       -19.3032
  35   2.0000      -0.694482       -18.8978
  36   2.0000      -0.690148       -18.7799
  37   2.0000      -0.664519       -18.0825
  38   2.0000      -0.641286       -17.4503
  39   2.0000      -0.619204       -16.8494
  40   2.0000      -0.593663       -16.1544
  41   2.0000      -0.568283       -15.4638
  42   2.0000      -0.550506       -14.9800
  43   2.0000      -0.549236       -14.9455
  44   2.0000      -0.537719       -14.6321
  45   2.0000      -0.535098       -14.5608
  46   2.0000      -0.521786       -14.1985
  47   2.0000      -0.517023       -14.0689
  48   2.0000      -0.502705       -13.6793
  49   2.0000      -0.492188       -13.3931
  50   2.0000      -0.487449       -13.2642
  51   2.0000      -0.476573       -12.9682
  52   2.0000      -0.468972       -12.7614
  53   2.0000      -0.463920       -12.6239
  54   2.0000      -0.459007       -12.4902
  55   2.0000      -0.451290       -12.2802
  56   2.0000      -0.444824       -12.1043
  57   2.0000      -0.434184       -11.8147
  58   2.0000      -0.429877       -11.6976
  59   2.0000      -0.426195       -11.5974
  60   2.0000      -0.424037       -11.5386
  61   2.0000      -0.413779       -11.2595
  62   2.0000      -0.409773       -11.1505
  63   2.0000      -0.353129        -9.6091
  64   2.0000      -0.327527        -8.9125
  65   2.0000      -0.324904        -8.8411
  66   2.0000      -0.289962        -7.8903
  67   0.0000       0.029575         0.8048
  68   0.0000       0.068940         1.8760
  69   0.0000       0.103690         2.8216
  70   0.0000       0.108195         2.9441
  71   0.0000       0.125410         3.4126

MULLIKEN ATOMIC CHARGES
-----------------------
   0 S :    0.112302
   1 C :   -0.098947
   2 C :   -0.086969
   3 C :    0.026832
   4 C :   -0.166696
   5 H :   -0.000741
   6 C :    0.068324
   7 H :    0.041538
   8 H :    0.027431
   9 C :   -0.105196
  10 H :    0.041777
  11 H :    0.033330
  12 C :   -0.065619
  13 H :    0.049629
  14 H :    0.033377
  15 H :    0.023839
  16 S :    0.085963
  17 C :   -0.080497
  18 C :   -0.012366
  19 C :   -0.063559
  20 C :   -0.121287
  21 H :    0.005590
  22 C :    0.054463
  23 H :    0.041285
  24 H :    0.022685
  25 C :   -0.092733
  26 H :    0.035712
  27 H :    0.033532
  28 C :   -0.058744
  29 H :    0.054477
  30 H :    0.044431
  31 H :    0.034101
  32 H :    0.031358
  33 H :    0.051376
Sum of atomic charges:    0.0000000

LOEWDIN ATOMIC CHARGES
----------------------
   0 S :    0.394878
   1 C :   -0.192418
   2 C :   -0.059315
   3 C :   -0.062486
   4 C :   -0.191455
   5 H :    0.034584
   6 C :   -0.031021
   7 H :    0.045265
   8 H :    0.027692
   9 C :   -0.049534
  10 H :    0.031890
  11 H :    0.024363
  12 C :   -0.079269
  13 H :    0.033457
  14 H :    0.025940
  15 H :    0.022872
  16 S :    0.394527
  17 C :   -0.164750
  18 C :   -0.057961
  19 C :   -0.056077
  20 C :   -0.200251
  21 H :    0.023908
  22 C :   -0.042965
  23 H :    0.037936
  24 H :    0.031142
  25 C :   -0.043954
  26 H :    0.034053
  27 H :    0.024187
  28 C :   -0.072588
  29 H :    0.029226
  30 H :    0.022030
  31 H :    0.034386
  32 H :    0.011585
  33 H :    0.020125

  Mayer bond orders larger than 0.100000
B(  0-S ,  1-C ) :   1.1354 B(  0-S ,  4-C ) :   1.1343 B(  1-C ,  2-C ) :   1.6206
B(  1-C , 32-H ) :   0.9686 B(  2-C ,  3-C ) :   1.2222 B(  2-C ,  6-C ) :   1.0242
B(  3-C ,  4-C ) :   1.6107 B(  3-C ,  5-H ) :   0.9779 B(  4-C , 20-C ) :   1.0383
B(  6-C ,  7-H ) :   0.9382 B(  6-C ,  8-H ) :   0.9483 B(  6-C ,  9-C ) :   1.0608
B(  9-C , 10-H ) :   0.9583 B(  9-C , 11-H ) :   0.9575 B(  9-C , 12-C ) :   1.0657
B( 12-C , 13-H ) :   0.9760 B( 12-C , 14-H ) :   0.9757 B( 12-C , 15-H ) :   0.9749
B( 16-S , 17-C ) :   1.1431 B( 16-S , 20-C ) :   1.1279 B( 17-C , 18-C ) :   1.6419
B( 17-C , 33-H ) :   0.9698 B( 18-C , 19-C ) :   1.1788 B( 18-C , 21-H ) :   1.0025
B( 19-C , 20-C ) :   1.6465 B( 19-C , 22-C ) :   1.0303 B( 22-C , 23-H ) :   0.9437
B( 22-C , 24-H ) :   0.9321 B( 22-C , 25-C ) :   1.0673 B( 25-C , 26-H ) :   0.9525
B( 25-C , 27-H ) :   0.9561 B( 25-C , 28-C ) :   1.0787 B( 28-C , 29-H ) :   0.9721
B( 28-C , 30-H ) :   0.9633 B( 28-C , 31-H ) :   0.9686

Dispersion correction           -0.015201311
FINAL SINGLE POINT ENERGY     -1339.868059618490

DIPOLE MOMENT
-------------
                                X             Y             Z
Electronic contribution:    -26.73792      -5.01416      -7.91036
Nuclear contribution   :     27.32339       5.38671       8.31354
                        -----------------------------------------
Total Dipole Moment    :      0.58547       0.37255       0.40318
                        -----------------------------------------
Magnitude (a.u.)       :      0.80257
Magnitude (Debye)      :      2.03997

Rotational constants in cm-1:     0.019980     0.009230     0.006953
Rotational constants in MHz :   598.989541   276.710375   208.445963

                             ****ORCA TERMINATED NORMALLY****
TOTAL RUN TIME: 0 days 0 hours 0 minutes 22 seconds 323 msec
