                         Program Version 4.2.1 -  RELEASE  -
|  1> ! wB97X-D3 SP def2-SVP
|  2> %pal
|  3> nprocs 24
|  4> end
|  5>
|  6> * xyz 0 1
|  7> S 	 -67.975 	 7.76968 	 -77.4836
|  8> C 	 -67.388 	 7.82356 	 -75.8618
|  9> C 	 -68.1983 	 8.51998 	 -74.9684
| 10> C 	 -69.4 	 8.77517 	 -75.6655
| 11> C 	 -69.5066 	 8.36547 	 -76.9904
| 12> H 	 -70.2489 	 9.35442 	 -75.2334
| 13> C 	 -67.817 	 8.88042 	 -73.5215
| 14> H 	 -67.4271 	 9.88099 	 -73.5473
| 15> H 	 -67.0209 	 8.09207 	 -73.4151
| 16> C 	 -69.013 	 8.66119 	 -72.609
| 17> H 	 -68.7176 	 9.01186 	 -71.6054
| 18> H 	 -69.8976 	 9.33111 	 -72.939
| 19> C 	 -69.6552 	 7.25048 	 -72.4315
| 20> H 	 -70.5429 	 7.05903 	 -73.0573
| 21> H 	 -68.9564 	 6.49844 	 -72.702
| 22> H 	 -70.0096 	 7.01808 	 -71.4333
| 23> S 	 -70.3064 	 8.86766 	 -79.6701
| 24> C 	 -71.9952 	 8.9182 	 -80.031
| 25> C 	 -72.6681 	 8.75438 	 -78.8611
| 26> C 	 -71.922 	 8.49462 	 -77.7164
| 27> C 	 -70.5976 	 8.54218 	 -77.9302
| 28> H 	 -73.773 	 8.70116 	 -78.9282
| 29> C 	 -72.5972 	 8.10083 	 -76.4128
| 30> H 	 -71.8762 	 7.65184 	 -75.6692
| 31> H 	 -73.4085 	 7.3879 	 -76.6121
| 32> C 	 -73.2831 	 9.19034 	 -75.6189
| 33> H 	 -74.0552 	 9.73078 	 -76.1727
| 34> H 	 -72.6107 	 9.93663 	 -75.224
| 35> C 	 -74.0036 	 8.57878 	 -74.417
| 36> H 	 -74.2869 	 9.495 	 -73.7268
| 37> H 	 -73.2238 	 8.02532 	 -73.8781
| 38> H 	 -74.8144 	 7.85471 	 -74.6746
| 39> H 	 -66.5425 	 7.35278 	 -75.587
| 40> H 	 -72.4781 	 9.17036 	 -81.0147
| 41> *
| 42>
| 43>                          ****END OF INPUT****

CARTESIAN COORDINATES (ANGSTROEM)
---------------------------------
  S    -67.975000    7.769680  -77.483600
  C    -67.388000    7.823560  -75.861800
  C    -68.198300    8.519980  -74.968400
  C    -69.400000    8.775170  -75.665500
  C    -69.506600    8.365470  -76.990400
  H    -70.248900    9.354420  -75.233400
  C    -67.817000    8.880420  -73.521500
  H    -67.427100    9.880990  -73.547300
  H    -67.020900    8.092070  -73.415100
  C    -69.013000    8.661190  -72.609000
  H    -68.717600    9.011860  -71.605400
  H    -69.897600    9.331110  -72.939000
  C    -69.655200    7.250480  -72.431500
  H    -70.542900    7.059030  -73.057300
  H    -68.956400    6.498440  -72.702000
  H    -70.009600    7.018080  -71.433300
  S    -70.306400    8.867660  -79.670100
  C    -71.995200    8.918200  -80.031000
  C    -72.668100    8.754380  -78.861100
  C    -71.922000    8.494620  -77.716400
  C    -70.597600    8.542180  -77.930200
  H    -73.773000    8.701160  -78.928200
  C    -72.597200    8.100830  -76.412800
  H    -71.876200    7.651840  -75.669200
  H    -73.408500    7.387900  -76.612100
  C    -73.283100    9.190340  -75.618900
  H    -74.055200    9.730780  -76.172700
  H    -72.610700    9.936630  -75.224000
  C    -74.003600    8.578780  -74.417000
  H    -74.286900    9.495000  -73.726800
  H    -73.223800    8.025320  -73.878100
  H    -74.814400    7.854710  -74.674600
  H    -66.542500    7.352780  -75.587000
  H    -72.478100    9.170360  -81.014700

 Total Charge           Charge          ....    0
 Multiplicity           Mult            ....    1
 Number of Electrons    NEL             ....  134
 Basis Dimension        Dim             ....  322

ORBITAL ENERGIES
----------------

  NO   OCC          E(Eh)            E(eV)
   0   2.0000     -88.966163     -2420.8924
   1   2.0000     -88.962920     -2420.8041
   2   2.0000     -10.327620      -281.0288
   3   2.0000     -10.326462      -280.9973
   4   2.0000     -10.318559      -280.7823
   5   2.0000     -10.305696      -280.4322
   6   2.0000     -10.304702      -280.4052
   7   2.0000     -10.301689      -280.3232
   8   2.0000     -10.300949      -280.3031
   9   2.0000     -10.295285      -280.1490
  10   2.0000     -10.294231      -280.1203
  11   2.0000     -10.294116      -280.1171
  12   2.0000     -10.290138      -280.0089
  13   2.0000     -10.288342      -279.9600
  14   2.0000     -10.283062      -279.8164
  15   2.0000     -10.279822      -279.7282
  16   2.0000      -8.082011      -219.9227
  17   2.0000      -8.077646      -219.8039
  18   2.0000      -6.040349      -164.3662
  19   2.0000      -6.036423      -164.2594
  20   2.0000      -6.036309      -164.2563
  21   2.0000      -6.032844      -164.1620
  22   2.0000      -6.032182      -164.1440
  23   2.0000      -6.028198      -164.0356
  24   2.0000      -1.014631       -27.6095
  25   2.0000      -0.993469       -27.0337
  26   2.0000      -0.915569       -24.9139
  27   2.0000      -0.915012       -24.8987
  28   2.0000      -0.872664       -23.7464
  29   2.0000      -0.854547       -23.2534
  30   2.0000      -0.842387       -22.9225
  31   2.0000      -0.816400       -22.2154
  32   2.0000      -0.788585       -21.4585
  33   2.0000      -0.772803       -21.0290
  34   2.0000      -0.712929       -19.3998
  35   2.0000      -0.697209       -18.9720
  36   2.0000      -0.691766       -18.8239
  37   2.0000      -0.658596       -17.9213
  38   2.0000      -0.642667       -17.4878
  39   2.0000      -0.622938       -16.9510
  40   2.0000      -0.600706       -16.3460
  41   2.0000      -0.572509       -15.5788
  42   2.0000      -0.570451       -15.5228
  43   2.0000      -0.558921       -15.2090
  44   2.0000      -0.535544       -14.5729
  45   2.0000      -0.527551       -14.3554
  46   2.0000      -0.521000       -14.1771
  47   2.0000      -0.514929       -14.0119
  48   2.0000      -0.504741       -13.7347
  49   2.0000      -0.499370       -13.5886
  50   2.0000      -0.485624       -13.2145
  51   2.0000      -0.482528       -13.1303
  52   2.0000      -0.471688       -12.8353
  53   2.0000      -0.462951       -12.5975
  54   2.0000      -0.461048       -12.5458
  55   2.0000      -0.457401       -12.4465
  56   2.0000      -0.441604       -12.0166
  57   2.0000      -0.437379       -11.9017
  58   2.0000      -0.435128       -11.8404
  59   2.0000      -0.422141       -11.4870
  60   2.0000      -0.420828       -11.4513
  61   2.0000      -0.412011       -11.2114
  62   2.0000      -0.411084       -11.1862
  63   2.0000      -0.359622        -9.7858
  64   2.0000      -0.334390        -9.0992
  65   2.0000      -0.331098        -9.0096
  66   2.0000      -0.284843        -7.7510
  67   0.0000       0.025475         0.6932
  68   0.0000       0.078143         2.1264
  69   0.0000       0.108315         2.9474
  70   0.0000       0.111886         3.0446
  71   0.0000       0.126939         3.4542

MULLIKEN ATOMIC CHARGES
-----------------------
   0 S :    0.119919
   1 C :   -0.092773
   2 C :   -0.108174
   3 C :   -0.022308
   4 C :   -0.150092
   5 H :    0.005671
   6 C :    0.130932
   7 H :    0.055653
   8 H :    0.033202
   9 C :   -0.133564
  10 H :    0.036407
  11 H :    0.046064
  12 C :   -0.032550
  13 H :    0.034250
  14 H :    0.021413
  15 H :    0.033506
  16 S :    0.088585
  17 C :   -0.107872
  18 C :   -0.049545
  19 C :    0.011084
  20 C :   -0.118632
  21 H :    0.021819
  22 C :    0.022161
  23 H :    0.035688
  24 H :    0.024378
  25 C :   -0.069379
  26 H :    0.025256
  27 H :    0.024127
  28 C :   -0.084854
  29 H :    0.052845
  30 H :    0.019639
  31 H :    0.049104
  32 H :   -0.002248
  33 H :    0.080287
Sum of atomic charges:   -0.0000000

LOEWDIN ATOMIC CHARGES
----------------------
   0 S :    0.433946
   1 C :   -0.186330
   2 C :   -0.063298
   3 C :   -0.073662
   4 C :   -0.202035
   5 H :    0.029381
   6 C :   -0.022922
   7 H :    0.039770
   8 H :    0.040797
   9 C :   -0.051922
  10 H :    0.025914
  11 H :    0.033533
  12 C :   -0.066867
  13 H :    0.027260
  14 H :    0.021105
  15 H :    0.028824
  16 S :    0.384026
  17 C :   -0.197475
  18 C :   -0.079158
  19 C :   -0.068228
  20 C :   -0.176555
  21 H :    0.033739
  22 C :   -0.033030
  23 H :    0.035162
  24 H :    0.033057
  25 C :   -0.045624
  26 H :    0.020807
  27 H :    0.017775
  28 C :   -0.074031
  29 H :    0.041479
  30 H :    0.019129
  31 H :    0.028603
  32 H :   -0.001526
  33 H :    0.048352

  Mayer bond orders larger than 0.100000
B(  0-S ,  1-C ) :   1.1713 B(  0-S ,  4-C ) :   1.1558 B(  1-C ,  2-C ) :   1.5752
B(  1-C ,  4-C ) :   0.1064 B(  1-C , 32-H ) :   0.9778 B(  2-C ,  3-C ) :   1.2782
B(  2-C ,  6-C ) :   0.9775 B(  3-C ,  4-C ) :   1.5388 B(  3-C ,  5-H ) :   0.9834
B(  4-C , 20-C ) :   1.0700 B(  6-C ,  7-H ) :   0.9347 B(  6-C ,  8-H ) :   0.9417
B(  6-C ,  9-C ) :   1.0847 B(  9-C , 10-H ) :   0.9602 B(  9-C , 11-H ) :   0.9541
B(  9-C , 12-C ) :   1.0568 B( 12-C , 13-H ) :   0.9747 B( 12-C , 14-H ) :   0.9763
B( 12-C , 15-H ) :   0.9768 B( 16-S , 17-C ) :   1.1455 B( 16-S , 20-C ) :   1.1139
B( 17-C , 18-C ) :   1.6180 B( 17-C , 33-H ) :   0.9605 B( 18-C , 19-C ) :   1.2418
B( 18-C , 21-H ) :   0.9841 B( 19-C , 20-C ) :   1.6243 B( 19-C , 22-C ) :   1.0398
B( 22-C , 23-H ) :   0.9295 B( 22-C , 24-H ) :   0.9352 B( 22-C , 25-C ) :   1.0739
B( 25-C , 26-H ) :   0.9494 B( 25-C , 27-H ) :   0.9483 B( 25-C , 28-C ) :   1.0808
B( 28-C , 29-H ) :   0.9721 B( 28-C , 30-H ) :   0.9713 B( 28-C , 31-H ) :   0.9722

Dispersion correction           -0.014971448
FINAL SINGLE POINT ENERGY     -1339.867202704674

DIPOLE MOMENT
-------------
                                X             Y             Z
Electronic contribution:     14.25896       0.41262     -29.51694
Nuclear contribution   :    -14.57200      -0.35153      30.12896
                        -----------------------------------------
Total Dipole Moment    :     -0.31304       0.06109       0.61202
                        -----------------------------------------
Magnitude (a.u.)       :      0.69014
Magnitude (Debye)      :      1.75420

Rotational constants in cm-1:     0.017100     0.010767     0.006957
Rotational constants in MHz :   512.634980   322.793626   208.556673

                             ****ORCA TERMINATED NORMALLY****
TOTAL RUN TIME: 0 days 0 hours 0 minutes 22 seconds 837 msec
