                         Program Version 4.2.1 -  RELEASE  -
|  1> ! wB97X-D3 SP def2-SVP
|  2> %pal
|  3> nprocs 24
|  4> end
|  5>
|  6> * xyz 0 1
|  7> S 	 -114.094 	 19.1899 	 -117.206
|  8> C 	 -114.545 	 20.8654 	 -116.952
|  9> C 	 -113.988 	 21.7425 	 -117.858
| 10> C 	 -113.074 	 21.0666 	 -118.701
| 11> C 	 -112.872 	 19.7021 	 -118.369
| 12> H 	 -112.545 	 21.5414 	 -119.528
| 13> C 	 -114.473 	 23.2317 	 -118.096
| 14> H 	 -115.555 	 23.3522 	 -117.987
| 15> H 	 -114.279 	 23.3804 	 -119.104
| 16> C 	 -113.832 	 24.3751 	 -117.244
| 17> H 	 -112.853 	 24.1372 	 -117.47
| 18> H 	 -114.159 	 25.3803 	 -117.547
| 19> C 	 -114.138 	 24.3622 	 -115.676
| 20> H 	 -113.764 	 25.2774 	 -115.155
| 21> H 	 -115.158 	 24.433 	 -115.466
| 22> H 	 -113.759 	 23.4716 	 -115.259
| 23> S 	 -112.525 	 17.1026 	 -119.221
| 24> C 	 -111.023 	 16.6727 	 -120.023
| 25> C 	 -110.164 	 17.7563 	 -120.143
| 26> C 	 -110.642 	 18.9783 	 -119.564
| 27> C 	 -111.95 	 18.7577 	 -119.026
| 28> H 	 -109.218 	 17.6917 	 -120.617
| 29> C 	 -109.83 	 20.2644 	 -119.501
| 30> H 	 -109.071 	 20.0454 	 -118.69
| 31> H 	 -110.462 	 21.0576 	 -119.199
| 32> C 	 -109.006 	 20.7655 	 -120.734
| 33> H 	 -108.278 	 20.0166 	 -121.002
| 34> H 	 -108.379 	 21.641 	 -120.604
| 35> C 	 -109.984 	 21.2251 	 -121.853
| 36> H 	 -110.739 	 22.0391 	 -121.467
| 37> H 	 -110.661 	 20.5503 	 -122.288
| 38> H 	 -109.38 	 21.6543 	 -122.675
| 39> H 	 -115.171 	 21.2069 	 -116.165
| 40> H 	 -110.796 	 15.6247 	 -120.08
| 41> *
| 42>
| 43>                          ****END OF INPUT****

CARTESIAN COORDINATES (ANGSTROEM)
---------------------------------
  S    -114.094000   19.189900  -117.206000
  C    -114.545000   20.865400  -116.952000
  C    -113.988000   21.742500  -117.858000
  C    -113.074000   21.066600  -118.701000
  C    -112.872000   19.702100  -118.369000
  H    -112.545000   21.541400  -119.528000
  C    -114.473000   23.231700  -118.096000
  H    -115.555000   23.352200  -117.987000
  H    -114.279000   23.380400  -119.104000
  C    -113.832000   24.375100  -117.244000
  H    -112.853000   24.137200  -117.470000
  H    -114.159000   25.380300  -117.547000
  C    -114.138000   24.362200  -115.676000
  H    -113.764000   25.277400  -115.155000
  H    -115.158000   24.433000  -115.466000
  H    -113.759000   23.471600  -115.259000
  S    -112.525000   17.102600  -119.221000
  C    -111.023000   16.672700  -120.023000
  C    -110.164000   17.756300  -120.143000
  C    -110.642000   18.978300  -119.564000
  C    -111.950000   18.757700  -119.026000
  H    -109.218000   17.691700  -120.617000
  C    -109.830000   20.264400  -119.501000
  H    -109.071000   20.045400  -118.690000
  H    -110.462000   21.057600  -119.199000
  C    -109.006000   20.765500  -120.734000
  H    -108.278000   20.016600  -121.002000
  H    -108.379000   21.641000  -120.604000
  C    -109.984000   21.225100  -121.853000
  H    -110.739000   22.039100  -121.467000
  H    -110.661000   20.550300  -122.288000
  H    -109.380000   21.654300  -122.675000
  H    -115.171000   21.206900  -116.165000
  H    -110.796000   15.624700  -120.080000

 Total Charge           Charge          ....    0
 Multiplicity           Mult            ....    1
 Number of Electrons    NEL             ....  134
 Basis Dimension        Dim             ....  322

ORBITAL ENERGIES
----------------

  NO   OCC          E(Eh)            E(eV)
   0   2.0000     -88.971259     -2421.0310
   1   2.0000     -88.967261     -2420.9223
   2   2.0000     -10.335302      -281.2379
   3   2.0000     -10.334204      -281.2080
   4   2.0000     -10.318297      -280.7751
   5   2.0000     -10.312334      -280.6129
   6   2.0000     -10.312027      -280.6045
   7   2.0000     -10.304582      -280.4019
   8   2.0000     -10.298661      -280.2408
   9   2.0000     -10.298103      -280.2256
  10   2.0000     -10.296419      -280.1798
  11   2.0000     -10.295508      -280.1550
  12   2.0000     -10.295041      -280.1423
  13   2.0000     -10.288016      -279.9512
  14   2.0000     -10.285680      -279.8876
  15   2.0000     -10.275639      -279.6144
  16   2.0000      -8.085544      -220.0188
  17   2.0000      -8.081867      -219.9188
  18   2.0000      -6.043969      -164.4648
  19   2.0000      -6.040303      -164.3650
  20   2.0000      -6.040289      -164.3646
  21   2.0000      -6.036481      -164.2610
  22   2.0000      -6.036247      -164.2546
  23   2.0000      -6.032671      -164.1573
  24   2.0000      -1.001886       -27.2627
  25   2.0000      -0.979994       -26.6670
  26   2.0000      -0.906705       -24.6727
  27   2.0000      -0.902432       -24.5564
  28   2.0000      -0.863537       -23.4980
  29   2.0000      -0.851794       -23.1785
  30   2.0000      -0.844120       -22.9697
  31   2.0000      -0.807999       -21.9868
  32   2.0000      -0.788486       -21.4558
  33   2.0000      -0.774647       -21.0792
  34   2.0000      -0.713475       -19.4146
  35   2.0000      -0.701919       -19.1002
  36   2.0000      -0.696839       -18.9620
  37   2.0000      -0.660717       -17.9790
  38   2.0000      -0.637323       -17.3425
  39   2.0000      -0.620427       -16.8827
  40   2.0000      -0.598546       -16.2873
  41   2.0000      -0.571667       -15.5559
  42   2.0000      -0.552367       -15.0307
  43   2.0000      -0.548909       -14.9366
  44   2.0000      -0.546367       -14.8674
  45   2.0000      -0.536122       -14.5886
  46   2.0000      -0.514460       -13.9992
  47   2.0000      -0.506940       -13.7945
  48   2.0000      -0.497063       -13.5258
  49   2.0000      -0.492482       -13.4011
  50   2.0000      -0.486954       -13.2507
  51   2.0000      -0.482484       -13.1291
  52   2.0000      -0.474011       -12.8985
  53   2.0000      -0.468026       -12.7356
  54   2.0000      -0.461787       -12.5659
  55   2.0000      -0.451981       -12.2990
  56   2.0000      -0.449963       -12.2441
  57   2.0000      -0.443302       -12.0628
  58   2.0000      -0.432499       -11.7689
  59   2.0000      -0.430220       -11.7069
  60   2.0000      -0.418655       -11.3922
  61   2.0000      -0.413882       -11.2623
  62   2.0000      -0.412085       -11.2134
  63   2.0000      -0.351292        -9.5591
  64   2.0000      -0.337177        -9.1751
  65   2.0000      -0.330648        -8.9974
  66   2.0000      -0.279004        -7.5921
  67   0.0000       0.015809         0.4302
  68   0.0000       0.071937         1.9575
  69   0.0000       0.093925         2.5558
  70   0.0000       0.117687         3.2024
  71   0.0000       0.130902         3.5620

MULLIKEN ATOMIC CHARGES
-----------------------
   0 S :    0.113630
   1 C :   -0.110168
   2 C :   -0.090035
   3 C :    0.009845
   4 C :   -0.138707
   5 H :    0.008690
   6 C :    0.076399
   7 H :    0.028679
   8 H :    0.009109
   9 C :   -0.047862
  10 H :    0.017005
  11 H :    0.036775
  12 C :   -0.050195
  13 H :    0.039241
  14 H :    0.012454
  15 H :    0.032171
  16 S :    0.091017
  17 C :   -0.087111
  18 C :   -0.017491
  19 C :   -0.048300
  20 C :   -0.150643
  21 H :    0.006673
  22 C :    0.065077
  23 H :    0.053739
  24 H :    0.004388
  25 C :   -0.040993
  26 H :    0.024990
  27 H :    0.033616
  28 C :   -0.093433
  29 H :    0.035160
  30 H :    0.035685
  31 H :    0.038899
  32 H :    0.037354
  33 H :    0.064341
Sum of atomic charges:   -0.0000000

LOEWDIN ATOMIC CHARGES
----------------------
   0 S :    0.402321
   1 C :   -0.186385
   2 C :   -0.065401
   3 C :   -0.066214
   4 C :   -0.188951
   5 H :    0.027736
   6 C :   -0.018440
   7 H :    0.028116
   8 H :    0.021496
   9 C :   -0.028433
  10 H :    0.012835
  11 H :    0.027012
  12 C :   -0.062965
  13 H :    0.034398
  14 H :    0.014528
  15 H :    0.018079
  16 S :    0.393748
  17 C :   -0.182780
  18 C :   -0.061640
  19 C :   -0.053276
  20 C :   -0.191464
  21 H :    0.025601
  22 C :   -0.030304
  23 H :    0.045459
  24 H :    0.020434
  25 C :   -0.038113
  26 H :    0.019676
  27 H :    0.031298
  28 C :   -0.072875
  29 H :    0.033533
  30 H :    0.016093
  31 H :    0.028268
  32 H :    0.020884
  33 H :    0.025725

  Mayer bond orders larger than 0.100000
B(  0-S ,  1-C ) :   1.1461 B(  0-S ,  4-C ) :   1.1540 B(  1-C ,  2-C ) :   1.6049
B(  1-C ,  4-C ) :   0.1025 B(  1-C , 32-H ) :   0.9682 B(  2-C ,  3-C ) :   1.2779
B(  2-C ,  6-C ) :   0.9949 B(  3-C ,  4-C ) :   1.5328 B(  3-C ,  5-H ) :   0.9807
B(  4-C , 20-C ) :   1.0732 B(  6-C ,  7-H ) :   0.9521 B(  6-C ,  8-H ) :   0.9437
B(  6-C ,  9-C ) :   1.0557 B(  9-C , 10-H ) :   0.9624 B(  9-C , 11-H ) :   0.9602
B(  9-C , 12-C ) :   1.0723 B( 12-C , 13-H ) :   0.9763 B( 12-C , 14-H ) :   0.9763
B( 12-C , 15-H ) :   0.9781 B( 16-S , 17-C ) :   1.1481 B( 16-S , 20-C ) :   1.1537
B( 17-C , 18-C ) :   1.5880 B( 17-C , 20-C ) :   0.1014 B( 17-C , 33-H ) :   0.9699
B( 18-C , 19-C ) :   1.2590 B( 18-C , 21-H ) :   0.9938 B( 19-C , 20-C ) :   1.5545
B( 19-C , 22-C ) :   1.0345 B( 22-C , 23-H ) :   0.9282 B( 22-C , 24-H ) :   0.9367
B( 22-C , 25-C ) :   1.0760 B( 25-C , 26-H ) :   0.9530 B( 25-C , 27-H ) :   0.9556
B( 25-C , 28-C ) :   1.0591 B( 28-C , 29-H ) :   0.9708 B( 28-C , 30-H ) :   0.9818
B( 28-C , 31-H ) :   0.9757

Dispersion correction           -0.014288221
FINAL SINGLE POINT ENERGY     -1339.851767126960

DIPOLE MOMENT
-------------
                                X             Y             Z
Electronic contribution:     -8.14547     -27.96541       3.61918
Nuclear contribution   :      8.48970      28.50276      -3.78183
                        -----------------------------------------
Total Dipole Moment    :      0.34423       0.53735      -0.16265
                        -----------------------------------------
Magnitude (a.u.)       :      0.65855
Magnitude (Debye)      :      1.67390

Rotational constants in cm-1:     0.018945     0.008564     0.006297
Rotational constants in MHz :   567.943692   256.742114   188.768689

                             ****ORCA TERMINATED NORMALLY****
TOTAL RUN TIME: 0 days 0 hours 0 minutes 21 seconds 385 msec
