                         Program Version 4.2.1 -  RELEASE  -
|  1> ! wB97X-D3 SP def2-SVP
|  2> %pal
|  3> nprocs 24
|  4> end
|  5>
|  6> * xyz 0 1
|  7> S 	 -143.632 	 3.16596 	 14.9231
|  8> C 	 -143.031 	 3.19806 	 13.2617
|  9> C 	 -143.158 	 4.51442 	 12.752
| 10> C 	 -143.775 	 5.41949 	 13.5817
| 11> C 	 -143.995 	 4.88222 	 14.8524
| 12> H 	 -143.839 	 6.5279 	 13.433
| 13> C 	 -142.658 	 4.95464 	 11.3977
| 14> H 	 -141.753 	 4.45623 	 11.2113
| 15> H 	 -142.574 	 6.09116 	 11.3836
| 16> C 	 -143.476 	 4.49582 	 10.1848
| 17> H 	 -143.635 	 3.44107 	 10.2339
| 18> H 	 -144.407 	 5.0564 	 10.118
| 19> C 	 -142.821 	 5.0151 	 8.86199
| 20> H 	 -143.396 	 4.71093 	 7.99464
| 21> H 	 -142.544 	 6.09102 	 8.81259
| 22> H 	 -141.832 	 4.5243 	 8.68979
| 23> S 	 -143.66 	 7.11385 	 16.4803
| 24> C 	 -144.918 	 7.41983 	 17.7069
| 25> C 	 -145.917 	 6.49386 	 17.6332
| 26> C 	 -145.704 	 5.46828 	 16.7389
| 27> C 	 -144.578 	 5.67279 	 15.9343
| 28> H 	 -146.836 	 6.71794 	 18.1894
| 29> C 	 -146.772 	 4.43772 	 16.5478
| 30> H 	 -147.242 	 4.31908 	 17.5351
| 31> H 	 -146.408 	 3.44537 	 16.2693
| 32> C 	 -147.806 	 4.94097 	 15.43
| 33> H 	 -147.249 	 5.38823 	 14.6545
| 34> H 	 -148.425 	 5.73788 	 15.8987
| 35> C 	 -148.758 	 3.89829 	 14.8426
| 36> H 	 -149.208 	 3.21793 	 15.5416
| 37> H 	 -148.171 	 3.33852 	 14.1426
| 38> H 	 -149.438 	 4.46243 	 14.2366
| 39> H 	 -142.49 	 2.45099 	 12.827
| 40> H 	 -144.892 	 8.15259 	 18.423
| 41> *
| 42>
| 43>                          ****END OF INPUT****

CARTESIAN COORDINATES (ANGSTROEM)
---------------------------------
  S    -143.632000    3.165960   14.923100
  C    -143.031000    3.198060   13.261700
  C    -143.158000    4.514420   12.752000
  C    -143.775000    5.419490   13.581700
  C    -143.995000    4.882220   14.852400
  H    -143.839000    6.527900   13.433000
  C    -142.658000    4.954640   11.397700
  H    -141.753000    4.456230   11.211300
  H    -142.574000    6.091160   11.383600
  C    -143.476000    4.495820   10.184800
  H    -143.635000    3.441070   10.233900
  H    -144.407000    5.056400   10.118000
  C    -142.821000    5.015100    8.861990
  H    -143.396000    4.710930    7.994640
  H    -142.544000    6.091020    8.812590
  H    -141.832000    4.524300    8.689790
  S    -143.660000    7.113850   16.480300
  C    -144.918000    7.419830   17.706900
  C    -145.917000    6.493860   17.633200
  C    -145.704000    5.468280   16.738900
  C    -144.578000    5.672790   15.934300
  H    -146.836000    6.717940   18.189400
  C    -146.772000    4.437720   16.547800
  H    -147.242000    4.319080   17.535100
  H    -146.408000    3.445370   16.269300
  C    -147.806000    4.940970   15.430000
  H    -147.249000    5.388230   14.654500
  H    -148.425000    5.737880   15.898700
  C    -148.758000    3.898290   14.842600
  H    -149.208000    3.217930   15.541600
  H    -148.171000    3.338520   14.142600
  H    -149.438000    4.462430   14.236600
  H    -142.490000    2.450990   12.827000
  H    -144.892000    8.152590   18.423000

 Total Charge           Charge          ....    0
 Multiplicity           Mult            ....    1
 Number of Electrons    NEL             ....  134
 Basis Dimension        Dim             ....  322

ORBITAL ENERGIES
----------------

  NO   OCC          E(Eh)            E(eV)
   0   2.0000     -88.973806     -2421.1003
   1   2.0000     -88.966866     -2420.9115
   2   2.0000     -10.331428      -281.1324
   3   2.0000     -10.328263      -281.0463
   4   2.0000     -10.311721      -280.5962
   5   2.0000     -10.311249      -280.5834
   6   2.0000     -10.299309      -280.2585
   7   2.0000     -10.297233      -280.2019
   8   2.0000     -10.292520      -280.0737
   9   2.0000     -10.291233      -280.0387
  10   2.0000     -10.289547      -279.9928
  11   2.0000     -10.287577      -279.9392
  12   2.0000     -10.285853      -279.8923
  13   2.0000     -10.283569      -279.8301
  14   2.0000     -10.283006      -279.8148
  15   2.0000     -10.269339      -279.4429
  16   2.0000      -8.087322      -220.0672
  17   2.0000      -8.080293      -219.8759
  18   2.0000      -6.045769      -164.5137
  19   2.0000      -6.041896      -164.4084
  20   2.0000      -6.038784      -164.3237
  21   2.0000      -6.038340      -164.3116
  22   2.0000      -6.035060      -164.2223
  23   2.0000      -6.031082      -164.1141
  24   2.0000      -1.004248       -27.3270
  25   2.0000      -0.983700       -26.7678
  26   2.0000      -0.911482       -24.8027
  27   2.0000      -0.901243       -24.5241
  28   2.0000      -0.867776       -23.6134
  29   2.0000      -0.854909       -23.2633
  30   2.0000      -0.850092       -23.1322
  31   2.0000      -0.812240       -22.1022
  32   2.0000      -0.780413       -21.2361
  33   2.0000      -0.767210       -20.8769
  34   2.0000      -0.710058       -19.3217
  35   2.0000      -0.700096       -19.0506
  36   2.0000      -0.693545       -18.8723
  37   2.0000      -0.667621       -18.1669
  38   2.0000      -0.639000       -17.3881
  39   2.0000      -0.617472       -16.8023
  40   2.0000      -0.596151       -16.2221
  41   2.0000      -0.573283       -15.5998
  42   2.0000      -0.564371       -15.3573
  43   2.0000      -0.557777       -15.1779
  44   2.0000      -0.529729       -14.4147
  45   2.0000      -0.520894       -14.1742
  46   2.0000      -0.517994       -14.0953
  47   2.0000      -0.512017       -13.9327
  48   2.0000      -0.503471       -13.7002
  49   2.0000      -0.498805       -13.5732
  50   2.0000      -0.488833       -13.3018
  51   2.0000      -0.478774       -13.0281
  52   2.0000      -0.468290       -12.7428
  53   2.0000      -0.465992       -12.6803
  54   2.0000      -0.463698       -12.6179
  55   2.0000      -0.445487       -12.1223
  56   2.0000      -0.444109       -12.0848
  57   2.0000      -0.439459       -11.9583
  58   2.0000      -0.430524       -11.7151
  59   2.0000      -0.427208       -11.6249
  60   2.0000      -0.422993       -11.5102
  61   2.0000      -0.413451       -11.2506
  62   2.0000      -0.409759       -11.1501
  63   2.0000      -0.344017        -9.3612
  64   2.0000      -0.336693        -9.1619
  65   2.0000      -0.328563        -8.9406
  66   2.0000      -0.286570        -7.7980
  67   0.0000       0.025313         0.6888
  68   0.0000       0.059519         1.6196
  69   0.0000       0.105581         2.8730
  70   0.0000       0.113942         3.1005
  71   0.0000       0.129974         3.5368

MULLIKEN ATOMIC CHARGES
-----------------------
   0 S :    0.128527
   1 C :   -0.099307
   2 C :   -0.049812
   3 C :   -0.015297
   4 C :   -0.137258
   5 H :    0.039929
   6 C :    0.060529
   7 H :    0.007740
   8 H :    0.033937
   9 C :   -0.053859
  10 H :    0.030738
  11 H :    0.028783
  12 C :   -0.079045
  13 H :    0.038033
  14 H :    0.040838
  15 H :    0.018622
  16 S :    0.096721
  17 C :   -0.057552
  18 C :   -0.056499
  19 C :   -0.011336
  20 C :   -0.186056
  21 H :    0.030240
  22 C :    0.071250
  23 H :    0.025146
  24 H :    0.015442
  25 C :   -0.092018
  26 H :    0.028403
  27 H :    0.023932
  28 C :    0.000845
  29 H :    0.034434
  30 H :    0.022993
  31 H :    0.026343
  32 H :    0.014957
  33 H :    0.019658
Sum of atomic charges:   -0.0000000

LOEWDIN ATOMIC CHARGES
----------------------
   0 S :    0.417612
   1 C :   -0.192345
   2 C :   -0.056055
   3 C :   -0.074873
   4 C :   -0.190874
   5 H :    0.042476
   6 C :   -0.030684
   7 H :    0.023221
   8 H :    0.037258
   9 C :   -0.032819
  10 H :    0.021193
  11 H :    0.024604
  12 C :   -0.075076
  13 H :    0.025130
  14 H :    0.030295
  15 H :    0.021529
  16 S :    0.379127
  17 C :   -0.158659
  18 C :   -0.071718
  19 C :   -0.062075
  20 C :   -0.183641
  21 H :    0.038670
  22 C :   -0.030606
  23 H :    0.030964
  24 H :    0.021055
  25 C :   -0.029660
  26 H :    0.020433
  27 H :    0.022137
  28 C :   -0.059177
  29 H :    0.023235
  30 H :    0.023906
  31 H :    0.027206
  32 H :    0.007142
  33 H :    0.011069

  Mayer bond orders larger than 0.100000
B(  0-S ,  1-C ) :   1.1398 B(  0-S ,  4-C ) :   1.1760 B(  1-C ,  2-C ) :   1.5464
B(  1-C ,  4-C ) :   0.1135 B(  1-C , 32-H ) :   0.9829 B(  2-C ,  3-C ) :   1.3016
B(  2-C ,  6-C ) :   1.0269 B(  3-C ,  4-C ) :   1.5173 B(  3-C ,  5-H ) :   0.9817
B(  4-C , 20-C ) :   1.0452 B(  6-C ,  7-H ) :   0.9329 B(  6-C ,  8-H ) :   0.9455
B(  6-C ,  9-C ) :   1.0703 B(  9-C , 10-H ) :   0.9568 B(  9-C , 11-H ) :   0.9559
B(  9-C , 12-C ) :   1.0713 B( 12-C , 13-H ) :   0.9758 B( 12-C , 14-H ) :   0.9746
B( 12-C , 15-H ) :   0.9734 B( 16-S , 17-C ) :   1.1426 B( 16-S , 20-C ) :   1.1346
B( 17-C , 18-C ) :   1.6216 B( 17-C , 20-C ) :   0.1108 B( 17-C , 33-H ) :   0.9749
B( 18-C , 19-C ) :   1.2489 B( 18-C , 21-H ) :   0.9828 B( 19-C , 20-C ) :   1.5701
B( 19-C , 22-C ) :   1.0617 B( 22-C , 23-H ) :   0.9309 B( 22-C , 24-H ) :   0.9353
B( 22-C , 25-C ) :   1.0421 B( 25-C , 26-H ) :   0.9620 B( 25-C , 27-H ) :   0.9594
B( 25-C , 28-C ) :   1.0837 B( 28-C , 29-H ) :   0.9760 B( 28-C , 30-H ) :   0.9754
B( 28-C , 31-H ) :   0.9710

Dispersion correction           -0.014088621
FINAL SINGLE POINT ENERGY     -1339.863151607582

DIPOLE MOMENT
-------------
                                X             Y             Z
Electronic contribution:     11.55680       2.96197      20.94796
Nuclear contribution   :    -11.81517      -2.89374     -21.23711
                        -----------------------------------------
Total Dipole Moment    :     -0.25837       0.06823      -0.28914
                        -----------------------------------------
Magnitude (a.u.)       :      0.39372
Magnitude (Debye)      :      1.00075

Rotational constants in cm-1:     0.018846     0.007856     0.006820
Rotational constants in MHz :   565.000747   235.528953   204.464920

                             ****ORCA TERMINATED NORMALLY****
TOTAL RUN TIME: 0 days 0 hours 0 minutes 21 seconds 283 msec
