                         Program Version 4.2.1 -  RELEASE  -
|  1> ! wB97X-D3 SP def2-SVP
|  2> %pal
|  3> nprocs 24
|  4> end
|  5>
|  6> * xyz 0 1
|  7> S 	 -57.3778 	 1.17011 	 -21.4912
|  8> C 	 -55.9239 	 1.47416 	 -22.4607
|  9> C 	 -55.1131 	 2.47579 	 -21.8601
| 10> C 	 -55.7236 	 2.95747 	 -20.6298
| 11> C 	 -56.9225 	 2.35505 	 -20.2709
| 12> H 	 -55.3422 	 3.74098 	 -19.9348
| 13> C 	 -53.8119 	 3.01617 	 -22.3579
| 14> H 	 -53.2327 	 2.14282 	 -22.5369
| 15> H 	 -53.2163 	 3.65754 	 -21.6064
| 16> C 	 -53.8905 	 3.9232 	 -23.5623
| 17> H 	 -54.7858 	 3.65479 	 -24.1085
| 18> H 	 -54.1334 	 4.9135 	 -23.3443
| 19> C 	 -52.7377 	 3.80435 	 -24.5301
| 20> H 	 -51.8436 	 3.80404 	 -24.0415
| 21> H 	 -52.7678 	 2.90834 	 -25.1523
| 22> H 	 -52.6928 	 4.74565 	 -25.1039
| 23> S 	 -58.653 	 4.18313 	 -19.0848
| 24> C 	 -59.3705 	 3.83142 	 -17.4998
| 25> C 	 -58.8189 	 2.66133 	 -17.0406
| 26> C 	 -58.0349 	 1.93677 	 -17.9628
| 27> C 	 -57.8056 	 2.67894 	 -19.1242
| 28> H 	 -58.9487 	 2.31784 	 -16.0228
| 29> C 	 -57.415 	 0.672151 	 -17.5457
| 30> H 	 -56.6364 	 0.883058 	 -16.9145
| 31> H 	 -57.0013 	 0.0164107 	 -18.3315
| 32> C 	 -58.3287 	 -0.306424 	 -16.7578
| 33> H 	 -59.2269 	 -0.442519 	 -17.38
| 34> H 	 -58.7916 	 0.186518 	 -15.9205
| 35> C 	 -57.6816 	 -1.62269 	 -16.3698
| 36> H 	 -58.3234 	 -2.06749 	 -15.5967
| 37> H 	 -56.6342 	 -1.49307 	 -16.0338
| 38> H 	 -57.5914 	 -2.22522 	 -17.2283
| 39> H 	 -55.6822 	 0.987157 	 -23.3811
| 40> H 	 -59.8763 	 4.4632 	 -16.8661
| 41> *
| 42>
| 43>                          ****END OF INPUT****

CARTESIAN COORDINATES (ANGSTROEM)
---------------------------------
  S    -57.377800    1.170110  -21.491200
  C    -55.923900    1.474160  -22.460700
  C    -55.113100    2.475790  -21.860100
  C    -55.723600    2.957470  -20.629800
  C    -56.922500    2.355050  -20.270900
  H    -55.342200    3.740980  -19.934800
  C    -53.811900    3.016170  -22.357900
  H    -53.232700    2.142820  -22.536900
  H    -53.216300    3.657540  -21.606400
  C    -53.890500    3.923200  -23.562300
  H    -54.785800    3.654790  -24.108500
  H    -54.133400    4.913500  -23.344300
  C    -52.737700    3.804350  -24.530100
  H    -51.843600    3.804040  -24.041500
  H    -52.767800    2.908340  -25.152300
  H    -52.692800    4.745650  -25.103900
  S    -58.653000    4.183130  -19.084800
  C    -59.370500    3.831420  -17.499800
  C    -58.818900    2.661330  -17.040600
  C    -58.034900    1.936770  -17.962800
  C    -57.805600    2.678940  -19.124200
  H    -58.948700    2.317840  -16.022800
  C    -57.415000    0.672151  -17.545700
  H    -56.636400    0.883058  -16.914500
  H    -57.001300    0.016411  -18.331500
  C    -58.328700   -0.306424  -16.757800
  H    -59.226900   -0.442519  -17.380000
  H    -58.791600    0.186518  -15.920500
  C    -57.681600   -1.622690  -16.369800
  H    -58.323400   -2.067490  -15.596700
  H    -56.634200   -1.493070  -16.033800
  H    -57.591400   -2.225220  -17.228300
  H    -55.682200    0.987157  -23.381100
  H    -59.876300    4.463200  -16.866100

 Total Charge           Charge          ....    0
 Multiplicity           Mult            ....    1
 Number of Electrons    NEL             ....  134
 Basis Dimension        Dim             ....  322

ORBITAL ENERGIES
----------------

  NO   OCC          E(Eh)            E(eV)
   0   2.0000     -88.967400     -2420.9260
   1   2.0000     -88.967071     -2420.9171
   2   2.0000     -10.330927      -281.1188
   3   2.0000     -10.327828      -281.0345
   4   2.0000     -10.320231      -280.8278
   5   2.0000     -10.313202      -280.6365
   6   2.0000     -10.308858      -280.5183
   7   2.0000     -10.298865      -280.2464
   8   2.0000     -10.298768      -280.2437
   9   2.0000     -10.292502      -280.0732
  10   2.0000     -10.289797      -279.9996
  11   2.0000     -10.280860      -279.7564
  12   2.0000     -10.280629      -279.7501
  13   2.0000     -10.277173      -279.6561
  14   2.0000     -10.273656      -279.5604
  15   2.0000     -10.270420      -279.4723
  16   2.0000      -8.081539      -219.9098
  17   2.0000      -8.081110      -219.8982
  18   2.0000      -6.040104      -164.3596
  19   2.0000      -6.039668      -164.3477
  20   2.0000      -6.035991      -164.2477
  21   2.0000      -6.035658      -164.2386
  22   2.0000      -6.032328      -164.1480
  23   2.0000      -6.031978      -164.1385
  24   2.0000      -1.003922       -27.3181
  25   2.0000      -0.979436       -26.6518
  26   2.0000      -0.917366       -24.9628
  27   2.0000      -0.913371       -24.8541
  28   2.0000      -0.867998       -23.6194
  29   2.0000      -0.853359       -23.2211
  30   2.0000      -0.846929       -23.0461
  31   2.0000      -0.815147       -22.1813
  32   2.0000      -0.783683       -21.3251
  33   2.0000      -0.772104       -21.0100
  34   2.0000      -0.709219       -19.2988
  35   2.0000      -0.704344       -19.1662
  36   2.0000      -0.700919       -19.0730
  37   2.0000      -0.660472       -17.9723
  38   2.0000      -0.640106       -17.4182
  39   2.0000      -0.614386       -16.7183
  40   2.0000      -0.604837       -16.4585
  41   2.0000      -0.576346       -15.6832
  42   2.0000      -0.566792       -15.4232
  43   2.0000      -0.559335       -15.2203
  44   2.0000      -0.529958       -14.4209
  45   2.0000      -0.527946       -14.3661
  46   2.0000      -0.516071       -14.0430
  47   2.0000      -0.511094       -13.9076
  48   2.0000      -0.508859       -13.8468
  49   2.0000      -0.501293       -13.6409
  50   2.0000      -0.498041       -13.5524
  51   2.0000      -0.481543       -13.1034
  52   2.0000      -0.470010       -12.7896
  53   2.0000      -0.467371       -12.7178
  54   2.0000      -0.463684       -12.6175
  55   2.0000      -0.455099       -12.3839
  56   2.0000      -0.445021       -12.1096
  57   2.0000      -0.434639       -11.8271
  58   2.0000      -0.429769       -11.6946
  59   2.0000      -0.422647       -11.5008
  60   2.0000      -0.420075       -11.4308
  61   2.0000      -0.412081       -11.2133
  62   2.0000      -0.405224       -11.0267
  63   2.0000      -0.335953        -9.1418
  64   2.0000      -0.332353        -9.0438
  65   2.0000      -0.322398        -8.7729
  66   2.0000      -0.302821        -8.2402
  67   0.0000       0.037560         1.0221
  68   0.0000       0.057860         1.5745
  69   0.0000       0.111595         3.0367
  70   0.0000       0.120427         3.2770
  71   0.0000       0.126451         3.4409

MULLIKEN ATOMIC CHARGES
-----------------------
   0 S :    0.115526
   1 C :   -0.116165
   2 C :   -0.096091
   3 C :    0.022024
   4 C :   -0.173970
   5 H :    0.028226
   6 C :    0.053536
   7 H :    0.026294
   8 H :    0.040825
   9 C :   -0.047686
  10 H :    0.013698
  11 H :    0.010454
  12 C :   -0.014742
  13 H :    0.002731
  14 H :    0.038132
  15 H :    0.029118
  16 S :    0.117917
  17 C :   -0.048797
  18 C :   -0.056694
  19 C :    0.002683
  20 C :   -0.173792
  21 H :    0.022151
  22 C :    0.103112
  23 H :    0.012319
  24 H :    0.023032
  25 C :   -0.134063
  26 H :    0.026001
  27 H :    0.011625
  28 C :   -0.007820
  29 H :    0.044262
  30 H :    0.029297
  31 H :    0.025615
  32 H :    0.043806
  33 H :    0.027435
Sum of atomic charges:    0.0000000

LOEWDIN ATOMIC CHARGES
----------------------
   0 S :    0.400231
   1 C :   -0.191828
   2 C :   -0.056882
   3 C :   -0.066838
   4 C :   -0.197413
   5 H :    0.038742
   6 C :   -0.038224
   7 H :    0.029674
   8 H :    0.042634
   9 C :   -0.042955
  10 H :    0.023137
  11 H :    0.017661
  12 C :   -0.055618
  13 H :    0.008933
  14 H :    0.027783
  15 H :    0.033685
  16 S :    0.416280
  17 C :   -0.170969
  18 C :   -0.062733
  19 C :   -0.056416
  20 C :   -0.211228
  21 H :    0.029709
  22 C :   -0.030023
  23 H :    0.022617
  24 H :    0.033334
  25 C :   -0.044452
  26 H :    0.025779
  27 H :    0.011888
  28 C :   -0.060181
  29 H :    0.034528
  30 H :    0.028766
  31 H :    0.020767
  32 H :    0.023919
  33 H :    0.015690

  Mayer bond orders larger than 0.100000
B(  0-S ,  1-C ) :   1.1464 B(  0-S ,  4-C ) :   1.1457 B(  1-C ,  2-C ) :   1.5871
B(  1-C ,  4-C ) :   0.1011 B(  1-C , 32-H ) :   0.9733 B(  2-C ,  3-C ) :   1.2387
B(  2-C ,  6-C ) :   1.0251 B(  3-C ,  4-C ) :   1.6008 B(  3-C ,  5-H ) :   0.9856
B(  4-C , 20-C ) :   1.0078 B(  6-C ,  7-H ) :   0.9416 B(  6-C ,  8-H ) :   0.9427
B(  6-C ,  9-C ) :   1.0502 B(  9-C , 10-H ) :   0.9580 B(  9-C , 11-H ) :   0.9539
B(  9-C , 12-C ) :   1.0797 B( 12-C , 13-H ) :   0.9742 B( 12-C , 14-H ) :   0.9773
B( 12-C , 15-H ) :   0.9705 B( 16-S , 17-C ) :   1.1462 B( 16-S , 20-C ) :   1.1583
B( 17-C , 18-C ) :   1.6033 B( 17-C , 33-H ) :   0.9747 B( 18-C , 19-C ) :   1.2636
B( 18-C , 21-H ) :   0.9830 B( 19-C , 20-C ) :   1.5622 B( 19-C , 22-C ) :   1.0622
B( 22-C , 23-H ) :   0.9197 B( 22-C , 24-H ) :   0.9321 B( 22-C , 25-C ) :   1.0527
B( 25-C , 26-H ) :   0.9563 B( 25-C , 27-H ) :   0.9538 B( 25-C , 28-C ) :   1.0824
B( 28-C , 29-H ) :   0.9724 B( 28-C , 30-H ) :   0.9722 B( 28-C , 31-H ) :   0.9726

Dispersion correction           -0.013451536
FINAL SINGLE POINT ENERGY     -1339.863189335839

DIPOLE MOMENT
-------------
                                X             Y             Z
Electronic contribution:    -15.54690       7.73775       0.20541
Nuclear contribution   :     16.02670      -7.76763       0.05295
                        -----------------------------------------
Total Dipole Moment    :      0.47980      -0.02988       0.25836
                        -----------------------------------------
Magnitude (a.u.)       :      0.54576
Magnitude (Debye)      :      1.38721

Rotational constants in cm-1:     0.022607     0.006764     0.005772
Rotational constants in MHz :   677.729608   202.771684   173.031462

                             ****ORCA TERMINATED NORMALLY****
TOTAL RUN TIME: 0 days 0 hours 0 minutes 21 seconds 36 msec
