                         Program Version 4.2.1 -  RELEASE  -
|  1> ! wB97X-D3 SP def2-SVP
|  2> %pal
|  3> nprocs 24
|  4> end
|  5>
|  6> * xyz 0 1
|  7> S 	 -128.719 	 56.4821 	 -63.0799
|  8> C 	 -130.297 	 57.1229 	 -63.5016
|  9> C 	 -130.772 	 57.9254 	 -62.4624
| 10> C 	 -129.821 	 58.0658 	 -61.4296
| 11> C 	 -128.83 	 57.1429 	 -61.4864
| 12> H 	 -129.906 	 58.8288 	 -60.6372
| 13> C 	 -132.06 	 58.7908 	 -62.5146
| 14> H 	 -132.314 	 58.7856 	 -61.5242
| 15> H 	 -132.891 	 58.3015 	 -63.0575
| 16> C 	 -131.758 	 60.1769 	 -63.1012
| 17> H 	 -131.168 	 60.8953 	 -62.4626
| 18> H 	 -131.376 	 60.0609 	 -64.099
| 19> C 	 -132.984 	 60.9527 	 -63.4887
| 20> H 	 -133.579 	 61.1553 	 -62.5412
| 21> H 	 -132.674 	 61.7299 	 -64.198
| 22> H 	 -133.636 	 60.3969 	 -64.1485
| 23> S 	 -127.138 	 58.1857 	 -59.5595
| 24> C 	 -126.043 	 57.1362 	 -58.7375
| 25> C 	 -126.112 	 55.8645 	 -59.2309
| 26> C 	 -127.203 	 55.7016 	 -60.1152
| 27> C 	 -127.794 	 56.9025 	 -60.4639
| 28> H 	 -125.464 	 55.162 	 -58.7785
| 29> C 	 -127.696 	 54.2292 	 -60.5494
| 30> H 	 -126.878 	 53.6971 	 -61.0696
| 31> H 	 -128.514 	 54.3482 	 -61.3116
| 32> C 	 -127.937 	 53.2789 	 -59.3757
| 33> H 	 -128.715 	 53.6921 	 -58.7068
| 34> H 	 -127.012 	 53.2671 	 -58.7806
| 35> C 	 -128.418 	 51.8417 	 -59.7454
| 36> H 	 -128.54 	 51.2818 	 -58.837
| 37> H 	 -127.738 	 51.2979 	 -60.4835
| 38> H 	 -129.408 	 51.8055 	 -60.1588
| 39> H 	 -130.839 	 57.1474 	 -64.4173
| 40> H 	 -125.391 	 57.3942 	 -57.9404
| 41> *
| 42>
| 43>                          ****END OF INPUT****

CARTESIAN COORDINATES (ANGSTROEM)
---------------------------------
  S    -128.719000   56.482100  -63.079900
  C    -130.297000   57.122900  -63.501600
  C    -130.772000   57.925400  -62.462400
  C    -129.821000   58.065800  -61.429600
  C    -128.830000   57.142900  -61.486400
  H    -129.906000   58.828800  -60.637200
  C    -132.060000   58.790800  -62.514600
  H    -132.314000   58.785600  -61.524200
  H    -132.891000   58.301500  -63.057500
  C    -131.758000   60.176900  -63.101200
  H    -131.168000   60.895300  -62.462600
  H    -131.376000   60.060900  -64.099000
  C    -132.984000   60.952700  -63.488700
  H    -133.579000   61.155300  -62.541200
  H    -132.674000   61.729900  -64.198000
  H    -133.636000   60.396900  -64.148500
  S    -127.138000   58.185700  -59.559500
  C    -126.043000   57.136200  -58.737500
  C    -126.112000   55.864500  -59.230900
  C    -127.203000   55.701600  -60.115200
  C    -127.794000   56.902500  -60.463900
  H    -125.464000   55.162000  -58.778500
  C    -127.696000   54.229200  -60.549400
  H    -126.878000   53.697100  -61.069600
  H    -128.514000   54.348200  -61.311600
  C    -127.937000   53.278900  -59.375700
  H    -128.715000   53.692100  -58.706800
  H    -127.012000   53.267100  -58.780600
  C    -128.418000   51.841700  -59.745400
  H    -128.540000   51.281800  -58.837000
  H    -127.738000   51.297900  -60.483500
  H    -129.408000   51.805500  -60.158800
  H    -130.839000   57.147400  -64.417300
  H    -125.391000   57.394200  -57.940400

 Total Charge           Charge          ....    0
 Multiplicity           Mult            ....    1
 Number of Electrons    NEL             ....  134
 Basis Dimension        Dim             ....  322

ORBITAL ENERGIES
----------------

  NO   OCC          E(Eh)            E(eV)
   0   2.0000     -88.968917     -2420.9673
   1   2.0000     -88.966114     -2420.8910
   2   2.0000     -10.326471      -280.9976
   3   2.0000     -10.323088      -280.9055
   4   2.0000     -10.310547      -280.5642
   5   2.0000     -10.309480      -280.5352
   6   2.0000     -10.304277      -280.3936
   7   2.0000     -10.298649      -280.2405
   8   2.0000     -10.296458      -280.1809
   9   2.0000     -10.291029      -280.0331
  10   2.0000     -10.290361      -280.0149
  11   2.0000     -10.288513      -279.9647
  12   2.0000     -10.287351      -279.9330
  13   2.0000     -10.286926      -279.9215
  14   2.0000     -10.280037      -279.7340
  15   2.0000     -10.279111      -279.7088
  16   2.0000      -8.083131      -219.9532
  17   2.0000      -8.081977      -219.9218
  18   2.0000      -6.041720      -164.4036
  19   2.0000      -6.040341      -164.3660
  20   2.0000      -6.037786      -164.2965
  21   2.0000      -6.036312      -164.2564
  22   2.0000      -6.033738      -164.1864
  23   2.0000      -6.032857      -164.1624
  24   2.0000      -1.014679       -27.6108
  25   2.0000      -0.992260       -27.0008
  26   2.0000      -0.916020       -24.9262
  27   2.0000      -0.897560       -24.4239
  28   2.0000      -0.872267       -23.7356
  29   2.0000      -0.855008       -23.2660
  30   2.0000      -0.843134       -22.9428
  31   2.0000      -0.818011       -22.2592
  32   2.0000      -0.782926       -21.3045
  33   2.0000      -0.772538       -21.0218
  34   2.0000      -0.703285       -19.1374
  35   2.0000      -0.693864       -18.8810
  36   2.0000      -0.690419       -18.7872
  37   2.0000      -0.662738       -18.0340
  38   2.0000      -0.630923       -17.1683
  39   2.0000      -0.623244       -16.9593
  40   2.0000      -0.593951       -16.1622
  41   2.0000      -0.578915       -15.7531
  42   2.0000      -0.567954       -15.4548
  43   2.0000      -0.556856       -15.1528
  44   2.0000      -0.540120       -14.6974
  45   2.0000      -0.521134       -14.1808
  46   2.0000      -0.511706       -13.9242
  47   2.0000      -0.510295       -13.8858
  48   2.0000      -0.506728       -13.7888
  49   2.0000      -0.499740       -13.5986
  50   2.0000      -0.487780       -13.2732
  51   2.0000      -0.483499       -13.1567
  52   2.0000      -0.471875       -12.8404
  53   2.0000      -0.467404       -12.7187
  54   2.0000      -0.460072       -12.5192
  55   2.0000      -0.444478       -12.0949
  56   2.0000      -0.441572       -12.0158
  57   2.0000      -0.437095       -11.8940
  58   2.0000      -0.430996       -11.7280
  59   2.0000      -0.428884       -11.6705
  60   2.0000      -0.416930       -11.3452
  61   2.0000      -0.411096       -11.1865
  62   2.0000      -0.404838       -11.0162
  63   2.0000      -0.351294        -9.5592
  64   2.0000      -0.332178        -9.0390
  65   2.0000      -0.328532        -8.9398
  66   2.0000      -0.288552        -7.8519
  67   0.0000       0.029837         0.8119
  68   0.0000       0.082371         2.2414
  69   0.0000       0.110620         3.0101
  70   0.0000       0.121217         3.2985
  71   0.0000       0.132620         3.6088

MULLIKEN ATOMIC CHARGES
-----------------------
   0 S :    0.125993
   1 C :   -0.098556
   2 C :   -0.123416
   3 C :   -0.018872
   4 C :   -0.120528
   5 H :    0.024369
   6 C :    0.108957
   7 H :    0.002920
   8 H :    0.025721
   9 C :   -0.071001
  10 H :    0.049096
  11 H :    0.017998
  12 C :   -0.059029
  13 H :    0.041065
  14 H :    0.037271
  15 H :    0.010558
  16 S :    0.115703
  17 C :   -0.088995
  18 C :   -0.025195
  19 C :   -0.048973
  20 C :   -0.134795
  21 H :    0.009593
  22 C :    0.069693
  23 H :    0.025112
  24 H :    0.035374
  25 C :   -0.103337
  26 H :    0.034247
  27 H :    0.031434
  28 C :   -0.047132
  29 H :    0.030576
  30 H :    0.039548
  31 H :    0.029648
  32 H :    0.030859
  33 H :    0.044091
Sum of atomic charges:   -0.0000000

LOEWDIN ATOMIC CHARGES
----------------------
   0 S :    0.429447
   1 C :   -0.204635
   2 C :   -0.055845
   3 C :   -0.071680
   4 C :   -0.191549
   5 H :    0.032497
   6 C :   -0.023078
   7 H :    0.017282
   8 H :    0.035261
   9 C :   -0.045527
  10 H :    0.034248
  11 H :    0.024980
  12 C :   -0.073404
  13 H :    0.029903
  14 H :    0.031659
  15 H :    0.015843
  16 S :    0.435635
  17 C :   -0.185989
  18 C :   -0.067908
  19 C :   -0.059067
  20 C :   -0.216892
  21 H :    0.026908
  22 C :   -0.036888
  23 H :    0.030739
  24 H :    0.022763
  25 C :   -0.046198
  26 H :    0.026301
  27 H :    0.023506
  28 C :   -0.068401
  29 H :    0.026131
  30 H :    0.030358
  31 H :    0.023857
  32 H :    0.024851
  33 H :    0.024893

  Mayer bond orders larger than 0.100000
B(  0-S ,  1-C ) :   1.1302 B(  0-S ,  4-C ) :   1.1570 B(  1-C ,  2-C ) :   1.6067
B(  1-C , 32-H ) :   0.9705 B(  2-C ,  3-C ) :   1.2675 B(  2-C ,  6-C ) :   1.0206
B(  3-C ,  4-C ) :   1.5570 B(  3-C ,  5-H ) :   0.9883 B(  4-C , 20-C ) :   1.0385
B(  6-C ,  7-H ) :   0.9285 B(  6-C ,  8-H ) :   0.9443 B(  6-C ,  9-C ) :   1.0681
B(  9-C , 10-H ) :   0.9534 B(  9-C , 11-H ) :   0.9585 B(  9-C , 12-C ) :   1.0876
B( 12-C , 13-H ) :   0.9709 B( 12-C , 14-H ) :   0.9739 B( 12-C , 15-H ) :   0.9725
B( 16-S , 17-C ) :   1.1604 B( 16-S , 20-C ) :   1.1532 B( 17-C , 18-C ) :   1.6137
B( 17-C , 33-H ) :   0.9703 B( 18-C , 19-C ) :   1.2447 B( 18-C , 21-H ) :   0.9939
B( 19-C , 20-C ) :   1.5871 B( 19-C , 22-C ) :   1.0239 B( 22-C , 23-H ) :   0.9390
B( 22-C , 24-H ) :   0.9375 B( 22-C , 25-C ) :   1.0533 B( 25-C , 26-H ) :   0.9551
B( 25-C , 27-H ) :   0.9542 B( 25-C , 28-C ) :   1.0846 B( 28-C , 29-H ) :   0.9733
B( 28-C , 30-H ) :   0.9744 B( 28-C , 31-H ) :   0.9743

Dispersion correction           -0.013437903
FINAL SINGLE POINT ENERGY     -1339.854222889142

DIPOLE MOMENT
-------------
                                X             Y             Z
Electronic contribution:     15.24706       5.02846       1.42522
Nuclear contribution   :    -15.51040      -5.02073      -1.31074
                        -----------------------------------------
Total Dipole Moment    :     -0.26334       0.00773       0.11449
                        -----------------------------------------
Magnitude (a.u.)       :      0.28725
Magnitude (Debye)      :      0.73014

Rotational constants in cm-1:     0.021873     0.007177     0.005988
Rotational constants in MHz :   655.747810   215.158584   179.511956

                             ****ORCA TERMINATED NORMALLY****
TOTAL RUN TIME: 0 days 0 hours 0 minutes 19 seconds 541 msec
