                         Program Version 4.2.1 -  RELEASE  -
|  1> ! wB97X-D3 SP def2-SVP
|  2> %pal
|  3> nprocs 24
|  4> end
|  5>
|  6> * xyz 0 1
|  7> S 	 -122.776 	 63.9063 	 -59.7514
|  8> C 	 -123.907 	 63.6074 	 -61.0325
|  9> C 	 -124.828 	 62.6423 	 -60.6609
| 10> C 	 -124.667 	 62.2533 	 -59.3152
| 11> C 	 -123.68 	 62.9221 	 -58.6513
| 12> H 	 -125.225 	 61.6372 	 -58.6645
| 13> C 	 -126.154 	 62.4409 	 -61.3623
| 14> H 	 -126.04 	 63.0569 	 -62.2485
| 15> H 	 -126.977 	 62.8095 	 -60.6665
| 16> C 	 -126.681 	 61.0933 	 -61.7899
| 17> H 	 -127.604 	 61.2856 	 -62.2926
| 18> H 	 -126.069 	 60.5342 	 -62.4978
| 19> C 	 -126.935 	 60.2385 	 -60.5739
| 20> H 	 -127.885 	 60.6494 	 -60.1022
| 21> H 	 -127.114 	 59.2315 	 -60.8844
| 22> H 	 -126.14 	 60.1586 	 -59.8841
| 23> S 	 -123.341 	 64.3584 	 -56.2471
| 24> C 	 -122.997 	 63.421 	 -54.7984
| 25> C 	 -123.018 	 62.0745 	 -55.0138
| 26> C 	 -123.176 	 61.6991 	 -56.3907
| 27> C 	 -123.407 	 62.8374 	 -57.2207
| 28> H 	 -122.673 	 61.3595 	 -54.2034
| 29> C 	 -123.145 	 60.2258 	 -56.8175
| 30> H 	 -124.071 	 59.9824 	 -57.3364
| 31> H 	 -123.204 	 59.6819 	 -55.9118
| 32> C 	 -121.867 	 59.6685 	 -57.5314
| 33> H 	 -121.941 	 60.3615 	 -58.3566
| 34> H 	 -122.126 	 58.6916 	 -57.9103
| 35> C 	 -120.547 	 59.7442 	 -56.7368
| 36> H 	 -120.396 	 58.903 	 -55.937
| 37> H 	 -120.289 	 60.6835 	 -56.3178
| 38> H 	 -119.801 	 59.5074 	 -57.583
| 39> H 	 -124.089 	 64.2447 	 -61.927
| 40> H 	 -122.701 	 63.8298 	 -53.8787
| 41> *
| 42>
| 43>                          ****END OF INPUT****

CARTESIAN COORDINATES (ANGSTROEM)
---------------------------------
  S    -122.776000   63.906300  -59.751400
  C    -123.907000   63.607400  -61.032500
  C    -124.828000   62.642300  -60.660900
  C    -124.667000   62.253300  -59.315200
  C    -123.680000   62.922100  -58.651300
  H    -125.225000   61.637200  -58.664500
  C    -126.154000   62.440900  -61.362300
  H    -126.040000   63.056900  -62.248500
  H    -126.977000   62.809500  -60.666500
  C    -126.681000   61.093300  -61.789900
  H    -127.604000   61.285600  -62.292600
  H    -126.069000   60.534200  -62.497800
  C    -126.935000   60.238500  -60.573900
  H    -127.885000   60.649400  -60.102200
  H    -127.114000   59.231500  -60.884400
  H    -126.140000   60.158600  -59.884100
  S    -123.341000   64.358400  -56.247100
  C    -122.997000   63.421000  -54.798400
  C    -123.018000   62.074500  -55.013800
  C    -123.176000   61.699100  -56.390700
  C    -123.407000   62.837400  -57.220700
  H    -122.673000   61.359500  -54.203400
  C    -123.145000   60.225800  -56.817500
  H    -124.071000   59.982400  -57.336400
  H    -123.204000   59.681900  -55.911800
  C    -121.867000   59.668500  -57.531400
  H    -121.941000   60.361500  -58.356600
  H    -122.126000   58.691600  -57.910300
  C    -120.547000   59.744200  -56.736800
  H    -120.396000   58.903000  -55.937000
  H    -120.289000   60.683500  -56.317800
  H    -119.801000   59.507400  -57.583000
  H    -124.089000   64.244700  -61.927000
  H    -122.701000   63.829800  -53.878700

 Total Charge           Charge          ....    0
 Multiplicity           Mult            ....    1
 Number of Electrons    NEL             ....  134
 Basis Dimension        Dim             ....  322

ORBITAL ENERGIES
----------------

  NO   OCC          E(Eh)            E(eV)
   0   2.0000     -88.969101     -2420.9723
   1   2.0000     -88.965558     -2420.8759
   2   2.0000     -10.334581      -281.2183
   3   2.0000     -10.324550      -280.9453
   4   2.0000     -10.315934      -280.7108
   5   2.0000     -10.315792      -280.7070
   6   2.0000     -10.311457      -280.5890
   7   2.0000     -10.299579      -280.2658
   8   2.0000     -10.298390      -280.2334
   9   2.0000     -10.292870      -280.0832
  10   2.0000     -10.291340      -280.0416
  11   2.0000     -10.288328      -279.9596
  12   2.0000     -10.287506      -279.9373
  13   2.0000     -10.285852      -279.8923
  14   2.0000     -10.280234      -279.7394
  15   2.0000     -10.273744      -279.5628
  16   2.0000      -8.082723      -219.9421
  17   2.0000      -8.080938      -219.8935
  18   2.0000      -6.041316      -164.3926
  19   2.0000      -6.039476      -164.3425
  20   2.0000      -6.037419      -164.2865
  21   2.0000      -6.035243      -164.2273
  22   2.0000      -6.033426      -164.1779
  23   2.0000      -6.031731      -164.1317
  24   2.0000      -1.008537       -27.4437
  25   2.0000      -0.981541       -26.7091
  26   2.0000      -0.918688       -24.9988
  27   2.0000      -0.903903       -24.5964
  28   2.0000      -0.872348       -23.7378
  29   2.0000      -0.851794       -23.1785
  30   2.0000      -0.843689       -22.9579
  31   2.0000      -0.816480       -22.2175
  32   2.0000      -0.785089       -21.3634
  33   2.0000      -0.772103       -21.0100
  34   2.0000      -0.711373       -19.3574
  35   2.0000      -0.699465       -19.0334
  36   2.0000      -0.689346       -18.7581
  37   2.0000      -0.657555       -17.8930
  38   2.0000      -0.644923       -17.5492
  39   2.0000      -0.613392       -16.6913
  40   2.0000      -0.589851       -16.0507
  41   2.0000      -0.581690       -15.8286
  42   2.0000      -0.554820       -15.0974
  43   2.0000      -0.547408       -14.8957
  44   2.0000      -0.543642       -14.7933
  45   2.0000      -0.538107       -14.6426
  46   2.0000      -0.518521       -14.1097
  47   2.0000      -0.507260       -13.8033
  48   2.0000      -0.504456       -13.7270
  49   2.0000      -0.493950       -13.4411
  50   2.0000      -0.488704       -13.2983
  51   2.0000      -0.484771       -13.1913
  52   2.0000      -0.478042       -13.0082
  53   2.0000      -0.467827       -12.7302
  54   2.0000      -0.460495       -12.5307
  55   2.0000      -0.445164       -12.1135
  56   2.0000      -0.439143       -11.9497
  57   2.0000      -0.433671       -11.8008
  58   2.0000      -0.432122       -11.7586
  59   2.0000      -0.424930       -11.5629
  60   2.0000      -0.421667       -11.4741
  61   2.0000      -0.417522       -11.3613
  62   2.0000      -0.399922       -10.8824
  63   2.0000      -0.343583        -9.3494
  64   2.0000      -0.333120        -9.0646
  65   2.0000      -0.330378        -8.9900
  66   2.0000      -0.294688        -8.0189
  67   0.0000       0.021994         0.5985
  68   0.0000       0.070894         1.9291
  69   0.0000       0.109458         2.9785
  70   0.0000       0.112802         3.0695
  71   0.0000       0.128729         3.5029

MULLIKEN ATOMIC CHARGES
-----------------------
   0 S :    0.120721
   1 C :   -0.138645
   2 C :   -0.036285
   3 C :    0.035803
   4 C :   -0.171565
   5 H :   -0.006441
   6 C :    0.008428
   7 H :    0.010868
   8 H :    0.046161
   9 C :   -0.022007
  10 H :    0.023419
  11 H :    0.022213
  12 C :   -0.059223
  13 H :    0.034096
  14 H :    0.020979
  15 H :    0.029211
  16 S :    0.107129
  17 C :   -0.068487
  18 C :   -0.051346
  19 C :   -0.055604
  20 C :   -0.178068
  21 H :    0.046190
  22 C :    0.078685
  23 H :    0.027483
  24 H :   -0.007459
  25 C :   -0.046301
  26 H :    0.033227
  27 H :    0.030384
  28 C :   -0.085072
  29 H :    0.048890
  30 H :    0.045827
  31 H :    0.049327
  32 H :    0.068531
  33 H :    0.038929
Sum of atomic charges:    0.0000000

LOEWDIN ATOMIC CHARGES
----------------------
   0 S :    0.415666
   1 C :   -0.207663
   2 C :   -0.067720
   3 C :   -0.062416
   4 C :   -0.201904
   5 H :    0.024229
   6 C :   -0.032694
   7 H :    0.025476
   8 H :    0.042632
   9 C :   -0.039686
  10 H :    0.024862
  11 H :    0.020979
  12 C :   -0.063320
  13 H :    0.033209
  14 H :    0.022195
  15 H :    0.016007
  16 S :    0.383370
  17 C :   -0.171884
  18 C :   -0.081775
  19 C :   -0.049149
  20 C :   -0.188622
  21 H :    0.044236
  22 C :   -0.034201
  23 H :    0.029356
  24 H :    0.018419
  25 C :   -0.037029
  26 H :    0.026421
  27 H :    0.025650
  28 C :   -0.074310
  29 H :    0.035784
  30 H :    0.021298
  31 H :    0.042150
  32 H :    0.039806
  33 H :    0.020628

  Mayer bond orders larger than 0.100000
B(  0-S ,  1-C ) :   1.1434 B(  0-S ,  4-C ) :   1.1451 B(  1-C ,  2-C ) :   1.6117
B(  1-C , 32-H ) :   0.9560 B(  2-C ,  3-C ) :   1.2096 B(  2-C ,  6-C ) :   1.0311
B(  3-C ,  4-C ) :   1.5985 B(  3-C ,  5-H ) :   0.9966 B(  4-C , 20-C ) :   1.0553
B(  6-C ,  7-H ) :   0.9362 B(  6-C ,  8-H ) :   0.9433 B(  6-C ,  9-C ) :   1.0787
B(  9-C , 10-H ) :   0.9511 B(  9-C , 11-H ) :   0.9518 B(  9-C , 12-C ) :   1.0847
B( 12-C , 13-H ) :   0.9745 B( 12-C , 14-H ) :   0.9697 B( 12-C , 15-H ) :   0.9732
B( 16-S , 17-C ) :   1.1462 B( 16-S , 20-C ) :   1.1297 B( 17-C , 18-C ) :   1.6327
B( 17-C , 33-H ) :   0.9684 B( 18-C , 19-C ) :   1.2520 B( 18-C , 21-H ) :   0.9689
B( 19-C , 20-C ) :   1.5733 B( 19-C , 22-C ) :   1.0333 B( 22-C , 23-H ) :   0.9383
B( 22-C , 24-H ) :   0.9239 B( 22-C , 25-C ) :   1.0510 B( 25-C , 26-H ) :   0.9634
B( 25-C , 27-H ) :   0.9546 B( 25-C , 28-C ) :   1.0664 B( 28-C , 29-H ) :   0.9732
B( 28-C , 30-H ) :   0.9759 B( 28-C , 31-H ) :   0.9730

Dispersion correction           -0.014714975
FINAL SINGLE POINT ENERGY     -1339.855181579160

DIPOLE MOMENT
-------------
                                X             Y             Z
Electronic contribution:      6.70438      23.18438       6.23311
Nuclear contribution   :     -6.95269     -23.66350      -6.21434
                        -----------------------------------------
Total Dipole Moment    :     -0.24831      -0.47912       0.01876
                        -----------------------------------------
Magnitude (a.u.)       :      0.53997
Magnitude (Debye)      :      1.37248

Rotational constants in cm-1:     0.018203     0.008916     0.007573
Rotational constants in MHz :   545.700322   267.284190   227.024523

                             ****ORCA TERMINATED NORMALLY****
TOTAL RUN TIME: 0 days 0 hours 0 minutes 22 seconds 195 msec
