                         Program Version 4.2.1 -  RELEASE  -
|  1> ! wB97X-D3 SP def2-SVP
|  2> %pal
|  3> nprocs 24
|  4> end
|  5>
|  6> * xyz 0 1
|  7> S 	 -110.143 	 67.6143 	 -10.3397
|  8> C 	 -109.762 	 68.8371 	 -11.5117
|  9> C 	 -108.724 	 69.665 	 -11.0512
| 10> C 	 -108.072 	 69.0424 	 -9.8857
| 11> C 	 -108.713 	 67.8792 	 -9.43035
| 12> H 	 -107.218 	 69.4957 	 -9.46243
| 13> C 	 -108.234 	 70.9177 	 -11.759
| 14> H 	 -109.076 	 71.298 	 -12.399
| 15> H 	 -107.512 	 70.5514 	 -12.4755
| 16> C 	 -107.796 	 72.1475 	 -10.8614
| 17> H 	 -108.521 	 72.539 	 -10.258
| 18> H 	 -106.946 	 71.7106 	 -10.3077
| 19> C 	 -107.46 	 73.3189 	 -11.7633
| 20> H 	 -108.252 	 73.6587 	 -12.3696
| 21> H 	 -107.069 	 74.1725 	 -11.2787
| 22> H 	 -106.756 	 72.9908 	 -12.5383
| 23> S 	 -107.529 	 67.9525 	 -6.90319
| 24> C 	 -107.171 	 66.4479 	 -5.9881
| 25> C 	 -107.78 	 65.3495 	 -6.64667
| 26> C 	 -108.329 	 65.7035 	 -7.96274
| 27> C 	 -108.234 	 67.053 	 -8.26958
| 28> H 	 -107.801 	 64.4025 	 -6.10889
| 29> C 	 -109.03 	 64.6569 	 -8.81992
| 30> H 	 -108.288 	 64.2849 	 -9.54383
| 31> H 	 -109.78 	 65.0592 	 -9.53437
| 32> C 	 -109.768 	 63.5071 	 -8.15906
| 33> H 	 -109.036 	 63.0261 	 -7.49752
| 34> H 	 -110.106 	 62.7711 	 -8.89607
| 35> C 	 -110.851 	 64.0089 	 -7.30439
| 36> H 	 -111.327 	 63.2403 	 -6.80008
| 37> H 	 -111.467 	 64.6677 	 -7.90796
| 38> H 	 -110.505 	 64.7256 	 -6.54718
| 39> H 	 -110.042 	 68.9798 	 -12.4995
| 40> H 	 -106.777 	 66.383 	 -4.99637
| 41> *
| 42>
| 43>                          ****END OF INPUT****

CARTESIAN COORDINATES (ANGSTROEM)
---------------------------------
  S    -110.143000   67.614300  -10.339700
  C    -109.762000   68.837100  -11.511700
  C    -108.724000   69.665000  -11.051200
  C    -108.072000   69.042400   -9.885700
  C    -108.713000   67.879200   -9.430350
  H    -107.218000   69.495700   -9.462430
  C    -108.234000   70.917700  -11.759000
  H    -109.076000   71.298000  -12.399000
  H    -107.512000   70.551400  -12.475500
  C    -107.796000   72.147500  -10.861400
  H    -108.521000   72.539000  -10.258000
  H    -106.946000   71.710600  -10.307700
  C    -107.460000   73.318900  -11.763300
  H    -108.252000   73.658700  -12.369600
  H    -107.069000   74.172500  -11.278700
  H    -106.756000   72.990800  -12.538300
  S    -107.529000   67.952500   -6.903190
  C    -107.171000   66.447900   -5.988100
  C    -107.780000   65.349500   -6.646670
  C    -108.329000   65.703500   -7.962740
  C    -108.234000   67.053000   -8.269580
  H    -107.801000   64.402500   -6.108890
  C    -109.030000   64.656900   -8.819920
  H    -108.288000   64.284900   -9.543830
  H    -109.780000   65.059200   -9.534370
  C    -109.768000   63.507100   -8.159060
  H    -109.036000   63.026100   -7.497520
  H    -110.106000   62.771100   -8.896070
  C    -110.851000   64.008900   -7.304390
  H    -111.327000   63.240300   -6.800080
  H    -111.467000   64.667700   -7.907960
  H    -110.505000   64.725600   -6.547180
  H    -110.042000   68.979800  -12.499500
  H    -106.777000   66.383000   -4.996370

 Total Charge           Charge          ....    0
 Multiplicity           Mult            ....    1
 Number of Electrons    NEL             ....  134
 Basis Dimension        Dim             ....  322

ORBITAL ENERGIES
----------------

  NO   OCC          E(Eh)            E(eV)
   0   2.0000     -88.970213     -2421.0026
   1   2.0000     -88.966878     -2420.9118
   2   2.0000     -10.336380      -281.2672
   3   2.0000     -10.335914      -281.2545
   4   2.0000     -10.326328      -280.9937
   5   2.0000     -10.313519      -280.6451
   6   2.0000     -10.307870      -280.4914
   7   2.0000     -10.306157      -280.4448
   8   2.0000     -10.305373      -280.4235
   9   2.0000     -10.299156      -280.2543
  10   2.0000     -10.295536      -280.1558
  11   2.0000     -10.289367      -279.9879
  12   2.0000     -10.288904      -279.9753
  13   2.0000     -10.280734      -279.7530
  14   2.0000     -10.271676      -279.5065
  15   2.0000     -10.262558      -279.2584
  16   2.0000      -8.084799      -219.9986
  17   2.0000      -8.080068      -219.8698
  18   2.0000      -6.043420      -164.4498
  19   2.0000      -6.039295      -164.3376
  20   2.0000      -6.038796      -164.3240
  21   2.0000      -6.035480      -164.2338
  22   2.0000      -6.034828      -164.2160
  23   2.0000      -6.030643      -164.1021
  24   2.0000      -1.000688       -27.2301
  25   2.0000      -0.976457       -26.5708
  26   2.0000      -0.916239       -24.9321
  27   2.0000      -0.911145       -24.7935
  28   2.0000      -0.867546       -23.6071
  29   2.0000      -0.850362       -23.1395
  30   2.0000      -0.844364       -22.9763
  31   2.0000      -0.812658       -22.1135
  32   2.0000      -0.781974       -21.2786
  33   2.0000      -0.773577       -21.0501
  34   2.0000      -0.715299       -19.4643
  35   2.0000      -0.700211       -19.0537
  36   2.0000      -0.690560       -18.7911
  37   2.0000      -0.661315       -17.9953
  38   2.0000      -0.634328       -17.2609
  39   2.0000      -0.617072       -16.7914
  40   2.0000      -0.599761       -16.3203
  41   2.0000      -0.574591       -15.6354
  42   2.0000      -0.570254       -15.5174
  43   2.0000      -0.562781       -15.3140
  44   2.0000      -0.539671       -14.6852
  45   2.0000      -0.531797       -14.4709
  46   2.0000      -0.522164       -14.2088
  47   2.0000      -0.506251       -13.7758
  48   2.0000      -0.503924       -13.7125
  49   2.0000      -0.502180       -13.6650
  50   2.0000      -0.492590       -13.4040
  51   2.0000      -0.480797       -13.0831
  52   2.0000      -0.470698       -12.8083
  53   2.0000      -0.469377       -12.7724
  54   2.0000      -0.458377       -12.4731
  55   2.0000      -0.451884       -12.2964
  56   2.0000      -0.439803       -11.9677
  57   2.0000      -0.434602       -11.8261
  58   2.0000      -0.433683       -11.8011
  59   2.0000      -0.432251       -11.7621
  60   2.0000      -0.416888       -11.3441
  61   2.0000      -0.410740       -11.1768
  62   2.0000      -0.403078       -10.9683
  63   2.0000      -0.346435        -9.4270
  64   2.0000      -0.327028        -8.8989
  65   2.0000      -0.325298        -8.8518
  66   2.0000      -0.289715        -7.8835
  67   0.0000       0.019541         0.5317
  68   0.0000       0.074212         2.0194
  69   0.0000       0.105154         2.8614
  70   0.0000       0.116152         3.1607
  71   0.0000       0.130124         3.5409

MULLIKEN ATOMIC CHARGES
-----------------------
   0 S :    0.126601
   1 C :   -0.086867
   2 C :   -0.106314
   3 C :    0.009727
   4 C :   -0.111050
   5 H :   -0.001435
   6 C :   -0.003579
   7 H :    0.023614
   8 H :    0.049651
   9 C :   -0.032971
  10 H :    0.025976
  11 H :    0.043908
  12 C :   -0.022731
  13 H :    0.015218
  14 H :    0.030198
  15 H :    0.014111
  16 S :    0.088862
  17 C :   -0.093033
  18 C :   -0.052613
  19 C :   -0.045810
  20 C :   -0.117574
  21 H :    0.036092
  22 C :    0.016785
  23 H :    0.041178
  24 H :    0.024302
  25 C :   -0.068968
  26 H :    0.016919
  27 H :    0.036432
  28 C :    0.000427
  29 H :    0.023260
  30 H :    0.012691
  31 H :    0.027633
  32 H :    0.020799
  33 H :    0.058562
Sum of atomic charges:   -0.0000000

LOEWDIN ATOMIC CHARGES
----------------------
   0 S :    0.438540
   1 C :   -0.206276
   2 C :   -0.052001
   3 C :   -0.066938
   4 C :   -0.202838
   5 H :    0.017123
   6 C :   -0.038241
   7 H :    0.031812
   8 H :    0.035043
   9 C :   -0.023861
  10 H :    0.017408
  11 H :    0.028723
  12 C :   -0.060496
  13 H :    0.020705
  14 H :    0.022029
  15 H :    0.025893
  16 S :    0.380026
  17 C :   -0.170842
  18 C :   -0.068308
  19 C :   -0.056476
  20 C :   -0.181184
  21 H :    0.034640
  22 C :   -0.045711
  23 H :    0.038127
  24 H :    0.020399
  25 C :   -0.043125
  26 H :    0.018088
  27 H :    0.030344
  28 C :   -0.060309
  29 H :    0.016585
  30 H :    0.024506
  31 H :    0.030458
  32 H :    0.018124
  33 H :    0.028034

  Mayer bond orders larger than 0.100000
B(  0-S ,  1-C ) :   1.1384 B(  0-S ,  4-C ) :   1.1595 B(  1-C ,  2-C ) :   1.6046
B(  1-C , 32-H ) :   0.9721 B(  2-C ,  3-C ) :   1.2507 B(  2-C ,  6-C ) :   1.0196
B(  3-C ,  4-C ) :   1.5360 B(  3-C ,  5-H ) :   0.9969 B(  4-C , 20-C ) :   1.0418
B(  6-C ,  7-H ) :   0.9469 B(  6-C ,  8-H ) :   0.9410 B(  6-C ,  9-C ) :   1.0496
B(  9-C , 10-H ) :   0.9614 B(  9-C , 11-H ) :   0.9551 B(  9-C , 12-C ) :   1.0889
B( 12-C , 13-H ) :   0.9711 B( 12-C , 14-H ) :   0.9732 B( 12-C , 15-H ) :   0.9710
B( 16-S , 17-C ) :   1.1432 B( 16-S , 20-C ) :   1.1251 B( 17-C , 18-C ) :   1.6254
B( 17-C , 33-H ) :   0.9684 B( 18-C , 19-C ) :   1.2121 B( 18-C , 21-H ) :   0.9835
B( 19-C , 20-C ) :   1.6112 B( 19-C , 22-C ) :   1.0267 B( 22-C , 23-H ) :   0.9235
B( 22-C , 24-H ) :   0.9403 B( 22-C , 25-C ) :   1.0835 B( 25-C , 26-H ) :   0.9431
B( 25-C , 27-H ) :   0.9495 B( 25-C , 28-C ) :   1.0937 B( 28-C , 29-H ) :   0.9702
B( 28-C , 30-H ) :   0.9680 B( 28-C , 31-H ) :   0.9646

Dispersion correction           -0.013922645
FINAL SINGLE POINT ENERGY     -1339.849096240789

DIPOLE MOMENT
-------------
                                X             Y             Z
Electronic contribution:      0.91346      -3.67536       6.92668
Nuclear contribution   :     -0.81506       3.70565      -7.09848
                        -----------------------------------------
Total Dipole Moment    :      0.09840       0.03029      -0.17180
                        -----------------------------------------
Magnitude (a.u.)       :      0.20029
Magnitude (Debye)      :      0.50910

Rotational constants in cm-1:     0.025932     0.007120     0.005819
Rotational constants in MHz :   777.435932   213.452802   174.458882

                             ****ORCA TERMINATED NORMALLY****
TOTAL RUN TIME: 0 days 0 hours 0 minutes 21 seconds 970 msec
