                         Program Version 4.2.1 -  RELEASE  -
|  1> ! wB97X-D3 SP def2-SVP
|  2> %pal
|  3> nprocs 24
|  4> end
|  5>
|  6> * xyz 0 1
|  7> S 	 -52.545 	 21.6307 	 30.2919
|  8> C 	 -51.0617 	 22.4831 	 30.4914
|  9> C 	 -50.28 	 21.7461 	 31.3379
| 10> C 	 -50.7525 	 20.4461 	 31.5912
| 11> C 	 -51.9092 	 20.1352 	 30.9307
| 12> H 	 -50.2515 	 19.7374 	 32.267
| 13> C 	 -48.8672 	 22.0994 	 31.7715
| 14> H 	 -48.785 	 21.8151 	 32.8464
| 15> H 	 -48.929 	 23.2531 	 31.7401
| 16> C 	 -47.7202 	 21.5892 	 30.8408
| 17> H 	 -47.8695 	 21.8338 	 29.8328
| 18> H 	 -46.8124 	 22.1274 	 30.986
| 19> C 	 -47.36 	 20.1805 	 31.0115
| 20> H 	 -46.5258 	 20.061 	 30.346
| 21> H 	 -47.147 	 19.9841 	 32.0536
| 22> H 	 -48.1531 	 19.5218 	 30.7391
| 23> S 	 -54.3243 	 18.8841 	 31.2349
| 24> C 	 -54.4417 	 17.1561 	 31.4942
| 25> C 	 -53.1708 	 16.6035 	 31.3654
| 26> C 	 -52.093 	 17.5619 	 31.2274
| 27> C 	 -52.6098 	 18.8719 	 31.0216
| 28> H 	 -52.9463 	 15.5992 	 31.394
| 29> C 	 -50.6311 	 17.0661 	 31.2713
| 30> H 	 -50.0134 	 17.8547 	 30.9033
| 31> H 	 -50.5205 	 16.2728 	 30.5067
| 32> C 	 -50.1678 	 16.5264 	 32.5979
| 33> H 	 -50.8578 	 15.7872 	 32.9921
| 34> H 	 -50.0845 	 17.2997 	 33.3578
| 35> C 	 -48.8376 	 15.7129 	 32.515
| 36> H 	 -48.8183 	 15.0329 	 31.6801
| 37> H 	 -48.6559 	 15.0319 	 33.3218
| 38> H 	 -47.8912 	 16.2958 	 32.2241
| 39> H 	 -50.8035 	 23.4784 	 30.1605
| 40> H 	 -55.3273 	 16.6028 	 31.5977
| 41> *
| 42>
| 43>                          ****END OF INPUT****

CARTESIAN COORDINATES (ANGSTROEM)
---------------------------------
  S    -52.545000   21.630700   30.291900
  C    -51.061700   22.483100   30.491400
  C    -50.280000   21.746100   31.337900
  C    -50.752500   20.446100   31.591200
  C    -51.909200   20.135200   30.930700
  H    -50.251500   19.737400   32.267000
  C    -48.867200   22.099400   31.771500
  H    -48.785000   21.815100   32.846400
  H    -48.929000   23.253100   31.740100
  C    -47.720200   21.589200   30.840800
  H    -47.869500   21.833800   29.832800
  H    -46.812400   22.127400   30.986000
  C    -47.360000   20.180500   31.011500
  H    -46.525800   20.061000   30.346000
  H    -47.147000   19.984100   32.053600
  H    -48.153100   19.521800   30.739100
  S    -54.324300   18.884100   31.234900
  C    -54.441700   17.156100   31.494200
  C    -53.170800   16.603500   31.365400
  C    -52.093000   17.561900   31.227400
  C    -52.609800   18.871900   31.021600
  H    -52.946300   15.599200   31.394000
  C    -50.631100   17.066100   31.271300
  H    -50.013400   17.854700   30.903300
  H    -50.520500   16.272800   30.506700
  C    -50.167800   16.526400   32.597900
  H    -50.857800   15.787200   32.992100
  H    -50.084500   17.299700   33.357800
  C    -48.837600   15.712900   32.515000
  H    -48.818300   15.032900   31.680100
  H    -48.655900   15.031900   33.321800
  H    -47.891200   16.295800   32.224100
  H    -50.803500   23.478400   30.160500
  H    -55.327300   16.602800   31.597700

 Total Charge           Charge          ....    0
 Multiplicity           Mult            ....    1
 Number of Electrons    NEL             ....  134
 Basis Dimension        Dim             ....  322

ORBITAL ENERGIES
----------------

  NO   OCC          E(Eh)            E(eV)
   0   2.0000     -88.967061     -2420.9168
   1   2.0000     -88.964845     -2420.8565
   2   2.0000     -10.331946      -281.1466
   3   2.0000     -10.328505      -281.0529
   4   2.0000     -10.318208      -280.7727
   5   2.0000     -10.311700      -280.5956
   6   2.0000     -10.309173      -280.5268
   7   2.0000     -10.299953      -280.2760
   8   2.0000     -10.295554      -280.1563
   9   2.0000     -10.293392      -280.0974
  10   2.0000     -10.292344      -280.0689
  11   2.0000     -10.292143      -280.0634
  12   2.0000     -10.289304      -279.9862
  13   2.0000     -10.283498      -279.8282
  14   2.0000     -10.276940      -279.6497
  15   2.0000     -10.268448      -279.4187
  16   2.0000      -8.082094      -219.9250
  17   2.0000      -8.080170      -219.8726
  18   2.0000      -6.040694      -164.3756
  19   2.0000      -6.038787      -164.3237
  20   2.0000      -6.036449      -164.2601
  21   2.0000      -6.034669      -164.2117
  22   2.0000      -6.032856      -164.1624
  23   2.0000      -6.030684      -164.1033
  24   2.0000      -1.013470       -27.5779
  25   2.0000      -0.988042       -26.8860
  26   2.0000      -0.915858       -24.9218
  27   2.0000      -0.911566       -24.8050
  28   2.0000      -0.877659       -23.8823
  29   2.0000      -0.854931       -23.2639
  30   2.0000      -0.846779       -23.0420
  31   2.0000      -0.818020       -22.2595
  32   2.0000      -0.783146       -21.3105
  33   2.0000      -0.771228       -20.9862
  34   2.0000      -0.710929       -19.3454
  35   2.0000      -0.706738       -19.2313
  36   2.0000      -0.702486       -19.1156
  37   2.0000      -0.668385       -18.1877
  38   2.0000      -0.638746       -17.3812
  39   2.0000      -0.618963       -16.8428
  40   2.0000      -0.599419       -16.3110
  41   2.0000      -0.574201       -15.6248
  42   2.0000      -0.564129       -15.3507
  43   2.0000      -0.558914       -15.2088
  44   2.0000      -0.542311       -14.7570
  45   2.0000      -0.530255       -14.4290
  46   2.0000      -0.523131       -14.2351
  47   2.0000      -0.516278       -14.0486
  48   2.0000      -0.514956       -14.0127
  49   2.0000      -0.499597       -13.5947
  50   2.0000      -0.494143       -13.4463
  51   2.0000      -0.480049       -13.0628
  52   2.0000      -0.475974       -12.9519
  53   2.0000      -0.467269       -12.7150
  54   2.0000      -0.457288       -12.4434
  55   2.0000      -0.450162       -12.2495
  56   2.0000      -0.443613       -12.0713
  57   2.0000      -0.442785       -12.0488
  58   2.0000      -0.433547       -11.7974
  59   2.0000      -0.428069       -11.6483
  60   2.0000      -0.421019       -11.4565
  61   2.0000      -0.413899       -11.2628
  62   2.0000      -0.405809       -11.0426
  63   2.0000      -0.359910        -9.7937
  64   2.0000      -0.331743        -9.0272
  65   2.0000      -0.325099        -8.8464
  66   2.0000      -0.286390        -7.7931
  67   0.0000       0.021292         0.5794
  68   0.0000       0.078321         2.1312
  69   0.0000       0.106969         2.9108
  70   0.0000       0.117700         3.2028
  71   0.0000       0.128208         3.4887

MULLIKEN ATOMIC CHARGES
-----------------------
   0 S :    0.106067
   1 C :   -0.106743
   2 C :   -0.088816
   3 C :   -0.017146
   4 C :   -0.112016
   5 H :    0.016576
   6 C :    0.006576
   7 H :    0.038435
   8 H :    0.027315
   9 C :   -0.007700
  10 H :    0.003454
  11 H :    0.011336
  12 C :   -0.013521
  13 H :    0.028773
  14 H :    0.021430
  15 H :    0.025924
  16 S :    0.101844
  17 C :   -0.066237
  18 C :    0.006233
  19 C :   -0.083082
  20 C :   -0.120545
  21 H :   -0.012428
  22 C :    0.072961
  23 H :    0.009552
  24 H :    0.028424
  25 C :   -0.041200
  26 H :    0.026149
  27 H :    0.033716
  28 C :   -0.065856
  29 H :    0.007927
  30 H :    0.034741
  31 H :    0.036767
  32 H :    0.044370
  33 H :    0.046716
Sum of atomic charges:   -0.0000000

LOEWDIN ATOMIC CHARGES
----------------------
   0 S :    0.413442
   1 C :   -0.201379
   2 C :   -0.075316
   3 C :   -0.069236
   4 C :   -0.191517
   5 H :    0.033381
   6 C :   -0.036312
   7 H :    0.033570
   8 H :    0.035048
   9 C :   -0.037785
  10 H :    0.019819
  11 H :    0.023097
  12 C :   -0.055877
  13 H :    0.029475
  14 H :    0.023362
  15 H :    0.016854
  16 S :    0.418343
  17 C :   -0.180094
  18 C :   -0.055568
  19 C :   -0.053535
  20 C :   -0.201682
  21 H :    0.015406
  22 C :   -0.032926
  23 H :    0.023487
  24 H :    0.035778
  25 C :   -0.036699
  26 H :    0.026863
  27 H :    0.023857
  28 C :   -0.076284
  29 H :    0.020126
  30 H :    0.024475
  31 H :    0.032887
  32 H :    0.032140
  33 H :    0.022799

  Mayer bond orders larger than 0.100000
B(  0-S ,  1-C ) :   1.1387 B(  0-S ,  4-C ) :   1.1496 B(  1-C ,  2-C ) :   1.5921
B(  1-C , 32-H ) :   0.9723 B(  2-C ,  3-C ) :   1.2640 B(  2-C ,  6-C ) :   1.0269
B(  3-C ,  4-C ) :   1.5345 B(  3-C ,  5-H ) :   0.9912 B(  4-C , 20-C ) :   1.0725
B(  6-C ,  7-H ) :   0.9451 B(  6-C ,  8-H ) :   0.9404 B(  6-C ,  9-C ) :   1.0564
B(  9-C , 10-H ) :   0.9460 B(  9-C , 11-H ) :   0.9504 B(  9-C , 12-C ) :   1.0983
B( 12-C , 13-H ) :   0.9647 B( 12-C , 14-H ) :   0.9704 B( 12-C , 15-H ) :   0.9719
B( 16-S , 17-C ) :   1.1507 B( 16-S , 20-C ) :   1.1543 B( 17-C , 18-C ) :   1.5733
B( 17-C , 33-H ) :   0.9783 B( 18-C , 19-C ) :   1.2690 B( 18-C , 21-H ) :   0.9975
B( 19-C , 20-C ) :   1.5582 B( 19-C , 22-C ) :   1.0414 B( 22-C , 23-H ) :   0.9325
B( 22-C , 24-H ) :   0.9334 B( 22-C , 25-C ) :   1.0645 B( 25-C , 26-H ) :   0.9527
B( 25-C , 27-H ) :   0.9525 B( 25-C , 28-C ) :   1.0729 B( 28-C , 29-H ) :   0.9703
B( 28-C , 30-H ) :   0.9774 B( 28-C , 31-H ) :   0.9738

Dispersion correction           -0.014992410
FINAL SINGLE POINT ENERGY     -1339.864296596173

DIPOLE MOMENT
-------------
                                X             Y             Z
Electronic contribution:    -30.69655      10.74051      -5.99197
Nuclear contribution   :     31.35582     -11.08894       6.15013
                        -----------------------------------------
Total Dipole Moment    :      0.65927      -0.34844       0.15816
                        -----------------------------------------
Magnitude (a.u.)       :      0.76227
Magnitude (Debye)      :      1.93753

Rotational constants in cm-1:     0.015814     0.011275     0.006849
Rotational constants in MHz :   474.091364   338.014228   205.334466

                             ****ORCA TERMINATED NORMALLY****
TOTAL RUN TIME: 0 days 0 hours 0 minutes 22 seconds 578 msec
