                         Program Version 4.2.1 -  RELEASE  -
|  1> ! wB97X-D3 SP def2-SVP
|  2> %pal
|  3> nprocs 24
|  4> end
|  5>
|  6> * xyz 0 1
|  7> S 	 -117.187 	 55.7321 	 -37.0426
|  8> C 	 -117.111 	 54.3635 	 -38.0758
|  9> C 	 -116.849 	 54.7873 	 -39.3901
| 10> C 	 -116.79 	 56.1648 	 -39.5766
| 11> C 	 -116.958 	 56.8625 	 -38.3767
| 12> H 	 -116.741 	 56.7591 	 -40.5583
| 13> C 	 -116.646 	 53.8103 	 -40.5779
| 14> H 	 -117.28 	 54.0991 	 -41.4362
| 15> H 	 -117.053 	 52.8529 	 -40.301
| 16> C 	 -115.159 	 53.6636 	 -41.074
| 17> H 	 -114.984 	 52.9055 	 -41.9459
| 18> H 	 -114.901 	 54.6659 	 -41.3487
| 19> C 	 -114.185 	 53.3945 	 -39.9194
| 20> H 	 -113.244 	 53.2844 	 -40.3409
| 21> H 	 -114.217 	 54.2265 	 -39.258
| 22> H 	 -114.29 	 52.3466 	 -39.4609
| 23> S 	 -118.046 	 59.1452 	 -37.1669
| 24> C 	 -117.433 	 60.6317 	 -37.5607
| 25> C 	 -116.523 	 60.6187 	 -38.6123
| 26> C 	 -116.151 	 59.2939 	 -38.91
| 27> C 	 -116.912 	 58.3328 	 -38.2243
| 28> H 	 -116.137 	 61.4758 	 -39.0321
| 29> C 	 -115.158 	 59.0176 	 -40.0076
| 30> H 	 -114.838 	 57.95 	 -39.7898
| 31> H 	 -114.17 	 59.5025 	 -39.8398
| 32> C 	 -115.534 	 59.3949 	 -41.3894
| 33> H 	 -115.891 	 60.4122 	 -41.6777
| 34> H 	 -116.407 	 58.7616 	 -41.5695
| 35> C 	 -114.608 	 59.0111 	 -42.5549
| 36> H 	 -113.681 	 59.6763 	 -42.7345
| 37> H 	 -115.093 	 58.8551 	 -43.528
| 38> H 	 -114.186 	 58.0645 	 -42.2193
| 39> H 	 -117.402 	 53.3717 	 -37.7143
| 40> H 	 -117.829 	 61.6036 	 -37.261
| 41> *
| 42>
| 43>                          ****END OF INPUT****

CARTESIAN COORDINATES (ANGSTROEM)
---------------------------------
  S    -117.187000   55.732100  -37.042600
  C    -117.111000   54.363500  -38.075800
  C    -116.849000   54.787300  -39.390100
  C    -116.790000   56.164800  -39.576600
  C    -116.958000   56.862500  -38.376700
  H    -116.741000   56.759100  -40.558300
  C    -116.646000   53.810300  -40.577900
  H    -117.280000   54.099100  -41.436200
  H    -117.053000   52.852900  -40.301000
  C    -115.159000   53.663600  -41.074000
  H    -114.984000   52.905500  -41.945900
  H    -114.901000   54.665900  -41.348700
  C    -114.185000   53.394500  -39.919400
  H    -113.244000   53.284400  -40.340900
  H    -114.217000   54.226500  -39.258000
  H    -114.290000   52.346600  -39.460900
  S    -118.046000   59.145200  -37.166900
  C    -117.433000   60.631700  -37.560700
  C    -116.523000   60.618700  -38.612300
  C    -116.151000   59.293900  -38.910000
  C    -116.912000   58.332800  -38.224300
  H    -116.137000   61.475800  -39.032100
  C    -115.158000   59.017600  -40.007600
  H    -114.838000   57.950000  -39.789800
  H    -114.170000   59.502500  -39.839800
  C    -115.534000   59.394900  -41.389400
  H    -115.891000   60.412200  -41.677700
  H    -116.407000   58.761600  -41.569500
  C    -114.608000   59.011100  -42.554900
  H    -113.681000   59.676300  -42.734500
  H    -115.093000   58.855100  -43.528000
  H    -114.186000   58.064500  -42.219300
  H    -117.402000   53.371700  -37.714300
  H    -117.829000   61.603600  -37.261000

 Total Charge           Charge          ....    0
 Multiplicity           Mult            ....    1
 Number of Electrons    NEL             ....  134
 Basis Dimension        Dim             ....  322

ORBITAL ENERGIES
----------------

  NO   OCC          E(Eh)            E(eV)
   0   2.0000     -88.970711     -2421.0161
   1   2.0000     -88.969804     -2420.9915
   2   2.0000     -10.335176      -281.2344
   3   2.0000     -10.330002      -281.0936
   4   2.0000     -10.318284      -280.7748
   5   2.0000     -10.313061      -280.6327
   6   2.0000     -10.304956      -280.4121
   7   2.0000     -10.303848      -280.3819
   8   2.0000     -10.300546      -280.2921
   9   2.0000     -10.295877      -280.1650
  10   2.0000     -10.292703      -280.0787
  11   2.0000     -10.292350      -280.0691
  12   2.0000     -10.290933      -280.0305
  13   2.0000     -10.286860      -279.9197
  14   2.0000     -10.285730      -279.8889
  15   2.0000     -10.269106      -279.4366
  16   2.0000      -8.087051      -220.0598
  17   2.0000      -8.084724      -219.9965
  18   2.0000      -6.045244      -164.4995
  19   2.0000      -6.043105      -164.4413
  20   2.0000      -6.041283      -164.3917
  21   2.0000      -6.039040      -164.3306
  22   2.0000      -6.038102      -164.3051
  23   2.0000      -6.035784      -164.2420
  24   2.0000      -1.014247       -27.5991
  25   2.0000      -0.993498       -27.0344
  26   2.0000      -0.919121       -25.0106
  27   2.0000      -0.903475       -24.5848
  28   2.0000      -0.868665       -23.6376
  29   2.0000      -0.859543       -23.3894
  30   2.0000      -0.848842       -23.0982
  31   2.0000      -0.812838       -22.1184
  32   2.0000      -0.785349       -21.3704
  33   2.0000      -0.771013       -20.9803
  34   2.0000      -0.703832       -19.1522
  35   2.0000      -0.695758       -18.9325
  36   2.0000      -0.687554       -18.7093
  37   2.0000      -0.663893       -18.0654
  38   2.0000      -0.640185       -17.4203
  39   2.0000      -0.623341       -16.9620
  40   2.0000      -0.602656       -16.3991
  41   2.0000      -0.570968       -15.5368
  42   2.0000      -0.561784       -15.2869
  43   2.0000      -0.550937       -14.9918
  44   2.0000      -0.538276       -14.6472
  45   2.0000      -0.533226       -14.5098
  46   2.0000      -0.520085       -14.1522
  47   2.0000      -0.513683       -13.9780
  48   2.0000      -0.503820       -13.7096
  49   2.0000      -0.498733       -13.5712
  50   2.0000      -0.487699       -13.2710
  51   2.0000      -0.479529       -13.0487
  52   2.0000      -0.473851       -12.8941
  53   2.0000      -0.470532       -12.8038
  54   2.0000      -0.466271       -12.6879
  55   2.0000      -0.449207       -12.2235
  56   2.0000      -0.443477       -12.0676
  57   2.0000      -0.434393       -11.8204
  58   2.0000      -0.428924       -11.6716
  59   2.0000      -0.420343       -11.4381
  60   2.0000      -0.419681       -11.4201
  61   2.0000      -0.410490       -11.1700
  62   2.0000      -0.400401       -10.8955
  63   2.0000      -0.352938        -9.6039
  64   2.0000      -0.335662        -9.1338
  65   2.0000      -0.335392        -9.1265
  66   2.0000      -0.287116        -7.8128
  67   0.0000       0.023083         0.6281
  68   0.0000       0.077165         2.0998
  69   0.0000       0.111692         3.0393
  70   0.0000       0.119082         3.2404
  71   0.0000       0.122712         3.3392

MULLIKEN ATOMIC CHARGES
-----------------------
   0 S :    0.117490
   1 C :   -0.126336
   2 C :   -0.109541
   3 C :   -0.013139
   4 C :   -0.152407
   5 H :    0.049964
   6 C :    0.085081
   7 H :    0.032216
   8 H :    0.006425
   9 C :   -0.100202
  10 H :    0.052764
  11 H :    0.016742
  12 C :   -0.032578
  13 H :    0.009549
  14 H :    0.049124
  15 H :    0.030046
  16 S :    0.138004
  17 C :   -0.074265
  18 C :   -0.016650
  19 C :   -0.037190
  20 C :   -0.150978
  21 H :   -0.013101
  22 C :    0.035208
  23 H :    0.040338
  24 H :    0.023205
  25 C :   -0.066725
  26 H :    0.041166
  27 H :    0.014283
  28 C :   -0.077145
  29 H :    0.043198
  30 H :    0.046631
  31 H :    0.016775
  32 H :    0.064653
  33 H :    0.057396
Sum of atomic charges:   -0.0000000

LOEWDIN ATOMIC CHARGES
----------------------
   0 S :    0.421662
   1 C :   -0.210943
   2 C :   -0.067632
   3 C :   -0.078693
   4 C :   -0.191430
   5 H :    0.050277
   6 C :   -0.031730
   7 H :    0.030883
   8 H :    0.019845
   9 C :   -0.042933
  10 H :    0.035904
  11 H :    0.017232
  12 C :   -0.064241
  13 H :    0.014920
  14 H :    0.024092
  15 H :    0.030784
  16 S :    0.455746
  17 C :   -0.211280
  18 C :   -0.060114
  19 C :   -0.050743
  20 C :   -0.208859
  21 H :    0.018794
  22 C :   -0.049878
  23 H :    0.040938
  24 H :    0.031455
  25 C :   -0.053847
  26 H :    0.032036
  27 H :    0.022357
  28 C :   -0.072869
  29 H :    0.030012
  30 H :    0.030148
  31 H :    0.020991
  32 H :    0.034441
  33 H :    0.032675

  Mayer bond orders larger than 0.100000
B(  0-S ,  1-C ) :   1.1595 B(  0-S ,  4-C ) :   1.1772 B(  1-C ,  2-C ) :   1.5499
B(  1-C ,  4-C ) :   0.1105 B(  1-C , 32-H ) :   0.9700 B(  2-C ,  3-C ) :   1.2881
B(  2-C ,  6-C ) :   1.0207 B(  3-C ,  4-C ) :   1.5201 B(  3-C ,  5-H ) :   0.9776
B(  4-C , 20-C ) :   1.0476 B(  6-C ,  7-H ) :   0.9483 B(  6-C ,  8-H ) :   0.9444
B(  6-C ,  9-C ) :   1.0496 B(  9-C , 10-H ) :   0.9596 B(  9-C , 11-H ) :   0.9563
B(  9-C , 12-C ) :   1.0819 B( 12-C , 13-H ) :   0.9704 B( 12-C , 14-H ) :   0.9717
B( 12-C , 15-H ) :   0.9735 B( 16-S , 17-C ) :   1.2021 B( 16-S , 20-C ) :   1.1536
B( 17-C , 18-C ) :   1.5568 B( 17-C , 33-H ) :   0.9615 B( 18-C , 19-C ) :   1.2846
B( 18-C , 21-H ) :   1.0067 B( 19-C , 20-C ) :   1.5468 B( 19-C , 22-C ) :   1.0553
B( 22-C , 23-H ) :   0.9251 B( 22-C , 24-H ) :   0.9241 B( 22-C , 25-C ) :   1.0571
B( 25-C , 26-H ) :   0.9528 B( 25-C , 27-H ) :   0.9453 B( 25-C , 28-C ) :   1.0777
B( 28-C , 29-H ) :   0.9733 B( 28-C , 30-H ) :   0.9760 B( 28-C , 31-H ) :   0.9729

Dispersion correction           -0.014950539
FINAL SINGLE POINT ENERGY     -1339.858810709891

DIPOLE MOMENT
-------------
                                X             Y             Z
Electronic contribution:    -16.96025       7.61203      25.44062
Nuclear contribution   :     17.09239      -7.51775     -26.00355
                        -----------------------------------------
Total Dipole Moment    :      0.13213       0.09428      -0.56293
                        -----------------------------------------
Magnitude (a.u.)       :      0.58587
Magnitude (Debye)      :      1.48916

Rotational constants in cm-1:     0.017344     0.010222     0.006886
Rotational constants in MHz :   519.948617   306.444085   206.422834

                             ****ORCA TERMINATED NORMALLY****
TOTAL RUN TIME: 0 days 0 hours 0 minutes 22 seconds 518 msec
