                         Program Version 4.2.1 -  RELEASE  -
|  1> ! wB97X-D3 SP def2-SVP
|  2> %pal
|  3> nprocs 24
|  4> end
|  5>
|  6> * xyz 0 1
|  7> S 	 -127.461 	 60.2093 	 -55.9056
|  8> C 	 -126.084 	 60.9658 	 -55.2031
|  9> C 	 -126.487 	 61.9243 	 -54.2916
| 10> C 	 -127.895 	 62.0863 	 -54.2732
| 11> C 	 -128.62 	 61.2133 	 -55.1005
| 12> H 	 -128.329 	 62.8559 	 -53.6665
| 13> C 	 -125.525 	 62.6973 	 -53.4117
| 14> H 	 -124.515 	 62.6649 	 -53.8276
| 15> H 	 -125.54 	 62.1232 	 -52.5372
| 16> C 	 -125.9 	 64.2675 	 -53.194
| 17> H 	 -126.856 	 64.4585 	 -52.6126
| 18> H 	 -125.262 	 64.8496 	 -52.4606
| 19> C 	 -126.039 	 65.1289 	 -54.5539
| 20> H 	 -125.373 	 64.7519 	 -55.2544
| 21> H 	 -126.988 	 65.133 	 -54.9347
| 22> H 	 -125.727 	 66.1572 	 -54.3866
| 23> S 	 -130.674 	 61.1263 	 -56.8577
| 24> C 	 -132.296 	 61.1033 	 -56.1954
| 25> C 	 -132.373 	 60.9194 	 -54.8649
| 26> C 	 -131.076 	 61.0326 	 -54.2659
| 27> C 	 -130.06 	 61.0239 	 -55.2333
| 28> H 	 -133.341 	 60.9826 	 -54.4056
| 29> C 	 -130.893 	 60.9579 	 -52.7924
| 30> H 	 -131.936 	 61.1383 	 -52.3983
| 31> H 	 -130.267 	 61.8229 	 -52.3567
| 32> C 	 -130.505 	 59.6299 	 -52.2091
| 33> H 	 -129.563 	 59.3091 	 -52.6406
| 34> H 	 -131.384 	 58.9816 	 -52.4345
| 35> C 	 -130.217 	 59.5327 	 -50.7055
| 36> H 	 -131.107 	 59.8781 	 -50.24
| 37> H 	 -129.352 	 60.1637 	 -50.3467
| 38> H 	 -130.131 	 58.4893 	 -50.3935
| 39> H 	 -125.103 	 60.6704 	 -55.4354
| 40> H 	 -133.249 	 61.2729 	 -56.6994
| 41> *
| 42>
| 43>                          ****END OF INPUT****

CARTESIAN COORDINATES (ANGSTROEM)
---------------------------------
  S    -127.461000   60.209300  -55.905600
  C    -126.084000   60.965800  -55.203100
  C    -126.487000   61.924300  -54.291600
  C    -127.895000   62.086300  -54.273200
  C    -128.620000   61.213300  -55.100500
  H    -128.329000   62.855900  -53.666500
  C    -125.525000   62.697300  -53.411700
  H    -124.515000   62.664900  -53.827600
  H    -125.540000   62.123200  -52.537200
  C    -125.900000   64.267500  -53.194000
  H    -126.856000   64.458500  -52.612600
  H    -125.262000   64.849600  -52.460600
  C    -126.039000   65.128900  -54.553900
  H    -125.373000   64.751900  -55.254400
  H    -126.988000   65.133000  -54.934700
  H    -125.727000   66.157200  -54.386600
  S    -130.674000   61.126300  -56.857700
  C    -132.296000   61.103300  -56.195400
  C    -132.373000   60.919400  -54.864900
  C    -131.076000   61.032600  -54.265900
  C    -130.060000   61.023900  -55.233300
  H    -133.341000   60.982600  -54.405600
  C    -130.893000   60.957900  -52.792400
  H    -131.936000   61.138300  -52.398300
  H    -130.267000   61.822900  -52.356700
  C    -130.505000   59.629900  -52.209100
  H    -129.563000   59.309100  -52.640600
  H    -131.384000   58.981600  -52.434500
  C    -130.217000   59.532700  -50.705500
  H    -131.107000   59.878100  -50.240000
  H    -129.352000   60.163700  -50.346700
  H    -130.131000   58.489300  -50.393500
  H    -125.103000   60.670400  -55.435400
  H    -133.249000   61.272900  -56.699400

 Total Charge           Charge          ....    0
 Multiplicity           Mult            ....    1
 Number of Electrons    NEL             ....  134
 Basis Dimension        Dim             ....  322

ORBITAL ENERGIES
----------------

  NO   OCC          E(Eh)            E(eV)
   0   2.0000     -88.969820     -2420.9919
   1   2.0000     -88.962770     -2420.8001
   2   2.0000     -10.330083      -281.0958
   3   2.0000     -10.327582      -281.0278
   4   2.0000     -10.314340      -280.6675
   5   2.0000     -10.307178      -280.4726
   6   2.0000     -10.306411      -280.4517
   7   2.0000     -10.306209      -280.4462
   8   2.0000     -10.298908      -280.2475
   9   2.0000     -10.298805      -280.2447
  10   2.0000     -10.295700      -280.1602
  11   2.0000     -10.290570      -280.0207
  12   2.0000     -10.290448      -280.0173
  13   2.0000     -10.282305      -279.7957
  14   2.0000     -10.277049      -279.6527
  15   2.0000     -10.268441      -279.4185
  16   2.0000      -8.084698      -219.9958
  17   2.0000      -8.078349      -219.8231
  18   2.0000      -6.043225      -164.4445
  19   2.0000      -6.039287      -164.3374
  20   2.0000      -6.036777      -164.2691
  21   2.0000      -6.035312      -164.2292
  22   2.0000      -6.032509      -164.1529
  23   2.0000      -6.029388      -164.0680
  24   2.0000      -1.010529       -27.4979
  25   2.0000      -0.989297       -26.9201
  26   2.0000      -0.912372       -24.8269
  27   2.0000      -0.900351       -24.4998
  28   2.0000      -0.869987       -23.6735
  29   2.0000      -0.853106       -23.2142
  30   2.0000      -0.840483       -22.8707
  31   2.0000      -0.819285       -22.2939
  32   2.0000      -0.785628       -21.3780
  33   2.0000      -0.771069       -20.9818
  34   2.0000      -0.713794       -19.4233
  35   2.0000      -0.699099       -19.0235
  36   2.0000      -0.683327       -18.5943
  37   2.0000      -0.662208       -18.0196
  38   2.0000      -0.639679       -17.4065
  39   2.0000      -0.625677       -17.0255
  40   2.0000      -0.592704       -16.1283
  41   2.0000      -0.573155       -15.5963
  42   2.0000      -0.562450       -15.3050
  43   2.0000      -0.555785       -15.1237
  44   2.0000      -0.528730       -14.3875
  45   2.0000      -0.521993       -14.2041
  46   2.0000      -0.516271       -14.0484
  47   2.0000      -0.509120       -13.8538
  48   2.0000      -0.506986       -13.7958
  49   2.0000      -0.502845       -13.6831
  50   2.0000      -0.487533       -13.2664
  51   2.0000      -0.479146       -13.0382
  52   2.0000      -0.475823       -12.9478
  53   2.0000      -0.464408       -12.6372
  54   2.0000      -0.461687       -12.5631
  55   2.0000      -0.449607       -12.2344
  56   2.0000      -0.442430       -12.0391
  57   2.0000      -0.440312       -11.9815
  58   2.0000      -0.433032       -11.7834
  59   2.0000      -0.420750       -11.4492
  60   2.0000      -0.417937       -11.3726
  61   2.0000      -0.411599       -11.2002
  62   2.0000      -0.404882       -11.0174
  63   2.0000      -0.351397        -9.5620
  64   2.0000      -0.332894        -9.0585
  65   2.0000      -0.328818        -8.9476
  66   2.0000      -0.289858        -7.8874
  67   0.0000       0.030476         0.8293
  68   0.0000       0.070723         1.9245
  69   0.0000       0.111287         3.0283
  70   0.0000       0.121068         3.2944
  71   0.0000       0.138858         3.7785

MULLIKEN ATOMIC CHARGES
-----------------------
   0 S :    0.106025
   1 C :   -0.115186
   2 C :   -0.109816
   3 C :    0.031450
   4 C :   -0.139450
   5 H :   -0.003131
   6 C :    0.114974
   7 H :    0.031246
   8 H :    0.038509
   9 C :   -0.158221
  10 H :    0.031900
  11 H :    0.036911
  12 C :   -0.001345
  13 H :    0.017850
  14 H :    0.026462
  15 H :    0.027984
  16 S :    0.122492
  17 C :   -0.080511
  18 C :   -0.029895
  19 C :   -0.035334
  20 C :   -0.137052
  21 H :    0.019939
  22 C :    0.027044
  23 H :    0.010607
  24 H :    0.038047
  25 C :   -0.073136
  26 H :    0.035612
  27 H :    0.031765
  28 C :   -0.036447
  29 H :    0.007781
  30 H :    0.043837
  31 H :    0.039465
  32 H :    0.029000
  33 H :    0.050624
Sum of atomic charges:    0.0000000

LOEWDIN ATOMIC CHARGES
----------------------
   0 S :    0.426478
   1 C :   -0.202723
   2 C :   -0.065660
   3 C :   -0.067775
   4 C :   -0.204681
   5 H :    0.024380
   6 C :   -0.021255
   7 H :    0.032597
   8 H :    0.030510
   9 C :   -0.054875
  10 H :    0.024695
  11 H :    0.029537
  12 C :   -0.052187
  13 H :    0.017612
  14 H :    0.014446
  15 H :    0.029388
  16 S :    0.416416
  17 C :   -0.180325
  18 C :   -0.072263
  19 C :   -0.048986
  20 C :   -0.202821
  21 H :    0.033896
  22 C :   -0.046633
  23 H :    0.031280
  24 H :    0.035282
  25 C :   -0.043263
  26 H :    0.023682
  27 H :    0.030889
  28 C :   -0.065424
  29 H :    0.014635
  30 H :    0.031438
  31 H :    0.030446
  32 H :    0.017901
  33 H :    0.033363

  Mayer bond orders larger than 0.100000
B(  0-S ,  1-C ) :   1.1552 B(  0-S ,  4-C ) :   1.1795 B(  1-C ,  2-C ) :   1.5625
B(  1-C ,  4-C ) :   0.1073 B(  1-C , 32-H ) :   0.9814 B(  2-C ,  3-C ) :   1.2971
B(  2-C ,  6-C ) :   1.0038 B(  3-C ,  4-C ) :   1.5150 B(  3-C ,  5-H ) :   1.0027
B(  4-C , 20-C ) :   1.0286 B(  6-C ,  7-H ) :   0.9488 B(  6-C ,  8-H ) :   0.9394
B(  6-C ,  9-C ) :   1.0480 B(  9-C , 10-H ) :   0.9584 B(  9-C , 11-H ) :   0.9665
B(  9-C , 12-C ) :   1.0538 B( 12-C , 13-H ) :   0.9805 B( 12-C , 14-H ) :   0.9795
B( 12-C , 15-H ) :   0.9775 B( 16-S , 17-C ) :   1.1476 B( 16-S , 20-C ) :   1.1417
B( 17-C , 18-C ) :   1.6629 B( 17-C , 33-H ) :   0.9568 B( 18-C , 19-C ) :   1.2251
B( 18-C , 21-H ) :   0.9812 B( 19-C , 20-C ) :   1.5923 B( 19-C , 22-C ) :   1.0610
B( 22-C , 23-H ) :   0.9248 B( 22-C , 24-H ) :   0.9278 B( 22-C , 25-C ) :   1.0699
B( 25-C , 26-H ) :   0.9575 B( 25-C , 27-H ) :   0.9515 B( 25-C , 28-C ) :   1.0861
B( 28-C , 29-H ) :   0.9724 B( 28-C , 30-H ) :   0.9730 B( 28-C , 31-H ) :   0.9727

Dispersion correction           -0.014478217
FINAL SINGLE POINT ENERGY     -1339.859160090143

DIPOLE MOMENT
-------------
                                X             Y             Z
Electronic contribution:     -5.68725      -9.69982     -23.10341
Nuclear contribution   :      5.59962      10.01259      23.66816
                        -----------------------------------------
Total Dipole Moment    :     -0.08763       0.31278       0.56474
                        -----------------------------------------
Magnitude (a.u.)       :      0.65149
Magnitude (Debye)      :      1.65596

Rotational constants in cm-1:     0.016728     0.009209     0.007660
Rotational constants in MHz :   501.491286   276.090902   229.634683

                             ****ORCA TERMINATED NORMALLY****
TOTAL RUN TIME: 0 days 0 hours 0 minutes 21 seconds 849 msec
