                         Program Version 4.2.1 -  RELEASE  -
|  1> ! wB97X-D3 SP def2-SVP
|  2> %pal
|  3> nprocs 24
|  4> end
|  5>
|  6> * xyz 0 1
|  7> S 	 30.2705 	 -23.6036 	 -131.553
|  8> C 	 28.7595 	 -22.7801 	 -131.266
|  9> C 	 27.7047 	 -23.7134 	 -131.082
| 10> C 	 28.1399 	 -25.0808 	 -131.253
| 11> C 	 29.4983 	 -25.1989 	 -131.519
| 12> H 	 27.5556 	 -25.9246 	 -131.152
| 13> C 	 26.1758 	 -23.4362 	 -130.775
| 14> H 	 25.6399 	 -24.2309 	 -131.394
| 15> H 	 25.8971 	 -22.4647 	 -131.143
| 16> C 	 25.6976 	 -23.7156 	 -129.298
| 17> H 	 26.0446 	 -24.6799 	 -129.083
| 18> H 	 26.1591 	 -23.0063 	 -128.568
| 19> C 	 24.2082 	 -23.4921 	 -129.309
| 20> H 	 23.8899 	 -22.6414 	 -129.865
| 21> H 	 23.7143 	 -24.3985 	 -129.74
| 22> H 	 23.8742 	 -23.3092 	 -128.293
| 23> S 	 30.9112 	 -26.3168 	 -133.453
| 24> C 	 31.6251 	 -27.937 	 -133.319
| 25> C 	 31.2218 	 -28.5232 	 -132.079
| 26> C 	 30.4003 	 -27.6939 	 -131.284
| 27> C 	 30.3296 	 -26.4141 	 -131.775
| 28> H 	 31.5292 	 -29.5874 	 -131.926
| 29> C 	 29.7754 	 -28.2304 	 -130.018
| 30> H 	 29.4808 	 -27.493 	 -129.326
| 31> H 	 30.3532 	 -28.7657 	 -129.325
| 32> C 	 28.6083 	 -29.1002 	 -130.286
| 33> H 	 28.8366 	 -29.9309 	 -130.956
| 34> H 	 27.9725 	 -28.5603 	 -130.908
| 35> C 	 27.823 	 -29.6093 	 -129.025
| 36> H 	 27.0731 	 -30.2321 	 -129.353
| 37> H 	 27.4168 	 -28.7753 	 -128.498
| 38> H 	 28.5034 	 -30.1573 	 -128.358
| 39> H 	 28.7943 	 -21.6997 	 -131.073
| 40> H 	 32.1959 	 -28.4736 	 -134.078
| 41> *
| 42>
| 43>                          ****END OF INPUT****

CARTESIAN COORDINATES (ANGSTROEM)
---------------------------------
  S     30.270500  -23.603600  -131.553000
  C     28.759500  -22.780100  -131.266000
  C     27.704700  -23.713400  -131.082000
  C     28.139900  -25.080800  -131.253000
  C     29.498300  -25.198900  -131.519000
  H     27.555600  -25.924600  -131.152000
  C     26.175800  -23.436200  -130.775000
  H     25.639900  -24.230900  -131.394000
  H     25.897100  -22.464700  -131.143000
  C     25.697600  -23.715600  -129.298000
  H     26.044600  -24.679900  -129.083000
  H     26.159100  -23.006300  -128.568000
  C     24.208200  -23.492100  -129.309000
  H     23.889900  -22.641400  -129.865000
  H     23.714300  -24.398500  -129.740000
  H     23.874200  -23.309200  -128.293000
  S     30.911200  -26.316800  -133.453000
  C     31.625100  -27.937000  -133.319000
  C     31.221800  -28.523200  -132.079000
  C     30.400300  -27.693900  -131.284000
  C     30.329600  -26.414100  -131.775000
  H     31.529200  -29.587400  -131.926000
  C     29.775400  -28.230400  -130.018000
  H     29.480800  -27.493000  -129.326000
  H     30.353200  -28.765700  -129.325000
  C     28.608300  -29.100200  -130.286000
  H     28.836600  -29.930900  -130.956000
  H     27.972500  -28.560300  -130.908000
  C     27.823000  -29.609300  -129.025000
  H     27.073100  -30.232100  -129.353000
  H     27.416800  -28.775300  -128.498000
  H     28.503400  -30.157300  -128.358000
  H     28.794300  -21.699700  -131.073000
  H     32.195900  -28.473600  -134.078000

 Total Charge           Charge          ....    0
 Multiplicity           Mult            ....    1
 Number of Electrons    NEL             ....  134
 Basis Dimension        Dim             ....  322

ORBITAL ENERGIES
----------------

  NO   OCC          E(Eh)            E(eV)
   0   2.0000     -88.965817     -2420.8830
   1   2.0000     -88.964996     -2420.8606
   2   2.0000     -10.333998      -281.2024
   3   2.0000     -10.331359      -281.1306
   4   2.0000     -10.324270      -280.9377
   5   2.0000     -10.320027      -280.8222
   6   2.0000     -10.311053      -280.5780
   7   2.0000     -10.308911      -280.5197
   8   2.0000     -10.301628      -280.3215
   9   2.0000     -10.301466      -280.3171
  10   2.0000     -10.292514      -280.0735
  11   2.0000     -10.287708      -279.9428
  12   2.0000     -10.280048      -279.7343
  13   2.0000     -10.277946      -279.6771
  14   2.0000     -10.277474      -279.6643
  15   2.0000     -10.275986      -279.6238
  16   2.0000      -8.079633      -219.8580
  17   2.0000      -8.079476      -219.8537
  18   2.0000      -6.038205      -164.3079
  19   2.0000      -6.037997      -164.3023
  20   2.0000      -6.034267      -164.2008
  21   2.0000      -6.033895      -164.1906
  22   2.0000      -6.030367      -164.0946
  23   2.0000      -6.030344      -164.0940
  24   2.0000      -1.001065       -27.2404
  25   2.0000      -0.976828       -26.5808
  26   2.0000      -0.918702       -24.9991
  27   2.0000      -0.907068       -24.6826
  28   2.0000      -0.862314       -23.4648
  29   2.0000      -0.851795       -23.1785
  30   2.0000      -0.846538       -23.0355
  31   2.0000      -0.807904       -21.9842
  32   2.0000      -0.788071       -21.4445
  33   2.0000      -0.767172       -20.8758
  34   2.0000      -0.709168       -19.2974
  35   2.0000      -0.702772       -19.1234
  36   2.0000      -0.691319       -18.8117
  37   2.0000      -0.664207       -18.0740
  38   2.0000      -0.646859       -17.6019
  39   2.0000      -0.622444       -16.9376
  40   2.0000      -0.604685       -16.4543
  41   2.0000      -0.569334       -15.4924
  42   2.0000      -0.565301       -15.3826
  43   2.0000      -0.553492       -15.0613
  44   2.0000      -0.532191       -14.4817
  45   2.0000      -0.521510       -14.1910
  46   2.0000      -0.515210       -14.0196
  47   2.0000      -0.512218       -13.9382
  48   2.0000      -0.511148       -13.9090
  49   2.0000      -0.496522       -13.5110
  50   2.0000      -0.488203       -13.2847
  51   2.0000      -0.477453       -12.9922
  52   2.0000      -0.473542       -12.8857
  53   2.0000      -0.465654       -12.6711
  54   2.0000      -0.462725       -12.5914
  55   2.0000      -0.451331       -12.2813
  56   2.0000      -0.446322       -12.1450
  57   2.0000      -0.441351       -12.0098
  58   2.0000      -0.435337       -11.8461
  59   2.0000      -0.426667       -11.6102
  60   2.0000      -0.422099       -11.4859
  61   2.0000      -0.410831       -11.1793
  62   2.0000      -0.409228       -11.1357
  63   2.0000      -0.342689        -9.3250
  64   2.0000      -0.333163        -9.0658
  65   2.0000      -0.325447        -8.8559
  66   2.0000      -0.294160        -8.0045
  67   0.0000       0.030001         0.8164
  68   0.0000       0.061234         1.6662
  69   0.0000       0.107219         2.9176
  70   0.0000       0.119865         3.2617
  71   0.0000       0.125096         3.4040

MULLIKEN ATOMIC CHARGES
-----------------------
   0 S :    0.105775
   1 C :   -0.139178
   2 C :   -0.070460
   3 C :    0.069120
   4 C :   -0.163606
   5 H :   -0.022496
   6 C :   -0.002567
   7 H :    0.037859
   8 H :    0.024259
   9 C :   -0.042239
  10 H :    0.014895
  11 H :    0.036389
  12 C :   -0.031855
  13 H :    0.025991
  14 H :    0.038079
  15 H :    0.030013
  16 S :    0.096239
  17 C :   -0.101497
  18 C :   -0.064225
  19 C :   -0.005398
  20 C :   -0.125660
  21 H :    0.040200
  22 C :    0.131404
  23 H :   -0.006123
  24 H :   -0.004815
  25 C :   -0.099887
  26 H :    0.016947
  27 H :   -0.002009
  28 C :    0.003444
  29 H :    0.023180
  30 H :    0.026497
  31 H :    0.031081
  32 H :    0.066437
  33 H :    0.064204
Sum of atomic charges:   -0.0000000

LOEWDIN ATOMIC CHARGES
----------------------
   0 S :    0.402896
   1 C :   -0.208212
   2 C :   -0.059851
   3 C :   -0.058287
   4 C :   -0.192732
   5 H :    0.017068
   6 C :   -0.028345
   7 H :    0.037131
   8 H :    0.021641
   9 C :   -0.034045
  10 H :    0.015134
  11 H :    0.027781
  12 C :   -0.063131
  13 H :    0.021942
  14 H :    0.031442
  15 H :    0.025399
  16 S :    0.397129
  17 C :   -0.183533
  18 C :   -0.071886
  19 C :   -0.051837
  20 C :   -0.184171
  21 H :    0.040015
  22 C :   -0.031483
  23 H :    0.026169
  24 H :    0.024350
  25 C :   -0.036149
  26 H :    0.021963
  27 H :    0.010277
  28 C :   -0.047870
  29 H :    0.018053
  30 H :    0.022234
  31 H :    0.027015
  32 H :    0.032149
  33 H :    0.031745

  Mayer bond orders larger than 0.100000
B(  0-S ,  1-C ) :   1.1488 B(  0-S ,  4-C ) :   1.1634 B(  1-C ,  2-C ) :   1.5888
B(  1-C ,  4-C ) :   0.1007 B(  1-C , 32-H ) :   0.9711 B(  2-C ,  3-C ) :   1.2414
B(  2-C ,  6-C ) :   1.0046 B(  3-C ,  4-C ) :   1.5739 B(  3-C ,  5-H ) :   1.0066
B(  4-C , 20-C ) :   0.9771 B(  6-C ,  7-H ) :   0.9512 B(  6-C ,  8-H ) :   0.9530
B(  6-C ,  9-C ) :   1.0514 B(  9-C , 10-H ) :   0.9575 B(  9-C , 11-H ) :   0.9579
B(  9-C , 12-C ) :   1.0780 B( 12-C , 13-H ) :   0.9730 B( 12-C , 14-H ) :   0.9743
B( 12-C , 15-H ) :   0.9741 B( 16-S , 17-C ) :   1.1555 B( 16-S , 20-C ) :   1.1477
B( 17-C , 18-C ) :   1.5989 B( 17-C , 20-C ) :   0.1101 B( 17-C , 33-H ) :   0.9679
B( 18-C , 19-C ) :   1.2276 B( 18-C , 21-H ) :   0.9844 B( 19-C , 20-C ) :   1.6174
B( 19-C , 22-C ) :   1.0425 B( 22-C , 23-H ) :   0.9268 B( 22-C , 24-H ) :   0.9317
B( 22-C , 25-C ) :   1.0556 B( 25-C , 26-H ) :   0.9526 B( 25-C , 27-H ) :   0.9469
B( 25-C , 28-C ) :   1.0827 B( 28-C , 29-H ) :   0.9732 B( 28-C , 30-H ) :   0.9745
B( 28-C , 31-H ) :   0.9753

Dispersion correction           -0.013676506
FINAL SINGLE POINT ENERGY     -1339.854642374575

DIPOLE MOMENT
-------------
                                X             Y             Z
Electronic contribution:     25.06354       8.93851     -17.83350
Nuclear contribution   :    -25.64015      -9.30460      18.20434
                        -----------------------------------------
Total Dipole Moment    :     -0.57661      -0.36610       0.37085
                        -----------------------------------------
Magnitude (a.u.)       :      0.77720
Magnitude (Debye)      :      1.97548

Rotational constants in cm-1:     0.016688     0.009000     0.006292
Rotational constants in MHz :   500.282125   269.806059   188.630591

                             ****ORCA TERMINATED NORMALLY****
TOTAL RUN TIME: 0 days 0 hours 0 minutes 21 seconds 169 msec
