                         Program Version 4.2.1 -  RELEASE  -
|  1> ! wB97X-D3 SP def2-SVP
|  2> %pal
|  3> nprocs 24
|  4> end
|  5>
|  6> * xyz 0 1
|  7> S 	 -108.856 	 0.492864 	 -108.226
|  8> C 	 -109.013 	 1.49156 	 -109.626
|  9> C 	 -107.958 	 2.38229 	 -109.819
| 10> C 	 -107.307 	 2.58209 	 -108.554
| 11> C 	 -107.563 	 1.65046 	 -107.562
| 12> H 	 -106.457 	 3.22124 	 -108.376
| 13> C 	 -107.82 	 3.22509 	 -111.081
| 14> H 	 -108.34 	 2.63541 	 -111.889
| 15> H 	 -106.829 	 3.17661 	 -111.297
| 16> C 	 -108.416 	 4.65939 	 -111.053
| 17> H 	 -109.41 	 4.62939 	 -110.747
| 18> H 	 -107.879 	 5.24785 	 -110.303
| 19> C 	 -108.357 	 5.30518 	 -112.387
| 20> H 	 -109.153 	 5.00754 	 -113.019
| 21> H 	 -108.477 	 6.39911 	 -112.235
| 22> H 	 -107.331 	 5.20582 	 -112.741
| 23> S 	 -105.199 	 1.04529 	 -106.182
| 24> C 	 -105.108 	 1.10852 	 -104.451
| 25> C 	 -106.413 	 1.39121 	 -103.973
| 26> C 	 -107.38 	 1.7512 	 -104.96
| 27> C 	 -106.938 	 1.58026 	 -106.227
| 28> H 	 -106.577 	 1.50937 	 -102.908
| 29> C 	 -108.676 	 2.34516 	 -104.501
| 30> H 	 -109.187 	 2.7377 	 -105.446
| 31> H 	 -108.6 	 3.30731 	 -103.876
| 32> C 	 -109.664 	 1.37465 	 -103.785
| 33> H 	 -110.481 	 2.00038 	 -103.484
| 34> H 	 -109.201 	 1.10998 	 -102.824
| 35> C 	 -110.123 	 0.16859 	 -104.582
| 36> H 	 -110.973 	 -0.376216 	 -104.071
| 37> H 	 -109.206 	 -0.496675 	 -104.602
| 38> H 	 -110.445 	 0.250336 	 -105.639
| 39> H 	 -109.653 	 1.32837 	 -110.415
| 40> H 	 -104.314 	 0.870142 	 -103.775
| 41> *
| 42>
| 43>                          ****END OF INPUT****

CARTESIAN COORDINATES (ANGSTROEM)
---------------------------------
  S    -108.856000    0.492864  -108.226000
  C    -109.013000    1.491560  -109.626000
  C    -107.958000    2.382290  -109.819000
  C    -107.307000    2.582090  -108.554000
  C    -107.563000    1.650460  -107.562000
  H    -106.457000    3.221240  -108.376000
  C    -107.820000    3.225090  -111.081000
  H    -108.340000    2.635410  -111.889000
  H    -106.829000    3.176610  -111.297000
  C    -108.416000    4.659390  -111.053000
  H    -109.410000    4.629390  -110.747000
  H    -107.879000    5.247850  -110.303000
  C    -108.357000    5.305180  -112.387000
  H    -109.153000    5.007540  -113.019000
  H    -108.477000    6.399110  -112.235000
  H    -107.331000    5.205820  -112.741000
  S    -105.199000    1.045290  -106.182000
  C    -105.108000    1.108520  -104.451000
  C    -106.413000    1.391210  -103.973000
  C    -107.380000    1.751200  -104.960000
  C    -106.938000    1.580260  -106.227000
  H    -106.577000    1.509370  -102.908000
  C    -108.676000    2.345160  -104.501000
  H    -109.187000    2.737700  -105.446000
  H    -108.600000    3.307310  -103.876000
  C    -109.664000    1.374650  -103.785000
  H    -110.481000    2.000380  -103.484000
  H    -109.201000    1.109980  -102.824000
  C    -110.123000    0.168590  -104.582000
  H    -110.973000   -0.376216  -104.071000
  H    -109.206000   -0.496675  -104.602000
  H    -110.445000    0.250336  -105.639000
  H    -109.653000    1.328370  -110.415000
  H    -104.314000    0.870142  -103.775000

 Total Charge           Charge          ....    0
 Multiplicity           Mult            ....    1
 Number of Electrons    NEL             ....  134
 Basis Dimension        Dim             ....  322

ORBITAL ENERGIES
----------------

  NO   OCC          E(Eh)            E(eV)
   0   2.0000     -88.968007     -2420.9425
   1   2.0000     -88.964317     -2420.8421
   2   2.0000     -10.337028      -281.2848
   3   2.0000     -10.331353      -281.1304
   4   2.0000     -10.322214      -280.8817
   5   2.0000     -10.309963      -280.5484
   6   2.0000     -10.301891      -280.3287
   7   2.0000     -10.301842      -280.3274
   8   2.0000     -10.298743      -280.2431
   9   2.0000     -10.298001      -280.2229
  10   2.0000     -10.293678      -280.1052
  11   2.0000     -10.290848      -280.0282
  12   2.0000     -10.284995      -279.8689
  13   2.0000     -10.280200      -279.7385
  14   2.0000     -10.280172      -279.7377
  15   2.0000     -10.275178      -279.6018
  16   2.0000      -8.081109      -219.8982
  17   2.0000      -8.078249      -219.8203
  18   2.0000      -6.039665      -164.3476
  19   2.0000      -6.036860      -164.2713
  20   2.0000      -6.035949      -164.2465
  21   2.0000      -6.032759      -164.1597
  22   2.0000      -6.031800      -164.1336
  23   2.0000      -6.029035      -164.0584
  24   2.0000      -0.997950       -27.1556
  25   2.0000      -0.979606       -26.6564
  26   2.0000      -0.914518       -24.8853
  27   2.0000      -0.903434       -24.5837
  28   2.0000      -0.869470       -23.6595
  29   2.0000      -0.851278       -23.1644
  30   2.0000      -0.845461       -23.0062
  31   2.0000      -0.813241       -22.1294
  32   2.0000      -0.778459       -21.1829
  33   2.0000      -0.768982       -20.9251
  34   2.0000      -0.708070       -19.2676
  35   2.0000      -0.702537       -19.1170
  36   2.0000      -0.692448       -18.8425
  37   2.0000      -0.664135       -18.0720
  38   2.0000      -0.640472       -17.4281
  39   2.0000      -0.612461       -16.6659
  40   2.0000      -0.592762       -16.1299
  41   2.0000      -0.581150       -15.8139
  42   2.0000      -0.562700       -15.3118
  43   2.0000      -0.543031       -14.7766
  44   2.0000      -0.532302       -14.4847
  45   2.0000      -0.529174       -14.3996
  46   2.0000      -0.518160       -14.0999
  47   2.0000      -0.513718       -13.9790
  48   2.0000      -0.503556       -13.7025
  49   2.0000      -0.500646       -13.6233
  50   2.0000      -0.491431       -13.3725
  51   2.0000      -0.475611       -12.9420
  52   2.0000      -0.468308       -12.7433
  53   2.0000      -0.465671       -12.6716
  54   2.0000      -0.457779       -12.4568
  55   2.0000      -0.444912       -12.1067
  56   2.0000      -0.437986       -11.9182
  57   2.0000      -0.432298       -11.7634
  58   2.0000      -0.428408       -11.6576
  59   2.0000      -0.424211       -11.5434
  60   2.0000      -0.419656       -11.4194
  61   2.0000      -0.413829       -11.2609
  62   2.0000      -0.405658       -11.0385
  63   2.0000      -0.340524        -9.2661
  64   2.0000      -0.327858        -8.9215
  65   2.0000      -0.322232        -8.7684
  66   2.0000      -0.303743        -8.2653
  67   0.0000       0.028600         0.7782
  68   0.0000       0.054471         1.4822
  69   0.0000       0.099371         2.7040
  70   0.0000       0.110847         3.0163
  71   0.0000       0.131758         3.5853

MULLIKEN ATOMIC CHARGES
-----------------------
   0 S :    0.114773
   1 C :   -0.076241
   2 C :   -0.113515
   3 C :    0.042897
   4 C :   -0.151884
   5 H :    0.014121
   6 C :    0.073657
   7 H :    0.019658
   8 H :    0.006681
   9 C :   -0.034879
  10 H :    0.009545
  11 H :    0.025776
  12 C :   -0.030575
  13 H :    0.036776
  14 H :    0.029609
  15 H :    0.030147
  16 S :    0.099160
  17 C :   -0.079955
  18 C :   -0.055225
  19 C :    0.019484
  20 C :   -0.193997
  21 H :    0.020976
  22 C :   -0.019413
  23 H :    0.035318
  24 H :    0.053898
  25 C :   -0.040981
  26 H :    0.019220
  27 H :    0.025756
  28 C :   -0.089220
  29 H :    0.043681
  30 H :    0.045145
  31 H :    0.042947
  32 H :    0.017784
  33 H :    0.058874
Sum of atomic charges:    0.0000000

LOEWDIN ATOMIC CHARGES
----------------------
   0 S :    0.379162
   1 C :   -0.180002
   2 C :   -0.063009
   3 C :   -0.049082
   4 C :   -0.173295
   5 H :    0.030224
   6 C :   -0.024835
   7 H :    0.035240
   8 H :    0.016289
   9 C :   -0.033674
  10 H :    0.016393
  11 H :    0.025135
  12 C :   -0.062003
  13 H :    0.022391
  14 H :    0.032645
  15 H :    0.027380
  16 S :    0.387550
  17 C :   -0.185031
  18 C :   -0.073010
  19 C :   -0.060896
  20 C :   -0.180522
  21 H :    0.026474
  22 C :   -0.041447
  23 H :    0.035561
  24 H :    0.043089
  25 C :   -0.043063
  26 H :    0.019528
  27 H :    0.023587
  28 C :   -0.082229
  29 H :    0.033292
  30 H :    0.033816
  31 H :    0.021858
  32 H :    0.010337
  33 H :    0.032147

  Mayer bond orders larger than 0.100000
B(  0-S ,  1-C ) :   1.1643 B(  0-S ,  4-C ) :   1.0849 B(  1-C ,  2-C ) :   1.6052
B(  1-C , 32-H ) :   0.9664 B(  2-C ,  3-C ) :   1.2172 B(  2-C ,  6-C ) :   1.0407
B(  3-C ,  4-C ) :   1.6254 B(  3-C ,  5-H ) :   0.9816 B(  4-C , 20-C ) :   1.0485
B(  6-C ,  7-H ) :   0.9403 B(  6-C ,  8-H ) :   0.9271 B(  6-C ,  9-C ) :   1.0603
B(  9-C , 10-H ) :   0.9535 B(  9-C , 11-H ) :   0.9528 B(  9-C , 12-C ) :   1.0954
B( 12-C , 13-H ) :   0.9755 B( 12-C , 14-H ) :   0.9694 B( 12-C , 15-H ) :   0.9724
B( 16-S , 17-C ) :   1.1620 B( 16-S , 20-C ) :   1.1156 B( 17-C , 18-C ) :   1.6020
B( 17-C , 33-H ) :   0.9699 B( 18-C , 19-C ) :   1.2291 B( 18-C , 21-H ) :   0.9830
B( 19-C , 20-C ) :   1.6120 B( 19-C , 22-C ) :   1.0394 B( 22-C , 23-H ) :   0.9340
B( 22-C , 24-H ) :   0.9450 B( 22-C , 25-C ) :   1.0702 B( 25-C , 26-H ) :   0.9541
B( 25-C , 27-H ) :   0.9549 B( 25-C , 28-C ) :   1.0636 B( 28-C , 29-H ) :   0.9729
B( 28-C , 30-H ) :   0.9722 B( 28-C , 31-H ) :   0.9724

Dispersion correction           -0.014577406
FINAL SINGLE POINT ENERGY     -1339.856323485177

DIPOLE MOMENT
-------------
                                X             Y             Z
Electronic contribution:     12.53706     -12.68890       5.51749
Nuclear contribution   :    -12.67727      13.18080      -5.56544
                        -----------------------------------------
Total Dipole Moment    :     -0.14022       0.49190      -0.04796
                        -----------------------------------------
Magnitude (a.u.)       :      0.51373
Magnitude (Debye)      :      1.30581

Rotational constants in cm-1:     0.021458     0.007365     0.006464
Rotational constants in MHz :   643.289435   220.782353   193.772906

                             ****ORCA TERMINATED NORMALLY****
TOTAL RUN TIME: 0 days 0 hours 0 minutes 20 seconds 171 msec
