                         Program Version 4.2.1 -  RELEASE  -
|  1> ! wB97X-D3 SP def2-SVP
|  2> %pal
|  3> nprocs 24
|  4> end
|  5>
|  6> * xyz 0 1
|  7> S 	 -69.2186 	 -48.5195 	 -92.4203
|  8> C 	 -68.7456 	 -47.0067 	 -93.2299
|  9> C 	 -67.8764 	 -46.2865 	 -92.397
| 10> C 	 -67.8203 	 -46.7546 	 -91.0577
| 11> C 	 -68.5447 	 -47.9406 	 -90.9215
| 12> H 	 -67.3005 	 -46.2753 	 -90.199
| 13> C 	 -67.0762 	 -45.1476 	 -92.878
| 14> H 	 -66.8237 	 -44.3754 	 -92.1789
| 15> H 	 -67.7169 	 -44.6265 	 -93.6031
| 16> C 	 -65.7214 	 -45.4738 	 -93.4051
| 17> H 	 -65.2229 	 -45.9861 	 -92.5501
| 18> H 	 -65.9291 	 -46.2443 	 -94.1949
| 19> C 	 -64.8462 	 -44.281 	 -93.7602
| 20> H 	 -65.4119 	 -43.5558 	 -94.3359
| 21> H 	 -64.5236 	 -43.7529 	 -92.8598
| 22> H 	 -63.9004 	 -44.6181 	 -94.0859
| 23> S 	 -69.7486 	 -48.4423 	 -88.4456
| 24> C 	 -69.3718 	 -49.781 	 -87.4464
| 25> C 	 -68.4085 	 -50.5425 	 -88.1051
| 26> C 	 -67.9473 	 -50.0315 	 -89.3766
| 27> C 	 -68.5901 	 -48.823 	 -89.7504
| 28> H 	 -67.8862 	 -51.3557 	 -87.6023
| 29> C 	 -66.7612 	 -50.6407 	 -90.0945
| 30> H 	 -66.1001 	 -51.2609 	 -89.4447
| 31> H 	 -66.0842 	 -49.7852 	 -90.4245
| 32> C 	 -67.1337 	 -51.5427 	 -91.2735
| 33> H 	 -66.2497 	 -51.8739 	 -91.7608
| 34> H 	 -67.4813 	 -50.9589 	 -92.079
| 35> C 	 -68.2935 	 -52.5163 	 -90.975
| 36> H 	 -68.1746 	 -53.0643 	 -90.042
| 37> H 	 -68.5588 	 -53.3067 	 -91.7186
| 38> H 	 -69.211 	 -51.9413 	 -90.849
| 39> H 	 -68.732 	 -46.8691 	 -94.3521
| 40> H 	 -69.8391 	 -50.0836 	 -86.5113
| 41> *
| 42>
| 43>                          ****END OF INPUT****

CARTESIAN COORDINATES (ANGSTROEM)
---------------------------------
  S    -69.218600  -48.519500  -92.420300
  C    -68.745600  -47.006700  -93.229900
  C    -67.876400  -46.286500  -92.397000
  C    -67.820300  -46.754600  -91.057700
  C    -68.544700  -47.940600  -90.921500
  H    -67.300500  -46.275300  -90.199000
  C    -67.076200  -45.147600  -92.878000
  H    -66.823700  -44.375400  -92.178900
  H    -67.716900  -44.626500  -93.603100
  C    -65.721400  -45.473800  -93.405100
  H    -65.222900  -45.986100  -92.550100
  H    -65.929100  -46.244300  -94.194900
  C    -64.846200  -44.281000  -93.760200
  H    -65.411900  -43.555800  -94.335900
  H    -64.523600  -43.752900  -92.859800
  H    -63.900400  -44.618100  -94.085900
  S    -69.748600  -48.442300  -88.445600
  C    -69.371800  -49.781000  -87.446400
  C    -68.408500  -50.542500  -88.105100
  C    -67.947300  -50.031500  -89.376600
  C    -68.590100  -48.823000  -89.750400
  H    -67.886200  -51.355700  -87.602300
  C    -66.761200  -50.640700  -90.094500
  H    -66.100100  -51.260900  -89.444700
  H    -66.084200  -49.785200  -90.424500
  C    -67.133700  -51.542700  -91.273500
  H    -66.249700  -51.873900  -91.760800
  H    -67.481300  -50.958900  -92.079000
  C    -68.293500  -52.516300  -90.975000
  H    -68.174600  -53.064300  -90.042000
  H    -68.558800  -53.306700  -91.718600
  H    -69.211000  -51.941300  -90.849000
  H    -68.732000  -46.869100  -94.352100
  H    -69.839100  -50.083600  -86.511300

 Total Charge           Charge          ....    0
 Multiplicity           Mult            ....    1
 Number of Electrons    NEL             ....  134
 Basis Dimension        Dim             ....  322

ORBITAL ENERGIES
----------------

  NO   OCC          E(Eh)            E(eV)
   0   2.0000     -88.973157     -2421.0827
   1   2.0000     -88.963328     -2420.8152
   2   2.0000     -10.335926      -281.2548
   3   2.0000     -10.332084      -281.1503
   4   2.0000     -10.323172      -280.9078
   5   2.0000     -10.318727      -280.7868
   6   2.0000     -10.309060      -280.5238
   7   2.0000     -10.304910      -280.4109
   8   2.0000     -10.303418      -280.3703
   9   2.0000     -10.296710      -280.1877
  10   2.0000     -10.293647      -280.1044
  11   2.0000     -10.288296      -279.9588
  12   2.0000     -10.282551      -279.8024
  13   2.0000     -10.279410      -279.7170
  14   2.0000     -10.274960      -279.5959
  15   2.0000     -10.274797      -279.5914
  16   2.0000      -8.086856      -220.0546
  17   2.0000      -8.077995      -219.8134
  18   2.0000      -6.045372      -164.5029
  19   2.0000      -6.041492      -164.3974
  20   2.0000      -6.037656      -164.2930
  21   2.0000      -6.036468      -164.2607
  22   2.0000      -6.032201      -164.1445
  23   2.0000      -6.029074      -164.0594
  24   2.0000      -1.004264       -27.3274
  25   2.0000      -0.982984       -26.7483
  26   2.0000      -0.924192       -25.1486
  27   2.0000      -0.906208       -24.6592
  28   2.0000      -0.868900       -23.6440
  29   2.0000      -0.851691       -23.1757
  30   2.0000      -0.839083       -22.8326
  31   2.0000      -0.814246       -22.1568
  32   2.0000      -0.784840       -21.3566
  33   2.0000      -0.772158       -21.0115
  34   2.0000      -0.710422       -19.3316
  35   2.0000      -0.697413       -18.9776
  36   2.0000      -0.691612       -18.8197
  37   2.0000      -0.658852       -17.9283
  38   2.0000      -0.640163       -17.4197
  39   2.0000      -0.618746       -16.8369
  40   2.0000      -0.591248       -16.0887
  41   2.0000      -0.578898       -15.7526
  42   2.0000      -0.562941       -15.3184
  43   2.0000      -0.548492       -14.9252
  44   2.0000      -0.542985       -14.7754
  45   2.0000      -0.534922       -14.5560
  46   2.0000      -0.519934       -14.1481
  47   2.0000      -0.506578       -13.7847
  48   2.0000      -0.502817       -13.6823
  49   2.0000      -0.498483       -13.5644
  50   2.0000      -0.481321       -13.0974
  51   2.0000      -0.480621       -13.0784
  52   2.0000      -0.472926       -12.8690
  53   2.0000      -0.462769       -12.5926
  54   2.0000      -0.459656       -12.5079
  55   2.0000      -0.454812       -12.3761
  56   2.0000      -0.439507       -11.9596
  57   2.0000      -0.435476       -11.8499
  58   2.0000      -0.430786       -11.7223
  59   2.0000      -0.430137       -11.7046
  60   2.0000      -0.418536       -11.3889
  61   2.0000      -0.406216       -11.0537
  62   2.0000      -0.400113       -10.8876
  63   2.0000      -0.337542        -9.1850
  64   2.0000      -0.328129        -8.9288
  65   2.0000      -0.324205        -8.8221
  66   2.0000      -0.306880        -8.3506
  67   0.0000       0.031379         0.8539
  68   0.0000       0.051027         1.3885
  69   0.0000       0.102156         2.7798
  70   0.0000       0.119097         3.2408
  71   0.0000       0.125048         3.4027

MULLIKEN ATOMIC CHARGES
-----------------------
   0 S :    0.126149
   1 C :   -0.125283
   2 C :   -0.098091
   3 C :    0.046844
   4 C :   -0.150435
   5 H :    0.038401
   6 C :    0.049160
   7 H :    0.000053
   8 H :    0.021649
   9 C :   -0.096967
  10 H :    0.023453
  11 H :    0.025695
  12 C :    0.010614
  13 H :    0.035555
  14 H :    0.019346
  15 H :    0.028759
  16 S :    0.106410
  17 C :   -0.087932
  18 C :   -0.048445
  19 C :   -0.032338
  20 C :   -0.194307
  21 H :    0.023279
  22 C :    0.025395
  23 H :    0.030873
  24 H :    0.046027
  25 C :   -0.018790
  26 H :    0.010661
  27 H :    0.001850
  28 C :   -0.061299
  29 H :    0.020288
  30 H :    0.039916
  31 H :    0.039463
  32 H :    0.075794
  33 H :    0.068251
Sum of atomic charges:   -0.0000000

LOEWDIN ATOMIC CHARGES
----------------------
   0 S :    0.422026
   1 C :   -0.207201
   2 C :   -0.057603
   3 C :   -0.055853
   4 C :   -0.197659
   5 H :    0.045395
   6 C :   -0.046009
   7 H :    0.023967
   8 H :    0.029681
   9 C :   -0.044195
  10 H :    0.027454
  11 H :    0.022665
  12 C :   -0.061184
  13 H :    0.026677
  14 H :    0.029301
  15 H :    0.026727
  16 S :    0.416175
  17 C :   -0.201692
  18 C :   -0.081400
  19 C :   -0.054511
  20 C :   -0.204543
  21 H :    0.029097
  22 C :   -0.035517
  23 H :    0.031744
  24 H :    0.042138
  25 C :   -0.045877
  26 H :    0.020205
  27 H :    0.011485
  28 C :   -0.070703
  29 H :    0.019122
  30 H :    0.031676
  31 H :    0.028492
  32 H :    0.041549
  33 H :    0.038368

  Mayer bond orders larger than 0.100000
B(  0-S ,  1-C ) :   1.1311 B(  0-S ,  4-C ) :   1.1777 B(  1-C ,  2-C ) :   1.5993
B(  1-C , 32-H ) :   0.9558 B(  2-C ,  3-C ) :   1.2501 B(  2-C ,  6-C ) :   1.0418
B(  3-C ,  4-C ) :   1.5571 B(  3-C ,  5-H ) :   0.9884 B(  4-C , 20-C ) :   1.0123
B(  6-C ,  7-H ) :   0.9383 B(  6-C ,  8-H ) :   0.9308 B(  6-C ,  9-C ) :   1.0590
B(  9-C , 10-H ) :   0.9513 B(  9-C , 11-H ) :   0.9544 B(  9-C , 12-C ) :   1.0844
B( 12-C , 13-H ) :   0.9748 B( 12-C , 14-H ) :   0.9636 B( 12-C , 15-H ) :   0.9682
B( 16-S , 17-C ) :   1.1782 B( 16-S , 20-C ) :   1.1517 B( 17-C , 18-C ) :   1.5687
B( 17-C , 20-C ) :   0.1082 B( 17-C , 33-H ) :   0.9678 B( 18-C , 19-C ) :   1.2757
B( 18-C , 21-H ) :   0.9827 B( 19-C , 20-C ) :   1.5580 B( 19-C , 22-C ) :   1.0341
B( 22-C , 23-H ) :   0.9438 B( 22-C , 24-H ) :   0.9409 B( 22-C , 25-C ) :   1.0712
B( 25-C , 26-H ) :   0.9544 B( 25-C , 27-H ) :   0.9471 B( 25-C , 28-C ) :   1.0596
B( 28-C , 29-H ) :   0.9798 B( 28-C , 30-H ) :   0.9759 B( 28-C , 31-H ) :   0.9655

Dispersion correction           -0.015131196
FINAL SINGLE POINT ENERGY     -1339.865917552268

DIPOLE MOMENT
-------------
                                X             Y             Z
Electronic contribution:    -18.30415      -0.68561      11.23780
Nuclear contribution   :     18.96467       0.78408     -11.32843
                        -----------------------------------------
Total Dipole Moment    :      0.66052       0.09847      -0.09064
                        -----------------------------------------
Magnitude (a.u.)       :      0.67394
Magnitude (Debye)      :      1.71303

Rotational constants in cm-1:     0.021956     0.007705     0.006970
Rotational constants in MHz :   658.224373   231.001479   208.960410

                             ****ORCA TERMINATED NORMALLY****
TOTAL RUN TIME: 0 days 0 hours 0 minutes 20 seconds 505 msec
