                         Program Version 4.2.1 -  RELEASE  -
|  1> ! wB97X-D3 SP def2-SVP
|  2> %pal
|  3> nprocs 24
|  4> end
|  5>
|  6> * xyz 0 1
|  7> S 	 -36.7755 	 9.97058 	 -1.27903
|  8> C 	 -37.8112 	 8.56425 	 -1.64621
|  9> C 	 -37.7718 	 7.57534 	 -0.615169
| 10> C 	 -37.0182 	 8.0377 	 0.486401
| 11> C 	 -36.5321 	 9.33854 	 0.305401
| 12> H 	 -36.8022 	 7.54361 	 1.40517
| 13> C 	 -38.1895 	 6.08083 	 -0.731371
| 14> H 	 -38.9626 	 6.12162 	 -1.41138
| 15> H 	 -38.7777 	 5.85658 	 0.143193
| 16> C 	 -37.0791 	 5.08151 	 -1.09052
| 17> H 	 -36.3554 	 5.03858 	 -0.277095
| 18> H 	 -37.5962 	 4.1543 	 -1.23805
| 19> C 	 -36.1752 	 5.25457 	 -2.34329
| 20> H 	 -35.3333 	 4.59009 	 -2.32731
| 21> H 	 -36.667 	 5.10452 	 -3.27543
| 22> H 	 -35.6368 	 6.20582 	 -2.37946
| 23> S 	 -34.0253 	 10.4653 	 0.700287
| 24> C 	 -33.6139 	 10.8518 	 2.40491
| 25> C 	 -34.6603 	 10.5854 	 3.26545
| 26> C 	 -35.9021 	 10.3703 	 2.57944
| 27> C 	 -35.734 	 10.0706 	 1.22251
| 28> H 	 -34.5346 	 10.7135 	 4.31156
| 29> C 	 -37.2253 	 10.268 	 3.38448
| 30> H 	 -37.7652 	 9.50084 	 2.85639
| 31> H 	 -37.9496 	 11.0712 	 3.25683
| 32> C 	 -37.1323 	 9.715 	 4.8449
| 33> H 	 -38.1532 	 9.65609 	 5.2051
| 34> H 	 -36.3733 	 10.2517 	 5.45082
| 35> C 	 -36.7973 	 8.24678 	 4.67149
| 36> H 	 -35.8003 	 8.13045 	 4.27565
| 37> H 	 -37.5487 	 7.68357 	 4.14094
| 38> H 	 -36.7603 	 7.73993 	 5.62086
| 39> H 	 -38.2727 	 8.31128 	 -2.57776
| 40> H 	 -32.6416 	 11.1298 	 2.67365
| 41> *
| 42>
| 43>                          ****END OF INPUT****

CARTESIAN COORDINATES (ANGSTROEM)
---------------------------------
  S    -36.775500    9.970580   -1.279030
  C    -37.811200    8.564250   -1.646210
  C    -37.771800    7.575340   -0.615169
  C    -37.018200    8.037700    0.486401
  C    -36.532100    9.338540    0.305401
  H    -36.802200    7.543610    1.405170
  C    -38.189500    6.080830   -0.731371
  H    -38.962600    6.121620   -1.411380
  H    -38.777700    5.856580    0.143193
  C    -37.079100    5.081510   -1.090520
  H    -36.355400    5.038580   -0.277095
  H    -37.596200    4.154300   -1.238050
  C    -36.175200    5.254570   -2.343290
  H    -35.333300    4.590090   -2.327310
  H    -36.667000    5.104520   -3.275430
  H    -35.636800    6.205820   -2.379460
  S    -34.025300   10.465300    0.700287
  C    -33.613900   10.851800    2.404910
  C    -34.660300   10.585400    3.265450
  C    -35.902100   10.370300    2.579440
  C    -35.734000   10.070600    1.222510
  H    -34.534600   10.713500    4.311560
  C    -37.225300   10.268000    3.384480
  H    -37.765200    9.500840    2.856390
  H    -37.949600   11.071200    3.256830
  C    -37.132300    9.715000    4.844900
  H    -38.153200    9.656090    5.205100
  H    -36.373300   10.251700    5.450820
  C    -36.797300    8.246780    4.671490
  H    -35.800300    8.130450    4.275650
  H    -37.548700    7.683570    4.140940
  H    -36.760300    7.739930    5.620860
  H    -38.272700    8.311280   -2.577760
  H    -32.641600   11.129800    2.673650

 Total Charge           Charge          ....    0
 Multiplicity           Mult            ....    1
 Number of Electrons    NEL             ....  134
 Basis Dimension        Dim             ....  322

ORBITAL ENERGIES
----------------

  NO   OCC          E(Eh)            E(eV)
   0   2.0000     -88.971466     -2421.0367
   1   2.0000     -88.961938     -2420.7774
   2   2.0000     -10.327472      -281.0248
   3   2.0000     -10.323918      -280.9281
   4   2.0000     -10.319194      -280.7995
   5   2.0000     -10.317656      -280.7577
   6   2.0000     -10.309934      -280.5476
   7   2.0000     -10.304596      -280.4023
   8   2.0000     -10.294442      -280.1260
   9   2.0000     -10.292369      -280.0696
  10   2.0000     -10.291105      -280.0352
  11   2.0000     -10.290994      -280.0322
  12   2.0000     -10.290369      -280.0152
  13   2.0000     -10.289318      -279.9866
  14   2.0000     -10.273006      -279.5427
  15   2.0000     -10.271017      -279.4886
  16   2.0000      -8.085758      -220.0247
  17   2.0000      -8.075293      -219.7399
  18   2.0000      -6.044120      -164.4689
  19   2.0000      -6.040429      -164.3684
  20   2.0000      -6.036597      -164.2642
  21   2.0000      -6.033872      -164.1900
  22   2.0000      -6.030185      -164.0897
  23   2.0000      -6.025858      -163.9719
  24   2.0000      -1.001079       -27.2407
  25   2.0000      -0.972560       -26.4647
  26   2.0000      -0.911171       -24.7942
  27   2.0000      -0.907846       -24.7038
  28   2.0000      -0.866373       -23.5752
  29   2.0000      -0.850417       -23.1410
  30   2.0000      -0.841165       -22.8893
  31   2.0000      -0.811400       -22.0793
  32   2.0000      -0.789147       -21.4738
  33   2.0000      -0.771860       -21.0034
  34   2.0000      -0.711510       -19.3612
  35   2.0000      -0.701061       -19.0768
  36   2.0000      -0.698364       -19.0034
  37   2.0000      -0.656799       -17.8724
  38   2.0000      -0.641659       -17.4604
  39   2.0000      -0.617924       -16.8146
  40   2.0000      -0.605990       -16.4898
  41   2.0000      -0.565099       -15.3771
  42   2.0000      -0.551244       -15.0001
  43   2.0000      -0.550543       -14.9810
  44   2.0000      -0.547462       -14.8972
  45   2.0000      -0.540010       -14.6944
  46   2.0000      -0.520590       -14.1660
  47   2.0000      -0.510463       -13.8904
  48   2.0000      -0.497957       -13.5501
  49   2.0000      -0.488848       -13.3022
  50   2.0000      -0.485316       -13.2061
  51   2.0000      -0.476549       -12.9676
  52   2.0000      -0.470456       -12.8018
  53   2.0000      -0.463972       -12.6253
  54   2.0000      -0.459463       -12.5026
  55   2.0000      -0.450643       -12.2626
  56   2.0000      -0.445823       -12.1315
  57   2.0000      -0.442456       -12.0398
  58   2.0000      -0.428497       -11.6600
  59   2.0000      -0.424368       -11.5476
  60   2.0000      -0.422427       -11.4948
  61   2.0000      -0.414420       -11.2769
  62   2.0000      -0.412282       -11.2188
  63   2.0000      -0.337913        -9.1951
  64   2.0000      -0.335074        -9.1178
  65   2.0000      -0.327533        -8.9126
  66   2.0000      -0.284917        -7.7530
  67   0.0000       0.022350         0.6082
  68   0.0000       0.059988         1.6324
  69   0.0000       0.099939         2.7195
  70   0.0000       0.118928         3.2362
  71   0.0000       0.121879         3.3165

MULLIKEN ATOMIC CHARGES
-----------------------
   0 S :    0.126564
   1 C :   -0.100183
   2 C :   -0.142608
   3 C :    0.059133
   4 C :   -0.185696
   5 H :    0.000079
   6 C :    0.134797
   7 H :   -0.014992
   8 H :    0.019704
   9 C :   -0.044207
  10 H :    0.033271
  11 H :    0.032666
  12 C :   -0.047272
  13 H :    0.022175
  14 H :    0.024239
  15 H :    0.036459
  16 S :    0.073462
  17 C :   -0.065542
  18 C :   -0.020951
  19 C :   -0.046084
  20 C :   -0.131086
  21 H :    0.011558
  22 C :    0.075605
  23 H :   -0.005118
  24 H :    0.039598
  25 C :   -0.069870
  26 H :    0.033312
  27 H :    0.050175
  28 C :   -0.059122
  29 H :    0.036804
  30 H :    0.030480
  31 H :    0.018377
  32 H :    0.034882
  33 H :    0.039391
Sum of atomic charges:    0.0000000

LOEWDIN ATOMIC CHARGES
----------------------
   0 S :    0.418103
   1 C :   -0.193668
   2 C :   -0.056607
   3 C :   -0.055274
   4 C :   -0.206408
   5 H :    0.027728
   6 C :   -0.026954
   7 H :    0.017453
   8 H :    0.034129
   9 C :   -0.031386
  10 H :    0.027373
  11 H :    0.027062
  12 C :   -0.064973
  13 H :    0.026729
  14 H :    0.017870
  15 H :    0.029643
  16 S :    0.344056
  17 C :   -0.149992
  18 C :   -0.068435
  19 C :   -0.045010
  20 C :   -0.180786
  21 H :    0.025906
  22 C :   -0.036394
  23 H :    0.027815
  24 H :    0.032806
  25 C :   -0.036527
  26 H :    0.031951
  27 H :    0.026675
  28 C :   -0.065617
  29 H :    0.022725
  30 H :    0.022951
  31 H :    0.020941
  32 H :    0.020345
  33 H :    0.015767

  Mayer bond orders larger than 0.100000
B(  0-S ,  1-C ) :   1.1409 B(  0-S ,  4-C ) :   1.1614 B(  1-C ,  2-C ) :   1.5908
B(  1-C ,  4-C ) :   0.1086 B(  1-C , 32-H ) :   0.9677 B(  2-C ,  3-C ) :   1.2571
B(  2-C ,  6-C ) :   1.0165 B(  3-C ,  4-C ) :   1.5410 B(  3-C ,  5-H ) :   0.9959
B(  4-C , 20-C ) :   1.0605 B(  6-C ,  7-H ) :   0.9264 B(  6-C ,  8-H ) :   0.9348
B(  6-C ,  9-C ) :   1.0584 B(  9-C , 10-H ) :   0.9596 B(  9-C , 11-H ) :   0.9545
B(  9-C , 12-C ) :   1.0827 B( 12-C , 13-H ) :   0.9719 B( 12-C , 14-H ) :   0.9777
B( 12-C , 15-H ) :   0.9713 B( 16-S , 17-C ) :   1.1358 B( 16-S , 20-C ) :   1.1038
B( 17-C , 18-C ) :   1.6386 B( 17-C , 20-C ) :   0.1019 B( 17-C , 33-H ) :   0.9728
B( 18-C , 19-C ) :   1.2160 B( 18-C , 21-H ) :   0.9873 B( 19-C , 20-C ) :   1.6129
B( 19-C , 22-C ) :   1.0134 B( 22-C , 23-H ) :   0.9299 B( 22-C , 24-H ) :   0.9340
B( 22-C , 25-C ) :   1.0760 B( 25-C , 26-H ) :   0.9492 B( 25-C , 27-H ) :   0.9526
B( 25-C , 28-C ) :   1.0874 B( 28-C , 29-H ) :   0.9734 B( 28-C , 30-H ) :   0.9704
B( 28-C , 31-H ) :   0.9694

Dispersion correction           -0.015103276
FINAL SINGLE POINT ENERGY     -1339.845054952375

DIPOLE MOMENT
-------------
                                X             Y             Z
Electronic contribution:      8.37137      20.09209      -9.83618
Nuclear contribution   :     -8.57541     -20.69948      10.25644
                        -----------------------------------------
Total Dipole Moment    :     -0.20405      -0.60739       0.42026
                        -----------------------------------------
Magnitude (a.u.)       :      0.76627
Magnitude (Debye)      :      1.94771

Rotational constants in cm-1:     0.018937     0.008869     0.007400
Rotational constants in MHz :   567.717152   265.871857   221.846720

                             ****ORCA TERMINATED NORMALLY****
TOTAL RUN TIME: 0 days 0 hours 0 minutes 22 seconds 266 msec
