                         Program Version 4.2.1 -  RELEASE  -
|  1> ! wB97X-D3 SP def2-SVP
|  2> %pal
|  3> nprocs 24
|  4> end
|  5>
|  6> * xyz 0 1
|  7> S 	 41.3088 	 -26.9071 	 -119.529
|  8> C 	 39.631 	 -26.8377 	 -119.114
|  9> C 	 38.8498 	 -27.5877 	 -119.957
| 10> C 	 39.635 	 -28.5233 	 -120.748
| 11> C 	 40.9962 	 -28.3033 	 -120.595
| 12> H 	 39.1702 	 -29.2496 	 -121.434
| 13> C 	 37.3607 	 -27.5635 	 -119.933
| 14> H 	 37.0113 	 -27.1677 	 -118.926
| 15> H 	 37.135 	 -28.6274 	 -119.858
| 16> C 	 36.706 	 -26.9628 	 -121.082
| 17> H 	 37.3094 	 -27.1924 	 -121.943
| 18> H 	 35.6619 	 -27.4166 	 -121.185
| 19> C 	 36.4405 	 -25.4841 	 -121.065
| 20> H 	 36.3541 	 -24.9192 	 -122.004
| 21> H 	 35.5282 	 -25.2062 	 -120.487
| 22> H 	 37.2923 	 -25.0321 	 -120.563
| 23> S 	 43.1585 	 -27.877 	 -122.183
| 24> C 	 44.0704 	 -29.2826 	 -122.693
| 25> C 	 43.5345 	 -30.4679 	 -122.312
| 26> C 	 42.3476 	 -30.2908 	 -121.625
| 27> C 	 42.0846 	 -28.9307 	 -121.321
| 28> H 	 44.0174 	 -31.3146 	 -122.702
| 29> C 	 41.4856 	 -31.4313 	 -121.285
| 30> H 	 41.5044 	 -31.9676 	 -122.252
| 31> H 	 40.3791 	 -31.1821 	 -121.379
| 32> C 	 41.9133 	 -32.3359 	 -120.199
| 33> H 	 41.7462 	 -31.7847 	 -119.288
| 34> H 	 42.9724 	 -32.6057 	 -120.404
| 35> C 	 41.1429 	 -33.6562 	 -119.945
| 36> H 	 41.4401 	 -34.4058 	 -120.704
| 37> H 	 40.115 	 -33.5179 	 -119.871
| 38> H 	 41.5374 	 -34.2026 	 -118.996
| 39> H 	 39.3023 	 -26.028 	 -118.428
| 40> H 	 44.9961 	 -29.2491 	 -123.283
| 41> *
| 42>
| 43>                          ****END OF INPUT****

CARTESIAN COORDINATES (ANGSTROEM)
---------------------------------
  S     41.308800  -26.907100  -119.529000
  C     39.631000  -26.837700  -119.114000
  C     38.849800  -27.587700  -119.957000
  C     39.635000  -28.523300  -120.748000
  C     40.996200  -28.303300  -120.595000
  H     39.170200  -29.249600  -121.434000
  C     37.360700  -27.563500  -119.933000
  H     37.011300  -27.167700  -118.926000
  H     37.135000  -28.627400  -119.858000
  C     36.706000  -26.962800  -121.082000
  H     37.309400  -27.192400  -121.943000
  H     35.661900  -27.416600  -121.185000
  C     36.440500  -25.484100  -121.065000
  H     36.354100  -24.919200  -122.004000
  H     35.528200  -25.206200  -120.487000
  H     37.292300  -25.032100  -120.563000
  S     43.158500  -27.877000  -122.183000
  C     44.070400  -29.282600  -122.693000
  C     43.534500  -30.467900  -122.312000
  C     42.347600  -30.290800  -121.625000
  C     42.084600  -28.930700  -121.321000
  H     44.017400  -31.314600  -122.702000
  C     41.485600  -31.431300  -121.285000
  H     41.504400  -31.967600  -122.252000
  H     40.379100  -31.182100  -121.379000
  C     41.913300  -32.335900  -120.199000
  H     41.746200  -31.784700  -119.288000
  H     42.972400  -32.605700  -120.404000
  C     41.142900  -33.656200  -119.945000
  H     41.440100  -34.405800  -120.704000
  H     40.115000  -33.517900  -119.871000
  H     41.537400  -34.202600  -118.996000
  H     39.302300  -26.028000  -118.428000
  H     44.996100  -29.249100  -123.283000

 Total Charge           Charge          ....    0
 Multiplicity           Mult            ....    1
 Number of Electrons    NEL             ....  134
 Basis Dimension        Dim             ....  322

ORBITAL ENERGIES
----------------

  NO   OCC          E(Eh)            E(eV)
   0   2.0000     -88.967208     -2420.9208
   1   2.0000     -88.963902     -2420.8308
   2   2.0000     -10.332847      -281.1711
   3   2.0000     -10.324386      -280.9408
   4   2.0000     -10.312774      -280.6248
   5   2.0000     -10.312307      -280.6121
   6   2.0000     -10.301007      -280.3047
   7   2.0000     -10.299908      -280.2747
   8   2.0000     -10.299883      -280.2741
   9   2.0000     -10.289261      -279.9850
  10   2.0000     -10.288424      -279.9622
  11   2.0000     -10.284683      -279.8605
  12   2.0000     -10.283941      -279.8403
  13   2.0000     -10.283929      -279.8399
  14   2.0000     -10.282685      -279.8061
  15   2.0000     -10.275705      -279.6162
  16   2.0000      -8.082190      -219.9276
  17   2.0000      -8.078819      -219.8359
  18   2.0000      -6.040506      -164.3705
  19   2.0000      -6.037296      -164.2832
  20   2.0000      -6.036751      -164.2684
  21   2.0000      -6.033496      -164.1798
  22   2.0000      -6.033060      -164.1679
  23   2.0000      -6.029406      -164.0685
  24   2.0000      -1.009733       -27.4762
  25   2.0000      -0.987394       -26.8684
  26   2.0000      -0.924229       -25.1495
  27   2.0000      -0.916265       -24.9328
  28   2.0000      -0.874190       -23.7879
  29   2.0000      -0.854164       -23.2430
  30   2.0000      -0.848250       -23.0821
  31   2.0000      -0.817309       -22.2401
  32   2.0000      -0.785465       -21.3736
  33   2.0000      -0.770960       -20.9789
  34   2.0000      -0.710554       -19.3351
  35   2.0000      -0.694253       -18.8916
  36   2.0000      -0.689026       -18.7494
  37   2.0000      -0.662463       -18.0265
  38   2.0000      -0.637803       -17.3555
  39   2.0000      -0.626163       -17.0388
  40   2.0000      -0.598237       -16.2789
  41   2.0000      -0.576486       -15.6870
  42   2.0000      -0.568745       -15.4763
  43   2.0000      -0.554620       -15.0920
  44   2.0000      -0.543537       -14.7904
  45   2.0000      -0.529052       -14.3962
  46   2.0000      -0.518514       -14.1095
  47   2.0000      -0.509152       -13.8547
  48   2.0000      -0.500481       -13.6188
  49   2.0000      -0.495012       -13.4700
  50   2.0000      -0.494263       -13.4496
  51   2.0000      -0.485813       -13.2196
  52   2.0000      -0.467905       -12.7323
  53   2.0000      -0.466708       -12.6998
  54   2.0000      -0.457424       -12.4471
  55   2.0000      -0.453842       -12.3497
  56   2.0000      -0.447093       -12.1660
  57   2.0000      -0.442465       -12.0401
  58   2.0000      -0.431089       -11.7305
  59   2.0000      -0.422836       -11.5060
  60   2.0000      -0.418607       -11.3909
  61   2.0000      -0.400874       -10.9083
  62   2.0000      -0.400474       -10.8975
  63   2.0000      -0.352657        -9.5963
  64   2.0000      -0.334328        -9.0975
  65   2.0000      -0.326795        -8.8925
  66   2.0000      -0.285349        -7.7647
  67   0.0000       0.029057         0.7907
  68   0.0000       0.067614         1.8399
  69   0.0000       0.107495         2.9251
  70   0.0000       0.119331         3.2472
  71   0.0000       0.127413         3.4671

MULLIKEN ATOMIC CHARGES
-----------------------
   0 S :    0.100111
   1 C :   -0.130977
   2 C :   -0.115428
   3 C :    0.019556
   4 C :   -0.137137
   5 H :    0.030827
   6 C :    0.057252
   7 H :    0.026508
   8 H :    0.024140
   9 C :   -0.046151
  10 H :    0.025144
  11 H :    0.036071
  12 C :   -0.057834
  13 H :    0.037954
  14 H :    0.032289
  15 H :    0.016613
  16 S :    0.115083
  17 C :   -0.104028
  18 C :   -0.021515
  19 C :   -0.012328
  20 C :   -0.153929
  21 H :    0.001038
  22 C :    0.048337
  23 H :    0.010173
  24 H :    0.013707
  25 C :   -0.048321
  26 H :    0.035610
  27 H :    0.033651
  28 C :   -0.059820
  29 H :    0.029256
  30 H :    0.031021
  31 H :    0.042836
  32 H :    0.065401
  33 H :    0.054888
Sum of atomic charges:   -0.0000000

LOEWDIN ATOMIC CHARGES
----------------------
   0 S :    0.392161
   1 C :   -0.207010
   2 C :   -0.065823
   3 C :   -0.063418
   4 C :   -0.179953
   5 H :    0.034868
   6 C :   -0.041049
   7 H :    0.035926
   8 H :    0.036017
   9 C :   -0.050235
  10 H :    0.026106
  11 H :    0.033933
  12 C :   -0.072247
  13 H :    0.029792
  14 H :    0.027287
  15 H :    0.021560
  16 S :    0.414433
  17 C :   -0.183839
  18 C :   -0.067624
  19 C :   -0.054947
  20 C :   -0.205132
  21 H :    0.029968
  22 C :   -0.051554
  23 H :    0.034282
  24 H :    0.033721
  25 C :   -0.041826
  26 H :    0.028331
  27 H :    0.031279
  28 C :   -0.066043
  29 H :    0.024594
  30 H :    0.013638
  31 H :    0.039127
  32 H :    0.033048
  33 H :    0.030626

  Mayer bond orders larger than 0.100000
B(  0-S ,  1-C ) :   1.1279 B(  0-S ,  4-C ) :   1.1460 B(  1-C ,  2-C ) :   1.6285
B(  1-C , 32-H ) :   0.9624 B(  2-C ,  3-C ) :   1.2217 B(  2-C ,  6-C ) :   1.0223
B(  3-C ,  4-C ) :   1.5768 B(  3-C ,  5-H ) :   0.9831 B(  4-C , 20-C ) :   1.0564
B(  6-C ,  7-H ) :   0.9439 B(  6-C ,  8-H ) :   0.9310 B(  6-C ,  9-C ) :   1.0698
B(  9-C , 10-H ) :   0.9508 B(  9-C , 11-H ) :   0.9528 B(  9-C , 12-C ) :   1.0796
B( 12-C , 13-H ) :   0.9746 B( 12-C , 14-H ) :   0.9751 B( 12-C , 15-H ) :   0.9735
B( 16-S , 17-C ) :   1.1537 B( 16-S , 20-C ) :   1.1569 B( 17-C , 18-C ) :   1.6216
B( 17-C , 20-C ) :   0.1025 B( 17-C , 33-H ) :   0.9602 B( 18-C , 19-C ) :   1.2476
B( 18-C , 21-H ) :   0.9996 B( 19-C , 20-C ) :   1.5559 B( 19-C , 22-C ) :   1.0462
B( 22-C , 23-H ) :   0.9188 B( 22-C , 24-H ) :   0.9222 B( 22-C , 25-C ) :   1.0657
B( 25-C , 26-H ) :   0.9536 B( 25-C , 27-H ) :   0.9525 B( 25-C , 28-C ) :   1.0842
B( 28-C , 29-H ) :   0.9751 B( 28-C , 30-H ) :   0.9759 B( 28-C , 31-H ) :   0.9742

Dispersion correction           -0.013761378
FINAL SINGLE POINT ENERGY     -1339.857566648793

DIPOLE MOMENT
-------------
                                X             Y             Z
Electronic contribution:     20.05658      13.16347      -1.61842
Nuclear contribution   :    -20.43908     -13.57808       1.39182
                        -----------------------------------------
Total Dipole Moment    :     -0.38249      -0.41461      -0.22660
                        -----------------------------------------
Magnitude (a.u.)       :      0.60791
Magnitude (Debye)      :      1.54518

Rotational constants in cm-1:     0.018554     0.008195     0.006619
Rotational constants in MHz :   556.226959   245.673740   198.429351

                             ****ORCA TERMINATED NORMALLY****
TOTAL RUN TIME: 0 days 0 hours 0 minutes 21 seconds 302 msec
