                         Program Version 4.2.1 -  RELEASE  -
|  1> ! wB97X-D3 SP def2-SVP
|  2> %pal
|  3> nprocs 24
|  4> end
|  5>
|  6> * xyz 0 1
|  7> S 	 -55.0434 	 10.2658 	 22.1071
|  8> C 	 -55.133 	 10.8035 	 20.4144
|  9> C 	 -56.3871 	 10.5426 	 19.9004
| 10> C 	 -57.2395 	 9.98779 	 20.9138
| 11> C 	 -56.7547 	 9.9724 	 22.1898
| 12> H 	 -58.2834 	 9.66094 	 20.8601
| 13> C 	 -56.7872 	 10.8598 	 18.4169
| 14> H 	 -57.7922 	 10.4523 	 18.3364
| 15> H 	 -56.2587 	 10.2699 	 17.744
| 16> C 	 -56.6645 	 12.2606 	 17.9212
| 17> H 	 -57.3032 	 12.8898 	 18.5227
| 18> H 	 -55.6457 	 12.5929 	 18.0714
| 19> C 	 -56.8907 	 12.5015 	 16.4484
| 20> H 	 -58.003 	 12.4383 	 16.3581
| 21> H 	 -56.5373 	 13.5508 	 16.0638
| 22> H 	 -56.3292 	 11.7594 	 15.8288
| 23> S 	 -58.3721 	 10.6852 	 24.1944
| 24> C 	 -58.9349 	 9.42609 	 25.3112
| 25> C 	 -58.1904 	 8.2975 	 25.2118
| 26> C 	 -57.2731 	 8.314 	 24.1342
| 27> C 	 -57.3256 	 9.50384 	 23.428
| 28> H 	 -58.2804 	 7.66825 	 25.9959
| 29> C 	 -56.24 	 7.27388 	 23.7955
| 30> H 	 -56.2727 	 6.65051 	 24.6926
| 31> H 	 -55.2806 	 7.8888 	 23.7958
| 32> C 	 -56.3577 	 6.55136 	 22.4958
| 33> H 	 -55.6761 	 5.71485 	 22.3749
| 34> H 	 -56.1168 	 7.1941 	 21.6646
| 35> C 	 -57.7777 	 5.96854 	 22.3888
| 36> H 	 -58.5365 	 6.73379 	 22.0736
| 37> H 	 -58.1086 	 5.53508 	 23.3232
| 38> H 	 -57.8976 	 5.15111 	 21.7188
| 39> H 	 -54.3006 	 11.0984 	 19.8047
| 40> H 	 -59.609 	 9.64913 	 26.1913
| 41> *
| 42>
| 43>                          ****END OF INPUT****

CARTESIAN COORDINATES (ANGSTROEM)
---------------------------------
  S    -55.043400   10.265800   22.107100
  C    -55.133000   10.803500   20.414400
  C    -56.387100   10.542600   19.900400
  C    -57.239500    9.987790   20.913800
  C    -56.754700    9.972400   22.189800
  H    -58.283400    9.660940   20.860100
  C    -56.787200   10.859800   18.416900
  H    -57.792200   10.452300   18.336400
  H    -56.258700   10.269900   17.744000
  C    -56.664500   12.260600   17.921200
  H    -57.303200   12.889800   18.522700
  H    -55.645700   12.592900   18.071400
  C    -56.890700   12.501500   16.448400
  H    -58.003000   12.438300   16.358100
  H    -56.537300   13.550800   16.063800
  H    -56.329200   11.759400   15.828800
  S    -58.372100   10.685200   24.194400
  C    -58.934900    9.426090   25.311200
  C    -58.190400    8.297500   25.211800
  C    -57.273100    8.314000   24.134200
  C    -57.325600    9.503840   23.428000
  H    -58.280400    7.668250   25.995900
  C    -56.240000    7.273880   23.795500
  H    -56.272700    6.650510   24.692600
  H    -55.280600    7.888800   23.795800
  C    -56.357700    6.551360   22.495800
  H    -55.676100    5.714850   22.374900
  H    -56.116800    7.194100   21.664600
  C    -57.777700    5.968540   22.388800
  H    -58.536500    6.733790   22.073600
  H    -58.108600    5.535080   23.323200
  H    -57.897600    5.151110   21.718800
  H    -54.300600   11.098400   19.804700
  H    -59.609000    9.649130   26.191300

 Total Charge           Charge          ....    0
 Multiplicity           Mult            ....    1
 Number of Electrons    NEL             ....  134
 Basis Dimension        Dim             ....  322

ORBITAL ENERGIES
----------------

  NO   OCC          E(Eh)            E(eV)
   0   2.0000     -88.963295     -2420.8143
   1   2.0000     -88.963017     -2420.8068
   2   2.0000     -10.325285      -280.9653
   3   2.0000     -10.321319      -280.8574
   4   2.0000     -10.319670      -280.8125
   5   2.0000     -10.316469      -280.7254
   6   2.0000     -10.308393      -280.5056
   7   2.0000     -10.302726      -280.3514
   8   2.0000     -10.296585      -280.1843
   9   2.0000     -10.293090      -280.0892
  10   2.0000     -10.291179      -280.0372
  11   2.0000     -10.289780      -279.9992
  12   2.0000     -10.285826      -279.8916
  13   2.0000     -10.280957      -279.7591
  14   2.0000     -10.280016      -279.7335
  15   2.0000     -10.270308      -279.4693
  16   2.0000      -8.077854      -219.8096
  17   2.0000      -8.077466      -219.7990
  18   2.0000      -6.036242      -164.2545
  19   2.0000      -6.035991      -164.2477
  20   2.0000      -6.032476      -164.1520
  21   2.0000      -6.032007      -164.1393
  22   2.0000      -6.028655      -164.0481
  23   2.0000      -6.028233      -164.0366
  24   2.0000      -1.009874       -27.4801
  25   2.0000      -0.985298       -26.8113
  26   2.0000      -0.918156       -24.9843
  27   2.0000      -0.912990       -24.8437
  28   2.0000      -0.876307       -23.8455
  29   2.0000      -0.848074       -23.0773
  30   2.0000      -0.841411       -22.8959
  31   2.0000      -0.819533       -22.3006
  32   2.0000      -0.784165       -21.3382
  33   2.0000      -0.771257       -20.9870
  34   2.0000      -0.713477       -19.4147
  35   2.0000      -0.698046       -18.9948
  36   2.0000      -0.690494       -18.7893
  37   2.0000      -0.665453       -18.1079
  38   2.0000      -0.648383       -17.6434
  39   2.0000      -0.614332       -16.7168
  40   2.0000      -0.583691       -15.8830
  41   2.0000      -0.574874       -15.6431
  42   2.0000      -0.572806       -15.5868
  43   2.0000      -0.556688       -15.1483
  44   2.0000      -0.551398       -15.0043
  45   2.0000      -0.520840       -14.1728
  46   2.0000      -0.516265       -14.0483
  47   2.0000      -0.514133       -13.9903
  48   2.0000      -0.511733       -13.9250
  49   2.0000      -0.495359       -13.4794
  50   2.0000      -0.484904       -13.1949
  51   2.0000      -0.478357       -13.0168
  52   2.0000      -0.473733       -12.8909
  53   2.0000      -0.461007       -12.5446
  54   2.0000      -0.457709       -12.4549
  55   2.0000      -0.448537       -12.2053
  56   2.0000      -0.439695       -11.9647
  57   2.0000      -0.438073       -11.9206
  58   2.0000      -0.430924       -11.7260
  59   2.0000      -0.429699       -11.6927
  60   2.0000      -0.421088       -11.4584
  61   2.0000      -0.408220       -11.1082
  62   2.0000      -0.406025       -11.0485
  63   2.0000      -0.335855        -9.1391
  64   2.0000      -0.330585        -8.9957
  65   2.0000      -0.326729        -8.8908
  66   2.0000      -0.306033        -8.3276
  67   0.0000       0.036889         1.0038
  68   0.0000       0.053792         1.4638
  69   0.0000       0.106717         2.9039
  70   0.0000       0.109189         2.9712
  71   0.0000       0.131328         3.5736

MULLIKEN ATOMIC CHARGES
-----------------------
   0 S :    0.089818
   1 C :   -0.114387
   2 C :   -0.083183
   3 C :    0.041650
   4 C :   -0.178145
   5 H :    0.014456
   6 C :    0.130236
   7 H :    0.007987
   8 H :    0.002174
   9 C :   -0.061106
  10 H :    0.029108
  11 H :    0.016165
  12 C :   -0.096360
  13 H :    0.042357
  14 H :    0.054129
  15 H :    0.039245
  16 S :    0.107726
  17 C :   -0.112305
  18 C :   -0.005432
  19 C :   -0.006766
  20 C :   -0.200037
  21 H :   -0.023478
  22 C :    0.054218
  23 H :    0.017918
  24 H :    0.045112
  25 C :   -0.013372
  26 H :    0.026736
  27 H :    0.036107
  28 C :   -0.058134
  29 H :    0.042802
  30 H :    0.015379
  31 H :    0.017340
  32 H :    0.047182
  33 H :    0.074862
Sum of atomic charges:    0.0000000

LOEWDIN ATOMIC CHARGES
----------------------
   0 S :    0.397472
   1 C :   -0.179325
   2 C :   -0.060490
   3 C :   -0.064653
   4 C :   -0.205803
   5 H :    0.034541
   6 C :   -0.024179
   7 H :    0.028429
   8 H :    0.020180
   9 C :   -0.047079
  10 H :    0.024259
  11 H :    0.020462
  12 C :   -0.072987
  13 H :    0.029176
  14 H :    0.039379
  15 H :    0.026746
  16 S :    0.399515
  17 C :   -0.178061
  18 C :   -0.066028
  19 C :   -0.049646
  20 C :   -0.203171
  21 H :    0.016473
  22 C :   -0.035711
  23 H :    0.029218
  24 H :    0.036713
  25 C :   -0.039253
  26 H :    0.027312
  27 H :    0.026184
  28 C :   -0.066811
  29 H :    0.031499
  30 H :    0.021070
  31 H :    0.017463
  32 H :    0.026478
  33 H :    0.040628

  Mayer bond orders larger than 0.100000
B(  0-S ,  1-C ) :   1.1420 B(  0-S ,  4-C ) :   1.1378 B(  1-C ,  2-C ) :   1.6126
B(  1-C ,  4-C ) :   0.1018 B(  1-C , 32-H ) :   0.9730 B(  2-C ,  3-C ) :   1.2267
B(  2-C ,  6-C ) :   1.0067 B(  3-C ,  4-C ) :   1.6234 B(  3-C ,  5-H ) :   0.9902
B(  4-C , 20-C ) :   0.9999 B(  6-C ,  7-H ) :   0.9379 B(  6-C ,  8-H ) :   0.9287
B(  6-C ,  9-C ) :   1.0716 B(  9-C , 10-H ) :   0.9556 B(  9-C , 11-H ) :   0.9503
B(  9-C , 12-C ) :   1.0791 B( 12-C , 13-H ) :   0.9780 B( 12-C , 14-H ) :   0.9737
B( 12-C , 15-H ) :   0.9708 B( 16-S , 17-C ) :   1.1508 B( 16-S , 20-C ) :   1.1535
B( 17-C , 18-C ) :   1.6272 B( 17-C , 20-C ) :   0.1048 B( 17-C , 33-H ) :   0.9555
B( 18-C , 19-C ) :   1.2206 B( 18-C , 21-H ) :   1.0046 B( 19-C , 20-C ) :   1.5955
B( 19-C , 22-C ) :   1.0140 B( 22-C , 23-H ) :   0.9324 B( 22-C , 24-H ) :   0.9377
B( 22-C , 25-C ) :   1.0784 B( 25-C , 26-H ) :   0.9534 B( 25-C , 27-H ) :   0.9496
B( 25-C , 28-C ) :   1.0727 B( 28-C , 29-H ) :   0.9687 B( 28-C , 30-H ) :   0.9768
B( 28-C , 31-H ) :   0.9748

Dispersion correction           -0.015211324
FINAL SINGLE POINT ENERGY     -1339.858155399082

DIPOLE MOMENT
-------------
                                X             Y             Z
Electronic contribution:      1.48813       6.92549      20.34294
Nuclear contribution   :     -1.51330      -7.23570     -20.61916
                        -----------------------------------------
Total Dipole Moment    :     -0.02518      -0.31021      -0.27622
                        -----------------------------------------
Magnitude (a.u.)       :      0.41612
Magnitude (Debye)      :      1.05770

Rotational constants in cm-1:     0.023121     0.007540     0.006833
Rotational constants in MHz :   693.150884   226.057068   204.863119

                             ****ORCA TERMINATED NORMALLY****
TOTAL RUN TIME: 0 days 0 hours 0 minutes 21 seconds 978 msec
