                         Program Version 4.2.1 -  RELEASE  -
|  1> ! wB97X-D3 SP def2-SVP
|  2> %pal
|  3> nprocs 24
|  4> end
|  5>
|  6> * xyz 0 1
|  7> S 	 -61.9975 	 18.3446 	 21.0846
|  8> C 	 -62.5793 	 17.8429 	 22.6736
|  9> C 	 -62.1789 	 18.669 	 23.6425
| 10> C 	 -61.2521 	 19.63 	 23.1881
| 11> C 	 -61.1612 	 19.7636 	 21.7919
| 12> H 	 -60.7143 	 20.2844 	 23.8589
| 13> C 	 -62.642 	 18.5762 	 25.0856
| 14> H 	 -63.6678 	 18.197 	 25.031
| 15> H 	 -62.6028 	 19.5837 	 25.4944
| 16> C 	 -61.9079 	 17.6023 	 25.9209
| 17> H 	 -62.0206 	 16.6156 	 25.5225
| 18> H 	 -60.9108 	 17.8941 	 25.9922
| 19> C 	 -62.4445 	 17.6456 	 27.3411
| 20> H 	 -61.8648 	 16.9705 	 27.9846
| 21> H 	 -62.4826 	 18.6449 	 27.7878
| 22> H 	 -63.4787 	 17.2454 	 27.4084
| 23> S 	 -61.3291 	 21.2676 	 19.5345
| 24> C 	 -59.9924 	 22.2808 	 19.0889
| 25> C 	 -58.9645 	 22.2276 	 20.0061
| 26> C 	 -59.2738 	 21.4036 	 21.0915
| 27> C 	 -60.516 	 20.7121 	 20.9534
| 28> H 	 -58.06 	 22.8405 	 19.9041
| 29> C 	 -58.1764 	 21.2226 	 22.1547
| 30> H 	 -58.5154 	 20.6899 	 23.0308
| 31> H 	 -58.0608 	 22.2126 	 22.5303
| 32> C 	 -56.7797 	 20.7985 	 21.4929
| 33> H 	 -56.601 	 21.4531 	 20.6534
| 34> H 	 -56.9184 	 19.8047 	 21.0748
| 35> C 	 -55.6208 	 20.8484 	 22.4848
| 36> H 	 -55.5098 	 21.8809 	 22.8596
| 37> H 	 -54.667 	 20.5681 	 21.9752
| 38> H 	 -55.663 	 20.2218 	 23.3604
| 39> H 	 -63.199 	 16.9669 	 22.806
| 40> H 	 -59.9184 	 22.9006 	 18.2345
| 41> *
| 42>
| 43>                          ****END OF INPUT****

CARTESIAN COORDINATES (ANGSTROEM)
---------------------------------
  S    -61.997500   18.344600   21.084600
  C    -62.579300   17.842900   22.673600
  C    -62.178900   18.669000   23.642500
  C    -61.252100   19.630000   23.188100
  C    -61.161200   19.763600   21.791900
  H    -60.714300   20.284400   23.858900
  C    -62.642000   18.576200   25.085600
  H    -63.667800   18.197000   25.031000
  H    -62.602800   19.583700   25.494400
  C    -61.907900   17.602300   25.920900
  H    -62.020600   16.615600   25.522500
  H    -60.910800   17.894100   25.992200
  C    -62.444500   17.645600   27.341100
  H    -61.864800   16.970500   27.984600
  H    -62.482600   18.644900   27.787800
  H    -63.478700   17.245400   27.408400
  S    -61.329100   21.267600   19.534500
  C    -59.992400   22.280800   19.088900
  C    -58.964500   22.227600   20.006100
  C    -59.273800   21.403600   21.091500
  C    -60.516000   20.712100   20.953400
  H    -58.060000   22.840500   19.904100
  C    -58.176400   21.222600   22.154700
  H    -58.515400   20.689900   23.030800
  H    -58.060800   22.212600   22.530300
  C    -56.779700   20.798500   21.492900
  H    -56.601000   21.453100   20.653400
  H    -56.918400   19.804700   21.074800
  C    -55.620800   20.848400   22.484800
  H    -55.509800   21.880900   22.859600
  H    -54.667000   20.568100   21.975200
  H    -55.663000   20.221800   23.360400
  H    -63.199000   16.966900   22.806000
  H    -59.918400   22.900600   18.234500

 Total Charge           Charge          ....    0
 Multiplicity           Mult            ....    1
 Number of Electrons    NEL             ....  134
 Basis Dimension        Dim             ....  322

ORBITAL ENERGIES
----------------

  NO   OCC          E(Eh)            E(eV)
   0   2.0000     -88.969380     -2420.9799
   1   2.0000     -88.960883     -2420.7487
   2   2.0000     -10.332736      -281.1680
   3   2.0000     -10.326510      -280.9986
   4   2.0000     -10.313421      -280.6425
   5   2.0000     -10.307287      -280.4755
   6   2.0000     -10.303893      -280.3832
   7   2.0000     -10.293509      -280.1006
   8   2.0000     -10.291891      -280.0566
   9   2.0000     -10.291456      -280.0448
  10   2.0000     -10.291342      -280.0416
  11   2.0000     -10.291126      -280.0358
  12   2.0000     -10.287159      -279.9278
  13   2.0000     -10.281660      -279.7782
  14   2.0000     -10.279159      -279.7101
  15   2.0000     -10.275629      -279.6141
  16   2.0000      -8.084404      -219.9878
  17   2.0000      -8.075067      -219.7337
  18   2.0000      -6.042789      -164.4326
  19   2.0000      -6.038797      -164.3240
  20   2.0000      -6.035342      -164.2300
  21   2.0000      -6.033678      -164.1847
  22   2.0000      -6.029708      -164.0767
  23   2.0000      -6.025689      -163.9673
  24   2.0000      -1.008090       -27.4315
  25   2.0000      -0.986002       -26.8305
  26   2.0000      -0.922975       -25.1154
  27   2.0000      -0.904528       -24.6135
  28   2.0000      -0.876291       -23.8451
  29   2.0000      -0.851536       -23.1715
  30   2.0000      -0.843881       -22.9632
  31   2.0000      -0.813828       -22.1454
  32   2.0000      -0.781887       -21.2762
  33   2.0000      -0.769084       -20.9279
  34   2.0000      -0.711403       -19.3583
  35   2.0000      -0.704330       -19.1658
  36   2.0000      -0.701394       -19.0859
  37   2.0000      -0.661481       -17.9998
  38   2.0000      -0.637994       -17.3607
  39   2.0000      -0.624212       -16.9857
  40   2.0000      -0.596394       -16.2287
  41   2.0000      -0.582892       -15.8613
  42   2.0000      -0.566126       -15.4051
  43   2.0000      -0.558015       -15.1844
  44   2.0000      -0.528300       -14.3758
  45   2.0000      -0.524760       -14.2794
  46   2.0000      -0.517359       -14.0781
  47   2.0000      -0.508536       -13.8380
  48   2.0000      -0.505184       -13.7468
  49   2.0000      -0.503508       -13.7012
  50   2.0000      -0.489744       -13.3266
  51   2.0000      -0.479752       -13.0547
  52   2.0000      -0.472655       -12.8616
  53   2.0000      -0.466792       -12.7021
  54   2.0000      -0.461471       -12.5573
  55   2.0000      -0.453166       -12.3313
  56   2.0000      -0.444408       -12.0930
  57   2.0000      -0.437355       -11.9010
  58   2.0000      -0.436064       -11.8659
  59   2.0000      -0.427168       -11.6238
  60   2.0000      -0.425349       -11.5743
  61   2.0000      -0.417496       -11.3606
  62   2.0000      -0.413838       -11.2611
  63   2.0000      -0.354332        -9.6419
  64   2.0000      -0.332751        -9.0546
  65   2.0000      -0.328472        -8.9382
  66   2.0000      -0.280245        -7.6259
  67   0.0000       0.023491         0.6392
  68   0.0000       0.074946         2.0394
  69   0.0000       0.115390         3.1399
  70   0.0000       0.125273         3.4088
  71   0.0000       0.129596         3.5265

MULLIKEN ATOMIC CHARGES
-----------------------
   0 S :    0.086486
   1 C :   -0.130275
   2 C :   -0.067260
   3 C :    0.025500
   4 C :   -0.146585
   5 H :    0.002966
   6 C :    0.056368
   7 H :    0.019856
   8 H :    0.022130
   9 C :   -0.009049
  10 H :    0.022445
  11 H :    0.009583
  12 C :   -0.059066
  13 H :    0.032562
  14 H :    0.031053
  15 H :    0.024807
  16 S :    0.127380
  17 C :   -0.069820
  18 C :   -0.067210
  19 C :   -0.038833
  20 C :   -0.150449
  21 H :    0.032925
  22 C :    0.093668
  23 H :    0.010181
  24 H :    0.012623
  25 C :   -0.072976
  26 H :    0.027149
  27 H :    0.041598
  28 C :   -0.048961
  29 H :    0.027036
  30 H :    0.038307
  31 H :    0.033005
  32 H :    0.042674
  33 H :    0.040182
Sum of atomic charges:   -0.0000000

LOEWDIN ATOMIC CHARGES
----------------------
   0 S :    0.373596
   1 C :   -0.186985
   2 C :   -0.069549
   3 C :   -0.063331
   4 C :   -0.174129
   5 H :    0.024311
   6 C :   -0.025088
   7 H :    0.033040
   8 H :    0.029633
   9 C :   -0.033074
  10 H :    0.024515
  11 H :    0.016720
  12 C :   -0.066222
  13 H :    0.025665
  14 H :    0.024569
  15 H :    0.024980
  16 S :    0.434967
  17 C :   -0.185362
  18 C :   -0.075026
  19 C :   -0.051304
  20 C :   -0.219409
  21 H :    0.036916
  22 C :   -0.027687
  23 H :    0.023566
  24 H :    0.026629
  25 C :   -0.030788
  26 H :    0.022035
  27 H :    0.027334
  28 C :   -0.070398
  29 H :    0.025980
  30 H :    0.032034
  31 H :    0.022827
  32 H :    0.026240
  33 H :    0.022795

  Mayer bond orders larger than 0.100000
B(  0-S ,  1-C ) :   1.1173 B(  0-S ,  4-C ) :   1.1375 B(  1-C ,  2-C ) :   1.6385
B(  1-C ,  4-C ) :   0.1024 B(  1-C , 32-H ) :   0.9675 B(  2-C ,  3-C ) :   1.2515
B(  2-C ,  6-C ) :   1.0110 B(  3-C ,  4-C ) :   1.5595 B(  3-C ,  5-H ) :   0.9876
B(  4-C , 20-C ) :   1.0957 B(  6-C ,  7-H ) :   0.9369 B(  6-C ,  8-H ) :   0.9389
B(  6-C ,  9-C ) :   1.0912 B(  9-C , 10-H ) :   0.9497 B(  9-C , 11-H ) :   0.9478
B(  9-C , 12-C ) :   1.0921 B( 12-C , 13-H ) :   0.9735 B( 12-C , 14-H ) :   0.9728
B( 12-C , 15-H ) :   0.9721 B( 16-S , 17-C ) :   1.1692 B( 16-S , 20-C ) :   1.1527
B( 17-C , 18-C ) :   1.5756 B( 17-C , 20-C ) :   0.1063 B( 17-C , 33-H ) :   0.9703
B( 18-C , 19-C ) :   1.2882 B( 18-C , 21-H ) :   0.9833 B( 19-C , 20-C ) :   1.5257
B( 19-C , 22-C ) :   1.0392 B( 22-C , 23-H ) :   0.9411 B( 22-C , 24-H ) :   0.9261
B( 22-C , 25-C ) :   1.0481 B( 25-C , 26-H ) :   0.9537 B( 25-C , 27-H ) :   0.9586
B( 25-C , 28-C ) :   1.0828 B( 28-C , 29-H ) :   0.9739 B( 28-C , 30-H ) :   0.9729
B( 28-C , 31-H ) :   0.9769

Dispersion correction           -0.013156543
FINAL SINGLE POINT ENERGY     -1339.881838512821

DIPOLE MOMENT
-------------
                                X             Y             Z
Electronic contribution:    -14.14036       3.06085     -25.33630
Nuclear contribution   :     14.55866      -2.90039      25.87090
                        -----------------------------------------
Total Dipole Moment    :      0.41831       0.16046       0.53459
                        -----------------------------------------
Magnitude (a.u.)       :      0.69751
Magnitude (Debye)      :      1.77293

Rotational constants in cm-1:     0.018078     0.007822     0.005955
Rotational constants in MHz :   541.964787   234.512254   178.531067

                             ****ORCA TERMINATED NORMALLY****
TOTAL RUN TIME: 0 days 0 hours 0 minutes 20 seconds 852 msec
