                         Program Version 4.2.1 -  RELEASE  -
|  1> ! wB97X-D3 SP def2-SVP
|  2> %pal
|  3> nprocs 24
|  4> end
|  5>
|  6> * xyz 0 1
|  7> S 	 -123.951 	 34.6353 	 -107.95
|  8> C 	 -123.842 	 33.3026 	 -109.11
|  9> C 	 -124.961 	 33.4067 	 -110.034
| 10> C 	 -125.872 	 34.5015 	 -109.668
| 11> C 	 -125.546 	 35.2228 	 -108.539
| 12> H 	 -126.717 	 34.737 	 -110.228
| 13> C 	 -125.132 	 32.6135 	 -111.308
| 14> H 	 -125.998 	 31.9209 	 -111.401
| 15> H 	 -124.267 	 31.9456 	 -111.366
| 16> C 	 -125.038 	 33.4725 	 -112.65
| 17> H 	 -125.915 	 34.1578 	 -112.69
| 18> H 	 -124.116 	 34.0693 	 -112.679
| 19> C 	 -125.136 	 32.6081 	 -113.865
| 20> H 	 -126.056 	 32.0202 	 -113.858
| 21> H 	 -125.312 	 33.323 	 -114.758
| 22> H 	 -124.2 	 32.0942 	 -113.994
| 23> S 	 -126.624 	 35.9214 	 -106.17
| 24> C 	 -127.289 	 37.4394 	 -105.897
| 25> C 	 -127.212 	 38.2653 	 -107.021
| 26> C 	 -126.731 	 37.5275 	 -108.145
| 27> C 	 -126.257 	 36.2775 	 -107.837
| 28> H 	 -127.547 	 39.3244 	 -107.034
| 29> C 	 -126.605 	 38.1733 	 -109.476
| 30> H 	 -126.621 	 37.4051 	 -110.168
| 31> H 	 -125.616 	 38.6293 	 -109.624
| 32> C 	 -127.612 	 39.3099 	 -109.849
| 33> H 	 -127.38 	 40.3118 	 -109.362
| 34> H 	 -128.614 	 39.1228 	 -109.566
| 35> C 	 -127.647 	 39.5494 	 -111.395
| 36> H 	 -126.729 	 39.7639 	 -111.854
| 37> H 	 -128.379 	 40.3185 	 -111.656
| 38> H 	 -128.114 	 38.687 	 -111.879
| 39> H 	 -123.157 	 32.4899 	 -109.072
| 40> H 	 -127.786 	 37.7471 	 -104.951
| 41> *
| 42>
| 43>                          ****END OF INPUT****

CARTESIAN COORDINATES (ANGSTROEM)
---------------------------------
  S    -123.951000   34.635300  -107.950000
  C    -123.842000   33.302600  -109.110000
  C    -124.961000   33.406700  -110.034000
  C    -125.872000   34.501500  -109.668000
  C    -125.546000   35.222800  -108.539000
  H    -126.717000   34.737000  -110.228000
  C    -125.132000   32.613500  -111.308000
  H    -125.998000   31.920900  -111.401000
  H    -124.267000   31.945600  -111.366000
  C    -125.038000   33.472500  -112.650000
  H    -125.915000   34.157800  -112.690000
  H    -124.116000   34.069300  -112.679000
  C    -125.136000   32.608100  -113.865000
  H    -126.056000   32.020200  -113.858000
  H    -125.312000   33.323000  -114.758000
  H    -124.200000   32.094200  -113.994000
  S    -126.624000   35.921400  -106.170000
  C    -127.289000   37.439400  -105.897000
  C    -127.212000   38.265300  -107.021000
  C    -126.731000   37.527500  -108.145000
  C    -126.257000   36.277500  -107.837000
  H    -127.547000   39.324400  -107.034000
  C    -126.605000   38.173300  -109.476000
  H    -126.621000   37.405100  -110.168000
  H    -125.616000   38.629300  -109.624000
  C    -127.612000   39.309900  -109.849000
  H    -127.380000   40.311800  -109.362000
  H    -128.614000   39.122800  -109.566000
  C    -127.647000   39.549400  -111.395000
  H    -126.729000   39.763900  -111.854000
  H    -128.379000   40.318500  -111.656000
  H    -128.114000   38.687000  -111.879000
  H    -123.157000   32.489900  -109.072000
  H    -127.786000   37.747100  -104.951000

 Total Charge           Charge          ....    0
 Multiplicity           Mult            ....    1
 Number of Electrons    NEL             ....  134
 Basis Dimension        Dim             ....  322

ORBITAL ENERGIES
----------------

  NO   OCC          E(Eh)            E(eV)
   0   2.0000     -88.965032     -2420.8616
   1   2.0000     -88.964527     -2420.8478
   2   2.0000     -10.334560      -281.2177
   3   2.0000     -10.323337      -280.9123
   4   2.0000     -10.322876      -280.8997
   5   2.0000     -10.317507      -280.7537
   6   2.0000     -10.313119      -280.6342
   7   2.0000     -10.302129      -280.3352
   8   2.0000     -10.297591      -280.2117
   9   2.0000     -10.295422      -280.1527
  10   2.0000     -10.293500      -280.1004
  11   2.0000     -10.293370      -280.0968
  12   2.0000     -10.290291      -280.0131
  13   2.0000     -10.285468      -279.8818
  14   2.0000     -10.282365      -279.7974
  15   2.0000     -10.276398      -279.6350
  16   2.0000      -8.080757      -219.8886
  17   2.0000      -8.078442      -219.8256
  18   2.0000      -6.039027      -164.3303
  19   2.0000      -6.037120      -164.2784
  20   2.0000      -6.034882      -164.2175
  21   2.0000      -6.032966      -164.1654
  22   2.0000      -6.031821      -164.1342
  23   2.0000      -6.029247      -164.0642
  24   2.0000      -1.010376       -27.4937
  25   2.0000      -0.974746       -26.5242
  26   2.0000      -0.909616       -24.7519
  27   2.0000      -0.906904       -24.6781
  28   2.0000      -0.869098       -23.6494
  29   2.0000      -0.853748       -23.2317
  30   2.0000      -0.843309       -22.9476
  31   2.0000      -0.814850       -22.1732
  32   2.0000      -0.782562       -21.2946
  33   2.0000      -0.763991       -20.7893
  34   2.0000      -0.711371       -19.3574
  35   2.0000      -0.699215       -19.0266
  36   2.0000      -0.688063       -18.7232
  37   2.0000      -0.656115       -17.8538
  38   2.0000      -0.644906       -17.5488
  39   2.0000      -0.621222       -16.9043
  40   2.0000      -0.601647       -16.3717
  41   2.0000      -0.574869       -15.6430
  42   2.0000      -0.567059       -15.4304
  43   2.0000      -0.560112       -15.2414
  44   2.0000      -0.526798       -14.3349
  45   2.0000      -0.524798       -14.2805
  46   2.0000      -0.512837       -13.9550
  47   2.0000      -0.510917       -13.9028
  48   2.0000      -0.504326       -13.7234
  49   2.0000      -0.501347       -13.6423
  50   2.0000      -0.497089       -13.5265
  51   2.0000      -0.476616       -12.9694
  52   2.0000      -0.467098       -12.7104
  53   2.0000      -0.461697       -12.5634
  54   2.0000      -0.459165       -12.4945
  55   2.0000      -0.451694       -12.2912
  56   2.0000      -0.446952       -12.1622
  57   2.0000      -0.438604       -11.9350
  58   2.0000      -0.431601       -11.7445
  59   2.0000      -0.423096       -11.5130
  60   2.0000      -0.420414       -11.4401
  61   2.0000      -0.418343       -11.3837
  62   2.0000      -0.408624       -11.1192
  63   2.0000      -0.342917        -9.3312
  64   2.0000      -0.330934        -9.0052
  65   2.0000      -0.320886        -8.7318
  66   2.0000      -0.294714        -8.0196
  67   0.0000       0.031459         0.8560
  68   0.0000       0.062599         1.7034
  69   0.0000       0.110235         2.9996
  70   0.0000       0.119797         3.2599
  71   0.0000       0.130264         3.5447

MULLIKEN ATOMIC CHARGES
-----------------------
   0 S :    0.101507
   1 C :   -0.105380
   2 C :   -0.091570
   3 C :    0.073515
   4 C :   -0.160205
   5 H :   -0.009181
   6 C :    0.037439
   7 H :    0.039887
   8 H :    0.009198
   9 C :   -0.105548
  10 H :    0.028889
  11 H :    0.040839
  12 C :   -0.055101
  13 H :    0.034560
  14 H :    0.038912
  15 H :    0.041210
  16 S :    0.130987
  17 C :   -0.098021
  18 C :   -0.057916
  19 C :   -0.032752
  20 C :   -0.166279
  21 H :    0.035998
  22 C :    0.123564
  23 H :   -0.013456
  24 H :    0.042722
  25 C :   -0.108409
  26 H :    0.039645
  27 H :    0.021736
  28 C :   -0.040394
  29 H :    0.029399
  30 H :    0.026981
  31 H :    0.024751
  32 H :    0.050430
  33 H :    0.072045
Sum of atomic charges:    0.0000000

LOEWDIN ATOMIC CHARGES
----------------------
   0 S :    0.381307
   1 C :   -0.192367
   2 C :   -0.055970
   3 C :   -0.055088
   4 C :   -0.182522
   5 H :    0.018983
   6 C :   -0.042927
   7 H :    0.032690
   8 H :    0.027378
   9 C :   -0.041927
  10 H :    0.021066
  11 H :    0.027450
  12 C :   -0.069057
  13 H :    0.025462
  14 H :    0.037362
  15 H :    0.023313
  16 S :    0.451158
  17 C :   -0.208174
  18 C :   -0.081872
  19 C :   -0.050203
  20 C :   -0.215080
  21 H :    0.039170
  22 C :   -0.028768
  23 H :    0.018533
  24 H :    0.043250
  25 C :   -0.037805
  26 H :    0.027945
  27 H :    0.016226
  28 C :   -0.061953
  29 H :    0.015860
  30 H :    0.028060
  31 H :    0.025571
  32 H :    0.024731
  33 H :    0.038195

  Mayer bond orders larger than 0.100000
B(  0-S ,  1-C ) :   1.1422 B(  0-S ,  4-C ) :   1.1336 B(  1-C ,  2-C ) :   1.5809
B(  1-C ,  4-C ) :   0.1023 B(  1-C , 32-H ) :   0.9716 B(  2-C ,  3-C ) :   1.2311
B(  2-C ,  6-C ) :   1.0440 B(  3-C ,  4-C ) :   1.5901 B(  3-C ,  5-H ) :   0.9991
B(  4-C , 20-C ) :   1.0329 B(  6-C ,  7-H ) :   0.9417 B(  6-C ,  8-H ) :   0.9426
B(  6-C ,  9-C ) :   1.0464 B(  9-C , 10-H ) :   0.9567 B(  9-C , 11-H ) :   0.9572
B(  9-C , 12-C ) :   1.0916 B( 12-C , 13-H ) :   0.9709 B( 12-C , 14-H ) :   0.9718
B( 12-C , 15-H ) :   0.9765 B( 16-S , 17-C ) :   1.2032 B( 16-S , 20-C ) :   1.1498
B( 17-C , 18-C ) :   1.5543 B( 17-C , 33-H ) :   0.9616 B( 18-C , 19-C ) :   1.2667
B( 18-C , 21-H ) :   0.9850 B( 19-C , 20-C ) :   1.5759 B( 19-C , 22-C ) :   1.0584
B( 22-C , 23-H ) :   0.9294 B( 22-C , 24-H ) :   0.9183 B( 22-C , 25-C ) :   1.0553
B( 25-C , 26-H ) :   0.9512 B( 25-C , 27-H ) :   0.9629 B( 25-C , 28-C ) :   1.0874
B( 28-C , 29-H ) :   0.9784 B( 28-C , 30-H ) :   0.9732 B( 28-C , 31-H ) :   0.9741

Dispersion correction           -0.013256733
FINAL SINGLE POINT ENERGY     -1339.868827075983

DIPOLE MOMENT
-------------
                                X             Y             Z
Electronic contribution:      6.04185      -4.88840      30.50383
Nuclear contribution   :     -6.33905       5.09128     -31.09024
                        -----------------------------------------
Total Dipole Moment    :     -0.29719       0.20288      -0.58641
                        -----------------------------------------
Magnitude (a.u.)       :      0.68801
Magnitude (Debye)      :      1.74878

Rotational constants in cm-1:     0.016496     0.008544     0.006042
Rotational constants in MHz :   494.551096   256.139862   181.146841

                             ****ORCA TERMINATED NORMALLY****
TOTAL RUN TIME: 0 days 0 hours 0 minutes 20 seconds 497 msec
