                         Program Version 4.2.1 -  RELEASE  -
|  1> ! wB97X-D3 SP def2-SVP
|  2> %pal
|  3> nprocs 24
|  4> end
|  5>
|  6> * xyz 0 1
|  7> S 	 -54.209 	 10.187 	 19.7587
|  8> C 	 -53.7381 	 8.5022 	 19.9606
|  9> C 	 -53.115 	 8.22796 	 21.1531
| 10> C 	 -53.2444 	 9.31735 	 22.0489
| 11> C 	 -53.6722 	 10.4442 	 21.3992
| 12> H 	 -52.9905 	 9.34655 	 23.1015
| 13> C 	 -52.4338 	 6.9037 	 21.5221
| 14> H 	 -53.0712 	 6.34645 	 22.1473
| 15> H 	 -51.6302 	 7.13321 	 22.1637
| 16> C 	 -51.7921 	 6.09472 	 20.3714
| 17> H 	 -52.4364 	 5.82609 	 19.5288
| 18> H 	 -51.019 	 6.69927 	 19.8745
| 19> C 	 -51.126 	 4.74081 	 20.7235
| 20> H 	 -50.6757 	 4.2525 	 19.8461
| 21> H 	 -50.4103 	 4.93733 	 21.5205
| 22> H 	 -51.8842 	 4.01394 	 21.0638
| 23> S 	 -55.2987 	 12.6603 	 21.7943
| 24> C 	 -54.867 	 13.7516 	 23.0866
| 25> C 	 -53.5914 	 13.5778 	 23.5245
| 26> C 	 -52.9821 	 12.3822 	 22.9962
| 27> C 	 -53.7824 	 11.7537 	 22.0578
| 28> H 	 -53.1851 	 14.3734 	 24.2046
| 29> C 	 -51.5313 	 12.0493 	 23.3503
| 30> H 	 -50.9186 	 11.9662 	 22.4452
| 31> H 	 -51.5468 	 10.9974 	 23.715
| 32> C 	 -50.8173 	 13.0052 	 24.3802
| 33> H 	 -51.5297 	 13.2042 	 25.2313
| 34> H 	 -50.5759 	 14.0168 	 23.9009
| 35> C 	 -49.5231 	 12.2567 	 24.7101
| 36> H 	 -48.6386 	 12.3613 	 23.9794
| 37> H 	 -49.7387 	 11.2591 	 24.8826
| 38> H 	 -49.2025 	 12.5138 	 25.6804
| 39> H 	 -53.897 	 7.74515 	 19.2385
| 40> H 	 -55.5192 	 14.6147 	 23.3063
| 41> *
| 42>
| 43>                          ****END OF INPUT****

CARTESIAN COORDINATES (ANGSTROEM)
---------------------------------
  S    -54.209000   10.187000   19.758700
  C    -53.738100    8.502200   19.960600
  C    -53.115000    8.227960   21.153100
  C    -53.244400    9.317350   22.048900
  C    -53.672200   10.444200   21.399200
  H    -52.990500    9.346550   23.101500
  C    -52.433800    6.903700   21.522100
  H    -53.071200    6.346450   22.147300
  H    -51.630200    7.133210   22.163700
  C    -51.792100    6.094720   20.371400
  H    -52.436400    5.826090   19.528800
  H    -51.019000    6.699270   19.874500
  C    -51.126000    4.740810   20.723500
  H    -50.675700    4.252500   19.846100
  H    -50.410300    4.937330   21.520500
  H    -51.884200    4.013940   21.063800
  S    -55.298700   12.660300   21.794300
  C    -54.867000   13.751600   23.086600
  C    -53.591400   13.577800   23.524500
  C    -52.982100   12.382200   22.996200
  C    -53.782400   11.753700   22.057800
  H    -53.185100   14.373400   24.204600
  C    -51.531300   12.049300   23.350300
  H    -50.918600   11.966200   22.445200
  H    -51.546800   10.997400   23.715000
  C    -50.817300   13.005200   24.380200
  H    -51.529700   13.204200   25.231300
  H    -50.575900   14.016800   23.900900
  C    -49.523100   12.256700   24.710100
  H    -48.638600   12.361300   23.979400
  H    -49.738700   11.259100   24.882600
  H    -49.202500   12.513800   25.680400
  H    -53.897000    7.745150   19.238500
  H    -55.519200   14.614700   23.306300

 Total Charge           Charge          ....    0
 Multiplicity           Mult            ....    1
 Number of Electrons    NEL             ....  134
 Basis Dimension        Dim             ....  322

ORBITAL ENERGIES
----------------

  NO   OCC          E(Eh)            E(eV)
   0   2.0000     -88.968148     -2420.9464
   1   2.0000     -88.959777     -2420.7186
   2   2.0000     -10.326071      -280.9867
   3   2.0000     -10.324631      -280.9475
   4   2.0000     -10.314711      -280.6776
   5   2.0000     -10.307111      -280.4707
   6   2.0000     -10.304736      -280.4061
   7   2.0000     -10.302382      -280.3421
   8   2.0000     -10.300542      -280.2920
   9   2.0000     -10.295912      -280.1660
  10   2.0000     -10.295132      -280.1448
  11   2.0000     -10.291312      -280.0408
  12   2.0000     -10.290150      -280.0092
  13   2.0000     -10.290065      -280.0069
  14   2.0000     -10.283038      -279.8157
  15   2.0000     -10.276719      -279.6437
  16   2.0000      -8.082768      -219.9433
  17   2.0000      -8.074595      -219.7209
  18   2.0000      -6.041212      -164.3897
  19   2.0000      -6.037602      -164.2915
  20   2.0000      -6.033317      -164.1749
  21   2.0000      -6.033033      -164.1672
  22   2.0000      -6.029288      -164.0653
  23   2.0000      -6.025244      -163.9552
  24   2.0000      -1.005382       -27.3578
  25   2.0000      -0.982217       -26.7275
  26   2.0000      -0.909170       -24.7398
  27   2.0000      -0.905932       -24.6517
  28   2.0000      -0.865763       -23.5586
  29   2.0000      -0.855862       -23.2892
  30   2.0000      -0.845067       -22.9954
  31   2.0000      -0.812810       -22.1177
  32   2.0000      -0.783952       -21.3324
  33   2.0000      -0.769666       -20.9437
  34   2.0000      -0.708772       -19.2867
  35   2.0000      -0.706299       -19.2194
  36   2.0000      -0.689804       -18.7705
  37   2.0000      -0.651475       -17.7275
  38   2.0000      -0.636092       -17.3089
  39   2.0000      -0.616525       -16.7765
  40   2.0000      -0.597889       -16.2694
  41   2.0000      -0.570865       -15.5340
  42   2.0000      -0.564332       -15.3562
  43   2.0000      -0.559563       -15.2265
  44   2.0000      -0.525140       -14.2898
  45   2.0000      -0.523965       -14.2578
  46   2.0000      -0.516233       -14.0474
  47   2.0000      -0.510032       -13.8787
  48   2.0000      -0.502020       -13.6607
  49   2.0000      -0.489652       -13.3241
  50   2.0000      -0.488500       -13.2928
  51   2.0000      -0.482348       -13.1253
  52   2.0000      -0.475470       -12.9382
  53   2.0000      -0.463879       -12.6228
  54   2.0000      -0.458268       -12.4701
  55   2.0000      -0.452868       -12.3232
  56   2.0000      -0.445634       -12.1263
  57   2.0000      -0.437363       -11.9012
  58   2.0000      -0.432077       -11.7574
  59   2.0000      -0.428533       -11.6610
  60   2.0000      -0.426891       -11.6163
  61   2.0000      -0.418540       -11.3891
  62   2.0000      -0.409842       -11.1524
  63   2.0000      -0.347312        -9.4509
  64   2.0000      -0.333957        -9.0874
  65   2.0000      -0.326853        -8.8941
  66   2.0000      -0.285510        -7.7691
  67   0.0000       0.029204         0.7947
  68   0.0000       0.076675         2.0864
  69   0.0000       0.099710         2.7133
  70   0.0000       0.127446         3.4680
  71   0.0000       0.135311         3.6820

MULLIKEN ATOMIC CHARGES
-----------------------
   0 S :    0.115314
   1 C :   -0.111741
   2 C :   -0.084883
   3 C :   -0.009215
   4 C :   -0.124890
   5 H :    0.022157
   6 C :    0.143861
   7 H :    0.023963
   8 H :    0.006253
   9 C :   -0.117991
  10 H :    0.026445
  11 H :    0.033219
  12 C :   -0.060758
  13 H :    0.041671
  14 H :    0.032067
  15 H :    0.033364
  16 S :    0.084169
  17 C :   -0.100892
  18 C :   -0.064849
  19 C :   -0.032912
  20 C :   -0.138689
  21 H :    0.044846
  22 C :    0.024265
  23 H :    0.044538
  24 H :    0.020831
  25 C :   -0.125524
  26 H :    0.051200
  27 H :    0.052930
  28 C :    0.010799
  29 H :    0.057900
  30 H :    0.002505
  31 H :    0.007403
  32 H :    0.027576
  33 H :    0.065068
Sum of atomic charges:    0.0000000

LOEWDIN ATOMIC CHARGES
----------------------
   0 S :    0.397320
   1 C :   -0.189038
   2 C :   -0.053852
   3 C :   -0.062211
   4 C :   -0.186356
   5 H :    0.033226
   6 C :   -0.022981
   7 H :    0.027592
   8 H :    0.027637
   9 C :   -0.046305
  10 H :    0.020126
  11 H :    0.027411
  12 C :   -0.066091
  13 H :    0.031068
  14 H :    0.021656
  15 H :    0.025446
  16 S :    0.379423
  17 C :   -0.184122
  18 C :   -0.085732
  19 C :   -0.058409
  20 C :   -0.188323
  21 H :    0.044216
  22 C :   -0.037483
  23 H :    0.037287
  24 H :    0.029761
  25 C :   -0.046540
  26 H :    0.029775
  27 H :    0.034388
  28 C :   -0.064988
  29 H :    0.041831
  30 H :    0.014974
  31 H :    0.020197
  32 H :    0.016954
  33 H :    0.032143

  Mayer bond orders larger than 0.100000
B(  0-S ,  1-C ) :   1.1176 B(  0-S ,  4-C ) :   1.1436 B(  1-C ,  2-C ) :   1.6494
B(  1-C , 32-H ) :   0.9696 B(  2-C ,  3-C ) :   1.2221 B(  2-C ,  6-C ) :   1.0078
B(  3-C ,  4-C ) :   1.6040 B(  3-C ,  5-H ) :   0.9890 B(  4-C , 20-C ) :   1.0355
B(  6-C ,  7-H ) :   0.9322 B(  6-C ,  8-H ) :   0.9348 B(  6-C ,  9-C ) :   1.0549
B(  9-C , 10-H ) :   0.9560 B(  9-C , 11-H ) :   0.9590 B(  9-C , 12-C ) :   1.0876
B( 12-C , 13-H ) :   0.9736 B( 12-C , 14-H ) :   0.9767 B( 12-C , 15-H ) :   0.9757
B( 16-S , 17-C ) :   1.1564 B( 16-S , 20-C ) :   1.1208 B( 17-C , 18-C ) :   1.6312
B( 17-C , 33-H ) :   0.9572 B( 18-C , 19-C ) :   1.2177 B( 18-C , 21-H ) :   0.9773
B( 19-C , 20-C ) :   1.6333 B( 19-C , 22-C ) :   1.0124 B( 22-C , 23-H ) :   0.9364
B( 22-C , 24-H ) :   0.9333 B( 22-C , 25-C ) :   1.0736 B( 25-C , 26-H ) :   0.9517
B( 25-C , 27-H ) :   0.9508 B( 25-C , 28-C ) :   1.0706 B( 28-C , 29-H ) :   0.9731
B( 28-C , 30-H ) :   0.9709 B( 28-C , 31-H ) :   0.9653

Dispersion correction           -0.013260996
FINAL SINGLE POINT ENERGY     -1339.867726559430

DIPOLE MOMENT
-------------
                                X             Y             Z
Electronic contribution:    -24.27868      15.70940     -10.80359
Nuclear contribution   :     24.86487     -15.94998      11.24858
                        -----------------------------------------
Total Dipole Moment    :      0.58619      -0.24058       0.44499
                        -----------------------------------------
Magnitude (a.u.)       :      0.77428
Magnitude (Debye)      :      1.96807

Rotational constants in cm-1:     0.017984     0.007896     0.005748
Rotational constants in MHz :   539.152538   236.716419   172.333865

                             ****ORCA TERMINATED NORMALLY****
TOTAL RUN TIME: 0 days 0 hours 0 minutes 20 seconds 869 msec
