                         Program Version 4.2.1 -  RELEASE  -
|  1> ! wB97X-D3 SP def2-SVP
|  2> %pal
|  3> nprocs 24
|  4> end
|  5>
|  6> * xyz 0 1
|  7> S 	 -41.0676 	 -2.64801 	 12.003
|  8> C 	 -41.054 	 -2.91103 	 13.7504
|  9> C 	 -42.0849 	 -2.24137 	 14.3837
| 10> C 	 -43.0404 	 -1.78028 	 13.3902
| 11> C 	 -42.585 	 -1.84137 	 12.0817
| 12> H 	 -44.0152 	 -1.42901 	 13.6657
| 13> C 	 -42.1549 	 -2.01584 	 15.9252
| 14> H 	 -41.6985 	 -2.89506 	 16.4492
| 15> H 	 -43.2561 	 -2.06513 	 16.1622
| 16> C 	 -41.5218 	 -0.738485 	 16.5543
| 17> H 	 -41.3638 	 -0.711067 	 17.6148
| 18> H 	 -40.515 	 -0.645881 	 16.0279
| 19> C 	 -42.3945 	 0.445454 	 16.1772
| 20> H 	 -42.2549 	 1.27941 	 16.9098
| 21> H 	 -42.1402 	 0.753166 	 15.1015
| 22> H 	 -43.4844 	 0.206234 	 16.1295
| 23> S 	 -43.6118 	 -2.6004 	 9.71743
| 24> C 	 -44.2813 	 -1.42598 	 8.64084
| 25> C 	 -44.6637 	 -0.329122 	 9.31198
| 26> C 	 -43.9985 	 -0.248881 	 10.6074
| 27> C 	 -43.3393 	 -1.41321 	 10.9479
| 28> H 	 -45.2956 	 0.41419 	 8.86253
| 29> C 	 -44.1219 	 0.962063 	 11.4216
| 30> H 	 -44.0794 	 1.85093 	 10.7551
| 31> H 	 -43.1872 	 1.051 	 11.9151
| 32> C 	 -45.2881 	 1.03373 	 12.4669
| 33> H 	 -45.2917 	 0.17669 	 13.1477
| 34> H 	 -46.2732 	 1.0764 	 11.9515
| 35> C 	 -45.1922 	 2.26781 	 13.3612
| 36> H 	 -44.1421 	 2.31626 	 13.6346
| 37> H 	 -45.8493 	 2.08088 	 14.2164
| 38> H 	 -45.4564 	 3.16696 	 12.8495
| 39> H 	 -40.213 	 -3.26819 	 14.317
| 40> H 	 -44.5298 	 -1.66942 	 7.57484
| 41> *
| 42>
| 43>                          ****END OF INPUT****

CARTESIAN COORDINATES (ANGSTROEM)
---------------------------------
  S    -41.067600   -2.648010   12.003000
  C    -41.054000   -2.911030   13.750400
  C    -42.084900   -2.241370   14.383700
  C    -43.040400   -1.780280   13.390200
  C    -42.585000   -1.841370   12.081700
  H    -44.015200   -1.429010   13.665700
  C    -42.154900   -2.015840   15.925200
  H    -41.698500   -2.895060   16.449200
  H    -43.256100   -2.065130   16.162200
  C    -41.521800   -0.738485   16.554300
  H    -41.363800   -0.711067   17.614800
  H    -40.515000   -0.645881   16.027900
  C    -42.394500    0.445454   16.177200
  H    -42.254900    1.279410   16.909800
  H    -42.140200    0.753166   15.101500
  H    -43.484400    0.206234   16.129500
  S    -43.611800   -2.600400    9.717430
  C    -44.281300   -1.425980    8.640840
  C    -44.663700   -0.329122    9.311980
  C    -43.998500   -0.248881   10.607400
  C    -43.339300   -1.413210   10.947900
  H    -45.295600    0.414190    8.862530
  C    -44.121900    0.962063   11.421600
  H    -44.079400    1.850930   10.755100
  H    -43.187200    1.051000   11.915100
  C    -45.288100    1.033730   12.466900
  H    -45.291700    0.176690   13.147700
  H    -46.273200    1.076400   11.951500
  C    -45.192200    2.267810   13.361200
  H    -44.142100    2.316260   13.634600
  H    -45.849300    2.080880   14.216400
  H    -45.456400    3.166960   12.849500
  H    -40.213000   -3.268190   14.317000
  H    -44.529800   -1.669420    7.574840

 Total Charge           Charge          ....    0
 Multiplicity           Mult            ....    1
 Number of Electrons    NEL             ....  134
 Basis Dimension        Dim             ....  322

ORBITAL ENERGIES
----------------

  NO   OCC          E(Eh)            E(eV)
   0   2.0000     -88.969722     -2420.9892
   1   2.0000     -88.956376     -2420.6260
   2   2.0000     -10.327826      -281.0344
   3   2.0000     -10.319839      -280.8171
   4   2.0000     -10.315630      -280.7026
   5   2.0000     -10.313835      -280.6537
   6   2.0000     -10.308542      -280.5097
   7   2.0000     -10.306241      -280.4471
   8   2.0000     -10.300069      -280.2791
   9   2.0000     -10.297240      -280.2021
  10   2.0000     -10.294213      -280.1198
  11   2.0000     -10.290748      -280.0255
  12   2.0000     -10.289297      -279.9860
  13   2.0000     -10.286565      -279.9117
  14   2.0000     -10.286312      -279.9048
  15   2.0000     -10.274574      -279.5854
  16   2.0000      -8.084513      -219.9908
  17   2.0000      -8.072648      -219.6679
  18   2.0000      -6.043030      -164.4392
  19   2.0000      -6.039051      -164.3309
  20   2.0000      -6.035189      -164.2259
  21   2.0000      -6.031182      -164.1168
  22   2.0000      -6.027079      -164.0052
  23   2.0000      -6.023132      -163.8977
  24   2.0000      -1.013068       -27.5670
  25   2.0000      -0.987391       -26.8683
  26   2.0000      -0.910213       -24.7682
  27   2.0000      -0.909247       -24.7419
  28   2.0000      -0.875097       -23.8126
  29   2.0000      -0.854706       -23.2577
  30   2.0000      -0.844661       -22.9844
  31   2.0000      -0.816430       -22.2162
  32   2.0000      -0.778189       -21.1756
  33   2.0000      -0.767718       -20.8907
  34   2.0000      -0.704962       -19.1830
  35   2.0000      -0.697797       -18.9880
  36   2.0000      -0.694852       -18.9079
  37   2.0000      -0.662917       -18.0389
  38   2.0000      -0.638747       -17.3812
  39   2.0000      -0.615988       -16.7619
  40   2.0000      -0.595998       -16.2179
  41   2.0000      -0.572315       -15.5735
  42   2.0000      -0.565397       -15.3852
  43   2.0000      -0.558328       -15.1929
  44   2.0000      -0.540399       -14.7050
  45   2.0000      -0.529494       -14.4083
  46   2.0000      -0.517078       -14.0704
  47   2.0000      -0.514320       -13.9953
  48   2.0000      -0.504214       -13.7204
  49   2.0000      -0.500192       -13.6109
  50   2.0000      -0.487452       -13.2642
  51   2.0000      -0.482602       -13.1323
  52   2.0000      -0.468667       -12.7531
  53   2.0000      -0.463518       -12.6130
  54   2.0000      -0.451904       -12.2969
  55   2.0000      -0.448999       -12.2179
  56   2.0000      -0.445960       -12.1352
  57   2.0000      -0.441005       -12.0004
  58   2.0000      -0.435342       -11.8462
  59   2.0000      -0.422045       -11.4844
  60   2.0000      -0.418429       -11.3860
  61   2.0000      -0.417294       -11.3551
  62   2.0000      -0.410981       -11.1834
  63   2.0000      -0.344212        -9.3665
  64   2.0000      -0.331887        -9.0311
  65   2.0000      -0.321393        -8.7456
  66   2.0000      -0.298095        -8.1116
  67   0.0000       0.027987         0.7616
  68   0.0000       0.074187         2.0187
  69   0.0000       0.109135         2.9697
  70   0.0000       0.114763         3.1229
  71   0.0000       0.124317         3.3828

MULLIKEN ATOMIC CHARGES
-----------------------
   0 S :    0.128286
   1 C :   -0.106962
   2 C :   -0.099473
   3 C :    0.036927
   4 C :   -0.144914
   5 H :   -0.005105
   6 C :    0.009401
   7 H :    0.035617
   8 H :    0.034530
   9 C :   -0.041790
  10 H :    0.037254
  11 H :    0.042768
  12 C :   -0.109877
  13 H :    0.044249
  14 H :    0.054797
  15 H :    0.030634
  16 S :    0.095177
  17 C :   -0.107661
  18 C :   -0.011361
  19 C :   -0.054297
  20 C :   -0.141598
  21 H :    0.015247
  22 C :    0.068284
  23 H :    0.020118
  24 H :    0.005735
  25 C :   -0.077850
  26 H :    0.022703
  27 H :    0.030003
  28 C :   -0.023048
  29 H :    0.025608
  30 H :    0.038560
  31 H :    0.028532
  32 H :    0.046133
  33 H :    0.073372
Sum of atomic charges:   -0.0000000

LOEWDIN ATOMIC CHARGES
----------------------
   0 S :    0.418209
   1 C :   -0.188913
   2 C :   -0.062082
   3 C :   -0.053959
   4 C :   -0.211604
   5 H :    0.022327
   6 C :   -0.036384
   7 H :    0.033883
   8 H :    0.030504
   9 C :   -0.045587
  10 H :    0.023420
  11 H :    0.035536
  12 C :   -0.080065
  13 H :    0.028600
  14 H :    0.034522
  15 H :    0.022354
  16 S :    0.407488
  17 C :   -0.188344
  18 C :   -0.070017
  19 C :   -0.053563
  20 C :   -0.204850
  21 H :    0.030479
  22 C :   -0.041498
  23 H :    0.034279
  24 H :    0.026430
  25 C :   -0.034408
  26 H :    0.019618
  27 H :    0.025104
  28 C :   -0.059141
  29 H :    0.024296
  30 H :    0.029589
  31 H :    0.019914
  32 H :    0.025680
  33 H :    0.038182

  Mayer bond orders larger than 0.100000
B(  0-S ,  1-C ) :   1.1358 B(  0-S ,  4-C ) :   1.1488 B(  1-C ,  2-C ) :   1.6322
B(  1-C , 32-H ) :   0.9624 B(  2-C ,  3-C ) :   1.2343 B(  2-C ,  6-C ) :   1.0151
B(  3-C ,  4-C ) :   1.5601 B(  3-C ,  5-H ) :   0.9939 B(  4-C , 20-C ) :   1.0547
B(  6-C ,  7-H ) :   0.9442 B(  6-C ,  8-H ) :   0.9485 B(  6-C ,  9-C ) :   1.0556
B(  9-C , 10-H ) :   0.9618 B(  9-C , 11-H ) :   0.9544 B(  9-C , 12-C ) :   1.0653
B( 12-C , 13-H ) :   0.9756 B( 12-C , 14-H ) :   0.9736 B( 12-C , 15-H ) :   0.9765
B( 16-S , 17-C ) :   1.1523 B( 16-S , 20-C ) :   1.1335 B( 17-C , 18-C ) :   1.6229
B( 17-C , 33-H ) :   0.9617 B( 18-C , 19-C ) :   1.2078 B( 18-C , 21-H ) :   0.9955
B( 19-C , 20-C ) :   1.6101 B( 19-C , 22-C ) :   1.0755 B( 22-C , 23-H ) :   0.9290
B( 22-C , 24-H ) :   0.9153 B( 22-C , 25-C ) :   1.0565 B( 25-C , 26-H ) :   0.9575
B( 25-C , 27-H ) :   0.9522 B( 25-C , 28-C ) :   1.0807 B( 28-C , 29-H ) :   0.9737
B( 28-C , 30-H ) :   0.9749 B( 28-C , 31-H ) :   0.9759

Dispersion correction           -0.015555204
FINAL SINGLE POINT ENERGY     -1339.872105428658

DIPOLE MOMENT
-------------
                                X             Y             Z
Electronic contribution:      7.53342     -20.69031     -22.86395
Nuclear contribution   :     -7.75417      21.19256      23.31321
                        -----------------------------------------
Total Dipole Moment    :     -0.22075       0.50225       0.44926
                        -----------------------------------------
Magnitude (a.u.)       :      0.70910
Magnitude (Debye)      :      1.80238

Rotational constants in cm-1:     0.017840     0.010554     0.007026
Rotational constants in MHz :   534.834842   316.404288   210.635191

                             ****ORCA TERMINATED NORMALLY****
TOTAL RUN TIME: 0 days 0 hours 0 minutes 22 seconds 889 msec
