                         Program Version 4.2.1 -  RELEASE  -
|  1> ! wB97X-D3 SP def2-SVP
|  2> %pal
|  3> nprocs 24
|  4> end
|  5>
|  6> * xyz 0 1
|  7> S 	 -72.02 	 3.62504 	 -105.882
|  8> C 	 -71.9355 	 4.93946 	 -104.719
|  9> C 	 -71.0381 	 5.94757 	 -105.083
| 10> C 	 -70.3435 	 5.56578 	 -106.24
| 11> C 	 -70.6225 	 4.3051 	 -106.731
| 12> H 	 -69.4482 	 5.96438 	 -106.695
| 13> C 	 -70.7491 	 7.23489 	 -104.396
| 14> H 	 -69.7444 	 7.46197 	 -104.626
| 15> H 	 -70.9269 	 7.14497 	 -103.324
| 16> C 	 -71.5688 	 8.3987 	 -104.869
| 17> H 	 -71.4777 	 8.64239 	 -105.946
| 18> H 	 -72.6561 	 8.06954 	 -104.755
| 19> C 	 -71.3667 	 9.66669 	 -104.003
| 20> H 	 -70.4906 	 10.1188 	 -104.444
| 21> H 	 -72.192 	 10.3538 	 -104.138
| 22> H 	 -71.1789 	 9.72865 	 -102.972
| 23> S 	 -70.3483 	 3.66304 	 -109.361
| 24> C 	 -69.1858 	 2.50297 	 -109.896
| 25> C 	 -68.3577 	 2.1399 	 -108.799
| 26> C 	 -68.6757 	 2.8183 	 -107.564
| 27> C 	 -69.8378 	 3.53898 	 -107.703
| 28> H 	 -67.4678 	 1.45541 	 -108.912
| 29> C 	 -67.9513 	 2.61477 	 -106.231
| 30> H 	 -67.8567 	 3.5668 	 -105.725
| 31> H 	 -66.9519 	 2.39561 	 -106.52
| 32> C 	 -68.5819 	 1.52203 	 -105.291
| 33> H 	 -68.4852 	 0.55141 	 -105.778
| 34> H 	 -69.6522 	 1.60151 	 -105.239
| 35> C 	 -67.7709 	 1.49452 	 -103.971
| 36> H 	 -67.7481 	 2.46268 	 -103.439
| 37> H 	 -66.7295 	 1.26925 	 -104.106
| 38> H 	 -67.997 	 0.785011 	 -103.242
| 39> H 	 -72.4934 	 5.05516 	 -103.816
| 40> H 	 -69.0729 	 1.99526 	 -110.82
| 41> *
| 42>
| 43>                          ****END OF INPUT****

CARTESIAN COORDINATES (ANGSTROEM)
---------------------------------
  S    -72.020000    3.625040  -105.882000
  C    -71.935500    4.939460  -104.719000
  C    -71.038100    5.947570  -105.083000
  C    -70.343500    5.565780  -106.240000
  C    -70.622500    4.305100  -106.731000
  H    -69.448200    5.964380  -106.695000
  C    -70.749100    7.234890  -104.396000
  H    -69.744400    7.461970  -104.626000
  H    -70.926900    7.144970  -103.324000
  C    -71.568800    8.398700  -104.869000
  H    -71.477700    8.642390  -105.946000
  H    -72.656100    8.069540  -104.755000
  C    -71.366700    9.666690  -104.003000
  H    -70.490600   10.118800  -104.444000
  H    -72.192000   10.353800  -104.138000
  H    -71.178900    9.728650  -102.972000
  S    -70.348300    3.663040  -109.361000
  C    -69.185800    2.502970  -109.896000
  C    -68.357700    2.139900  -108.799000
  C    -68.675700    2.818300  -107.564000
  C    -69.837800    3.538980  -107.703000
  H    -67.467800    1.455410  -108.912000
  C    -67.951300    2.614770  -106.231000
  H    -67.856700    3.566800  -105.725000
  H    -66.951900    2.395610  -106.520000
  C    -68.581900    1.522030  -105.291000
  H    -68.485200    0.551410  -105.778000
  H    -69.652200    1.601510  -105.239000
  C    -67.770900    1.494520  -103.971000
  H    -67.748100    2.462680  -103.439000
  H    -66.729500    1.269250  -104.106000
  H    -67.997000    0.785011  -103.242000
  H    -72.493400    5.055160  -103.816000
  H    -69.072900    1.995260  -110.820000

 Total Charge           Charge          ....    0
 Multiplicity           Mult            ....    1
 Number of Electrons    NEL             ....  134
 Basis Dimension        Dim             ....  322

ORBITAL ENERGIES
----------------

  NO   OCC          E(Eh)            E(eV)
   0   2.0000     -88.969478     -2420.9826
   1   2.0000     -88.965544     -2420.8755
   2   2.0000     -10.326135      -280.9884
   3   2.0000     -10.321226      -280.8548
   4   2.0000     -10.316934      -280.7380
   5   2.0000     -10.315207      -280.6911
   6   2.0000     -10.302744      -280.3519
   7   2.0000     -10.301041      -280.3056
   8   2.0000     -10.299243      -280.2566
   9   2.0000     -10.293620      -280.1036
  10   2.0000     -10.290467      -280.0179
  11   2.0000     -10.289664      -279.9960
  12   2.0000     -10.287622      -279.9404
  13   2.0000     -10.287200      -279.9289
  14   2.0000     -10.272927      -279.5406
  15   2.0000     -10.271280      -279.4957
  16   2.0000      -8.083204      -219.9552
  17   2.0000      -8.080604      -219.8844
  18   2.0000      -6.041679      -164.4024
  19   2.0000      -6.039121      -164.3328
  20   2.0000      -6.037815      -164.2973
  21   2.0000      -6.034886      -164.2176
  22   2.0000      -6.034092      -164.1960
  23   2.0000      -6.031513      -164.1258
  24   2.0000      -1.005673       -27.3657
  25   2.0000      -0.983876       -26.7726
  26   2.0000      -0.918170       -24.9847
  27   2.0000      -0.901803       -24.5393
  28   2.0000      -0.865219       -23.5438
  29   2.0000      -0.851566       -23.1723
  30   2.0000      -0.846949       -23.0466
  31   2.0000      -0.811248       -22.0752
  32   2.0000      -0.785138       -21.3647
  33   2.0000      -0.773872       -21.0581
  34   2.0000      -0.712971       -19.4009
  35   2.0000      -0.702187       -19.1075
  36   2.0000      -0.698103       -18.9963
  37   2.0000      -0.660511       -17.9734
  38   2.0000      -0.645928       -17.5766
  39   2.0000      -0.617284       -16.7972
  40   2.0000      -0.591586       -16.0979
  41   2.0000      -0.574893       -15.6436
  42   2.0000      -0.560249       -15.2452
  43   2.0000      -0.552410       -15.0318
  44   2.0000      -0.522899       -14.2288
  45   2.0000      -0.521307       -14.1855
  46   2.0000      -0.517062       -14.0700
  47   2.0000      -0.511305       -13.9133
  48   2.0000      -0.508558       -13.8386
  49   2.0000      -0.498729       -13.5711
  50   2.0000      -0.493668       -13.4334
  51   2.0000      -0.474354       -12.9078
  52   2.0000      -0.470135       -12.7930
  53   2.0000      -0.467130       -12.7113
  54   2.0000      -0.457648       -12.4532
  55   2.0000      -0.450455       -12.2575
  56   2.0000      -0.442973       -12.0539
  57   2.0000      -0.439816       -11.9680
  58   2.0000      -0.435713       -11.8564
  59   2.0000      -0.429758       -11.6943
  60   2.0000      -0.422832       -11.5058
  61   2.0000      -0.415258       -11.2998
  62   2.0000      -0.407654       -11.0928
  63   2.0000      -0.336989        -9.1699
  64   2.0000      -0.328404        -8.9363
  65   2.0000      -0.316699        -8.6178
  66   2.0000      -0.309515        -8.4223
  67   0.0000       0.042474         1.1558
  68   0.0000       0.048415         1.3174
  69   0.0000       0.117481         3.1968
  70   0.0000       0.118738         3.2310
  71   0.0000       0.129706         3.5295

MULLIKEN ATOMIC CHARGES
-----------------------
   0 S :    0.124146
   1 C :   -0.102242
   2 C :   -0.092609
   3 C :    0.068294
   4 C :   -0.197679
   5 H :    0.009345
   6 C :    0.127285
   7 H :    0.008259
   8 H :    0.022805
   9 C :   -0.110600
  10 H :    0.040997
  11 H :    0.028282
  12 C :   -0.025452
  13 H :    0.019941
  14 H :    0.030316
  15 H :    0.022450
  16 S :    0.127102
  17 C :   -0.074325
  18 C :   -0.079899
  19 C :   -0.029979
  20 C :   -0.205974
  21 H :    0.037066
  22 C :    0.096544
  23 H :    0.019810
  24 H :    0.004288
  25 C :   -0.029186
  26 H :    0.020094
  27 H :    0.026980
  28 C :   -0.021904
  29 H :    0.028298
  30 H :    0.012817
  31 H :    0.015639
  32 H :    0.030793
  33 H :    0.048300
Sum of atomic charges:   -0.0000000

LOEWDIN ATOMIC CHARGES
----------------------
   0 S :    0.402554
   1 C :   -0.187968
   2 C :   -0.062858
   3 C :   -0.056683
   4 C :   -0.196857
   5 H :    0.032459
   6 C :   -0.028835
   7 H :    0.024911
   8 H :    0.034444
   9 C :   -0.038868
  10 H :    0.029662
  11 H :    0.025184
  12 C :   -0.070609
  13 H :    0.026182
  14 H :    0.028632
  15 H :    0.019814
  16 S :    0.429094
  17 C :   -0.198933
  18 C :   -0.077995
  19 C :   -0.055493
  20 C :   -0.212434
  21 H :    0.036939
  22 C :   -0.022719
  23 H :    0.029275
  24 H :    0.023994
  25 C :   -0.028970
  26 H :    0.025785
  27 H :    0.018825
  28 C :   -0.068249
  29 H :    0.028271
  30 H :    0.024482
  31 H :    0.017468
  32 H :    0.022610
  33 H :    0.026886

  Mayer bond orders larger than 0.100000
B(  0-S ,  1-C ) :   1.1462 B(  0-S ,  4-C ) :   1.1382 B(  1-C ,  2-C ) :   1.6083
B(  1-C ,  4-C ) :   0.1028 B(  1-C , 32-H ) :   0.9674 B(  2-C ,  3-C ) :   1.2288
B(  2-C ,  6-C ) :   1.0335 B(  3-C ,  4-C ) :   1.6118 B(  3-C ,  5-H ) :   0.9866
B(  4-C , 20-C ) :   1.0028 B(  6-C ,  7-H ) :   0.9290 B(  6-C ,  8-H ) :   0.9350
B(  6-C ,  9-C ) :   1.0685 B(  9-C , 10-H ) :   0.9552 B(  9-C , 11-H ) :   0.9594
B(  9-C , 12-C ) :   1.0633 B( 12-C , 13-H ) :   0.9748 B( 12-C , 14-H ) :   0.9754
B( 12-C , 15-H ) :   0.9791 B( 16-S , 17-C ) :   1.1611 B( 16-S , 20-C ) :   1.1652
B( 17-C , 18-C ) :   1.5916 B( 17-C , 20-C ) :   0.1043 B( 17-C , 33-H ) :   0.9730
B( 18-C , 19-C ) :   1.2561 B( 18-C , 21-H ) :   0.9751 B( 19-C , 20-C ) :   1.5891
B( 19-C , 22-C ) :   1.0455 B( 22-C , 23-H ) :   0.9343 B( 22-C , 24-H ) :   0.9261
B( 22-C , 25-C ) :   1.0517 B( 25-C , 26-H ) :   0.9530 B( 25-C , 27-H ) :   0.9601
B( 25-C , 28-C ) :   1.0684 B( 28-C , 29-H ) :   0.9772 B( 28-C , 30-H ) :   0.9711
B( 28-C , 31-H ) :   0.9742

Dispersion correction           -0.014487474
FINAL SINGLE POINT ENERGY     -1339.863754620244

DIPOLE MOMENT
-------------
                                X             Y             Z
Electronic contribution:     -9.56195     -10.42238     -19.63002
Nuclear contribution   :     10.01276      10.62351      20.04223
                        -----------------------------------------
Total Dipole Moment    :      0.45082       0.20113       0.41221
                        -----------------------------------------
Magnitude (a.u.)       :      0.64312
Magnitude (Debye)      :      1.63469

Rotational constants in cm-1:     0.018914     0.008032     0.006753
Rotational constants in MHz :   567.024107   240.781479   202.446226

                             ****ORCA TERMINATED NORMALLY****
TOTAL RUN TIME: 0 days 0 hours 0 minutes 21 seconds 481 msec
