                         Program Version 4.2.1 -  RELEASE  -
|  1> ! wB97X-D3 SP def2-SVP
|  2> %pal
|  3> nprocs 24
|  4> end
|  5>
|  6> * xyz 0 1
|  7> S 	 -73.2329 	 5.87111 	 -113.195
|  8> C 	 -74.1028 	 5.82691 	 -111.645
|  9> C 	 -73.8167 	 6.9692 	 -110.896
| 10> C 	 -72.8934 	 7.83521 	 -111.654
| 11> C 	 -72.4697 	 7.44402 	 -112.912
| 12> H 	 -72.6661 	 8.87317 	 -111.413
| 13> C 	 -74.2334 	 7.34404 	 -109.525
| 14> H 	 -75.054 	 6.65754 	 -109.294
| 15> H 	 -74.5562 	 8.40151 	 -109.521
| 16> C 	 -73.1595 	 7.28247 	 -108.465
| 17> H 	 -72.803 	 6.26606 	 -108.399
| 18> H 	 -72.3271 	 7.91354 	 -108.835
| 19> C 	 -73.7402 	 7.80288 	 -107.076
| 20> H 	 -72.9775 	 7.94619 	 -106.275
| 21> H 	 -74.0102 	 8.85206 	 -107.265
| 22> H 	 -74.6008 	 7.29333 	 -106.655
| 23> S 	 -71.6746 	 9.52561 	 -114.403
| 24> C 	 -70.0804 	 9.38893 	 -115.167
| 25> C 	 -69.3702 	 8.28508 	 -114.904
| 26> C 	 -70.0995 	 7.45484 	 -114.017
| 27> C 	 -71.3815 	 7.93697 	 -113.716
| 28> H 	 -68.4107 	 8.10331 	 -115.427
| 29> C 	 -69.5776 	 6.16422 	 -113.508
| 30> H 	 -69.9639 	 5.91324 	 -112.556
| 31> H 	 -68.5275 	 6.34257 	 -113.52
| 32> C 	 -69.631 	 5.06546 	 -114.533
| 33> H 	 -70.6706 	 4.96642 	 -114.731
| 34> H 	 -69.2597 	 4.10824 	 -114.167
| 35> C 	 -69.1141 	 5.27509 	 -115.97
| 36> H 	 -68.0623 	 5.53212 	 -115.966
| 37> H 	 -69.5925 	 6.11695 	 -116.541
| 38> H 	 -69.2589 	 4.49904 	 -116.69
| 39> H 	 -74.8115 	 5.05217 	 -111.292
| 40> H 	 -69.6617 	 10.137 	 -115.909
| 41> *
| 42>
| 43>                          ****END OF INPUT****

CARTESIAN COORDINATES (ANGSTROEM)
---------------------------------
  S    -73.232900    5.871110  -113.195000
  C    -74.102800    5.826910  -111.645000
  C    -73.816700    6.969200  -110.896000
  C    -72.893400    7.835210  -111.654000
  C    -72.469700    7.444020  -112.912000
  H    -72.666100    8.873170  -111.413000
  C    -74.233400    7.344040  -109.525000
  H    -75.054000    6.657540  -109.294000
  H    -74.556200    8.401510  -109.521000
  C    -73.159500    7.282470  -108.465000
  H    -72.803000    6.266060  -108.399000
  H    -72.327100    7.913540  -108.835000
  C    -73.740200    7.802880  -107.076000
  H    -72.977500    7.946190  -106.275000
  H    -74.010200    8.852060  -107.265000
  H    -74.600800    7.293330  -106.655000
  S    -71.674600    9.525610  -114.403000
  C    -70.080400    9.388930  -115.167000
  C    -69.370200    8.285080  -114.904000
  C    -70.099500    7.454840  -114.017000
  C    -71.381500    7.936970  -113.716000
  H    -68.410700    8.103310  -115.427000
  C    -69.577600    6.164220  -113.508000
  H    -69.963900    5.913240  -112.556000
  H    -68.527500    6.342570  -113.520000
  C    -69.631000    5.065460  -114.533000
  H    -70.670600    4.966420  -114.731000
  H    -69.259700    4.108240  -114.167000
  C    -69.114100    5.275090  -115.970000
  H    -68.062300    5.532120  -115.966000
  H    -69.592500    6.116950  -116.541000
  H    -69.258900    4.499040  -116.690000
  H    -74.811500    5.052170  -111.292000
  H    -69.661700   10.137000  -115.909000

 Total Charge           Charge          ....    0
 Multiplicity           Mult            ....    1
 Number of Electrons    NEL             ....  134
 Basis Dimension        Dim             ....  322

ORBITAL ENERGIES
----------------

  NO   OCC          E(Eh)            E(eV)
   0   2.0000     -88.967291     -2420.9231
   1   2.0000     -88.963748     -2420.8266
   2   2.0000     -10.330709      -281.1129
   3   2.0000     -10.326403      -280.9957
   4   2.0000     -10.324399      -280.9412
   5   2.0000     -10.318920      -280.7921
   6   2.0000     -10.306846      -280.4635
   7   2.0000     -10.304173      -280.3908
   8   2.0000     -10.296956      -280.1944
   9   2.0000     -10.293857      -280.1101
  10   2.0000     -10.292330      -280.0685
  11   2.0000     -10.292170      -280.0642
  12   2.0000     -10.286980      -279.9230
  13   2.0000     -10.280310      -279.7415
  14   2.0000     -10.278490      -279.6919
  15   2.0000     -10.276392      -279.6349
  16   2.0000      -8.081735      -219.9152
  17   2.0000      -8.077398      -219.7972
  18   2.0000      -6.040193      -164.3620
  19   2.0000      -6.036521      -164.2621
  20   2.0000      -6.036116      -164.2511
  21   2.0000      -6.032338      -164.1482
  22   2.0000      -6.031888      -164.1360
  23   2.0000      -6.028136      -164.0339
  24   2.0000      -1.006441       -27.3867
  25   2.0000      -0.981174       -26.6991
  26   2.0000      -0.918018       -24.9805
  27   2.0000      -0.915996       -24.9255
  28   2.0000      -0.874269       -23.7901
  29   2.0000      -0.847011       -23.0483
  30   2.0000      -0.837682       -22.7945
  31   2.0000      -0.817837       -22.2545
  32   2.0000      -0.785788       -21.3824
  33   2.0000      -0.771915       -21.0049
  34   2.0000      -0.713272       -19.4091
  35   2.0000      -0.700876       -19.0718
  36   2.0000      -0.690236       -18.7823
  37   2.0000      -0.663729       -18.0610
  38   2.0000      -0.637763       -17.3544
  39   2.0000      -0.616738       -16.7823
  40   2.0000      -0.594766       -16.1844
  41   2.0000      -0.575635       -15.6638
  42   2.0000      -0.569224       -15.4894
  43   2.0000      -0.556917       -15.1545
  44   2.0000      -0.543956       -14.8018
  45   2.0000      -0.522157       -14.2086
  46   2.0000      -0.517745       -14.0885
  47   2.0000      -0.511415       -13.9163
  48   2.0000      -0.500695       -13.6246
  49   2.0000      -0.490285       -13.3413
  50   2.0000      -0.486991       -13.2517
  51   2.0000      -0.478775       -13.0281
  52   2.0000      -0.473776       -12.8921
  53   2.0000      -0.465039       -12.6544
  54   2.0000      -0.459088       -12.4924
  55   2.0000      -0.450382       -12.2555
  56   2.0000      -0.445617       -12.1259
  57   2.0000      -0.443581       -12.0704
  58   2.0000      -0.433172       -11.7872
  59   2.0000      -0.426600       -11.6084
  60   2.0000      -0.419938       -11.4271
  61   2.0000      -0.412329       -11.2201
  62   2.0000      -0.399618       -10.8742
  63   2.0000      -0.344803        -9.3826
  64   2.0000      -0.332417        -9.0455
  65   2.0000      -0.321727        -8.7546
  66   2.0000      -0.297913        -8.1066
  67   0.0000       0.035591         0.9685
  68   0.0000       0.062096         1.6897
  69   0.0000       0.102055         2.7771
  70   0.0000       0.117178         3.1886
  71   0.0000       0.118981         3.2376

MULLIKEN ATOMIC CHARGES
-----------------------
   0 S :    0.091153
   1 C :   -0.128037
   2 C :   -0.087535
   3 C :    0.026412
   4 C :   -0.156281
   5 H :    0.014093
   6 C :    0.064853
   7 H :    0.017492
   8 H :    0.030316
   9 C :   -0.069586
  10 H :    0.027988
  11 H :    0.038042
  12 C :   -0.061021
  13 H :    0.040381
  14 H :    0.022411
  15 H :    0.043175
  16 S :    0.107820
  17 C :   -0.097140
  18 C :   -0.048760
  19 C :   -0.062521
  20 C :   -0.176090
  21 H :    0.038356
  22 C :    0.161461
  23 H :    0.031271
  24 H :    0.000763
  25 C :   -0.040017
  26 H :    0.004902
  27 H :    0.033204
  28 C :   -0.082053
  29 H :    0.015785
  30 H :    0.038094
  31 H :    0.033175
  32 H :    0.062418
  33 H :    0.065476
Sum of atomic charges:    0.0000000

LOEWDIN ATOMIC CHARGES
----------------------
   0 S :    0.387235
   1 C :   -0.194018
   2 C :   -0.064826
   3 C :   -0.063536
   4 C :   -0.200875
   5 H :    0.026295
   6 C :   -0.038565
   7 H :    0.029622
   8 H :    0.035718
   9 C :   -0.033534
  10 H :    0.020312
  11 H :    0.029483
  12 C :   -0.072398
  13 H :    0.030771
  14 H :    0.025857
  15 H :    0.025732
  16 S :    0.394121
  17 C :   -0.177731
  18 C :   -0.077210
  19 C :   -0.041759
  20 C :   -0.203031
  21 H :    0.045539
  22 C :   -0.025336
  23 H :    0.031324
  24 H :    0.029257
  25 C :   -0.036288
  26 H :    0.014028
  27 H :    0.025932
  28 C :   -0.072737
  29 H :    0.014238
  30 H :    0.032037
  31 H :    0.026891
  32 H :    0.038918
  33 H :    0.038532

  Mayer bond orders larger than 0.100000
B(  0-S ,  1-C ) :   1.1356 B(  0-S ,  4-C ) :   1.1217 B(  1-C ,  2-C ) :   1.6143
B(  1-C , 32-H ) :   0.9620 B(  2-C ,  3-C ) :   1.2151 B(  2-C ,  6-C ) :   1.0467
B(  3-C ,  4-C ) :   1.6185 B(  3-C ,  5-H ) :   0.9791 B(  4-C , 20-C ) :   1.0159
B(  6-C ,  7-H ) :   0.9356 B(  6-C ,  8-H ) :   0.9327 B(  6-C ,  9-C ) :   1.0637
B(  9-C , 10-H ) :   0.9554 B(  9-C , 11-H ) :   0.9561 B(  9-C , 12-C ) :   1.0656
B( 12-C , 13-H ) :   0.9765 B( 12-C , 14-H ) :   0.9732 B( 12-C , 15-H ) :   0.9785
B( 16-S , 17-C ) :   1.1391 B( 16-S , 20-C ) :   1.1281 B( 17-C , 18-C ) :   1.6719
B( 17-C , 33-H ) :   0.9496 B( 18-C , 19-C ) :   1.2072 B( 18-C , 21-H ) :   0.9805
B( 19-C , 20-C ) :   1.6141 B( 19-C , 22-C ) :   1.0499 B( 22-C , 23-H ) :   0.9322
B( 22-C , 24-H ) :   0.9130 B( 22-C , 25-C ) :   1.0669 B( 25-C , 26-H ) :   0.9428
B( 25-C , 27-H ) :   0.9576 B( 25-C , 28-C ) :   1.0825 B( 28-C , 29-H ) :   0.9729
B( 28-C , 30-H ) :   0.9633 B( 28-C , 31-H ) :   0.9719

Dispersion correction           -0.014743196
FINAL SINGLE POINT ENERGY     -1339.858976581367

DIPOLE MOMENT
-------------
                                X             Y             Z
Electronic contribution:     -5.87977       7.30838     -13.71979
Nuclear contribution   :      6.13386      -7.35851      14.03379
                        -----------------------------------------
Total Dipole Moment    :      0.25409      -0.05013       0.31400
                        -----------------------------------------
Magnitude (a.u.)       :      0.40703
Magnitude (Debye)      :      1.03458

Rotational constants in cm-1:     0.022380     0.007501     0.006730
Rotational constants in MHz :   670.950006   224.882551   201.757019

                             ****ORCA TERMINATED NORMALLY****
TOTAL RUN TIME: 0 days 0 hours 0 minutes 21 seconds 551 msec
