                         Program Version 4.2.1 -  RELEASE  -
|  1> ! wB97X-D3 SP def2-SVP
|  2> %pal
|  3> nprocs 24
|  4> end
|  5>
|  6> * xyz 0 1
|  7> S 	 -132.296 	 59.6819 	 -62.2283
|  8> C 	 -130.719 	 60.4391 	 -62.5783
|  9> C 	 -129.872 	 60.4113 	 -61.5331
| 10> C 	 -130.478 	 59.8552 	 -60.3677
| 11> C 	 -131.726 	 59.3356 	 -60.5748
| 12> H 	 -130.03 	 59.8093 	 -59.3979
| 13> C 	 -128.407 	 60.8012 	 -61.4653
| 14> H 	 -128.125 	 61.0916 	 -60.4677
| 15> H 	 -128.292 	 61.6061 	 -62.138
| 16> C 	 -127.385 	 59.6944 	 -61.9622
| 17> H 	 -127.608 	 59.2164 	 -62.9357
| 18> H 	 -126.337 	 60.1029 	 -61.9663
| 19> C 	 -127.196 	 58.6463 	 -60.8749
| 20> H 	 -126.709 	 58.9306 	 -59.9523
| 21> H 	 -128.175 	 58.3841 	 -60.3784
| 22> H 	 -126.878 	 57.6746 	 -61.2196
| 23> S 	 -134.177 	 59.4151 	 -59.6788
| 24> C 	 -134.751 	 58.3007 	 -58.4324
| 25> C 	 -133.752 	 57.517 	 -57.8412
| 26> C 	 -132.482 	 57.8332 	 -58.442
| 27> C 	 -132.584 	 58.7683 	 -59.5157
| 28> H 	 -134.094 	 56.7308 	 -57.1641
| 29> C 	 -131.173 	 57.1108 	 -58.013
| 30> H 	 -130.346 	 57.3979 	 -58.7321
| 31> H 	 -131.258 	 56.0238 	 -58.2857
| 32> C 	 -130.801 	 57.28 	 -56.5134
| 33> H 	 -129.771 	 56.9757 	 -56.266
| 34> H 	 -131.538 	 56.759 	 -55.8901
| 35> C 	 -130.882 	 58.7475 	 -56.045
| 36> H 	 -130.55 	 58.9507 	 -55.0227
| 37> H 	 -131.907 	 59.1928 	 -56.1124
| 38> H 	 -130.211 	 59.3278 	 -56.6372
| 39> H 	 -130.308 	 60.6052 	 -63.5344
| 40> H 	 -135.804 	 58.1878 	 -58.1161
| 41> *
| 42>
| 43>                          ****END OF INPUT****

CARTESIAN COORDINATES (ANGSTROEM)
---------------------------------
  S    -132.296000   59.681900  -62.228300
  C    -130.719000   60.439100  -62.578300
  C    -129.872000   60.411300  -61.533100
  C    -130.478000   59.855200  -60.367700
  C    -131.726000   59.335600  -60.574800
  H    -130.030000   59.809300  -59.397900
  C    -128.407000   60.801200  -61.465300
  H    -128.125000   61.091600  -60.467700
  H    -128.292000   61.606100  -62.138000
  C    -127.385000   59.694400  -61.962200
  H    -127.608000   59.216400  -62.935700
  H    -126.337000   60.102900  -61.966300
  C    -127.196000   58.646300  -60.874900
  H    -126.709000   58.930600  -59.952300
  H    -128.175000   58.384100  -60.378400
  H    -126.878000   57.674600  -61.219600
  S    -134.177000   59.415100  -59.678800
  C    -134.751000   58.300700  -58.432400
  C    -133.752000   57.517000  -57.841200
  C    -132.482000   57.833200  -58.442000
  C    -132.584000   58.768300  -59.515700
  H    -134.094000   56.730800  -57.164100
  C    -131.173000   57.110800  -58.013000
  H    -130.346000   57.397900  -58.732100
  H    -131.258000   56.023800  -58.285700
  C    -130.801000   57.280000  -56.513400
  H    -129.771000   56.975700  -56.266000
  H    -131.538000   56.759000  -55.890100
  C    -130.882000   58.747500  -56.045000
  H    -130.550000   58.950700  -55.022700
  H    -131.907000   59.192800  -56.112400
  H    -130.211000   59.327800  -56.637200
  H    -130.308000   60.605200  -63.534400
  H    -135.804000   58.187800  -58.116100

 Total Charge           Charge          ....    0
 Multiplicity           Mult            ....    1
 Number of Electrons    NEL             ....  134
 Basis Dimension        Dim             ....  322

ORBITAL ENERGIES
----------------

  NO   OCC          E(Eh)            E(eV)
   0   2.0000     -88.971016     -2421.0244
   1   2.0000     -88.967615     -2420.9319
   2   2.0000     -10.333072      -281.1772
   3   2.0000     -10.331216      -281.1267
   4   2.0000     -10.319864      -280.8178
   5   2.0000     -10.316385      -280.7231
   6   2.0000     -10.310069      -280.5512
   7   2.0000     -10.303253      -280.3658
   8   2.0000     -10.301423      -280.3160
   9   2.0000     -10.298281      -280.2305
  10   2.0000     -10.297968      -280.2220
  11   2.0000     -10.294702      -280.1331
  12   2.0000     -10.293223      -280.0928
  13   2.0000     -10.288268      -279.9580
  14   2.0000     -10.275541      -279.6117
  15   2.0000     -10.273280      -279.5502
  16   2.0000      -8.084448      -219.9890
  17   2.0000      -8.082467      -219.9351
  18   2.0000      -6.043203      -164.4439
  19   2.0000      -6.040921      -164.3818
  20   2.0000      -6.039301      -164.3377
  21   2.0000      -6.036909      -164.2727
  22   2.0000      -6.034836      -164.2162
  23   2.0000      -6.033302      -164.1745
  24   2.0000      -1.005738       -27.3675
  25   2.0000      -0.981244       -26.7010
  26   2.0000      -0.910699       -24.7814
  27   2.0000      -0.901390       -24.5281
  28   2.0000      -0.870585       -23.6898
  29   2.0000      -0.848078       -23.0774
  30   2.0000      -0.842759       -22.9326
  31   2.0000      -0.815037       -22.1783
  32   2.0000      -0.782714       -21.2987
  33   2.0000      -0.770643       -20.9703
  34   2.0000      -0.708898       -19.2901
  35   2.0000      -0.702715       -19.1219
  36   2.0000      -0.688278       -18.7290
  37   2.0000      -0.658897       -17.9295
  38   2.0000      -0.637956       -17.3597
  39   2.0000      -0.619685       -16.8625
  40   2.0000      -0.589213       -16.0333
  41   2.0000      -0.575941       -15.6721
  42   2.0000      -0.552919       -15.0457
  43   2.0000      -0.546922       -14.8825
  44   2.0000      -0.543097       -14.7784
  45   2.0000      -0.538090       -14.6422
  46   2.0000      -0.519412       -14.1339
  47   2.0000      -0.508674       -13.8417
  48   2.0000      -0.498235       -13.5577
  49   2.0000      -0.492615       -13.4047
  50   2.0000      -0.487154       -13.2561
  51   2.0000      -0.480324       -13.0703
  52   2.0000      -0.466070       -12.6824
  53   2.0000      -0.460618       -12.5341
  54   2.0000      -0.456472       -12.4212
  55   2.0000      -0.448651       -12.2084
  56   2.0000      -0.443326       -12.0635
  57   2.0000      -0.439548       -11.9607
  58   2.0000      -0.434141       -11.8136
  59   2.0000      -0.429716       -11.6932
  60   2.0000      -0.421326       -11.4649
  61   2.0000      -0.412559       -11.2263
  62   2.0000      -0.404879       -11.0173
  63   2.0000      -0.352122        -9.5817
  64   2.0000      -0.333160        -9.0657
  65   2.0000      -0.332448        -9.0464
  66   2.0000      -0.287511        -7.8236
  67   0.0000       0.025111         0.6833
  68   0.0000       0.069252         1.8845
  69   0.0000       0.101525         2.7626
  70   0.0000       0.114659         3.1200
  71   0.0000       0.125916         3.4264

MULLIKEN ATOMIC CHARGES
-----------------------
   0 S :    0.107382
   1 C :   -0.094240
   2 C :   -0.080984
   3 C :    0.021834
   4 C :   -0.121113
   5 H :    0.001302
   6 C :    0.097873
   7 H :    0.022109
   8 H :    0.015362
   9 C :   -0.063959
  10 H :    0.043362
  11 H :    0.043890
  12 C :   -0.070325
  13 H :    0.023123
  14 H :    0.006551
  15 H :    0.032401
  16 S :    0.103809
  17 C :   -0.112933
  18 C :   -0.046847
  19 C :   -0.040332
  20 C :   -0.158387
  21 H :    0.038406
  22 C :    0.031723
  23 H :    0.029070
  24 H :    0.045771
  25 C :   -0.060046
  26 H :    0.039529
  27 H :    0.035521
  28 C :   -0.074224
  29 H :    0.029202
  30 H :    0.052029
  31 H :    0.013701
  32 H :    0.026879
  33 H :    0.062560
Sum of atomic charges:   -0.0000000

LOEWDIN ATOMIC CHARGES
----------------------
   0 S :    0.375211
   1 C :   -0.181231
   2 C :   -0.058427
   3 C :   -0.061227
   4 C :   -0.184079
   5 H :    0.025195
   6 C :   -0.017821
   7 H :    0.030211
   8 H :    0.024872
   9 C :   -0.038805
  10 H :    0.029673
  11 H :    0.033806
  12 C :   -0.082851
  13 H :    0.022175
  14 H :    0.024562
  15 H :    0.024323
  16 S :    0.414687
  17 C :   -0.187315
  18 C :   -0.073632
  19 C :   -0.055725
  20 C :   -0.197750
  21 H :    0.041424
  22 C :   -0.042786
  23 H :    0.032832
  24 H :    0.037751
  25 C :   -0.041175
  26 H :    0.030152
  27 H :    0.024227
  28 C :   -0.072648
  29 H :    0.024916
  30 H :    0.032034
  31 H :    0.014859
  32 H :    0.021468
  33 H :    0.031093

  Mayer bond orders larger than 0.100000
B(  0-S ,  1-C ) :   1.1039 B(  0-S ,  4-C ) :   1.1290 B(  1-C ,  2-C ) :   1.6770
B(  1-C , 32-H ) :   0.9583 B(  2-C ,  3-C ) :   1.2056 B(  2-C ,  6-C ) :   1.0236
B(  3-C ,  4-C ) :   1.5993 B(  3-C ,  5-H ) :   0.9948 B(  4-C , 20-C ) :   1.0343
B(  6-C ,  7-H ) :   0.9448 B(  6-C ,  8-H ) :   0.9340 B(  6-C ,  9-C ) :   1.0643
B(  9-C , 10-H ) :   0.9599 B(  9-C , 11-H ) :   0.9591 B(  9-C , 12-C ) :   1.0615
B( 12-C , 13-H ) :   0.9733 B( 12-C , 14-H ) :   0.9711 B( 12-C , 15-H ) :   0.9718
B( 16-S , 17-C ) :   1.1507 B( 16-S , 20-C ) :   1.1573 B( 17-C , 18-C ) :   1.6277
B( 17-C , 33-H ) :   0.9616 B( 18-C , 19-C ) :   1.2213 B( 18-C , 21-H ) :   0.9895
B( 19-C , 20-C ) :   1.5831 B( 19-C , 22-C ) :   1.0298 B( 22-C , 23-H ) :   0.9429
B( 22-C , 24-H ) :   0.9426 B( 22-C , 25-C ) :   1.0548 B( 25-C , 26-H ) :   0.9594
B( 25-C , 27-H ) :   0.9564 B( 25-C , 28-C ) :   1.0780 B( 28-C , 29-H ) :   0.9736
B( 28-C , 30-H ) :   0.9681 B( 28-C , 31-H ) :   0.9764

Dispersion correction           -0.015230898
FINAL SINGLE POINT ENERGY     -1339.861935255028

DIPOLE MOMENT
-------------
                                X             Y             Z
Electronic contribution:    -25.25329       5.52972     -12.88410
Nuclear contribution   :     25.78049      -5.75956      13.18771
                        -----------------------------------------
Total Dipole Moment    :      0.52720      -0.22984       0.30360
                        -----------------------------------------
Magnitude (a.u.)       :      0.65034
Magnitude (Debye)      :      1.65303

Rotational constants in cm-1:     0.018259     0.010006     0.007020
Rotational constants in MHz :   547.376667   299.970334   210.439839

                             ****ORCA TERMINATED NORMALLY****
TOTAL RUN TIME: 0 days 0 hours 0 minutes 22 seconds 480 msec
