                         Program Version 4.2.1 -  RELEASE  -
|  1> ! wB97X-D3 SP def2-SVP
|  2> %pal
|  3> nprocs 24
|  4> end
|  5>
|  6> * xyz 0 1
|  7> S 	 -99.0072 	 0.822966 	 -103.338
|  8> C 	 -98.9224 	 2.289 	 -104.348
|  9> C 	 -99.9685 	 2.24786 	 -105.291
| 10> C 	 -100.849 	 1.14545 	 -104.988
| 11> C 	 -100.504 	 0.339029 	 -103.906
| 12> H 	 -101.83 	 0.981519 	 -105.433
| 13> C 	 -100.299 	 3.3655 	 -106.306
| 14> H 	 -99.5034 	 4.13522 	 -106.302
| 15> H 	 -101.194 	 3.72299 	 -105.765
| 16> C 	 -100.563 	 3.00694 	 -107.78
| 17> H 	 -99.8295 	 2.49937 	 -108.295
| 18> H 	 -101.426 	 2.29537 	 -107.761
| 19> C 	 -101.159 	 4.17844 	 -108.643
| 20> H 	 -101.448 	 3.81789 	 -109.591
| 21> H 	 -102.089 	 4.63322 	 -108.118
| 22> H 	 -100.404 	 5.02285 	 -108.832
| 23> S 	 -100.701 	 -2.06583 	 -102.441
| 24> C 	 -102.347 	 -2.67164 	 -102.17
| 25> C 	 -103.346 	 -1.72691 	 -102.387
| 26> C 	 -102.816 	 -0.49778 	 -102.921
| 27> C 	 -101.399 	 -0.608776 	 -103.199
| 28> H 	 -104.314 	 -2.09249 	 -102.175
| 29> C 	 -103.737 	 0.709628 	 -103.037
| 30> H 	 -103.234 	 1.65299 	 -103.22
| 31> H 	 -104.168 	 0.868092 	 -102.045
| 32> C 	 -104.778 	 0.466649 	 -104.101
| 33> H 	 -105.402 	 -0.33434 	 -103.727
| 34> H 	 -104.354 	 0.0157912 	 -104.981
| 35> C 	 -105.669 	 1.5885 	 -104.51
| 36> H 	 -106.41 	 1.07834 	 -105.116
| 37> H 	 -105.043 	 2.23758 	 -105.129
| 38> H 	 -106.103 	 2.17331 	 -103.667
| 39> H 	 -98.2271 	 3.11979 	 -104.259
| 40> H 	 -102.639 	 -3.60577 	 -101.69
| 41> *
| 42>
| 43>                          ****END OF INPUT****

CARTESIAN COORDINATES (ANGSTROEM)
---------------------------------
  S    -99.007200    0.822966  -103.338000
  C    -98.922400    2.289000  -104.348000
  C    -99.968500    2.247860  -105.291000
  C    -100.849000    1.145450  -104.988000
  C    -100.504000    0.339029  -103.906000
  H    -101.830000    0.981519  -105.433000
  C    -100.299000    3.365500  -106.306000
  H    -99.503400    4.135220  -106.302000
  H    -101.194000    3.722990  -105.765000
  C    -100.563000    3.006940  -107.780000
  H    -99.829500    2.499370  -108.295000
  H    -101.426000    2.295370  -107.761000
  C    -101.159000    4.178440  -108.643000
  H    -101.448000    3.817890  -109.591000
  H    -102.089000    4.633220  -108.118000
  H    -100.404000    5.022850  -108.832000
  S    -100.701000   -2.065830  -102.441000
  C    -102.347000   -2.671640  -102.170000
  C    -103.346000   -1.726910  -102.387000
  C    -102.816000   -0.497780  -102.921000
  C    -101.399000   -0.608776  -103.199000
  H    -104.314000   -2.092490  -102.175000
  C    -103.737000    0.709628  -103.037000
  H    -103.234000    1.652990  -103.220000
  H    -104.168000    0.868092  -102.045000
  C    -104.778000    0.466649  -104.101000
  H    -105.402000   -0.334340  -103.727000
  H    -104.354000    0.015791  -104.981000
  C    -105.669000    1.588500  -104.510000
  H    -106.410000    1.078340  -105.116000
  H    -105.043000    2.237580  -105.129000
  H    -106.103000    2.173310  -103.667000
  H    -98.227100    3.119790  -104.259000
  H    -102.639000   -3.605770  -101.690000

 Total Charge           Charge          ....    0
 Multiplicity           Mult            ....    1
 Number of Electrons    NEL             ....  134
 Basis Dimension        Dim             ....  322

ORBITAL ENERGIES
----------------

  NO   OCC          E(Eh)            E(eV)
   0   2.0000     -88.970399     -2421.0076
   1   2.0000     -88.963612     -2420.8230
   2   2.0000     -10.340122      -281.3690
   3   2.0000     -10.327639      -281.0294
   4   2.0000     -10.320400      -280.8324
   5   2.0000     -10.318779      -280.7883
   6   2.0000     -10.316283      -280.7203
   7   2.0000     -10.310219      -280.5553
   8   2.0000     -10.303565      -280.3743
   9   2.0000     -10.295696      -280.1601
  10   2.0000     -10.293491      -280.1001
  11   2.0000     -10.292694      -280.0784
  12   2.0000     -10.291171      -280.0370
  13   2.0000     -10.290844      -280.0281
  14   2.0000     -10.279894      -279.7301
  15   2.0000     -10.278046      -279.6799
  16   2.0000      -8.084018      -219.9773
  17   2.0000      -8.079342      -219.8501
  18   2.0000      -6.042556      -164.4263
  19   2.0000      -6.038922      -164.3274
  20   2.0000      -6.037826      -164.2976
  21   2.0000      -6.034581      -164.2093
  22   2.0000      -6.033593      -164.1824
  23   2.0000      -6.030166      -164.0892
  24   2.0000      -1.004270       -27.3276
  25   2.0000      -0.977999       -26.6127
  26   2.0000      -0.917980       -24.9795
  27   2.0000      -0.908242       -24.7145
  28   2.0000      -0.866140       -23.5689
  29   2.0000      -0.853585       -23.2272
  30   2.0000      -0.842420       -22.9234
  31   2.0000      -0.813770       -22.1438
  32   2.0000      -0.783548       -21.3214
  33   2.0000      -0.771903       -21.0045
  34   2.0000      -0.707458       -19.2509
  35   2.0000      -0.698149       -18.9976
  36   2.0000      -0.693133       -18.8611
  37   2.0000      -0.655233       -17.8298
  38   2.0000      -0.637774       -17.3547
  39   2.0000      -0.619258       -16.8509
  40   2.0000      -0.594982       -16.1903
  41   2.0000      -0.571237       -15.5442
  42   2.0000      -0.567556       -15.4440
  43   2.0000      -0.561943       -15.2912
  44   2.0000      -0.537816       -14.6347
  45   2.0000      -0.529456       -14.4072
  46   2.0000      -0.510894       -13.9021
  47   2.0000      -0.507277       -13.8037
  48   2.0000      -0.502812       -13.6822
  49   2.0000      -0.498087       -13.5536
  50   2.0000      -0.497969       -13.5504
  51   2.0000      -0.481299       -13.0968
  52   2.0000      -0.469088       -12.7645
  53   2.0000      -0.466429       -12.6922
  54   2.0000      -0.460955       -12.5432
  55   2.0000      -0.452807       -12.3215
  56   2.0000      -0.445424       -12.1206
  57   2.0000      -0.441175       -12.0050
  58   2.0000      -0.437543       -11.9061
  59   2.0000      -0.427509       -11.6331
  60   2.0000      -0.414223       -11.2716
  61   2.0000      -0.412138       -11.2148
  62   2.0000      -0.409077       -11.1316
  63   2.0000      -0.348438        -9.4815
  64   2.0000      -0.331217        -9.0129
  65   2.0000      -0.326125        -8.8743
  66   2.0000      -0.283727        -7.7206
  67   0.0000       0.022385         0.6091
  68   0.0000       0.068815         1.8725
  69   0.0000       0.094037         2.5589
  70   0.0000       0.113647         3.0925
  71   0.0000       0.121442         3.3046

MULLIKEN ATOMIC CHARGES
-----------------------
   0 S :    0.102246
   1 C :   -0.137952
   2 C :   -0.073241
   3 C :   -0.012781
   4 C :   -0.105121
   5 H :    0.005048
   6 C :    0.047118
   7 H :    0.026095
   8 H :    0.048421
   9 C :   -0.053388
  10 H :    0.024385
  11 H :    0.025564
  12 C :   -0.085902
  13 H :    0.031491
  14 H :    0.042816
  15 H :    0.043175
  16 S :    0.105340
  17 C :   -0.093668
  18 C :   -0.033583
  19 C :   -0.041637
  20 C :   -0.147697
  21 H :    0.012591
  22 C :    0.104754
  23 H :    0.014945
  24 H :    0.032470
  25 C :   -0.124844
  26 H :    0.014376
  27 H :    0.025383
  28 C :   -0.007205
  29 H :    0.036927
  30 H :    0.026299
  31 H :    0.039416
  32 H :    0.052309
  33 H :    0.055850
Sum of atomic charges:    0.0000000

LOEWDIN ATOMIC CHARGES
----------------------
   0 S :    0.421669
   1 C :   -0.198234
   2 C :   -0.057755
   3 C :   -0.077379
   4 C :   -0.219416
   5 H :    0.026403
   6 C :   -0.031817
   7 H :    0.029285
   8 H :    0.042631
   9 C :   -0.037827
  10 H :    0.015683
  11 H :    0.028786
  12 C :   -0.068867
  13 H :    0.018089
  14 H :    0.034485
  15 H :    0.028490
  16 S :    0.380921
  17 C :   -0.177057
  18 C :   -0.066310
  19 C :   -0.040122
  20 C :   -0.186731
  21 H :    0.028840
  22 C :   -0.031322
  23 H :    0.025027
  24 H :    0.035722
  25 C :   -0.050494
  26 H :    0.018907
  27 H :    0.023287
  28 C :   -0.060788
  29 H :    0.031382
  30 H :    0.023483
  31 H :    0.029419
  32 H :    0.030830
  33 H :    0.030780

  Mayer bond orders larger than 0.100000
B(  0-S ,  1-C ) :   1.1404 B(  0-S ,  4-C ) :   1.1686 B(  1-C ,  2-C ) :   1.5863
B(  1-C , 32-H ) :   0.9726 B(  2-C ,  3-C ) :   1.2442 B(  2-C ,  6-C ) :   1.0078
B(  3-C ,  4-C ) :   1.5576 B(  3-C ,  5-H ) :   0.9970 B(  4-C , 20-C ) :   1.0431
B(  6-C ,  7-H ) :   0.9475 B(  6-C ,  8-H ) :   0.9436 B(  6-C ,  9-C ) :   1.0563
B(  9-C , 10-H ) :   0.9616 B(  9-C , 11-H ) :   0.9544 B(  9-C , 12-C ) :   1.0762
B( 12-C , 13-H ) :   0.9756 B( 12-C , 14-H ) :   0.9759 B( 12-C , 15-H ) :   0.9761
B( 16-S , 17-C ) :   1.1403 B( 16-S , 20-C ) :   1.1297 B( 17-C , 18-C ) :   1.6508
B( 17-C , 20-C ) :   0.1008 B( 17-C , 33-H ) :   0.9617 B( 18-C , 19-C ) :   1.2077
B( 18-C , 21-H ) :   0.9944 B( 19-C , 20-C ) :   1.5734 B( 19-C , 22-C ) :   1.0411
B( 22-C , 23-H ) :   0.9381 B( 22-C , 24-H ) :   0.9312 B( 22-C , 25-C ) :   1.0514
B( 25-C , 26-H ) :   0.9523 B( 25-C , 27-H ) :   0.9537 B( 25-C , 28-C ) :   1.0904
B( 28-C , 29-H ) :   0.9720 B( 28-C , 30-H ) :   0.9740 B( 28-C , 31-H ) :   0.9706

Dispersion correction           -0.013856365
FINAL SINGLE POINT ENERGY     -1339.850452515997

DIPOLE MOMENT
-------------
                                X             Y             Z
Electronic contribution:     20.08821     -19.21202      19.48000
Nuclear contribution   :    -20.81029      19.59567     -19.70811
                        -----------------------------------------
Total Dipole Moment    :     -0.72208       0.38365      -0.22812
                        -----------------------------------------
Magnitude (a.u.)       :      0.84890
Magnitude (Debye)      :      2.15773

Rotational constants in cm-1:     0.016747     0.008960     0.006301
Rotational constants in MHz :   502.070367   268.617524   188.886006

                             ****ORCA TERMINATED NORMALLY****
TOTAL RUN TIME: 0 days 0 hours 0 minutes 21 seconds 350 msec
