                         Program Version 4.2.1 -  RELEASE  -
|  1> ! wB97X-D3 SP def2-SVP
|  2> %pal
|  3> nprocs 24
|  4> end
|  5>
|  6> * xyz 0 1
|  7> S 	 -46.6436 	 -50.4134 	 -74.6345
|  8> C 	 -46.2084 	 -48.6957 	 -74.7724
|  9> C 	 -45.2087 	 -48.3007 	 -73.8824
| 10> C 	 -45.1572 	 -49.3197 	 -72.9041
| 11> C 	 -45.8985 	 -50.4528 	 -73.0514
| 12> H 	 -44.6788 	 -49.2214 	 -71.9231
| 13> C 	 -44.5203 	 -46.9925 	 -73.8076
| 14> H 	 -44.961 	 -46.2603 	 -73.0748
| 15> H 	 -44.5376 	 -46.6571 	 -74.8818
| 16> C 	 -43.0114 	 -46.9161 	 -73.4356
| 17> H 	 -42.9762 	 -47.2182 	 -72.3469
| 18> H 	 -42.3611 	 -47.5644 	 -73.9472
| 19> C 	 -42.4697 	 -45.4894 	 -73.3589
| 20> H 	 -41.4303 	 -45.477 	 -73.1176
| 21> H 	 -42.2551 	 -45.0527 	 -74.3639
| 22> H 	 -43.0698 	 -44.7283 	 -72.758
| 23> S 	 -45.5641 	 -53.214 	 -73.0449
| 24> C 	 -45.7616 	 -54.0244 	 -71.5094
| 25> C 	 -46.1916 	 -53.1858 	 -70.5074
| 26> C 	 -46.3126 	 -51.7967 	 -70.8937
| 27> C 	 -45.9111 	 -51.649 	 -72.241
| 28> H 	 -46.5431 	 -53.6236 	 -69.6141
| 29> C 	 -46.9548 	 -50.7498 	 -69.9959
| 30> H 	 -47.7233 	 -51.2041 	 -69.3849
| 31> H 	 -47.3138 	 -50.0516 	 -70.7301
| 32> C 	 -46.0709 	 -49.9074 	 -69.0857
| 33> H 	 -46.7697 	 -49.0468 	 -68.7416
| 34> H 	 -45.2336 	 -49.442 	 -69.6694
| 35> C 	 -45.5816 	 -50.7018 	 -67.834
| 36> H 	 -44.9551 	 -51.4793 	 -68.2382
| 37> H 	 -46.4174 	 -51.1923 	 -67.2881
| 38> H 	 -44.8531 	 -50.1947 	 -67.1681
| 39> H 	 -46.3118 	 -48.047 	 -75.609
| 40> H 	 -45.6949 	 -55.0813 	 -71.4001
| 41> *
| 42>
| 43>                          ****END OF INPUT****

CARTESIAN COORDINATES (ANGSTROEM)
---------------------------------
  S    -46.643600  -50.413400  -74.634500
  C    -46.208400  -48.695700  -74.772400
  C    -45.208700  -48.300700  -73.882400
  C    -45.157200  -49.319700  -72.904100
  C    -45.898500  -50.452800  -73.051400
  H    -44.678800  -49.221400  -71.923100
  C    -44.520300  -46.992500  -73.807600
  H    -44.961000  -46.260300  -73.074800
  H    -44.537600  -46.657100  -74.881800
  C    -43.011400  -46.916100  -73.435600
  H    -42.976200  -47.218200  -72.346900
  H    -42.361100  -47.564400  -73.947200
  C    -42.469700  -45.489400  -73.358900
  H    -41.430300  -45.477000  -73.117600
  H    -42.255100  -45.052700  -74.363900
  H    -43.069800  -44.728300  -72.758000
  S    -45.564100  -53.214000  -73.044900
  C    -45.761600  -54.024400  -71.509400
  C    -46.191600  -53.185800  -70.507400
  C    -46.312600  -51.796700  -70.893700
  C    -45.911100  -51.649000  -72.241000
  H    -46.543100  -53.623600  -69.614100
  C    -46.954800  -50.749800  -69.995900
  H    -47.723300  -51.204100  -69.384900
  H    -47.313800  -50.051600  -70.730100
  C    -46.070900  -49.907400  -69.085700
  H    -46.769700  -49.046800  -68.741600
  H    -45.233600  -49.442000  -69.669400
  C    -45.581600  -50.701800  -67.834000
  H    -44.955100  -51.479300  -68.238200
  H    -46.417400  -51.192300  -67.288100
  H    -44.853100  -50.194700  -67.168100
  H    -46.311800  -48.047000  -75.609000
  H    -45.694900  -55.081300  -71.400100

 Total Charge           Charge          ....    0
 Multiplicity           Mult            ....    1
 Number of Electrons    NEL             ....  134
 Basis Dimension        Dim             ....  322

ORBITAL ENERGIES
----------------

  NO   OCC          E(Eh)            E(eV)
   0   2.0000     -88.968333     -2420.9514
   1   2.0000     -88.967893     -2420.9394
   2   2.0000     -10.331430      -281.1325
   3   2.0000     -10.324411      -280.9415
   4   2.0000     -10.315348      -280.6949
   5   2.0000     -10.315129      -280.6889
   6   2.0000     -10.308505      -280.5087
   7   2.0000     -10.303962      -280.3851
   8   2.0000     -10.302303      -280.3399
   9   2.0000     -10.299077      -280.2521
  10   2.0000     -10.293275      -280.0942
  11   2.0000     -10.291206      -280.0379
  12   2.0000     -10.290950      -280.0310
  13   2.0000     -10.290179      -280.0100
  14   2.0000     -10.286947      -279.9221
  15   2.0000     -10.281910      -279.7850
  16   2.0000      -8.082477      -219.9354
  17   2.0000      -8.082193      -219.9277
  18   2.0000      -6.041027      -164.3847
  19   2.0000      -6.040769      -164.3777
  20   2.0000      -6.037236      -164.2816
  21   2.0000      -6.037008      -164.2753
  22   2.0000      -6.033077      -164.1684
  23   2.0000      -6.032642      -164.1565
  24   2.0000      -1.006274       -27.3821
  25   2.0000      -0.981201       -26.6998
  26   2.0000      -0.914777       -24.8924
  27   2.0000      -0.909382       -24.7455
  28   2.0000      -0.872881       -23.7523
  29   2.0000      -0.849422       -23.1139
  30   2.0000      -0.843655       -22.9570
  31   2.0000      -0.815425       -22.1889
  32   2.0000      -0.787195       -21.4207
  33   2.0000      -0.774999       -21.0888
  34   2.0000      -0.713202       -19.4072
  35   2.0000      -0.698366       -19.0035
  36   2.0000      -0.687333       -18.7033
  37   2.0000      -0.661120       -17.9900
  38   2.0000      -0.643041       -17.4980
  39   2.0000      -0.615289       -16.7429
  40   2.0000      -0.594238       -16.1700
  41   2.0000      -0.586660       -15.9638
  42   2.0000      -0.564233       -15.3536
  43   2.0000      -0.554580       -15.0909
  44   2.0000      -0.537878       -14.6364
  45   2.0000      -0.522392       -14.2150
  46   2.0000      -0.513057       -13.9610
  47   2.0000      -0.507736       -13.8162
  48   2.0000      -0.500703       -13.6248
  49   2.0000      -0.496306       -13.5052
  50   2.0000      -0.492558       -13.4032
  51   2.0000      -0.478746       -13.0273
  52   2.0000      -0.468728       -12.7547
  53   2.0000      -0.467614       -12.7244
  54   2.0000      -0.456468       -12.4211
  55   2.0000      -0.449724       -12.2376
  56   2.0000      -0.445628       -12.1262
  57   2.0000      -0.444597       -12.0981
  58   2.0000      -0.436420       -11.8756
  59   2.0000      -0.433100       -11.7853
  60   2.0000      -0.424313       -11.5462
  61   2.0000      -0.407858       -11.0984
  62   2.0000      -0.398418       -10.8415
  63   2.0000      -0.345198        -9.3933
  64   2.0000      -0.332275        -9.0417
  65   2.0000      -0.331631        -9.0241
  66   2.0000      -0.290670        -7.9095
  67   0.0000       0.026197         0.7129
  68   0.0000       0.058197         1.5836
  69   0.0000       0.103289         2.8106
  70   0.0000       0.115103         3.1321
  71   0.0000       0.123471         3.3598

MULLIKEN ATOMIC CHARGES
-----------------------
   0 S :    0.104469
   1 C :   -0.082670
   2 C :   -0.065888
   3 C :    0.022629
   4 C :   -0.166396
   5 H :   -0.001065
   6 C :    0.032319
   7 H :    0.056656
   8 H :    0.030742
   9 C :   -0.079201
  10 H :    0.033956
  11 H :    0.026161
  12 C :   -0.065204
  13 H :    0.023610
  14 H :    0.019136
  15 H :    0.052122
  16 S :    0.104986
  17 C :   -0.080719
  18 C :   -0.016935
  19 C :   -0.039461
  20 C :   -0.162103
  21 H :    0.001793
  22 C :    0.090813
  23 H :    0.026742
  24 H :    0.032142
  25 C :   -0.101311
  26 H :    0.043565
  27 H :    0.038078
  28 C :   -0.061439
  29 H :    0.026393
  30 H :    0.037237
  31 H :    0.042563
  32 H :    0.028508
  33 H :    0.047775
Sum of atomic charges:   -0.0000000

LOEWDIN ATOMIC CHARGES
----------------------
   0 S :    0.392583
   1 C :   -0.176238
   2 C :   -0.067738
   3 C :   -0.061994
   4 C :   -0.200824
   5 H :    0.026224
   6 C :   -0.039611
   7 H :    0.044594
   8 H :    0.037040
   9 C :   -0.039382
  10 H :    0.028649
  11 H :    0.018959
  12 C :   -0.079506
  13 H :    0.026929
  14 H :    0.026493
  15 H :    0.035268
  16 S :    0.387128
  17 C :   -0.178696
  18 C :   -0.068152
  19 C :   -0.048519
  20 C :   -0.186263
  21 H :    0.023730
  22 C :   -0.029583
  23 H :    0.032283
  24 H :    0.035970
  25 C :   -0.042514
  26 H :    0.031448
  27 H :    0.025019
  28 C :   -0.078748
  29 H :    0.024156
  30 H :    0.028385
  31 H :    0.030470
  32 H :    0.018999
  33 H :    0.023438

  Mayer bond orders larger than 0.100000
B(  0-S ,  1-C ) :   1.1415 B(  0-S ,  4-C ) :   1.1131 B(  1-C ,  2-C ) :   1.6202
B(  1-C , 32-H ) :   0.9599 B(  2-C ,  3-C ) :   1.2203 B(  2-C ,  6-C ) :   1.0342
B(  3-C ,  4-C ) :   1.6111 B(  3-C ,  5-H ) :   0.9866 B(  4-C , 20-C ) :   1.0598
B(  6-C ,  7-H ) :   0.9379 B(  6-C ,  8-H ) :   0.9360 B(  6-C ,  9-C ) :   1.0612
B(  9-C , 10-H ) :   0.9505 B(  9-C , 11-H ) :   0.9578 B(  9-C , 12-C ) :   1.0919
B( 12-C , 13-H ) :   0.9665 B( 12-C , 14-H ) :   0.9673 B( 12-C , 15-H ) :   0.9713
B( 16-S , 17-C ) :   1.1398 B( 16-S , 20-C ) :   1.1321 B( 17-C , 18-C ) :   1.6363
B( 17-C , 33-H ) :   0.9685 B( 18-C , 19-C ) :   1.2152 B( 18-C , 21-H ) :   0.9922
B( 19-C , 20-C ) :   1.5976 B( 19-C , 22-C ) :   1.0387 B( 22-C , 23-H ) :   0.9392
B( 22-C , 24-H ) :   0.9177 B( 22-C , 25-C ) :   1.0785 B( 25-C , 26-H ) :   0.9546
B( 25-C , 27-H ) :   0.9511 B( 25-C , 28-C ) :   1.0633 B( 28-C , 29-H ) :   0.9740
B( 28-C , 30-H ) :   0.9742 B( 28-C , 31-H ) :   0.9742

Dispersion correction           -0.013981720
FINAL SINGLE POINT ENERGY     -1339.852932742020

DIPOLE MOMENT
-------------
                                X             Y             Z
Electronic contribution:    -10.49497     -22.14572     -17.26167
Nuclear contribution   :     10.73142      22.51929      17.67410
                        -----------------------------------------
Total Dipole Moment    :      0.23645       0.37357       0.41244
                        -----------------------------------------
Magnitude (a.u.)       :      0.60462
Magnitude (Debye)      :      1.53682

Rotational constants in cm-1:     0.017286     0.008570     0.006545
Rotational constants in MHz :   518.231338   256.911455   196.205028

                             ****ORCA TERMINATED NORMALLY****
TOTAL RUN TIME: 0 days 0 hours 0 minutes 21 seconds 391 msec
