                         Program Version 4.2.1 -  RELEASE  -
|  1> ! wB97X-D3 SP def2-SVP
|  2> %pal
|  3> nprocs 24
|  4> end
|  5>
|  6> * xyz 0 1
|  7> S 	 -94.4623 	 9.07766 	 -10.2812
|  8> C 	 -94.6652 	 10.8282 	 -10.4477
|  9> C 	 -95.0792 	 11.4005 	 -9.22304
| 10> C 	 -95.3029 	 10.3686 	 -8.25701
| 11> C 	 -95.0955 	 9.04276 	 -8.66499
| 12> H 	 -95.629 	 10.5868 	 -7.2802
| 13> C 	 -95.3964 	 12.8135 	 -9.10303
| 14> H 	 -95.8008 	 13.0587 	 -8.10743
| 15> H 	 -96.1227 	 13.1174 	 -9.8609
| 16> C 	 -94.1597 	 13.6069 	 -9.39237
| 17> H 	 -93.7705 	 13.2911 	 -10.3522
| 18> H 	 -94.2825 	 14.6844 	 -9.41479
| 19> C 	 -92.953 	 13.2594 	 -8.47574
| 20> H 	 -93.1038 	 13.8979 	 -7.57981
| 21> H 	 -92.7354 	 12.2016 	 -8.28939
| 22> H 	 -92.2094 	 13.7394 	 -9.11549
| 23> S 	 -95.7744 	 6.38892 	 -8.96387
| 24> C 	 -96.1488 	 5.46137 	 -7.49611
| 25> C 	 -95.9165 	 6.17919 	 -6.342
| 26> C 	 -95.6537 	 7.54435 	 -6.62553
| 27> C 	 -95.4333 	 7.80883 	 -7.97378
| 28> H 	 -96.0548 	 5.7028 	 -5.37044
| 29> C 	 -95.4412 	 8.49876 	 -5.50187
| 30> H 	 -94.6295 	 9.07108 	 -5.76268
| 31> H 	 -95.1642 	 8.06365 	 -4.57902
| 32> C 	 -96.6293 	 9.37209 	 -5.11888
| 33> H 	 -97.0771 	 8.71527 	 -4.34082
| 34> H 	 -97.3042 	 9.63305 	 -5.91858
| 35> C 	 -96.0845 	 10.6963 	 -4.55602
| 36> H 	 -96.8354 	 11.2669 	 -4.0379
| 37> H 	 -95.5841 	 11.2676 	 -5.41696
| 38> H 	 -95.3077 	 10.5998 	 -3.76863
| 39> H 	 -94.4332 	 11.3655 	 -11.2862
| 40> H 	 -96.6618 	 4.48474 	 -7.48865
| 41> *
| 42>
| 43>                          ****END OF INPUT****

CARTESIAN COORDINATES (ANGSTROEM)
---------------------------------
  S    -94.462300    9.077660  -10.281200
  C    -94.665200   10.828200  -10.447700
  C    -95.079200   11.400500   -9.223040
  C    -95.302900   10.368600   -8.257010
  C    -95.095500    9.042760   -8.664990
  H    -95.629000   10.586800   -7.280200
  C    -95.396400   12.813500   -9.103030
  H    -95.800800   13.058700   -8.107430
  H    -96.122700   13.117400   -9.860900
  C    -94.159700   13.606900   -9.392370
  H    -93.770500   13.291100  -10.352200
  H    -94.282500   14.684400   -9.414790
  C    -92.953000   13.259400   -8.475740
  H    -93.103800   13.897900   -7.579810
  H    -92.735400   12.201600   -8.289390
  H    -92.209400   13.739400   -9.115490
  S    -95.774400    6.388920   -8.963870
  C    -96.148800    5.461370   -7.496110
  C    -95.916500    6.179190   -6.342000
  C    -95.653700    7.544350   -6.625530
  C    -95.433300    7.808830   -7.973780
  H    -96.054800    5.702800   -5.370440
  C    -95.441200    8.498760   -5.501870
  H    -94.629500    9.071080   -5.762680
  H    -95.164200    8.063650   -4.579020
  C    -96.629300    9.372090   -5.118880
  H    -97.077100    8.715270   -4.340820
  H    -97.304200    9.633050   -5.918580
  C    -96.084500   10.696300   -4.556020
  H    -96.835400   11.266900   -4.037900
  H    -95.584100   11.267600   -5.416960
  H    -95.307700   10.599800   -3.768630
  H    -94.433200   11.365500  -11.286200
  H    -96.661800    4.484740   -7.488650

 Total Charge           Charge          ....    0
 Multiplicity           Mult            ....    1
 Number of Electrons    NEL             ....  134
 Basis Dimension        Dim             ....  322

ORBITAL ENERGIES
----------------

  NO   OCC          E(Eh)            E(eV)
   0   2.0000     -88.968630     -2420.9595
   1   2.0000     -88.968061     -2420.9440
   2   2.0000     -10.333792      -281.1968
   3   2.0000     -10.331300      -281.1290
   4   2.0000     -10.321165      -280.8532
   5   2.0000     -10.310475      -280.5623
   6   2.0000     -10.302683      -280.3503
   7   2.0000     -10.301427      -280.3161
   8   2.0000     -10.295781      -280.1625
   9   2.0000     -10.291847      -280.0554
  10   2.0000     -10.288675      -279.9691
  11   2.0000     -10.287663      -279.9415
  12   2.0000     -10.287461      -279.9361
  13   2.0000     -10.282482      -279.8006
  14   2.0000     -10.277075      -279.6534
  15   2.0000     -10.275416      -279.6083
  16   2.0000      -8.082686      -219.9411
  17   2.0000      -8.082367      -219.9324
  18   2.0000      -6.041309      -164.3924
  19   2.0000      -6.040921      -164.3818
  20   2.0000      -6.037371      -164.2852
  21   2.0000      -6.036829      -164.2705
  22   2.0000      -6.033285      -164.1740
  23   2.0000      -6.033225      -164.1724
  24   2.0000      -1.006689       -27.3934
  25   2.0000      -0.983613       -26.7655
  26   2.0000      -0.926033       -25.1986
  27   2.0000      -0.918748       -25.0004
  28   2.0000      -0.867795       -23.6139
  29   2.0000      -0.852778       -23.2053
  30   2.0000      -0.845010       -22.9939
  31   2.0000      -0.816036       -22.2055
  32   2.0000      -0.784950       -21.3596
  33   2.0000      -0.773371       -21.0445
  34   2.0000      -0.710150       -19.3242
  35   2.0000      -0.700718       -19.0675
  36   2.0000      -0.692411       -18.8415
  37   2.0000      -0.667202       -18.1555
  38   2.0000      -0.640992       -17.4423
  39   2.0000      -0.619078       -16.8460
  40   2.0000      -0.602876       -16.4051
  41   2.0000      -0.584861       -15.9149
  42   2.0000      -0.576799       -15.6955
  43   2.0000      -0.555244       -15.1090
  44   2.0000      -0.547106       -14.8875
  45   2.0000      -0.524924       -14.2839
  46   2.0000      -0.516423       -14.0526
  47   2.0000      -0.514651       -14.0044
  48   2.0000      -0.510333       -13.8869
  49   2.0000      -0.503869       -13.7110
  50   2.0000      -0.497825       -13.5465
  51   2.0000      -0.482140       -13.1197
  52   2.0000      -0.469619       -12.7790
  53   2.0000      -0.463352       -12.6084
  54   2.0000      -0.458616       -12.4796
  55   2.0000      -0.449661       -12.2359
  56   2.0000      -0.444107       -12.0848
  57   2.0000      -0.437182       -11.8963
  58   2.0000      -0.430283       -11.7086
  59   2.0000      -0.423578       -11.5261
  60   2.0000      -0.418150       -11.3784
  61   2.0000      -0.416642       -11.3374
  62   2.0000      -0.408475       -11.1152
  63   2.0000      -0.357612        -9.7311
  64   2.0000      -0.335013        -9.1162
  65   2.0000      -0.328732        -8.9453
  66   2.0000      -0.278068        -7.5666
  67   0.0000       0.016164         0.4398
  68   0.0000       0.073793         2.0080
  69   0.0000       0.101275         2.7558
  70   0.0000       0.118734         3.2309
  71   0.0000       0.129165         3.5148

MULLIKEN ATOMIC CHARGES
-----------------------
   0 S :    0.104677
   1 C :   -0.105422
   2 C :   -0.105068
   3 C :    0.057153
   4 C :   -0.109004
   5 H :   -0.091206
   6 C :    0.139881
   7 H :    0.017627
   8 H :    0.041280
   9 C :   -0.122784
  10 H :    0.012310
  11 H :    0.028700
  12 C :   -0.064306
  13 H :    0.033293
  14 H :    0.066509
  15 H :    0.029256
  16 S :    0.102810
  17 C :   -0.109017
  18 C :   -0.020653
  19 C :   -0.056880
  20 C :   -0.102553
  21 H :    0.024965
  22 C :    0.081353
  23 H :    0.004971
  24 H :    0.005080
  25 C :   -0.071510
  26 H :    0.033306
  27 H :    0.051279
  28 C :   -0.076628
  29 H :    0.034124
  30 H :    0.049558
  31 H :    0.027276
  32 H :    0.019953
  33 H :    0.069671
Sum of atomic charges:   -0.0000000

LOEWDIN ATOMIC CHARGES
----------------------
   0 S :    0.407301
   1 C :   -0.181686
   2 C :   -0.051527
   3 C :   -0.068941
   4 C :   -0.190597
   5 H :    0.013719
   6 C :   -0.037305
   7 H :    0.029660
   8 H :    0.039687
   9 C :   -0.038821
  10 H :    0.015966
  11 H :    0.021963
  12 C :   -0.066821
  13 H :    0.024955
  14 H :    0.030712
  15 H :    0.029330
  16 S :    0.389701
  17 C :   -0.179246
  18 C :   -0.068180
  19 C :   -0.050591
  20 C :   -0.189296
  21 H :    0.036500
  22 C :   -0.028238
  23 H :    0.016696
  24 H :    0.027521
  25 C :   -0.038460
  26 H :    0.030733
  27 H :    0.023830
  28 C :   -0.069902
  29 H :    0.021917
  30 H :    0.031263
  31 H :    0.025615
  32 H :    0.006426
  33 H :    0.036117

  Mayer bond orders larger than 0.100000
B(  0-S ,  1-C ) :   1.1444 B(  0-S ,  4-C ) :   1.1561 B(  1-C ,  2-C ) :   1.5488
B(  1-C ,  4-C ) :   0.1039 B(  1-C , 32-H ) :   0.9793 B(  2-C ,  3-C ) :   1.2805
B(  2-C ,  6-C ) :   1.0323 B(  3-C ,  4-C ) :   1.5136 B(  3-C ,  5-H ) :   0.9968
B(  4-C , 20-C ) :   1.0887 B(  6-C ,  7-H ) :   0.9387 B(  6-C ,  8-H ) :   0.9320
B(  6-C ,  9-C ) :   1.0604 B(  9-C , 10-H ) :   0.9668 B(  9-C , 11-H ) :   0.9561
B(  9-C , 12-C ) :   1.0583 B( 12-C , 13-H ) :   0.9787 B( 12-C , 14-H ) :   0.9709
B( 12-C , 15-H ) :   0.9800 B( 16-S , 17-C ) :   1.1479 B( 16-S , 20-C ) :   1.1208
B( 17-C , 18-C ) :   1.6119 B( 17-C , 33-H ) :   0.9616 B( 18-C , 19-C ) :   1.2476
B( 18-C , 21-H ) :   0.9880 B( 19-C , 20-C ) :   1.5787 B( 19-C , 22-C ) :   1.0468
B( 22-C , 23-H ) :   0.9409 B( 22-C , 24-H ) :   0.9362 B( 22-C , 25-C ) :   1.0256
B( 25-C , 26-H ) :   0.9570 B( 25-C , 27-H ) :   0.9633 B( 25-C , 28-C ) :   1.0790
B( 28-C , 29-H ) :   0.9711 B( 28-C , 30-H ) :   0.9698 B( 28-C , 31-H ) :   0.9678

Dispersion correction           -0.015071316
FINAL SINGLE POINT ENERGY     -1339.858027682132

DIPOLE MOMENT
-------------
                                X             Y             Z
Electronic contribution:     -1.56566     -24.84476     -16.60431
Nuclear contribution   :      1.35721      25.25361      17.14645
                        -----------------------------------------
Total Dipole Moment    :     -0.20845       0.40885       0.54214
                        -----------------------------------------
Magnitude (a.u.)       :      0.71030
Magnitude (Debye)      :      1.80545

Rotational constants in cm-1:     0.019951     0.009700     0.006941
Rotational constants in MHz :   598.114334   290.795963   208.073115

                             ****ORCA TERMINATED NORMALLY****
TOTAL RUN TIME: 0 days 0 hours 0 minutes 22 seconds 907 msec
