                         Program Version 4.2.1 -  RELEASE  -
|  1> ! wB97X-D3 SP def2-SVP
|  2> %pal
|  3> nprocs 24
|  4> end
|  5>
|  6> * xyz 0 1
|  7> S 	 -139.938 	 24.4272 	 -19.5326
|  8> C 	 -140.91 	 22.9768 	 -19.6839
|  9> C 	 -142.203 	 23.3184 	 -19.9144
| 10> C 	 -142.387 	 24.7304 	 -20.11
| 11> C 	 -141.294 	 25.4934 	 -19.9408
| 12> H 	 -143.283 	 25.0973 	 -20.4854
| 13> C 	 -143.307 	 22.3371 	 -20.1423
| 14> H 	 -144.048 	 22.4648 	 -19.3868
| 15> H 	 -142.92 	 21.303 	 -20.2055
| 16> C 	 -143.965 	 22.565 	 -21.5504
| 17> H 	 -144.505 	 23.5492 	 -21.4828
| 18> H 	 -143.121 	 22.7505 	 -22.2207
| 19> C 	 -144.842 	 21.3565 	 -22.0124
| 20> H 	 -145.573 	 21.1154 	 -21.2539
| 21> H 	 -145.311 	 21.6891 	 -22.8796
| 22> H 	 -144.292 	 20.3874 	 -22.306
| 23> S 	 -140.698 	 27.6646 	 -21.5729
| 24> C 	 -140.66 	 29.2708 	 -20.8191
| 25> C 	 -140.998 	 29.2566 	 -19.5081
| 26> C 	 -141.322 	 27.9641 	 -18.9926
| 27> C 	 -141.16 	 26.9656 	 -20.0145
| 28> H 	 -141.118 	 30.2071 	 -18.9898
| 29> C 	 -141.707 	 27.6768 	 -17.5642
| 30> H 	 -141.033 	 26.9176 	 -17.1298
| 31> H 	 -142.782 	 27.3476 	 -17.505
| 32> C 	 -141.619 	 28.9282 	 -16.6424
| 33> H 	 -142.058 	 29.7764 	 -17.0969
| 34> H 	 -140.551 	 28.9845 	 -16.5872
| 35> C 	 -142.14 	 28.6498 	 -15.2544
| 36> H 	 -141.69 	 29.3332 	 -14.5471
| 37> H 	 -141.879 	 27.6856 	 -14.9416
| 38> H 	 -143.248 	 28.6053 	 -15.2556
| 39> H 	 -140.547 	 21.9805 	 -19.4994
| 40> H 	 -140.408 	 30.1363 	 -21.3333
| 41> *
| 42>
| 43>                          ****END OF INPUT****

CARTESIAN COORDINATES (ANGSTROEM)
---------------------------------
  S    -139.938000   24.427200  -19.532600
  C    -140.910000   22.976800  -19.683900
  C    -142.203000   23.318400  -19.914400
  C    -142.387000   24.730400  -20.110000
  C    -141.294000   25.493400  -19.940800
  H    -143.283000   25.097300  -20.485400
  C    -143.307000   22.337100  -20.142300
  H    -144.048000   22.464800  -19.386800
  H    -142.920000   21.303000  -20.205500
  C    -143.965000   22.565000  -21.550400
  H    -144.505000   23.549200  -21.482800
  H    -143.121000   22.750500  -22.220700
  C    -144.842000   21.356500  -22.012400
  H    -145.573000   21.115400  -21.253900
  H    -145.311000   21.689100  -22.879600
  H    -144.292000   20.387400  -22.306000
  S    -140.698000   27.664600  -21.572900
  C    -140.660000   29.270800  -20.819100
  C    -140.998000   29.256600  -19.508100
  C    -141.322000   27.964100  -18.992600
  C    -141.160000   26.965600  -20.014500
  H    -141.118000   30.207100  -18.989800
  C    -141.707000   27.676800  -17.564200
  H    -141.033000   26.917600  -17.129800
  H    -142.782000   27.347600  -17.505000
  C    -141.619000   28.928200  -16.642400
  H    -142.058000   29.776400  -17.096900
  H    -140.551000   28.984500  -16.587200
  C    -142.140000   28.649800  -15.254400
  H    -141.690000   29.333200  -14.547100
  H    -141.879000   27.685600  -14.941600
  H    -143.248000   28.605300  -15.255600
  H    -140.547000   21.980500  -19.499400
  H    -140.408000   30.136300  -21.333300

 Total Charge           Charge          ....    0
 Multiplicity           Mult            ....    1
 Number of Electrons    NEL             ....  134
 Basis Dimension        Dim             ....  322

ORBITAL ENERGIES
----------------

  NO   OCC          E(Eh)            E(eV)
   0   2.0000     -88.967290     -2420.9230
   1   2.0000     -88.957731     -2420.6629
   2   2.0000     -10.331153      -281.1250
   3   2.0000     -10.327046      -281.0132
   4   2.0000     -10.312118      -280.6070
   5   2.0000     -10.309813      -280.5443
   6   2.0000     -10.309764      -280.5429
   7   2.0000     -10.294686      -280.1327
   8   2.0000     -10.292931      -280.0849
   9   2.0000     -10.292848      -280.0826
  10   2.0000     -10.292399      -280.0704
  11   2.0000     -10.287755      -279.9441
  12   2.0000     -10.284770      -279.8628
  13   2.0000     -10.282687      -279.8061
  14   2.0000     -10.278871      -279.7023
  15   2.0000     -10.273383      -279.5530
  16   2.0000      -8.081218      -219.9011
  17   2.0000      -8.072469      -219.6631
  18   2.0000      -6.039709      -164.3488
  19   2.0000      -6.035842      -164.2436
  20   2.0000      -6.032057      -164.1406
  21   2.0000      -6.031112      -164.1149
  22   2.0000      -6.026966      -164.0021
  23   2.0000      -6.023083      -163.8964
  24   2.0000      -1.001852       -27.2618
  25   2.0000      -0.981669       -26.7126
  26   2.0000      -0.913021       -24.8446
  27   2.0000      -0.907397       -24.6915
  28   2.0000      -0.868111       -23.6225
  29   2.0000      -0.850241       -23.1362
  30   2.0000      -0.841623       -22.9017
  31   2.0000      -0.820336       -22.3225
  32   2.0000      -0.780168       -21.2295
  33   2.0000      -0.768022       -20.8989
  34   2.0000      -0.708776       -19.2868
  35   2.0000      -0.703122       -19.1329
  36   2.0000      -0.689966       -18.7749
  37   2.0000      -0.648527       -17.6473
  38   2.0000      -0.642140       -17.4735
  39   2.0000      -0.624471       -16.9927
  40   2.0000      -0.601905       -16.3787
  41   2.0000      -0.580416       -15.7939
  42   2.0000      -0.570796       -15.5321
  43   2.0000      -0.558963       -15.2102
  44   2.0000      -0.528893       -14.3919
  45   2.0000      -0.524127       -14.2622
  46   2.0000      -0.513066       -13.9612
  47   2.0000      -0.508787       -13.8448
  48   2.0000      -0.503938       -13.7129
  49   2.0000      -0.498565       -13.5667
  50   2.0000      -0.491385       -13.3713
  51   2.0000      -0.481011       -13.0890
  52   2.0000      -0.470591       -12.8054
  53   2.0000      -0.469137       -12.7659
  54   2.0000      -0.460812       -12.5393
  55   2.0000      -0.458166       -12.4673
  56   2.0000      -0.445170       -12.1137
  57   2.0000      -0.433820       -11.8048
  58   2.0000      -0.430419       -11.7123
  59   2.0000      -0.426240       -11.5986
  60   2.0000      -0.419100       -11.4043
  61   2.0000      -0.409955       -11.1554
  62   2.0000      -0.409065       -11.1312
  63   2.0000      -0.338006        -9.1976
  64   2.0000      -0.330527        -8.9941
  65   2.0000      -0.316848        -8.6219
  66   2.0000      -0.308939        -8.4067
  67   0.0000       0.042969         1.1692
  68   0.0000       0.056979         1.5505
  69   0.0000       0.116444         3.1686
  70   0.0000       0.128416         3.4944
  71   0.0000       0.133219         3.6251

MULLIKEN ATOMIC CHARGES
-----------------------
   0 S :    0.089576
   1 C :   -0.123058
   2 C :   -0.091059
   3 C :    0.071338
   4 C :   -0.148302
   5 H :   -0.021923
   6 C :    0.094126
   7 H :    0.029977
   8 H :    0.019951
   9 C :   -0.160979
  10 H :    0.044244
  11 H :    0.042624
  12 C :   -0.023563
  13 H :    0.033709
  14 H :    0.024768
  15 H :    0.048228
  16 S :    0.113406
  17 C :   -0.054370
  18 C :   -0.048143
  19 C :   -0.017328
  20 C :   -0.189192
  21 H :    0.025043
  22 C :    0.044201
  23 H :    0.045657
  24 H :    0.040150
  25 C :   -0.107067
  26 H :    0.034520
  27 H :    0.024449
  28 C :    0.016691
  29 H :    0.035669
  30 H :    0.003443
  31 H :    0.030991
  32 H :    0.044621
  33 H :    0.027602
Sum of atomic charges:   -0.0000000

LOEWDIN ATOMIC CHARGES
----------------------
   0 S :    0.381827
   1 C :   -0.187987
   2 C :   -0.069049
   3 C :   -0.052975
   4 C :   -0.187988
   5 H :    0.018957
   6 C :   -0.029978
   7 H :    0.025589
   8 H :    0.030621
   9 C :   -0.042584
  10 H :    0.025627
  11 H :    0.025312
  12 C :   -0.065427
  13 H :    0.024693
  14 H :    0.019051
  15 H :    0.037725
  16 S :    0.396784
  17 C :   -0.163741
  18 C :   -0.076508
  19 C :   -0.047554
  20 C :   -0.199761
  21 H :    0.036107
  22 C :   -0.033861
  23 H :    0.037279
  24 H :    0.035902
  25 C :   -0.039536
  26 H :    0.015623
  27 H :    0.024213
  28 C :   -0.057485
  29 H :    0.028864
  30 H :    0.017271
  31 H :    0.029414
  32 H :    0.028201
  33 H :    0.015373

  Mayer bond orders larger than 0.100000
B(  0-S ,  1-C ) :   1.1266 B(  0-S ,  4-C ) :   1.1311 B(  1-C ,  2-C ) :   1.6389
B(  1-C , 32-H ) :   0.9705 B(  2-C ,  3-C ) :   1.2069 B(  2-C ,  6-C ) :   1.0387
B(  3-C ,  4-C ) :   1.6273 B(  3-C ,  5-H ) :   1.0062 B(  4-C , 20-C ) :   1.0093
B(  6-C ,  7-H ) :   0.9281 B(  6-C ,  8-H ) :   0.9493 B(  6-C ,  9-C ) :   1.0525
B(  9-C , 10-H ) :   0.9518 B(  9-C , 11-H ) :   0.9626 B(  9-C , 12-C ) :   1.0773
B( 12-C , 13-H ) :   0.9743 B( 12-C , 14-H ) :   0.9736 B( 12-C , 15-H ) :   0.9732
B( 16-S , 17-C ) :   1.1475 B( 16-S , 20-C ) :   1.1604 B( 17-C , 18-C ) :   1.6218
B( 17-C , 20-C ) :   0.1027 B( 17-C , 33-H ) :   0.9672 B( 18-C , 19-C ) :   1.2508
B( 18-C , 21-H ) :   0.9817 B( 19-C , 20-C ) :   1.5786 B( 19-C , 22-C ) :   1.0356
B( 22-C , 23-H ) :   0.9300 B( 22-C , 24-H ) :   0.9299 B( 22-C , 25-C ) :   1.0840
B( 25-C , 26-H ) :   0.9515 B( 25-C , 27-H ) :   0.9538 B( 25-C , 28-C ) :   1.0924
B( 28-C , 29-H ) :   0.9704 B( 28-C , 30-H ) :   0.9660 B( 28-C , 31-H ) :   0.9716

Dispersion correction           -0.013437317
FINAL SINGLE POINT ENERGY     -1339.875500308243

DIPOLE MOMENT
-------------
                                X             Y             Z
Electronic contribution:     17.19128       5.72840     -10.56150
Nuclear contribution   :    -17.69516      -5.71995      10.78177
                        -----------------------------------------
Total Dipole Moment    :     -0.50389       0.00845       0.22027
                        -----------------------------------------
Magnitude (a.u.)       :      0.54999
Magnitude (Debye)      :      1.39797

Rotational constants in cm-1:     0.019125     0.007185     0.006376
Rotational constants in MHz :   573.347403   215.408966   191.134534

                             ****ORCA TERMINATED NORMALLY****
TOTAL RUN TIME: 0 days 0 hours 0 minutes 20 seconds 952 msec
