                         Program Version 4.2.1 -  RELEASE  -
|  1> ! wB97X-D3 SP def2-SVP
|  2> %pal
|  3> nprocs 24
|  4> end
|  5>
|  6> * xyz 0 1
|  7> S 	 -37.7821 	 17.0382 	 17.6048
|  8> C 	 -38.3238 	 15.4172 	 18.1545
|  9> C 	 -39.4136 	 14.943 	 17.3782
| 10> C 	 -39.5941 	 15.753 	 16.191
| 11> C 	 -38.8017 	 16.866 	 16.1644
| 12> H 	 -40.288 	 15.4895 	 15.3532
| 13> C 	 -40.1981 	 13.6049 	 17.6698
| 14> H 	 -39.6039 	 12.7695 	 18.0415
| 15> H 	 -40.5197 	 13.2498 	 16.7197
| 16> C 	 -41.2829 	 13.7161 	 18.7393
| 17> H 	 -40.9856 	 14.0748 	 19.6621
| 18> H 	 -42.0814 	 14.3721 	 18.3995
| 19> C 	 -41.8427 	 12.3781 	 19.0829
| 20> H 	 -42.2582 	 11.9128 	 18.2321
| 21> H 	 -41.1381 	 11.633 	 19.3935
| 22> H 	 -42.5843 	 12.5471 	 19.8286
| 23> S 	 -39.7224 	 17.2956 	 13.6394
| 24> C 	 -39.3651 	 18.6855 	 12.7642
| 25> C 	 -38.5482 	 19.4992 	 13.4104
| 26> C 	 -38.1192 	 19.0136 	 14.7242
| 27> C 	 -38.829 	 17.7865 	 15.0937
| 28> H 	 -38.3218 	 20.4508 	 13.0258
| 29> C 	 -37.1098 	 19.7728 	 15.6031
| 30> H 	 -36.4206 	 20.394 	 15.0107
| 31> H 	 -36.3778 	 19.1331 	 16.1872
| 32> C 	 -37.7629 	 20.7732 	 16.6287
| 33> H 	 -38.3351 	 21.5111 	 16.0619
| 34> H 	 -37.0862 	 21.4298 	 17.075
| 35> C 	 -38.6571 	 20.1268 	 17.7417
| 36> H 	 -39.2177 	 20.8475 	 18.3452
| 37> H 	 -38.0313 	 19.6745 	 18.5096
| 38> H 	 -39.335 	 19.3339 	 17.4464
| 39> H 	 -37.8849 	 14.8929 	 18.9196
| 40> H 	 -39.6885 	 18.9908 	 11.7824
| 41> *
| 42>
| 43>                          ****END OF INPUT****

CARTESIAN COORDINATES (ANGSTROEM)
---------------------------------
  S    -37.782100   17.038200   17.604800
  C    -38.323800   15.417200   18.154500
  C    -39.413600   14.943000   17.378200
  C    -39.594100   15.753000   16.191000
  C    -38.801700   16.866000   16.164400
  H    -40.288000   15.489500   15.353200
  C    -40.198100   13.604900   17.669800
  H    -39.603900   12.769500   18.041500
  H    -40.519700   13.249800   16.719700
  C    -41.282900   13.716100   18.739300
  H    -40.985600   14.074800   19.662100
  H    -42.081400   14.372100   18.399500
  C    -41.842700   12.378100   19.082900
  H    -42.258200   11.912800   18.232100
  H    -41.138100   11.633000   19.393500
  H    -42.584300   12.547100   19.828600
  S    -39.722400   17.295600   13.639400
  C    -39.365100   18.685500   12.764200
  C    -38.548200   19.499200   13.410400
  C    -38.119200   19.013600   14.724200
  C    -38.829000   17.786500   15.093700
  H    -38.321800   20.450800   13.025800
  C    -37.109800   19.772800   15.603100
  H    -36.420600   20.394000   15.010700
  H    -36.377800   19.133100   16.187200
  C    -37.762900   20.773200   16.628700
  H    -38.335100   21.511100   16.061900
  H    -37.086200   21.429800   17.075000
  C    -38.657100   20.126800   17.741700
  H    -39.217700   20.847500   18.345200
  H    -38.031300   19.674500   18.509600
  H    -39.335000   19.333900   17.446400
  H    -37.884900   14.892900   18.919600
  H    -39.688500   18.990800   11.782400

 Total Charge           Charge          ....    0
 Multiplicity           Mult            ....    1
 Number of Electrons    NEL             ....  134
 Basis Dimension        Dim             ....  322

ORBITAL ENERGIES
----------------

  NO   OCC          E(Eh)            E(eV)
   0   2.0000     -88.971089     -2421.0264
   1   2.0000     -88.963283     -2420.8140
   2   2.0000     -10.334450      -281.2147
   3   2.0000     -10.331350      -281.1303
   4   2.0000     -10.317156      -280.7441
   5   2.0000     -10.315202      -280.6909
   6   2.0000     -10.312480      -280.6169
   7   2.0000     -10.306272      -280.4479
   8   2.0000     -10.302035      -280.3326
   9   2.0000     -10.298703      -280.2420
  10   2.0000     -10.294615      -280.1307
  11   2.0000     -10.285903      -279.8936
  12   2.0000     -10.283593      -279.8308
  13   2.0000     -10.275693      -279.6158
  14   2.0000     -10.269018      -279.4342
  15   2.0000     -10.265465      -279.3375
  16   2.0000      -8.083744      -219.9699
  17   2.0000      -8.078833      -219.8362
  18   2.0000      -6.042459      -164.4237
  19   2.0000      -6.038626      -164.3194
  20   2.0000      -6.037515      -164.2891
  21   2.0000      -6.034283      -164.2012
  22   2.0000      -6.033176      -164.1711
  23   2.0000      -6.029416      -164.0688
  24   2.0000      -1.006912       -27.3995
  25   2.0000      -0.979813       -26.6621
  26   2.0000      -0.916860       -24.9490
  27   2.0000      -0.897286       -24.4164
  28   2.0000      -0.879487       -23.9321
  29   2.0000      -0.850812       -23.1518
  30   2.0000      -0.837702       -22.7950
  31   2.0000      -0.813427       -22.1345
  32   2.0000      -0.786932       -21.4135
  33   2.0000      -0.768777       -20.9195
  34   2.0000      -0.716352       -19.4929
  35   2.0000      -0.706083       -19.2135
  36   2.0000      -0.693198       -18.8629
  37   2.0000      -0.666725       -18.1425
  38   2.0000      -0.627564       -17.0769
  39   2.0000      -0.621640       -16.9157
  40   2.0000      -0.597084       -16.2475
  41   2.0000      -0.570616       -15.5273
  42   2.0000      -0.569296       -15.4913
  43   2.0000      -0.544553       -14.8181
  44   2.0000      -0.536871       -14.6090
  45   2.0000      -0.534960       -14.5570
  46   2.0000      -0.517589       -14.0843
  47   2.0000      -0.509630       -13.8677
  48   2.0000      -0.504269       -13.7219
  49   2.0000      -0.498614       -13.5680
  50   2.0000      -0.489060       -13.3080
  51   2.0000      -0.473371       -12.8811
  52   2.0000      -0.468939       -12.7605
  53   2.0000      -0.468666       -12.7530
  54   2.0000      -0.462163       -12.5761
  55   2.0000      -0.452500       -12.3131
  56   2.0000      -0.444842       -12.1048
  57   2.0000      -0.438687       -11.9373
  58   2.0000      -0.433532       -11.7970
  59   2.0000      -0.428380       -11.6568
  60   2.0000      -0.414002       -11.2656
  61   2.0000      -0.409986       -11.1563
  62   2.0000      -0.400601       -10.9009
  63   2.0000      -0.368111       -10.0168
  64   2.0000      -0.332431        -9.0459
  65   2.0000      -0.326401        -8.8818
  66   2.0000      -0.274591        -7.4720
  67   0.0000       0.011813         0.3215
  68   0.0000       0.086362         2.3500
  69   0.0000       0.104164         2.8344
  70   0.0000       0.115192         3.1345
  71   0.0000       0.129336         3.5194

MULLIKEN ATOMIC CHARGES
-----------------------
   0 S :    0.099308
   1 C :   -0.091202
   2 C :   -0.051926
   3 C :   -0.064919
   4 C :   -0.071141
   5 H :    0.050746
   6 C :    0.059383
   7 H :    0.016916
   8 H :    0.011964
   9 C :   -0.033089
  10 H :    0.010319
  11 H :    0.026412
  12 C :   -0.018502
  13 H :    0.007707
  14 H :    0.019140
  15 H :    0.029734
  16 S :    0.068975
  17 C :   -0.030309
  18 C :   -0.024830
  19 C :   -0.055235
  20 C :   -0.130600
  21 H :   -0.002798
  22 C :    0.012769
  23 H :    0.023978
  24 H :    0.045440
  25 C :   -0.030006
  26 H :    0.013331
  27 H :    0.010866
  28 C :   -0.061406
  29 H :    0.026617
  30 H :    0.022718
  31 H :    0.044683
  32 H :    0.017946
  33 H :    0.047012
Sum of atomic charges:    0.0000000

LOEWDIN ATOMIC CHARGES
----------------------
   0 S :    0.409922
   1 C :   -0.171594
   2 C :   -0.045570
   3 C :   -0.079280
   4 C :   -0.184649
   5 H :    0.034136
   6 C :   -0.026496
   7 H :    0.030825
   8 H :    0.024238
   9 C :   -0.032737
  10 H :    0.016154
  11 H :    0.025986
  12 C :   -0.056975
  13 H :    0.017144
  14 H :    0.021157
  15 H :    0.026315
  16 S :    0.426296
  17 C :   -0.202857
  18 C :   -0.071487
  19 C :   -0.049820
  20 C :   -0.182508
  21 H :    0.023635
  22 C :   -0.044661
  23 H :    0.033584
  24 H :    0.030031
  25 C :   -0.034863
  26 H :    0.021052
  27 H :    0.015955
  28 C :   -0.080486
  29 H :    0.027009
  30 H :    0.015146
  31 H :    0.020295
  32 H :    0.008676
  33 H :    0.036429

  Mayer bond orders larger than 0.100000
B(  0-S ,  1-C ) :   1.1222 B(  0-S ,  4-C ) :   1.1127 B(  1-C ,  2-C ) :   1.6050
B(  1-C , 32-H ) :   0.9820 B(  2-C ,  3-C ) :   1.2434 B(  2-C ,  6-C ) :   1.0110
B(  3-C ,  4-C ) :   1.5554 B(  3-C ,  5-H ) :   0.9676 B(  4-C , 20-C ) :   1.1629
B(  6-C ,  7-H ) :   0.9490 B(  6-C ,  8-H ) :   0.9442 B(  6-C ,  9-C ) :   1.0630
B(  9-C , 10-H ) :   0.9565 B(  9-C , 11-H ) :   0.9501 B(  9-C , 12-C ) :   1.0940
B( 12-C , 13-H ) :   0.9702 B( 12-C , 14-H ) :   0.9698 B( 12-C , 15-H ) :   0.9724
B( 16-S , 17-C ) :   1.1451 B( 16-S , 20-C ) :   1.1379 B( 17-C , 18-C ) :   1.6410
B( 17-C , 33-H ) :   0.9593 B( 18-C , 19-C ) :   1.2426 B( 18-C , 21-H ) :   0.9949
B( 19-C , 20-C ) :   1.5078 B( 19-C , 22-C ) :   1.0425 B( 22-C , 23-H ) :   0.9344
B( 22-C , 24-H ) :   0.9434 B( 22-C , 25-C ) :   1.0670 B( 25-C , 26-H ) :   0.9560
B( 25-C , 27-H ) :   0.9550 B( 25-C , 28-C ) :   1.0713 B( 28-C , 29-H ) :   0.9701
B( 28-C , 30-H ) :   0.9694 B( 28-C , 31-H ) :   0.9757

Dispersion correction           -0.014311595
FINAL SINGLE POINT ENERGY     -1339.849604493538

DIPOLE MOMENT
-------------
                                X             Y             Z
Electronic contribution:      6.63011       3.84198     -14.64359
Nuclear contribution   :     -6.69117      -3.86634      14.73842
                        -----------------------------------------
Total Dipole Moment    :     -0.06106      -0.02436       0.09483
                        -----------------------------------------
Magnitude (a.u.)       :      0.11539
Magnitude (Debye)      :      0.29329

Rotational constants in cm-1:     0.023004     0.007907     0.006402
Rotational constants in MHz :   689.630742   237.036548   191.934638

                             ****ORCA TERMINATED NORMALLY****
TOTAL RUN TIME: 0 days 0 hours 0 minutes 20 seconds 373 msec
