                         Program Version 4.2.1 -  RELEASE  -
|  1> ! wB97X-D3 SP def2-SVP
|  2> %pal
|  3> nprocs 24
|  4> end
|  5>
|  6> * xyz 0 1
|  7> S 	 -123.162 	 36.277 	 -112.261
|  8> C 	 -123.59 	 35.4214 	 -113.769
|  9> C 	 -124.832 	 34.9396 	 -113.636
| 10> C 	 -125.438 	 35.1346 	 -112.341
| 11> C 	 -124.661 	 35.8575 	 -111.412
| 12> H 	 -126.456 	 34.926 	 -112.121
| 13> C 	 -125.53 	 34.0449 	 -114.636
| 14> H 	 -124.8 	 33.4991 	 -115.222
| 15> H 	 -126.18 	 34.5186 	 -115.341
| 16> C 	 -126.565 	 33.1096 	 -113.971
| 17> H 	 -126.203 	 32.617 	 -113.138
| 18> H 	 -127.442 	 33.704 	 -113.677
| 19> C 	 -126.987 	 32.0268 	 -114.958
| 20> H 	 -126.193 	 31.3743 	 -114.995
| 21> H 	 -127.835 	 31.4705 	 -114.521
| 22> H 	 -127.264 	 32.4791 	 -115.953
| 23> S 	 -124.529 	 35.3369 	 -108.563
| 24> C 	 -125.041 	 36.6541 	 -107.515
| 25> C 	 -125.584 	 37.7057 	 -108.23
| 26> C 	 -125.524 	 37.4773 	 -109.675
| 27> C 	 -124.972 	 36.27 	 -109.994
| 28> H 	 -125.887 	 38.5462 	 -107.682
| 29> C 	 -125.942 	 38.6122 	 -110.619
| 30> H 	 -126.952 	 38.5085 	 -111.035
| 31> H 	 -125.305 	 38.4053 	 -111.451
| 32> C 	 -125.576 	 40.0994 	 -110.368
| 33> H 	 -124.535 	 39.9488 	 -110.112
| 34> H 	 -125.991 	 40.5582 	 -109.541
| 35> C 	 -125.851 	 40.9879 	 -111.554
| 36> H 	 -125.204 	 40.6747 	 -112.291
| 37> H 	 -125.563 	 41.941 	 -111.169
| 38> H 	 -126.877 	 40.9307 	 -111.917
| 39> H 	 -123.004 	 35.2675 	 -114.62
| 40> H 	 -125.081 	 36.5562 	 -106.445
| 41> *
| 42>
| 43>                          ****END OF INPUT****

CARTESIAN COORDINATES (ANGSTROEM)
---------------------------------
  S    -123.162000   36.277000  -112.261000
  C    -123.590000   35.421400  -113.769000
  C    -124.832000   34.939600  -113.636000
  C    -125.438000   35.134600  -112.341000
  C    -124.661000   35.857500  -111.412000
  H    -126.456000   34.926000  -112.121000
  C    -125.530000   34.044900  -114.636000
  H    -124.800000   33.499100  -115.222000
  H    -126.180000   34.518600  -115.341000
  C    -126.565000   33.109600  -113.971000
  H    -126.203000   32.617000  -113.138000
  H    -127.442000   33.704000  -113.677000
  C    -126.987000   32.026800  -114.958000
  H    -126.193000   31.374300  -114.995000
  H    -127.835000   31.470500  -114.521000
  H    -127.264000   32.479100  -115.953000
  S    -124.529000   35.336900  -108.563000
  C    -125.041000   36.654100  -107.515000
  C    -125.584000   37.705700  -108.230000
  C    -125.524000   37.477300  -109.675000
  C    -124.972000   36.270000  -109.994000
  H    -125.887000   38.546200  -107.682000
  C    -125.942000   38.612200  -110.619000
  H    -126.952000   38.508500  -111.035000
  H    -125.305000   38.405300  -111.451000
  C    -125.576000   40.099400  -110.368000
  H    -124.535000   39.948800  -110.112000
  H    -125.991000   40.558200  -109.541000
  C    -125.851000   40.987900  -111.554000
  H    -125.204000   40.674700  -112.291000
  H    -125.563000   41.941000  -111.169000
  H    -126.877000   40.930700  -111.917000
  H    -123.004000   35.267500  -114.620000
  H    -125.081000   36.556200  -106.445000

 Total Charge           Charge          ....    0
 Multiplicity           Mult            ....    1
 Number of Electrons    NEL             ....  134
 Basis Dimension        Dim             ....  322

ORBITAL ENERGIES
----------------

  NO   OCC          E(Eh)            E(eV)
   0   2.0000     -88.967939     -2420.9407
   1   2.0000     -88.962988     -2420.8060
   2   2.0000     -10.338345      -281.3207
   3   2.0000     -10.331565      -281.1362
   4   2.0000     -10.319874      -280.8181
   5   2.0000     -10.310581      -280.5652
   6   2.0000     -10.308629      -280.5121
   7   2.0000     -10.296625      -280.1854
   8   2.0000     -10.293545      -280.1016
   9   2.0000     -10.293247      -280.0935
  10   2.0000     -10.287887      -279.9476
  11   2.0000     -10.285288      -279.8769
  12   2.0000     -10.278237      -279.6851
  13   2.0000     -10.276133      -279.6278
  14   2.0000     -10.275443      -279.6090
  15   2.0000     -10.268476      -279.4194
  16   2.0000      -8.082245      -219.9291
  17   2.0000      -8.076505      -219.7729
  18   2.0000      -6.040921      -164.3818
  19   2.0000      -6.036846      -164.2709
  20   2.0000      -6.035264      -164.2279
  21   2.0000      -6.032812      -164.1612
  22   2.0000      -6.030983      -164.1114
  23   2.0000      -6.027243      -164.0096
  24   2.0000      -0.999559       -27.1994
  25   2.0000      -0.981790       -26.7159
  26   2.0000      -0.915176       -24.9032
  27   2.0000      -0.911353       -24.7992
  28   2.0000      -0.871230       -23.7074
  29   2.0000      -0.852423       -23.1956
  30   2.0000      -0.840375       -22.8678
  31   2.0000      -0.818333       -22.2680
  32   2.0000      -0.782118       -21.2825
  33   2.0000      -0.773676       -21.0528
  34   2.0000      -0.711101       -19.3500
  35   2.0000      -0.702887       -19.1265
  36   2.0000      -0.690229       -18.7821
  37   2.0000      -0.657765       -17.8987
  38   2.0000      -0.641928       -17.4677
  39   2.0000      -0.617786       -16.8108
  40   2.0000      -0.598635       -16.2897
  41   2.0000      -0.585719       -15.9382
  42   2.0000      -0.575063       -15.6483
  43   2.0000      -0.568238       -15.4625
  44   2.0000      -0.531783       -14.4705
  45   2.0000      -0.524877       -14.2826
  46   2.0000      -0.518051       -14.0969
  47   2.0000      -0.512730       -13.9521
  48   2.0000      -0.506391       -13.7796
  49   2.0000      -0.502037       -13.6611
  50   2.0000      -0.492700       -13.4070
  51   2.0000      -0.477043       -12.9810
  52   2.0000      -0.471897       -12.8410
  53   2.0000      -0.464044       -12.6273
  54   2.0000      -0.457147       -12.4396
  55   2.0000      -0.451518       -12.2864
  56   2.0000      -0.445541       -12.1238
  57   2.0000      -0.432776       -11.7764
  58   2.0000      -0.428940       -11.6721
  59   2.0000      -0.426780       -11.6133
  60   2.0000      -0.418647       -11.3920
  61   2.0000      -0.412727       -11.2309
  62   2.0000      -0.407918       -11.1000
  63   2.0000      -0.332548        -9.0491
  64   2.0000      -0.325506        -8.8575
  65   2.0000      -0.323251        -8.7961
  66   2.0000      -0.320418        -8.7190
  67   0.0000       0.045854         1.2477
  68   0.0000       0.050474         1.3735
  69   0.0000       0.119477         3.2511
  70   0.0000       0.122715         3.3392
  71   0.0000       0.131173         3.5694

MULLIKEN ATOMIC CHARGES
-----------------------
   0 S :    0.091726
   1 C :   -0.109098
   2 C :   -0.059837
   3 C :    0.053488
   4 C :   -0.180371
   5 H :    0.002710
   6 C :    0.075877
   7 H :    0.018232
   8 H :    0.023911
   9 C :   -0.123842
  10 H :    0.020047
  11 H :    0.037288
  12 C :   -0.010177
  13 H :    0.016641
  14 H :    0.032829
  15 H :    0.035651
  16 S :    0.114882
  17 C :   -0.099441
  18 C :   -0.006825
  19 C :   -0.031119
  20 C :   -0.156055
  21 H :    0.006465
  22 C :    0.073552
  23 H :    0.032555
  24 H :    0.008932
  25 C :   -0.076928
  26 H :    0.025531
  27 H :    0.008871
  28 C :    0.008082
  29 H :    0.015527
  30 H :    0.029383
  31 H :    0.038659
  32 H :    0.024121
  33 H :    0.058731
Sum of atomic charges:   -0.0000000

LOEWDIN ATOMIC CHARGES
----------------------
   0 S :    0.379606
   1 C :   -0.173508
   2 C :   -0.068013
   3 C :   -0.058584
   4 C :   -0.179840
   5 H :    0.025693
   6 C :   -0.027657
   7 H :    0.026349
   8 H :    0.029757
   9 C :   -0.035900
  10 H :    0.012086
  11 H :    0.022936
  12 C :   -0.054862
  13 H :    0.013483
  14 H :    0.029635
  15 H :    0.028732
  16 S :    0.396632
  17 C :   -0.171816
  18 C :   -0.064722
  19 C :   -0.043289
  20 C :   -0.207913
  21 H :    0.024592
  22 C :   -0.038723
  23 H :    0.029558
  24 H :    0.026449
  25 C :   -0.034289
  26 H :    0.027570
  27 H :    0.005535
  28 C :   -0.045650
  29 H :    0.016641
  30 H :    0.029409
  31 H :    0.029718
  32 H :    0.022876
  33 H :    0.027507

  Mayer bond orders larger than 0.100000
B(  0-S ,  1-C ) :   1.1183 B(  0-S ,  4-C ) :   1.1414 B(  1-C ,  2-C ) :   1.6408
B(  1-C , 32-H ) :   0.9798 B(  2-C ,  3-C ) :   1.2405 B(  2-C ,  6-C ) :   1.0147
B(  3-C ,  4-C ) :   1.5809 B(  3-C ,  5-H ) :   0.9910 B(  4-C , 20-C ) :   1.0059
B(  6-C ,  7-H ) :   0.9548 B(  6-C ,  8-H ) :   0.9235 B(  6-C ,  9-C ) :   1.0789
B(  9-C , 10-H ) :   0.9583 B(  9-C , 11-H ) :   0.9447 B(  9-C , 12-C ) :   1.0825
B( 12-C , 13-H ) :   0.9761 B( 12-C , 14-H ) :   0.9708 B( 12-C , 15-H ) :   0.9725
B( 16-S , 17-C ) :   1.1509 B( 16-S , 20-C ) :   1.1246 B( 17-C , 18-C ) :   1.6357
B( 17-C , 33-H ) :   0.9653 B( 18-C , 19-C ) :   1.2042 B( 18-C , 21-H ) :   1.0001
B( 19-C , 20-C ) :   1.6409 B( 19-C , 22-C ) :   1.0279 B( 22-C , 23-H ) :   0.9300
B( 22-C , 24-H ) :   0.9276 B( 22-C , 25-C ) :   1.0522 B( 25-C , 26-H ) :   0.9571
B( 25-C , 27-H ) :   0.9553 B( 25-C , 28-C ) :   1.0823 B( 28-C , 29-H ) :   0.9755
B( 28-C , 30-H ) :   0.9713 B( 28-C , 31-H ) :   0.9742

Dispersion correction           -0.013602653
FINAL SINGLE POINT ENERGY     -1339.849862596566

DIPOLE MOMENT
-------------
                                X             Y             Z
Electronic contribution:     14.27868      -4.09856      15.57838
Nuclear contribution   :    -14.72245       4.23782     -15.78404
                        -----------------------------------------
Total Dipole Moment    :     -0.44377       0.13926      -0.20566
                        -----------------------------------------
Magnitude (a.u.)       :      0.50855
Magnitude (Debye)      :      1.29262

Rotational constants in cm-1:     0.017931     0.007750     0.006628
Rotational constants in MHz :   537.551967   232.326650   198.702082

                             ****ORCA TERMINATED NORMALLY****
TOTAL RUN TIME: 0 days 0 hours 0 minutes 20 seconds 974 msec
