                         Program Version 4.2.1 -  RELEASE  -
|  1> ! wB97X-D3 SP def2-SVP
|  2> %pal
|  3> nprocs 24
|  4> end
|  5>
|  6> * xyz 0 1
|  7> S 	 -122.308 	 61.6381 	 -50.4125
|  8> C 	 -121.598 	 61.4709 	 -48.8603
|  9> C 	 -121.846 	 62.5112 	 -47.9961
| 10> C 	 -122.625 	 63.4813 	 -48.6639
| 11> C 	 -122.872 	 63.255 	 -50.0094
| 12> H 	 -123.002 	 64.4225 	 -48.2356
| 13> C 	 -121.399 	 62.461 	 -46.4855
| 14> H 	 -120.86 	 61.515 	 -46.468
| 15> H 	 -122.217 	 62.2731 	 -45.735
| 16> C 	 -120.477 	 63.5387 	 -45.8777
| 17> H 	 -120.316 	 63.2221 	 -44.8291
| 18> H 	 -119.53 	 63.5278 	 -46.409
| 19> C 	 -121.076 	 64.9366 	 -45.8333
| 20> H 	 -121.044 	 65.398 	 -46.854
| 21> H 	 -122.134 	 64.8507 	 -45.6042
| 22> H 	 -120.562 	 65.6501 	 -45.1522
| 23> S 	 -122.651 	 64.5895 	 -52.4804
| 24> C 	 -123.972 	 65.6067 	 -53.0186
| 25> C 	 -124.987 	 65.6601 	 -52.0669
| 26> C 	 -124.762 	 64.7721 	 -50.9603
| 27> C 	 -123.53 	 64.1249 	 -50.978
| 28> H 	 -125.885 	 66.2142 	 -52.3499
| 29> C 	 -125.883 	 64.5739 	 -49.957
| 30> H 	 -125.986 	 65.4077 	 -49.3707
| 31> H 	 -125.58 	 63.8302 	 -49.26
| 32> C 	 -127.127 	 64.125 	 -50.6549
| 33> H 	 -126.981 	 63.1082 	 -51.076
| 34> H 	 -127.47 	 64.6393 	 -51.4771
| 35> C 	 -128.262 	 64.1528 	 -49.6218
| 36> H 	 -128.071 	 63.6769 	 -48.6451
| 37> H 	 -129.082 	 63.5637 	 -49.9622
| 38> H 	 -128.592 	 65.124 	 -49.3537
| 39> H 	 -121.06 	 60.5037 	 -48.5904
| 40> H 	 -124.014 	 66.1007 	 -54.0537
| 41> *
| 42>
| 43>                          ****END OF INPUT****

CARTESIAN COORDINATES (ANGSTROEM)
---------------------------------
  S    -122.308000   61.638100  -50.412500
  C    -121.598000   61.470900  -48.860300
  C    -121.846000   62.511200  -47.996100
  C    -122.625000   63.481300  -48.663900
  C    -122.872000   63.255000  -50.009400
  H    -123.002000   64.422500  -48.235600
  C    -121.399000   62.461000  -46.485500
  H    -120.860000   61.515000  -46.468000
  H    -122.217000   62.273100  -45.735000
  C    -120.477000   63.538700  -45.877700
  H    -120.316000   63.222100  -44.829100
  H    -119.530000   63.527800  -46.409000
  C    -121.076000   64.936600  -45.833300
  H    -121.044000   65.398000  -46.854000
  H    -122.134000   64.850700  -45.604200
  H    -120.562000   65.650100  -45.152200
  S    -122.651000   64.589500  -52.480400
  C    -123.972000   65.606700  -53.018600
  C    -124.987000   65.660100  -52.066900
  C    -124.762000   64.772100  -50.960300
  C    -123.530000   64.124900  -50.978000
  H    -125.885000   66.214200  -52.349900
  C    -125.883000   64.573900  -49.957000
  H    -125.986000   65.407700  -49.370700
  H    -125.580000   63.830200  -49.260000
  C    -127.127000   64.125000  -50.654900
  H    -126.981000   63.108200  -51.076000
  H    -127.470000   64.639300  -51.477100
  C    -128.262000   64.152800  -49.621800
  H    -128.071000   63.676900  -48.645100
  H    -129.082000   63.563700  -49.962200
  H    -128.592000   65.124000  -49.353700
  H    -121.060000   60.503700  -48.590400
  H    -124.014000   66.100700  -54.053700

 Total Charge           Charge          ....    0
 Multiplicity           Mult            ....    1
 Number of Electrons    NEL             ....  134
 Basis Dimension        Dim             ....  322

ORBITAL ENERGIES
----------------

  NO   OCC          E(Eh)            E(eV)
   0   2.0000     -88.967059     -2420.9167
   1   2.0000     -88.962241     -2420.7856
   2   2.0000     -10.329443      -281.0784
   3   2.0000     -10.329255      -281.0733
   4   2.0000     -10.325346      -280.9670
   5   2.0000     -10.318683      -280.7856
   6   2.0000     -10.305234      -280.4197
   7   2.0000     -10.304096      -280.3887
   8   2.0000     -10.302199      -280.3371
   9   2.0000     -10.296857      -280.1917
  10   2.0000     -10.295054      -280.1427
  11   2.0000     -10.288558      -279.9659
  12   2.0000     -10.280714      -279.7525
  13   2.0000     -10.279216      -279.7117
  14   2.0000     -10.278030      -279.6794
  15   2.0000     -10.269871      -279.4574
  16   2.0000      -8.082403      -219.9334
  17   2.0000      -8.076332      -219.7682
  18   2.0000      -6.040697      -164.3757
  19   2.0000      -6.036837      -164.2707
  20   2.0000      -6.034897      -164.2179
  21   2.0000      -6.033331      -164.1753
  22   2.0000      -6.030897      -164.1090
  23   2.0000      -6.027098      -164.0057
  24   2.0000      -1.005525       -27.3617
  25   2.0000      -0.981758       -26.7150
  26   2.0000      -0.916763       -24.9464
  27   2.0000      -0.906268       -24.6608
  28   2.0000      -0.868342       -23.6288
  29   2.0000      -0.849813       -23.1246
  30   2.0000      -0.843786       -22.9606
  31   2.0000      -0.813050       -22.1242
  32   2.0000      -0.784471       -21.3465
  33   2.0000      -0.770551       -20.9678
  34   2.0000      -0.713833       -19.4244
  35   2.0000      -0.698914       -19.0184
  36   2.0000      -0.687716       -18.7137
  37   2.0000      -0.654309       -17.8047
  38   2.0000      -0.640402       -17.4262
  39   2.0000      -0.618088       -16.8190
  40   2.0000      -0.596176       -16.2228
  41   2.0000      -0.574819       -15.6416
  42   2.0000      -0.567414       -15.4401
  43   2.0000      -0.544475       -14.8159
  44   2.0000      -0.539728       -14.6867
  45   2.0000      -0.530652       -14.4398
  46   2.0000      -0.515284       -14.0216
  47   2.0000      -0.504136       -13.7182
  48   2.0000      -0.502600       -13.6765
  49   2.0000      -0.494970       -13.4688
  50   2.0000      -0.487756       -13.2725
  51   2.0000      -0.480806       -13.0834
  52   2.0000      -0.468947       -12.7607
  53   2.0000      -0.463159       -12.6032
  54   2.0000      -0.458918       -12.4878
  55   2.0000      -0.453516       -12.3408
  56   2.0000      -0.438760       -11.9393
  57   2.0000      -0.437234       -11.8978
  58   2.0000      -0.434142       -11.8136
  59   2.0000      -0.426493       -11.6055
  60   2.0000      -0.420512       -11.4427
  61   2.0000      -0.417120       -11.3504
  62   2.0000      -0.409285       -11.1372
  63   2.0000      -0.343114        -9.3366
  64   2.0000      -0.334971        -9.1150
  65   2.0000      -0.327584        -8.9140
  66   2.0000      -0.295889        -8.0516
  67   0.0000       0.031285         0.8513
  68   0.0000       0.068390         1.8610
  69   0.0000       0.113757         3.0955
  70   0.0000       0.123627         3.3641
  71   0.0000       0.132824         3.6143

MULLIKEN ATOMIC CHARGES
-----------------------
   0 S :    0.125741
   1 C :   -0.157398
   2 C :   -0.057582
   3 C :    0.029940
   4 C :   -0.189723
   5 H :    0.015250
   6 C :    0.034231
   7 H :    0.009567
   8 H :    0.046901
   9 C :   -0.056810
  10 H :    0.032474
  11 H :    0.034048
  12 C :   -0.077161
  13 H :    0.043266
  14 H :    0.026253
  15 H :    0.046558
  16 S :    0.094775
  17 C :   -0.132792
  18 C :   -0.043650
  19 C :   -0.050274
  20 C :   -0.150850
  21 H :    0.030628
  22 C :    0.157649
  23 H :    0.006546
  24 H :    0.008839
  25 C :   -0.067755
  26 H :    0.032852
  27 H :    0.014148
  28 C :   -0.028716
  29 H :    0.016965
  30 H :    0.018671
  31 H :    0.021803
  32 H :    0.075341
  33 H :    0.090262
Sum of atomic charges:    0.0000000

LOEWDIN ATOMIC CHARGES
----------------------
   0 S :    0.420414
   1 C :   -0.207196
   2 C :   -0.074763
   3 C :   -0.058653
   4 C :   -0.201633
   5 H :    0.033423
   6 C :   -0.033560
   7 H :    0.029838
   8 H :    0.036430
   9 C :   -0.042365
  10 H :    0.029026
  11 H :    0.024098
  12 C :   -0.075093
  13 H :    0.030238
  14 H :    0.021128
  15 H :    0.030945
  16 S :    0.379437
  17 C :   -0.192159
  18 C :   -0.081291
  19 C :   -0.046847
  20 C :   -0.194883
  21 H :    0.034795
  22 C :   -0.020126
  23 H :    0.019914
  24 H :    0.029833
  25 C :   -0.029167
  26 H :    0.033911
  27 H :    0.012300
  28 C :   -0.061976
  29 H :    0.025505
  30 H :    0.021508
  31 H :    0.018730
  32 H :    0.039808
  33 H :    0.048431

  Mayer bond orders larger than 0.100000
B(  0-S ,  1-C ) :   1.1702 B(  0-S ,  4-C ) :   1.1509 B(  1-C ,  2-C ) :   1.6029
B(  1-C , 32-H ) :   0.9504 B(  2-C ,  3-C ) :   1.2606 B(  2-C ,  6-C ) :   0.9965
B(  3-C ,  4-C ) :   1.5683 B(  3-C ,  5-H ) :   0.9938 B(  4-C , 20-C ) :   1.0454
B(  6-C ,  7-H ) :   0.9361 B(  6-C ,  8-H ) :   0.9443 B(  6-C ,  9-C ) :   1.0841
B(  9-C , 10-H ) :   0.9514 B(  9-C , 11-H ) :   0.9556 B(  9-C , 12-C ) :   1.0795
B( 12-C , 13-H ) :   0.9712 B( 12-C , 14-H ) :   0.9736 B( 12-C , 15-H ) :   0.9726
B( 16-S , 17-C ) :   1.1625 B( 16-S , 20-C ) :   1.1152 B( 17-C , 18-C ) :   1.6158
B( 17-C , 33-H ) :   0.9546 B( 18-C , 19-C ) :   1.2206 B( 18-C , 21-H ) :   0.9875
B( 19-C , 20-C ) :   1.6132 B( 19-C , 22-C ) :   1.0360 B( 22-C , 23-H ) :   0.9312
B( 22-C , 24-H ) :   0.9208 B( 22-C , 25-C ) :   1.0627 B( 25-C , 26-H ) :   0.9508
B( 25-C , 27-H ) :   0.9597 B( 25-C , 28-C ) :   1.0819 B( 28-C , 29-H ) :   0.9716
B( 28-C , 30-H ) :   0.9716 B( 28-C , 31-H ) :   0.9761

Dispersion correction           -0.013812500
FINAL SINGLE POINT ENERGY     -1339.875856825355

DIPOLE MOMENT
-------------
                                X             Y             Z
Electronic contribution:     11.10702      -5.74514     -21.70565
Nuclear contribution   :    -11.48350       5.83822      22.16982
                        -----------------------------------------
Total Dipole Moment    :     -0.37648       0.09308       0.46417
                        -----------------------------------------
Magnitude (a.u.)       :      0.60486
Magnitude (Debye)      :      1.53743

Rotational constants in cm-1:     0.017326     0.008034     0.006961
Rotational constants in MHz :   519.417843   240.863780   208.685508

                             ****ORCA TERMINATED NORMALLY****
TOTAL RUN TIME: 0 days 0 hours 0 minutes 21 seconds 69 msec
