                         Program Version 4.2.1 -  RELEASE  -
|  1> ! wB97X-D3 SP def2-SVP
|  2> %pal
|  3> nprocs 24
|  4> end
|  5>
|  6> * xyz 0 1
|  7> S 	 -98.8235 	 8.35351 	 2.51091
|  8> C 	 -100.14 	 8.40291 	 1.27023
|  9> C 	 -99.645 	 8.19953 	 -0.00482586
| 10> C 	 -98.1783 	 8.12325 	 -0.0420454
| 11> C 	 -97.6047 	 8.25002 	 1.24454
| 12> H 	 -97.5412 	 8.12311 	 -0.88327
| 13> C 	 -100.291 	 8.09572 	 -1.36224
| 14> H 	 -101.034 	 7.28335 	 -1.18125
| 15> H 	 -99.6559 	 7.72842 	 -2.17323
| 16> C 	 -101.146 	 9.25773 	 -1.8542
| 17> H 	 -101.595 	 9.87281 	 -1.0443
| 18> H 	 -100.486 	 9.9604 	 -2.34163
| 19> C 	 -102.236 	 8.8922 	 -2.84488
| 20> H 	 -102.627 	 9.6367 	 -3.49005
| 21> H 	 -102.063 	 7.96748 	 -3.35786
| 22> H 	 -103.131 	 8.65458 	 -2.20521
| 23> S 	 -95.5393 	 6.5091 	 1.74476
| 24> C 	 -93.8964 	 7.23373 	 2.00524
| 25> C 	 -93.9915 	 8.60411 	 2.05266
| 26> C 	 -95.2248 	 9.09209 	 1.77009
| 27> C 	 -96.2179 	 8.16652 	 1.60615
| 28> H 	 -93.1016 	 9.16968 	 2.23333
| 29> C 	 -95.4957 	 10.5885 	 1.63514
| 30> H 	 -96.5252 	 10.7076 	 1.36393
| 31> H 	 -94.9277 	 11.0919 	 0.908738
| 32> C 	 -95.4314 	 11.3929 	 2.91145
| 33> H 	 -94.4163 	 11.2727 	 3.39772
| 34> H 	 -96.0909 	 10.9129 	 3.5837
| 35> C 	 -95.9475 	 12.8176 	 2.86901
| 36> H 	 -95.9913 	 13.1788 	 3.88636
| 37> H 	 -96.9023 	 12.8973 	 2.34314
| 38> H 	 -95.2968 	 13.5596 	 2.39396
| 39> H 	 -101.19 	 8.53988 	 1.54446
| 40> H 	 -92.9426 	 6.69246 	 2.20879
| 41> *
| 42>
| 43>                          ****END OF INPUT****

CARTESIAN COORDINATES (ANGSTROEM)
---------------------------------
  S    -98.823500    8.353510    2.510910
  C    -100.140000    8.402910    1.270230
  C    -99.645000    8.199530   -0.004826
  C    -98.178300    8.123250   -0.042045
  C    -97.604700    8.250020    1.244540
  H    -97.541200    8.123110   -0.883270
  C    -100.291000    8.095720   -1.362240
  H    -101.034000    7.283350   -1.181250
  H    -99.655900    7.728420   -2.173230
  C    -101.146000    9.257730   -1.854200
  H    -101.595000    9.872810   -1.044300
  H    -100.486000    9.960400   -2.341630
  C    -102.236000    8.892200   -2.844880
  H    -102.627000    9.636700   -3.490050
  H    -102.063000    7.967480   -3.357860
  H    -103.131000    8.654580   -2.205210
  S    -95.539300    6.509100    1.744760
  C    -93.896400    7.233730    2.005240
  C    -93.991500    8.604110    2.052660
  C    -95.224800    9.092090    1.770090
  C    -96.217900    8.166520    1.606150
  H    -93.101600    9.169680    2.233330
  C    -95.495700   10.588500    1.635140
  H    -96.525200   10.707600    1.363930
  H    -94.927700   11.091900    0.908738
  C    -95.431400   11.392900    2.911450
  H    -94.416300   11.272700    3.397720
  H    -96.090900   10.912900    3.583700
  C    -95.947500   12.817600    2.869010
  H    -95.991300   13.178800    3.886360
  H    -96.902300   12.897300    2.343140
  H    -95.296800   13.559600    2.393960
  H    -101.190000    8.539880    1.544460
  H    -92.942600    6.692460    2.208790

 Total Charge           Charge          ....    0
 Multiplicity           Mult            ....    1
 Number of Electrons    NEL             ....  134
 Basis Dimension        Dim             ....  322

ORBITAL ENERGIES
----------------

  NO   OCC          E(Eh)            E(eV)
   0   2.0000     -88.967809     -2420.9372
   1   2.0000     -88.964681     -2420.8521
   2   2.0000     -10.331112      -281.1239
   3   2.0000     -10.324355      -280.9400
   4   2.0000     -10.323931      -280.9284
   5   2.0000     -10.323024      -280.9038
   6   2.0000     -10.310618      -280.5662
   7   2.0000     -10.298017      -280.2233
   8   2.0000     -10.297232      -280.2019
   9   2.0000     -10.296129      -280.1719
  10   2.0000     -10.286670      -279.9145
  11   2.0000     -10.285958      -279.8952
  12   2.0000     -10.278386      -279.6891
  13   2.0000     -10.277635      -279.6687
  14   2.0000     -10.276537      -279.6388
  15   2.0000     -10.274919      -279.5948
  16   2.0000      -8.081361      -219.9050
  17   2.0000      -8.077859      -219.8097
  18   2.0000      -6.040023      -164.3574
  19   2.0000      -6.036456      -164.2603
  20   2.0000      -6.035996      -164.2478
  21   2.0000      -6.032647      -164.1567
  22   2.0000      -6.032076      -164.1411
  23   2.0000      -6.028538      -164.0449
  24   2.0000      -1.002052       -27.2672
  25   2.0000      -0.976525       -26.5726
  26   2.0000      -0.914599       -24.8875
  27   2.0000      -0.909357       -24.7449
  28   2.0000      -0.871666       -23.7192
  29   2.0000      -0.849450       -23.1147
  30   2.0000      -0.846797       -23.0425
  31   2.0000      -0.810689       -22.0600
  32   2.0000      -0.784694       -21.3526
  33   2.0000      -0.773614       -21.0511
  34   2.0000      -0.706939       -19.2368
  35   2.0000      -0.703832       -19.1522
  36   2.0000      -0.692525       -18.8446
  37   2.0000      -0.663456       -18.0536
  38   2.0000      -0.645311       -17.5598
  39   2.0000      -0.612356       -16.6631
  40   2.0000      -0.598778       -16.2936
  41   2.0000      -0.576281       -15.6814
  42   2.0000      -0.565971       -15.4009
  43   2.0000      -0.555529       -15.1167
  44   2.0000      -0.528734       -14.3876
  45   2.0000      -0.524200       -14.2642
  46   2.0000      -0.515917       -14.0388
  47   2.0000      -0.513901       -13.9840
  48   2.0000      -0.506105       -13.7718
  49   2.0000      -0.499914       -13.6033
  50   2.0000      -0.495378       -13.4799
  51   2.0000      -0.485828       -13.2201
  52   2.0000      -0.469875       -12.7860
  53   2.0000      -0.464423       -12.6376
  54   2.0000      -0.456752       -12.4288
  55   2.0000      -0.446992       -12.1633
  56   2.0000      -0.441717       -12.0197
  57   2.0000      -0.438778       -11.9397
  58   2.0000      -0.425734       -11.5848
  59   2.0000      -0.423989       -11.5373
  60   2.0000      -0.421091       -11.4585
  61   2.0000      -0.409878       -11.1533
  62   2.0000      -0.405135       -11.0243
  63   2.0000      -0.339670        -9.2429
  64   2.0000      -0.327263        -8.9053
  65   2.0000      -0.316500        -8.6124
  66   2.0000      -0.312019        -8.4905
  67   0.0000       0.037517         1.0209
  68   0.0000       0.046963         1.2779
  69   0.0000       0.103256         2.8097
  70   0.0000       0.111658         3.0384
  71   0.0000       0.124431         3.3859

MULLIKEN ATOMIC CHARGES
-----------------------
   0 S :    0.107825
   1 C :   -0.140849
   2 C :   -0.048513
   3 C :    0.055617
   4 C :   -0.195222
   5 H :    0.005238
   6 C :    0.048247
   7 H :    0.032864
   8 H :    0.037840
   9 C :   -0.066393
  10 H :    0.031854
  11 H :    0.021977
  12 C :   -0.050424
  13 H :    0.032946
  14 H :    0.028709
  15 H :    0.023193
  16 S :    0.099709
  17 C :   -0.110315
  18 C :   -0.031809
  19 C :    0.024358
  20 C :   -0.185653
  21 H :    0.011737
  22 C :    0.122929
  23 H :    0.005867
  24 H :    0.014588
  25 C :   -0.094932
  26 H :    0.025650
  27 H :    0.012654
  28 C :   -0.033665
  29 H :    0.032799
  30 H :    0.034037
  31 H :    0.022258
  32 H :    0.054044
  33 H :    0.070834
Sum of atomic charges:    0.0000000

LOEWDIN ATOMIC CHARGES
----------------------
   0 S :    0.383646
   1 C :   -0.186186
   2 C :   -0.052994
   3 C :   -0.047104
   4 C :   -0.195750
   5 H :    0.026583
   6 C :   -0.036128
   7 H :    0.038873
   8 H :    0.034962
   9 C :   -0.046156
  10 H :    0.027831
  11 H :    0.019373
  12 C :   -0.068399
  13 H :    0.023220
  14 H :    0.021886
  15 H :    0.031872
  16 S :    0.367159
  17 C :   -0.164170
  18 C :   -0.073247
  19 C :   -0.053601
  20 C :   -0.191514
  21 H :    0.032310
  22 C :   -0.023022
  23 H :    0.026895
  24 H :    0.020969
  25 C :   -0.044391
  26 H :    0.023172
  27 H :    0.019094
  28 C :   -0.064656
  29 H :    0.029595
  30 H :    0.028173
  31 H :    0.021793
  32 H :    0.030315
  33 H :    0.039597

  Mayer bond orders larger than 0.100000
B(  0-S ,  1-C ) :   1.1167 B(  0-S ,  4-C ) :   1.1487 B(  1-C ,  2-C ) :   1.6350
B(  1-C , 32-H ) :   0.9702 B(  2-C ,  3-C ) :   1.2004 B(  2-C ,  6-C ) :   1.0097
B(  3-C ,  4-C ) :   1.5976 B(  3-C ,  5-H ) :   0.9992 B(  4-C , 20-C ) :   1.0213
B(  6-C ,  7-H ) :   0.9379 B(  6-C ,  8-H ) :   0.9451 B(  6-C ,  9-C ) :   1.0539
B(  9-C , 10-H ) :   0.9636 B(  9-C , 11-H ) :   0.9565 B(  9-C , 12-C ) :   1.0685
B( 12-C , 13-H ) :   0.9750 B( 12-C , 14-H ) :   0.9785 B( 12-C , 15-H ) :   0.9727
B( 16-S , 17-C ) :   1.1465 B( 16-S , 20-C ) :   1.1267 B( 17-C , 18-C ) :   1.6103
B( 17-C , 20-C ) :   0.1152 B( 17-C , 33-H ) :   0.9595 B( 18-C , 19-C ) :   1.2498
B( 18-C , 21-H ) :   0.9930 B( 19-C , 20-C ) :   1.6165 B( 19-C , 22-C ) :   1.0416
B( 22-C , 23-H ) :   0.9210 B( 22-C , 24-H ) :   0.9367 B( 22-C , 25-C ) :   1.0675
B( 25-C , 26-H ) :   0.9523 B( 25-C , 27-H ) :   0.9490 B( 25-C , 28-C ) :   1.0920
B( 28-C , 29-H ) :   0.9729 B( 28-C , 30-H ) :   0.9705 B( 28-C , 31-H ) :   0.9728

Dispersion correction           -0.013766725
FINAL SINGLE POINT ENERGY     -1339.861768911565

DIPOLE MOMENT
-------------
                                X             Y             Z
Electronic contribution:     10.12403     -18.82817      11.71827
Nuclear contribution   :    -10.18623      19.22294     -12.12236
                        -----------------------------------------
Total Dipole Moment    :     -0.06220       0.39478      -0.40409
                        -----------------------------------------
Magnitude (a.u.)       :      0.56834
Magnitude (Debye)      :      1.44460

Rotational constants in cm-1:     0.019222     0.007484     0.006323
Rotational constants in MHz :   576.269592   224.364242   189.554620

                             ****ORCA TERMINATED NORMALLY****
TOTAL RUN TIME: 0 days 0 hours 0 minutes 21 seconds 55 msec
