                         Program Version 4.2.1 -  RELEASE  -
|  1> ! wB97X-D3 SP def2-SVP
|  2> %pal
|  3> nprocs 24
|  4> end
|  5>
|  6> * xyz 0 1
|  7> S 	 -69.2394 	 8.96766 	 -70.4999
|  8> C 	 -70.5451 	 7.9354 	 -71.0367
|  9> C 	 -70.1308 	 7.13101 	 -72.0911
| 10> C 	 -68.738 	 7.24524 	 -72.4458
| 11> C 	 -68.0932 	 8.14067 	 -71.5547
| 12> H 	 -68.2043 	 6.7481 	 -73.2292
| 13> C 	 -70.9979 	 6.14439 	 -72.8346
| 14> H 	 -71.7989 	 5.80165 	 -72.2013
| 15> H 	 -70.3382 	 5.22732 	 -73.0954
| 16> C 	 -71.5719 	 6.62094 	 -74.2236
| 17> H 	 -70.6955 	 6.84062 	 -74.8411
| 18> H 	 -72.1966 	 5.87783 	 -74.7215
| 19> C 	 -72.2597 	 8.0164 	 -74.1823
| 20> H 	 -73.3308 	 7.95593 	 -73.9744
| 21> H 	 -71.7164 	 8.66574 	 -73.5152
| 22> H 	 -72.1658 	 8.42709 	 -75.203
| 23> S 	 -66.2889 	 10.2792 	 -71.674
| 24> C 	 -64.5786 	 9.90056 	 -71.4149
| 25> C 	 -64.2609 	 8.54796 	 -71.2096
| 26> C 	 -65.4817 	 7.80069 	 -71.3647
| 27> C 	 -66.6759 	 8.58379 	 -71.518
| 28> H 	 -63.2902 	 8.2164 	 -71.1244
| 29> C 	 -65.4655 	 6.29309 	 -71.1994
| 30> H 	 -66.4327 	 5.80029 	 -71.5885
| 31> H 	 -65.4084 	 5.99403 	 -70.1625
| 32> C 	 -64.2816 	 5.62243 	 -71.9691
| 33> H 	 -63.3896 	 6.12388 	 -71.5639
| 34> H 	 -64.4184 	 5.7661 	 -73.0233
| 35> C 	 -64.2805 	 4.00031 	 -71.7421
| 36> H 	 -65.1767 	 3.54276 	 -72.2267
| 37> H 	 -64.2369 	 3.69675 	 -70.6799
| 38> H 	 -63.3554 	 3.70463 	 -72.1955
| 39> H 	 -71.5737 	 7.88881 	 -70.7206
| 40> H 	 -63.8157 	 10.6019 	 -71.6635
| 41> *
| 42>
| 43>                          ****END OF INPUT****

CARTESIAN COORDINATES (ANGSTROEM)
---------------------------------
  S    -69.239400    8.967660  -70.499900
  C    -70.545100    7.935400  -71.036700
  C    -70.130800    7.131010  -72.091100
  C    -68.738000    7.245240  -72.445800
  C    -68.093200    8.140670  -71.554700
  H    -68.204300    6.748100  -73.229200
  C    -70.997900    6.144390  -72.834600
  H    -71.798900    5.801650  -72.201300
  H    -70.338200    5.227320  -73.095400
  C    -71.571900    6.620940  -74.223600
  H    -70.695500    6.840620  -74.841100
  H    -72.196600    5.877830  -74.721500
  C    -72.259700    8.016400  -74.182300
  H    -73.330800    7.955930  -73.974400
  H    -71.716400    8.665740  -73.515200
  H    -72.165800    8.427090  -75.203000
  S    -66.288900   10.279200  -71.674000
  C    -64.578600    9.900560  -71.414900
  C    -64.260900    8.547960  -71.209600
  C    -65.481700    7.800690  -71.364700
  C    -66.675900    8.583790  -71.518000
  H    -63.290200    8.216400  -71.124400
  C    -65.465500    6.293090  -71.199400
  H    -66.432700    5.800290  -71.588500
  H    -65.408400    5.994030  -70.162500
  C    -64.281600    5.622430  -71.969100
  H    -63.389600    6.123880  -71.563900
  H    -64.418400    5.766100  -73.023300
  C    -64.280500    4.000310  -71.742100
  H    -65.176700    3.542760  -72.226700
  H    -64.236900    3.696750  -70.679900
  H    -63.355400    3.704630  -72.195500
  H    -71.573700    7.888810  -70.720600
  H    -63.815700   10.601900  -71.663500

 Total Charge           Charge          ....    0
 Multiplicity           Mult            ....    1
 Number of Electrons    NEL             ....  134
 Basis Dimension        Dim             ....  322

ORBITAL ENERGIES
----------------

  NO   OCC          E(Eh)            E(eV)
   0   2.0000     -88.972569     -2421.0667
   1   2.0000     -88.970282     -2421.0045
   2   2.0000     -10.338274      -281.3187
   3   2.0000     -10.332522      -281.1622
   4   2.0000     -10.321569      -280.8642
   5   2.0000     -10.314375      -280.6684
   6   2.0000     -10.310807      -280.5713
   7   2.0000     -10.303068      -280.3607
   8   2.0000     -10.299946      -280.2758
   9   2.0000     -10.298274      -280.2303
  10   2.0000     -10.296693      -280.1873
  11   2.0000     -10.294102      -280.1168
  12   2.0000     -10.291694      -280.0512
  13   2.0000     -10.288674      -279.9690
  14   2.0000     -10.287791      -279.9450
  15   2.0000     -10.272605      -279.5318
  16   2.0000      -8.086728      -220.0510
  17   2.0000      -8.084490      -219.9902
  18   2.0000      -6.045157      -164.4971
  19   2.0000      -6.043116      -164.4415
  20   2.0000      -6.041333      -164.3930
  21   2.0000      -6.039003      -164.3296
  22   2.0000      -6.037589      -164.2912
  23   2.0000      -6.035225      -164.2268
  24   2.0000      -1.000364       -27.2213
  25   2.0000      -0.979264       -26.6471
  26   2.0000      -0.904294       -24.6071
  27   2.0000      -0.898927       -24.4610
  28   2.0000      -0.864111       -23.5137
  29   2.0000      -0.845778       -23.0148
  30   2.0000      -0.841779       -22.9060
  31   2.0000      -0.811646       -22.0860
  32   2.0000      -0.778114       -21.1736
  33   2.0000      -0.765655       -20.8345
  34   2.0000      -0.705492       -19.1974
  35   2.0000      -0.696033       -18.9400
  36   2.0000      -0.690098       -18.7785
  37   2.0000      -0.660719       -17.9791
  38   2.0000      -0.638876       -17.3847
  39   2.0000      -0.618828       -16.8392
  40   2.0000      -0.594648       -16.1812
  41   2.0000      -0.571356       -15.5474
  42   2.0000      -0.562279       -15.3004
  43   2.0000      -0.549158       -14.9433
  44   2.0000      -0.536005       -14.5854
  45   2.0000      -0.521961       -14.2033
  46   2.0000      -0.513852       -13.9826
  47   2.0000      -0.508151       -13.8275
  48   2.0000      -0.498782       -13.5725
  49   2.0000      -0.496625       -13.5139
  50   2.0000      -0.486742       -13.2449
  51   2.0000      -0.477497       -12.9934
  52   2.0000      -0.468710       -12.7543
  53   2.0000      -0.463323       -12.6077
  54   2.0000      -0.460146       -12.5212
  55   2.0000      -0.456937       -12.4339
  56   2.0000      -0.443705       -12.0738
  57   2.0000      -0.437953       -11.9173
  58   2.0000      -0.428090       -11.6489
  59   2.0000      -0.422100       -11.4859
  60   2.0000      -0.420845       -11.4518
  61   2.0000      -0.411621       -11.2008
  62   2.0000      -0.409772       -11.1505
  63   2.0000      -0.346262        -9.4223
  64   2.0000      -0.333812        -9.0835
  65   2.0000      -0.329195        -8.9578
  66   2.0000      -0.287429        -7.8214
  67   0.0000       0.027918         0.7597
  68   0.0000       0.058224         1.5844
  69   0.0000       0.107477         2.9246
  70   0.0000       0.113484         3.0881
  71   0.0000       0.122804         3.3417

MULLIKEN ATOMIC CHARGES
-----------------------
   0 S :    0.115132
   1 C :   -0.094025
   2 C :   -0.120825
   3 C :    0.058719
   4 C :   -0.171258
   5 H :    0.017340
   6 C :    0.041023
   7 H :    0.022302
   8 H :    0.040751
   9 C :   -0.080933
  10 H :    0.023193
  11 H :    0.040117
  12 C :   -0.066417
  13 H :    0.033894
  14 H :    0.044776
  15 H :    0.031450
  16 S :    0.119131
  17 C :   -0.090955
  18 C :   -0.002871
  19 C :   -0.022900
  20 C :   -0.148032
  21 H :    0.002563
  22 C :    0.037601
  23 H :    0.025851
  24 H :    0.038395
  25 C :   -0.130898
  26 H :    0.038681
  27 H :    0.039268
  28 C :   -0.058303
  29 H :    0.047893
  30 H :    0.038401
  31 H :    0.035618
  32 H :    0.041806
  33 H :    0.053513
Sum of atomic charges:   -0.0000000

LOEWDIN ATOMIC CHARGES
----------------------
   0 S :    0.407984
   1 C :   -0.205502
   2 C :   -0.065159
   3 C :   -0.058043
   4 C :   -0.180337
   5 H :    0.030907
   6 C :   -0.037919
   7 H :    0.023098
   8 H :    0.039967
   9 C :   -0.040891
  10 H :    0.022984
  11 H :    0.024826
  12 C :   -0.069539
  13 H :    0.021538
  14 H :    0.024020
  15 H :    0.028735
  16 S :    0.408545
  17 C :   -0.168888
  18 C :   -0.055208
  19 C :   -0.048170
  20 C :   -0.216817
  21 H :    0.021018
  22 C :   -0.042728
  23 H :    0.032559
  24 H :    0.029198
  25 C :   -0.033715
  26 H :    0.020407
  27 H :    0.022224
  28 C :   -0.066116
  29 H :    0.030861
  30 H :    0.026116
  31 H :    0.022754
  32 H :    0.030465
  33 H :    0.020825

  Mayer bond orders larger than 0.100000
B(  0-S ,  1-C ) :   1.1235 B(  0-S ,  4-C ) :   1.1661 B(  1-C ,  2-C ) :   1.6099
B(  1-C , 32-H ) :   0.9670 B(  2-C ,  3-C ) :   1.2274 B(  2-C ,  6-C ) :   1.0299
B(  3-C ,  4-C ) :   1.5565 B(  3-C ,  5-H ) :   0.9941 B(  4-C , 20-C ) :   1.0324
B(  6-C ,  7-H ) :   0.9452 B(  6-C ,  8-H ) :   0.9474 B(  6-C ,  9-C ) :   1.0556
B(  9-C , 10-H ) :   0.9613 B(  9-C , 11-H ) :   0.9609 B(  9-C , 12-C ) :   1.0726
B( 12-C , 13-H ) :   0.9783 B( 12-C , 14-H ) :   0.9715 B( 12-C , 15-H ) :   0.9781
B( 16-S , 17-C ) :   1.1691 B( 16-S , 20-C ) :   1.1448 B( 17-C , 18-C ) :   1.5947
B( 17-C , 33-H ) :   0.9641 B( 18-C , 19-C ) :   1.2467 B( 18-C , 21-H ) :   0.9987
B( 19-C , 20-C ) :   1.5676 B( 19-C , 22-C ) :   1.0441 B( 22-C , 23-H ) :   0.9390
B( 22-C , 24-H ) :   0.9402 B( 22-C , 25-C ) :   1.0456 B( 25-C , 26-H ) :   0.9581
B( 25-C , 27-H ) :   0.9623 B( 25-C , 28-C ) :   1.0690 B( 28-C , 29-H ) :   0.9769
B( 28-C , 30-H ) :   0.9784 B( 28-C , 31-H ) :   0.9778

Dispersion correction           -0.013924698
FINAL SINGLE POINT ENERGY     -1339.867570610036

DIPOLE MOMENT
-------------
                                X             Y             Z
Electronic contribution:      2.84643      22.11775      11.49519
Nuclear contribution   :     -2.63670     -22.61017     -11.82165
                        -----------------------------------------
Total Dipole Moment    :      0.20973      -0.49242      -0.32646
                        -----------------------------------------
Magnitude (a.u.)       :      0.62693
Magnitude (Debye)      :      1.59352

Rotational constants in cm-1:     0.018206     0.008222     0.006418
Rotational constants in MHz :   545.804527   246.501799   192.408037

                             ****ORCA TERMINATED NORMALLY****
TOTAL RUN TIME: 0 days 0 hours 0 minutes 21 seconds 309 msec
