                         Program Version 4.2.1 -  RELEASE  -
|  1> ! wB97X-D3 SP def2-SVP
|  2> %pal
|  3> nprocs 24
|  4> end
|  5>
|  6> * xyz 0 1
|  7> S 	 -53.2038 	 -51.232 	 -78.8143
|  8> C 	 -53.8654 	 -51.2512 	 -80.5121
|  9> C 	 -54.1451 	 -50.0069 	 -81.0211
| 10> C 	 -54.032 	 -49.0402 	 -80.0168
| 11> C 	 -53.6005 	 -49.4764 	 -78.7607
| 12> H 	 -54.1932 	 -47.98 	 -80.1662
| 13> C 	 -54.6725 	 -49.6456 	 -82.3989
| 14> H 	 -55.7565 	 -49.8142 	 -82.4543
| 15> H 	 -54.3438 	 -50.4929 	 -83.0664
| 16> C 	 -54.1519 	 -48.4133 	 -83.06
| 17> H 	 -54.6757 	 -48.2583 	 -83.9403
| 18> H 	 -54.4135 	 -47.5224 	 -82.6272
| 19> C 	 -52.6306 	 -48.3675 	 -83.2501
| 20> H 	 -52.1618 	 -48.4151 	 -82.2494
| 21> H 	 -52.2691 	 -49.2095 	 -83.795
| 22> H 	 -52.4243 	 -47.3313 	 -83.6914
| 23> S 	 -51.5746 	 -48.7919 	 -77.0372
| 24> C 	 -51.7969 	 -47.45 	 -75.9302
| 25> C 	 -53.0172 	 -46.8792 	 -76.08
| 26> C 	 -53.89 	 -47.5989 	 -76.9562
| 27> C 	 -53.2609 	 -48.6823 	 -77.605
| 28> H 	 -53.219 	 -46.0299 	 -75.4124
| 29> C 	 -55.3238 	 -47.1138 	 -77.1952
| 30> H 	 -55.8833 	 -46.8553 	 -76.2035
| 31> H 	 -55.9532 	 -48.0032 	 -77.4013
| 32> C 	 -55.5157 	 -46.0645 	 -78.2312
| 33> H 	 -55.2495 	 -46.3093 	 -79.2419
| 34> H 	 -54.9713 	 -45.1162 	 -77.9673
| 35> C 	 -56.9118 	 -45.6372 	 -78.3176
| 36> H 	 -57.0684 	 -44.8434 	 -79.0727
| 37> H 	 -57.2157 	 -45.3273 	 -77.3172
| 38> H 	 -57.5883 	 -46.5249 	 -78.5548
| 39> H 	 -53.9813 	 -52.1833 	 -81.0416
| 40> H 	 -51.1066 	 -47.1225 	 -75.1351
| 41> *
| 42>
| 43>                          ****END OF INPUT****

CARTESIAN COORDINATES (ANGSTROEM)
---------------------------------
  S    -53.203800  -51.232000  -78.814300
  C    -53.865400  -51.251200  -80.512100
  C    -54.145100  -50.006900  -81.021100
  C    -54.032000  -49.040200  -80.016800
  C    -53.600500  -49.476400  -78.760700
  H    -54.193200  -47.980000  -80.166200
  C    -54.672500  -49.645600  -82.398900
  H    -55.756500  -49.814200  -82.454300
  H    -54.343800  -50.492900  -83.066400
  C    -54.151900  -48.413300  -83.060000
  H    -54.675700  -48.258300  -83.940300
  H    -54.413500  -47.522400  -82.627200
  C    -52.630600  -48.367500  -83.250100
  H    -52.161800  -48.415100  -82.249400
  H    -52.269100  -49.209500  -83.795000
  H    -52.424300  -47.331300  -83.691400
  S    -51.574600  -48.791900  -77.037200
  C    -51.796900  -47.450000  -75.930200
  C    -53.017200  -46.879200  -76.080000
  C    -53.890000  -47.598900  -76.956200
  C    -53.260900  -48.682300  -77.605000
  H    -53.219000  -46.029900  -75.412400
  C    -55.323800  -47.113800  -77.195200
  H    -55.883300  -46.855300  -76.203500
  H    -55.953200  -48.003200  -77.401300
  C    -55.515700  -46.064500  -78.231200
  H    -55.249500  -46.309300  -79.241900
  H    -54.971300  -45.116200  -77.967300
  C    -56.911800  -45.637200  -78.317600
  H    -57.068400  -44.843400  -79.072700
  H    -57.215700  -45.327300  -77.317200
  H    -57.588300  -46.524900  -78.554800
  H    -53.981300  -52.183300  -81.041600
  H    -51.106600  -47.122500  -75.135100

 Total Charge           Charge          ....    0
 Multiplicity           Mult            ....    1
 Number of Electrons    NEL             ....  134
 Basis Dimension        Dim             ....  322

ORBITAL ENERGIES
----------------

  NO   OCC          E(Eh)            E(eV)
   0   2.0000     -88.968381     -2420.9527
   1   2.0000     -88.962716     -2420.7986
   2   2.0000     -10.334472      -281.2153
   3   2.0000     -10.330755      -281.1141
   4   2.0000     -10.320463      -280.8341
   5   2.0000     -10.315768      -280.7063
   6   2.0000     -10.308817      -280.5172
   7   2.0000     -10.302003      -280.3318
   8   2.0000     -10.298922      -280.2479
   9   2.0000     -10.298345      -280.2322
  10   2.0000     -10.294618      -280.1308
  11   2.0000     -10.291703      -280.0515
  12   2.0000     -10.281806      -279.7822
  13   2.0000     -10.281630      -279.7774
  14   2.0000     -10.278699      -279.6976
  15   2.0000     -10.274837      -279.5925
  16   2.0000      -8.081340      -219.9044
  17   2.0000      -8.077102      -219.7891
  18   2.0000      -6.039889      -164.3537
  19   2.0000      -6.036344      -164.2573
  20   2.0000      -6.035680      -164.2392
  21   2.0000      -6.031918      -164.1368
  22   2.0000      -6.031657      -164.1297
  23   2.0000      -6.027790      -164.0245
  24   2.0000      -1.000445       -27.2235
  25   2.0000      -0.978920       -26.6378
  26   2.0000      -0.920723       -25.0541
  27   2.0000      -0.918666       -24.9982
  28   2.0000      -0.872597       -23.7446
  29   2.0000      -0.852088       -23.1865
  30   2.0000      -0.843156       -22.9434
  31   2.0000      -0.813884       -22.1469
  32   2.0000      -0.784371       -21.3438
  33   2.0000      -0.768302       -20.9066
  34   2.0000      -0.715562       -19.4714
  35   2.0000      -0.702368       -19.1124
  36   2.0000      -0.690949       -18.8017
  37   2.0000      -0.654673       -17.8146
  38   2.0000      -0.641519       -17.4566
  39   2.0000      -0.624655       -16.9977
  40   2.0000      -0.597879       -16.2691
  41   2.0000      -0.571844       -15.5607
  42   2.0000      -0.566060       -15.4033
  43   2.0000      -0.560177       -15.2432
  44   2.0000      -0.535579       -14.5738
  45   2.0000      -0.532949       -14.5023
  46   2.0000      -0.519209       -14.1284
  47   2.0000      -0.514176       -13.9914
  48   2.0000      -0.507167       -13.8007
  49   2.0000      -0.494928       -13.4677
  50   2.0000      -0.486938       -13.2503
  51   2.0000      -0.479921       -13.0593
  52   2.0000      -0.468182       -12.7399
  53   2.0000      -0.457039       -12.4367
  54   2.0000      -0.453041       -12.3279
  55   2.0000      -0.446197       -12.1416
  56   2.0000      -0.441423       -12.0117
  57   2.0000      -0.439479       -11.9588
  58   2.0000      -0.436034       -11.8651
  59   2.0000      -0.429624       -11.6907
  60   2.0000      -0.418996       -11.4015
  61   2.0000      -0.413850       -11.2614
  62   2.0000      -0.405322       -11.0294
  63   2.0000      -0.346083        -9.4174
  64   2.0000      -0.335545        -9.1306
  65   2.0000      -0.329650        -8.9702
  66   2.0000      -0.289583        -7.8800
  67   0.0000       0.021826         0.5939
  68   0.0000       0.065588         1.7847
  69   0.0000       0.100269         2.7285
  70   0.0000       0.124769         3.3951
  71   0.0000       0.128920         3.5081

MULLIKEN ATOMIC CHARGES
-----------------------
   0 S :    0.093094
   1 C :   -0.131828
   2 C :   -0.064851
   3 C :    0.031582
   4 C :   -0.150856
   5 H :    0.002162
   6 C :    0.055590
   7 H :    0.048624
   8 H :    0.016445
   9 C :   -0.004258
  10 H :    0.000598
  11 H :   -0.005876
  12 C :   -0.066385
  13 H :    0.046728
  14 H :    0.032552
  15 H :    0.047711
  16 S :    0.090311
  17 C :   -0.102834
  18 C :   -0.037926
  19 C :   -0.014125
  20 C :   -0.128545
  21 H :    0.027189
  22 C :   -0.007037
  23 H :    0.033714
  24 H :    0.026386
  25 C :   -0.025004
  26 H :    0.020237
  27 H :    0.028812
  28 C :   -0.060196
  29 H :    0.041858
  30 H :    0.017485
  31 H :    0.028878
  32 H :    0.042985
  33 H :    0.066783
Sum of atomic charges:    0.0000000

LOEWDIN ATOMIC CHARGES
----------------------
   0 S :    0.356480
   1 C :   -0.161674
   2 C :   -0.069193
   3 C :   -0.052769
   4 C :   -0.178441
   5 H :    0.027742
   6 C :   -0.033805
   7 H :    0.038759
   8 H :    0.036263
   9 C :   -0.044699
  10 H :    0.022018
  11 H :    0.012037
  12 C :   -0.058393
  13 H :    0.031318
  14 H :    0.019478
  15 H :    0.038684
  16 S :    0.386843
  17 C :   -0.186886
  18 C :   -0.078444
  19 C :   -0.054679
  20 C :   -0.189726
  21 H :    0.037801
  22 C :   -0.045805
  23 H :    0.041550
  24 H :    0.034242
  25 C :   -0.049941
  26 H :    0.019482
  27 H :    0.031024
  28 C :   -0.065369
  29 H :    0.028349
  30 H :    0.019225
  31 H :    0.027312
  32 H :    0.022936
  33 H :    0.038280

  Mayer bond orders larger than 0.100000
B(  0-S ,  1-C ) :   1.1282 B(  0-S ,  4-C ) :   1.1254 B(  1-C ,  2-C ) :   1.6214
B(  1-C ,  4-C ) :   0.1059 B(  1-C , 32-H ) :   0.9683 B(  2-C ,  3-C ) :   1.2379
B(  2-C ,  6-C ) :   1.0063 B(  3-C ,  4-C ) :   1.5809 B(  3-C ,  5-H ) :   0.9886
B(  4-C , 20-C ) :   1.0593 B(  6-C ,  7-H ) :   0.9374 B(  6-C ,  8-H ) :   0.9353
B(  6-C ,  9-C ) :   1.0810 B(  9-C , 10-H ) :   0.9382 B(  9-C , 11-H ) :   0.9424
B(  9-C , 12-C ) :   1.0738 B( 12-C , 13-H ) :   0.9729 B( 12-C , 14-H ) :   0.9780
B( 12-C , 15-H ) :   0.9725 B( 16-S , 17-C ) :   1.1436 B( 16-S , 20-C ) :   1.1258
B( 17-C , 18-C ) :   1.6374 B( 17-C , 33-H ) :   0.9601 B( 18-C , 19-C ) :   1.2287
B( 18-C , 21-H ) :   0.9876 B( 19-C , 20-C ) :   1.5972 B( 19-C , 22-C ) :   1.0390
B( 22-C , 23-H ) :   0.9402 B( 22-C , 24-H ) :   0.9306 B( 22-C , 25-C ) :   1.0695
B( 25-C , 26-H ) :   0.9446 B( 25-C , 27-H ) :   0.9458 B( 25-C , 28-C ) :   1.0937
B( 28-C , 29-H ) :   0.9713 B( 28-C , 30-H ) :   0.9707 B( 28-C , 31-H ) :   0.9689

Dispersion correction           -0.014467304
FINAL SINGLE POINT ENERGY     -1339.861786642931

DIPOLE MOMENT
-------------
                                X             Y             Z
Electronic contribution:     15.06436     -16.99924      16.69236
Nuclear contribution   :    -15.49453      17.51198     -17.09083
                        -----------------------------------------
Total Dipole Moment    :     -0.43017       0.51274      -0.39847
                        -----------------------------------------
Magnitude (a.u.)       :      0.77892
Magnitude (Debye)      :      1.97987

Rotational constants in cm-1:     0.015888     0.010001     0.007528
Rotational constants in MHz :   476.308994   299.822549   225.675618

                             ****ORCA TERMINATED NORMALLY****
TOTAL RUN TIME: 0 days 0 hours 0 minutes 22 seconds 223 msec
