                         Program Version 4.2.1 -  RELEASE  -
|  1> ! wB97X-D3 SP def2-SVP
|  2> %pal
|  3> nprocs 24
|  4> end
|  5>
|  6> * xyz 0 1
|  7> S 	 -124.769 	 17.9144 	 -21.5129
|  8> C 	 -123.813 	 18.6826 	 -20.2869
|  9> C 	 -122.602 	 19.1995 	 -20.7606
| 10> C 	 -122.731 	 19.3757 	 -22.206
| 11> C 	 -123.726 	 18.5617 	 -22.7693
| 12> H 	 -122.017 	 19.873 	 -22.8342
| 13> C 	 -121.533 	 19.947 	 -19.8984
| 14> H 	 -122.019 	 20.384 	 -19.0321
| 15> H 	 -121.16 	 20.6965 	 -20.545
| 16> C 	 -120.497 	 19.0196 	 -19.3079
| 17> H 	 -120.987 	 18.2531 	 -18.7171
| 18> H 	 -119.982 	 18.5195 	 -20.0555
| 19> C 	 -119.485 	 19.7345 	 -18.3544
| 20> H 	 -118.937 	 20.4446 	 -18.9321
| 21> H 	 -119.986 	 20.2242 	 -17.4684
| 22> H 	 -118.748 	 18.9935 	 -17.9981
| 23> S 	 -124.096 	 19.9842 	 -25.1979
| 24> C 	 -124.774 	 19.1162 	 -26.4818
| 25> C 	 -124.845 	 17.7847 	 -26.2529
| 26> C 	 -124.417 	 17.4116 	 -24.9725
| 27> C 	 -124.049 	 18.5046 	 -24.1752
| 28> H 	 -125.123 	 17.1279 	 -27.061
| 29> C 	 -124.522 	 15.9305 	 -24.5388
| 30> H 	 -125.372 	 15.4797 	 -25.0471
| 31> H 	 -124.836 	 15.8869 	 -23.4654
| 32> C 	 -123.304 	 14.9383 	 -24.7455
| 33> H 	 -123.678 	 13.9137 	 -24.461
| 34> H 	 -122.581 	 15.1693 	 -23.9683
| 35> C 	 -122.651 	 15.0132 	 -26.1766
| 36> H 	 -122.092 	 14.043 	 -26.413
| 37> H 	 -121.991 	 15.821 	 -26.181
| 38> H 	 -123.441 	 15.1303 	 -26.9708
| 39> H 	 -123.966 	 18.5985 	 -19.2397
| 40> H 	 -125.008 	 19.5775 	 -27.3819
| 41> *
| 42>
| 43>                          ****END OF INPUT****

CARTESIAN COORDINATES (ANGSTROEM)
---------------------------------
  S    -124.769000   17.914400  -21.512900
  C    -123.813000   18.682600  -20.286900
  C    -122.602000   19.199500  -20.760600
  C    -122.731000   19.375700  -22.206000
  C    -123.726000   18.561700  -22.769300
  H    -122.017000   19.873000  -22.834200
  C    -121.533000   19.947000  -19.898400
  H    -122.019000   20.384000  -19.032100
  H    -121.160000   20.696500  -20.545000
  C    -120.497000   19.019600  -19.307900
  H    -120.987000   18.253100  -18.717100
  H    -119.982000   18.519500  -20.055500
  C    -119.485000   19.734500  -18.354400
  H    -118.937000   20.444600  -18.932100
  H    -119.986000   20.224200  -17.468400
  H    -118.748000   18.993500  -17.998100
  S    -124.096000   19.984200  -25.197900
  C    -124.774000   19.116200  -26.481800
  C    -124.845000   17.784700  -26.252900
  C    -124.417000   17.411600  -24.972500
  C    -124.049000   18.504600  -24.175200
  H    -125.123000   17.127900  -27.061000
  C    -124.522000   15.930500  -24.538800
  H    -125.372000   15.479700  -25.047100
  H    -124.836000   15.886900  -23.465400
  C    -123.304000   14.938300  -24.745500
  H    -123.678000   13.913700  -24.461000
  H    -122.581000   15.169300  -23.968300
  C    -122.651000   15.013200  -26.176600
  H    -122.092000   14.043000  -26.413000
  H    -121.991000   15.821000  -26.181000
  H    -123.441000   15.130300  -26.970800
  H    -123.966000   18.598500  -19.239700
  H    -125.008000   19.577500  -27.381900

 Total Charge           Charge          ....    0
 Multiplicity           Mult            ....    1
 Number of Electrons    NEL             ....  134
 Basis Dimension        Dim             ....  322

ORBITAL ENERGIES
----------------

  NO   OCC          E(Eh)            E(eV)
   0   2.0000     -88.970840     -2421.0196
   1   2.0000     -88.965115     -2420.8639
   2   2.0000     -10.329410      -281.0775
   3   2.0000     -10.328244      -281.0458
   4   2.0000     -10.312464      -280.6164
   5   2.0000     -10.306872      -280.4642
   6   2.0000     -10.305176      -280.4181
   7   2.0000     -10.302324      -280.3405
   8   2.0000     -10.297423      -280.2071
   9   2.0000     -10.294467      -280.1267
  10   2.0000     -10.292316      -280.0682
  11   2.0000     -10.292121      -280.0629
  12   2.0000     -10.284634      -279.8591
  13   2.0000     -10.283149      -279.8187
  14   2.0000     -10.283014      -279.8150
  15   2.0000     -10.280147      -279.7370
  16   2.0000      -8.085063      -220.0057
  17   2.0000      -8.080241      -219.8745
  18   2.0000      -6.043713      -164.4578
  19   2.0000      -6.039614      -164.3463
  20   2.0000      -6.038656      -164.3202
  21   2.0000      -6.035750      -164.2411
  22   2.0000      -6.034735      -164.2135
  23   2.0000      -6.031040      -164.1129
  24   2.0000      -1.005944       -27.3731
  25   2.0000      -0.985107       -26.8061
  26   2.0000      -0.912146       -24.8207
  27   2.0000      -0.895252       -24.3611
  28   2.0000      -0.869749       -23.6671
  29   2.0000      -0.848593       -23.0914
  30   2.0000      -0.843108       -22.9421
  31   2.0000      -0.809471       -22.0268
  32   2.0000      -0.782476       -21.2923
  33   2.0000      -0.772800       -21.0290
  34   2.0000      -0.707989       -19.2654
  35   2.0000      -0.702528       -19.1168
  36   2.0000      -0.688433       -18.7332
  37   2.0000      -0.663760       -18.0618
  38   2.0000      -0.638274       -17.3683
  39   2.0000      -0.613287       -16.6884
  40   2.0000      -0.591787       -16.1034
  41   2.0000      -0.572916       -15.5898
  42   2.0000      -0.566497       -15.4152
  43   2.0000      -0.549924       -14.9642
  44   2.0000      -0.531849       -14.4723
  45   2.0000      -0.520683       -14.1685
  46   2.0000      -0.514400       -13.9975
  47   2.0000      -0.510383       -13.8882
  48   2.0000      -0.504346       -13.7239
  49   2.0000      -0.496119       -13.5001
  50   2.0000      -0.483805       -13.1650
  51   2.0000      -0.477168       -12.9844
  52   2.0000      -0.473780       -12.8922
  53   2.0000      -0.469162       -12.7666
  54   2.0000      -0.462427       -12.5833
  55   2.0000      -0.447887       -12.1876
  56   2.0000      -0.441215       -12.0061
  57   2.0000      -0.437544       -11.9062
  58   2.0000      -0.431372       -11.7382
  59   2.0000      -0.426603       -11.6085
  60   2.0000      -0.421904       -11.4806
  61   2.0000      -0.417908       -11.3718
  62   2.0000      -0.412028       -11.2119
  63   2.0000      -0.349651        -9.5145
  64   2.0000      -0.333585        -9.0773
  65   2.0000      -0.330925        -9.0049
  66   2.0000      -0.283331        -7.7098
  67   0.0000       0.027036         0.7357
  68   0.0000       0.066790         1.8175
  69   0.0000       0.099043         2.6951
  70   0.0000       0.117219         3.1897
  71   0.0000       0.129634         3.5275

MULLIKEN ATOMIC CHARGES
-----------------------
   0 S :    0.124814
   1 C :   -0.099907
   2 C :   -0.097509
   3 C :   -0.012867
   4 C :   -0.130751
   5 H :    0.014072
   6 C :    0.084850
   7 H :    0.022361
   8 H :    0.016355
   9 C :   -0.064196
  10 H :    0.023639
  11 H :    0.013692
  12 C :   -0.055707
  13 H :    0.025012
  14 H :    0.043208
  15 H :    0.039445
  16 S :    0.112119
  17 C :   -0.062245
  18 C :   -0.033095
  19 C :   -0.023373
  20 C :   -0.153391
  21 H :    0.014917
  22 C :    0.030081
  23 H :    0.024141
  24 H :    0.023164
  25 C :   -0.074454
  26 H :    0.035490
  27 H :    0.034371
  28 C :   -0.065010
  29 H :    0.046899
  30 H :    0.040456
  31 H :    0.035306
  32 H :    0.038009
  33 H :    0.030104
Sum of atomic charges:   -0.0000000

LOEWDIN ATOMIC CHARGES
----------------------
   0 S :    0.422319
   1 C :   -0.196775
   2 C :   -0.053978
   3 C :   -0.060795
   4 C :   -0.195093
   5 H :    0.024656
   6 C :   -0.021304
   7 H :    0.031329
   8 H :    0.024273
   9 C :   -0.035487
  10 H :    0.023183
  11 H :    0.013975
  12 C :   -0.065434
  13 H :    0.018312
  14 H :    0.030287
  15 H :    0.030104
  16 S :    0.413160
  17 C :   -0.186197
  18 C :   -0.075772
  19 C :   -0.058776
  20 C :   -0.188192
  21 H :    0.031055
  22 C :   -0.038489
  23 H :    0.027368
  24 H :    0.025170
  25 C :   -0.039406
  26 H :    0.027800
  27 H :    0.022695
  28 C :   -0.068341
  29 H :    0.036114
  30 H :    0.019298
  31 H :    0.027183
  32 H :    0.019603
  33 H :    0.016156

  Mayer bond orders larger than 0.100000
B(  0-S ,  1-C ) :   1.1522 B(  0-S ,  4-C ) :   1.1344 B(  1-C ,  2-C ) :   1.6111
B(  1-C , 32-H ) :   0.9635 B(  2-C ,  3-C ) :   1.2288 B(  2-C ,  6-C ) :   1.0220
B(  3-C ,  4-C ) :   1.5680 B(  3-C ,  5-H ) :   0.9879 B(  4-C , 20-C ) :   1.0957
B(  6-C ,  7-H ) :   0.9466 B(  6-C ,  8-H ) :   0.9461 B(  6-C ,  9-C ) :   1.0576
B(  9-C , 10-H ) :   0.9579 B(  9-C , 11-H ) :   0.9550 B(  9-C , 12-C ) :   1.0831
B( 12-C , 13-H ) :   0.9759 B( 12-C , 14-H ) :   0.9752 B( 12-C , 15-H ) :   0.9753
B( 16-S , 17-C ) :   1.1713 B( 16-S , 20-C ) :   1.1283 B( 17-C , 18-C ) :   1.5935
B( 17-C , 33-H ) :   0.9724 B( 18-C , 19-C ) :   1.2591 B( 18-C , 21-H ) :   0.9944
B( 19-C , 20-C ) :   1.5567 B( 19-C , 22-C ) :   1.0292 B( 22-C , 23-H ) :   0.9432
B( 22-C , 24-H ) :   0.9357 B( 22-C , 25-C ) :   1.0673 B( 25-C , 26-H ) :   0.9593
B( 25-C , 27-H ) :   0.9611 B( 25-C , 28-C ) :   1.0597 B( 28-C , 29-H ) :   0.9758
B( 28-C , 30-H ) :   0.9755 B( 28-C , 31-H ) :   0.9785

Dispersion correction           -0.013914172
FINAL SINGLE POINT ENERGY     -1339.872328536521

DIPOLE MOMENT
-------------
                                X             Y             Z
Electronic contribution:    -17.20456      10.08431      -7.77971
Nuclear contribution   :     17.53321     -10.23424       7.84796
                        -----------------------------------------
Total Dipole Moment    :      0.32865      -0.14994       0.06826
                        -----------------------------------------
Magnitude (a.u.)       :      0.36763
Magnitude (Debye)      :      0.93444

Rotational constants in cm-1:     0.021086     0.007047     0.006436
Rotational constants in MHz :   632.153566   211.278729   192.945267

                             ****ORCA TERMINATED NORMALLY****
TOTAL RUN TIME: 0 days 0 hours 0 minutes 19 seconds 934 msec
