                         Program Version 4.2.1 -  RELEASE  -
|  1> ! wB97X-D3 SP def2-SVP
|  2> %pal
|  3> nprocs 24
|  4> end
|  5>
|  6> * xyz 0 1
|  7> S 	 -39.533 	 -49.9877 	 -74.4924
|  8> C 	 -40.7629 	 -49.0198 	 -75.2532
|  9> C 	 -40.2794 	 -47.7549 	 -75.56
| 10> C 	 -38.8446 	 -47.655 	 -75.3366
| 11> C 	 -38.2976 	 -48.7833 	 -74.8083
| 12> H 	 -38.2584 	 -46.7212 	 -75.44
| 13> C 	 -41.0765 	 -46.6275 	 -76.1449
| 14> H 	 -42.1023 	 -46.9046 	 -76.1712
| 15> H 	 -40.6701 	 -46.4916 	 -77.1881
| 16> C 	 -40.9995 	 -45.2499 	 -75.5275
| 17> H 	 -39.9491 	 -44.9646 	 -75.4699
| 18> H 	 -41.4084 	 -44.4398 	 -76.1858
| 19> C 	 -41.683 	 -45.122 	 -74.0919
| 20> H 	 -41.2603 	 -44.2664 	 -73.4773
| 21> H 	 -42.7665 	 -44.9395 	 -74.2015
| 22> H 	 -41.5746 	 -46.0075 	 -73.4683
| 23> S 	 -36.7212 	 -49.425 	 -72.7206
| 24> C 	 -35.0565 	 -48.9446 	 -72.6152
| 25> C 	 -34.6735 	 -48.5357 	 -73.86
| 26> C 	 -35.7311 	 -48.3347 	 -74.7451
| 27> C 	 -36.9251 	 -48.8489 	 -74.3154
| 28> H 	 -33.6838 	 -48.3016 	 -74.0697
| 29> C 	 -35.4427 	 -47.8534 	 -76.1646
| 30> H 	 -34.7206 	 -47.0111 	 -76.126
| 31> H 	 -36.35 	 -47.4576 	 -76.6442
| 32> C 	 -34.978 	 -48.9838 	 -77.1227
| 33> H 	 -34.0101 	 -49.2955 	 -76.9317
| 34> H 	 -34.9875 	 -48.6244 	 -78.1976
| 35> C 	 -35.8969 	 -50.2401 	 -77.0951
| 36> H 	 -35.6501 	 -50.9147 	 -77.8977
| 37> H 	 -36.989 	 -50.0292 	 -77.2072
| 38> H 	 -35.7891 	 -50.6265 	 -76.0861
| 39> H 	 -41.7684 	 -49.2954 	 -75.3791
| 40> H 	 -34.3536 	 -49.1201 	 -71.7941
| 41> *
| 42>
| 43>                          ****END OF INPUT****

CARTESIAN COORDINATES (ANGSTROEM)
---------------------------------
  S    -39.533000  -49.987700  -74.492400
  C    -40.762900  -49.019800  -75.253200
  C    -40.279400  -47.754900  -75.560000
  C    -38.844600  -47.655000  -75.336600
  C    -38.297600  -48.783300  -74.808300
  H    -38.258400  -46.721200  -75.440000
  C    -41.076500  -46.627500  -76.144900
  H    -42.102300  -46.904600  -76.171200
  H    -40.670100  -46.491600  -77.188100
  C    -40.999500  -45.249900  -75.527500
  H    -39.949100  -44.964600  -75.469900
  H    -41.408400  -44.439800  -76.185800
  C    -41.683000  -45.122000  -74.091900
  H    -41.260300  -44.266400  -73.477300
  H    -42.766500  -44.939500  -74.201500
  H    -41.574600  -46.007500  -73.468300
  S    -36.721200  -49.425000  -72.720600
  C    -35.056500  -48.944600  -72.615200
  C    -34.673500  -48.535700  -73.860000
  C    -35.731100  -48.334700  -74.745100
  C    -36.925100  -48.848900  -74.315400
  H    -33.683800  -48.301600  -74.069700
  C    -35.442700  -47.853400  -76.164600
  H    -34.720600  -47.011100  -76.126000
  H    -36.350000  -47.457600  -76.644200
  C    -34.978000  -48.983800  -77.122700
  H    -34.010100  -49.295500  -76.931700
  H    -34.987500  -48.624400  -78.197600
  C    -35.896900  -50.240100  -77.095100
  H    -35.650100  -50.914700  -77.897700
  H    -36.989000  -50.029200  -77.207200
  H    -35.789100  -50.626500  -76.086100
  H    -41.768400  -49.295400  -75.379100
  H    -34.353600  -49.120100  -71.794100

 Total Charge           Charge          ....    0
 Multiplicity           Mult            ....    1
 Number of Electrons    NEL             ....  134
 Basis Dimension        Dim             ....  322

ORBITAL ENERGIES
----------------

  NO   OCC          E(Eh)            E(eV)
   0   2.0000     -88.969100     -2420.9723
   1   2.0000     -88.963347     -2420.8157
   2   2.0000     -10.331943      -281.1465
   3   2.0000     -10.324077      -280.9324
   4   2.0000     -10.315602      -280.7018
   5   2.0000     -10.313138      -280.6348
   6   2.0000     -10.304687      -280.4048
   7   2.0000     -10.296174      -280.1731
   8   2.0000     -10.295704      -280.1603
   9   2.0000     -10.294354      -280.1236
  10   2.0000     -10.293518      -280.1009
  11   2.0000     -10.292890      -280.0838
  12   2.0000     -10.284455      -279.8542
  13   2.0000     -10.284209      -279.8476
  14   2.0000     -10.283003      -279.8147
  15   2.0000     -10.269433      -279.4455
  16   2.0000      -8.083807      -219.9716
  17   2.0000      -8.079256      -219.8477
  18   2.0000      -6.042530      -164.4256
  19   2.0000      -6.038322      -164.3111
  20   2.0000      -6.037671      -164.2934
  21   2.0000      -6.034339      -164.2027
  22   2.0000      -6.033493      -164.1797
  23   2.0000      -6.030117      -164.0878
  24   2.0000      -1.018100       -27.7039
  25   2.0000      -0.991639       -26.9839
  26   2.0000      -0.911939       -24.8151
  27   2.0000      -0.904076       -24.6012
  28   2.0000      -0.875438       -23.8219
  29   2.0000      -0.847367       -23.0580
  30   2.0000      -0.839311       -22.8388
  31   2.0000      -0.818020       -22.2595
  32   2.0000      -0.779938       -21.2232
  33   2.0000      -0.773550       -21.0494
  34   2.0000      -0.710804       -19.3419
  35   2.0000      -0.697943       -18.9920
  36   2.0000      -0.692219       -18.8362
  37   2.0000      -0.666626       -18.1398
  38   2.0000      -0.640284       -17.4230
  39   2.0000      -0.625392       -17.0178
  40   2.0000      -0.596829       -16.2405
  41   2.0000      -0.569881       -15.5073
  42   2.0000      -0.552832       -15.0433
  43   2.0000      -0.549646       -14.9566
  44   2.0000      -0.542077       -14.7507
  45   2.0000      -0.536947       -14.6111
  46   2.0000      -0.518040       -14.0966
  47   2.0000      -0.509322       -13.8593
  48   2.0000      -0.505574       -13.7574
  49   2.0000      -0.497827       -13.5466
  50   2.0000      -0.491046       -13.3620
  51   2.0000      -0.477420       -12.9912
  52   2.0000      -0.471674       -12.8349
  53   2.0000      -0.463344       -12.6082
  54   2.0000      -0.460336       -12.5264
  55   2.0000      -0.449068       -12.2198
  56   2.0000      -0.442986       -12.0543
  57   2.0000      -0.434287       -11.8175
  58   2.0000      -0.431066       -11.7299
  59   2.0000      -0.426789       -11.6135
  60   2.0000      -0.419427       -11.4132
  61   2.0000      -0.413606       -11.2548
  62   2.0000      -0.404803       -11.0153
  63   2.0000      -0.359805        -9.7908
  64   2.0000      -0.332977        -9.0608
  65   2.0000      -0.325842        -8.8666
  66   2.0000      -0.291746        -7.9388
  67   0.0000       0.030348         0.8258
  68   0.0000       0.073576         2.0021
  69   0.0000       0.112807         3.0696
  70   0.0000       0.116649         3.1742
  71   0.0000       0.132806         3.6138

MULLIKEN ATOMIC CHARGES
-----------------------
   0 S :    0.110589
   1 C :   -0.098658
   2 C :   -0.093163
   3 C :   -0.007361
   4 C :   -0.110124
   5 H :    0.038983
   6 C :    0.078447
   7 H :    0.008035
   8 H :    0.048028
   9 C :   -0.083420
  10 H :    0.021414
  11 H :    0.038561
  12 C :   -0.092096
  13 H :    0.044475
  14 H :    0.036661
  15 H :    0.044031
  16 S :    0.101343
  17 C :   -0.091266
  18 C :   -0.004708
  19 C :   -0.083137
  20 C :   -0.135287
  21 H :   -0.008815
  22 C :    0.059166
  23 H :    0.030110
  24 H :    0.018185
  25 C :   -0.058220
  26 H :    0.011139
  27 H :    0.032955
  28 C :   -0.075140
  29 H :    0.036337
  30 H :    0.038541
  31 H :    0.049755
  32 H :    0.029423
  33 H :    0.065218
Sum of atomic charges:   -0.0000000

LOEWDIN ATOMIC CHARGES
----------------------
   0 S :    0.404041
   1 C :   -0.193973
   2 C :   -0.058058
   3 C :   -0.065661
   4 C :   -0.188694
   5 H :    0.037441
   6 C :   -0.036108
   7 H :    0.023054
   8 H :    0.045276
   9 C :   -0.045287
  10 H :    0.018969
  11 H :    0.032136
  12 C :   -0.077055
  13 H :    0.033953
  14 H :    0.025660
  15 H :    0.025441
  16 S :    0.431420
  17 C :   -0.191319
  18 C :   -0.064040
  19 C :   -0.071306
  20 C :   -0.204095
  21 H :    0.020580
  22 C :   -0.032412
  23 H :    0.031124
  24 H :    0.028244
  25 C :   -0.033715
  26 H :    0.008412
  27 H :    0.028556
  28 C :   -0.068792
  29 H :    0.023961
  30 H :    0.028898
  31 H :    0.025781
  32 H :    0.020352
  33 H :    0.037216

  Mayer bond orders larger than 0.100000
B(  0-S ,  1-C ) :   1.1236 B(  0-S ,  4-C ) :   1.1381 B(  1-C ,  2-C ) :   1.6186
B(  1-C , 32-H ) :   0.9746 B(  2-C ,  3-C ) :   1.2164 B(  2-C ,  6-C ) :   1.0386
B(  3-C ,  4-C ) :   1.5992 B(  3-C ,  5-H ) :   0.9807 B(  4-C , 20-C ) :   1.0289
B(  6-C ,  7-H ) :   0.9416 B(  6-C ,  8-H ) :   0.9297 B(  6-C ,  9-C ) :   1.0777
B(  9-C , 10-H ) :   0.9569 B(  9-C , 11-H ) :   0.9560 B(  9-C , 12-C ) :   1.0539
B( 12-C , 13-H ) :   0.9778 B( 12-C , 14-H ) :   0.9776 B( 12-C , 15-H ) :   0.9816
B( 16-S , 17-C ) :   1.1658 B( 16-S , 20-C ) :   1.1588 B( 17-C , 18-C ) :   1.5731
B( 17-C , 20-C ) :   0.1040 B( 17-C , 33-H ) :   0.9679 B( 18-C , 19-C ) :   1.2721
B( 18-C , 21-H ) :   1.0001 B( 19-C , 20-C ) :   1.5740 B( 19-C , 22-C ) :   1.0546
B( 22-C , 23-H ) :   0.9363 B( 22-C , 24-H ) :   0.9382 B( 22-C , 25-C ) :   1.0636
B( 25-C , 26-H ) :   0.9580 B( 25-C , 27-H ) :   0.9594 B( 25-C , 28-C ) :   1.0737
B( 28-C , 29-H ) :   0.9737 B( 28-C , 30-H ) :   0.9751 B( 28-C , 31-H ) :   0.9703

Dispersion correction           -0.015381929
FINAL SINGLE POINT ENERGY     -1339.883957741951

DIPOLE MOMENT
-------------
                                X             Y             Z
Electronic contribution:      2.62770     -14.39287      14.04696
Nuclear contribution   :     -2.53179      14.89019     -14.34317
                        -----------------------------------------
Total Dipole Moment    :      0.09592       0.49732      -0.29621
                        -----------------------------------------
Magnitude (a.u.)       :      0.58674
Magnitude (Debye)      :      1.49137

Rotational constants in cm-1:     0.020247     0.008540     0.008056
Rotational constants in MHz :   606.983517   256.015099   241.510373

                             ****ORCA TERMINATED NORMALLY****
TOTAL RUN TIME: 0 days 0 hours 0 minutes 21 seconds 274 msec
