                         Program Version 4.2.1 -  RELEASE  -
|  1> ! wB97X-D3 SP def2-SVP
|  2> %pal
|  3> nprocs 24
|  4> end
|  5>
|  6> * xyz 0 1
|  7> S 	 -109.452 	 0.478906 	 -109.254
|  8> C 	 -110.62 	 1.82632 	 -109.065
|  9> C 	 -109.919 	 2.95678 	 -108.779
| 10> C 	 -108.505 	 2.77728 	 -108.615
| 11> C 	 -108.096 	 1.42006 	 -108.77
| 12> H 	 -107.759 	 3.50651 	 -108.294
| 13> C 	 -110.45 	 4.35017 	 -108.66
| 14> H 	 -109.698 	 4.92497 	 -108.112
| 15> H 	 -111.3 	 4.27303 	 -108.029
| 16> C 	 -110.78 	 5.13437 	 -109.937
| 17> H 	 -109.915 	 5.38594 	 -110.649
| 18> H 	 -111.451 	 4.55928 	 -110.618
| 19> C 	 -111.575 	 6.406 	 -109.686
| 20> H 	 -110.898 	 7.13225 	 -109.209
| 21> H 	 -111.941 	 6.90366 	 -110.647
| 22> H 	 -112.458 	 6.25076 	 -108.986
| 23> S 	 -106.347 	 -0.299061 	 -110.003
| 24> C 	 -104.678 	 -0.330356 	 -109.579
| 25> C 	 -104.471 	 0.413779 	 -108.455
| 26> C 	 -105.65 	 1.13491 	 -108.031
| 27> C 	 -106.733 	 0.903978 	 -108.81
| 28> H 	 -103.47 	 0.418841 	 -108.025
| 29> C 	 -105.566 	 1.97711 	 -106.79
| 30> H 	 -106.476 	 2.44396 	 -106.433
| 31> H 	 -105.118 	 2.88611 	 -107.23
| 32> C 	 -104.812 	 1.3209 	 -105.595
| 33> H 	 -104.537 	 2.05544 	 -104.837
| 34> H 	 -103.724 	 1.05047 	 -105.77
| 35> C 	 -105.593 	 0.160659 	 -105.009
| 36> H 	 -105.586 	 -0.741789 	 -105.6
| 37> H 	 -106.687 	 0.4459 	 -104.96
| 38> H 	 -105.276 	 -0.0545432 	 -104.024
| 39> H 	 -111.652 	 1.76952 	 -109.421
| 40> H 	 -103.978 	 -1.08755 	 -109.989
| 41> *
| 42>
| 43>                          ****END OF INPUT****

CARTESIAN COORDINATES (ANGSTROEM)
---------------------------------
  S    -109.452000    0.478906  -109.254000
  C    -110.620000    1.826320  -109.065000
  C    -109.919000    2.956780  -108.779000
  C    -108.505000    2.777280  -108.615000
  C    -108.096000    1.420060  -108.770000
  H    -107.759000    3.506510  -108.294000
  C    -110.450000    4.350170  -108.660000
  H    -109.698000    4.924970  -108.112000
  H    -111.300000    4.273030  -108.029000
  C    -110.780000    5.134370  -109.937000
  H    -109.915000    5.385940  -110.649000
  H    -111.451000    4.559280  -110.618000
  C    -111.575000    6.406000  -109.686000
  H    -110.898000    7.132250  -109.209000
  H    -111.941000    6.903660  -110.647000
  H    -112.458000    6.250760  -108.986000
  S    -106.347000   -0.299061  -110.003000
  C    -104.678000   -0.330356  -109.579000
  C    -104.471000    0.413779  -108.455000
  C    -105.650000    1.134910  -108.031000
  C    -106.733000    0.903978  -108.810000
  H    -103.470000    0.418841  -108.025000
  C    -105.566000    1.977110  -106.790000
  H    -106.476000    2.443960  -106.433000
  H    -105.118000    2.886110  -107.230000
  C    -104.812000    1.320900  -105.595000
  H    -104.537000    2.055440  -104.837000
  H    -103.724000    1.050470  -105.770000
  C    -105.593000    0.160659  -105.009000
  H    -105.586000   -0.741789  -105.600000
  H    -106.687000    0.445900  -104.960000
  H    -105.276000   -0.054543  -104.024000
  H    -111.652000    1.769520  -109.421000
  H    -103.978000   -1.087550  -109.989000

 Total Charge           Charge          ....    0
 Multiplicity           Mult            ....    1
 Number of Electrons    NEL             ....  134
 Basis Dimension        Dim             ....  322

ORBITAL ENERGIES
----------------

  NO   OCC          E(Eh)            E(eV)
   0   2.0000     -88.965784     -2420.8821
   1   2.0000     -88.959663     -2420.7155
   2   2.0000     -10.333746      -281.1955
   3   2.0000     -10.323636      -280.9204
   4   2.0000     -10.316851      -280.7358
   5   2.0000     -10.316215      -280.7185
   6   2.0000     -10.303147      -280.3629
   7   2.0000     -10.301002      -280.3045
   8   2.0000     -10.297027      -280.1964
   9   2.0000     -10.295203      -280.1467
  10   2.0000     -10.294494      -280.1274
  11   2.0000     -10.294038      -280.1150
  12   2.0000     -10.293519      -280.1009
  13   2.0000     -10.290068      -280.0070
  14   2.0000     -10.288367      -279.9607
  15   2.0000     -10.274054      -279.5712
  16   2.0000      -8.080309      -219.8764
  17   2.0000      -8.075705      -219.7511
  18   2.0000      -6.038917      -164.3273
  19   2.0000      -6.034716      -164.2130
  20   2.0000      -6.034266      -164.2007
  21   2.0000      -6.031097      -164.1145
  22   2.0000      -6.030075      -164.0867
  23   2.0000      -6.026267      -163.9831
  24   2.0000      -1.012056       -27.5394
  25   2.0000      -0.986923       -26.8555
  26   2.0000      -0.913756       -24.8646
  27   2.0000      -0.909451       -24.7474
  28   2.0000      -0.872663       -23.7464
  29   2.0000      -0.852438       -23.1960
  30   2.0000      -0.842690       -22.9308
  31   2.0000      -0.813748       -22.1432
  32   2.0000      -0.782058       -21.2809
  33   2.0000      -0.775348       -21.0983
  34   2.0000      -0.709575       -19.3085
  35   2.0000      -0.700013       -19.0483
  36   2.0000      -0.693826       -18.8800
  37   2.0000      -0.660279       -17.9671
  38   2.0000      -0.638261       -17.3680
  39   2.0000      -0.618839       -16.8395
  40   2.0000      -0.600290       -16.3347
  41   2.0000      -0.570324       -15.5193
  42   2.0000      -0.564086       -15.3496
  43   2.0000      -0.557653       -15.1745
  44   2.0000      -0.529574       -14.4104
  45   2.0000      -0.522690       -14.2231
  46   2.0000      -0.514883       -14.0107
  47   2.0000      -0.511535       -13.9196
  48   2.0000      -0.509839       -13.8734
  49   2.0000      -0.504506       -13.7283
  50   2.0000      -0.488427       -13.2908
  51   2.0000      -0.481272       -13.0961
  52   2.0000      -0.473236       -12.8774
  53   2.0000      -0.463279       -12.6065
  54   2.0000      -0.462209       -12.5773
  55   2.0000      -0.446186       -12.1413
  56   2.0000      -0.443575       -12.0703
  57   2.0000      -0.437519       -11.9055
  58   2.0000      -0.436370       -11.8742
  59   2.0000      -0.423577       -11.5261
  60   2.0000      -0.416765       -11.3407
  61   2.0000      -0.407412       -11.0862
  62   2.0000      -0.403248       -10.9729
  63   2.0000      -0.356602        -9.7036
  64   2.0000      -0.330063        -8.9815
  65   2.0000      -0.325333        -8.8528
  66   2.0000      -0.291688        -7.9372
  67   0.0000       0.025434         0.6921
  68   0.0000       0.079029         2.1505
  69   0.0000       0.108122         2.9421
  70   0.0000       0.124465         3.3869
  71   0.0000       0.139121         3.7857

MULLIKEN ATOMIC CHARGES
-----------------------
   0 S :    0.090225
   1 C :   -0.129833
   2 C :   -0.071769
   3 C :    0.005785
   4 C :   -0.132970
   5 H :    0.016838
   6 C :    0.096228
   7 H :    0.016350
   8 H :    0.018751
   9 C :   -0.085115
  10 H :    0.043724
  11 H :    0.023198
  12 C :   -0.093304
  13 H :    0.030547
  14 H :    0.049192
  15 H :    0.041141
  16 S :    0.090739
  17 C :   -0.099162
  18 C :   -0.044993
  19 C :   -0.048309
  20 C :   -0.131384
  21 H :    0.025473
  22 C :    0.057339
  23 H :    0.019468
  24 H :    0.035667
  25 C :   -0.083146
  26 H :    0.020105
  27 H :    0.025389
  28 C :   -0.023166
  29 H :    0.041286
  30 H :    0.034142
  31 H :    0.025467
  32 H :    0.060945
  33 H :    0.075150
Sum of atomic charges:   -0.0000000

LOEWDIN ATOMIC CHARGES
----------------------
   0 S :    0.403549
   1 C :   -0.192526
   2 C :   -0.062431
   3 C :   -0.072533
   4 C :   -0.191620
   5 H :    0.030347
   6 C :   -0.029752
   7 H :    0.031503
   8 H :    0.029458
   9 C :   -0.052134
  10 H :    0.034861
  11 H :    0.022490
  12 C :   -0.078110
  13 H :    0.021304
  14 H :    0.034827
  15 H :    0.029023
  16 S :    0.408231
  17 C :   -0.192699
  18 C :   -0.073601
  19 C :   -0.057948
  20 C :   -0.205043
  21 H :    0.034169
  22 C :   -0.037799
  23 H :    0.027826
  24 H :    0.040059
  25 C :   -0.050097
  26 H :    0.025922
  27 H :    0.027555
  28 C :   -0.062070
  29 H :    0.026773
  30 H :    0.034693
  31 H :    0.020715
  32 H :    0.035274
  33 H :    0.039787

  Mayer bond orders larger than 0.100000
B(  0-S ,  1-C ) :   1.1147 B(  0-S ,  4-C ) :   1.1752 B(  1-C ,  2-C ) :   1.6059
B(  1-C , 32-H ) :   0.9716 B(  2-C ,  3-C ) :   1.2555 B(  2-C ,  6-C ) :   1.0249
B(  3-C ,  4-C ) :   1.5285 B(  3-C ,  5-H ) :   0.9889 B(  4-C , 20-C ) :   1.0586
B(  6-C ,  7-H ) :   0.9380 B(  6-C ,  8-H ) :   0.9349 B(  6-C ,  9-C ) :   1.0578
B(  9-C , 10-H ) :   0.9526 B(  9-C , 11-H ) :   0.9581 B(  9-C , 12-C ) :   1.0771
B( 12-C , 13-H ) :   0.9758 B( 12-C , 14-H ) :   0.9730 B( 12-C , 15-H ) :   0.9731
B( 16-S , 17-C ) :   1.1610 B( 16-S , 20-C ) :   1.1199 B( 17-C , 18-C ) :   1.6205
B( 17-C , 33-H ) :   0.9612 B( 18-C , 19-C ) :   1.2191 B( 18-C , 21-H ) :   0.9928
B( 19-C , 20-C ) :   1.6169 B( 19-C , 22-C ) :   1.0336 B( 22-C , 23-H ) :   0.9384
B( 22-C , 24-H ) :   0.9250 B( 22-C , 25-C ) :   1.0715 B( 25-C , 26-H ) :   0.9516
B( 25-C , 27-H ) :   0.9481 B( 25-C , 28-C ) :   1.0689 B( 28-C , 29-H ) :   0.9745
B( 28-C , 30-H ) :   0.9735 B( 28-C , 31-H ) :   0.9731

Dispersion correction           -0.013918912
FINAL SINGLE POINT ENERGY     -1339.876730983620

DIPOLE MOMENT
-------------
                                X             Y             Z
Electronic contribution:      2.54994     -19.91492     -12.57654
Nuclear contribution   :     -2.30623      20.39602      12.92044
                        -----------------------------------------
Total Dipole Moment    :      0.24371       0.48110       0.34391
                        -----------------------------------------
Magnitude (a.u.)       :      0.63963
Magnitude (Debye)      :      1.62581

Rotational constants in cm-1:     0.021873     0.007236     0.006341
Rotational constants in MHz :   655.736908   216.926450   190.102461

                             ****ORCA TERMINATED NORMALLY****
TOTAL RUN TIME: 0 days 0 hours 0 minutes 21 seconds 221 msec
