                         Program Version 4.2.1 -  RELEASE  -
|  1> ! wB97X-D3 SP def2-SVP
|  2> %pal
|  3> nprocs 24
|  4> end
|  5>
|  6> * xyz 0 1
|  7> S 	 -88.2202 	 -31.3866 	 -61.425
|  8> C 	 -89.3302 	 -31.873 	 -62.5994
|  9> C 	 -90.2412 	 -32.8033 	 -62.0866
| 10> C 	 -89.9493 	 -33.2178 	 -60.7877
| 11> C 	 -88.9829 	 -32.4265 	 -60.2325
| 12> H 	 -90.3526 	 -33.8453 	 -60.01
| 13> C 	 -91.4759 	 -33.3316 	 -62.7316
| 14> H 	 -91.978 	 -32.5444 	 -63.2367
| 15> H 	 -92.2568 	 -33.6096 	 -62.0009
| 16> C 	 -91.1549 	 -34.4814 	 -63.5032
| 17> H 	 -90.4287 	 -34.1278 	 -64.2175
| 18> H 	 -90.6615 	 -35.2264 	 -62.9224
| 19> C 	 -92.3904 	 -35.1005 	 -64.0731
| 20> H 	 -92.0728 	 -35.9818 	 -64.649
| 21> H 	 -93.0344 	 -35.391 	 -63.3128
| 22> H 	 -93.0627 	 -34.5214 	 -64.708
| 23> S 	 -88.5148 	 -34.291 	 -58.3007
| 24> C 	 -87.5642 	 -33.8587 	 -56.9484
| 25> C 	 -87.0675 	 -32.586 	 -57.0254
| 26> C 	 -87.5683 	 -31.8741 	 -58.1037
| 27> C 	 -88.3683 	 -32.6175 	 -58.9099
| 28> H 	 -86.3809 	 -32.2122 	 -56.2289
| 29> C 	 -86.9817 	 -30.4817 	 -58.3658
| 30> H 	 -86.6907 	 -30.3274 	 -59.348
| 31> H 	 -86.0035 	 -30.4224 	 -57.8411
| 32> C 	 -87.9572 	 -29.3009 	 -57.979
| 33> H 	 -87.4806 	 -28.3362 	 -57.9135
| 34> H 	 -88.3369 	 -29.4154 	 -56.9824
| 35> C 	 -89.2493 	 -29.1601 	 -58.794
| 36> H 	 -89.9548 	 -28.6141 	 -58.1691
| 37> H 	 -89.7382 	 -30.1202 	 -58.9023
| 38> H 	 -89.1115 	 -28.8208 	 -59.7815
| 39> H 	 -89.4228 	 -31.4071 	 -63.5476
| 40> H 	 -87.1347 	 -34.5936 	 -56.2907
| 41> *
| 42>
| 43>                          ****END OF INPUT****

CARTESIAN COORDINATES (ANGSTROEM)
---------------------------------
  S    -88.220200  -31.386600  -61.425000
  C    -89.330200  -31.873000  -62.599400
  C    -90.241200  -32.803300  -62.086600
  C    -89.949300  -33.217800  -60.787700
  C    -88.982900  -32.426500  -60.232500
  H    -90.352600  -33.845300  -60.010000
  C    -91.475900  -33.331600  -62.731600
  H    -91.978000  -32.544400  -63.236700
  H    -92.256800  -33.609600  -62.000900
  C    -91.154900  -34.481400  -63.503200
  H    -90.428700  -34.127800  -64.217500
  H    -90.661500  -35.226400  -62.922400
  C    -92.390400  -35.100500  -64.073100
  H    -92.072800  -35.981800  -64.649000
  H    -93.034400  -35.391000  -63.312800
  H    -93.062700  -34.521400  -64.708000
  S    -88.514800  -34.291000  -58.300700
  C    -87.564200  -33.858700  -56.948400
  C    -87.067500  -32.586000  -57.025400
  C    -87.568300  -31.874100  -58.103700
  C    -88.368300  -32.617500  -58.909900
  H    -86.380900  -32.212200  -56.228900
  C    -86.981700  -30.481700  -58.365800
  H    -86.690700  -30.327400  -59.348000
  H    -86.003500  -30.422400  -57.841100
  C    -87.957200  -29.300900  -57.979000
  H    -87.480600  -28.336200  -57.913500
  H    -88.336900  -29.415400  -56.982400
  C    -89.249300  -29.160100  -58.794000
  H    -89.954800  -28.614100  -58.169100
  H    -89.738200  -30.120200  -58.902300
  H    -89.111500  -28.820800  -59.781500
  H    -89.422800  -31.407100  -63.547600
  H    -87.134700  -34.593600  -56.290700

 Total Charge           Charge          ....    0
 Multiplicity           Mult            ....    1
 Number of Electrons    NEL             ....  134
 Basis Dimension        Dim             ....  322

ORBITAL ENERGIES
----------------

  NO   OCC          E(Eh)            E(eV)
   0   2.0000     -88.966864     -2420.9114
   1   2.0000     -88.966667     -2420.9061
   2   2.0000     -10.327322      -281.0207
   3   2.0000     -10.325475      -280.9705
   4   2.0000     -10.310598      -280.5656
   5   2.0000     -10.307694      -280.4866
   6   2.0000     -10.298755      -280.2434
   7   2.0000     -10.297783      -280.2169
   8   2.0000     -10.292275      -280.0670
   9   2.0000     -10.290862      -280.0286
  10   2.0000     -10.286830      -279.9189
  11   2.0000     -10.280414      -279.7443
  12   2.0000     -10.274576      -279.5854
  13   2.0000     -10.269073      -279.4357
  14   2.0000     -10.267641      -279.3967
  15   2.0000     -10.263272      -279.2778
  16   2.0000      -8.082022      -219.9230
  17   2.0000      -8.081782      -219.9165
  18   2.0000      -6.040436      -164.3686
  19   2.0000      -6.040160      -164.3611
  20   2.0000      -6.036430      -164.2596
  21   2.0000      -6.036386      -164.2584
  22   2.0000      -6.032931      -164.1644
  23   2.0000      -6.032522      -164.1533
  24   2.0000      -1.016517       -27.6608
  25   2.0000      -0.995434       -27.0871
  26   2.0000      -0.934424       -25.4270
  27   2.0000      -0.903925       -24.5971
  28   2.0000      -0.875096       -23.8126
  29   2.0000      -0.858927       -23.3726
  30   2.0000      -0.852004       -23.1842
  31   2.0000      -0.813764       -22.1436
  32   2.0000      -0.788257       -21.4496
  33   2.0000      -0.773124       -21.0378
  34   2.0000      -0.705904       -19.2086
  35   2.0000      -0.703713       -19.1490
  36   2.0000      -0.692250       -18.8371
  37   2.0000      -0.678876       -18.4731
  38   2.0000      -0.642797       -17.4914
  39   2.0000      -0.619835       -16.8666
  40   2.0000      -0.603098       -16.4111
  41   2.0000      -0.580209       -15.7883
  42   2.0000      -0.562416       -15.3041
  43   2.0000      -0.546263       -14.8646
  44   2.0000      -0.539635       -14.6842
  45   2.0000      -0.537656       -14.6304
  46   2.0000      -0.521232       -14.1835
  47   2.0000      -0.516913       -14.0659
  48   2.0000      -0.505106       -13.7446
  49   2.0000      -0.500222       -13.6117
  50   2.0000      -0.487530       -13.2664
  51   2.0000      -0.477373       -12.9900
  52   2.0000      -0.472715       -12.8632
  53   2.0000      -0.468000       -12.7349
  54   2.0000      -0.463602       -12.6153
  55   2.0000      -0.452618       -12.3164
  56   2.0000      -0.445764       -12.1299
  57   2.0000      -0.437361       -11.9012
  58   2.0000      -0.432808       -11.7773
  59   2.0000      -0.422615       -11.4999
  60   2.0000      -0.413857       -11.2616
  61   2.0000      -0.412603       -11.2275
  62   2.0000      -0.407817       -11.0973
  63   2.0000      -0.359659        -9.7868
  64   2.0000      -0.339755        -9.2452
  65   2.0000      -0.331871        -9.0307
  66   2.0000      -0.281396        -7.6572
  67   0.0000       0.023497         0.6394
  68   0.0000       0.081624         2.2211
  69   0.0000       0.099829         2.7165
  70   0.0000       0.122557         3.3349
  71   0.0000       0.134908         3.6710

MULLIKEN ATOMIC CHARGES
-----------------------
   0 S :    0.103916
   1 C :   -0.095051
   2 C :   -0.078159
   3 C :   -0.017795
   4 C :   -0.117365
   5 H :    0.019462
   6 C :    0.079726
   7 H :    0.009206
   8 H :    0.008386
   9 C :   -0.035793
  10 H :    0.011684
  11 H :    0.017400
  12 C :    0.006190
  13 H :    0.032446
  14 H :    0.005049
  15 H :    0.019462
  16 S :    0.081855
  17 C :   -0.073948
  18 C :   -0.066575
  19 C :   -0.046186
  20 C :   -0.131094
  21 H :    0.035968
  22 C :    0.078185
  23 H :    0.013320
  24 H :    0.023967
  25 C :   -0.052378
  26 H :    0.022892
  27 H :    0.011339
  28 C :   -0.039419
  29 H :    0.027428
  30 H :    0.028200
  31 H :    0.028417
  32 H :    0.035475
  33 H :    0.053791
Sum of atomic charges:    0.0000000

LOEWDIN ATOMIC CHARGES
----------------------
   0 S :    0.440595
   1 C :   -0.218188
   2 C :   -0.051065
   3 C :   -0.075899
   4 C :   -0.182365
   5 H :    0.027682
   6 C :   -0.034619
   7 H :    0.024369
   8 H :    0.029211
   9 C :   -0.039757
  10 H :    0.023690
  11 H :    0.026404
  12 C :   -0.059591
  13 H :    0.029911
  14 H :    0.015868
  15 H :    0.024139
  16 S :    0.411874
  17 C :   -0.195289
  18 C :   -0.073958
  19 C :   -0.065631
  20 C :   -0.176832
  21 H :    0.041231
  22 C :   -0.024225
  23 H :    0.009997
  24 H :    0.036998
  25 C :   -0.036008
  26 H :    0.020831
  27 H :    0.020447
  28 C :   -0.065336
  29 H :    0.029095
  30 H :    0.025443
  31 H :    0.012229
  32 H :    0.021550
  33 H :    0.027199

  Mayer bond orders larger than 0.100000
B(  0-S ,  1-C ) :   1.1524 B(  0-S ,  4-C ) :   1.1580 B(  1-C ,  2-C ) :   1.5819
B(  1-C , 32-H ) :   0.9725 B(  2-C ,  3-C ) :   1.2374 B(  2-C ,  6-C ) :   1.0179
B(  3-C ,  4-C ) :   1.5748 B(  3-C ,  5-H ) :   0.9861 B(  4-C , 20-C ) :   1.0529
B(  6-C ,  7-H ) :   0.9335 B(  6-C ,  8-H ) :   0.9376 B(  6-C ,  9-C ) :   1.0777
B(  9-C , 10-H ) :   0.9466 B(  9-C , 11-H ) :   0.9463 B(  9-C , 12-C ) :   1.0835
B( 12-C , 13-H ) :   0.9712 B( 12-C , 14-H ) :   0.9655 B( 12-C , 15-H ) :   0.9712
B( 16-S , 17-C ) :   1.1630 B( 16-S , 20-C ) :   1.1308 B( 17-C , 18-C ) :   1.6149
B( 17-C , 33-H ) :   0.9631 B( 18-C , 19-C ) :   1.2581 B( 18-C , 21-H ) :   0.9811
B( 19-C , 20-C ) :   1.6009 B( 19-C , 22-C ) :   1.0233 B( 22-C , 23-H ) :   0.9432
B( 22-C , 24-H ) :   0.9384 B( 22-C , 25-C ) :   1.0526 B( 25-C , 26-H ) :   0.9579
B( 25-C , 27-H ) :   0.9589 B( 25-C , 28-C ) :   1.0828 B( 28-C , 29-H ) :   0.9709
B( 28-C , 30-H ) :   0.9712 B( 28-C , 31-H ) :   0.9745

Dispersion correction           -0.014862694
FINAL SINGLE POINT ENERGY     -1339.854849595656

DIPOLE MOMENT
-------------
                                X             Y             Z
Electronic contribution:     11.43691      -4.67993       7.64633
Nuclear contribution   :    -11.45479       4.72897      -7.62996
                        -----------------------------------------
Total Dipole Moment    :     -0.01789       0.04904       0.01638
                        -----------------------------------------
Magnitude (a.u.)       :      0.05471
Magnitude (Debye)      :      0.13906

Rotational constants in cm-1:     0.023053     0.008521     0.006818
Rotational constants in MHz :   691.116662   255.447978   204.411601

                             ****ORCA TERMINATED NORMALLY****
TOTAL RUN TIME: 0 days 0 hours 0 minutes 21 seconds 59 msec
