                         Program Version 4.2.1 -  RELEASE  -
|  1> ! wB97X-D3 SP def2-SVP
|  2> %pal
|  3> nprocs 24
|  4> end
|  5>
|  6> * xyz 0 1
|  7> S 	 -74.9664 	 6.50935 	 -108.011
|  8> C 	 -76.6311 	 6.05505 	 -107.673
|  9> C 	 -77.4629 	 7.07843 	 -108.015
| 10> C 	 -76.7577 	 8.17031 	 -108.677
| 11> C 	 -75.3901 	 7.92116 	 -108.85
| 12> H 	 -77.1096 	 9.17653 	 -108.997
| 13> C 	 -78.9569 	 7.1246 	 -107.692
| 14> H 	 -79.1406 	 8.17458 	 -107.261
| 15> H 	 -79.1784 	 6.39271 	 -106.9
| 16> C 	 -79.9942 	 6.81766 	 -108.887
| 17> H 	 -80.9984 	 7.19265 	 -108.642
| 18> H 	 -79.5996 	 7.36715 	 -109.751
| 19> C 	 -80.0932 	 5.35651 	 -109.269
| 20> H 	 -79.1624 	 4.92065 	 -109.674
| 21> H 	 -80.1591 	 4.80122 	 -108.371
| 22> H 	 -80.949 	 5.08748 	 -109.85
| 23> S 	 -73.0313 	 8.21029 	 -110.284
| 24> C 	 -72.4756 	 9.89239 	 -110.635
| 25> C 	 -73.4081 	 10.7837 	 -110.343
| 26> C 	 -74.4412 	 10.2667 	 -109.442
| 27> C 	 -74.3879 	 8.89329 	 -109.346
| 28> H 	 -73.1349 	 11.7828 	 -110.501
| 29> C 	 -75.4895 	 11.2481 	 -108.96
| 30> H 	 -74.9324 	 11.961 	 -108.433
| 31> H 	 -76.1242 	 10.7334 	 -108.209
| 32> C 	 -76.2573 	 11.8681 	 -110.152
| 33> H 	 -76.6899 	 11.0557 	 -110.685
| 34> H 	 -75.454 	 12.2628 	 -110.705
| 35> C 	 -77.3183 	 12.8446 	 -109.621
| 36> H 	 -77.8785 	 13.3124 	 -110.455
| 37> H 	 -76.8146 	 13.6262 	 -109.102
| 38> H 	 -78.0517 	 12.4136 	 -109.013
| 39> H 	 -76.8454 	 5.12847 	 -107.187
| 40> H 	 -71.509 	 10.1457 	 -111.115
| 41> *
| 42>
| 43>                          ****END OF INPUT****

CARTESIAN COORDINATES (ANGSTROEM)
---------------------------------
  S    -74.966400    6.509350  -108.011000
  C    -76.631100    6.055050  -107.673000
  C    -77.462900    7.078430  -108.015000
  C    -76.757700    8.170310  -108.677000
  C    -75.390100    7.921160  -108.850000
  H    -77.109600    9.176530  -108.997000
  C    -78.956900    7.124600  -107.692000
  H    -79.140600    8.174580  -107.261000
  H    -79.178400    6.392710  -106.900000
  C    -79.994200    6.817660  -108.887000
  H    -80.998400    7.192650  -108.642000
  H    -79.599600    7.367150  -109.751000
  C    -80.093200    5.356510  -109.269000
  H    -79.162400    4.920650  -109.674000
  H    -80.159100    4.801220  -108.371000
  H    -80.949000    5.087480  -109.850000
  S    -73.031300    8.210290  -110.284000
  C    -72.475600    9.892390  -110.635000
  C    -73.408100   10.783700  -110.343000
  C    -74.441200   10.266700  -109.442000
  C    -74.387900    8.893290  -109.346000
  H    -73.134900   11.782800  -110.501000
  C    -75.489500   11.248100  -108.960000
  H    -74.932400   11.961000  -108.433000
  H    -76.124200   10.733400  -108.209000
  C    -76.257300   11.868100  -110.152000
  H    -76.689900   11.055700  -110.685000
  H    -75.454000   12.262800  -110.705000
  C    -77.318300   12.844600  -109.621000
  H    -77.878500   13.312400  -110.455000
  H    -76.814600   13.626200  -109.102000
  H    -78.051700   12.413600  -109.013000
  H    -76.845400    5.128470  -107.187000
  H    -71.509000   10.145700  -111.115000

 Total Charge           Charge          ....    0
 Multiplicity           Mult            ....    1
 Number of Electrons    NEL             ....  134
 Basis Dimension        Dim             ....  322

ORBITAL ENERGIES
----------------

  NO   OCC          E(Eh)            E(eV)
   0   2.0000     -88.962436     -2420.7909
   1   2.0000     -88.961047     -2420.7532
   2   2.0000     -10.331342      -281.1301
   3   2.0000     -10.328904      -281.0638
   4   2.0000     -10.320397      -280.8323
   5   2.0000     -10.313909      -280.6557
   6   2.0000     -10.307641      -280.4852
   7   2.0000     -10.306568      -280.4560
   8   2.0000     -10.304951      -280.4120
   9   2.0000     -10.299551      -280.2650
  10   2.0000     -10.291810      -280.0544
  11   2.0000     -10.289371      -279.9880
  12   2.0000     -10.288629      -279.9678
  13   2.0000     -10.285909      -279.8938
  14   2.0000     -10.277641      -279.6688
  15   2.0000     -10.270276      -279.4684
  16   2.0000      -8.078306      -219.8219
  17   2.0000      -8.074952      -219.7306
  18   2.0000      -6.036731      -164.2678
  19   2.0000      -6.033710      -164.1856
  20   2.0000      -6.032613      -164.1557
  21   2.0000      -6.029842      -164.0804
  22   2.0000      -6.029108      -164.0604
  23   2.0000      -6.025224      -163.9547
  24   2.0000      -1.007050       -27.4032
  25   2.0000      -0.984179       -26.7809
  26   2.0000      -0.915323       -24.9072
  27   2.0000      -0.903891       -24.5961
  28   2.0000      -0.872608       -23.7449
  29   2.0000      -0.850145       -23.1336
  30   2.0000      -0.843278       -22.9468
  31   2.0000      -0.818733       -22.2789
  32   2.0000      -0.780944       -21.2506
  33   2.0000      -0.774394       -21.0723
  34   2.0000      -0.714981       -19.4556
  35   2.0000      -0.702289       -19.1103
  36   2.0000      -0.693604       -18.8739
  37   2.0000      -0.662763       -18.0347
  38   2.0000      -0.641981       -17.4692
  39   2.0000      -0.615838       -16.7578
  40   2.0000      -0.592934       -16.1346
  41   2.0000      -0.577468       -15.7137
  42   2.0000      -0.568468       -15.4688
  43   2.0000      -0.548960       -14.9380
  44   2.0000      -0.535416       -14.5694
  45   2.0000      -0.524178       -14.2636
  46   2.0000      -0.523087       -14.2339
  47   2.0000      -0.517092       -14.0708
  48   2.0000      -0.503308       -13.6957
  49   2.0000      -0.497649       -13.5417
  50   2.0000      -0.489061       -13.3080
  51   2.0000      -0.486977       -13.2513
  52   2.0000      -0.475330       -12.9344
  53   2.0000      -0.464893       -12.6504
  54   2.0000      -0.454366       -12.3639
  55   2.0000      -0.451384       -12.2828
  56   2.0000      -0.443585       -12.0706
  57   2.0000      -0.441188       -12.0053
  58   2.0000      -0.437108       -11.8943
  59   2.0000      -0.428400       -11.6574
  60   2.0000      -0.420159       -11.4331
  61   2.0000      -0.414641       -11.2829
  62   2.0000      -0.412432       -11.2228
  63   2.0000      -0.356167        -9.6918
  64   2.0000      -0.328486        -8.9386
  65   2.0000      -0.326220        -8.8769
  66   2.0000      -0.295296        -8.0354
  67   0.0000       0.026631         0.7247
  68   0.0000       0.082802         2.2532
  69   0.0000       0.101124         2.7517
  70   0.0000       0.106802         2.9062
  71   0.0000       0.131732         3.5846

MULLIKEN ATOMIC CHARGES
-----------------------
   0 S :    0.100922
   1 C :   -0.123890
   2 C :   -0.056483
   3 C :   -0.008766
   4 C :   -0.123534
   5 H :    0.017869
   6 C :    0.012335
   7 H :    0.047720
   8 H :    0.025011
   9 C :   -0.063659
  10 H :    0.035958
  11 H :    0.033714
  12 C :   -0.029346
  13 H :    0.035008
  14 H :   -0.001540
  15 H :    0.037706
  16 S :    0.072295
  17 C :   -0.099209
  18 C :   -0.010800
  19 C :   -0.089153
  20 C :   -0.105170
  21 H :    0.014231
  22 C :    0.044214
  23 H :    0.012551
  24 H :    0.024624
  25 C :   -0.051497
  26 H :    0.030269
  27 H :    0.019243
  28 C :    0.007356
  29 H :    0.034684
  30 H :    0.021916
  31 H :    0.021646
  32 H :    0.044960
  33 H :    0.068814
Sum of atomic charges:    0.0000000

LOEWDIN ATOMIC CHARGES
----------------------
   0 S :    0.421887
   1 C :   -0.188535
   2 C :   -0.066247
   3 C :   -0.074689
   4 C :   -0.209530
   5 H :    0.034410
   6 C :   -0.034175
   7 H :    0.041756
   8 H :    0.025991
   9 C :   -0.038281
  10 H :    0.025961
  11 H :    0.024264
  12 C :   -0.069587
  13 H :    0.031175
  14 H :    0.016333
  15 H :    0.026085
  16 S :    0.348339
  17 C :   -0.151970
  18 C :   -0.074170
  19 C :   -0.048594
  20 C :   -0.183963
  21 H :    0.025729
  22 C :   -0.029729
  23 H :    0.022269
  24 H :    0.027107
  25 C :   -0.024803
  26 H :    0.021606
  27 H :    0.019811
  28 C :   -0.054821
  29 H :    0.031150
  30 H :    0.023159
  31 H :    0.018895
  32 H :    0.025159
  33 H :    0.038011

  Mayer bond orders larger than 0.100000
B(  0-S ,  1-C ) :   1.1347 B(  0-S ,  4-C ) :   1.1780 B(  1-C ,  2-C ) :   1.5949
B(  1-C , 32-H ) :   0.9812 B(  2-C ,  3-C ) :   1.2294 B(  2-C ,  6-C ) :   1.0219
B(  3-C ,  4-C ) :   1.5669 B(  3-C ,  5-H ) :   0.9868 B(  4-C , 20-C ) :   1.0182
B(  6-C ,  7-H ) :   0.9434 B(  6-C ,  8-H ) :   0.9499 B(  6-C ,  9-C ) :   1.0529
B(  9-C , 10-H ) :   0.9589 B(  9-C , 11-H ) :   0.9604 B(  9-C , 12-C ) :   1.0762
B( 12-C , 13-H ) :   0.9729 B( 12-C , 14-H ) :   0.9700 B( 12-C , 15-H ) :   0.9742
B( 16-S , 17-C ) :   1.1097 B( 16-S , 20-C ) :   1.1050 B( 17-C , 18-C ) :   1.7119
B( 17-C , 33-H ) :   0.9603 B( 18-C , 19-C ) :   1.1640 B( 18-C , 21-H ) :   0.9758
B( 19-C , 20-C ) :   1.6758 B( 19-C , 22-C ) :   1.0412 B( 22-C , 23-H ) :   0.9214
B( 22-C , 24-H ) :   0.9408 B( 22-C , 25-C ) :   1.0487 B( 25-C , 26-H ) :   0.9577
B( 25-C , 27-H ) :   0.9509 B( 25-C , 28-C ) :   1.0819 B( 28-C , 29-H ) :   0.9725
B( 28-C , 30-H ) :   0.9730 B( 28-C , 31-H ) :   0.9745

Dispersion correction           -0.014110934
FINAL SINGLE POINT ENERGY     -1339.866289556913

DIPOLE MOMENT
-------------
                                X             Y             Z
Electronic contribution:     26.56847     -10.98748       0.65552
Nuclear contribution   :    -27.04926      11.59540      -0.57662
                        -----------------------------------------
Total Dipole Moment    :     -0.48079       0.60792       0.07889
                        -----------------------------------------
Magnitude (a.u.)       :      0.77907
Magnitude (Debye)      :      1.98024

Rotational constants in cm-1:     0.017624     0.008922     0.006500
Rotational constants in MHz :   528.364964   267.479271   194.871769

                             ****ORCA TERMINATED NORMALLY****
TOTAL RUN TIME: 0 days 0 hours 0 minutes 21 seconds 696 msec
