                         Program Version 4.2.1 -  RELEASE  -
|  1> ! wB97X-D3 SP def2-SVP
|  2> %pal
|  3> nprocs 24
|  4> end
|  5>
|  6> * xyz 0 1
|  7> S 	 3.36382 	 -15.7693 	 -105.275
|  8> C 	 3.448 	 -16.9163 	 -106.603
|  9> C 	 2.2033 	 -17.5463 	 -106.903
| 10> C 	 1.20527 	 -17.0197 	 -106.025
| 11> C 	 1.64539 	 -16.1795 	 -105.013
| 12> H 	 0.147798 	 -17.2194 	 -106.097
| 13> C 	 1.9943 	 -18.6021 	 -107.968
| 14> H 	 1.52684 	 -19.4231 	 -107.426
| 15> H 	 2.92395 	 -19.0269 	 -108.314
| 16> C 	 1.37998 	 -18.0971 	 -109.192
| 17> H 	 0.441819 	 -17.4804 	 -108.989
| 18> H 	 2.07223 	 -17.4012 	 -109.675
| 19> C 	 0.989037 	 -19.2507 	 -110.127
| 20> H 	 0.813737 	 -18.6614 	 -111.125
| 21> H 	 1.74957 	 -19.9979 	 -110.258
| 22> H 	 0.102287 	 -19.794 	 -109.946
| 23> S 	 1.92262 	 -15.2181 	 -102.524
| 24> C 	 0.515361 	 -14.709 	 -101.608
| 25> C 	 -0.598575 	 -14.7375 	 -102.435
| 26> C 	 -0.442101 	 -15.2666 	 -103.753
| 27> C 	 0.92993 	 -15.5829 	 -103.902
| 28> H 	 -1.59734 	 -14.5144 	 -102.002
| 29> C 	 -1.56351 	 -15.2996 	 -104.856
| 30> H 	 -1.49383 	 -16.3415 	 -105.199
| 31> H 	 -1.19771 	 -14.6254 	 -105.652
| 32> C 	 -2.94369 	 -14.8749 	 -104.503
| 33> H 	 -3.55638 	 -14.8574 	 -105.36
| 34> H 	 -2.94222 	 -13.8328 	 -104.148
| 35> C 	 -3.74693 	 -15.7687 	 -103.527
| 36> H 	 -3.26515 	 -15.6212 	 -102.537
| 37> H 	 -3.68111 	 -16.7818 	 -103.716
| 38> H 	 -4.76498 	 -15.3646 	 -103.527
| 39> H 	 4.36061 	 -17.2657 	 -106.961
| 40> H 	 0.480994 	 -14.1219 	 -100.695
| 41> *
| 42>
| 43>                          ****END OF INPUT****

CARTESIAN COORDINATES (ANGSTROEM)
---------------------------------
  S      3.363820  -15.769300  -105.275000
  C      3.448000  -16.916300  -106.603000
  C      2.203300  -17.546300  -106.903000
  C      1.205270  -17.019700  -106.025000
  C      1.645390  -16.179500  -105.013000
  H      0.147798  -17.219400  -106.097000
  C      1.994300  -18.602100  -107.968000
  H      1.526840  -19.423100  -107.426000
  H      2.923950  -19.026900  -108.314000
  C      1.379980  -18.097100  -109.192000
  H      0.441819  -17.480400  -108.989000
  H      2.072230  -17.401200  -109.675000
  C      0.989037  -19.250700  -110.127000
  H      0.813737  -18.661400  -111.125000
  H      1.749570  -19.997900  -110.258000
  H      0.102287  -19.794000  -109.946000
  S      1.922620  -15.218100  -102.524000
  C      0.515361  -14.709000  -101.608000
  C     -0.598575  -14.737500  -102.435000
  C     -0.442101  -15.266600  -103.753000
  C      0.929930  -15.582900  -103.902000
  H     -1.597340  -14.514400  -102.002000
  C     -1.563510  -15.299600  -104.856000
  H     -1.493830  -16.341500  -105.199000
  H     -1.197710  -14.625400  -105.652000
  C     -2.943690  -14.874900  -104.503000
  H     -3.556380  -14.857400  -105.360000
  H     -2.942220  -13.832800  -104.148000
  C     -3.746930  -15.768700  -103.527000
  H     -3.265150  -15.621200  -102.537000
  H     -3.681110  -16.781800  -103.716000
  H     -4.764980  -15.364600  -103.527000
  H      4.360610  -17.265700  -106.961000
  H      0.480994  -14.121900  -100.695000

 Total Charge           Charge          ....    0
 Multiplicity           Mult            ....    1
 Number of Electrons    NEL             ....  134
 Basis Dimension        Dim             ....  322

ORBITAL ENERGIES
----------------

  NO   OCC          E(Eh)            E(eV)
   0   2.0000     -88.969057     -2420.9711
   1   2.0000     -88.964820     -2420.8558
   2   2.0000     -10.330618      -281.1104
   3   2.0000     -10.329019      -281.0669
   4   2.0000     -10.315326      -280.6943
   5   2.0000     -10.311380      -280.5869
   6   2.0000     -10.309711      -280.5415
   7   2.0000     -10.305800      -280.4351
   8   2.0000     -10.303124      -280.3622
   9   2.0000     -10.296119      -280.1716
  10   2.0000     -10.294503      -280.1277
  11   2.0000     -10.290376      -280.0154
  12   2.0000     -10.288174      -279.9555
  13   2.0000     -10.285948      -279.8949
  14   2.0000     -10.282208      -279.7931
  15   2.0000     -10.277309      -279.6598
  16   2.0000      -8.083678      -219.9681
  17   2.0000      -8.078927      -219.8388
  18   2.0000      -6.042244      -164.4178
  19   2.0000      -6.038173      -164.3070
  20   2.0000      -6.037429      -164.2868
  21   2.0000      -6.034401      -164.2044
  22   2.0000      -6.033589      -164.1823
  23   2.0000      -6.029683      -164.0760
  24   2.0000      -1.004021       -27.3208
  25   2.0000      -0.977262       -26.5927
  26   2.0000      -0.922436       -25.1008
  27   2.0000      -0.915281       -24.9061
  28   2.0000      -0.867063       -23.5940
  29   2.0000      -0.853934       -23.2367
  30   2.0000      -0.842426       -22.9236
  31   2.0000      -0.813522       -22.1371
  32   2.0000      -0.790348       -21.5065
  33   2.0000      -0.772560       -21.0224
  34   2.0000      -0.709135       -19.2966
  35   2.0000      -0.700329       -19.0569
  36   2.0000      -0.696679       -18.9576
  37   2.0000      -0.657445       -17.8900
  38   2.0000      -0.642156       -17.4740
  39   2.0000      -0.622280       -16.9331
  40   2.0000      -0.594703       -16.1827
  41   2.0000      -0.565659       -15.3924
  42   2.0000      -0.560950       -15.2642
  43   2.0000      -0.555479       -15.1154
  44   2.0000      -0.545995       -14.8573
  45   2.0000      -0.534058       -14.5324
  46   2.0000      -0.528248       -14.3743
  47   2.0000      -0.515135       -14.0175
  48   2.0000      -0.502501       -13.6738
  49   2.0000      -0.498539       -13.5659
  50   2.0000      -0.491326       -13.3697
  51   2.0000      -0.481119       -13.0919
  52   2.0000      -0.474059       -12.8998
  53   2.0000      -0.465617       -12.6701
  54   2.0000      -0.458953       -12.4887
  55   2.0000      -0.455738       -12.4013
  56   2.0000      -0.446868       -12.1599
  57   2.0000      -0.436866       -11.8877
  58   2.0000      -0.434980       -11.8364
  59   2.0000      -0.428786       -11.6679
  60   2.0000      -0.415350       -11.3022
  61   2.0000      -0.411111       -11.1869
  62   2.0000      -0.408869       -11.1259
  63   2.0000      -0.352067        -9.5802
  64   2.0000      -0.334885        -9.1127
  65   2.0000      -0.328549        -8.9403
  66   2.0000      -0.278729        -7.5846
  67   0.0000       0.017146         0.4666
  68   0.0000       0.076077         2.0702
  69   0.0000       0.102750         2.7960
  70   0.0000       0.120787         3.2868
  71   0.0000       0.136738         3.7208

MULLIKEN ATOMIC CHARGES
-----------------------
   0 S :    0.091861
   1 C :   -0.088306
   2 C :   -0.107982
   3 C :    0.002495
   4 C :   -0.122695
   5 H :   -0.006643
   6 C :    0.093432
   7 H :    0.033616
   8 H :    0.005819
   9 C :   -0.085965
  10 H :    0.035803
  11 H :    0.034080
  12 C :   -0.047121
  13 H :    0.041293
  14 H :    0.025016
  15 H :    0.031645
  16 S :    0.110960
  17 C :   -0.075568
  18 C :   -0.083763
  19 C :   -0.057580
  20 C :   -0.152579
  21 H :    0.030012
  22 C :    0.065333
  23 H :    0.043072
  24 H :    0.056835
  25 C :   -0.067254
  26 H :    0.018061
  27 H :    0.031303
  28 C :   -0.032096
  29 H :    0.022552
  30 H :    0.022707
  31 H :    0.043284
  32 H :    0.026493
  33 H :    0.061881
Sum of atomic charges:    0.0000000

LOEWDIN ATOMIC CHARGES
----------------------
   0 S :    0.380334
   1 C :   -0.189291
   2 C :   -0.050541
   3 C :   -0.068613
   4 C :   -0.178281
   5 H :    0.024636
   6 C :   -0.038453
   7 H :    0.034021
   8 H :    0.030052
   9 C :   -0.044394
  10 H :    0.029402
  11 H :    0.029188
  12 C :   -0.065668
  13 H :    0.041001
  14 H :    0.019299
  15 H :    0.019076
  16 S :    0.417919
  17 C :   -0.203237
  18 C :   -0.076256
  19 C :   -0.058015
  20 C :   -0.199137
  21 H :    0.031314
  22 C :   -0.028666
  23 H :    0.031736
  24 H :    0.045294
  25 C :   -0.046312
  26 H :    0.022930
  27 H :    0.029492
  28 C :   -0.055528
  29 H :    0.025097
  30 H :    0.014441
  31 H :    0.031843
  32 H :    0.010301
  33 H :    0.035017

  Mayer bond orders larger than 0.100000
B(  0-S ,  1-C ) :   1.1400 B(  0-S ,  4-C ) :   1.1325 B(  1-C ,  2-C ) :   1.5994
B(  1-C ,  4-C ) :   0.1026 B(  1-C , 32-H ) :   0.9689 B(  2-C ,  3-C ) :   1.2519
B(  2-C ,  6-C ) :   1.0257 B(  3-C ,  4-C ) :   1.5809 B(  3-C ,  5-H ) :   0.9862
B(  4-C , 20-C ) :   1.0799 B(  6-C ,  7-H ) :   0.9409 B(  6-C ,  8-H ) :   0.9288
B(  6-C ,  9-C ) :   1.0667 B(  9-C , 10-H ) :   0.9564 B(  9-C , 11-H ) :   0.9526
B(  9-C , 12-C ) :   1.0697 B( 12-C , 13-H ) :   0.9757 B( 12-C , 14-H ) :   0.9724
B( 12-C , 15-H ) :   0.9784 B( 16-S , 17-C ) :   1.1364 B( 16-S , 20-C ) :   1.1651
B( 17-C , 18-C ) :   1.6127 B( 17-C , 20-C ) :   0.1060 B( 17-C , 33-H ) :   0.9598
B( 18-C , 19-C ) :   1.2806 B( 18-C , 21-H ) :   0.9638 B( 19-C , 20-C ) :   1.5528
B( 19-C , 22-C ) :   0.9958 B( 22-C , 23-H ) :   0.9259 B( 22-C , 24-H ) :   0.9365
B( 22-C , 25-C ) :   1.1061 B( 25-C , 26-H ) :   0.9464 B( 25-C , 27-H ) :   0.9436
B( 25-C , 28-C ) :   1.0754 B( 28-C , 29-H ) :   0.9766 B( 28-C , 30-H ) :   0.9737
B( 28-C , 31-H ) :   0.9742

Dispersion correction           -0.013534699
FINAL SINGLE POINT ENERGY     -1339.861907569662

DIPOLE MOMENT
-------------
                                X             Y             Z
Electronic contribution:     21.81452       9.78522      18.04291
Nuclear contribution   :    -22.44987      -9.96241     -18.45267
                        -----------------------------------------
Total Dipole Moment    :     -0.63535      -0.17719      -0.40976
                        -----------------------------------------
Magnitude (a.u.)       :      0.77652
Magnitude (Debye)      :      1.97375

Rotational constants in cm-1:     0.018014     0.008293     0.005901
Rotational constants in MHz :   540.058293   248.628436   176.907999

                             ****ORCA TERMINATED NORMALLY****
TOTAL RUN TIME: 0 days 0 hours 0 minutes 21 seconds 215 msec
