                         Program Version 4.2.1 -  RELEASE  -
|  1> ! wB97X-D3 SP def2-SVP
|  2> %pal
|  3> nprocs 24
|  4> end
|  5>
|  6> * xyz 0 1
|  7> S 	 -102.121 	 40.5587 	 -95.0556
|  8> C 	 -101.291 	 39.0997 	 -94.3369
|  9> C 	 -101.291 	 39.1889 	 -92.9652
| 10> C 	 -101.946 	 40.3764 	 -92.4436
| 11> C 	 -102.482 	 41.2061 	 -93.4255
| 12> H 	 -102.095 	 40.569 	 -91.4076
| 13> C 	 -100.65 	 38.1419 	 -91.9723
| 14> H 	 -99.7209 	 38.5403 	 -91.5229
| 15> H 	 -100.327 	 37.374 	 -92.5793
| 16> C 	 -101.606 	 37.6253 	 -90.9184
| 17> H 	 -102.219 	 38.4569 	 -90.616
| 18> H 	 -102.258 	 36.8413 	 -91.3486
| 19> C 	 -100.934 	 36.9311 	 -89.6965
| 20> H 	 -100.003 	 36.5214 	 -90.1765
| 21> H 	 -100.71 	 37.6244 	 -88.8752
| 22> H 	 -101.489 	 36.0906 	 -89.3004
| 23> S 	 -102.971 	 43.0454 	 -91.3115
| 24> C 	 -103.515 	 44.6684 	 -91.8002
| 25> C 	 -103.688 	 44.744 	 -93.1705
| 26> C 	 -103.414 	 43.5256 	 -93.9028
| 27> C 	 -102.996 	 42.5243 	 -93.0312
| 28> H 	 -104.09 	 45.6595 	 -93.6515
| 29> C 	 -103.522 	 43.401 	 -95.4112
| 30> H 	 -104.512 	 43.8932 	 -95.7244
| 31> H 	 -103.751 	 42.427 	 -95.7191
| 32> C 	 -102.418 	 44.1349 	 -96.2584
| 33> H 	 -101.473 	 43.8252 	 -95.9144
| 34> H 	 -102.454 	 45.1863 	 -96.1543
| 35> C 	 -102.698 	 43.8024 	 -97.6792
| 36> H 	 -102.879 	 42.7539 	 -97.7314
| 37> H 	 -101.824 	 44.0117 	 -98.3324
| 38> H 	 -103.483 	 44.4187 	 -98.1422
| 39> H 	 -100.847 	 38.2343 	 -94.9101
| 40> H 	 -103.5 	 45.5599 	 -91.1279
| 41> *
| 42>
| 43>                          ****END OF INPUT****

CARTESIAN COORDINATES (ANGSTROEM)
---------------------------------
  S    -102.121000   40.558700  -95.055600
  C    -101.291000   39.099700  -94.336900
  C    -101.291000   39.188900  -92.965200
  C    -101.946000   40.376400  -92.443600
  C    -102.482000   41.206100  -93.425500
  H    -102.095000   40.569000  -91.407600
  C    -100.650000   38.141900  -91.972300
  H    -99.720900   38.540300  -91.522900
  H    -100.327000   37.374000  -92.579300
  C    -101.606000   37.625300  -90.918400
  H    -102.219000   38.456900  -90.616000
  H    -102.258000   36.841300  -91.348600
  C    -100.934000   36.931100  -89.696500
  H    -100.003000   36.521400  -90.176500
  H    -100.710000   37.624400  -88.875200
  H    -101.489000   36.090600  -89.300400
  S    -102.971000   43.045400  -91.311500
  C    -103.515000   44.668400  -91.800200
  C    -103.688000   44.744000  -93.170500
  C    -103.414000   43.525600  -93.902800
  C    -102.996000   42.524300  -93.031200
  H    -104.090000   45.659500  -93.651500
  C    -103.522000   43.401000  -95.411200
  H    -104.512000   43.893200  -95.724400
  H    -103.751000   42.427000  -95.719100
  C    -102.418000   44.134900  -96.258400
  H    -101.473000   43.825200  -95.914400
  H    -102.454000   45.186300  -96.154300
  C    -102.698000   43.802400  -97.679200
  H    -102.879000   42.753900  -97.731400
  H    -101.824000   44.011700  -98.332400
  H    -103.483000   44.418700  -98.142200
  H    -100.847000   38.234300  -94.910100
  H    -103.500000   45.559900  -91.127900

 Total Charge           Charge          ....    0
 Multiplicity           Mult            ....    1
 Number of Electrons    NEL             ....  134
 Basis Dimension        Dim             ....  322

ORBITAL ENERGIES
----------------

  NO   OCC          E(Eh)            E(eV)
   0   2.0000     -88.973063     -2421.0801
   1   2.0000     -88.970330     -2421.0058
   2   2.0000     -10.337112      -281.2871
   3   2.0000     -10.333583      -281.1911
   4   2.0000     -10.326073      -280.9867
   5   2.0000     -10.324515      -280.9443
   6   2.0000     -10.307451      -280.4800
   7   2.0000     -10.305812      -280.4354
   8   2.0000     -10.300525      -280.2915
   9   2.0000     -10.296584      -280.1843
  10   2.0000     -10.292391      -280.0702
  11   2.0000     -10.290941      -280.0307
  12   2.0000     -10.285338      -279.8783
  13   2.0000     -10.282730      -279.8073
  14   2.0000     -10.279245      -279.7125
  15   2.0000     -10.273279      -279.5501
  16   2.0000      -8.084855      -220.0001
  17   2.0000      -8.083475      -219.9625
  18   2.0000      -6.043882      -164.4624
  19   2.0000      -6.042327      -164.4201
  20   2.0000      -6.039838      -164.3524
  21   2.0000      -6.038406      -164.3134
  22   2.0000      -6.035158      -164.2250
  23   2.0000      -6.033795      -164.1879
  24   2.0000      -0.996980       -27.1292
  25   2.0000      -0.971848       -26.4453
  26   2.0000      -0.913304       -24.8523
  27   2.0000      -0.907888       -24.7049
  28   2.0000      -0.867238       -23.5987
  29   2.0000      -0.855426       -23.2773
  30   2.0000      -0.838785       -22.8245
  31   2.0000      -0.808081       -21.9890
  32   2.0000      -0.780253       -21.2318
  33   2.0000      -0.770939       -20.9783
  34   2.0000      -0.709231       -19.2992
  35   2.0000      -0.703265       -19.1368
  36   2.0000      -0.689468       -18.7614
  37   2.0000      -0.665550       -18.1105
  38   2.0000      -0.628750       -17.1092
  39   2.0000      -0.614592       -16.7239
  40   2.0000      -0.598819       -16.2947
  41   2.0000      -0.571044       -15.5389
  42   2.0000      -0.563539       -15.3347
  43   2.0000      -0.558713       -15.2034
  44   2.0000      -0.530669       -14.4402
  45   2.0000      -0.521006       -14.1773
  46   2.0000      -0.514891       -14.0109
  47   2.0000      -0.508348       -13.8328
  48   2.0000      -0.505854       -13.7650
  49   2.0000      -0.499929       -13.6038
  50   2.0000      -0.488422       -13.2906
  51   2.0000      -0.478178       -13.0119
  52   2.0000      -0.469578       -12.7779
  53   2.0000      -0.463722       -12.6185
  54   2.0000      -0.456639       -12.4258
  55   2.0000      -0.453214       -12.3326
  56   2.0000      -0.445478       -12.1221
  57   2.0000      -0.441184       -12.0052
  58   2.0000      -0.429546       -11.6885
  59   2.0000      -0.422224       -11.4893
  60   2.0000      -0.420084       -11.4311
  61   2.0000      -0.416097       -11.3226
  62   2.0000      -0.407379       -11.0853
  63   2.0000      -0.363598        -9.8940
  64   2.0000      -0.335062        -9.1175
  65   2.0000      -0.329741        -8.9727
  66   2.0000      -0.280960        -7.6453
  67   0.0000       0.015375         0.4184
  68   0.0000       0.084783         2.3071
  69   0.0000       0.100604         2.7376
  70   0.0000       0.103899         2.8272
  71   0.0000       0.128729         3.5029

MULLIKEN ATOMIC CHARGES
-----------------------
   0 S :    0.073350
   1 C :   -0.152211
   2 C :   -0.071694
   3 C :   -0.046019
   4 C :   -0.068751
   5 H :    0.018147
   6 C :    0.110006
   7 H :    0.043397
   8 H :   -0.011318
   9 C :   -0.096071
  10 H :    0.028026
  11 H :    0.036781
  12 C :   -0.065420
  13 H :    0.032155
  14 H :    0.045560
  15 H :    0.038073
  16 S :    0.074817
  17 C :   -0.098660
  18 C :   -0.030789
  19 C :   -0.057024
  20 C :   -0.111491
  21 H :    0.030702
  22 C :   -0.010363
  23 H :    0.029301
  24 H :    0.016273
  25 C :    0.004560
  26 H :    0.021682
  27 H :    0.017975
  28 C :   -0.041575
  29 H :    0.023349
  30 H :    0.030003
  31 H :    0.035847
  32 H :    0.071446
  33 H :    0.079935
Sum of atomic charges:    0.0000000

LOEWDIN ATOMIC CHARGES
----------------------
   0 S :    0.366827
   1 C :   -0.194005
   2 C :   -0.051874
   3 C :   -0.074262
   4 C :   -0.162529
   5 H :    0.016490
   6 C :   -0.025842
   7 H :    0.035678
   8 H :    0.014948
   9 C :   -0.044418
  10 H :    0.017963
  11 H :    0.031315
  12 C :   -0.067415
  13 H :    0.030927
  14 H :    0.027129
  15 H :    0.025235
  16 S :    0.372081
  17 C :   -0.183529
  18 C :   -0.068900
  19 C :   -0.059343
  20 C :   -0.170011
  21 H :    0.036255
  22 C :   -0.040319
  23 H :    0.043196
  24 H :    0.008216
  25 C :   -0.025594
  26 H :    0.017940
  27 H :    0.020475
  28 C :   -0.062852
  29 H :    0.020516
  30 H :    0.029587
  31 H :    0.028392
  32 H :    0.045060
  33 H :    0.042663

  Mayer bond orders larger than 0.100000
B(  0-S ,  1-C ) :   1.0869 B(  0-S ,  4-C ) :   1.1145 B(  1-C ,  2-C ) :   1.6713
B(  1-C , 32-H ) :   0.9544 B(  2-C ,  3-C ) :   1.2125 B(  2-C ,  6-C ) :   1.0122
B(  3-C ,  4-C ) :   1.5750 B(  3-C ,  5-H ) :   0.9847 B(  4-C , 20-C ) :   1.1200
B(  6-C ,  7-H ) :   0.9450 B(  6-C ,  8-H ) :   0.9284 B(  6-C ,  9-C ) :   1.0601
B(  9-C , 10-H ) :   0.9671 B(  9-C , 11-H ) :   0.9559 B(  9-C , 12-C ) :   1.0656
B( 12-C , 13-H ) :   0.9775 B( 12-C , 14-H ) :   0.9772 B( 12-C , 15-H ) :   0.9790
B( 16-S , 17-C ) :   1.1194 B( 16-S , 20-C ) :   1.1157 B( 17-C , 18-C ) :   1.6477
B( 17-C , 33-H ) :   0.9594 B( 18-C , 19-C ) :   1.2217 B( 18-C , 21-H ) :   0.9804
B( 19-C , 20-C ) :   1.5969 B( 19-C , 22-C ) :   1.0438 B( 22-C , 23-H ) :   0.9267
B( 22-C , 24-H ) :   0.9378 B( 22-C , 25-C ) :   1.0465 B( 25-C , 26-H ) :   0.9547
B( 25-C , 27-H ) :   0.9511 B( 25-C , 28-C ) :   1.0921 B( 28-C , 29-H ) :   0.9733
B( 28-C , 30-H ) :   0.9701 B( 28-C , 31-H ) :   0.9741

Dispersion correction           -0.013696207
FINAL SINGLE POINT ENERGY     -1339.866602457092

DIPOLE MOMENT
-------------
                                X             Y             Z
Electronic contribution:     -4.40235       7.89162       3.13825
Nuclear contribution   :      4.55418      -7.84804      -3.19060
                        -----------------------------------------
Total Dipole Moment    :      0.15183       0.04358      -0.05235
                        -----------------------------------------
Magnitude (a.u.)       :      0.16641
Magnitude (Debye)      :      0.42298

Rotational constants in cm-1:     0.020956     0.008152     0.006017
Rotational constants in MHz :   628.253454   244.391008   180.398588

                             ****ORCA TERMINATED NORMALLY****
TOTAL RUN TIME: 0 days 0 hours 0 minutes 20 seconds 903 msec
