                         Program Version 4.2.1 -  RELEASE  -
|  1> ! wB97X-D3 SP def2-SVP
|  2> %pal
|  3> nprocs 24
|  4> end
|  5>
|  6> * xyz 0 1
|  7> S 	 -33.8855 	 -36.0361 	 -85.537
|  8> C 	 -32.1896 	 -35.9863 	 -85.1432
|  9> C 	 -31.439 	 -36.3781 	 -86.2303
| 10> C 	 -32.2228 	 -36.6285 	 -87.3667
| 11> C 	 -33.5667 	 -36.6076 	 -87.1116
| 12> H 	 -31.7972 	 -36.964 	 -88.2839
| 13> C 	 -29.9521 	 -36.5336 	 -86.2151
| 14> H 	 -29.5562 	 -35.6117 	 -85.9253
| 15> H 	 -29.5821 	 -36.6136 	 -87.2849
| 16> C 	 -29.3802 	 -37.6141 	 -85.2203
| 17> H 	 -29.6544 	 -37.3835 	 -84.2413
| 18> H 	 -29.9051 	 -38.5595 	 -85.3084
| 19> C 	 -27.8896 	 -37.8739 	 -85.267
| 20> H 	 -27.2593 	 -37.0135 	 -85.0341
| 21> H 	 -27.6132 	 -38.6738 	 -84.5088
| 22> H 	 -27.6353 	 -38.319 	 -86.1787
| 23> S 	 -35.9287 	 -35.4292 	 -87.8147
| 24> C 	 -36.7591 	 -36.0496 	 -89.1648
| 25> C 	 -36.1888 	 -37.1618 	 -89.7267
| 26> C 	 -34.9541 	 -37.4688 	 -89.0945
| 27> C 	 -34.6147 	 -36.5979 	 -88.1002
| 28> H 	 -36.7079 	 -37.5865 	 -90.5052
| 29> C 	 -34.1467 	 -38.7685 	 -89.4285
| 30> H 	 -33.0622 	 -38.6488 	 -89.4187
| 31> H 	 -34.3755 	 -39.0847 	 -90.4208
| 32> C 	 -34.5652 	 -40.0828 	 -88.6287
| 33> H 	 -35.5406 	 -40.4568 	 -88.9311
| 34> H 	 -34.6678 	 -39.7087 	 -87.5986
| 35> C 	 -33.5071 	 -41.2061 	 -88.6948
| 36> H 	 -33.1313 	 -41.3862 	 -89.7529
| 37> H 	 -33.9807 	 -42.1638 	 -88.4006
| 38> H 	 -32.6239 	 -40.9176 	 -88.0725
| 39> H 	 -31.6617 	 -35.6487 	 -84.2155
| 40> H 	 -37.7115 	 -35.6389 	 -89.5003
| 41> *
| 42>
| 43>                          ****END OF INPUT****

CARTESIAN COORDINATES (ANGSTROEM)
---------------------------------
  S    -33.885500  -36.036100  -85.537000
  C    -32.189600  -35.986300  -85.143200
  C    -31.439000  -36.378100  -86.230300
  C    -32.222800  -36.628500  -87.366700
  C    -33.566700  -36.607600  -87.111600
  H    -31.797200  -36.964000  -88.283900
  C    -29.952100  -36.533600  -86.215100
  H    -29.556200  -35.611700  -85.925300
  H    -29.582100  -36.613600  -87.284900
  C    -29.380200  -37.614100  -85.220300
  H    -29.654400  -37.383500  -84.241300
  H    -29.905100  -38.559500  -85.308400
  C    -27.889600  -37.873900  -85.267000
  H    -27.259300  -37.013500  -85.034100
  H    -27.613200  -38.673800  -84.508800
  H    -27.635300  -38.319000  -86.178700
  S    -35.928700  -35.429200  -87.814700
  C    -36.759100  -36.049600  -89.164800
  C    -36.188800  -37.161800  -89.726700
  C    -34.954100  -37.468800  -89.094500
  C    -34.614700  -36.597900  -88.100200
  H    -36.707900  -37.586500  -90.505200
  C    -34.146700  -38.768500  -89.428500
  H    -33.062200  -38.648800  -89.418700
  H    -34.375500  -39.084700  -90.420800
  C    -34.565200  -40.082800  -88.628700
  H    -35.540600  -40.456800  -88.931100
  H    -34.667800  -39.708700  -87.598600
  C    -33.507100  -41.206100  -88.694800
  H    -33.131300  -41.386200  -89.752900
  H    -33.980700  -42.163800  -88.400600
  H    -32.623900  -40.917600  -88.072500
  H    -31.661700  -35.648700  -84.215500
  H    -37.711500  -35.638900  -89.500300

 Total Charge           Charge          ....    0
 Multiplicity           Mult            ....    1
 Number of Electrons    NEL             ....  134
 Basis Dimension        Dim             ....  322

ORBITAL ENERGIES
----------------

  NO   OCC          E(Eh)            E(eV)
   0   2.0000     -88.968808     -2420.9643
   1   2.0000     -88.963849     -2420.8294
   2   2.0000     -10.323458      -280.9156
   3   2.0000     -10.322403      -280.8869
   4   2.0000     -10.312082      -280.6060
   5   2.0000     -10.311648      -280.5942
   6   2.0000     -10.305243      -280.4199
   7   2.0000     -10.293412      -280.0980
   8   2.0000     -10.293321      -280.0955
   9   2.0000     -10.291854      -280.0556
  10   2.0000     -10.287922      -279.9486
  11   2.0000     -10.287498      -279.9371
  12   2.0000     -10.286555      -279.9114
  13   2.0000     -10.285150      -279.8732
  14   2.0000     -10.283314      -279.8232
  15   2.0000     -10.278350      -279.6881
  16   2.0000      -8.084198      -219.9822
  17   2.0000      -8.079362      -219.8506
  18   2.0000      -6.042703      -164.4303
  19   2.0000      -6.038532      -164.3168
  20   2.0000      -6.037783      -164.2964
  21   2.0000      -6.034998      -164.2207
  22   2.0000      -6.033826      -164.1888
  23   2.0000      -6.030087      -164.0870
  24   2.0000      -1.017080       -27.6762
  25   2.0000      -0.991116       -26.9696
  26   2.0000      -0.912335       -24.8259
  27   2.0000      -0.897764       -24.4294
  28   2.0000      -0.873049       -23.7569
  29   2.0000      -0.856212       -23.2987
  30   2.0000      -0.847393       -23.0587
  31   2.0000      -0.816653       -22.2222
  32   2.0000      -0.782901       -21.3038
  33   2.0000      -0.770750       -20.9732
  34   2.0000      -0.711132       -19.3509
  35   2.0000      -0.703489       -19.1429
  36   2.0000      -0.689327       -18.7575
  37   2.0000      -0.666443       -18.1348
  38   2.0000      -0.635479       -17.2923
  39   2.0000      -0.625276       -17.0146
  40   2.0000      -0.596135       -16.2217
  41   2.0000      -0.571922       -15.5628
  42   2.0000      -0.561739       -15.2857
  43   2.0000      -0.558301       -15.1921
  44   2.0000      -0.525960       -14.3121
  45   2.0000      -0.523561       -14.2468
  46   2.0000      -0.512382       -13.9426
  47   2.0000      -0.508879       -13.8473
  48   2.0000      -0.504604       -13.7310
  49   2.0000      -0.500402       -13.6166
  50   2.0000      -0.490923       -13.3587
  51   2.0000      -0.482382       -13.1263
  52   2.0000      -0.471791       -12.8381
  53   2.0000      -0.467178       -12.7126
  54   2.0000      -0.459717       -12.5095
  55   2.0000      -0.457579       -12.4514
  56   2.0000      -0.447674       -12.1818
  57   2.0000      -0.435274       -11.8444
  58   2.0000      -0.433320       -11.7912
  59   2.0000      -0.427453       -11.6316
  60   2.0000      -0.422066       -11.4850
  61   2.0000      -0.416792       -11.3415
  62   2.0000      -0.406204       -11.0534
  63   2.0000      -0.354816        -9.6550
  64   2.0000      -0.333551        -9.0764
  65   2.0000      -0.332152        -9.0383
  66   2.0000      -0.286310        -7.7909
  67   0.0000       0.027799         0.7565
  68   0.0000       0.073166         1.9909
  69   0.0000       0.108771         2.9598
  70   0.0000       0.127792         3.4774
  71   0.0000       0.132870         3.6156

MULLIKEN ATOMIC CHARGES
-----------------------
   0 S :    0.111957
   1 C :   -0.142504
   2 C :   -0.092276
   3 C :    0.018484
   4 C :   -0.108387
   5 H :   -0.001400
   6 C :    0.090362
   7 H :    0.009850
   8 H :    0.022046
   9 C :   -0.045297
  10 H :    0.001475
  11 H :    0.021001
  12 C :   -0.041125
  13 H :    0.035461
  14 H :    0.034330
  15 H :    0.020956
  16 S :    0.098956
  17 C :   -0.093887
  18 C :   -0.002066
  19 C :   -0.029202
  20 C :   -0.140047
  21 H :   -0.015691
  22 C :    0.068977
  23 H :    0.022193
  24 H :    0.006521
  25 C :   -0.079311
  26 H :    0.027541
  27 H :    0.038452
  28 C :   -0.080270
  29 H :    0.033950
  30 H :    0.044562
  31 H :    0.049816
  32 H :    0.060150
  33 H :    0.054423
Sum of atomic charges:    0.0000000

LOEWDIN ATOMIC CHARGES
----------------------
   0 S :    0.432639
   1 C :   -0.215700
   2 C :   -0.065660
   3 C :   -0.061623
   4 C :   -0.205216
   5 H :    0.025043
   6 C :   -0.030457
   7 H :    0.023237
   8 H :    0.034520
   9 C :   -0.036829
  10 H :    0.013849
  11 H :    0.026266
  12 C :   -0.063112
  13 H :    0.024962
  14 H :    0.036533
  15 H :    0.016191
  16 S :    0.403520
  17 C :   -0.189603
  18 C :   -0.064337
  19 C :   -0.053160
  20 C :   -0.183195
  21 H :    0.020668
  22 C :   -0.028013
  23 H :    0.025729
  24 H :    0.022538
  25 C :   -0.039120
  26 H :    0.019891
  27 H :    0.025846
  28 C :   -0.074639
  29 H :    0.027323
  30 H :    0.030745
  31 H :    0.031910
  32 H :    0.040722
  33 H :    0.028533

  Mayer bond orders larger than 0.100000
B(  0-S ,  1-C ) :   1.1376 B(  0-S ,  4-C ) :   1.1621 B(  1-C ,  2-C ) :   1.5839
B(  1-C , 32-H ) :   0.9627 B(  2-C ,  3-C ) :   1.2925 B(  2-C ,  6-C ) :   1.0273
B(  3-C ,  4-C ) :   1.5306 B(  3-C ,  5-H ) :   0.9960 B(  4-C , 20-C ) :   1.0555
B(  6-C ,  7-H ) :   0.9255 B(  6-C ,  8-H ) :   0.9469 B(  6-C ,  9-C ) :   1.0458
B(  9-C , 10-H ) :   0.9501 B(  9-C , 11-H ) :   0.9552 B(  9-C , 12-C ) :   1.0964
B( 12-C , 13-H ) :   0.9747 B( 12-C , 14-H ) :   0.9709 B( 12-C , 15-H ) :   0.9757
B( 16-S , 17-C ) :   1.1670 B( 16-S , 20-C ) :   1.1204 B( 17-C , 18-C ) :   1.6177
B( 17-C , 33-H ) :   0.9627 B( 18-C , 19-C ) :   1.2176 B( 18-C , 21-H ) :   1.0144
B( 19-C , 20-C ) :   1.6258 B( 19-C , 22-C ) :   1.0421 B( 22-C , 23-H ) :   0.9470
B( 22-C , 24-H ) :   0.9308 B( 22-C , 25-C ) :   1.0418 B( 25-C , 26-H ) :   0.9612
B( 25-C , 27-H ) :   0.9628 B( 25-C , 28-C ) :   1.0744 B( 28-C , 29-H ) :   0.9747
B( 28-C , 30-H ) :   0.9741 B( 28-C , 31-H ) :   0.9753

Dispersion correction           -0.013763771
FINAL SINGLE POINT ENERGY     -1339.872557160768

DIPOLE MOMENT
-------------
                                X             Y             Z
Electronic contribution:    -22.75544      20.76802       1.86138
Nuclear contribution   :     23.08678     -21.13903      -2.04775
                        -----------------------------------------
Total Dipole Moment    :      0.33134      -0.37101      -0.18637
                        -----------------------------------------
Magnitude (a.u.)       :      0.53119
Magnitude (Debye)      :      1.35018

Rotational constants in cm-1:     0.019110     0.008454     0.006398
Rotational constants in MHz :   572.908655   253.457290   191.819626

                             ****ORCA TERMINATED NORMALLY****
TOTAL RUN TIME: 0 days 0 hours 0 minutes 20 seconds 201 msec
