                         Program Version 4.2.1 -  RELEASE  -
|  1> ! wB97X-D3 SP def2-SVP
|  2> %pal
|  3> nprocs 24
|  4> end
|  5>
|  6> * xyz 0 1
|  7> S 	 -99.523 	 46.0817 	 -84.4405
|  8> C 	 -98.9391 	 44.607 	 -85.1315
|  9> C 	 -99.542 	 44.3159 	 -86.304
| 10> C 	 -100.513 	 45.3415 	 -86.6698
| 11> C 	 -100.82 	 46.183 	 -85.6402
| 12> H 	 -101.103 	 45.2696 	 -87.544
| 13> C 	 -99.1587 	 43.1205 	 -87.2013
| 14> H 	 -98.1701 	 43.0608 	 -87.417
| 15> H 	 -99.676 	 43.3295 	 -88.1332
| 16> C 	 -99.8092 	 41.8111 	 -86.7551
| 17> H 	 -99.8856 	 41.1518 	 -87.5624
| 18> H 	 -99.3174 	 41.2736 	 -85.972
| 19> C 	 -101.299 	 41.9777 	 -86.2822
| 20> H 	 -101.778 	 42.1378 	 -87.2037
| 21> H 	 -101.698 	 41.0875 	 -85.8628
| 22> H 	 -101.522 	 42.8019 	 -85.6204
| 23> S 	 -101.538 	 48.759 	 -84.9222
| 24> C 	 -103.175 	 49.3747 	 -85.3598
| 25> C 	 -104.029 	 48.3207 	 -85.6178
| 26> C 	 -103.329 	 47.0443 	 -85.785
| 27> C 	 -101.973 	 47.0835 	 -85.5199
| 28> H 	 -105.1 	 48.4522 	 -85.7115
| 29> C 	 -104.141 	 45.857 	 -86.2093
| 30> H 	 -103.884 	 45.4953 	 -87.2087
| 31> H 	 -105.259 	 46.1787 	 -86.2122
| 32> C 	 -103.934 	 44.6022 	 -85.2997
| 33> H 	 -104.172 	 44.9938 	 -84.3559
| 34> H 	 -102.86 	 44.3927 	 -85.3219
| 35> C 	 -104.838 	 43.4698 	 -85.8027
| 36> H 	 -105.851 	 43.8503 	 -85.6451
| 37> H 	 -104.733 	 42.5837 	 -85.2484
| 38> H 	 -104.66 	 43.2493 	 -86.8587
| 39> H 	 -98.3614 	 43.7957 	 -84.6522
| 40> H 	 -103.396 	 50.4076 	 -85.2091
| 41> *
| 42>
| 43>                          ****END OF INPUT****

CARTESIAN COORDINATES (ANGSTROEM)
---------------------------------
  S    -99.523000   46.081700  -84.440500
  C    -98.939100   44.607000  -85.131500
  C    -99.542000   44.315900  -86.304000
  C    -100.513000   45.341500  -86.669800
  C    -100.820000   46.183000  -85.640200
  H    -101.103000   45.269600  -87.544000
  C    -99.158700   43.120500  -87.201300
  H    -98.170100   43.060800  -87.417000
  H    -99.676000   43.329500  -88.133200
  C    -99.809200   41.811100  -86.755100
  H    -99.885600   41.151800  -87.562400
  H    -99.317400   41.273600  -85.972000
  C    -101.299000   41.977700  -86.282200
  H    -101.778000   42.137800  -87.203700
  H    -101.698000   41.087500  -85.862800
  H    -101.522000   42.801900  -85.620400
  S    -101.538000   48.759000  -84.922200
  C    -103.175000   49.374700  -85.359800
  C    -104.029000   48.320700  -85.617800
  C    -103.329000   47.044300  -85.785000
  C    -101.973000   47.083500  -85.519900
  H    -105.100000   48.452200  -85.711500
  C    -104.141000   45.857000  -86.209300
  H    -103.884000   45.495300  -87.208700
  H    -105.259000   46.178700  -86.212200
  C    -103.934000   44.602200  -85.299700
  H    -104.172000   44.993800  -84.355900
  H    -102.860000   44.392700  -85.321900
  C    -104.838000   43.469800  -85.802700
  H    -105.851000   43.850300  -85.645100
  H    -104.733000   42.583700  -85.248400
  H    -104.660000   43.249300  -86.858700
  H    -98.361400   43.795700  -84.652200
  H    -103.396000   50.407600  -85.209100

 Total Charge           Charge          ....    0
 Multiplicity           Mult            ....    1
 Number of Electrons    NEL             ....  134
 Basis Dimension        Dim             ....  322

ORBITAL ENERGIES
----------------

  NO   OCC          E(Eh)            E(eV)
   0   2.0000     -88.964363     -2420.8434
   1   2.0000     -88.960237     -2420.7311
   2   2.0000     -10.337272      -281.2915
   3   2.0000     -10.335218      -281.2356
   4   2.0000     -10.325661      -280.9755
   5   2.0000     -10.311455      -280.5890
   6   2.0000     -10.309278      -280.5297
   7   2.0000     -10.302810      -280.3537
   8   2.0000     -10.299657      -280.2679
   9   2.0000     -10.297516      -280.2097
  10   2.0000     -10.293493      -280.1002
  11   2.0000     -10.289171      -279.9826
  12   2.0000     -10.282555      -279.8026
  13   2.0000     -10.279628      -279.7229
  14   2.0000     -10.275895      -279.6213
  15   2.0000     -10.268955      -279.4325
  16   2.0000      -8.079420      -219.8522
  17   2.0000      -8.073725      -219.6972
  18   2.0000      -6.038117      -164.3055
  19   2.0000      -6.034037      -164.1945
  20   2.0000      -6.032543      -164.1539
  21   2.0000      -6.029794      -164.0790
  22   2.0000      -6.028539      -164.0449
  23   2.0000      -6.024107      -163.9243
  24   2.0000      -1.004804       -27.3421
  25   2.0000      -0.978087       -26.6151
  26   2.0000      -0.914924       -24.8964
  27   2.0000      -0.907293       -24.6887
  28   2.0000      -0.869969       -23.6731
  29   2.0000      -0.848836       -23.0980
  30   2.0000      -0.841453       -22.8971
  31   2.0000      -0.817982       -22.2584
  32   2.0000      -0.786567       -21.4036
  33   2.0000      -0.771449       -20.9922
  34   2.0000      -0.711239       -19.3538
  35   2.0000      -0.706753       -19.2317
  36   2.0000      -0.690469       -18.7886
  37   2.0000      -0.668730       -18.1971
  38   2.0000      -0.636927       -17.3317
  39   2.0000      -0.617980       -16.8161
  40   2.0000      -0.598061       -16.2741
  41   2.0000      -0.576808       -15.6957
  42   2.0000      -0.570620       -15.5274
  43   2.0000      -0.565519       -15.3885
  44   2.0000      -0.544590       -14.8190
  45   2.0000      -0.523022       -14.2321
  46   2.0000      -0.515691       -14.0327
  47   2.0000      -0.511056       -13.9066
  48   2.0000      -0.505679       -13.7602
  49   2.0000      -0.501584       -13.6488
  50   2.0000      -0.491927       -13.3860
  51   2.0000      -0.481813       -13.1108
  52   2.0000      -0.470030       -12.7902
  53   2.0000      -0.460460       -12.5298
  54   2.0000      -0.458263       -12.4700
  55   2.0000      -0.450493       -12.2585
  56   2.0000      -0.445989       -12.1360
  57   2.0000      -0.442221       -12.0335
  58   2.0000      -0.428586       -11.6624
  59   2.0000      -0.422429       -11.4949
  60   2.0000      -0.419678       -11.4200
  61   2.0000      -0.416706       -11.3391
  62   2.0000      -0.410849       -11.1798
  63   2.0000      -0.354335        -9.6419
  64   2.0000      -0.331182        -9.0119
  65   2.0000      -0.324788        -8.8379
  66   2.0000      -0.290742        -7.9115
  67   0.0000       0.020992         0.5712
  68   0.0000       0.059971         1.6319
  69   0.0000       0.094191         2.5631
  70   0.0000       0.115519         3.1434
  71   0.0000       0.123511         3.3609

MULLIKEN ATOMIC CHARGES
-----------------------
   0 S :    0.105603
   1 C :   -0.094003
   2 C :   -0.180674
   3 C :    0.052507
   4 C :   -0.130269
   5 H :   -0.002311
   6 C :    0.153852
   7 H :    0.018279
   8 H :    0.003155
   9 C :   -0.061634
  10 H :    0.015397
  11 H :    0.022514
  12 C :   -0.060510
  13 H :    0.007892
  14 H :    0.024659
  15 H :    0.061827
  16 S :    0.051935
  17 C :   -0.080428
  18 C :   -0.016879
  19 C :   -0.035707
  20 C :   -0.122194
  21 H :    0.028109
  22 C :   -0.003770
  23 H :    0.030185
  24 H :    0.031196
  25 C :   -0.081203
  26 H :    0.020171
  27 H :    0.040494
  28 C :    0.000326
  29 H :    0.025481
  30 H :    0.027411
  31 H :    0.029926
  32 H :    0.059280
  33 H :    0.059384
Sum of atomic charges:    0.0000000

LOEWDIN ATOMIC CHARGES
----------------------
   0 S :    0.393279
   1 C :   -0.207183
   2 C :   -0.061344
   3 C :   -0.060327
   4 C :   -0.181723
   5 H :    0.021894
   6 C :   -0.014474
   7 H :    0.018199
   8 H :    0.032583
   9 C :   -0.028406
  10 H :    0.017727
  11 H :    0.014582
  12 C :   -0.056024
  13 H :    0.016257
  14 H :    0.022422
  15 H :    0.023562
  16 S :    0.336378
  17 C :   -0.148671
  18 C :   -0.067043
  19 C :   -0.054939
  20 C :   -0.164305
  21 H :    0.033485
  22 C :   -0.036016
  23 H :    0.026603
  24 H :    0.034953
  25 C :   -0.032586
  26 H :    0.016675
  27 H :    0.021534
  28 C :   -0.056400
  29 H :    0.028795
  30 H :    0.019129
  31 H :    0.026174
  32 H :    0.040792
  33 H :    0.024418

  Mayer bond orders larger than 0.100000
B(  0-S ,  1-C ) :   1.1173 B(  0-S ,  4-C ) :   1.1296 B(  1-C ,  2-C ) :   1.6732
B(  1-C , 32-H ) :   0.9569 B(  2-C ,  3-C ) :   1.2094 B(  2-C ,  6-C ) :   1.0143
B(  3-C ,  4-C ) :   1.5968 B(  3-C ,  5-H ) :   0.9970 B(  4-C , 20-C ) :   1.0469
B(  6-C ,  7-H ) :   0.9493 B(  6-C ,  8-H ) :   0.9300 B(  6-C ,  9-C ) :   1.0644
B(  9-C , 10-H ) :   0.9611 B(  9-C , 11-H ) :   0.9602 B(  9-C , 12-C ) :   1.0749
B( 12-C , 13-H ) :   0.9813 B( 12-C , 14-H ) :   0.9696 B( 12-C , 15-H ) :   0.9626
B( 16-S , 17-C ) :   1.1396 B( 16-S , 20-C ) :   1.0901 B( 17-C , 18-C ) :   1.6304
B( 17-C , 33-H ) :   0.9722 B( 18-C , 19-C ) :   1.1984 B( 18-C , 21-H ) :   0.9878
B( 19-C , 20-C ) :   1.6401 B( 19-C , 22-C ) :   1.0443 B( 22-C , 23-H ) :   0.9310
B( 22-C , 24-H ) :   0.9425 B( 22-C , 25-C ) :   1.0476 B( 25-C , 26-H ) :   0.9528
B( 25-C , 27-H ) :   0.9506 B( 25-C , 28-C ) :   1.0799 B( 28-C , 29-H ) :   0.9720
B( 28-C , 30-H ) :   0.9734 B( 28-C , 31-H ) :   0.9724

Dispersion correction           -0.016490202
FINAL SINGLE POINT ENERGY     -1339.850626311195

DIPOLE MOMENT
-------------
                                X             Y             Z
Electronic contribution:     12.66854      26.81222       8.98315
Nuclear contribution   :    -13.15880     -27.43121      -9.35375
                        -----------------------------------------
Total Dipole Moment    :     -0.49026      -0.61900      -0.37060
                        -----------------------------------------
Magnitude (a.u.)       :      0.87227
Magnitude (Debye)      :      2.21714

Rotational constants in cm-1:     0.019162     0.010491     0.007388
Rotational constants in MHz :   574.456587   314.509481   221.486083

                             ****ORCA TERMINATED NORMALLY****
TOTAL RUN TIME: 0 days 0 hours 0 minutes 23 seconds 749 msec
