                         Program Version 4.2.1 -  RELEASE  -
|  1> ! wB97X-D3 SP def2-SVP
|  2> %pal
|  3> nprocs 24
|  4> end
|  5>
|  6> * xyz 0 1
|  7> S 	 -85.8611 	 -44.9572 	 -81.5133
|  8> C 	 -86.6632 	 -44.7314 	 -83.0568
|  9> C 	 -87.8387 	 -45.4494 	 -83.0191
| 10> C 	 -87.9867 	 -46.2297 	 -81.8103
| 11> C 	 -87.0452 	 -45.9653 	 -80.8392
| 12> H 	 -88.7045 	 -47.0085 	 -81.6183
| 13> C 	 -88.8754 	 -45.4129 	 -84.1248
| 14> H 	 -89.1622 	 -46.4278 	 -84.4392
| 15> H 	 -88.3937 	 -44.926 	 -85.0271
| 16> C 	 -90.2396 	 -44.7929 	 -83.6728
| 17> H 	 -90.6431 	 -45.4062 	 -82.9386
| 18> H 	 -89.9794 	 -43.8991 	 -83.1275
| 19> C 	 -91.2921 	 -44.4758 	 -84.7554
| 20> H 	 -91.4681 	 -45.2882 	 -85.4976
| 21> H 	 -92.2292 	 -44.0844 	 -84.3376
| 22> H 	 -90.9131 	 -43.568 	 -85.2602
| 23> S 	 -85.5185 	 -47.7638 	 -79.6499
| 24> C 	 -86.085 	 -48.6099 	 -78.1641
| 25> C 	 -87.33 	 -48.1656 	 -77.9086
| 26> C 	 -87.8889 	 -47.1575 	 -78.7089
| 27> C 	 -86.915 	 -46.7659 	 -79.663
| 28> H 	 -87.8673 	 -48.5224 	 -76.982
| 29> C 	 -89.2431 	 -46.5001 	 -78.561
| 30> H 	 -90.0001 	 -47.3054 	 -78.543
| 31> H 	 -89.5295 	 -45.9924 	 -79.4945
| 32> C 	 -89.3784 	 -45.551 	 -77.3364
| 33> H 	 -89.0973 	 -46.1177 	 -76.4268
| 34> H 	 -90.4286 	 -45.0843 	 -77.3602
| 35> C 	 -88.429 	 -44.2646 	 -77.492
| 36> H 	 -87.3776 	 -44.5861 	 -77.4778
| 37> H 	 -88.4017 	 -43.5915 	 -76.6542
| 38> H 	 -88.686 	 -43.6689 	 -78.36
| 39> H 	 -86.2548 	 -44.077 	 -83.8261
| 40> H 	 -85.5681 	 -49.3409 	 -77.5516
| 41> *
| 42>
| 43>                          ****END OF INPUT****

CARTESIAN COORDINATES (ANGSTROEM)
---------------------------------
  S    -85.861100  -44.957200  -81.513300
  C    -86.663200  -44.731400  -83.056800
  C    -87.838700  -45.449400  -83.019100
  C    -87.986700  -46.229700  -81.810300
  C    -87.045200  -45.965300  -80.839200
  H    -88.704500  -47.008500  -81.618300
  C    -88.875400  -45.412900  -84.124800
  H    -89.162200  -46.427800  -84.439200
  H    -88.393700  -44.926000  -85.027100
  C    -90.239600  -44.792900  -83.672800
  H    -90.643100  -45.406200  -82.938600
  H    -89.979400  -43.899100  -83.127500
  C    -91.292100  -44.475800  -84.755400
  H    -91.468100  -45.288200  -85.497600
  H    -92.229200  -44.084400  -84.337600
  H    -90.913100  -43.568000  -85.260200
  S    -85.518500  -47.763800  -79.649900
  C    -86.085000  -48.609900  -78.164100
  C    -87.330000  -48.165600  -77.908600
  C    -87.888900  -47.157500  -78.708900
  C    -86.915000  -46.765900  -79.663000
  H    -87.867300  -48.522400  -76.982000
  C    -89.243100  -46.500100  -78.561000
  H    -90.000100  -47.305400  -78.543000
  H    -89.529500  -45.992400  -79.494500
  C    -89.378400  -45.551000  -77.336400
  H    -89.097300  -46.117700  -76.426800
  H    -90.428600  -45.084300  -77.360200
  C    -88.429000  -44.264600  -77.492000
  H    -87.377600  -44.586100  -77.477800
  H    -88.401700  -43.591500  -76.654200
  H    -88.686000  -43.668900  -78.360000
  H    -86.254800  -44.077000  -83.826100
  H    -85.568100  -49.340900  -77.551600

 Total Charge           Charge          ....    0
 Multiplicity           Mult            ....    1
 Number of Electrons    NEL             ....  134
 Basis Dimension        Dim             ....  322

ORBITAL ENERGIES
----------------

  NO   OCC          E(Eh)            E(eV)
   0   2.0000     -88.965380     -2420.8711
   1   2.0000     -88.963745     -2420.8266
   2   2.0000     -10.326157      -280.9890
   3   2.0000     -10.322641      -280.8933
   4   2.0000     -10.318165      -280.7715
   5   2.0000     -10.316677      -280.7311
   6   2.0000     -10.305476      -280.4263
   7   2.0000     -10.303392      -280.3696
   8   2.0000     -10.301746      -280.3248
   9   2.0000     -10.298499      -280.2364
  10   2.0000     -10.296528      -280.1828
  11   2.0000     -10.293679      -280.1052
  12   2.0000     -10.292335      -280.0687
  13   2.0000     -10.285468      -279.8818
  14   2.0000     -10.282372      -279.7976
  15   2.0000     -10.273693      -279.5614
  16   2.0000      -8.079985      -219.8676
  17   2.0000      -8.079508      -219.8546
  18   2.0000      -6.038556      -164.3175
  19   2.0000      -6.037959      -164.3012
  20   2.0000      -6.034420      -164.2049
  21   2.0000      -6.033697      -164.1852
  22   2.0000      -6.030729      -164.1045
  23   2.0000      -6.030415      -164.0959
  24   2.0000      -1.016103       -27.6496
  25   2.0000      -0.987899       -26.8821
  26   2.0000      -0.909602       -24.7515
  27   2.0000      -0.900373       -24.5004
  28   2.0000      -0.877168       -23.8689
  29   2.0000      -0.846066       -23.0226
  30   2.0000      -0.839623       -22.8473
  31   2.0000      -0.815224       -22.1834
  32   2.0000      -0.780417       -21.2362
  33   2.0000      -0.772867       -21.0308
  34   2.0000      -0.711292       -19.3552
  35   2.0000      -0.698336       -19.0027
  36   2.0000      -0.694411       -18.8959
  37   2.0000      -0.655271       -17.8308
  38   2.0000      -0.645559       -17.5666
  39   2.0000      -0.616197       -16.7676
  40   2.0000      -0.598758       -16.2930
  41   2.0000      -0.572428       -15.5766
  42   2.0000      -0.555257       -15.1093
  43   2.0000      -0.545242       -14.8368
  44   2.0000      -0.540310       -14.7026
  45   2.0000      -0.522856       -14.2276
  46   2.0000      -0.518681       -14.1140
  47   2.0000      -0.514851       -14.0098
  48   2.0000      -0.503230       -13.6936
  49   2.0000      -0.498981       -13.5780
  50   2.0000      -0.493935       -13.4407
  51   2.0000      -0.477449       -12.9920
  52   2.0000      -0.468722       -12.7546
  53   2.0000      -0.464444       -12.6382
  54   2.0000      -0.461501       -12.5581
  55   2.0000      -0.445332       -12.1181
  56   2.0000      -0.440877       -11.9969
  57   2.0000      -0.433937       -11.8080
  58   2.0000      -0.431020       -11.7286
  59   2.0000      -0.428606       -11.6630
  60   2.0000      -0.419776       -11.4227
  61   2.0000      -0.414293       -11.2735
  62   2.0000      -0.404682       -11.0120
  63   2.0000      -0.352263        -9.5856
  64   2.0000      -0.329387        -8.9631
  65   2.0000      -0.325496        -8.8572
  66   2.0000      -0.296355        -8.0642
  67   0.0000       0.028821         0.7842
  68   0.0000       0.074359         2.0234
  69   0.0000       0.113564         3.0902
  70   0.0000       0.125553         3.4165
  71   0.0000       0.126511         3.4425

MULLIKEN ATOMIC CHARGES
-----------------------
   0 S :    0.098164
   1 C :   -0.133259
   2 C :   -0.077820
   3 C :    0.024978
   4 C :   -0.149349
   5 H :    0.017963
   6 C :    0.055957
   7 H :    0.027606
   8 H :    0.026518
   9 C :   -0.064573
  10 H :    0.011932
  11 H :    0.022839
  12 C :   -0.052590
  13 H :    0.046534
  14 H :    0.036438
  15 H :    0.028932
  16 S :    0.106246
  17 C :   -0.089586
  18 C :   -0.051786
  19 C :   -0.047369
  20 C :   -0.150762
  21 H :    0.031161
  22 C :    0.076098
  23 H :    0.029933
  24 H :    0.017795
  25 C :   -0.086274
  26 H :    0.042839
  27 H :    0.050154
  28 C :   -0.068915
  29 H :    0.039459
  30 H :    0.024361
  31 H :    0.039109
  32 H :    0.061686
  33 H :    0.055578
Sum of atomic charges:    0.0000000

LOEWDIN ATOMIC CHARGES
----------------------
   0 S :    0.425132
   1 C :   -0.195495
   2 C :   -0.064276
   3 C :   -0.061258
   4 C :   -0.222338
   5 H :    0.028702
   6 C :   -0.033376
   7 H :    0.029849
   8 H :    0.032320
   9 C :   -0.039003
  10 H :    0.011684
  11 H :    0.023261
  12 C :   -0.071045
  13 H :    0.029494
  14 H :    0.030132
  15 H :    0.029021
  16 S :    0.408052
  17 C :   -0.180530
  18 C :   -0.076527
  19 C :   -0.064511
  20 C :   -0.196824
  21 H :    0.037917
  22 C :   -0.039641
  23 H :    0.033695
  24 H :    0.030561
  25 C :   -0.037438
  26 H :    0.026187
  27 H :    0.035274
  28 C :   -0.073253
  29 H :    0.027867
  30 H :    0.021594
  31 H :    0.025277
  32 H :    0.034505
  33 H :    0.034992

  Mayer bond orders larger than 0.100000
B(  0-S ,  1-C ) :   1.1386 B(  0-S ,  4-C ) :   1.1667 B(  1-C ,  2-C ) :   1.5840
B(  1-C , 32-H ) :   0.9761 B(  2-C ,  3-C ) :   1.2396 B(  2-C ,  6-C ) :   1.0410
B(  3-C ,  4-C ) :   1.5457 B(  3-C ,  5-H ) :   0.9932 B(  4-C , 20-C ) :   1.0331
B(  6-C ,  7-H ) :   0.9354 B(  6-C ,  8-H ) :   0.9480 B(  6-C ,  9-C ) :   1.0441
B(  9-C , 10-H ) :   0.9556 B(  9-C , 11-H ) :   0.9581 B(  9-C , 12-C ) :   1.0826
B( 12-C , 13-H ) :   0.9753 B( 12-C , 14-H ) :   0.9726 B( 12-C , 15-H ) :   0.9758
B( 16-S , 17-C ) :   1.1199 B( 16-S , 20-C ) :   1.1829 B( 17-C , 18-C ) :   1.6235
B( 17-C , 20-C ) :   0.1039 B( 17-C , 33-H ) :   0.9710 B( 18-C , 19-C ) :   1.2640
B( 18-C , 21-H ) :   0.9714 B( 19-C , 20-C ) :   1.5454 B( 19-C , 22-C ) :   1.0447
B( 22-C , 23-H ) :   0.9306 B( 22-C , 24-H ) :   0.9300 B( 22-C , 25-C ) :   1.0608
B( 25-C , 26-H ) :   0.9598 B( 25-C , 27-H ) :   0.9569 B( 25-C , 28-C ) :   1.0632
B( 28-C , 29-H ) :   0.9753 B( 28-C , 30-H ) :   0.9767 B( 28-C , 31-H ) :   0.9778

Dispersion correction           -0.014717511
FINAL SINGLE POINT ENERGY     -1339.875220969923

DIPOLE MOMENT
-------------
                                X             Y             Z
Electronic contribution:     24.91599      -9.57913       3.03444
Nuclear contribution   :    -25.51918       9.55792      -3.09350
                        -----------------------------------------
Total Dipole Moment    :     -0.60320      -0.02121      -0.05906
                        -----------------------------------------
Magnitude (a.u.)       :      0.60645
Magnitude (Debye)      :      1.54148

Rotational constants in cm-1:     0.019113     0.008643     0.007187
Rotational constants in MHz :   573.003349   259.114898   215.448536

                             ****ORCA TERMINATED NORMALLY****
TOTAL RUN TIME: 0 days 0 hours 0 minutes 20 seconds 775 msec
