                         Program Version 4.2.1 -  RELEASE  -
|  1> ! wB97X-D3 SP def2-SVP
|  2> %pal
|  3> nprocs 24
|  4> end
|  5>
|  6> * xyz 0 1
|  7> S 	 -49.1175 	 17.1046 	 18.222
|  8> C 	 -50.5083 	 16.8577 	 19.1958
|  9> C 	 -50.1102 	 16.4201 	 20.4443
| 10> C 	 -48.7075 	 16.0261 	 20.4703
| 11> C 	 -48.0073 	 16.2767 	 19.3106
| 12> H 	 -48.2991 	 15.5477 	 21.2716
| 13> C 	 -51.1363 	 16.082 	 21.5106
| 14> H 	 -50.8703 	 15.0783 	 22.0074
| 15> H 	 -52.1174 	 15.9538 	 21.0313
| 16> C 	 -51.437 	 17.1583 	 22.5848
| 17> H 	 -51.58 	 18.0375 	 21.9257
| 18> H 	 -52.3235 	 17.0224 	 23.1462
| 19> C 	 -50.298 	 17.5525 	 23.4865
| 20> H 	 -50.2446 	 18.5619 	 24.0049
| 21> H 	 -50.3085 	 16.8463 	 24.4111
| 22> H 	 -49.3717 	 17.3766 	 22.9253
| 23> S 	 -45.7866 	 15.0428 	 20.3516
| 24> C 	 -44.277 	 14.9831 	 19.4974
| 25> C 	 -44.4832 	 15.4164 	 18.2382
| 26> C 	 -45.7714 	 15.9354 	 17.9351
| 27> C 	 -46.6346 	 15.8213 	 19.0221
| 28> H 	 -43.6557 	 15.3859 	 17.5614
| 29> C 	 -46.0859 	 16.7324 	 16.6609
| 30> H 	 -46.517 	 17.59 	 17.1067
| 31> H 	 -46.8743 	 16.118 	 16.2445
| 32> C 	 -45.0768 	 17.1395 	 15.5956
| 33> H 	 -45.5957 	 17.5653 	 14.7048
| 34> H 	 -44.5711 	 16.198 	 15.2527
| 35> C 	 -44.1253 	 18.168 	 16.1579
| 36> H 	 -43.4277 	 18.3462 	 15.3723
| 37> H 	 -43.5515 	 17.7594 	 16.9785
| 38> H 	 -44.6676 	 19.0718 	 16.4642
| 39> H 	 -51.4907 	 17.221 	 19.016
| 40> H 	 -43.2829 	 14.8752 	 19.7966
| 41> *
| 42>
| 43>                          ****END OF INPUT****

CARTESIAN COORDINATES (ANGSTROEM)
---------------------------------
  S    -49.117500   17.104600   18.222000
  C    -50.508300   16.857700   19.195800
  C    -50.110200   16.420100   20.444300
  C    -48.707500   16.026100   20.470300
  C    -48.007300   16.276700   19.310600
  H    -48.299100   15.547700   21.271600
  C    -51.136300   16.082000   21.510600
  H    -50.870300   15.078300   22.007400
  H    -52.117400   15.953800   21.031300
  C    -51.437000   17.158300   22.584800
  H    -51.580000   18.037500   21.925700
  H    -52.323500   17.022400   23.146200
  C    -50.298000   17.552500   23.486500
  H    -50.244600   18.561900   24.004900
  H    -50.308500   16.846300   24.411100
  H    -49.371700   17.376600   22.925300
  S    -45.786600   15.042800   20.351600
  C    -44.277000   14.983100   19.497400
  C    -44.483200   15.416400   18.238200
  C    -45.771400   15.935400   17.935100
  C    -46.634600   15.821300   19.022100
  H    -43.655700   15.385900   17.561400
  C    -46.085900   16.732400   16.660900
  H    -46.517000   17.590000   17.106700
  H    -46.874300   16.118000   16.244500
  C    -45.076800   17.139500   15.595600
  H    -45.595700   17.565300   14.704800
  H    -44.571100   16.198000   15.252700
  C    -44.125300   18.168000   16.157900
  H    -43.427700   18.346200   15.372300
  H    -43.551500   17.759400   16.978500
  H    -44.667600   19.071800   16.464200
  H    -51.490700   17.221000   19.016000
  H    -43.282900   14.875200   19.796600

 Total Charge           Charge          ....    0
 Multiplicity           Mult            ....    1
 Number of Electrons    NEL             ....  134
 Basis Dimension        Dim             ....  322

ORBITAL ENERGIES
----------------

  NO   OCC          E(Eh)            E(eV)
   0   2.0000     -88.968677     -2420.9608
   1   2.0000     -88.965990     -2420.8877
   2   2.0000     -10.338336      -281.3204
   3   2.0000     -10.333192      -281.1804
   4   2.0000     -10.313156      -280.6353
   5   2.0000     -10.311022      -280.5772
   6   2.0000     -10.307340      -280.4770
   7   2.0000     -10.304888      -280.4103
   8   2.0000     -10.300818      -280.2995
   9   2.0000     -10.294169      -280.1186
  10   2.0000     -10.290779      -280.0263
  11   2.0000     -10.287599      -279.9398
  12   2.0000     -10.286875      -279.9201
  13   2.0000     -10.282844      -279.8104
  14   2.0000     -10.282638      -279.8048
  15   2.0000     -10.274219      -279.5757
  16   2.0000      -8.083134      -219.9533
  17   2.0000      -8.080641      -219.8854
  18   2.0000      -6.041890      -164.4082
  19   2.0000      -6.039433      -164.3413
  20   2.0000      -6.037464      -164.2878
  21   2.0000      -6.035144      -164.2246
  22   2.0000      -6.033847      -164.1893
  23   2.0000      -6.031121      -164.1152
  24   2.0000      -1.011686       -27.5294
  25   2.0000      -0.991629       -26.9836
  26   2.0000      -0.915588       -24.9144
  27   2.0000      -0.910473       -24.7752
  28   2.0000      -0.878359       -23.9014
  29   2.0000      -0.855344       -23.2751
  30   2.0000      -0.843078       -22.9413
  31   2.0000      -0.823274       -22.4024
  32   2.0000      -0.784585       -21.3496
  33   2.0000      -0.771949       -21.0058
  34   2.0000      -0.711842       -19.3702
  35   2.0000      -0.701826       -19.0977
  36   2.0000      -0.692586       -18.8462
  37   2.0000      -0.663985       -18.0679
  38   2.0000      -0.643367       -17.5069
  39   2.0000      -0.614177       -16.7126
  40   2.0000      -0.595428       -16.2024
  41   2.0000      -0.579404       -15.7664
  42   2.0000      -0.562483       -15.3059
  43   2.0000      -0.556365       -15.1394
  44   2.0000      -0.546462       -14.8700
  45   2.0000      -0.542763       -14.7693
  46   2.0000      -0.525010       -14.2863
  47   2.0000      -0.513296       -13.9675
  48   2.0000      -0.508306       -13.8317
  49   2.0000      -0.503451       -13.6996
  50   2.0000      -0.494971       -13.4688
  51   2.0000      -0.480013       -13.0618
  52   2.0000      -0.473827       -12.8935
  53   2.0000      -0.467374       -12.7179
  54   2.0000      -0.461918       -12.5694
  55   2.0000      -0.446454       -12.1486
  56   2.0000      -0.444250       -12.0887
  57   2.0000      -0.438051       -11.9200
  58   2.0000      -0.431257       -11.7351
  59   2.0000      -0.428757       -11.6671
  60   2.0000      -0.413533       -11.2528
  61   2.0000      -0.406880       -11.0718
  62   2.0000      -0.396898       -10.8001
  63   2.0000      -0.370115       -10.0713
  64   2.0000      -0.330202        -8.9853
  65   2.0000      -0.328289        -8.9332
  66   2.0000      -0.285439        -7.7672
  67   0.0000       0.016225         0.4415
  68   0.0000       0.082820         2.2536
  69   0.0000       0.118204         3.2165
  70   0.0000       0.122468         3.3325
  71   0.0000       0.131397         3.5755

MULLIKEN ATOMIC CHARGES
-----------------------
   0 S :    0.098201
   1 C :   -0.086652
   2 C :   -0.092118
   3 C :    0.017171
   4 C :   -0.088379
   5 H :   -0.015986
   6 C :    0.014725
   7 H :    0.043323
   8 H :    0.028619
   9 C :   -0.038897
  10 H :    0.017631
  11 H :    0.028621
  12 C :   -0.102459
  13 H :    0.051533
  14 H :    0.028490
  15 H :    0.035636
  16 S :    0.078937
  17 C :   -0.030460
  18 C :   -0.064334
  19 C :   -0.067553
  20 C :   -0.133760
  21 H :    0.007716
  22 C :    0.050574
  23 H :    0.024169
  24 H :    0.041806
  25 C :   -0.066322
  26 H :    0.041464
  27 H :    0.033401
  28 C :   -0.032192
  29 H :    0.027315
  30 H :    0.027724
  31 H :    0.042343
  32 H :    0.044700
  33 H :    0.035014
Sum of atomic charges:    0.0000000

LOEWDIN ATOMIC CHARGES
----------------------
   0 S :    0.417970
   1 C :   -0.198810
   2 C :   -0.063564
   3 C :   -0.064590
   4 C :   -0.180703
   5 H :    0.006615
   6 C :   -0.033834
   7 H :    0.034396
   8 H :    0.034819
   9 C :   -0.047773
  10 H :    0.026226
  11 H :    0.018483
  12 C :   -0.083905
  13 H :    0.033858
  14 H :    0.027887
  15 H :    0.025751
  16 S :    0.411270
  17 C :   -0.181151
  18 C :   -0.075157
  19 C :   -0.053004
  20 C :   -0.187745
  21 H :    0.024796
  22 C :   -0.039212
  23 H :    0.021715
  24 H :    0.034162
  25 C :   -0.042636
  26 H :    0.035150
  27 H :    0.027332
  28 C :   -0.061146
  29 H :    0.023612
  30 H :    0.023190
  31 H :    0.030924
  32 H :    0.026959
  33 H :    0.028116

  Mayer bond orders larger than 0.100000
B(  0-S ,  1-C ) :   1.1428 B(  0-S ,  4-C ) :   1.1325 B(  1-C ,  2-C ) :   1.6076
B(  1-C , 32-H ) :   0.9645 B(  2-C ,  3-C ) :   1.2451 B(  2-C ,  6-C ) :   1.0251
B(  3-C ,  4-C ) :   1.5480 B(  3-C ,  5-H ) :   0.9995 B(  4-C , 20-C ) :   1.0893
B(  6-C ,  7-H ) :   0.9495 B(  6-C ,  8-H ) :   0.9453 B(  6-C ,  9-C ) :   1.0573
B(  9-C , 10-H ) :   0.9503 B(  9-C , 11-H ) :   0.9614 B(  9-C , 12-C ) :   1.0691
B( 12-C , 13-H ) :   0.9753 B( 12-C , 14-H ) :   0.9746 B( 12-C , 15-H ) :   0.9747
B( 16-S , 17-C ) :   1.1403 B( 16-S , 20-C ) :   1.1358 B( 17-C , 18-C ) :   1.6323
B( 17-C , 33-H ) :   0.9667 B( 18-C , 19-C ) :   1.2504 B( 18-C , 21-H ) :   0.9825
B( 19-C , 20-C ) :   1.5823 B( 19-C , 22-C ) :   0.9931 B( 22-C , 23-H ) :   0.9369
B( 22-C , 24-H ) :   0.9271 B( 22-C , 25-C ) :   1.0909 B( 25-C , 26-H ) :   0.9475
B( 25-C , 27-H ) :   0.9472 B( 25-C , 28-C ) :   1.0821 B( 28-C , 29-H ) :   0.9715
B( 28-C , 30-H ) :   0.9748 B( 28-C , 31-H ) :   0.9717

Dispersion correction           -0.013986730
FINAL SINGLE POINT ENERGY     -1339.857536239033

DIPOLE MOMENT
-------------
                                X             Y             Z
Electronic contribution:      2.21018      -8.61681      -1.88625
Nuclear contribution   :     -2.13394       8.78557       1.71545
                        -----------------------------------------
Total Dipole Moment    :      0.07624       0.16876      -0.17081
                        -----------------------------------------
Magnitude (a.u.)       :      0.25193
Magnitude (Debye)      :      0.64035

Rotational constants in cm-1:     0.024582     0.007411     0.006170
Rotational constants in MHz :   736.941093   222.181038   184.979999

                             ****ORCA TERMINATED NORMALLY****
TOTAL RUN TIME: 0 days 0 hours 0 minutes 21 seconds 231 msec
