                         Program Version 4.2.1 -  RELEASE  -
|  1> ! wB97X-D3 SP def2-SVP
|  2> %pal
|  3> nprocs 24
|  4> end
|  5>
|  6> * xyz 0 1
|  7> S 	 39.2897 	 -34.1835 	 -112.723
|  8> C 	 38.7393 	 -35.8108 	 -113.174
|  9> C 	 38.9451 	 -36.0912 	 -114.531
| 10> C 	 39.4117 	 -34.8734 	 -115.188
| 11> C 	 39.7589 	 -33.783 	 -114.348
| 12> H 	 39.641 	 -34.7909 	 -116.211
| 13> C 	 38.7072 	 -37.4034 	 -115.176
| 14> H 	 39.4328 	 -38.0923 	 -114.698
| 15> H 	 39.0576 	 -37.3871 	 -116.241
| 16> C 	 37.1932 	 -38.0238 	 -115.09
| 17> H 	 36.964 	 -37.9671 	 -114.061
| 18> H 	 36.4593 	 -37.4218 	 -115.639
| 19> C 	 37.0347 	 -39.4499 	 -115.658
| 20> H 	 37.8962 	 -40.127 	 -115.388
| 21> H 	 36.0923 	 -39.8744 	 -115.23
| 22> H 	 37.0309 	 -39.4231 	 -116.749
| 23> S 	 39.4734 	 -31.6151 	 -116.104
| 24> C 	 40.4519 	 -30.2403 	 -115.797
| 25> C 	 41.4128 	 -30.4616 	 -114.81
| 26> C 	 41.312 	 -31.7424 	 -114.209
| 27> C 	 40.3069 	 -32.5024 	 -114.758
| 28> H 	 42.1674 	 -29.7687 	 -114.576
| 29> C 	 42.2387 	 -32.2311 	 -113.118
| 30> H 	 41.6809 	 -32.7049 	 -112.352
| 31> H 	 42.6441 	 -31.4139 	 -112.534
| 32> C 	 43.393 	 -33.1386 	 -113.597
| 33> H 	 44.2192 	 -33.2594 	 -112.913
| 34> H 	 43.907 	 -32.6456 	 -114.498
| 35> C 	 42.9473 	 -34.5862 	 -113.924
| 36> H 	 42.4351 	 -34.5417 	 -114.871
| 37> H 	 42.1972 	 -34.9538 	 -113.24
| 38> H 	 43.7662 	 -35.3115 	 -114.058
| 39> H 	 38.2417 	 -36.5329 	 -112.492
| 40> H 	 40.4324 	 -29.2486 	 -116.289
| 41> *
| 42>
| 43>                          ****END OF INPUT****

CARTESIAN COORDINATES (ANGSTROEM)
---------------------------------
  S     39.289700  -34.183500  -112.723000
  C     38.739300  -35.810800  -113.174000
  C     38.945100  -36.091200  -114.531000
  C     39.411700  -34.873400  -115.188000
  C     39.758900  -33.783000  -114.348000
  H     39.641000  -34.790900  -116.211000
  C     38.707200  -37.403400  -115.176000
  H     39.432800  -38.092300  -114.698000
  H     39.057600  -37.387100  -116.241000
  C     37.193200  -38.023800  -115.090000
  H     36.964000  -37.967100  -114.061000
  H     36.459300  -37.421800  -115.639000
  C     37.034700  -39.449900  -115.658000
  H     37.896200  -40.127000  -115.388000
  H     36.092300  -39.874400  -115.230000
  H     37.030900  -39.423100  -116.749000
  S     39.473400  -31.615100  -116.104000
  C     40.451900  -30.240300  -115.797000
  C     41.412800  -30.461600  -114.810000
  C     41.312000  -31.742400  -114.209000
  C     40.306900  -32.502400  -114.758000
  H     42.167400  -29.768700  -114.576000
  C     42.238700  -32.231100  -113.118000
  H     41.680900  -32.704900  -112.352000
  H     42.644100  -31.413900  -112.534000
  C     43.393000  -33.138600  -113.597000
  H     44.219200  -33.259400  -112.913000
  H     43.907000  -32.645600  -114.498000
  C     42.947300  -34.586200  -113.924000
  H     42.435100  -34.541700  -114.871000
  H     42.197200  -34.953800  -113.240000
  H     43.766200  -35.311500  -114.058000
  H     38.241700  -36.532900  -112.492000
  H     40.432400  -29.248600  -116.289000

 Total Charge           Charge          ....    0
 Multiplicity           Mult            ....    1
 Number of Electrons    NEL             ....  134
 Basis Dimension        Dim             ....  322

ORBITAL ENERGIES
----------------

  NO   OCC          E(Eh)            E(eV)
   0   2.0000     -88.970674     -2421.0151
   1   2.0000     -88.970039     -2420.9978
   2   2.0000     -10.332109      -281.1510
   3   2.0000     -10.329391      -281.0770
   4   2.0000     -10.320287      -280.8293
   5   2.0000     -10.319539      -280.8089
   6   2.0000     -10.307409      -280.4789
   7   2.0000     -10.303011      -280.3592
   8   2.0000     -10.302504      -280.3454
   9   2.0000     -10.294962      -280.1402
  10   2.0000     -10.294696      -280.1329
  11   2.0000     -10.289994      -280.0050
  12   2.0000     -10.288972      -279.9772
  13   2.0000     -10.287700      -279.9426
  14   2.0000     -10.287597      -279.9397
  15   2.0000     -10.264733      -279.3176
  16   2.0000      -8.084728      -219.9966
  17   2.0000      -8.083578      -219.9653
  18   2.0000      -6.043277      -164.4459
  19   2.0000      -6.042180      -164.4161
  20   2.0000      -6.039341      -164.3388
  21   2.0000      -6.038084      -164.3046
  22   2.0000      -6.035459      -164.2332
  23   2.0000      -6.034477      -164.2065
  24   2.0000      -1.002828       -27.2883
  25   2.0000      -0.979503       -26.6536
  26   2.0000      -0.907102       -24.6835
  27   2.0000      -0.901981       -24.5441
  28   2.0000      -0.865110       -23.5408
  29   2.0000      -0.849294       -23.1105
  30   2.0000      -0.844917       -22.9913
  31   2.0000      -0.807846       -21.9826
  32   2.0000      -0.784063       -21.3354
  33   2.0000      -0.769061       -20.9272
  34   2.0000      -0.706400       -19.2221
  35   2.0000      -0.701413       -19.0864
  36   2.0000      -0.691548       -18.8180
  37   2.0000      -0.664352       -18.0779
  38   2.0000      -0.636735       -17.3264
  39   2.0000      -0.610159       -16.6033
  40   2.0000      -0.596768       -16.2389
  41   2.0000      -0.570624       -15.5275
  42   2.0000      -0.557117       -15.1599
  43   2.0000      -0.547790       -14.9061
  44   2.0000      -0.536678       -14.6038
  45   2.0000      -0.521951       -14.2030
  46   2.0000      -0.511248       -13.9118
  47   2.0000      -0.507085       -13.7985
  48   2.0000      -0.504728       -13.7343
  49   2.0000      -0.495794       -13.4913
  50   2.0000      -0.490861       -13.3570
  51   2.0000      -0.475598       -12.9417
  52   2.0000      -0.470886       -12.8134
  53   2.0000      -0.466583       -12.6964
  54   2.0000      -0.461090       -12.5469
  55   2.0000      -0.450379       -12.2554
  56   2.0000      -0.440121       -11.9763
  57   2.0000      -0.437171       -11.8960
  58   2.0000      -0.430529       -11.7153
  59   2.0000      -0.428541       -11.6612
  60   2.0000      -0.418212       -11.3801
  61   2.0000      -0.415748       -11.3131
  62   2.0000      -0.404624       -11.0104
  63   2.0000      -0.345803        -9.4098
  64   2.0000      -0.335950        -9.1417
  65   2.0000      -0.327351        -8.9077
  66   2.0000      -0.286474        -7.7954
  67   0.0000       0.025896         0.7047
  68   0.0000       0.064250         1.7483
  69   0.0000       0.099253         2.7008
  70   0.0000       0.117337         3.1929
  71   0.0000       0.129269         3.5176

MULLIKEN ATOMIC CHARGES
-----------------------
   0 S :    0.115489
   1 C :   -0.153993
   2 C :   -0.066681
   3 C :    0.031939
   4 C :   -0.161539
   5 H :   -0.010072
   6 C :    0.025597
   7 H :    0.046308
   8 H :    0.027502
   9 C :   -0.063267
  10 H :    0.018951
  11 H :    0.042098
  12 C :   -0.076890
  13 H :    0.036102
  14 H :    0.049945
  15 H :    0.040661
  16 S :    0.126164
  17 C :   -0.091153
  18 C :   -0.028587
  19 C :   -0.031352
  20 C :   -0.159801
  21 H :   -0.001343
  22 C :    0.105196
  23 H :    0.008145
  24 H :    0.011266
  25 C :   -0.082667
  26 H :    0.024803
  27 H :    0.031864
  28 C :   -0.034890
  29 H :    0.026004
  30 H :    0.027043
  31 H :    0.034366
  32 H :    0.064991
  33 H :    0.067802
Sum of atomic charges:   -0.0000000

LOEWDIN ATOMIC CHARGES
----------------------
   0 S :    0.415548
   1 C :   -0.202349
   2 C :   -0.062682
   3 C :   -0.060739
   4 C :   -0.198822
   5 H :    0.016697
   6 C :   -0.041867
   7 H :    0.040096
   8 H :    0.033109
   9 C :   -0.031094
  10 H :    0.013357
  11 H :    0.029732
  12 C :   -0.072671
  13 H :    0.028176
  14 H :    0.035060
  15 H :    0.025648
  16 S :    0.405687
  17 C :   -0.197636
  18 C :   -0.067604
  19 C :   -0.050361
  20 C :   -0.182937
  21 H :    0.023474
  22 C :   -0.032157
  23 H :    0.018614
  24 H :    0.032041
  25 C :   -0.039611
  26 H :    0.019193
  27 H :    0.029967
  28 C :   -0.069656
  29 H :    0.023161
  30 H :    0.020088
  31 H :    0.026531
  32 H :    0.034179
  33 H :    0.039829

  Mayer bond orders larger than 0.100000
B(  0-S ,  1-C ) :   1.1424 B(  0-S ,  4-C ) :   1.1471 B(  1-C ,  2-C ) :   1.5837
B(  1-C , 32-H ) :   0.9628 B(  2-C ,  3-C ) :   1.2538 B(  2-C ,  6-C ) :   1.0362
B(  3-C ,  4-C ) :   1.5422 B(  3-C ,  5-H ) :   0.9962 B(  4-C , 20-C ) :   1.0709
B(  6-C ,  7-H ) :   0.9357 B(  6-C ,  8-H ) :   0.9440 B(  6-C ,  9-C ) :   1.0405
B(  9-C , 10-H ) :   0.9626 B(  9-C , 11-H ) :   0.9601 B(  9-C , 12-C ) :   1.0768
B( 12-C , 13-H ) :   0.9760 B( 12-C , 14-H ) :   0.9737 B( 12-C , 15-H ) :   0.9781
B( 16-S , 17-C ) :   1.1630 B( 16-S , 20-C ) :   1.1187 B( 17-C , 18-C ) :   1.5999
B( 17-C , 33-H ) :   0.9594 B( 18-C , 19-C ) :   1.2554 B( 18-C , 21-H ) :   0.9938
B( 19-C , 20-C ) :   1.5840 B( 19-C , 22-C ) :   1.0435 B( 22-C , 23-H ) :   0.9299
B( 22-C , 24-H ) :   0.9256 B( 22-C , 25-C ) :   1.0625 B( 25-C , 26-H ) :   0.9605
B( 25-C , 27-H ) :   0.9562 B( 25-C , 28-C ) :   1.0749 B( 28-C , 29-H ) :   0.9701
B( 28-C , 30-H ) :   0.9713 B( 28-C , 31-H ) :   0.9738

Dispersion correction           -0.015470915
FINAL SINGLE POINT ENERGY     -1339.880182220502

DIPOLE MOMENT
-------------
                                X             Y             Z
Electronic contribution:     -4.76921      21.45896       0.91124
Nuclear contribution   :      4.91798     -21.72961      -0.97788
                        -----------------------------------------
Total Dipole Moment    :      0.14878      -0.27064      -0.06664
                        -----------------------------------------
Magnitude (a.u.)       :      0.31595
Magnitude (Debye)      :      0.80308

Rotational constants in cm-1:     0.023753     0.007542     0.006615
Rotational constants in MHz :   712.106836   226.104698   198.324845

                             ****ORCA TERMINATED NORMALLY****
TOTAL RUN TIME: 0 days 0 hours 0 minutes 20 seconds 708 msec
