                         Program Version 4.2.1 -  RELEASE  -
|  1> ! wB97X-D3 SP def2-SVP
|  2> %pal
|  3> nprocs 24
|  4> end
|  5>
|  6> * xyz 0 1
|  7> S 	 -37.3918 	 16.204 	 13.457
|  8> C 	 -38.7841 	 17.1183 	 14.0796
|  9> C 	 -38.5357 	 18.4616 	 13.9658
| 10> C 	 -37.3261 	 18.7207 	 13.2756
| 11> C 	 -36.6243 	 17.6562 	 12.8003
| 12> H 	 -36.9916 	 19.7357 	 13.1511
| 13> C 	 -39.461 	 19.5199 	 14.5452
| 14> H 	 -40.5201 	 19.1879 	 14.3903
| 15> H 	 -39.2785 	 20.3959 	 13.9399
| 16> C 	 -39.1459 	 19.8517 	 15.9936
| 17> H 	 -38.9749 	 18.8511 	 16.5324
| 18> H 	 -38.0798 	 20.234 	 16.078
| 19> C 	 -40.2263 	 20.7107 	 16.5872
| 20> H 	 -41.1455 	 20.5598 	 16.1021
| 21> H 	 -40.2826 	 20.4969 	 17.7395
| 22> H 	 -40.0586 	 21.7526 	 16.4936
| 23> S 	 -34.3527 	 16.1369 	 12.6231
| 24> C 	 -33.0402 	 16.6918 	 11.5882
| 25> C 	 -33.4343 	 17.768 	 10.8719
| 26> C 	 -34.679 	 18.3476 	 11.2621
| 27> C 	 -35.3556 	 17.555 	 12.1502
| 28> H 	 -32.7585 	 18.1498 	 10.1188
| 29> C 	 -35.0322 	 19.7178 	 10.7445
| 30> H 	 -34.2404 	 20.4262 	 10.8433
| 31> H 	 -35.7239 	 20.2504 	 11.3723
| 32> C 	 -35.5248 	 19.6605 	 9.284
| 33> H 	 -34.6661 	 19.3778 	 8.6853
| 34> H 	 -35.8374 	 20.631 	 8.98515
| 35> C 	 -36.7164 	 18.7294 	 9.12206
| 36> H 	 -37.3865 	 18.6944 	 10.039
| 37> H 	 -36.3265 	 17.7452 	 8.91006
| 38> H 	 -37.1128 	 19.1182 	 8.2171
| 39> H 	 -39.5979 	 16.6852 	 14.5401
| 40> H 	 -32.0916 	 16.0841 	 11.4431
| 41> *
| 42>
| 43>                          ****END OF INPUT****

CARTESIAN COORDINATES (ANGSTROEM)
---------------------------------
  S    -37.391800   16.204000   13.457000
  C    -38.784100   17.118300   14.079600
  C    -38.535700   18.461600   13.965800
  C    -37.326100   18.720700   13.275600
  C    -36.624300   17.656200   12.800300
  H    -36.991600   19.735700   13.151100
  C    -39.461000   19.519900   14.545200
  H    -40.520100   19.187900   14.390300
  H    -39.278500   20.395900   13.939900
  C    -39.145900   19.851700   15.993600
  H    -38.974900   18.851100   16.532400
  H    -38.079800   20.234000   16.078000
  C    -40.226300   20.710700   16.587200
  H    -41.145500   20.559800   16.102100
  H    -40.282600   20.496900   17.739500
  H    -40.058600   21.752600   16.493600
  S    -34.352700   16.136900   12.623100
  C    -33.040200   16.691800   11.588200
  C    -33.434300   17.768000   10.871900
  C    -34.679000   18.347600   11.262100
  C    -35.355600   17.555000   12.150200
  H    -32.758500   18.149800   10.118800
  C    -35.032200   19.717800   10.744500
  H    -34.240400   20.426200   10.843300
  H    -35.723900   20.250400   11.372300
  C    -35.524800   19.660500    9.284000
  H    -34.666100   19.377800    8.685300
  H    -35.837400   20.631000    8.985150
  C    -36.716400   18.729400    9.122060
  H    -37.386500   18.694400   10.039000
  H    -36.326500   17.745200    8.910060
  H    -37.112800   19.118200    8.217100
  H    -39.597900   16.685200   14.540100
  H    -32.091600   16.084100   11.443100

 Total Charge           Charge          ....    0
 Multiplicity           Mult            ....    1
 Number of Electrons    NEL             ....  134
 Basis Dimension        Dim             ....  322

ORBITAL ENERGIES
----------------

  NO   OCC          E(Eh)            E(eV)
   0   2.0000     -88.961875     -2420.7757
   1   2.0000     -88.961454     -2420.7642
   2   2.0000     -10.330283      -281.1013
   3   2.0000     -10.329916      -281.0913
   4   2.0000     -10.320838      -280.8443
   5   2.0000     -10.309094      -280.5247
   6   2.0000     -10.303952      -280.3848
   7   2.0000     -10.297322      -280.2044
   8   2.0000     -10.293864      -280.1103
   9   2.0000     -10.293360      -280.0966
  10   2.0000     -10.291457      -280.0448
  11   2.0000     -10.290472      -280.0180
  12   2.0000     -10.286500      -279.9099
  13   2.0000     -10.279748      -279.7262
  14   2.0000     -10.279443      -279.7179
  15   2.0000     -10.269510      -279.4476
  16   2.0000      -8.076212      -219.7649
  17   2.0000      -8.075829      -219.7545
  18   2.0000      -6.034943      -164.2192
  19   2.0000      -6.034511      -164.2074
  20   2.0000      -6.030912      -164.1095
  21   2.0000      -6.030459      -164.0971
  22   2.0000      -6.026610      -163.9924
  23   2.0000      -6.026343      -163.9851
  24   2.0000      -1.008537       -27.4437
  25   2.0000      -0.984623       -26.7930
  26   2.0000      -0.916808       -24.9476
  27   2.0000      -0.912615       -24.8335
  28   2.0000      -0.875218       -23.8159
  29   2.0000      -0.850970       -23.1561
  30   2.0000      -0.841287       -22.8926
  31   2.0000      -0.818143       -22.2628
  32   2.0000      -0.785831       -21.3836
  33   2.0000      -0.774818       -21.0839
  34   2.0000      -0.710587       -19.3361
  35   2.0000      -0.699963       -19.0470
  36   2.0000      -0.692117       -18.8335
  37   2.0000      -0.660874       -17.9833
  38   2.0000      -0.643283       -17.5046
  39   2.0000      -0.626844       -17.0573
  40   2.0000      -0.605005       -16.4630
  41   2.0000      -0.565578       -15.3902
  42   2.0000      -0.559425       -15.2227
  43   2.0000      -0.555602       -15.1187
  44   2.0000      -0.547947       -14.9104
  45   2.0000      -0.527055       -14.3419
  46   2.0000      -0.522308       -14.2127
  47   2.0000      -0.511643       -13.9225
  48   2.0000      -0.503999       -13.7145
  49   2.0000      -0.502614       -13.6768
  50   2.0000      -0.499614       -13.5952
  51   2.0000      -0.475296       -12.9335
  52   2.0000      -0.471386       -12.8271
  53   2.0000      -0.464935       -12.6515
  54   2.0000      -0.459899       -12.5145
  55   2.0000      -0.447693       -12.1824
  56   2.0000      -0.443838       -12.0774
  57   2.0000      -0.441070       -12.0021
  58   2.0000      -0.426235       -11.5984
  59   2.0000      -0.422033       -11.4841
  60   2.0000      -0.415618       -11.3095
  61   2.0000      -0.409631       -11.1466
  62   2.0000      -0.403260       -10.9733
  63   2.0000      -0.362410        -9.8617
  64   2.0000      -0.333440        -9.0734
  65   2.0000      -0.325509        -8.8575
  66   2.0000      -0.285908        -7.7800
  67   0.0000       0.021185         0.5765
  68   0.0000       0.071878         1.9559
  69   0.0000       0.103588         2.8188
  70   0.0000       0.119280         3.2458
  71   0.0000       0.141512         3.8507

MULLIKEN ATOMIC CHARGES
-----------------------
   0 S :    0.074315
   1 C :   -0.086777
   2 C :   -0.102243
   3 C :    0.011021
   4 C :   -0.095457
   5 H :   -0.002080
   6 C :    0.055590
   7 H :    0.038827
   8 H :    0.018193
   9 C :   -0.109460
  10 H :    0.034769
  11 H :    0.034385
  12 C :   -0.006756
  13 H :    0.018976
  14 H :    0.050498
  15 H :    0.027551
  16 S :    0.077535
  17 C :   -0.110629
  18 C :   -0.029634
  19 C :   -0.040019
  20 C :   -0.125323
  21 H :    0.020027
  22 C :    0.080564
  23 H :    0.016273
  24 H :   -0.003773
  25 C :   -0.077370
  26 H :    0.027153
  27 H :    0.015140
  28 C :   -0.033033
  29 H :    0.059976
  30 H :    0.035501
  31 H :    0.024964
  32 H :    0.017283
  33 H :    0.084012
Sum of atomic charges:   -0.0000000

LOEWDIN ATOMIC CHARGES
----------------------
   0 S :    0.378186
   1 C :   -0.168542
   2 C :   -0.062931
   3 C :   -0.069967
   4 C :   -0.178326
   5 H :    0.024076
   6 C :   -0.032829
   7 H :    0.035422
   8 H :    0.025867
   9 C :   -0.055780
  10 H :    0.029571
  11 H :    0.031800
  12 C :   -0.066335
  13 H :    0.018596
  14 H :    0.043663
  15 H :    0.022762
  16 S :    0.367338
  17 C :   -0.184403
  18 C :   -0.071720
  19 C :   -0.052497
  20 C :   -0.172175
  21 H :    0.031819
  22 C :   -0.032577
  23 H :    0.028558
  24 H :    0.022607
  25 C :   -0.031840
  26 H :    0.021502
  27 H :    0.015158
  28 C :   -0.064091
  29 H :    0.038829
  30 H :    0.026384
  31 H :    0.023450
  32 H :    0.012521
  33 H :    0.045905

  Mayer bond orders larger than 0.100000
B(  0-S ,  1-C ) :   1.1257 B(  0-S ,  4-C ) :   1.1304 B(  1-C ,  2-C ) :   1.6057
B(  1-C ,  4-C ) :   0.1012 B(  1-C , 32-H ) :   0.9832 B(  2-C ,  3-C ) :   1.2637
B(  2-C ,  6-C ) :   1.0158 B(  3-C ,  4-C ) :   1.5555 B(  3-C ,  5-H ) :   0.9933
B(  4-C , 20-C ) :   1.0895 B(  6-C ,  7-H ) :   0.9429 B(  6-C ,  8-H ) :   0.9352
B(  6-C ,  9-C ) :   1.0648 B(  9-C , 10-H ) :   0.9619 B(  9-C , 11-H ) :   0.9494
B(  9-C , 12-C ) :   1.0620 B( 12-C , 13-H ) :   0.9732 B( 12-C , 14-H ) :   0.9737
B( 12-C , 15-H ) :   0.9724 B( 16-S , 17-C ) :   1.1289 B( 16-S , 20-C ) :   1.1124
B( 17-C , 18-C ) :   1.6539 B( 17-C , 33-H ) :   0.9575 B( 18-C , 19-C ) :   1.1991
B( 18-C , 21-H ) :   0.9877 B( 19-C , 20-C ) :   1.6299 B( 19-C , 22-C ) :   1.0386
B( 22-C , 23-H ) :   0.9322 B( 22-C , 24-H ) :   0.9356 B( 22-C , 25-C ) :   1.0762
B( 25-C , 26-H ) :   0.9570 B( 25-C , 27-H ) :   0.9618 B( 25-C , 28-C ) :   1.0603
B( 28-C , 29-H ) :   0.9762 B( 28-C , 30-H ) :   0.9716 B( 28-C , 31-H ) :   0.9752

Dispersion correction           -0.014572276
FINAL SINGLE POINT ENERGY     -1339.867249863070

DIPOLE MOMENT
-------------
                                X             Y             Z
Electronic contribution:     12.63173     -21.58868       1.01321
Nuclear contribution   :    -12.66173      22.33905      -1.13710
                        -----------------------------------------
Total Dipole Moment    :     -0.03000       0.75037      -0.12388
                        -----------------------------------------
Magnitude (a.u.)       :      0.76112
Magnitude (Debye)      :      1.93461

Rotational constants in cm-1:     0.021560     0.007936     0.006706
Rotational constants in MHz :   646.348715   237.917227   201.031906

                             ****ORCA TERMINATED NORMALLY****
TOTAL RUN TIME: 0 days 0 hours 0 minutes 20 seconds 741 msec
