                         Program Version 4.2.1 -  RELEASE  -
|  1> ! wB97X-D3 SP def2-SVP
|  2> %pal
|  3> nprocs 24
|  4> end
|  5>
|  6> * xyz 0 1
|  7> S 	 -74.3121 	 6.38527 	 -113.041
|  8> C 	 -75.7554 	 7.21148 	 -112.806
|  9> C 	 -76.4137 	 6.92421 	 -111.578
| 10> C 	 -75.6766 	 5.91942 	 -110.847
| 11> C 	 -74.4302 	 5.59181 	 -111.459
| 12> H 	 -75.9274 	 5.5418 	 -109.848
| 13> C 	 -77.6576 	 7.57091 	 -111.197
| 14> H 	 -78.3914 	 7.08441 	 -111.827
| 15> H 	 -77.7055 	 8.63447 	 -111.583
| 16> C 	 -77.9688 	 7.6073 	 -109.704
| 17> H 	 -77.871 	 6.60438 	 -109.169
| 18> H 	 -77.3576 	 8.39635 	 -109.174
| 19> C 	 -79.4474 	 7.97697 	 -109.464
| 20> H 	 -79.5987 	 8.93601 	 -109.919
| 21> H 	 -80.2318 	 7.41388 	 -110.015
| 22> H 	 -79.5844 	 8.07486 	 -108.407
| 23> S 	 -71.7064 	 5.09007 	 -110.922
| 24> C 	 -71.3767 	 3.77301 	 -109.863
| 25> C 	 -72.4474 	 3.0549 	 -109.578
| 26> C 	 -73.6255 	 3.43119 	 -110.323
| 27> C 	 -73.4156 	 4.64586 	 -110.932
| 28> H 	 -72.3804 	 2.32826 	 -108.75
| 29> C 	 -74.922 	 2.6612 	 -110.278
| 30> H 	 -75.3639 	 2.69064 	 -111.282
| 31> H 	 -75.6365 	 3.24397 	 -109.66
| 32> C 	 -74.9492 	 1.23797 	 -109.822
| 33> H 	 -74.6332 	 1.1485 	 -108.748
| 34> H 	 -74.243 	 0.63438 	 -110.327
| 35> C 	 -76.2871 	 0.489224 	 -109.999
| 36> H 	 -76.2722 	 -0.560427 	 -109.671
| 37> H 	 -76.5479 	 0.399601 	 -111.097
| 38> H 	 -77.0854 	 1.07113 	 -109.541
| 39> H 	 -76.1141 	 7.91043 	 -113.554
| 40> H 	 -70.5128 	 3.72183 	 -109.184
| 41> *
| 42>
| 43>                          ****END OF INPUT****

CARTESIAN COORDINATES (ANGSTROEM)
---------------------------------
  S    -74.312100    6.385270  -113.041000
  C    -75.755400    7.211480  -112.806000
  C    -76.413700    6.924210  -111.578000
  C    -75.676600    5.919420  -110.847000
  C    -74.430200    5.591810  -111.459000
  H    -75.927400    5.541800  -109.848000
  C    -77.657600    7.570910  -111.197000
  H    -78.391400    7.084410  -111.827000
  H    -77.705500    8.634470  -111.583000
  C    -77.968800    7.607300  -109.704000
  H    -77.871000    6.604380  -109.169000
  H    -77.357600    8.396350  -109.174000
  C    -79.447400    7.976970  -109.464000
  H    -79.598700    8.936010  -109.919000
  H    -80.231800    7.413880  -110.015000
  H    -79.584400    8.074860  -108.407000
  S    -71.706400    5.090070  -110.922000
  C    -71.376700    3.773010  -109.863000
  C    -72.447400    3.054900  -109.578000
  C    -73.625500    3.431190  -110.323000
  C    -73.415600    4.645860  -110.932000
  H    -72.380400    2.328260  -108.750000
  C    -74.922000    2.661200  -110.278000
  H    -75.363900    2.690640  -111.282000
  H    -75.636500    3.243970  -109.660000
  C    -74.949200    1.237970  -109.822000
  H    -74.633200    1.148500  -108.748000
  H    -74.243000    0.634380  -110.327000
  C    -76.287100    0.489224  -109.999000
  H    -76.272200   -0.560427  -109.671000
  H    -76.547900    0.399601  -111.097000
  H    -77.085400    1.071130  -109.541000
  H    -76.114100    7.910430  -113.554000
  H    -70.512800    3.721830  -109.184000

 Total Charge           Charge          ....    0
 Multiplicity           Mult            ....    1
 Number of Electrons    NEL             ....  134
 Basis Dimension        Dim             ....  322

ORBITAL ENERGIES
----------------

  NO   OCC          E(Eh)            E(eV)
   0   2.0000     -88.967929     -2420.9404
   1   2.0000     -88.960580     -2420.7405
   2   2.0000     -10.333739      -281.1953
   3   2.0000     -10.326197      -280.9901
   4   2.0000     -10.309185      -280.5272
   5   2.0000     -10.305573      -280.4289
   6   2.0000     -10.302669      -280.3499
   7   2.0000     -10.302562      -280.3470
   8   2.0000     -10.302435      -280.3435
   9   2.0000     -10.299138      -280.2538
  10   2.0000     -10.293532      -280.1013
  11   2.0000     -10.291716      -280.0518
  12   2.0000     -10.287864      -279.9470
  13   2.0000     -10.284948      -279.8677
  14   2.0000     -10.284628      -279.8589
  15   2.0000     -10.276913      -279.6490
  16   2.0000      -8.083221      -219.9556
  17   2.0000      -8.076060      -219.7608
  18   2.0000      -6.041437      -164.3958
  19   2.0000      -6.037567      -164.2905
  20   2.0000      -6.034633      -164.2107
  21   2.0000      -6.034372      -164.2036
  22   2.0000      -6.030667      -164.1028
  23   2.0000      -6.026499      -163.9894
  24   2.0000      -1.005878       -27.3713
  25   2.0000      -0.986327       -26.8393
  26   2.0000      -0.916792       -24.9472
  27   2.0000      -0.912184       -24.8218
  28   2.0000      -0.868976       -23.6460
  29   2.0000      -0.854205       -23.2441
  30   2.0000      -0.846660       -23.0388
  31   2.0000      -0.816931       -22.2298
  32   2.0000      -0.782268       -21.2866
  33   2.0000      -0.767306       -20.8794
  34   2.0000      -0.710218       -19.3260
  35   2.0000      -0.700158       -19.0523
  36   2.0000      -0.685003       -18.6399
  37   2.0000      -0.647082       -17.6080
  38   2.0000      -0.637115       -17.3368
  39   2.0000      -0.621173       -16.9030
  40   2.0000      -0.599984       -16.3264
  41   2.0000      -0.568765       -15.4769
  42   2.0000      -0.567899       -15.4533
  43   2.0000      -0.564707       -15.3665
  44   2.0000      -0.536552       -14.6003
  45   2.0000      -0.524733       -14.2787
  46   2.0000      -0.512649       -13.9499
  47   2.0000      -0.509120       -13.8538
  48   2.0000      -0.501929       -13.6582
  49   2.0000      -0.498377       -13.5615
  50   2.0000      -0.492917       -13.4129
  51   2.0000      -0.472638       -12.8611
  52   2.0000      -0.470171       -12.7940
  53   2.0000      -0.464513       -12.6400
  54   2.0000      -0.459832       -12.5127
  55   2.0000      -0.455281       -12.3888
  56   2.0000      -0.449093       -12.2204
  57   2.0000      -0.442930       -12.0527
  58   2.0000      -0.431017       -11.7286
  59   2.0000      -0.421285       -11.4637
  60   2.0000      -0.418322       -11.3831
  61   2.0000      -0.416241       -11.3265
  62   2.0000      -0.415129       -11.2962
  63   2.0000      -0.349174        -9.5015
  64   2.0000      -0.329468        -8.9653
  65   2.0000      -0.324544        -8.8313
  66   2.0000      -0.283574        -7.7165
  67   0.0000       0.028523         0.7761
  68   0.0000       0.073147         1.9904
  69   0.0000       0.115376         3.1396
  70   0.0000       0.120572         3.2809
  71   0.0000       0.135461         3.6861

MULLIKEN ATOMIC CHARGES
-----------------------
   0 S :    0.130930
   1 C :   -0.130137
   2 C :   -0.080004
   3 C :    0.010007
   4 C :   -0.164766
   5 H :    0.025927
   6 C :    0.046998
   7 H :    0.038826
   8 H :    0.035878
   9 C :   -0.123300
  10 H :    0.048146
  11 H :    0.054508
  12 C :   -0.030932
  13 H :    0.006376
  14 H :    0.035138
  15 H :    0.034466
  16 S :    0.099723
  17 C :   -0.071481
  18 C :   -0.068752
  19 C :   -0.038067
  20 C :   -0.150399
  21 H :    0.029613
  22 C :    0.070196
  23 H :    0.033144
  24 H :    0.028459
  25 C :   -0.074650
  26 H :    0.029524
  27 H :    0.019614
  28 C :   -0.061859
  29 H :    0.042902
  30 H :    0.033415
  31 H :    0.030864
  32 H :    0.048340
  33 H :    0.061354
Sum of atomic charges:   -0.0000000

LOEWDIN ATOMIC CHARGES
----------------------
   0 S :    0.435382
   1 C :   -0.225951
   2 C :   -0.064557
   3 C :   -0.060302
   4 C :   -0.194416
   5 H :    0.031814
   6 C :   -0.047006
   7 H :    0.037691
   8 H :    0.042113
   9 C :   -0.044602
  10 H :    0.028963
  11 H :    0.037194
  12 C :   -0.068324
  13 H :    0.018276
  14 H :    0.029174
  15 H :    0.023841
  16 S :    0.394614
  17 C :   -0.199630
  18 C :   -0.075912
  19 C :   -0.053374
  20 C :   -0.191894
  21 H :    0.036742
  22 C :   -0.038673
  23 H :    0.038530
  24 H :    0.034028
  25 C :   -0.047599
  26 H :    0.025434
  27 H :    0.018864
  28 C :   -0.065657
  29 H :    0.030686
  30 H :    0.029782
  31 H :    0.021858
  32 H :    0.025360
  33 H :    0.037553

  Mayer bond orders larger than 0.100000
B(  0-S ,  1-C ) :   1.1793 B(  0-S ,  4-C ) :   1.1708 B(  1-C ,  2-C ) :   1.5462
B(  1-C ,  4-C ) :   0.1061 B(  1-C , 32-H ) :   0.9698 B(  2-C ,  3-C ) :   1.2917
B(  2-C ,  6-C ) :   1.0274 B(  3-C ,  4-C ) :   1.5268 B(  3-C ,  5-H ) :   0.9810
B(  4-C , 20-C ) :   1.0474 B(  6-C ,  7-H ) :   0.9313 B(  6-C ,  8-H ) :   0.9352
B(  6-C ,  9-C ) :   1.0657 B(  9-C , 10-H ) :   0.9536 B(  9-C , 11-H ) :   0.9541
B(  9-C , 12-C ) :   1.0808 B( 12-C , 13-H ) :   0.9684 B( 12-C , 14-H ) :   0.9760
B( 12-C , 15-H ) :   0.9740 B( 16-S , 17-C ) :   1.1283 B( 16-S , 20-C ) :   1.1283
B( 17-C , 18-C ) :   1.6952 B( 17-C , 33-H ) :   0.9497 B( 18-C , 19-C ) :   1.1908
B( 18-C , 21-H ) :   0.9792 B( 19-C , 20-C ) :   1.6248 B( 19-C , 22-C ) :   1.0405
B( 22-C , 23-H ) :   0.9297 B( 22-C , 24-H ) :   0.9184 B( 22-C , 25-C ) :   1.0829
B( 25-C , 26-H ) :   0.9405 B( 25-C , 27-H ) :   0.9535 B( 25-C , 28-C ) :   1.0886
B( 28-C , 29-H ) :   0.9727 B( 28-C , 30-H ) :   0.9732 B( 28-C , 31-H ) :   0.9756

Dispersion correction           -0.013421301
FINAL SINGLE POINT ENERGY     -1339.872716685603

DIPOLE MOMENT
-------------
                                X             Y             Z
Electronic contribution:     26.65219       7.47444     -13.03725
Nuclear contribution   :    -27.32252      -7.53824      13.46135
                        -----------------------------------------
Total Dipole Moment    :     -0.67033      -0.06380       0.42410
                        -----------------------------------------
Magnitude (a.u.)       :      0.79579
Magnitude (Debye)      :      2.02273

Rotational constants in cm-1:     0.015742     0.008505     0.006444
Rotational constants in MHz :   471.936136   254.963659   193.175277

                             ****ORCA TERMINATED NORMALLY****
TOTAL RUN TIME: 0 days 0 hours 0 minutes 20 seconds 964 msec
