                         Program Version 4.2.1 -  RELEASE  -
|  1> ! wB97X-D3 SP def2-SVP
|  2> %pal
|  3> nprocs 24
|  4> end
|  5>
|  6> * xyz 0 1
|  7> S 	 -52.9163 	 20.2717 	 25.1086
|  8> C 	 -53.18 	 19.4958 	 23.6051
|  9> C 	 -52.0224 	 18.8854 	 23.141
| 10> C 	 -51.0022 	 18.7984 	 24.0897
| 11> C 	 -51.3989 	 19.3475 	 25.3021
| 12> H 	 -50.0879 	 18.3423 	 23.8872
| 13> C 	 -51.8359 	 18.2974 	 21.7835
| 14> H 	 -52.826 	 17.9958 	 21.5087
| 15> H 	 -51.193 	 17.4204 	 21.8365
| 16> C 	 -51.3934 	 19.1872 	 20.628
| 17> H 	 -50.4861 	 19.7626 	 20.8998
| 18> H 	 -51.1136 	 18.5654 	 19.8348
| 19> C 	 -52.4609 	 20.2155 	 20.0988
| 20> H 	 -53.3183 	 19.5388 	 19.8738
| 21> H 	 -52.8399 	 20.9979 	 20.7872
| 22> H 	 -52.1059 	 20.6299 	 19.1541
| 23> S 	 -50.1709 	 21.0204 	 27.0924
| 24> C 	 -49.2956 	 20.2798 	 28.4323
| 25> C 	 -49.2483 	 18.9337 	 28.3332
| 26> C 	 -50.0912 	 18.3842 	 27.2885
| 27> C 	 -50.7128 	 19.4428 	 26.5925
| 28> H 	 -48.6309 	 18.4599 	 29.0352
| 29> C 	 -49.9913 	 16.8793 	 27.0044
| 30> H 	 -49.0281 	 16.464 	 27.4097
| 31> H 	 -49.8663 	 17.0395 	 26.0179
| 32> C 	 -51.1816 	 16.0517 	 27.3913
| 33> H 	 -52.0439 	 16.555 	 26.9598
| 34> H 	 -51.2589 	 15.9221 	 28.4168
| 35> C 	 -51.0304 	 14.7477 	 26.6653
| 36> H 	 -51.9865 	 14.1965 	 26.6064
| 37> H 	 -50.3452 	 14.1874 	 27.2961
| 38> H 	 -50.6461 	 14.7143 	 25.6605
| 39> H 	 -53.9873 	 19.5822 	 22.9721
| 40> H 	 -48.74 	 20.9081 	 29.1775
| 41> *
| 42>
| 43>                          ****END OF INPUT****

CARTESIAN COORDINATES (ANGSTROEM)
---------------------------------
  S    -52.916300   20.271700   25.108600
  C    -53.180000   19.495800   23.605100
  C    -52.022400   18.885400   23.141000
  C    -51.002200   18.798400   24.089700
  C    -51.398900   19.347500   25.302100
  H    -50.087900   18.342300   23.887200
  C    -51.835900   18.297400   21.783500
  H    -52.826000   17.995800   21.508700
  H    -51.193000   17.420400   21.836500
  C    -51.393400   19.187200   20.628000
  H    -50.486100   19.762600   20.899800
  H    -51.113600   18.565400   19.834800
  C    -52.460900   20.215500   20.098800
  H    -53.318300   19.538800   19.873800
  H    -52.839900   20.997900   20.787200
  H    -52.105900   20.629900   19.154100
  S    -50.170900   21.020400   27.092400
  C    -49.295600   20.279800   28.432300
  C    -49.248300   18.933700   28.333200
  C    -50.091200   18.384200   27.288500
  C    -50.712800   19.442800   26.592500
  H    -48.630900   18.459900   29.035200
  C    -49.991300   16.879300   27.004400
  H    -49.028100   16.464000   27.409700
  H    -49.866300   17.039500   26.017900
  C    -51.181600   16.051700   27.391300
  H    -52.043900   16.555000   26.959800
  H    -51.258900   15.922100   28.416800
  C    -51.030400   14.747700   26.665300
  H    -51.986500   14.196500   26.606400
  H    -50.345200   14.187400   27.296100
  H    -50.646100   14.714300   25.660500
  H    -53.987300   19.582200   22.972100
  H    -48.740000   20.908100   29.177500

 Total Charge           Charge          ....    0
 Multiplicity           Mult            ....    1
 Number of Electrons    NEL             ....  134
 Basis Dimension        Dim             ....  322

ORBITAL ENERGIES
----------------

  NO   OCC          E(Eh)            E(eV)
   0   2.0000     -88.965953     -2420.8867
   1   2.0000     -88.963172     -2420.8110
   2   2.0000     -10.330766      -281.1144
   3   2.0000     -10.325172      -280.9622
   4   2.0000     -10.314726      -280.6780
   5   2.0000     -10.305534      -280.4278
   6   2.0000     -10.304238      -280.3926
   7   2.0000     -10.292171      -280.0642
   8   2.0000     -10.289367      -279.9879
   9   2.0000     -10.286012      -279.8966
  10   2.0000     -10.285748      -279.8894
  11   2.0000     -10.285237      -279.8755
  12   2.0000     -10.284595      -279.8581
  13   2.0000     -10.284460      -279.8544
  14   2.0000     -10.275106      -279.5998
  15   2.0000     -10.271053      -279.4896
  16   2.0000      -8.080807      -219.8899
  17   2.0000      -8.078072      -219.8155
  18   2.0000      -6.039157      -164.3338
  19   2.0000      -6.036580      -164.2637
  20   2.0000      -6.035473      -164.2336
  21   2.0000      -6.032722      -164.1587
  22   2.0000      -6.031558      -164.1270
  23   2.0000      -6.028666      -164.0483
  24   2.0000      -1.006434       -27.3865
  25   2.0000      -0.984447       -26.7882
  26   2.0000      -0.920070       -25.0364
  27   2.0000      -0.912190       -24.8219
  28   2.0000      -0.866990       -23.5920
  29   2.0000      -0.855612       -23.2824
  30   2.0000      -0.849635       -23.1198
  31   2.0000      -0.815212       -22.1830
  32   2.0000      -0.782886       -21.3034
  33   2.0000      -0.769096       -20.9282
  34   2.0000      -0.711769       -19.3682
  35   2.0000      -0.700727       -19.0677
  36   2.0000      -0.695158       -18.9162
  37   2.0000      -0.658958       -17.9312
  38   2.0000      -0.643218       -17.5029
  39   2.0000      -0.625822       -17.0295
  40   2.0000      -0.590102       -16.0575
  41   2.0000      -0.581730       -15.8297
  42   2.0000      -0.566457       -15.4141
  43   2.0000      -0.549374       -14.9492
  44   2.0000      -0.545233       -14.8365
  45   2.0000      -0.529557       -14.4100
  46   2.0000      -0.518772       -14.1165
  47   2.0000      -0.505933       -13.7671
  48   2.0000      -0.503026       -13.6880
  49   2.0000      -0.496065       -13.4986
  50   2.0000      -0.492151       -13.3921
  51   2.0000      -0.491328       -13.3697
  52   2.0000      -0.470442       -12.8014
  53   2.0000      -0.469376       -12.7724
  54   2.0000      -0.456036       -12.4094
  55   2.0000      -0.450551       -12.2601
  56   2.0000      -0.444268       -12.0891
  57   2.0000      -0.439853       -11.9690
  58   2.0000      -0.438551       -11.9336
  59   2.0000      -0.425582       -11.5807
  60   2.0000      -0.418837       -11.3971
  61   2.0000      -0.412619       -11.2279
  62   2.0000      -0.402809       -10.9610
  63   2.0000      -0.345252        -9.3948
  64   2.0000      -0.331498        -9.0205
  65   2.0000      -0.324370        -8.8265
  66   2.0000      -0.288513        -7.8508
  67   0.0000       0.030538         0.8310
  68   0.0000       0.061829         1.6825
  69   0.0000       0.103342         2.8121
  70   0.0000       0.121109         3.2955
  71   0.0000       0.128323         3.4918

MULLIKEN ATOMIC CHARGES
-----------------------
   0 S :    0.114314
   1 C :   -0.057166
   2 C :   -0.116108
   3 C :    0.070963
   4 C :   -0.188605
   5 H :   -0.004395
   6 C :    0.073320
   7 H :    0.001974
   8 H :    0.022015
   9 C :   -0.041711
  10 H :    0.025752
  11 H :    0.020062
  12 C :   -0.082444
  13 H :    0.020141
  14 H :    0.055737
  15 H :    0.040820
  16 S :    0.101972
  17 C :   -0.114342
  18 C :   -0.021091
  19 C :   -0.051952
  20 C :   -0.134999
  21 H :   -0.001878
  22 C :    0.104427
  23 H :    0.026808
  24 H :   -0.019715
  25 C :   -0.004425
  26 H :    0.033761
  27 H :    0.021424
  28 C :   -0.044724
  29 H :    0.032633
  30 H :    0.016318
  31 H :    0.026737
  32 H :    0.004827
  33 H :    0.069551
Sum of atomic charges:   -0.0000000

LOEWDIN ATOMIC CHARGES
----------------------
   0 S :    0.411213
   1 C :   -0.197562
   2 C :   -0.063204
   3 C :   -0.052023
   4 C :   -0.176990
   5 H :    0.023101
   6 C :   -0.032746
   7 H :    0.026318
   8 H :    0.030285
   9 C :   -0.033965
  10 H :    0.022909
  11 H :    0.018652
  12 C :   -0.070407
  13 H :    0.023563
  14 H :    0.029278
  15 H :    0.027778
  16 S :    0.396637
  17 C :   -0.185181
  18 C :   -0.070586
  19 C :   -0.040963
  20 C :   -0.216531
  21 H :    0.023699
  22 C :   -0.021482
  23 H :    0.035361
  24 H :    0.015085
  25 C :   -0.027048
  26 H :    0.030184
  27 H :    0.019316
  28 C :   -0.063447
  29 H :    0.026840
  30 H :    0.023063
  31 H :    0.022484
  32 H :    0.009694
  33 H :    0.036675

  Mayer bond orders larger than 0.100000
B(  0-S ,  1-C ) :   1.1438 B(  0-S ,  4-C ) :   1.1607 B(  1-C ,  2-C ) :   1.5941
B(  1-C ,  4-C ) :   0.1092 B(  1-C , 32-H ) :   0.9714 B(  2-C ,  3-C ) :   1.2631
B(  2-C ,  6-C ) :   1.0308 B(  3-C ,  4-C ) :   1.5383 B(  3-C ,  5-H ) :   1.0067
B(  4-C , 20-C ) :   1.0151 B(  6-C ,  7-H ) :   0.9317 B(  6-C ,  8-H ) :   0.9396
B(  6-C ,  9-C ) :   1.0766 B(  9-C , 10-H ) :   0.9529 B(  9-C , 11-H ) :   0.9536
B(  9-C , 12-C ) :   1.0706 B( 12-C , 13-H ) :   0.9749 B( 12-C , 14-H ) :   0.9765
B( 12-C , 15-H ) :   0.9747 B( 16-S , 17-C ) :   1.1349 B( 16-S , 20-C ) :   1.1521
B( 17-C , 18-C ) :   1.6444 B( 17-C , 33-H ) :   0.9604 B( 18-C , 19-C ) :   1.2108
B( 18-C , 21-H ) :   0.9993 B( 19-C , 20-C ) :   1.6057 B( 19-C , 22-C ) :   0.9880
B( 22-C , 23-H ) :   0.9377 B( 22-C , 24-H ) :   0.9238 B( 22-C , 25-C ) :   1.0823
B( 25-C , 26-H ) :   0.9537 B( 25-C , 27-H ) :   0.9552 B( 25-C , 28-C ) :   1.0793
B( 28-C , 29-H ) :   0.9738 B( 28-C , 30-H ) :   0.9735 B( 28-C , 31-H ) :   0.9771

Dispersion correction           -0.014183004
FINAL SINGLE POINT ENERGY     -1339.844482839820

DIPOLE MOMENT
-------------
                                X             Y             Z
Electronic contribution:     -0.49754      19.00663      15.78334
Nuclear contribution   :      0.87646     -19.52834     -16.11791
                        -----------------------------------------
Total Dipole Moment    :      0.37892      -0.52171      -0.33457
                        -----------------------------------------
Magnitude (a.u.)       :      0.72642
Magnitude (Debye)      :      1.84642

Rotational constants in cm-1:     0.018979     0.008526     0.006788
Rotational constants in MHz :   568.977534   255.595463   203.492449

                             ****ORCA TERMINATED NORMALLY****
TOTAL RUN TIME: 0 days 0 hours 0 minutes 21 seconds 658 msec
