                         Program Version 4.2.1 -  RELEASE  -
|  1> ! wB97X-D3 SP def2-SVP
|  2> %pal
|  3> nprocs 24
|  4> end
|  5>
|  6> * xyz 0 1
|  7> S 	 -106.865 	 66.1516 	 -9.28424
|  8> C 	 -106.131 	 67.5402 	 -10.0445
|  9> C 	 -104.813 	 67.2411 	 -10.3611
| 10> C 	 -104.31 	 66.0758 	 -9.73711
| 11> C 	 -105.313 	 65.2573 	 -9.12585
| 12> H 	 -103.219 	 65.7846 	 -9.7053
| 13> C 	 -103.912 	 68.1864 	 -11.1344
| 14> H 	 -102.908 	 68.1248 	 -10.7259
| 15> H 	 -104.262 	 69.2162 	 -11.0041
| 16> C 	 -104.021 	 67.8215 	 -12.5757
| 17> H 	 -103.906 	 66.7365 	 -12.6453
| 18> H 	 -105.044 	 68.082 	 -12.9556
| 19> C 	 -103.021 	 68.5283 	 -13.5002
| 20> H 	 -103.363 	 68.7397 	 -14.4915
| 21> H 	 -102.688 	 69.4179 	 -13.0708
| 22> H 	 -102.153 	 67.8656 	 -13.4397
| 23> S 	 -105.752 	 62.4624 	 -9.31091
| 24> C 	 -105.198 	 61.432 	 -8.085
| 25> C 	 -104.551 	 62.166 	 -7.12848
| 26> C 	 -104.3 	 63.5673 	 -7.45744
| 27> C 	 -105.105 	 63.9071 	 -8.52947
| 28> H 	 -104.131 	 61.7194 	 -6.2603
| 29> C 	 -103.308 	 64.4838 	 -6.71333
| 30> H 	 -103.547 	 65.5022 	 -7.19986
| 31> H 	 -102.284 	 64.1471 	 -7.02157
| 32> C 	 -103.407 	 64.6441 	 -5.18543
| 33> H 	 -102.675 	 65.3396 	 -4.83307
| 34> H 	 -103.202 	 63.6336 	 -4.84484
| 35> C 	 -104.75 	 65.0706 	 -4.71822
| 36> H 	 -105.567 	 64.3795 	 -4.89249
| 37> H 	 -104.99 	 66.0696 	 -5.05806
| 38> H 	 -104.752 	 65.1078 	 -3.64479
| 39> H 	 -106.576 	 68.4776 	 -10.317
| 40> H 	 -105.537 	 60.3955 	 -8.13846
| 41> *
| 42>
| 43>                          ****END OF INPUT****

CARTESIAN COORDINATES (ANGSTROEM)
---------------------------------
  S    -106.865000   66.151600   -9.284240
  C    -106.131000   67.540200  -10.044500
  C    -104.813000   67.241100  -10.361100
  C    -104.310000   66.075800   -9.737110
  C    -105.313000   65.257300   -9.125850
  H    -103.219000   65.784600   -9.705300
  C    -103.912000   68.186400  -11.134400
  H    -102.908000   68.124800  -10.725900
  H    -104.262000   69.216200  -11.004100
  C    -104.021000   67.821500  -12.575700
  H    -103.906000   66.736500  -12.645300
  H    -105.044000   68.082000  -12.955600
  C    -103.021000   68.528300  -13.500200
  H    -103.363000   68.739700  -14.491500
  H    -102.688000   69.417900  -13.070800
  H    -102.153000   67.865600  -13.439700
  S    -105.752000   62.462400   -9.310910
  C    -105.198000   61.432000   -8.085000
  C    -104.551000   62.166000   -7.128480
  C    -104.300000   63.567300   -7.457440
  C    -105.105000   63.907100   -8.529470
  H    -104.131000   61.719400   -6.260300
  C    -103.308000   64.483800   -6.713330
  H    -103.547000   65.502200   -7.199860
  H    -102.284000   64.147100   -7.021570
  C    -103.407000   64.644100   -5.185430
  H    -102.675000   65.339600   -4.833070
  H    -103.202000   63.633600   -4.844840
  C    -104.750000   65.070600   -4.718220
  H    -105.567000   64.379500   -4.892490
  H    -104.990000   66.069600   -5.058060
  H    -104.752000   65.107800   -3.644790
  H    -106.576000   68.477600  -10.317000
  H    -105.537000   60.395500   -8.138460

 Total Charge           Charge          ....    0
 Multiplicity           Mult            ....    1
 Number of Electrons    NEL             ....  134
 Basis Dimension        Dim             ....  322

ORBITAL ENERGIES
----------------

  NO   OCC          E(Eh)            E(eV)
   0   2.0000     -88.968881     -2420.9663
   1   2.0000     -88.960144     -2420.7286
   2   2.0000     -10.338900      -281.3358
   3   2.0000     -10.329477      -281.0793
   4   2.0000     -10.315305      -280.6937
   5   2.0000     -10.315196      -280.6908
   6   2.0000     -10.307857      -280.4910
   7   2.0000     -10.302961      -280.3578
   8   2.0000     -10.301164      -280.3089
   9   2.0000     -10.298260      -280.2299
  10   2.0000     -10.292373      -280.0697
  11   2.0000     -10.288800      -279.9725
  12   2.0000     -10.283074      -279.8167
  13   2.0000     -10.283047      -279.8159
  14   2.0000     -10.268581      -279.4223
  15   2.0000     -10.267055      -279.3808
  16   2.0000      -8.082339      -219.9316
  17   2.0000      -8.076237      -219.7656
  18   2.0000      -6.040932      -164.3821
  19   2.0000      -6.036861      -164.2713
  20   2.0000      -6.034735      -164.2135
  21   2.0000      -6.033216      -164.1722
  22   2.0000      -6.030525      -164.0989
  23   2.0000      -6.026937      -164.0013
  24   2.0000      -1.002922       -27.2909
  25   2.0000      -0.984005       -26.7761
  26   2.0000      -0.916545       -24.9404
  27   2.0000      -0.911449       -24.8018
  28   2.0000      -0.867675       -23.6106
  29   2.0000      -0.849832       -23.1251
  30   2.0000      -0.843522       -22.9534
  31   2.0000      -0.810345       -22.0506
  32   2.0000      -0.784242       -21.3403
  33   2.0000      -0.772887       -21.0313
  34   2.0000      -0.704375       -19.1670
  35   2.0000      -0.695874       -18.9357
  36   2.0000      -0.693996       -18.8846
  37   2.0000      -0.654218       -17.8022
  38   2.0000      -0.636092       -17.3089
  39   2.0000      -0.615257       -16.7420
  40   2.0000      -0.598036       -16.2734
  41   2.0000      -0.570532       -15.5250
  42   2.0000      -0.563169       -15.3246
  43   2.0000      -0.558868       -15.2076
  44   2.0000      -0.549216       -14.9449
  45   2.0000      -0.525566       -14.3014
  46   2.0000      -0.519622       -14.1396
  47   2.0000      -0.513225       -13.9656
  48   2.0000      -0.505569       -13.7572
  49   2.0000      -0.500351       -13.6152
  50   2.0000      -0.494374       -13.4526
  51   2.0000      -0.479063       -13.0360
  52   2.0000      -0.469488       -12.7754
  53   2.0000      -0.461600       -12.5608
  54   2.0000      -0.457867       -12.4592
  55   2.0000      -0.446233       -12.1426
  56   2.0000      -0.441395       -12.0110
  57   2.0000      -0.435338       -11.8461
  58   2.0000      -0.435031       -11.8378
  59   2.0000      -0.421906       -11.4806
  60   2.0000      -0.420323       -11.4376
  61   2.0000      -0.407757       -11.0956
  62   2.0000      -0.405473       -11.0335
  63   2.0000      -0.339072        -9.2266
  64   2.0000      -0.330263        -8.9869
  65   2.0000      -0.325163        -8.8481
  66   2.0000      -0.296936        -8.0801
  67   0.0000       0.034986         0.9520
  68   0.0000       0.060934         1.6581
  69   0.0000       0.114035         3.1031
  70   0.0000       0.125607         3.4179
  71   0.0000       0.128875         3.5069

MULLIKEN ATOMIC CHARGES
-----------------------
   0 S :    0.118951
   1 C :   -0.100993
   2 C :   -0.121046
   3 C :    0.023527
   4 C :   -0.176030
   5 H :    0.041327
   6 C :    0.077645
   7 H :    0.022505
   8 H :    0.018956
   9 C :   -0.120465
  10 H :    0.035237
  11 H :    0.028400
  12 C :    0.022658
  13 H :    0.036146
  14 H :    0.004267
  15 H :    0.024052
  16 S :    0.105803
  17 C :   -0.098747
  18 C :   -0.012439
  19 C :   -0.055739
  20 C :   -0.172351
  21 H :    0.004810
  22 C :    0.013943
  23 H :    0.040715
  24 H :    0.052109
  25 C :   -0.034972
  26 H :    0.032334
  27 H :    0.019550
  28 C :   -0.031634
  29 H :    0.035657
  30 H :    0.030075
  31 H :    0.017529
  32 H :    0.044082
  33 H :    0.074137
Sum of atomic charges:   -0.0000000

LOEWDIN ATOMIC CHARGES
----------------------
   0 S :    0.401528
   1 C :   -0.197679
   2 C :   -0.065935
   3 C :   -0.066671
   4 C :   -0.190380
   5 H :    0.041222
   6 C :   -0.030066
   7 H :    0.026390
   8 H :    0.028435
   9 C :   -0.043682
  10 H :    0.024058
  11 H :    0.026110
  12 C :   -0.059355
  13 H :    0.024695
  14 H :    0.014480
  15 H :    0.029774
  16 S :    0.416626
  17 C :   -0.200174
  18 C :   -0.074571
  19 C :   -0.050039
  20 C :   -0.201585
  21 H :    0.021216
  22 C :   -0.039411
  23 H :    0.038009
  24 H :    0.037812
  25 C :   -0.039035
  26 H :    0.027105
  27 H :    0.021443
  28 C :   -0.063164
  29 H :    0.028187
  30 H :    0.025944
  31 H :    0.024687
  32 H :    0.029655
  33 H :    0.034371

  Mayer bond orders larger than 0.100000
B(  0-S ,  1-C ) :   1.1486 B(  0-S ,  4-C ) :   1.1574 B(  1-C ,  2-C ) :   1.5813
B(  1-C ,  4-C ) :   0.1122 B(  1-C , 32-H ) :   0.9691 B(  2-C ,  3-C ) :   1.2831
B(  2-C ,  6-C ) :   1.0252 B(  3-C ,  4-C ) :   1.5277 B(  3-C ,  5-H ) :   0.9795
B(  4-C , 20-C ) :   1.0344 B(  6-C ,  7-H ) :   0.9474 B(  6-C ,  8-H ) :   0.9346
B(  6-C ,  9-C ) :   1.0597 B(  9-C , 10-H ) :   0.9662 B(  9-C , 11-H ) :   0.9563
B(  9-C , 12-C ) :   1.0670 B( 12-C , 13-H ) :   0.9772 B( 12-C , 14-H ) :   0.9707
B( 12-C , 15-H ) :   0.9758 B( 16-S , 17-C ) :   1.1645 B( 16-S , 20-C ) :   1.1511
B( 17-C , 18-C ) :   1.5953 B( 17-C , 33-H ) :   0.9689 B( 18-C , 19-C ) :   1.2250
B( 18-C , 21-H ) :   0.9951 B( 19-C , 20-C ) :   1.6055 B( 19-C , 22-C ) :   1.0219
B( 22-C , 23-H ) :   0.9307 B( 22-C , 24-H ) :   0.9377 B( 22-C , 25-C ) :   1.0729
B( 25-C , 26-H ) :   0.9518 B( 25-C , 27-H ) :   0.9496 B( 25-C , 28-C ) :   1.0988
B( 28-C , 29-H ) :   0.9683 B( 28-C , 30-H ) :   0.9729 B( 28-C , 31-H ) :   0.9680

Dispersion correction           -0.014247003
FINAL SINGLE POINT ENERGY     -1339.870008262082

DIPOLE MOMENT
-------------
                                X             Y             Z
Electronic contribution:    -15.53818     -14.29720      -1.28944
Nuclear contribution   :     16.07860      14.55780       1.44870
                        -----------------------------------------
Total Dipole Moment    :      0.54041       0.26060       0.15925
                        -----------------------------------------
Magnitude (a.u.)       :      0.62074
Magnitude (Debye)      :      1.57780

Rotational constants in cm-1:     0.020206     0.007465     0.006792
Rotational constants in MHz :   605.751133   223.801797   203.626599

                             ****ORCA TERMINATED NORMALLY****
TOTAL RUN TIME: 0 days 0 hours 0 minutes 21 seconds 248 msec
