                         Program Version 4.2.1 -  RELEASE  -
|  1> ! wB97X-D3 SP def2-SVP
|  2> %pal
|  3> nprocs 24
|  4> end
|  5>
|  6> * xyz 0 1
|  7> S 	 34.8348 	 -29.3738 	 -117.168
|  8> C 	 35.5102 	 -28.6673 	 -115.702
|  9> C 	 36.7364 	 -29.1396 	 -115.412
| 10> C 	 37.1624 	 -30.15 	 -116.343
| 11> C 	 36.2259 	 -30.3952 	 -117.331
| 12> H 	 38.0404 	 -30.7398 	 -116.308
| 13> C 	 37.6533 	 -28.657 	 -114.223
| 14> H 	 36.9434 	 -28.1166 	 -113.598
| 15> H 	 38.5071 	 -27.9897 	 -114.611
| 16> C 	 38.3106 	 -29.7755 	 -113.317
| 17> H 	 39.1982 	 -30.0639 	 -113.826
| 18> H 	 38.5434 	 -29.2001 	 -112.412
| 19> C 	 37.3031 	 -30.871 	 -112.943
| 20> H 	 38.0307 	 -31.6242 	 -112.476
| 21> H 	 36.6144 	 -30.5017 	 -112.23
| 22> H 	 36.7719 	 -31.3665 	 -113.827
| 23> S 	 35.838 	 -31.0135 	 -120.019
| 24> C 	 36.1499 	 -32.6314 	 -120.548
| 25> C 	 36.5128 	 -33.4826 	 -119.501
| 26> C 	 36.6792 	 -32.7716 	 -118.255
| 27> C 	 36.2888 	 -31.4001 	 -118.361
| 28> H 	 36.652 	 -34.4915 	 -119.691
| 29> C 	 37.0305 	 -33.5509 	 -116.952
| 30> H 	 37.8403 	 -33.0351 	 -116.466
| 31> H 	 37.4747 	 -34.4584 	 -117.352
| 32> C 	 35.9006 	 -33.9252 	 -115.977
| 33> H 	 35.1625 	 -34.3841 	 -116.593
| 34> H 	 35.5109 	 -33.0613 	 -115.492
| 35> C 	 36.425 	 -34.9911 	 -114.98
| 36> H 	 36.5149 	 -35.9138 	 -115.581
| 37> H 	 35.7063 	 -35.1784 	 -114.256
| 38> H 	 37.4087 	 -34.7432 	 -114.577
| 39> H 	 35.0942 	 -27.7586 	 -115.299
| 40> H 	 35.727 	 -33.0347 	 -121.424
| 41> *
| 42>
| 43>                          ****END OF INPUT****

CARTESIAN COORDINATES (ANGSTROEM)
---------------------------------
  S     34.834800  -29.373800  -117.168000
  C     35.510200  -28.667300  -115.702000
  C     36.736400  -29.139600  -115.412000
  C     37.162400  -30.150000  -116.343000
  C     36.225900  -30.395200  -117.331000
  H     38.040400  -30.739800  -116.308000
  C     37.653300  -28.657000  -114.223000
  H     36.943400  -28.116600  -113.598000
  H     38.507100  -27.989700  -114.611000
  C     38.310600  -29.775500  -113.317000
  H     39.198200  -30.063900  -113.826000
  H     38.543400  -29.200100  -112.412000
  C     37.303100  -30.871000  -112.943000
  H     38.030700  -31.624200  -112.476000
  H     36.614400  -30.501700  -112.230000
  H     36.771900  -31.366500  -113.827000
  S     35.838000  -31.013500  -120.019000
  C     36.149900  -32.631400  -120.548000
  C     36.512800  -33.482600  -119.501000
  C     36.679200  -32.771600  -118.255000
  C     36.288800  -31.400100  -118.361000
  H     36.652000  -34.491500  -119.691000
  C     37.030500  -33.550900  -116.952000
  H     37.840300  -33.035100  -116.466000
  H     37.474700  -34.458400  -117.352000
  C     35.900600  -33.925200  -115.977000
  H     35.162500  -34.384100  -116.593000
  H     35.510900  -33.061300  -115.492000
  C     36.425000  -34.991100  -114.980000
  H     36.514900  -35.913800  -115.581000
  H     35.706300  -35.178400  -114.256000
  H     37.408700  -34.743200  -114.577000
  H     35.094200  -27.758600  -115.299000
  H     35.727000  -33.034700  -121.424000

 Total Charge           Charge          ....    0
 Multiplicity           Mult            ....    1
 Number of Electrons    NEL             ....  134
 Basis Dimension        Dim             ....  322

ORBITAL ENERGIES
----------------

  NO   OCC          E(Eh)            E(eV)
   0   2.0000     -88.968042     -2420.9435
   1   2.0000     -88.963803     -2420.8282
   2   2.0000     -10.329283      -281.0741
   3   2.0000     -10.327053      -281.0134
   4   2.0000     -10.312582      -280.6196
   5   2.0000     -10.310051      -280.5507
   6   2.0000     -10.309564      -280.5375
   7   2.0000     -10.301639      -280.3219
   8   2.0000     -10.301586      -280.3204
   9   2.0000     -10.293670      -280.1050
  10   2.0000     -10.291267      -280.0396
  11   2.0000     -10.290453      -280.0175
  12   2.0000     -10.290232      -280.0115
  13   2.0000     -10.286337      -279.9055
  14   2.0000     -10.280962      -279.7592
  15   2.0000     -10.275351      -279.6065
  16   2.0000      -8.082745      -219.9427
  17   2.0000      -8.079041      -219.8419
  18   2.0000      -6.041216      -164.3898
  19   2.0000      -6.037542      -164.2899
  20   2.0000      -6.037120      -164.2784
  21   2.0000      -6.033708      -164.1855
  22   2.0000      -6.033550      -164.1812
  23   2.0000      -6.029701      -164.0765
  24   2.0000      -1.006044       -27.3759
  25   2.0000      -0.981411       -26.7055
  26   2.0000      -0.907503       -24.6944
  27   2.0000      -0.904960       -24.6252
  28   2.0000      -0.871275       -23.7086
  29   2.0000      -0.851435       -23.1687
  30   2.0000      -0.841754       -22.9053
  31   2.0000      -0.812795       -22.1173
  32   2.0000      -0.781648       -21.2697
  33   2.0000      -0.770522       -20.9670
  34   2.0000      -0.711238       -19.3538
  35   2.0000      -0.696652       -18.9569
  36   2.0000      -0.690602       -18.7922
  37   2.0000      -0.663552       -18.0562
  38   2.0000      -0.641128       -17.4460
  39   2.0000      -0.619982       -16.8706
  40   2.0000      -0.592225       -16.1153
  41   2.0000      -0.571485       -15.5509
  42   2.0000      -0.564790       -15.3687
  43   2.0000      -0.552687       -15.0394
  44   2.0000      -0.533999       -14.5308
  45   2.0000      -0.527398       -14.3512
  46   2.0000      -0.519562       -14.1380
  47   2.0000      -0.507133       -13.7998
  48   2.0000      -0.502904       -13.6847
  49   2.0000      -0.500367       -13.6157
  50   2.0000      -0.489833       -13.3290
  51   2.0000      -0.486570       -13.2402
  52   2.0000      -0.468975       -12.7615
  53   2.0000      -0.462705       -12.5908
  54   2.0000      -0.459221       -12.4960
  55   2.0000      -0.451425       -12.2839
  56   2.0000      -0.444709       -12.1012
  57   2.0000      -0.439848       -11.9689
  58   2.0000      -0.436147       -11.8682
  59   2.0000      -0.426648       -11.6097
  60   2.0000      -0.416393       -11.3306
  61   2.0000      -0.415110       -11.2957
  62   2.0000      -0.408092       -11.1047
  63   2.0000      -0.347087        -9.4447
  64   2.0000      -0.332813        -9.0563
  65   2.0000      -0.331954        -9.0329
  66   2.0000      -0.290150        -7.8954
  67   0.0000       0.023181         0.6308
  68   0.0000       0.076178         2.0729
  69   0.0000       0.113433         3.0867
  70   0.0000       0.118640         3.2284
  71   0.0000       0.125725         3.4211

MULLIKEN ATOMIC CHARGES
-----------------------
   0 S :    0.099943
   1 C :   -0.126388
   2 C :   -0.087872
   3 C :    0.030549
   4 C :   -0.142978
   5 H :   -0.006781
   6 C :    0.040768
   7 H :    0.012006
   8 H :    0.060588
   9 C :   -0.086141
  10 H :    0.032617
  11 H :    0.039935
  12 C :   -0.079235
  13 H :    0.044926
  14 H :    0.036520
  15 H :    0.067272
  16 S :    0.112374
  17 C :   -0.069875
  18 C :   -0.033743
  19 C :   -0.046236
  20 C :   -0.155177
  21 H :   -0.000546
  22 C :    0.059015
  23 H :    0.013686
  24 H :    0.004405
  25 C :   -0.032648
  26 H :    0.020200
  27 H :    0.038313
  28 C :   -0.027760
  29 H :    0.026260
  30 H :    0.025702
  31 H :    0.033510
  32 H :    0.046974
  33 H :    0.049816
Sum of atomic charges:   -0.0000000

LOEWDIN ATOMIC CHARGES
----------------------
   0 S :    0.399374
   1 C :   -0.194021
   2 C :   -0.064735
   3 C :   -0.061324
   4 C :   -0.192468
   5 H :    0.023070
   6 C :   -0.034087
   7 H :    0.022576
   8 H :    0.041364
   9 C :   -0.041822
  10 H :    0.016154
  11 H :    0.032695
  12 C :   -0.071001
  13 H :    0.037712
  14 H :    0.021284
  15 H :    0.036017
  16 S :    0.415634
  17 C :   -0.192080
  18 C :   -0.059778
  19 C :   -0.049188
  20 C :   -0.203332
  21 H :    0.020503
  22 C :   -0.028832
  23 H :    0.021260
  24 H :    0.026901
  25 C :   -0.026757
  26 H :    0.022713
  27 H :    0.019270
  28 C :   -0.054391
  29 H :    0.028727
  30 H :    0.016875
  31 H :    0.024549
  32 H :    0.025903
  33 H :    0.021234

  Mayer bond orders larger than 0.100000
B(  0-S ,  1-C ) :   1.1190 B(  0-S ,  4-C ) :   1.1515 B(  1-C ,  2-C ) :   1.6673
B(  1-C , 32-H ) :   0.9621 B(  2-C ,  3-C ) :   1.2032 B(  2-C ,  6-C ) :   1.0021
B(  3-C ,  4-C ) :   1.5853 B(  3-C ,  5-H ) :   1.0060 B(  4-C , 20-C ) :   1.0636
B(  6-C ,  7-H ) :   0.9437 B(  6-C ,  8-H ) :   0.9459 B(  6-C ,  9-C ) :   1.0611
B(  9-C , 10-H ) :   0.9598 B(  9-C , 11-H ) :   0.9573 B(  9-C , 12-C ) :   1.0735
B( 12-C , 13-H ) :   0.9741 B( 12-C , 14-H ) :   0.9754 B( 12-C , 15-H ) :   0.9667
B( 16-S , 17-C ) :   1.1662 B( 16-S , 20-C ) :   1.1524 B( 17-C , 18-C ) :   1.5959
B( 17-C , 20-C ) :   0.1034 B( 17-C , 33-H ) :   0.9630 B( 18-C , 19-C ) :   1.2665
B( 18-C , 21-H ) :   0.9967 B( 19-C , 20-C ) :   1.5448 B( 19-C , 22-C ) :   1.0336
B( 22-C , 23-H ) :   0.9301 B( 22-C , 24-H ) :   0.9343 B( 22-C , 25-C ) :   1.0648
B( 25-C , 26-H ) :   0.9541 B( 25-C , 27-H ) :   0.9546 B( 25-C , 28-C ) :   1.0780
B( 28-C , 29-H ) :   0.9756 B( 28-C , 30-H ) :   0.9744 B( 28-C , 31-H ) :   0.9771

Dispersion correction           -0.015441158
FINAL SINGLE POINT ENERGY     -1339.872959243404

DIPOLE MOMENT
-------------
                                X             Y             Z
Electronic contribution:    -10.11188      13.36394     -25.94729
Nuclear contribution   :     10.35824     -13.72173      26.47272
                        -----------------------------------------
Total Dipole Moment    :      0.24635      -0.35779       0.52543
                        -----------------------------------------
Magnitude (a.u.)       :      0.68175
Magnitude (Debye)      :      1.73287

Rotational constants in cm-1:     0.017442     0.010413     0.007350
Rotational constants in MHz :   522.911800   312.173335   220.352679

                             ****ORCA TERMINATED NORMALLY****
TOTAL RUN TIME: 0 days 0 hours 0 minutes 22 seconds 723 msec
