                         Program Version 4.2.1 -  RELEASE  -
|  1> ! wB97X-D3 SP def2-SVP
|  2> %pal
|  3> nprocs 24
|  4> end
|  5>
|  6> * xyz 0 1
|  7> S 	 -109.525 	 62.2957 	 -70.439
|  8> C 	 -108.999 	 63.7882 	 -69.7305
|  9> C 	 -109.876 	 64.8199 	 -70.0227
| 10> C 	 -111.088 	 64.3005 	 -70.5136
| 11> C 	 -111.087 	 62.9692 	 -70.8373
| 12> H 	 -112.009 	 64.8613 	 -70.6336
| 13> C 	 -109.61 	 66.3052 	 -69.8137
| 14> H 	 -108.983 	 66.5212 	 -68.992
| 15> H 	 -110.538 	 66.5535 	 -69.3312
| 16> C 	 -109.393 	 67.2467 	 -70.9923
| 17> H 	 -108.685 	 67.9619 	 -70.6754
| 18> H 	 -108.768 	 66.77 	 -71.7135
| 19> C 	 -110.673 	 67.6521 	 -71.6927
| 20> H 	 -110.457 	 68.4216 	 -72.4603
| 21> H 	 -111.09 	 66.7409 	 -72.1307
| 22> H 	 -111.427 	 68.0126 	 -70.9783
| 23> S 	 -111.869 	 60.2933 	 -70.7788
| 24> C 	 -113.555 	 59.9012 	 -71.1267
| 25> C 	 -114.07 	 60.9983 	 -71.83
| 26> C 	 -113.286 	 62.185 	 -71.8113
| 27> C 	 -112.138 	 62.0709 	 -71.1019
| 28> H 	 -115.043 	 60.8715 	 -72.2469
| 29> C 	 -113.84 	 63.5292 	 -72.4243
| 30> H 	 -114.009 	 64.3154 	 -71.7443
| 31> H 	 -114.792 	 63.3494 	 -72.8672
| 32> C 	 -112.962 	 64.2275 	 -73.5521
| 33> H 	 -111.892 	 64.2788 	 -73.2445
| 34> H 	 -113.335 	 65.2113 	 -73.6443
| 35> C 	 -113.159 	 63.5902 	 -74.9057
| 36> H 	 -112.291 	 62.8561 	 -75.0443
| 37> H 	 -112.93 	 64.2275 	 -75.7248
| 38> H 	 -114.152 	 63.0956 	 -75.0688
| 39> H 	 -107.946 	 64.0948 	 -69.481
| 40> H 	 -113.927 	 58.8353 	 -71.1464
| 41> *
| 42>
| 43>                          ****END OF INPUT****

CARTESIAN COORDINATES (ANGSTROEM)
---------------------------------
  S    -109.525000   62.295700  -70.439000
  C    -108.999000   63.788200  -69.730500
  C    -109.876000   64.819900  -70.022700
  C    -111.088000   64.300500  -70.513600
  C    -111.087000   62.969200  -70.837300
  H    -112.009000   64.861300  -70.633600
  C    -109.610000   66.305200  -69.813700
  H    -108.983000   66.521200  -68.992000
  H    -110.538000   66.553500  -69.331200
  C    -109.393000   67.246700  -70.992300
  H    -108.685000   67.961900  -70.675400
  H    -108.768000   66.770000  -71.713500
  C    -110.673000   67.652100  -71.692700
  H    -110.457000   68.421600  -72.460300
  H    -111.090000   66.740900  -72.130700
  H    -111.427000   68.012600  -70.978300
  S    -111.869000   60.293300  -70.778800
  C    -113.555000   59.901200  -71.126700
  C    -114.070000   60.998300  -71.830000
  C    -113.286000   62.185000  -71.811300
  C    -112.138000   62.070900  -71.101900
  H    -115.043000   60.871500  -72.246900
  C    -113.840000   63.529200  -72.424300
  H    -114.009000   64.315400  -71.744300
  H    -114.792000   63.349400  -72.867200
  C    -112.962000   64.227500  -73.552100
  H    -111.892000   64.278800  -73.244500
  H    -113.335000   65.211300  -73.644300
  C    -113.159000   63.590200  -74.905700
  H    -112.291000   62.856100  -75.044300
  H    -112.930000   64.227500  -75.724800
  H    -114.152000   63.095600  -75.068800
  H    -107.946000   64.094800  -69.481000
  H    -113.927000   58.835300  -71.146400

 Total Charge           Charge          ....    0
 Multiplicity           Mult            ....    1
 Number of Electrons    NEL             ....  134
 Basis Dimension        Dim             ....  322

ORBITAL ENERGIES
----------------

  NO   OCC          E(Eh)            E(eV)
   0   2.0000     -88.965904     -2420.8853
   1   2.0000     -88.960054     -2420.7261
   2   2.0000     -10.328817      -281.0614
   3   2.0000     -10.326984      -281.0115
   4   2.0000     -10.326080      -280.9869
   5   2.0000     -10.315003      -280.6855
   6   2.0000     -10.306989      -280.4674
   7   2.0000     -10.301695      -280.3234
   8   2.0000     -10.296357      -280.1781
   9   2.0000     -10.294523      -280.1282
  10   2.0000     -10.293483      -280.0999
  11   2.0000     -10.286795      -279.9179
  12   2.0000     -10.285029      -279.8699
  13   2.0000     -10.284038      -279.8429
  14   2.0000     -10.281299      -279.7684
  15   2.0000     -10.277267      -279.6586
  16   2.0000      -8.081091      -219.8977
  17   2.0000      -8.073953      -219.7034
  18   2.0000      -6.039627      -164.3466
  19   2.0000      -6.035617      -164.2375
  20   2.0000      -6.032711      -164.1584
  21   2.0000      -6.031695      -164.1308
  22   2.0000      -6.028805      -164.0521
  23   2.0000      -6.024223      -163.9274
  24   2.0000      -1.013199       -27.5706
  25   2.0000      -0.983608       -26.7653
  26   2.0000      -0.919048       -25.0086
  27   2.0000      -0.902719       -24.5642
  28   2.0000      -0.876561       -23.8524
  29   2.0000      -0.854650       -23.2562
  30   2.0000      -0.841157       -22.8891
  31   2.0000      -0.815988       -22.2042
  32   2.0000      -0.785462       -21.3735
  33   2.0000      -0.777815       -21.1654
  34   2.0000      -0.715884       -19.4802
  35   2.0000      -0.709186       -19.2979
  36   2.0000      -0.689926       -18.7738
  37   2.0000      -0.665956       -18.1216
  38   2.0000      -0.637669       -17.3518
  39   2.0000      -0.621062       -16.9000
  40   2.0000      -0.595087       -16.1931
  41   2.0000      -0.569745       -15.5035
  42   2.0000      -0.556984       -15.1563
  43   2.0000      -0.553172       -15.0526
  44   2.0000      -0.544618       -14.8198
  45   2.0000      -0.535650       -14.5758
  46   2.0000      -0.522189       -14.2095
  47   2.0000      -0.511421       -13.9165
  48   2.0000      -0.504834       -13.7372
  49   2.0000      -0.497885       -13.5481
  50   2.0000      -0.493051       -13.4166
  51   2.0000      -0.480521       -13.0756
  52   2.0000      -0.477176       -12.9846
  53   2.0000      -0.464233       -12.6324
  54   2.0000      -0.460696       -12.5362
  55   2.0000      -0.448514       -12.2047
  56   2.0000      -0.443927       -12.0799
  57   2.0000      -0.439483       -11.9589
  58   2.0000      -0.430625       -11.7179
  59   2.0000      -0.425036       -11.5658
  60   2.0000      -0.415155       -11.2970
  61   2.0000      -0.409745       -11.1497
  62   2.0000      -0.403228       -10.9724
  63   2.0000      -0.366109        -9.9623
  64   2.0000      -0.334354        -9.0982
  65   2.0000      -0.324657        -8.8344
  66   2.0000      -0.282411        -7.6848
  67   0.0000       0.010346         0.2815
  68   0.0000       0.072341         1.9685
  69   0.0000       0.092909         2.5282
  70   0.0000       0.125009         3.4017
  71   0.0000       0.130418         3.5489

MULLIKEN ATOMIC CHARGES
-----------------------
   0 S :    0.096984
   1 C :   -0.111784
   2 C :   -0.109558
   3 C :   -0.007282
   4 C :   -0.127561
   5 H :    0.004601
   6 C :    0.061307
   7 H :    0.005559
   8 H :    0.010568
   9 C :   -0.006462
  10 H :    0.012191
  11 H :    0.012414
  12 C :   -0.051617
  13 H :    0.046902
  14 H :    0.034738
  15 H :    0.030080
  16 S :    0.064913
  17 C :   -0.106433
  18 C :   -0.037145
  19 C :   -0.000336
  20 C :   -0.106913
  21 H :    0.011976
  22 C :    0.063945
  23 H :    0.027300
  24 H :    0.003052
  25 C :   -0.095158
  26 H :    0.062557
  27 H :    0.019107
  28 C :   -0.062535
  29 H :    0.036368
  30 H :    0.022514
  31 H :    0.041954
  32 H :    0.064074
  33 H :    0.089680
Sum of atomic charges:    0.0000000

LOEWDIN ATOMIC CHARGES
----------------------
   0 S :    0.412672
   1 C :   -0.209810
   2 C :   -0.061982
   3 C :   -0.067319
   4 C :   -0.186930
   5 H :    0.028849
   6 C :   -0.034594
   7 H :    0.027316
   8 H :    0.032720
   9 C :   -0.041533
  10 H :    0.022268
  11 H :    0.024951
  12 C :   -0.062657
  13 H :    0.032691
  14 H :    0.028203
  15 H :    0.023768
  16 S :    0.354823
  17 C :   -0.185901
  18 C :   -0.068343
  19 C :   -0.057256
  20 C :   -0.164728
  21 H :    0.025399
  22 C :   -0.018178
  23 H :    0.022560
  24 H :    0.023292
  25 C :   -0.041750
  26 H :    0.030747
  27 H :    0.016271
  28 C :   -0.076894
  29 H :    0.036645
  30 H :    0.019353
  31 H :    0.029076
  32 H :    0.039807
  33 H :    0.046463

  Mayer bond orders larger than 0.100000
B(  0-S ,  1-C ) :   1.1453 B(  0-S ,  4-C ) :   1.1307 B(  1-C ,  2-C ) :   1.6178
B(  1-C , 32-H ) :   0.9532 B(  2-C ,  3-C ) :   1.2557 B(  2-C ,  6-C ) :   1.0108
B(  3-C ,  4-C ) :   1.5555 B(  3-C ,  5-H ) :   0.9867 B(  4-C , 20-C ) :   1.1202
B(  6-C ,  7-H ) :   0.9392 B(  6-C ,  8-H ) :   0.9357 B(  6-C ,  9-C ) :   1.0594
B(  9-C , 10-H ) :   0.9527 B(  9-C , 11-H ) :   0.9500 B(  9-C , 12-C ) :   1.0708
B( 12-C , 13-H ) :   0.9710 B( 12-C , 14-H ) :   0.9716 B( 12-C , 15-H ) :   0.9776
B( 16-S , 17-C ) :   1.1385 B( 16-S , 20-C ) :   1.1052 B( 17-C , 18-C ) :   1.6062
B( 17-C , 20-C ) :   0.1030 B( 17-C , 33-H ) :   0.9601 B( 18-C , 19-C ) :   1.2367
B( 18-C , 21-H ) :   0.9922 B( 19-C , 20-C ) :   1.6020 B( 19-C , 22-C ) :   1.0197
B( 22-C , 23-H ) :   0.9475 B( 22-C , 24-H ) :   0.9386 B( 22-C , 25-C ) :   1.0679
B( 25-C , 26-H ) :   0.9542 B( 25-C , 27-H ) :   0.9564 B( 25-C , 28-C ) :   1.0733
B( 28-C , 29-H ) :   0.9753 B( 28-C , 30-H ) :   0.9742 B( 28-C , 31-H ) :   0.9758

Dispersion correction           -0.015213870
FINAL SINGLE POINT ENERGY     -1339.843672458102

DIPOLE MOMENT
-------------
                                X             Y             Z
Electronic contribution:      5.64949     -26.08908      12.92234
Nuclear contribution   :     -5.88893      26.80317     -13.22762
                        -----------------------------------------
Total Dipole Moment    :     -0.23945       0.71409      -0.30528
                        -----------------------------------------
Magnitude (a.u.)       :      0.81269
Magnitude (Debye)      :      2.06568

Rotational constants in cm-1:     0.018934     0.010065     0.007198
Rotational constants in MHz :   567.615569   301.735492   215.796926

                             ****ORCA TERMINATED NORMALLY****
TOTAL RUN TIME: 0 days 0 hours 0 minutes 22 seconds 791 msec
