                         Program Version 4.2.1 -  RELEASE  -
|  1> ! wB97X-D3 SP def2-SVP
|  2> %pal
|  3> nprocs 24
|  4> end
|  5>
|  6> * xyz 0 1
|  7> S 	 25.4232 	 -24.1744 	 -122.841
|  8> C 	 26.7303 	 -24.7095 	 -123.877
|  9> C 	 27.0769 	 -26.0385 	 -123.729
| 10> C 	 26.4317 	 -26.5692 	 -122.572
| 11> C 	 25.4879 	 -25.7036 	 -121.951
| 12> H 	 26.4772 	 -27.6751 	 -122.31
| 13> C 	 28.0415 	 -26.8486 	 -124.559
| 14> H 	 27.9061 	 -27.9006 	 -124.359
| 15> H 	 29.0415 	 -26.7356 	 -124.242
| 16> C 	 27.9934 	 -26.688 	 -126.055
| 17> H 	 27.1392 	 -27.2023 	 -126.491
| 18> H 	 27.8026 	 -25.637 	 -126.341
| 19> C 	 29.3216 	 -27.0284 	 -126.712
| 20> H 	 29.5664 	 -28.1061 	 -126.597
| 21> H 	 29.2831 	 -26.9466 	 -127.826
| 22> H 	 30.1247 	 -26.4083 	 -126.268
| 23> S 	 25.0542 	 -25.6338 	 -119.302
| 24> C 	 23.4489 	 -26.015 	 -118.692
| 25> C 	 22.5866 	 -26.3653 	 -119.668
| 26> C 	 23.1919 	 -26.4354 	 -120.97
| 27> C 	 24.5264 	 -26.0955 	 -120.912
| 28> H 	 21.5451 	 -26.5377 	 -119.404
| 29> C 	 22.3692 	 -26.6495 	 -122.193
| 30> H 	 22.3741 	 -27.7314 	 -122.339
| 31> H 	 22.7565 	 -26.0986 	 -123.101
| 32> C 	 20.919 	 -26.0911 	 -122.18
| 33> H 	 20.3727 	 -26.4291 	 -121.26
| 34> H 	 20.4656 	 -26.4564 	 -123.167
| 35> C 	 20.883 	 -24.4945 	 -122.192
| 36> H 	 19.8933 	 -24.1744 	 -121.894
| 37> H 	 21.1607 	 -23.9797 	 -123.084
| 38> H 	 21.5834 	 -24.1325 	 -121.48
| 39> H 	 27.2042 	 -24.102 	 -124.638
| 40> H 	 23.0497 	 -26.0392 	 -117.715
| 41> *
| 42>
| 43>                          ****END OF INPUT****

CARTESIAN COORDINATES (ANGSTROEM)
---------------------------------
  S     25.423200  -24.174400  -122.841000
  C     26.730300  -24.709500  -123.877000
  C     27.076900  -26.038500  -123.729000
  C     26.431700  -26.569200  -122.572000
  C     25.487900  -25.703600  -121.951000
  H     26.477200  -27.675100  -122.310000
  C     28.041500  -26.848600  -124.559000
  H     27.906100  -27.900600  -124.359000
  H     29.041500  -26.735600  -124.242000
  C     27.993400  -26.688000  -126.055000
  H     27.139200  -27.202300  -126.491000
  H     27.802600  -25.637000  -126.341000
  C     29.321600  -27.028400  -126.712000
  H     29.566400  -28.106100  -126.597000
  H     29.283100  -26.946600  -127.826000
  H     30.124700  -26.408300  -126.268000
  S     25.054200  -25.633800  -119.302000
  C     23.448900  -26.015000  -118.692000
  C     22.586600  -26.365300  -119.668000
  C     23.191900  -26.435400  -120.970000
  C     24.526400  -26.095500  -120.912000
  H     21.545100  -26.537700  -119.404000
  C     22.369200  -26.649500  -122.193000
  H     22.374100  -27.731400  -122.339000
  H     22.756500  -26.098600  -123.101000
  C     20.919000  -26.091100  -122.180000
  H     20.372700  -26.429100  -121.260000
  H     20.465600  -26.456400  -123.167000
  C     20.883000  -24.494500  -122.192000
  H     19.893300  -24.174400  -121.894000
  H     21.160700  -23.979700  -123.084000
  H     21.583400  -24.132500  -121.480000
  H     27.204200  -24.102000  -124.638000
  H     23.049700  -26.039200  -117.715000

 Total Charge           Charge          ....    0
 Multiplicity           Mult            ....    1
 Number of Electrons    NEL             ....  134
 Basis Dimension        Dim             ....  322

ORBITAL ENERGIES
----------------

  NO   OCC          E(Eh)            E(eV)
   0   2.0000     -88.971092     -2421.0265
   1   2.0000     -88.963662     -2420.8243
   2   2.0000     -10.331343      -281.1301
   3   2.0000     -10.323024      -280.9038
   4   2.0000     -10.314067      -280.6600
   5   2.0000     -10.309700      -280.5412
   6   2.0000     -10.302513      -280.3456
   7   2.0000     -10.301394      -280.3152
   8   2.0000     -10.300797      -280.2989
   9   2.0000     -10.300329      -280.2862
  10   2.0000     -10.292646      -280.0771
  11   2.0000     -10.288823      -279.9731
  12   2.0000     -10.286775      -279.9174
  13   2.0000     -10.286113      -279.8994
  14   2.0000     -10.285614      -279.8858
  15   2.0000     -10.271908      -279.5128
  16   2.0000      -8.084826      -219.9993
  17   2.0000      -8.078194      -219.8188
  18   2.0000      -6.043301      -164.4466
  19   2.0000      -6.039529      -164.3439
  20   2.0000      -6.036854      -164.2712
  21   2.0000      -6.035634      -164.2380
  22   2.0000      -6.032759      -164.1597
  23   2.0000      -6.028770      -164.0512
  24   2.0000      -1.003183       -27.2980
  25   2.0000      -0.981853       -26.7176
  26   2.0000      -0.917619       -24.9697
  27   2.0000      -0.903922       -24.5970
  28   2.0000      -0.869191       -23.6519
  29   2.0000      -0.849136       -23.1062
  30   2.0000      -0.841123       -22.8881
  31   2.0000      -0.810545       -22.0560
  32   2.0000      -0.783879       -21.3304
  33   2.0000      -0.773219       -21.0403
  34   2.0000      -0.709566       -19.3083
  35   2.0000      -0.699753       -19.0413
  36   2.0000      -0.690771       -18.7968
  37   2.0000      -0.654447       -17.8084
  38   2.0000      -0.636043       -17.3076
  39   2.0000      -0.613339       -16.6898
  40   2.0000      -0.596871       -16.2417
  41   2.0000      -0.575739       -15.6667
  42   2.0000      -0.565095       -15.3770
  43   2.0000      -0.554646       -15.0927
  44   2.0000      -0.532036       -14.4774
  45   2.0000      -0.521134       -14.1808
  46   2.0000      -0.514451       -13.9989
  47   2.0000      -0.513031       -13.9603
  48   2.0000      -0.499119       -13.5817
  49   2.0000      -0.493399       -13.4261
  50   2.0000      -0.492628       -13.4051
  51   2.0000      -0.471326       -12.8254
  52   2.0000      -0.469959       -12.7882
  53   2.0000      -0.464333       -12.6351
  54   2.0000      -0.457956       -12.4616
  55   2.0000      -0.448319       -12.1994
  56   2.0000      -0.443106       -12.0575
  57   2.0000      -0.440770       -11.9940
  58   2.0000      -0.434077       -11.8118
  59   2.0000      -0.431149       -11.7322
  60   2.0000      -0.416671       -11.3382
  61   2.0000      -0.413761       -11.2590
  62   2.0000      -0.411551       -11.1989
  63   2.0000      -0.335476        -9.1288
  64   2.0000      -0.331612        -9.0236
  65   2.0000      -0.316551        -8.6138
  66   2.0000      -0.310116        -8.4387
  67   0.0000       0.044397         1.2081
  68   0.0000       0.051390         1.3984
  69   0.0000       0.105638         2.8745
  70   0.0000       0.117886         3.2079
  71   0.0000       0.132119         3.5951

MULLIKEN ATOMIC CHARGES
-----------------------
   0 S :    0.129620
   1 C :   -0.130682
   2 C :   -0.078707
   3 C :    0.013001
   4 C :   -0.165410
   5 H :    0.040054
   6 C :    0.115391
   7 H :    0.010418
   8 H :    0.019970
   9 C :   -0.083289
  10 H :    0.031192
  11 H :    0.022546
  12 C :   -0.085597
  13 H :    0.031046
  14 H :    0.040249
  15 H :    0.045655
  16 S :    0.112811
  17 C :   -0.047996
  18 C :   -0.068276
  19 C :   -0.009977
  20 C :   -0.197354
  21 H :    0.018857
  22 C :    0.060593
  23 H :    0.045419
  24 H :    0.040242
  25 C :   -0.127593
  26 H :    0.042095
  27 H :    0.050887
  28 C :   -0.036148
  29 H :    0.031334
  30 H :    0.028095
  31 H :    0.026836
  32 H :    0.045350
  33 H :    0.029369
Sum of atomic charges:   -0.0000000

LOEWDIN ATOMIC CHARGES
----------------------
   0 S :    0.406508
   1 C :   -0.193912
   2 C :   -0.065695
   3 C :   -0.060667
   4 C :   -0.207062
   5 H :    0.041884
   6 C :   -0.030967
   7 H :    0.032302
   8 H :    0.028707
   9 C :   -0.044711
  10 H :    0.025359
  11 H :    0.022523
  12 C :   -0.071307
  13 H :    0.024544
  14 H :    0.030943
  15 H :    0.029189
  16 S :    0.403312
  17 C :   -0.175045
  18 C :   -0.074806
  19 C :   -0.055115
  20 C :   -0.203158
  21 H :    0.032111
  22 C :   -0.041365
  23 H :    0.037463
  24 H :    0.038453
  25 C :   -0.041255
  26 H :    0.022417
  27 H :    0.035442
  28 C :   -0.064980
  29 H :    0.025618
  30 H :    0.021916
  31 H :    0.021876
  32 H :    0.024813
  33 H :    0.024662

  Mayer bond orders larger than 0.100000
B(  0-S ,  1-C ) :   1.1500 B(  0-S ,  4-C ) :   1.1415 B(  1-C ,  2-C ) :   1.6057
B(  1-C , 32-H ) :   0.9615 B(  2-C ,  3-C ) :   1.2739 B(  2-C ,  6-C ) :   1.0118
B(  3-C ,  4-C ) :   1.5723 B(  3-C ,  5-H ) :   0.9743 B(  4-C , 20-C ) :   1.0132
B(  6-C ,  7-H ) :   0.9325 B(  6-C ,  8-H ) :   0.9377 B(  6-C ,  9-C ) :   1.0500
B(  9-C , 10-H ) :   0.9541 B(  9-C , 11-H ) :   0.9606 B(  9-C , 12-C ) :   1.0816
B( 12-C , 13-H ) :   0.9743 B( 12-C , 14-H ) :   0.9727 B( 12-C , 15-H ) :   0.9743
B( 16-S , 17-C ) :   1.1358 B( 16-S , 20-C ) :   1.1386 B( 17-C , 18-C ) :   1.6721
B( 17-C , 33-H ) :   0.9618 B( 18-C , 19-C ) :   1.2032 B( 18-C , 21-H ) :   0.9843
B( 19-C , 20-C ) :   1.6312 B( 19-C , 22-C ) :   1.0370 B( 22-C , 23-H ) :   0.9244
B( 22-C , 24-H ) :   0.9406 B( 22-C , 25-C ) :   1.0700 B( 25-C , 26-H ) :   0.9525
B( 25-C , 27-H ) :   0.9574 B( 25-C , 28-C ) :   1.0614 B( 28-C , 29-H ) :   0.9777
B( 28-C , 30-H ) :   0.9758 B( 28-C , 31-H ) :   0.9776

Dispersion correction           -0.014350912
FINAL SINGLE POINT ENERGY     -1339.871802468394

DIPOLE MOMENT
-------------
                                X             Y             Z
Electronic contribution:      2.01035       6.82123      20.03896
Nuclear contribution   :     -2.20379      -7.12415     -20.46620
                        -----------------------------------------
Total Dipole Moment    :     -0.19345      -0.30292      -0.42724
                        -----------------------------------------
Magnitude (a.u.)       :      0.55831
Magnitude (Debye)      :      1.41912

Rotational constants in cm-1:     0.023888     0.007016     0.006269
Rotational constants in MHz :   716.154234   210.342464   187.933384

                             ****ORCA TERMINATED NORMALLY****
TOTAL RUN TIME: 0 days 0 hours 0 minutes 21 seconds 92 msec
