                         Program Version 4.2.1 -  RELEASE  -
|  1> ! wB97X-D3 SP def2-SVP
|  2> %pal
|  3> nprocs 24
|  4> end
|  5>
|  6> * xyz 0 1
|  7> S 	 -81.4046 	 -0.0487548 	 -116.152
|  8> C 	 -81.3956 	 -1.79907 	 -116.276
|  9> C 	 -82.3125 	 -2.21378 	 -117.2
| 10> C 	 -82.8774 	 -1.13736 	 -117.98
| 11> C 	 -82.4238 	 0.129352 	 -117.535
| 12> H 	 -83.5162 	 -1.33118 	 -118.819
| 13> C 	 -82.8121 	 -3.6576 	 -117.439
| 14> H 	 -81.9333 	 -4.29401 	 -117.498
| 15> H 	 -83.3712 	 -3.79883 	 -118.393
| 16> C 	 -83.5872 	 -4.38803 	 -116.36
| 17> H 	 -83.8953 	 -5.39714 	 -116.699
| 18> H 	 -82.8743 	 -4.5886 	 -115.561
| 19> C 	 -84.7019 	 -3.53076 	 -115.829
| 20> H 	 -84.9498 	 -3.81242 	 -114.855
| 21> H 	 -84.4764 	 -2.44672 	 -115.645
| 22> H 	 -85.487 	 -3.62192 	 -116.639
| 23> S 	 -81.2778 	 2.37583 	 -118.548
| 24> C 	 -82.2826 	 3.64956 	 -119.091
| 25> C 	 -83.616 	 3.36326 	 -119.036
| 26> C 	 -83.8385 	 2.11317 	 -118.428
| 27> C 	 -82.6643 	 1.4678 	 -118.077
| 28> H 	 -84.3712 	 4.09987 	 -119.348
| 29> C 	 -85.23 	 1.4678 	 -118.286
| 30> H 	 -85.3955 	 0.561881 	 -118.838
| 31> H 	 -85.805 	 2.16904 	 -118.896
| 32> C 	 -85.7922 	 1.32673 	 -116.885
| 33> H 	 -85.2416 	 0.63311 	 -116.311
| 34> H 	 -86.7408 	 0.764859 	 -116.936
| 35> C 	 -86.0587 	 2.67638 	 -116.292
| 36> H 	 -86.8115 	 3.22274 	 -116.817
| 37> H 	 -85.2197 	 3.32111 	 -115.986
| 38> H 	 -86.7206 	 2.56228 	 -115.371
| 39> H 	 -80.8973 	 -2.3905 	 -115.543
| 40> H 	 -81.9275 	 4.52498 	 -119.577
| 41> *
| 42>
| 43>                          ****END OF INPUT****

CARTESIAN COORDINATES (ANGSTROEM)
---------------------------------
  S    -81.404600   -0.048755  -116.152000
  C    -81.395600   -1.799070  -116.276000
  C    -82.312500   -2.213780  -117.200000
  C    -82.877400   -1.137360  -117.980000
  C    -82.423800    0.129352  -117.535000
  H    -83.516200   -1.331180  -118.819000
  C    -82.812100   -3.657600  -117.439000
  H    -81.933300   -4.294010  -117.498000
  H    -83.371200   -3.798830  -118.393000
  C    -83.587200   -4.388030  -116.360000
  H    -83.895300   -5.397140  -116.699000
  H    -82.874300   -4.588600  -115.561000
  C    -84.701900   -3.530760  -115.829000
  H    -84.949800   -3.812420  -114.855000
  H    -84.476400   -2.446720  -115.645000
  H    -85.487000   -3.621920  -116.639000
  S    -81.277800    2.375830  -118.548000
  C    -82.282600    3.649560  -119.091000
  C    -83.616000    3.363260  -119.036000
  C    -83.838500    2.113170  -118.428000
  C    -82.664300    1.467800  -118.077000
  H    -84.371200    4.099870  -119.348000
  C    -85.230000    1.467800  -118.286000
  H    -85.395500    0.561881  -118.838000
  H    -85.805000    2.169040  -118.896000
  C    -85.792200    1.326730  -116.885000
  H    -85.241600    0.633110  -116.311000
  H    -86.740800    0.764859  -116.936000
  C    -86.058700    2.676380  -116.292000
  H    -86.811500    3.222740  -116.817000
  H    -85.219700    3.321110  -115.986000
  H    -86.720600    2.562280  -115.371000
  H    -80.897300   -2.390500  -115.543000
  H    -81.927500    4.524980  -119.577000

 Total Charge           Charge          ....    0
 Multiplicity           Mult            ....    1
 Number of Electrons    NEL             ....  134
 Basis Dimension        Dim             ....  322

ORBITAL ENERGIES
----------------

  NO   OCC          E(Eh)            E(eV)
   0   2.0000     -88.966853     -2420.9111
   1   2.0000     -88.965932     -2420.8861
   2   2.0000     -10.332572      -281.1636
   3   2.0000     -10.320553      -280.8365
   4   2.0000     -10.311775      -280.5977
   5   2.0000     -10.309038      -280.5232
   6   2.0000     -10.304278      -280.3937
   7   2.0000     -10.299756      -280.2706
   8   2.0000     -10.296591      -280.1845
   9   2.0000     -10.291805      -280.0542
  10   2.0000     -10.291447      -280.0445
  11   2.0000     -10.285403      -279.8800
  12   2.0000     -10.284345      -279.8513
  13   2.0000     -10.278864      -279.7021
  14   2.0000     -10.274118      -279.5730
  15   2.0000     -10.273456      -279.5549
  16   2.0000      -8.082738      -219.9425
  17   2.0000      -8.081035      -219.8961
  18   2.0000      -6.041013      -164.3843
  19   2.0000      -6.039479      -164.3426
  20   2.0000      -6.037046      -164.2764
  21   2.0000      -6.035414      -164.2320
  22   2.0000      -6.033707      -164.1855
  23   2.0000      -6.031921      -164.1369
  24   2.0000      -1.012504       -27.5516
  25   2.0000      -0.988080       -26.8870
  26   2.0000      -0.914830       -24.8938
  27   2.0000      -0.911113       -24.7926
  28   2.0000      -0.870747       -23.6942
  29   2.0000      -0.851642       -23.1743
  30   2.0000      -0.843725       -22.9589
  31   2.0000      -0.811441       -22.0804
  32   2.0000      -0.784975       -21.3603
  33   2.0000      -0.775287       -21.0966
  34   2.0000      -0.711303       -19.3555
  35   2.0000      -0.696270       -18.9465
  36   2.0000      -0.691399       -18.8139
  37   2.0000      -0.663498       -18.0547
  38   2.0000      -0.640858       -17.4386
  39   2.0000      -0.612855       -16.6766
  40   2.0000      -0.594675       -16.1819
  41   2.0000      -0.577947       -15.7267
  42   2.0000      -0.557559       -15.1720
  43   2.0000      -0.550552       -14.9813
  44   2.0000      -0.546683       -14.8760
  45   2.0000      -0.540074       -14.6962
  46   2.0000      -0.514604       -14.0031
  47   2.0000      -0.511364       -13.9149
  48   2.0000      -0.500312       -13.6142
  49   2.0000      -0.497274       -13.5315
  50   2.0000      -0.483936       -13.1686
  51   2.0000      -0.479836       -13.0570
  52   2.0000      -0.474594       -12.9144
  53   2.0000      -0.472902       -12.8683
  54   2.0000      -0.461771       -12.5654
  55   2.0000      -0.448548       -12.2056
  56   2.0000      -0.442275       -12.0349
  57   2.0000      -0.433629       -11.7996
  58   2.0000      -0.426291       -11.6000
  59   2.0000      -0.419728       -11.4214
  60   2.0000      -0.414768       -11.2864
  61   2.0000      -0.407390       -11.0856
  62   2.0000      -0.404663       -11.0114
  63   2.0000      -0.345121        -9.3912
  64   2.0000      -0.334008        -9.0888
  65   2.0000      -0.328075        -8.9274
  66   2.0000      -0.295286        -8.0352
  67   0.0000       0.031389         0.8541
  68   0.0000       0.070296         1.9129
  69   0.0000       0.114033         3.1030
  70   0.0000       0.118446         3.2231
  71   0.0000       0.128109         3.4860

MULLIKEN ATOMIC CHARGES
-----------------------
   0 S :    0.110248
   1 C :   -0.125122
   2 C :   -0.084425
   3 C :    0.045745
   4 C :   -0.161971
   5 H :    0.006602
   6 C :    0.053605
   7 H :    0.024289
   8 H :    0.028837
   9 C :   -0.076485
  10 H :    0.036591
  11 H :    0.011672
  12 C :   -0.046296
  13 H :    0.016312
  14 H :    0.049769
  15 H :    0.035977
  16 S :    0.134476
  17 C :   -0.075672
  18 C :   -0.052854
  19 C :   -0.027476
  20 C :   -0.165046
  21 H :    0.030096
  22 C :    0.073350
  23 H :    0.021913
  24 H :   -0.002715
  25 C :   -0.013640
  26 H :    0.025312
  27 H :    0.015950
  28 C :   -0.060360
  29 H :    0.012416
  30 H :    0.057985
  31 H :    0.018275
  32 H :    0.041999
  33 H :    0.040646
Sum of atomic charges:    0.0000000

LOEWDIN ATOMIC CHARGES
----------------------
   0 S :    0.417732
   1 C :   -0.195851
   2 C :   -0.059525
   3 C :   -0.061302
   4 C :   -0.197821
   5 H :    0.027518
   6 C :   -0.036419
   7 H :    0.032596
   8 H :    0.029893
   9 C :   -0.045441
  10 H :    0.030109
  11 H :    0.015826
  12 C :   -0.071577
  13 H :    0.015831
  14 H :    0.034831
  15 H :    0.032469
  16 S :    0.443811
  17 C :   -0.192082
  18 C :   -0.075581
  19 C :   -0.054992
  20 C :   -0.216839
  21 H :    0.039100
  22 C :   -0.030847
  23 H :    0.026094
  24 H :    0.026825
  25 C :   -0.040052
  26 H :    0.020209
  27 H :    0.030884
  28 C :   -0.075322
  29 H :    0.021420
  30 H :    0.031161
  31 H :    0.032926
  32 H :    0.022016
  33 H :    0.022401

  Mayer bond orders larger than 0.100000
B(  0-S ,  1-C ) :   1.1324 B(  0-S ,  4-C ) :   1.1845 B(  1-C ,  2-C ) :   1.6008
B(  1-C , 32-H ) :   0.9771 B(  2-C ,  3-C ) :   1.2484 B(  2-C ,  6-C ) :   1.0125
B(  3-C ,  4-C ) :   1.5343 B(  3-C ,  5-H ) :   1.0024 B(  4-C , 20-C ) :   1.0186
B(  6-C ,  7-H ) :   0.9375 B(  6-C ,  8-H ) :   0.9506 B(  6-C ,  9-C ) :   1.0768
B(  9-C , 10-H ) :   0.9543 B(  9-C , 11-H ) :   0.9543 B(  9-C , 12-C ) :   1.0777
B( 12-C , 13-H ) :   0.9722 B( 12-C , 14-H ) :   0.9696 B( 12-C , 15-H ) :   0.9768
B( 16-S , 17-C ) :   1.1751 B( 16-S , 20-C ) :   1.1675 B( 17-C , 18-C ) :   1.5942
B( 17-C , 33-H ) :   0.9666 B( 18-C , 19-C ) :   1.2733 B( 18-C , 21-H ) :   0.9846
B( 19-C , 20-C ) :   1.5772 B( 19-C , 22-C ) :   1.0168 B( 22-C , 23-H ) :   0.9372
B( 22-C , 24-H ) :   0.9335 B( 22-C , 25-C ) :   1.0822 B( 25-C , 26-H ) :   0.9540
B( 25-C , 27-H ) :   0.9438 B( 25-C , 28-C ) :   1.0805 B( 28-C , 29-H ) :   0.9686
B( 28-C , 30-H ) :   0.9764 B( 28-C , 31-H ) :   0.9667

Dispersion correction           -0.015388050
FINAL SINGLE POINT ENERGY     -1339.870646359625

DIPOLE MOMENT
-------------
                                X             Y             Z
Electronic contribution:     22.92518      12.91780      -5.54594
Nuclear contribution   :    -23.42809     -13.20030       5.44040
                        -----------------------------------------
Total Dipole Moment    :     -0.50291      -0.28249      -0.10555
                        -----------------------------------------
Magnitude (a.u.)       :      0.58640
Magnitude (Debye)      :      1.49050

Rotational constants in cm-1:     0.020808     0.009233     0.007333
Rotational constants in MHz :   623.796030   276.791992   219.827885

                             ****ORCA TERMINATED NORMALLY****
TOTAL RUN TIME: 0 days 0 hours 0 minutes 22 seconds 532 msec
