                         Program Version 4.2.1 -  RELEASE  -
|  1> ! wB97X-D3 SP def2-SVP
|  2> %pal
|  3> nprocs 24
|  4> end
|  5>
|  6> * xyz 0 1
|  7> S 	 -46.2706 	 15.6302 	 26.9051
|  8> C 	 -46.2156 	 15.3777 	 25.1094
|  9> C 	 -47.4709 	 14.8982 	 24.6716
| 10> C 	 -48.3202 	 14.5587 	 25.7547
| 11> C 	 -47.7906 	 14.7794 	 27.0143
| 12> H 	 -49.2163 	 13.9769 	 25.6741
| 13> C 	 -47.9636 	 14.7042 	 23.2975
| 14> H 	 -49.0201 	 14.8927 	 23.1902
| 15> H 	 -47.9347 	 13.634 	 23.1031
| 16> C 	 -47.2213 	 15.4271 	 22.1379
| 17> H 	 -46.1776 	 15.158 	 22.1006
| 18> H 	 -47.6135 	 15.1309 	 21.1915
| 19> C 	 -47.302 	 16.9511 	 22.2002
| 20> H 	 -46.513 	 17.4521 	 22.7149
| 21> H 	 -47.0554 	 17.3264 	 21.1986
| 22> H 	 -48.2108 	 17.4252 	 22.5642
| 23> S 	 -47.4763 	 12.9207 	 29.0912
| 24> C 	 -48.8084 	 12.6894 	 30.2093
| 25> C 	 -49.7683 	 13.6344 	 30.0303
| 26> C 	 -49.5703 	 14.3545 	 28.7774
| 27> C 	 -48.2947 	 14.1726 	 28.2191
| 28> H 	 -50.6306 	 13.7326 	 30.6716
| 29> C 	 -50.5153 	 15.3957 	 28.4204
| 30> H 	 -51.5178 	 15.2165 	 28.8876
| 31> H 	 -50.5538 	 15.4106 	 27.3415
| 32> C 	 -50.063 	 16.8691 	 28.942
| 33> H 	 -50.4807 	 17.7299 	 28.3666
| 34> H 	 -48.9659 	 17.0349 	 28.7927
| 35> C 	 -50.4076 	 17.0462 	 30.3285
| 36> H 	 -50.0492 	 18.0035 	 30.7967
| 37> H 	 -50.111 	 16.2089 	 30.9562
| 38> H 	 -51.4823 	 17.1236 	 30.4315
| 39> H 	 -45.4814 	 15.7387 	 24.374
| 40> H 	 -48.7435 	 12.1162 	 31.0346
| 41> *
| 42>
| 43>                          ****END OF INPUT****

CARTESIAN COORDINATES (ANGSTROEM)
---------------------------------
  S    -46.270600   15.630200   26.905100
  C    -46.215600   15.377700   25.109400
  C    -47.470900   14.898200   24.671600
  C    -48.320200   14.558700   25.754700
  C    -47.790600   14.779400   27.014300
  H    -49.216300   13.976900   25.674100
  C    -47.963600   14.704200   23.297500
  H    -49.020100   14.892700   23.190200
  H    -47.934700   13.634000   23.103100
  C    -47.221300   15.427100   22.137900
  H    -46.177600   15.158000   22.100600
  H    -47.613500   15.130900   21.191500
  C    -47.302000   16.951100   22.200200
  H    -46.513000   17.452100   22.714900
  H    -47.055400   17.326400   21.198600
  H    -48.210800   17.425200   22.564200
  S    -47.476300   12.920700   29.091200
  C    -48.808400   12.689400   30.209300
  C    -49.768300   13.634400   30.030300
  C    -49.570300   14.354500   28.777400
  C    -48.294700   14.172600   28.219100
  H    -50.630600   13.732600   30.671600
  C    -50.515300   15.395700   28.420400
  H    -51.517800   15.216500   28.887600
  H    -50.553800   15.410600   27.341500
  C    -50.063000   16.869100   28.942000
  H    -50.480700   17.729900   28.366600
  H    -48.965900   17.034900   28.792700
  C    -50.407600   17.046200   30.328500
  H    -50.049200   18.003500   30.796700
  H    -50.111000   16.208900   30.956200
  H    -51.482300   17.123600   30.431500
  H    -45.481400   15.738700   24.374000
  H    -48.743500   12.116200   31.034600

 Total Charge           Charge          ....    0
 Multiplicity           Mult            ....    1
 Number of Electrons    NEL             ....  134
 Basis Dimension        Dim             ....  322

ORBITAL ENERGIES
----------------

  NO   OCC          E(Eh)            E(eV)
   0   2.0000     -88.969728     -2420.9894
   1   2.0000     -88.964572     -2420.8491
   2   2.0000     -10.329345      -281.0758
   3   2.0000     -10.324650      -280.9480
   4   2.0000     -10.322992      -280.9029
   5   2.0000     -10.308832      -280.5176
   6   2.0000     -10.304130      -280.3896
   7   2.0000     -10.299135      -280.2537
   8   2.0000     -10.293216      -280.0927
   9   2.0000     -10.291698      -280.0513
  10   2.0000     -10.290729      -280.0250
  11   2.0000     -10.290583      -280.0210
  12   2.0000     -10.288334      -279.9598
  13   2.0000     -10.285005      -279.8692
  14   2.0000     -10.273767      -279.5634
  15   2.0000     -10.269091      -279.4362
  16   2.0000      -8.083163      -219.9540
  17   2.0000      -8.079540      -219.8555
  18   2.0000      -6.041870      -164.4076
  19   2.0000      -6.038124      -164.3057
  20   2.0000      -6.037888      -164.2993
  21   2.0000      -6.033893      -164.1906
  22   2.0000      -6.033735      -164.1863
  23   2.0000      -6.030312      -164.0931
  24   2.0000      -1.006809       -27.3967
  25   2.0000      -0.982167       -26.7261
  26   2.0000      -0.915450       -24.9107
  27   2.0000      -0.910456       -24.7748
  28   2.0000      -0.870800       -23.6957
  29   2.0000      -0.855367       -23.2757
  30   2.0000      -0.850318       -23.1383
  31   2.0000      -0.815102       -22.1800
  32   2.0000      -0.787176       -21.4201
  33   2.0000      -0.766371       -20.8540
  34   2.0000      -0.715342       -19.4654
  35   2.0000      -0.707085       -19.2408
  36   2.0000      -0.688113       -18.7245
  37   2.0000      -0.664738       -18.0884
  38   2.0000      -0.637018       -17.3341
  39   2.0000      -0.612305       -16.6617
  40   2.0000      -0.593104       -16.1392
  41   2.0000      -0.581912       -15.8346
  42   2.0000      -0.557052       -15.1582
  43   2.0000      -0.555098       -15.1050
  44   2.0000      -0.545809       -14.8522
  45   2.0000      -0.540011       -14.6945
  46   2.0000      -0.520304       -14.1582
  47   2.0000      -0.513780       -13.9807
  48   2.0000      -0.505684       -13.7603
  49   2.0000      -0.494428       -13.4541
  50   2.0000      -0.483218       -13.1490
  51   2.0000      -0.481190       -13.0939
  52   2.0000      -0.476640       -12.9700
  53   2.0000      -0.470248       -12.7961
  54   2.0000      -0.463634       -12.6161
  55   2.0000      -0.442121       -12.0307
  56   2.0000      -0.439312       -11.9543
  57   2.0000      -0.435471       -11.8498
  58   2.0000      -0.429233       -11.6800
  59   2.0000      -0.424951       -11.5635
  60   2.0000      -0.422434       -11.4950
  61   2.0000      -0.419277       -11.4091
  62   2.0000      -0.404713       -11.0128
  63   2.0000      -0.345365        -9.3979
  64   2.0000      -0.326937        -8.8964
  65   2.0000      -0.323264        -8.7965
  66   2.0000      -0.293322        -7.9817
  67   0.0000       0.027499         0.7483
  68   0.0000       0.063590         1.7304
  69   0.0000       0.099637         2.7113
  70   0.0000       0.118716         3.2304
  71   0.0000       0.129615         3.5270

MULLIKEN ATOMIC CHARGES
-----------------------
   0 S :    0.111382
   1 C :   -0.129373
   2 C :   -0.072527
   3 C :    0.039416
   4 C :   -0.179890
   5 H :    0.014210
   6 C :    0.046344
   7 H :    0.028422
   8 H :    0.038402
   9 C :   -0.041716
  10 H :    0.021180
  11 H :    0.020125
  12 C :   -0.049056
  13 H :    0.014727
  14 H :    0.020027
  15 H :    0.037710
  16 S :    0.114655
  17 C :   -0.039945
  18 C :   -0.025570
  19 C :   -0.067574
  20 C :   -0.121833
  21 H :    0.024318
  22 C :    0.055497
  23 H :    0.027898
  24 H :    0.018472
  25 C :   -0.061753
  26 H :    0.029333
  27 H :    0.029977
  28 C :   -0.054289
  29 H :    0.036481
  30 H :    0.029054
  31 H :    0.013904
  32 H :    0.056174
  33 H :    0.015816
Sum of atomic charges:    0.0000000

LOEWDIN ATOMIC CHARGES
----------------------
   0 S :    0.388183
   1 C :   -0.191455
   2 C :   -0.056552
   3 C :   -0.054761
   4 C :   -0.192717
   5 H :    0.029578
   6 C :   -0.036799
   7 H :    0.033029
   8 H :    0.039955
   9 C :   -0.035393
  10 H :    0.023041
  11 H :    0.023498
  12 C :   -0.072116
  13 H :    0.019426
  14 H :    0.029365
  15 H :    0.026582
  16 S :    0.416753
  17 C :   -0.164859
  18 C :   -0.064361
  19 C :   -0.057723
  20 C :   -0.212567
  21 H :    0.030898
  22 C :   -0.033172
  23 H :    0.033861
  24 H :    0.028704
  25 C :   -0.041675
  26 H :    0.026868
  27 H :    0.025523
  28 C :   -0.074940
  29 H :    0.032249
  30 H :    0.022908
  31 H :    0.019737
  32 H :    0.032667
  33 H :    0.006265

  Mayer bond orders larger than 0.100000
B(  0-S ,  1-C ) :   1.1133 B(  0-S ,  4-C ) :   1.1408 B(  1-C ,  2-C ) :   1.6105
B(  1-C , 32-H ) :   0.9605 B(  2-C ,  3-C ) :   1.2431 B(  2-C ,  6-C ) :   1.0207
B(  3-C ,  4-C ) :   1.5824 B(  3-C ,  5-H ) :   0.9883 B(  4-C , 20-C ) :   1.0445
B(  6-C ,  7-H ) :   0.9443 B(  6-C ,  8-H ) :   0.9265 B(  6-C ,  9-C ) :   1.0873
B(  9-C , 10-H ) :   0.9492 B(  9-C , 11-H ) :   0.9568 B(  9-C , 12-C ) :   1.0740
B( 12-C , 13-H ) :   0.9729 B( 12-C , 14-H ) :   0.9718 B( 12-C , 15-H ) :   0.9786
B( 16-S , 17-C ) :   1.1562 B( 16-S , 20-C ) :   1.1377 B( 17-C , 18-C ) :   1.6124
B( 17-C , 33-H ) :   0.9753 B( 18-C , 19-C ) :   1.2374 B( 18-C , 21-H ) :   0.9826
B( 19-C , 20-C ) :   1.5584 B( 19-C , 22-C ) :   1.0920 B( 22-C , 23-H ) :   0.9386
B( 22-C , 24-H ) :   0.9143 B( 22-C , 25-C ) :   1.0424 B( 25-C , 26-H ) :   0.9549
B( 25-C , 27-H ) :   0.9565 B( 25-C , 28-C ) :   1.0917 B( 28-C , 29-H ) :   0.9655
B( 28-C , 30-H ) :   0.9695 B( 28-C , 31-H ) :   0.9689

Dispersion correction           -0.014913829
FINAL SINGLE POINT ENERGY     -1339.860218469948

DIPOLE MOMENT
-------------
                                X             Y             Z
Electronic contribution:     11.94193     -13.97259      12.61888
Nuclear contribution   :    -12.41073      14.05821     -13.00429
                        -----------------------------------------
Total Dipole Moment    :     -0.46880       0.08563      -0.38541
                        -----------------------------------------
Magnitude (a.u.)       :      0.61290
Magnitude (Debye)      :      1.55788

Rotational constants in cm-1:     0.023355     0.007723     0.006822
Rotational constants in MHz :   700.156329   231.521358   204.527656

                             ****ORCA TERMINATED NORMALLY****
TOTAL RUN TIME: 0 days 0 hours 0 minutes 21 seconds 909 msec
