                         Program Version 4.2.1 -  RELEASE  -
|  1> ! wB97X-D3 SP def2-SVP
|  2> %pal
|  3> nprocs 24
|  4> end
|  5>
|  6> * xyz 0 1
|  7> S 	 -2.31696 	 -19.4584 	 -104.773
|  8> C 	 -1.74896 	 -20.2717 	 -103.406
|  9> C 	 -1.07387 	 -19.5331 	 -102.483
| 10> C 	 -1.05301 	 -18.1734 	 -102.916
| 11> C 	 -1.71996 	 -17.9123 	 -104.111
| 12> H 	 -0.453101 	 -17.4107 	 -102.407
| 13> C 	 -0.347679 	 -20.1343 	 -101.252
| 14> H 	 0.724332 	 -19.8833 	 -101.16
| 15> H 	 -0.228076 	 -21.2274 	 -101.361
| 16> C 	 -1.06526 	 -19.854 	 -99.9281
| 17> H 	 -1.10194 	 -18.7965 	 -99.693
| 18> H 	 -2.05771 	 -20.2455 	 -99.8056
| 19> C 	 -0.469629 	 -20.6728 	 -98.7859
| 20> H 	 -0.911823 	 -20.38 	 -97.832
| 21> H 	 -0.441851 	 -21.7268 	 -98.9138
| 22> H 	 0.562144 	 -20.4379 	 -98.4467
| 23> S 	 -2.22829 	 -16.3573 	 -106.296
| 24> C 	 -1.79834 	 -14.7198 	 -106.229
| 25> C 	 -1.73684 	 -14.3271 	 -104.917
| 26> C 	 -1.96124 	 -15.3607 	 -103.939
| 27> C 	 -1.99885 	 -16.5848 	 -104.625
| 28> H 	 -1.67222 	 -13.234 	 -104.779
| 29> C 	 -2.0022 	 -15.0244 	 -102.459
| 30> H 	 -2.3207 	 -15.9458 	 -102.037
| 31> H 	 -2.83705 	 -14.3524 	 -102.234
| 32> C 	 -0.686249 	 -14.4396 	 -101.916
| 33> H 	 -0.449215 	 -13.4249 	 -102.311
| 34> H 	 0.258935 	 -14.8711 	 -102.361
| 35> C 	 -0.616217 	 -14.3238 	 -100.379
| 36> H 	 -1.53268 	 -13.8613 	 -99.9926
| 37> H 	 0.192701 	 -13.6969 	 -100.014
| 38> H 	 -0.553254 	 -15.2762 	 -99.8853
| 39> H 	 -1.91048 	 -21.3097 	 -103.225
| 40> H 	 -1.56915 	 -14.0115 	 -107.008
| 41> *
| 42>
| 43>                          ****END OF INPUT****

CARTESIAN COORDINATES (ANGSTROEM)
---------------------------------
  S     -2.316960  -19.458400  -104.773000
  C     -1.748960  -20.271700  -103.406000
  C     -1.073870  -19.533100  -102.483000
  C     -1.053010  -18.173400  -102.916000
  C     -1.719960  -17.912300  -104.111000
  H     -0.453101  -17.410700  -102.407000
  C     -0.347679  -20.134300  -101.252000
  H      0.724332  -19.883300  -101.160000
  H     -0.228076  -21.227400  -101.361000
  C     -1.065260  -19.854000  -99.928100
  H     -1.101940  -18.796500  -99.693000
  H     -2.057710  -20.245500  -99.805600
  C     -0.469629  -20.672800  -98.785900
  H     -0.911823  -20.380000  -97.832000
  H     -0.441851  -21.726800  -98.913800
  H      0.562144  -20.437900  -98.446700
  S     -2.228290  -16.357300  -106.296000
  C     -1.798340  -14.719800  -106.229000
  C     -1.736840  -14.327100  -104.917000
  C     -1.961240  -15.360700  -103.939000
  C     -1.998850  -16.584800  -104.625000
  H     -1.672220  -13.234000  -104.779000
  C     -2.002200  -15.024400  -102.459000
  H     -2.320700  -15.945800  -102.037000
  H     -2.837050  -14.352400  -102.234000
  C     -0.686249  -14.439600  -101.916000
  H     -0.449215  -13.424900  -102.311000
  H      0.258935  -14.871100  -102.361000
  C     -0.616217  -14.323800  -100.379000
  H     -1.532680  -13.861300  -99.992600
  H      0.192701  -13.696900  -100.014000
  H     -0.553254  -15.276200  -99.885300
  H     -1.910480  -21.309700  -103.225000
  H     -1.569150  -14.011500  -107.008000

 Total Charge           Charge          ....    0
 Multiplicity           Mult            ....    1
 Number of Electrons    NEL             ....  134
 Basis Dimension        Dim             ....  322

ORBITAL ENERGIES
----------------

  NO   OCC          E(Eh)            E(eV)
   0   2.0000     -88.967815     -2420.9373
   1   2.0000     -88.963141     -2420.8101
   2   2.0000     -10.331417      -281.1321
   3   2.0000     -10.325993      -280.9846
   4   2.0000     -10.309108      -280.5251
   5   2.0000     -10.305596      -280.4295
   6   2.0000     -10.304692      -280.4049
   7   2.0000     -10.300990      -280.3042
   8   2.0000     -10.298532      -280.2373
   9   2.0000     -10.296466      -280.1811
  10   2.0000     -10.294288      -280.1218
  11   2.0000     -10.294090      -280.1164
  12   2.0000     -10.289307      -279.9863
  13   2.0000     -10.285990      -279.8960
  14   2.0000     -10.279558      -279.7210
  15   2.0000     -10.275849      -279.6201
  16   2.0000      -8.083184      -219.9546
  17   2.0000      -8.080068      -219.8698
  18   2.0000      -6.041730      -164.4038
  19   2.0000      -6.038458      -164.3148
  20   2.0000      -6.037660      -164.2931
  21   2.0000      -6.034374      -164.2037
  22   2.0000      -6.033825      -164.1887
  23   2.0000      -6.030718      -164.1042
  24   2.0000      -1.014622       -27.6093
  25   2.0000      -0.992162       -26.9981
  26   2.0000      -0.910854       -24.7856
  27   2.0000      -0.909141       -24.7390
  28   2.0000      -0.873749       -23.7759
  29   2.0000      -0.854887       -23.2627
  30   2.0000      -0.847263       -23.0552
  31   2.0000      -0.815493       -22.1907
  32   2.0000      -0.785114       -21.3640
  33   2.0000      -0.774324       -21.0704
  34   2.0000      -0.711285       -19.3550
  35   2.0000      -0.704953       -19.1828
  36   2.0000      -0.698525       -19.0078
  37   2.0000      -0.660794       -17.9811
  38   2.0000      -0.633369       -17.2348
  39   2.0000      -0.624499       -16.9935
  40   2.0000      -0.597114       -16.2483
  41   2.0000      -0.570647       -15.5281
  42   2.0000      -0.564964       -15.3735
  43   2.0000      -0.552932       -15.0461
  44   2.0000      -0.536745       -14.6056
  45   2.0000      -0.527939       -14.3659
  46   2.0000      -0.520034       -14.1508
  47   2.0000      -0.510768       -13.8987
  48   2.0000      -0.500737       -13.6257
  49   2.0000      -0.498194       -13.5566
  50   2.0000      -0.490364       -13.3435
  51   2.0000      -0.486565       -13.2401
  52   2.0000      -0.475224       -12.9315
  53   2.0000      -0.466313       -12.6890
  54   2.0000      -0.459339       -12.4992
  55   2.0000      -0.451391       -12.2830
  56   2.0000      -0.445173       -12.1138
  57   2.0000      -0.440074       -11.9750
  58   2.0000      -0.434057       -11.8113
  59   2.0000      -0.426239       -11.5986
  60   2.0000      -0.423079       -11.5126
  61   2.0000      -0.411344       -11.1932
  62   2.0000      -0.405339       -11.0298
  63   2.0000      -0.361549        -9.8382
  64   2.0000      -0.334850        -9.1117
  65   2.0000      -0.326107        -8.8738
  66   2.0000      -0.278118        -7.5680
  67   0.0000       0.021556         0.5866
  68   0.0000       0.083681         2.2771
  69   0.0000       0.107219         2.9176
  70   0.0000       0.117803         3.2056
  71   0.0000       0.130196         3.5428

MULLIKEN ATOMIC CHARGES
-----------------------
   0 S :    0.120920
   1 C :   -0.106420
   2 C :   -0.050847
   3 C :   -0.027206
   4 C :   -0.105508
   5 H :    0.016972
   6 C :    0.046846
   7 H :    0.037790
   8 H :    0.013800
   9 C :   -0.043948
  10 H :    0.032405
  11 H :    0.031822
  12 C :   -0.069108
  13 H :    0.024533
  14 H :    0.032112
  15 H :    0.009126
  16 S :    0.117259
  17 C :   -0.084496
  18 C :   -0.070419
  19 C :   -0.070057
  20 C :   -0.141495
  21 H :    0.026358
  22 C :    0.118296
  23 H :    0.014552
  24 H :    0.035321
  25 C :   -0.111914
  26 H :    0.024235
  27 H :    0.035354
  28 C :   -0.026830
  29 H :    0.023538
  30 H :    0.034127
  31 H :    0.027130
  32 H :    0.032437
  33 H :    0.053315
Sum of atomic charges:    0.0000000

LOEWDIN ATOMIC CHARGES
----------------------
   0 S :    0.412033
   1 C :   -0.202464
   2 C :   -0.068470
   3 C :   -0.062170
   4 C :   -0.184371
   5 H :    0.033840
   6 C :   -0.031673
   7 H :    0.036743
   8 H :    0.031324
   9 C :   -0.039563
  10 H :    0.024440
  11 H :    0.029592
  12 C :   -0.074503
  13 H :    0.028375
  14 H :    0.019718
  15 H :    0.020695
  16 S :    0.440004
  17 C :   -0.207828
  18 C :   -0.078279
  19 C :   -0.053436
  20 C :   -0.209364
  21 H :    0.033054
  22 C :   -0.029912
  23 H :    0.025838
  24 H :    0.038075
  25 C :   -0.053980
  26 H :    0.028267
  27 H :    0.029750
  28 C :   -0.065842
  29 H :    0.026219
  30 H :    0.027583
  31 H :    0.020067
  32 H :    0.022517
  33 H :    0.033722

  Mayer bond orders larger than 0.100000
B(  0-S ,  1-C ) :   1.1573 B(  0-S ,  4-C ) :   1.1243 B(  1-C ,  2-C ) :   1.6292
B(  1-C , 32-H ) :   0.9577 B(  2-C ,  3-C ) :   1.2595 B(  2-C ,  6-C ) :   1.0113
B(  3-C ,  4-C ) :   1.5674 B(  3-C ,  5-H ) :   0.9877 B(  4-C , 20-C ) :   1.0793
B(  6-C ,  7-H ) :   0.9455 B(  6-C ,  8-H ) :   0.9453 B(  6-C ,  9-C ) :   1.0587
B(  9-C , 10-H ) :   0.9577 B(  9-C , 11-H ) :   0.9572 B(  9-C , 12-C ) :   1.0731
B( 12-C , 13-H ) :   0.9720 B( 12-C , 14-H ) :   0.9778 B( 12-C , 15-H ) :   0.9682
B( 16-S , 17-C ) :   1.1553 B( 16-S , 20-C ) :   1.1496 B( 17-C , 18-C ) :   1.6223
B( 17-C , 33-H ) :   0.9693 B( 18-C , 19-C ) :   1.2372 B( 18-C , 21-H ) :   0.9837
B( 19-C , 20-C ) :   1.5441 B( 19-C , 22-C ) :   1.0424 B( 22-C , 23-H ) :   0.9368
B( 22-C , 24-H ) :   0.9238 B( 22-C , 25-C ) :   1.0440 B( 25-C , 26-H ) :   0.9469
B( 25-C , 27-H ) :   0.9562 B( 25-C , 28-C ) :   1.0814 B( 28-C , 29-H ) :   0.9709
B( 28-C , 30-H ) :   0.9745 B( 28-C , 31-H ) :   0.9774

Dispersion correction           -0.014003152
FINAL SINGLE POINT ENERGY     -1339.861334665809

DIPOLE MOMENT
-------------
                                X             Y             Z
Electronic contribution:    -10.22030      -2.84120     -33.22927
Nuclear contribution   :     10.48982       3.09233      33.88947
                        -----------------------------------------
Total Dipole Moment    :      0.26952       0.25113       0.66020
                        -----------------------------------------
Magnitude (a.u.)       :      0.75602
Magnitude (Debye)      :      1.92166

Rotational constants in cm-1:     0.017401     0.009307     0.006251
Rotational constants in MHz :   521.667828   279.013397   187.406681

                             ****ORCA TERMINATED NORMALLY****
TOTAL RUN TIME: 0 days 0 hours 0 minutes 21 seconds 719 msec
