                         Program Version 4.2.1 -  RELEASE  -
|  1> ! wB97X-D3 SP def2-SVP
|  2> %pal
|  3> nprocs 24
|  4> end
|  5>
|  6> * xyz 0 1
|  7> S 	 -59.8212 	 6.21332 	 -15.3519
|  8> C 	 -59.0431 	 6.05539 	 -16.9775
|  9> C 	 -59.8751 	 6.12488 	 -18.0474
| 10> C 	 -61.1994 	 6.31469 	 -17.5622
| 11> C 	 -61.3195 	 6.44919 	 -16.1785
| 12> H 	 -62.0563 	 6.39326 	 -18.2481
| 13> C 	 -59.6749 	 5.86511 	 -19.5941
| 14> H 	 -58.5791 	 5.72281 	 -19.648
| 15> H 	 -59.873 	 6.79728 	 -20.1186
| 16> C 	 -60.5018 	 4.64598 	 -20.2326
| 17> H 	 -60.0027 	 3.73819 	 -19.9459
| 18> H 	 -61.5138 	 4.70327 	 -19.7756
| 19> C 	 -60.6103 	 4.68702 	 -21.7281
| 20> H 	 -61.1363 	 3.82636 	 -22.1054
| 21> H 	 -61.0772 	 5.6553 	 -22.0386
| 22> H 	 -59.6202 	 4.72274 	 -22.1812
| 23> S 	 -62.7301 	 5.99767 	 -13.8578
| 24> C 	 -64.386 	 6.54588 	 -13.739
| 25> C 	 -64.7426 	 7.37186 	 -14.8086
| 26> C 	 -63.7183 	 7.47109 	 -15.7972
| 27> C 	 -62.5572 	 6.76495 	 -15.4859
| 28> H 	 -65.6911 	 7.81089 	 -14.8713
| 29> C 	 -63.9211 	 8.25289 	 -17.056
| 30> H 	 -62.9694 	 8.37056 	 -17.6079
| 31> H 	 -64.09 	 9.27555 	 -16.765
| 32> C 	 -64.9533 	 7.69642 	 -17.9865
| 33> H 	 -65.3496 	 8.47849 	 -18.6878
| 34> H 	 -65.7394 	 7.40579 	 -17.3835
| 35> C 	 -64.6892 	 6.43949 	 -18.7649
| 36> H 	 -63.8933 	 6.64848 	 -19.3921
| 37> H 	 -65.525 	 6.15824 	 -19.3831
| 38> H 	 -64.6935 	 5.51637 	 -18.0913
| 39> H 	 -57.9748 	 5.81403 	 -17.0488
| 40> H 	 -65.0628 	 6.36825 	 -12.8981
| 41> *
| 42>
| 43>                          ****END OF INPUT****

CARTESIAN COORDINATES (ANGSTROEM)
---------------------------------
  S    -59.821200    6.213320  -15.351900
  C    -59.043100    6.055390  -16.977500
  C    -59.875100    6.124880  -18.047400
  C    -61.199400    6.314690  -17.562200
  C    -61.319500    6.449190  -16.178500
  H    -62.056300    6.393260  -18.248100
  C    -59.674900    5.865110  -19.594100
  H    -58.579100    5.722810  -19.648000
  H    -59.873000    6.797280  -20.118600
  C    -60.501800    4.645980  -20.232600
  H    -60.002700    3.738190  -19.945900
  H    -61.513800    4.703270  -19.775600
  C    -60.610300    4.687020  -21.728100
  H    -61.136300    3.826360  -22.105400
  H    -61.077200    5.655300  -22.038600
  H    -59.620200    4.722740  -22.181200
  S    -62.730100    5.997670  -13.857800
  C    -64.386000    6.545880  -13.739000
  C    -64.742600    7.371860  -14.808600
  C    -63.718300    7.471090  -15.797200
  C    -62.557200    6.764950  -15.485900
  H    -65.691100    7.810890  -14.871300
  C    -63.921100    8.252890  -17.056000
  H    -62.969400    8.370560  -17.607900
  H    -64.090000    9.275550  -16.765000
  C    -64.953300    7.696420  -17.986500
  H    -65.349600    8.478490  -18.687800
  H    -65.739400    7.405790  -17.383500
  C    -64.689200    6.439490  -18.764900
  H    -63.893300    6.648480  -19.392100
  H    -65.525000    6.158240  -19.383100
  H    -64.693500    5.516370  -18.091300
  H    -57.974800    5.814030  -17.048800
  H    -65.062800    6.368250  -12.898100

 Total Charge           Charge          ....    0
 Multiplicity           Mult            ....    1
 Number of Electrons    NEL             ....  134
 Basis Dimension        Dim             ....  322

ORBITAL ENERGIES
----------------

  NO   OCC          E(Eh)            E(eV)
   0   2.0000     -88.969478     -2420.9826
   1   2.0000     -88.963658     -2420.8242
   2   2.0000     -10.329683      -281.0850
   3   2.0000     -10.328015      -281.0396
   4   2.0000     -10.321384      -280.8591
   5   2.0000     -10.316961      -280.7388
   6   2.0000     -10.305903      -280.4379
   7   2.0000     -10.303145      -280.3628
   8   2.0000     -10.302200      -280.3371
   9   2.0000     -10.293881      -280.1107
  10   2.0000     -10.292506      -280.0733
  11   2.0000     -10.289396      -279.9887
  12   2.0000     -10.286329      -279.9052
  13   2.0000     -10.281598      -279.7765
  14   2.0000     -10.278569      -279.6941
  15   2.0000     -10.276091      -279.6267
  16   2.0000      -8.083718      -219.9691
  17   2.0000      -8.077822      -219.8087
  18   2.0000      -6.042313      -164.4197
  19   2.0000      -6.038622      -164.3193
  20   2.0000      -6.036381      -164.2583
  21   2.0000      -6.034100      -164.1962
  22   2.0000      -6.032470      -164.1519
  23   2.0000      -6.028519      -164.0443
  24   2.0000      -1.002448       -27.2780
  25   2.0000      -0.978600       -26.6291
  26   2.0000      -0.918680       -24.9986
  27   2.0000      -0.905265       -24.6335
  28   2.0000      -0.870872       -23.6976
  29   2.0000      -0.855299       -23.2739
  30   2.0000      -0.844596       -22.9826
  31   2.0000      -0.808486       -22.0000
  32   2.0000      -0.786571       -21.4037
  33   2.0000      -0.776473       -21.1289
  34   2.0000      -0.708203       -19.2712
  35   2.0000      -0.697793       -18.9879
  36   2.0000      -0.693559       -18.8727
  37   2.0000      -0.660938       -17.9850
  38   2.0000      -0.632916       -17.2225
  39   2.0000      -0.622960       -16.9516
  40   2.0000      -0.602493       -16.3947
  41   2.0000      -0.567610       -15.4455
  42   2.0000      -0.560476       -15.2513
  43   2.0000      -0.556367       -15.1395
  44   2.0000      -0.551597       -15.0097
  45   2.0000      -0.531610       -14.4658
  46   2.0000      -0.514990       -14.0136
  47   2.0000      -0.513403       -13.9704
  48   2.0000      -0.497701       -13.5431
  49   2.0000      -0.493907       -13.4399
  50   2.0000      -0.485544       -13.2123
  51   2.0000      -0.480866       -13.0850
  52   2.0000      -0.470830       -12.8119
  53   2.0000      -0.462662       -12.5897
  54   2.0000      -0.461397       -12.5552
  55   2.0000      -0.454892       -12.3782
  56   2.0000      -0.452709       -12.3188
  57   2.0000      -0.434616       -11.8265
  58   2.0000      -0.433566       -11.7979
  59   2.0000      -0.430668       -11.7191
  60   2.0000      -0.419894       -11.4259
  61   2.0000      -0.414496       -11.2790
  62   2.0000      -0.400746       -10.9049
  63   2.0000      -0.353406        -9.6167
  64   2.0000      -0.335939        -9.1414
  65   2.0000      -0.330549        -8.9947
  66   2.0000      -0.281507        -7.6602
  67   0.0000       0.024154         0.6573
  68   0.0000       0.072656         1.9771
  69   0.0000       0.095472         2.5979
  70   0.0000       0.123303         3.3552
  71   0.0000       0.130045         3.5387

MULLIKEN ATOMIC CHARGES
-----------------------
   0 S :    0.109593
   1 C :   -0.160078
   2 C :   -0.041954
   3 C :   -0.013602
   4 C :   -0.103598
   5 H :   -0.021961
   6 C :    0.051541
   7 H :    0.023060
   8 H :    0.035003
   9 C :   -0.072115
  10 H :    0.035438
  11 H :    0.042421
  12 C :   -0.043575
  13 H :    0.044077
  14 H :    0.030641
  15 H :    0.028212
  16 S :    0.078847
  17 C :   -0.085910
  18 C :   -0.021076
  19 C :   -0.062437
  20 C :   -0.131897
  21 H :    0.003083
  22 C :    0.085305
  23 H :    0.015882
  24 H :    0.025311
  25 C :   -0.064006
  26 H :    0.034031
  27 H :   -0.004045
  28 C :   -0.032877
  29 H :    0.033825
  30 H :    0.022755
  31 H :    0.050161
  32 H :    0.045801
  33 H :    0.064145
Sum of atomic charges:   -0.0000000

LOEWDIN ATOMIC CHARGES
----------------------
   0 S :    0.388107
   1 C :   -0.178950
   2 C :   -0.063778
   3 C :   -0.068002
   4 C :   -0.198745
   5 H :    0.026340
   6 C :   -0.026165
   7 H :    0.029747
   8 H :    0.029256
   9 C :   -0.035457
  10 H :    0.025219
  11 H :    0.028428
  12 C :   -0.065905
  13 H :    0.028506
  14 H :    0.028107
  15 H :    0.025288
  16 S :    0.373749
  17 C :   -0.180768
  18 C :   -0.067020
  19 C :   -0.055519
  20 C :   -0.171866
  21 H :    0.023335
  22 C :   -0.035345
  23 H :    0.030202
  24 H :    0.035015
  25 C :   -0.043190
  26 H :    0.030791
  27 H :    0.012313
  28 C :   -0.064113
  29 H :    0.010625
  30 H :    0.028935
  31 H :    0.041919
  32 H :    0.025497
  33 H :    0.033444

  Mayer bond orders larger than 0.100000
B(  0-S ,  1-C ) :   1.1140 B(  0-S ,  4-C ) :   1.1383 B(  1-C ,  2-C ) :   1.6606
B(  1-C , 32-H ) :   0.9583 B(  2-C ,  3-C ) :   1.2297 B(  2-C ,  6-C ) :   1.0063
B(  3-C ,  4-C ) :   1.5788 B(  3-C ,  5-H ) :   0.9772 B(  4-C , 20-C ) :   1.0674
B(  6-C ,  7-H ) :   0.9423 B(  6-C ,  8-H ) :   0.9435 B(  6-C ,  9-C ) :   1.0440
B(  9-C , 10-H ) :   0.9556 B(  9-C , 11-H ) :   0.9586 B(  9-C , 12-C ) :   1.0896
B( 12-C , 13-H ) :   0.9722 B( 12-C , 14-H ) :   0.9734 B( 12-C , 15-H ) :   0.9729
B( 16-S , 17-C ) :   1.1575 B( 16-S , 20-C ) :   1.1117 B( 17-C , 18-C ) :   1.6035
B( 17-C , 20-C ) :   0.1015 B( 17-C , 33-H ) :   0.9647 B( 18-C , 19-C ) :   1.2327
B( 18-C , 21-H ) :   0.9961 B( 19-C , 20-C ) :   1.6026 B( 19-C , 22-C ) :   1.0407
B( 22-C , 23-H ) :   0.9334 B( 22-C , 24-H ) :   0.9239 B( 22-C , 25-C ) :   1.0697
B( 25-C , 26-H ) :   0.9502 B( 25-C , 27-H ) :   0.9505 B( 25-C , 28-C ) :   1.1037
B( 28-C , 29-H ) :   0.9583 B( 28-C , 30-H ) :   0.9605 B( 28-C , 31-H ) :   0.9674

Dispersion correction           -0.014891617
FINAL SINGLE POINT ENERGY     -1339.868791607163

DIPOLE MOMENT
-------------
                                X             Y             Z
Electronic contribution:      7.90129       1.20108      31.18819
Nuclear contribution   :     -8.28804      -1.15124     -31.92877
                        -----------------------------------------
Total Dipole Moment    :     -0.38675       0.04985      -0.74058
                        -----------------------------------------
Magnitude (a.u.)       :      0.83697
Magnitude (Debye)      :      2.12741

Rotational constants in cm-1:     0.018194     0.009707     0.006915
Rotational constants in MHz :   545.438601   291.010810   207.301378

                             ****ORCA TERMINATED NORMALLY****
TOTAL RUN TIME: 0 days 0 hours 0 minutes 22 seconds 664 msec
