                         Program Version 4.2.1 -  RELEASE  -
|  1> ! wB97X-D3 SP def2-SVP
|  2> %pal
|  3> nprocs 24
|  4> end
|  5>
|  6> * xyz 0 1
|  7> S 	 -105.996 	 52.6245 	 -68.5868
|  8> C 	 -107.146 	 51.4931 	 -69.2428
|  9> C 	 -106.937 	 51.258 	 -70.564
| 10> C 	 -105.705 	 51.8857 	 -70.9948
| 11> C 	 -104.998 	 52.5324 	 -69.9959
| 12> H 	 -105.167 	 51.8731 	 -71.8935
| 13> C 	 -107.756 	 50.2804 	 -71.3348
| 14> H 	 -107.991 	 49.4892 	 -70.6623
| 15> H 	 -107.263 	 49.9424 	 -72.2507
| 16> C 	 -109.094 	 50.7907 	 -71.8145
| 17> H 	 -109.556 	 51.3524 	 -71.1241
| 18> H 	 -108.912 	 51.5627 	 -72.5872
| 19> C 	 -109.949 	 49.7061 	 -72.4219
| 20> H 	 -109.974 	 48.7778 	 -71.8707
| 21> H 	 -110.937 	 50.0928 	 -72.4035
| 22> H 	 -109.581 	 49.4482 	 -73.3954
| 23> S 	 -102.253 	 52.5159 	 -70.4798
| 24> C 	 -101.49 	 53.9683 	 -70.6997
| 25> C 	 -102.264 	 55.0398 	 -70.4471
| 26> C 	 -103.619 	 54.7105 	 -70.1253
| 27> C 	 -103.796 	 53.3733 	 -70.062
| 28> H 	 -101.812 	 56.0242 	 -70.4696
| 29> C 	 -104.703 	 55.7469 	 -69.9131
| 30> H 	 -104.201 	 56.4458 	 -69.1883
| 31> H 	 -105.595 	 55.234 	 -69.434
| 32> C 	 -105.046 	 56.6672 	 -71.087
| 33> H 	 -105.646 	 56.0382 	 -71.8241
| 34> H 	 -104.154 	 57.0797 	 -71.5393
| 35> C 	 -106.013 	 57.7907 	 -70.6854
| 36> H 	 -105.513 	 58.5307 	 -70.0961
| 37> H 	 -106.957 	 57.4254 	 -70.0696
| 38> H 	 -106.338 	 58.2986 	 -71.5593
| 39> H 	 -108.037 	 51.2958 	 -68.7033
| 40> H 	 -100.44 	 54.0051 	 -71.0141
| 41> *
| 42>
| 43>                          ****END OF INPUT****

CARTESIAN COORDINATES (ANGSTROEM)
---------------------------------
  S    -105.996000   52.624500  -68.586800
  C    -107.146000   51.493100  -69.242800
  C    -106.937000   51.258000  -70.564000
  C    -105.705000   51.885700  -70.994800
  C    -104.998000   52.532400  -69.995900
  H    -105.167000   51.873100  -71.893500
  C    -107.756000   50.280400  -71.334800
  H    -107.991000   49.489200  -70.662300
  H    -107.263000   49.942400  -72.250700
  C    -109.094000   50.790700  -71.814500
  H    -109.556000   51.352400  -71.124100
  H    -108.912000   51.562700  -72.587200
  C    -109.949000   49.706100  -72.421900
  H    -109.974000   48.777800  -71.870700
  H    -110.937000   50.092800  -72.403500
  H    -109.581000   49.448200  -73.395400
  S    -102.253000   52.515900  -70.479800
  C    -101.490000   53.968300  -70.699700
  C    -102.264000   55.039800  -70.447100
  C    -103.619000   54.710500  -70.125300
  C    -103.796000   53.373300  -70.062000
  H    -101.812000   56.024200  -70.469600
  C    -104.703000   55.746900  -69.913100
  H    -104.201000   56.445800  -69.188300
  H    -105.595000   55.234000  -69.434000
  C    -105.046000   56.667200  -71.087000
  H    -105.646000   56.038200  -71.824100
  H    -104.154000   57.079700  -71.539300
  C    -106.013000   57.790700  -70.685400
  H    -105.513000   58.530700  -70.096100
  H    -106.957000   57.425400  -70.069600
  H    -106.338000   58.298600  -71.559300
  H    -108.037000   51.295800  -68.703300
  H    -100.440000   54.005100  -71.014100

 Total Charge           Charge          ....    0
 Multiplicity           Mult            ....    1
 Number of Electrons    NEL             ....  134
 Basis Dimension        Dim             ....  322

ORBITAL ENERGIES
----------------

  NO   OCC          E(Eh)            E(eV)
   0   2.0000     -88.959932     -2420.7228
   1   2.0000     -88.959258     -2420.7045
   2   2.0000     -10.324810      -280.9524
   3   2.0000     -10.323182      -280.9081
   4   2.0000     -10.309125      -280.5256
   5   2.0000     -10.307115      -280.4709
   6   2.0000     -10.301664      -280.3225
   7   2.0000     -10.301095      -280.3070
   8   2.0000     -10.296729      -280.1882
   9   2.0000     -10.291577      -280.0481
  10   2.0000     -10.291333      -280.0414
  11   2.0000     -10.286871      -279.9200
  12   2.0000     -10.284605      -279.8583
  13   2.0000     -10.281331      -279.7692
  14   2.0000     -10.272219      -279.5213
  15   2.0000     -10.271238      -279.4946
  16   2.0000      -8.075611      -219.7486
  17   2.0000      -8.075297      -219.7400
  18   2.0000      -6.033921      -164.1913
  19   2.0000      -6.033629      -164.1834
  20   2.0000      -6.029972      -164.0839
  21   2.0000      -6.029669      -164.0756
  22   2.0000      -6.026395      -163.9865
  23   2.0000      -6.026255      -163.9827
  24   2.0000      -1.011765       -27.5315
  25   2.0000      -0.992306       -27.0020
  26   2.0000      -0.922857       -25.1122
  27   2.0000      -0.909885       -24.7592
  28   2.0000      -0.874658       -23.8006
  29   2.0000      -0.853891       -23.2356
  30   2.0000      -0.847965       -23.0743
  31   2.0000      -0.815908       -22.2020
  32   2.0000      -0.785419       -21.3724
  33   2.0000      -0.774618       -21.0784
  34   2.0000      -0.708460       -19.2782
  35   2.0000      -0.700900       -19.0724
  36   2.0000      -0.689410       -18.7598
  37   2.0000      -0.662170       -18.0186
  38   2.0000      -0.649678       -17.6786
  39   2.0000      -0.614870       -16.7315
  40   2.0000      -0.598581       -16.2882
  41   2.0000      -0.584690       -15.9102
  42   2.0000      -0.566593       -15.4178
  43   2.0000      -0.559675       -15.2295
  44   2.0000      -0.527555       -14.3555
  45   2.0000      -0.523124       -14.2349
  46   2.0000      -0.518724       -14.1152
  47   2.0000      -0.515834       -14.0366
  48   2.0000      -0.513095       -13.9620
  49   2.0000      -0.504167       -13.7191
  50   2.0000      -0.490924       -13.3587
  51   2.0000      -0.475764       -12.9462
  52   2.0000      -0.470509       -12.8032
  53   2.0000      -0.469260       -12.7692
  54   2.0000      -0.459813       -12.5122
  55   2.0000      -0.450552       -12.2601
  56   2.0000      -0.447452       -12.1758
  57   2.0000      -0.439850       -11.9689
  58   2.0000      -0.434437       -11.8216
  59   2.0000      -0.423808       -11.5324
  60   2.0000      -0.419659       -11.4195
  61   2.0000      -0.415787       -11.3141
  62   2.0000      -0.409389       -11.1401
  63   2.0000      -0.342194        -9.3116
  64   2.0000      -0.326611        -8.8875
  65   2.0000      -0.325160        -8.8481
  66   2.0000      -0.304493        -8.2857
  67   0.0000       0.041724         1.1354
  68   0.0000       0.068780         1.8716
  69   0.0000       0.111045         3.0217
  70   0.0000       0.118918         3.2359
  71   0.0000       0.130013         3.5378

MULLIKEN ATOMIC CHARGES
-----------------------
   0 S :    0.092560
   1 C :   -0.105882
   2 C :   -0.061746
   3 C :    0.073614
   4 C :   -0.187449
   5 H :   -0.016706
   6 C :    0.085103
   7 H :    0.021289
   8 H :    0.022168
   9 C :   -0.060714
  10 H :   -0.014596
  11 H :    0.016979
  12 C :   -0.000153
  13 H :    0.018908
  14 H :    0.028943
  15 H :    0.027232
  16 S :    0.101481
  17 C :   -0.088078
  18 C :   -0.043312
  19 C :    0.026858
  20 C :   -0.202200
  21 H :    0.012060
  22 C :    0.042742
  23 H :    0.029732
  24 H :    0.036982
  25 C :   -0.081190
  26 H :    0.040813
  27 H :    0.032450
  28 C :   -0.052727
  29 H :    0.022362
  30 H :    0.048500
  31 H :    0.029433
  32 H :    0.040824
  33 H :    0.063719
Sum of atomic charges:   -0.0000000

LOEWDIN ATOMIC CHARGES
----------------------
   0 S :    0.417512
   1 C :   -0.188629
   2 C :   -0.060111
   3 C :   -0.055096
   4 C :   -0.200200
   5 H :    0.021992
   6 C :   -0.026926
   7 H :    0.029911
   8 H :    0.033025
   9 C :   -0.035510
  10 H :    0.001218
  11 H :    0.028004
  12 C :   -0.054936
  13 H :    0.022057
  14 H :    0.027206
  15 H :    0.024504
  16 S :    0.410716
  17 C :   -0.203858
  18 C :   -0.085140
  19 C :   -0.049955
  20 C :   -0.190820
  21 H :    0.030292
  22 C :   -0.039504
  23 H :    0.037378
  24 H :    0.029017
  25 C :   -0.041684
  26 H :    0.031795
  27 H :    0.023539
  28 C :   -0.068047
  29 H :    0.016926
  30 H :    0.039825
  31 H :    0.021209
  32 H :    0.019849
  33 H :    0.034442

  Mayer bond orders larger than 0.100000
B(  0-S ,  1-C ) :   1.1482 B(  0-S ,  4-C ) :   1.1581 B(  1-C ,  2-C ) :   1.6123
B(  1-C , 32-H ) :   0.9716 B(  2-C ,  3-C ) :   1.2071 B(  2-C ,  6-C ) :   1.0264
B(  3-C ,  4-C ) :   1.6062 B(  3-C ,  5-H ) :   1.0054 B(  4-C , 20-C ) :   0.9879
B(  6-C ,  7-H ) :   0.9409 B(  6-C ,  8-H ) :   0.9429 B(  6-C ,  9-C ) :   1.0675
B(  9-C , 10-H ) :   0.9584 B(  9-C , 11-H ) :   0.9443 B(  9-C , 12-C ) :   1.0837
B( 12-C , 13-H ) :   0.9746 B( 12-C , 14-H ) :   0.9719 B( 12-C , 15-H ) :   0.9729
B( 16-S , 17-C ) :   1.1801 B( 16-S , 20-C ) :   1.1170 B( 17-C , 18-C ) :   1.6234
B( 17-C , 33-H ) :   0.9593 B( 18-C , 19-C ) :   1.2040 B( 18-C , 21-H ) :   0.9946
B( 19-C , 20-C ) :   1.6518 B( 19-C , 22-C ) :   1.0335 B( 22-C , 23-H ) :   0.9308
B( 22-C , 24-H ) :   0.9280 B( 22-C , 25-C ) :   1.0714 B( 25-C , 26-H ) :   0.9538
B( 25-C , 27-H ) :   0.9517 B( 25-C , 28-C ) :   1.0847 B( 28-C , 29-H ) :   0.9738
B( 28-C , 30-H ) :   0.9724 B( 28-C , 31-H ) :   0.9736

Dispersion correction           -0.013565587
FINAL SINGLE POINT ENERGY     -1339.867354272684

DIPOLE MOMENT
-------------
                                X             Y             Z
Electronic contribution:     21.08202      -6.72400      11.52298
Nuclear contribution   :    -21.38585       7.02002     -11.94267
                        -----------------------------------------
Total Dipole Moment    :     -0.30383       0.29602      -0.41968
                        -----------------------------------------
Magnitude (a.u.)       :      0.59672
Magnitude (Debye)      :      1.51675

Rotational constants in cm-1:     0.018843     0.007607     0.006381
Rotational constants in MHz :   564.900151   228.052012   191.293294

                             ****ORCA TERMINATED NORMALLY****
TOTAL RUN TIME: 0 days 0 hours 0 minutes 20 seconds 919 msec
