                         Program Version 4.2.1 -  RELEASE  -
|  1> ! wB97X-D3 SP def2-SVP
|  2> %pal
|  3> nprocs 24
|  4> end
|  5>
|  6> * xyz 0 1
|  7> S 	 45.78 	 -21.0224 	 -111.222
|  8> C 	 46.8368 	 -20.0928 	 -110.144
|  9> C 	 46.9988 	 -20.7792 	 -108.926
| 10> C 	 46.2053 	 -21.9379 	 -108.791
| 11> C 	 45.6042 	 -22.2701 	 -109.975
| 12> H 	 46.0807 	 -22.6058 	 -108.036
| 13> C 	 47.9875 	 -20.3825 	 -107.772
| 14> H 	 47.7128 	 -20.9281 	 -106.808
| 15> H 	 47.8299 	 -19.332 	 -107.42
| 16> C 	 49.5007 	 -20.6467 	 -108.139
| 17> H 	 50.0134 	 -19.9805 	 -108.871
| 18> H 	 50.0861 	 -20.2716 	 -107.339
| 19> C 	 49.7957 	 -22.134 	 -108.338
| 20> H 	 49.4902 	 -22.3415 	 -109.349
| 21> H 	 50.8619 	 -22.3757 	 -108.173
| 22> H 	 49.2413 	 -22.7474 	 -107.592
| 23> S 	 43.1826 	 -23.1536 	 -110.865
| 24> C 	 42.8856 	 -24.8618 	 -111.032
| 25> C 	 43.9211 	 -25.6433 	 -110.656
| 26> C 	 45.0181 	 -24.8315 	 -110.177
| 27> C 	 44.7448 	 -23.473 	 -110.18
| 28> H 	 43.9166 	 -26.7162 	 -110.784
| 29> C 	 46.3649 	 -25.4243 	 -109.823
| 30> H 	 46.2092 	 -26.3102 	 -109.229
| 31> H 	 47.0064 	 -24.876 	 -109.086
| 32> C 	 47.3103 	 -25.7135 	 -111.031
| 33> H 	 46.75 	 -26.1866 	 -111.885
| 34> H 	 48.1036 	 -26.3528 	 -110.731
| 35> C 	 47.9902 	 -24.4556 	 -111.427
| 36> H 	 48.6708 	 -24.6866 	 -112.275
| 37> H 	 48.5699 	 -24.0092 	 -110.591
| 38> H 	 47.331 	 -23.6119 	 -111.678
| 39> H 	 47.2761 	 -19.1132 	 -110.489
| 40> H 	 42.0159 	 -25.2458 	 -111.612
| 41> *
| 42>
| 43>                          ****END OF INPUT****

CARTESIAN COORDINATES (ANGSTROEM)
---------------------------------
  S     45.780000  -21.022400  -111.222000
  C     46.836800  -20.092800  -110.144000
  C     46.998800  -20.779200  -108.926000
  C     46.205300  -21.937900  -108.791000
  C     45.604200  -22.270100  -109.975000
  H     46.080700  -22.605800  -108.036000
  C     47.987500  -20.382500  -107.772000
  H     47.712800  -20.928100  -106.808000
  H     47.829900  -19.332000  -107.420000
  C     49.500700  -20.646700  -108.139000
  H     50.013400  -19.980500  -108.871000
  H     50.086100  -20.271600  -107.339000
  C     49.795700  -22.134000  -108.338000
  H     49.490200  -22.341500  -109.349000
  H     50.861900  -22.375700  -108.173000
  H     49.241300  -22.747400  -107.592000
  S     43.182600  -23.153600  -110.865000
  C     42.885600  -24.861800  -111.032000
  C     43.921100  -25.643300  -110.656000
  C     45.018100  -24.831500  -110.177000
  C     44.744800  -23.473000  -110.180000
  H     43.916600  -26.716200  -110.784000
  C     46.364900  -25.424300  -109.823000
  H     46.209200  -26.310200  -109.229000
  H     47.006400  -24.876000  -109.086000
  C     47.310300  -25.713500  -111.031000
  H     46.750000  -26.186600  -111.885000
  H     48.103600  -26.352800  -110.731000
  C     47.990200  -24.455600  -111.427000
  H     48.670800  -24.686600  -112.275000
  H     48.569900  -24.009200  -110.591000
  H     47.331000  -23.611900  -111.678000
  H     47.276100  -19.113200  -110.489000
  H     42.015900  -25.245800  -111.612000

 Total Charge           Charge          ....    0
 Multiplicity           Mult            ....    1
 Number of Electrons    NEL             ....  134
 Basis Dimension        Dim             ....  322

ORBITAL ENERGIES
----------------

  NO   OCC          E(Eh)            E(eV)
   0   2.0000     -88.970243     -2421.0034
   1   2.0000     -88.963122     -2420.8096
   2   2.0000     -10.331009      -281.1210
   3   2.0000     -10.325130      -280.9611
   4   2.0000     -10.324384      -280.9408
   5   2.0000     -10.316320      -280.7213
   6   2.0000     -10.309553      -280.5372
   7   2.0000     -10.307345      -280.4771
   8   2.0000     -10.306582      -280.4563
   9   2.0000     -10.294708      -280.1332
  10   2.0000     -10.289992      -280.0049
  11   2.0000     -10.287588      -279.9395
  12   2.0000     -10.286166      -279.9008
  13   2.0000     -10.281612      -279.7769
  14   2.0000     -10.279188      -279.7109
  15   2.0000     -10.268021      -279.4071
  16   2.0000      -8.083682      -219.9682
  17   2.0000      -8.078611      -219.8302
  18   2.0000      -6.042145      -164.4151
  19   2.0000      -6.038343      -164.3117
  20   2.0000      -6.037056      -164.2766
  21   2.0000      -6.034584      -164.2094
  22   2.0000      -6.033059      -164.1679
  23   2.0000      -6.029350      -164.0670
  24   2.0000      -1.006906       -27.3993
  25   2.0000      -0.983533       -26.7633
  26   2.0000      -0.907993       -24.7077
  27   2.0000      -0.900670       -24.5085
  28   2.0000      -0.866621       -23.5820
  29   2.0000      -0.853128       -23.2148
  30   2.0000      -0.845081       -22.9958
  31   2.0000      -0.814500       -22.1637
  32   2.0000      -0.776800       -21.1378
  33   2.0000      -0.765754       -20.8372
  34   2.0000      -0.703658       -19.1475
  35   2.0000      -0.695147       -18.9159
  36   2.0000      -0.686272       -18.6744
  37   2.0000      -0.660992       -17.9865
  38   2.0000      -0.648340       -17.6422
  39   2.0000      -0.614443       -16.7198
  40   2.0000      -0.599756       -16.3202
  41   2.0000      -0.566494       -15.4151
  42   2.0000      -0.552468       -15.0334
  43   2.0000      -0.549996       -14.9661
  44   2.0000      -0.542105       -14.7514
  45   2.0000      -0.528657       -14.3855
  46   2.0000      -0.518568       -14.1110
  47   2.0000      -0.504856       -13.7378
  48   2.0000      -0.499370       -13.5885
  49   2.0000      -0.490438       -13.3455
  50   2.0000      -0.487353       -13.2616
  51   2.0000      -0.476532       -12.9671
  52   2.0000      -0.467825       -12.7302
  53   2.0000      -0.465783       -12.6746
  54   2.0000      -0.461994       -12.5715
  55   2.0000      -0.445302       -12.1173
  56   2.0000      -0.437216       -11.8973
  57   2.0000      -0.432886       -11.7794
  58   2.0000      -0.430394       -11.7116
  59   2.0000      -0.422637       -11.5005
  60   2.0000      -0.420203       -11.4343
  61   2.0000      -0.410853       -11.1799
  62   2.0000      -0.404022       -10.9940
  63   2.0000      -0.347066        -9.4441
  64   2.0000      -0.332679        -9.0527
  65   2.0000      -0.330278        -8.9873
  66   2.0000      -0.295771        -8.0483
  67   0.0000       0.031159         0.8479
  68   0.0000       0.067604         1.8396
  69   0.0000       0.108354         2.9485
  70   0.0000       0.122878         3.3437
  71   0.0000       0.130748         3.5578

MULLIKEN ATOMIC CHARGES
-----------------------
   0 S :    0.109640
   1 C :   -0.155601
   2 C :   -0.044855
   3 C :    0.084113
   4 C :   -0.158253
   5 H :   -0.024365
   6 C :    0.018782
   7 H :    0.035774
   8 H :    0.038376
   9 C :   -0.062659
  10 H :    0.027756
  11 H :    0.005447
  12 C :   -0.066062
  13 H :    0.064442
  14 H :    0.037650
  15 H :    0.029569
  16 S :    0.098441
  17 C :   -0.101134
  18 C :   -0.018107
  19 C :   -0.025135
  20 C :   -0.167133
  21 H :    0.022283
  22 C :    0.035124
  23 H :    0.013413
  24 H :    0.014693
  25 C :   -0.040850
  26 H :    0.036530
  27 H :    0.020453
  28 C :   -0.058813
  29 H :    0.035494
  30 H :    0.015066
  31 H :    0.032036
  32 H :    0.077318
  33 H :    0.070569
Sum of atomic charges:   -0.0000000

LOEWDIN ATOMIC CHARGES
----------------------
   0 S :    0.391044
   1 C :   -0.201026
   2 C :   -0.059816
   3 C :   -0.051839
   4 C :   -0.177874
   5 H :    0.018509
   6 C :   -0.034334
   7 H :    0.035714
   8 H :    0.033022
   9 C :   -0.051796
  10 H :    0.030073
  11 H :    0.016516
  12 C :   -0.065582
  13 H :    0.025268
  14 H :    0.029673
  15 H :    0.026737
  16 S :    0.408406
  17 C :   -0.187381
  18 C :   -0.069440
  19 C :   -0.053451
  20 C :   -0.204768
  21 H :    0.035503
  22 C :   -0.039950
  23 H :    0.025263
  24 H :    0.032083
  25 C :   -0.037787
  26 H :    0.028314
  27 H :    0.021353
  28 C :   -0.073254
  29 H :    0.027692
  30 H :    0.024412
  31 H :    0.020465
  32 H :    0.041344
  33 H :    0.036908

  Mayer bond orders larger than 0.100000
B(  0-S ,  1-C ) :   1.1321 B(  0-S ,  4-C ) :   1.1505 B(  1-C ,  2-C ) :   1.5927
B(  1-C , 32-H ) :   0.9675 B(  2-C ,  3-C ) :   1.2201 B(  2-C ,  6-C ) :   1.0066
B(  3-C ,  4-C ) :   1.5901 B(  3-C ,  5-H ) :   1.0089 B(  4-C , 20-C ) :   1.0097
B(  6-C ,  7-H ) :   0.9515 B(  6-C ,  8-H ) :   0.9460 B(  6-C ,  9-C ) :   1.0661
B(  9-C , 10-H ) :   0.9551 B(  9-C , 11-H ) :   0.9511 B(  9-C , 12-C ) :   1.0677
B( 12-C , 13-H ) :   0.9704 B( 12-C , 14-H ) :   0.9727 B( 12-C , 15-H ) :   0.9754
B( 16-S , 17-C ) :   1.1541 B( 16-S , 20-C ) :   1.1384 B( 17-C , 18-C ) :   1.6287
B( 17-C , 33-H ) :   0.9580 B( 18-C , 19-C ) :   1.2262 B( 18-C , 21-H ) :   0.9938
B( 19-C , 20-C ) :   1.6196 B( 19-C , 22-C ) :   1.0432 B( 22-C , 23-H ) :   0.9296
B( 22-C , 24-H ) :   0.9406 B( 22-C , 25-C ) :   1.0715 B( 25-C , 26-H ) :   0.9549
B( 25-C , 27-H ) :   0.9481 B( 25-C , 28-C ) :   1.0881 B( 28-C , 29-H ) :   0.9679
B( 28-C , 30-H ) :   0.9661 B( 28-C , 31-H ) :   0.9696

Dispersion correction           -0.016840505
FINAL SINGLE POINT ENERGY     -1339.873526668035

DIPOLE MOMENT
-------------
                                X             Y             Z
Electronic contribution:    -25.73274       6.44320      -8.41073
Nuclear contribution   :     26.23642      -6.67401       8.66874
                        -----------------------------------------
Total Dipole Moment    :      0.50367      -0.23081       0.25801
                        -----------------------------------------
Magnitude (a.u.)       :      0.61117
Magnitude (Debye)      :      1.55348

Rotational constants in cm-1:     0.021338     0.009893     0.007911
Rotational constants in MHz :   639.691687   296.579715   237.153023

                             ****ORCA TERMINATED NORMALLY****
TOTAL RUN TIME: 0 days 0 hours 0 minutes 22 seconds 332 msec
