                         Program Version 4.2.1 -  RELEASE  -
|  1> ! wB97X-D3 SP def2-SVP
|  2> %pal
|  3> nprocs 24
|  4> end
|  5>
|  6> * xyz 0 1
|  7> S 	 -47.8961 	 19.6397 	 33.4026
|  8> C 	 -46.966 	 18.3754 	 32.612
|  9> C 	 -46.0405 	 18.9992 	 31.7625
| 10> C 	 -46.1449 	 20.4197 	 31.7166
| 11> C 	 -47.1823 	 20.9297 	 32.5533
| 12> H 	 -45.5387 	 21.0688 	 31.1935
| 13> C 	 -44.9597 	 18.2763 	 30.9547
| 14> H 	 -44.3965 	 17.533 	 31.5714
| 15> H 	 -44.3323 	 19.1097 	 30.5271
| 16> C 	 -45.5406 	 17.2957 	 29.921
| 17> H 	 -44.679 	 16.8838 	 29.3476
| 18> H 	 -45.9732 	 16.5468 	 30.5122
| 19> C 	 -46.4333 	 17.9783 	 28.8917
| 20> H 	 -46.4097 	 17.2818 	 28.0873
| 21> H 	 -47.424 	 18.1508 	 29.3608
| 22> H 	 -45.9623 	 18.9447 	 28.5751
| 23> S 	 -47.7258 	 22.9322 	 34.3188
| 24> C 	 -48.1761 	 24.4607 	 33.6335
| 25> C 	 -48.5339 	 24.4063 	 32.3249
| 26> C 	 -48.2411 	 23.155 	 31.7297
| 27> C 	 -47.7166 	 22.2469 	 32.633
| 28> H 	 -48.9306 	 25.2685 	 31.7353
| 29> C 	 -48.6375 	 22.9464 	 30.2807
| 30> H 	 -49.5391 	 23.5104 	 30.1276
| 31> H 	 -48.8181 	 21.9243 	 30.1204
| 32> C 	 -47.4186 	 23.5166 	 29.4718
| 33> H 	 -46.5257 	 23.0564 	 29.7378
| 34> H 	 -47.3614 	 24.632 	 29.7049
| 35> C 	 -47.5425 	 23.3537 	 27.929
| 36> H 	 -48.1619 	 22.5297 	 27.6992
| 37> H 	 -46.5726 	 23.206 	 27.4297
| 38> H 	 -47.9027 	 24.2814 	 27.5536
| 39> H 	 -47.1071 	 17.2718 	 32.7418
| 40> H 	 -48.4934 	 25.3173 	 34.1694
| 41> *
| 42>
| 43>                          ****END OF INPUT****

CARTESIAN COORDINATES (ANGSTROEM)
---------------------------------
  S    -47.896100   19.639700   33.402600
  C    -46.966000   18.375400   32.612000
  C    -46.040500   18.999200   31.762500
  C    -46.144900   20.419700   31.716600
  C    -47.182300   20.929700   32.553300
  H    -45.538700   21.068800   31.193500
  C    -44.959700   18.276300   30.954700
  H    -44.396500   17.533000   31.571400
  H    -44.332300   19.109700   30.527100
  C    -45.540600   17.295700   29.921000
  H    -44.679000   16.883800   29.347600
  H    -45.973200   16.546800   30.512200
  C    -46.433300   17.978300   28.891700
  H    -46.409700   17.281800   28.087300
  H    -47.424000   18.150800   29.360800
  H    -45.962300   18.944700   28.575100
  S    -47.725800   22.932200   34.318800
  C    -48.176100   24.460700   33.633500
  C    -48.533900   24.406300   32.324900
  C    -48.241100   23.155000   31.729700
  C    -47.716600   22.246900   32.633000
  H    -48.930600   25.268500   31.735300
  C    -48.637500   22.946400   30.280700
  H    -49.539100   23.510400   30.127600
  H    -48.818100   21.924300   30.120400
  C    -47.418600   23.516600   29.471800
  H    -46.525700   23.056400   29.737800
  H    -47.361400   24.632000   29.704900
  C    -47.542500   23.353700   27.929000
  H    -48.161900   22.529700   27.699200
  H    -46.572600   23.206000   27.429700
  H    -47.902700   24.281400   27.553600
  H    -47.107100   17.271800   32.741800
  H    -48.493400   25.317300   34.169400

 Total Charge           Charge          ....    0
 Multiplicity           Mult            ....    1
 Number of Electrons    NEL             ....  134
 Basis Dimension        Dim             ....  322

ORBITAL ENERGIES
----------------

  NO   OCC          E(Eh)            E(eV)
   0   2.0000     -88.966887     -2420.9121
   1   2.0000     -88.963899     -2420.8308
   2   2.0000     -10.327725      -281.0317
   3   2.0000     -10.327234      -281.0183
   4   2.0000     -10.319665      -280.8124
   5   2.0000     -10.311180      -280.5815
   6   2.0000     -10.303326      -280.3677
   7   2.0000     -10.302936      -280.3571
   8   2.0000     -10.294940      -280.1396
   9   2.0000     -10.292107      -280.0625
  10   2.0000     -10.291508      -280.0462
  11   2.0000     -10.290456      -280.0175
  12   2.0000     -10.289403      -279.9889
  13   2.0000     -10.282249      -279.7942
  14   2.0000     -10.276032      -279.6250
  15   2.0000     -10.271478      -279.5011
  16   2.0000      -8.082109      -219.9254
  17   2.0000      -8.078261      -219.8207
  18   2.0000      -6.040557      -164.3719
  19   2.0000      -6.036788      -164.2694
  20   2.0000      -6.036221      -164.2539
  21   2.0000      -6.033221      -164.1723
  22   2.0000      -6.033116      -164.1694
  23   2.0000      -6.028728      -164.0500
  24   2.0000      -1.007615       -27.4186
  25   2.0000      -0.984022       -26.7766
  26   2.0000      -0.915000       -24.8984
  27   2.0000      -0.908972       -24.7344
  28   2.0000      -0.870183       -23.6789
  29   2.0000      -0.851047       -23.1582
  30   2.0000      -0.844984       -22.9932
  31   2.0000      -0.810284       -22.0490
  32   2.0000      -0.784543       -21.3485
  33   2.0000      -0.772286       -21.0150
  34   2.0000      -0.707244       -19.2451
  35   2.0000      -0.698897       -19.0180
  36   2.0000      -0.695726       -18.9317
  37   2.0000      -0.664518       -18.0824
  38   2.0000      -0.641132       -17.4461
  39   2.0000      -0.608431       -16.5562
  40   2.0000      -0.592750       -16.1295
  41   2.0000      -0.575852       -15.6697
  42   2.0000      -0.567710       -15.4482
  43   2.0000      -0.546594       -14.8736
  44   2.0000      -0.546184       -14.8624
  45   2.0000      -0.528651       -14.3853
  46   2.0000      -0.516921       -14.0661
  47   2.0000      -0.512428       -13.9439
  48   2.0000      -0.510787       -13.8992
  49   2.0000      -0.503344       -13.6967
  50   2.0000      -0.492909       -13.4127
  51   2.0000      -0.480700       -13.0805
  52   2.0000      -0.474592       -12.9143
  53   2.0000      -0.465578       -12.6690
  54   2.0000      -0.459677       -12.5084
  55   2.0000      -0.446735       -12.1563
  56   2.0000      -0.441789       -12.0217
  57   2.0000      -0.435712       -11.8563
  58   2.0000      -0.430033       -11.7018
  59   2.0000      -0.429364       -11.6836
  60   2.0000      -0.419455       -11.4139
  61   2.0000      -0.414471       -11.2783
  62   2.0000      -0.408902       -11.1268
  63   2.0000      -0.340355        -9.2615
  64   2.0000      -0.331689        -9.0257
  65   2.0000      -0.328728        -8.9451
  66   2.0000      -0.289950        -7.8899
  67   0.0000       0.028357         0.7716
  68   0.0000       0.060132         1.6363
  69   0.0000       0.102847         2.7986
  70   0.0000       0.119283         3.2459
  71   0.0000       0.127926         3.4810

MULLIKEN ATOMIC CHARGES
-----------------------
   0 S :    0.120778
   1 C :   -0.152952
   2 C :   -0.089096
   3 C :    0.054487
   4 C :   -0.154296
   5 H :   -0.019740
   6 C :    0.042320
   7 H :    0.039765
   8 H :    0.032555
   9 C :   -0.098685
  10 H :    0.032476
  11 H :    0.017561
  12 C :   -0.033105
  13 H :    0.030406
  14 H :    0.053995
  15 H :    0.030573
  16 S :    0.094406
  17 C :   -0.042723
  18 C :   -0.072004
  19 C :   -0.045271
  20 C :   -0.186075
  21 H :    0.034609
  22 C :    0.135939
  23 H :    0.024214
  24 H :    0.020449
  25 C :   -0.119288
  26 H :    0.017531
  27 H :    0.037396
  28 C :    0.001620
  29 H :    0.026346
  30 H :    0.029178
  31 H :    0.022606
  32 H :    0.072211
  33 H :    0.041816
Sum of atomic charges:    0.0000000

LOEWDIN ATOMIC CHARGES
----------------------
   0 S :    0.438172
   1 C :   -0.218631
   2 C :   -0.064072
   3 C :   -0.061157
   4 C :   -0.214948
   5 H :    0.015017
   6 C :   -0.036435
   7 H :    0.037364
   8 H :    0.030924
   9 C :   -0.040442
  10 H :    0.026891
  11 H :    0.012929
  12 C :   -0.065246
  13 H :    0.021737
  14 H :    0.032237
  15 H :    0.029162
  16 S :    0.378943
  17 C :   -0.178881
  18 C :   -0.078366
  19 C :   -0.042072
  20 C :   -0.185434
  21 H :    0.039089
  22 C :   -0.013635
  23 H :    0.030256
  24 H :    0.023591
  25 C :   -0.030353
  26 H :    0.011997
  27 H :    0.031274
  28 C :   -0.063108
  29 H :    0.019205
  30 H :    0.028494
  31 H :    0.021181
  32 H :    0.040897
  33 H :    0.023421

  Mayer bond orders larger than 0.100000
B(  0-S ,  1-C ) :   1.1497 B(  0-S ,  4-C ) :   1.2002 B(  1-C ,  2-C ) :   1.5459
B(  1-C ,  4-C ) :   0.1121 B(  1-C , 32-H ) :   0.9684 B(  2-C ,  3-C ) :   1.2797
B(  2-C ,  6-C ) :   1.0157 B(  3-C ,  4-C ) :   1.5022 B(  3-C ,  5-H ) :   1.0137
B(  4-C , 20-C ) :   1.0409 B(  6-C ,  7-H ) :   0.9451 B(  6-C ,  8-H ) :   0.9459
B(  6-C ,  9-C ) :   1.0655 B(  9-C , 10-H ) :   0.9606 B(  9-C , 11-H ) :   0.9586
B(  9-C , 12-C ) :   1.0684 B( 12-C , 13-H ) :   0.9777 B( 12-C , 14-H ) :   0.9708
B( 12-C , 15-H ) :   0.9761 B( 16-S , 17-C ) :   1.1502 B( 16-S , 20-C ) :   1.1068
B( 17-C , 18-C ) :   1.6442 B( 17-C , 20-C ) :   0.1006 B( 17-C , 33-H ) :   0.9598
B( 18-C , 19-C ) :   1.2260 B( 18-C , 21-H ) :   0.9743 B( 19-C , 20-C ) :   1.6325
B( 19-C , 22-C ) :   1.0357 B( 22-C , 23-H ) :   0.9383 B( 22-C , 24-H ) :   0.9293
B( 22-C , 25-C ) :   1.0552 B( 25-C , 26-H ) :   0.9632 B( 25-C , 27-H ) :   0.9644
B( 25-C , 28-C ) :   1.0680 B( 28-C , 29-H ) :   0.9751 B( 28-C , 30-H ) :   0.9782
B( 28-C , 31-H ) :   0.9778

Dispersion correction           -0.014643123
FINAL SINGLE POINT ENERGY     -1339.857944863215

DIPOLE MOMENT
-------------
                                X             Y             Z
Electronic contribution:     -6.37944       4.45362      29.26188
Nuclear contribution   :      6.40858      -4.44434     -29.94010
                        -----------------------------------------
Total Dipole Moment    :      0.02914       0.00927      -0.67822
                        -----------------------------------------
Magnitude (a.u.)       :      0.67891
Magnitude (Debye)      :      1.72566

Rotational constants in cm-1:     0.017997     0.009806     0.006866
Rotational constants in MHz :   539.545122   293.984839   205.825373

                             ****ORCA TERMINATED NORMALLY****
TOTAL RUN TIME: 0 days 0 hours 0 minutes 22 seconds 194 msec
