                         Program Version 4.2.1 -  RELEASE  -
|  1> ! wB97X-D3 SP def2-SVP
|  2> %pal
|  3> nprocs 24
|  4> end
|  5>
|  6> * xyz 0 1
|  7> S 	 -59.0248 	 -55.706 	 -84.5008
|  8> C 	 -59.6883 	 -54.2218 	 -83.9644
|  9> C 	 -60.4886 	 -54.4649 	 -82.8552
| 10> C 	 -60.2707 	 -55.7581 	 -82.2898
| 11> C 	 -59.5408 	 -56.5967 	 -83.1173
| 12> H 	 -60.7361 	 -56.1052 	 -81.3557
| 13> C 	 -61.3435 	 -53.3422 	 -82.3031
| 14> H 	 -62.3145 	 -53.7588 	 -81.9537
| 15> H 	 -61.5596 	 -52.5267 	 -82.9776
| 16> C 	 -60.6439 	 -52.5779 	 -81.0639
| 17> H 	 -60.303 	 -53.3112 	 -80.3712
| 18> H 	 -59.7652 	 -52.0311 	 -81.4178
| 19> C 	 -61.7201 	 -51.5296 	 -80.366
| 20> H 	 -62.4485 	 -52.091 	 -79.8544
| 21> H 	 -61.1231 	 -50.9785 	 -79.5984
| 22> H 	 -62.1266 	 -50.8016 	 -80.9849
| 23> S 	 -58.7515 	 -58.5426 	 -81.3209
| 24> C 	 -58.3887 	 -60.1126 	 -81.9271
| 25> C 	 -58.8483 	 -60.3183 	 -83.2412
| 26> C 	 -59.3254 	 -59.0901 	 -83.824
| 27> C 	 -59.2413 	 -58.0128 	 -82.9453
| 28> H 	 -58.8349 	 -61.2383 	 -83.6704
| 29> C 	 -59.8959 	 -59.1107 	 -85.2068
| 30> H 	 -59.4576 	 -60.0756 	 -85.6736
| 31> H 	 -59.4234 	 -58.3443 	 -85.7876
| 32> C 	 -61.4174 	 -59.1053 	 -85.3077
| 33> H 	 -61.6631 	 -58.0809 	 -85.1372
| 34> H 	 -61.8375 	 -59.762 	 -84.5186
| 35> C 	 -61.8379 	 -59.465 	 -86.7673
| 36> H 	 -61.5115 	 -58.6891 	 -87.4507
| 37> H 	 -62.8864 	 -59.659 	 -86.9059
| 38> H 	 -61.375 	 -60.4727 	 -86.9808
| 39> H 	 -59.6373 	 -53.3201 	 -84.4681
| 40> H 	 -58.0298 	 -60.9149 	 -81.318
| 41> *
| 42>
| 43>                          ****END OF INPUT****

CARTESIAN COORDINATES (ANGSTROEM)
---------------------------------
  S    -59.024800  -55.706000  -84.500800
  C    -59.688300  -54.221800  -83.964400
  C    -60.488600  -54.464900  -82.855200
  C    -60.270700  -55.758100  -82.289800
  C    -59.540800  -56.596700  -83.117300
  H    -60.736100  -56.105200  -81.355700
  C    -61.343500  -53.342200  -82.303100
  H    -62.314500  -53.758800  -81.953700
  H    -61.559600  -52.526700  -82.977600
  C    -60.643900  -52.577900  -81.063900
  H    -60.303000  -53.311200  -80.371200
  H    -59.765200  -52.031100  -81.417800
  C    -61.720100  -51.529600  -80.366000
  H    -62.448500  -52.091000  -79.854400
  H    -61.123100  -50.978500  -79.598400
  H    -62.126600  -50.801600  -80.984900
  S    -58.751500  -58.542600  -81.320900
  C    -58.388700  -60.112600  -81.927100
  C    -58.848300  -60.318300  -83.241200
  C    -59.325400  -59.090100  -83.824000
  C    -59.241300  -58.012800  -82.945300
  H    -58.834900  -61.238300  -83.670400
  C    -59.895900  -59.110700  -85.206800
  H    -59.457600  -60.075600  -85.673600
  H    -59.423400  -58.344300  -85.787600
  C    -61.417400  -59.105300  -85.307700
  H    -61.663100  -58.080900  -85.137200
  H    -61.837500  -59.762000  -84.518600
  C    -61.837900  -59.465000  -86.767300
  H    -61.511500  -58.689100  -87.450700
  H    -62.886400  -59.659000  -86.905900
  H    -61.375000  -60.472700  -86.980800
  H    -59.637300  -53.320100  -84.468100
  H    -58.029800  -60.914900  -81.318000

 Total Charge           Charge          ....    0
 Multiplicity           Mult            ....    1
 Number of Electrons    NEL             ....  134
 Basis Dimension        Dim             ....  322

ORBITAL ENERGIES
----------------

  NO   OCC          E(Eh)            E(eV)
   0   2.0000     -88.968230     -2420.9486
   1   2.0000     -88.965085     -2420.8630
   2   2.0000     -10.329906      -281.0910
   3   2.0000     -10.328611      -281.0558
   4   2.0000     -10.316764      -280.7334
   5   2.0000     -10.305742      -280.4335
   6   2.0000     -10.303088      -280.3613
   7   2.0000     -10.301410      -280.3156
   8   2.0000     -10.296556      -280.1835
   9   2.0000     -10.295819      -280.1635
  10   2.0000     -10.294397      -280.1248
  11   2.0000     -10.290125      -280.0085
  12   2.0000     -10.290085      -280.0075
  13   2.0000     -10.285189      -279.8742
  14   2.0000     -10.280255      -279.7399
  15   2.0000     -10.279537      -279.7204
  16   2.0000      -8.082850      -219.9455
  17   2.0000      -8.080592      -219.8841
  18   2.0000      -6.041287      -164.3918
  19   2.0000      -6.039064      -164.3313
  20   2.0000      -6.037473      -164.2880
  21   2.0000      -6.034815      -164.2157
  22   2.0000      -6.033620      -164.1832
  23   2.0000      -6.031534      -164.1264
  24   2.0000      -1.010032       -27.4844
  25   2.0000      -0.986345       -26.8398
  26   2.0000      -0.909916       -24.7601
  27   2.0000      -0.897952       -24.4345
  28   2.0000      -0.866401       -23.5760
  29   2.0000      -0.851320       -23.1656
  30   2.0000      -0.840888       -22.8817
  31   2.0000      -0.813458       -22.1353
  32   2.0000      -0.780590       -21.2409
  33   2.0000      -0.767772       -20.8921
  34   2.0000      -0.709907       -19.3175
  35   2.0000      -0.702667       -19.1205
  36   2.0000      -0.690438       -18.7878
  37   2.0000      -0.673283       -18.3210
  38   2.0000      -0.642197       -17.4751
  39   2.0000      -0.619771       -16.8648
  40   2.0000      -0.596545       -16.2328
  41   2.0000      -0.570305       -15.5188
  42   2.0000      -0.566261       -15.4087
  43   2.0000      -0.556467       -15.1422
  44   2.0000      -0.521177       -14.1819
  45   2.0000      -0.520415       -14.1612
  46   2.0000      -0.518182       -14.1004
  47   2.0000      -0.509539       -13.8653
  48   2.0000      -0.505095       -13.7443
  49   2.0000      -0.502111       -13.6631
  50   2.0000      -0.489224       -13.3125
  51   2.0000      -0.479028       -13.0350
  52   2.0000      -0.473350       -12.8805
  53   2.0000      -0.463690       -12.6176
  54   2.0000      -0.462176       -12.5764
  55   2.0000      -0.451664       -12.2904
  56   2.0000      -0.442386       -12.0379
  57   2.0000      -0.440053       -11.9745
  58   2.0000      -0.433850       -11.8057
  59   2.0000      -0.431385       -11.7386
  60   2.0000      -0.423274       -11.5179
  61   2.0000      -0.412108       -11.2140
  62   2.0000      -0.407783       -11.0963
  63   2.0000      -0.351850        -9.5743
  64   2.0000      -0.331481        -9.0201
  65   2.0000      -0.326539        -8.8856
  66   2.0000      -0.284632        -7.7452
  67   0.0000       0.027879         0.7586
  68   0.0000       0.071998         1.9592
  69   0.0000       0.099270         2.7013
  70   0.0000       0.128571         3.4986
  71   0.0000       0.130770         3.5584

MULLIKEN ATOMIC CHARGES
-----------------------
   0 S :    0.114586
   1 C :   -0.089944
   2 C :   -0.082082
   3 C :    0.008400
   4 C :   -0.136368
   5 H :    0.019548
   6 C :    0.038364
   7 H :    0.032334
   8 H :    0.022393
   9 C :   -0.093724
  10 H :    0.029064
  11 H :    0.034088
  12 C :   -0.041588
  13 H :    0.030499
  14 H :    0.035077
  15 H :    0.028442
  16 S :    0.115221
  17 C :   -0.079696
  18 C :   -0.003354
  19 C :   -0.040714
  20 C :   -0.144597
  21 H :   -0.019045
  22 C :    0.022863
  23 H :    0.017647
  24 H :    0.021345
  25 C :   -0.037351
  26 H :    0.029948
  27 H :    0.040560
  28 C :   -0.050348
  29 H :    0.041507
  30 H :    0.032707
  31 H :    0.028848
  32 H :    0.023767
  33 H :    0.051603
Sum of atomic charges:    0.0000000

LOEWDIN ATOMIC CHARGES
----------------------
   0 S :    0.437816
   1 C :   -0.200227
   2 C :   -0.061686
   3 C :   -0.075119
   4 C :   -0.200677
   5 H :    0.032784
   6 C :   -0.034151
   7 H :    0.031503
   8 H :    0.026662
   9 C :   -0.025398
  10 H :    0.016236
  11 H :    0.021659
  12 C :   -0.058487
  13 H :    0.018306
  14 H :    0.032223
  15 H :    0.014352
  16 S :    0.413141
  17 C :   -0.185719
  18 C :   -0.055885
  19 C :   -0.054097
  20 C :   -0.192783
  21 H :    0.013830
  22 C :   -0.039815
  23 H :    0.032618
  24 H :    0.020739
  25 C :   -0.034048
  26 H :    0.023303
  27 H :    0.029587
  28 C :   -0.064609
  29 H :    0.027800
  30 H :    0.022192
  31 H :    0.028789
  32 H :    0.015003
  33 H :    0.024159

  Mayer bond orders larger than 0.100000
B(  0-S ,  1-C ) :   1.1491 B(  0-S ,  4-C ) :   1.1728 B(  1-C ,  2-C ) :   1.5682
B(  1-C , 32-H ) :   0.9820 B(  2-C ,  3-C ) :   1.2684 B(  2-C ,  6-C ) :   1.0419
B(  3-C ,  4-C ) :   1.5334 B(  3-C ,  5-H ) :   0.9893 B(  4-C , 20-C ) :   1.0525
B(  6-C ,  7-H ) :   0.9435 B(  6-C ,  8-H ) :   0.9492 B(  6-C ,  9-C ) :   1.0436
B(  9-C , 10-H ) :   0.9653 B(  9-C , 11-H ) :   0.9633 B(  9-C , 12-C ) :   1.0593
B( 12-C , 13-H ) :   0.9810 B( 12-C , 14-H ) :   0.9780 B( 12-C , 15-H ) :   0.9816
B( 16-S , 17-C ) :   1.1701 B( 16-S , 20-C ) :   1.1345 B( 17-C , 18-C ) :   1.5873
B( 17-C , 33-H ) :   0.9683 B( 18-C , 19-C ) :   1.2474 B( 18-C , 21-H ) :   1.0059
B( 19-C , 20-C ) :   1.5692 B( 19-C , 22-C ) :   1.0471 B( 22-C , 23-H ) :   0.9370
B( 22-C , 24-H ) :   0.9267 B( 22-C , 25-C ) :   1.0497 B( 25-C , 26-H ) :   0.9512
B( 25-C , 27-H ) :   0.9583 B( 25-C , 28-C ) :   1.0780 B( 28-C , 29-H ) :   0.9745
B( 28-C , 30-H ) :   0.9766 B( 28-C , 31-H ) :   0.9763

Dispersion correction           -0.013982678
FINAL SINGLE POINT ENERGY     -1339.869916701083

DIPOLE MOMENT
-------------
                                X             Y             Z
Electronic contribution:     15.39789      -9.08868       3.38690
Nuclear contribution   :    -15.80113       9.12266      -3.41536
                        -----------------------------------------
Total Dipole Moment    :     -0.40324       0.03398      -0.02846
                        -----------------------------------------
Magnitude (a.u.)       :      0.40567
Magnitude (Debye)      :      1.03114

Rotational constants in cm-1:     0.020288     0.007573     0.006265
Rotational constants in MHz :   608.220632   227.045417   187.823208

                             ****ORCA TERMINATED NORMALLY****
TOTAL RUN TIME: 0 days 0 hours 0 minutes 20 seconds 954 msec
