                         Program Version 4.2.1 -  RELEASE  -
|  1> ! wB97X-D3 SP def2-SVP
|  2> %pal
|  3> nprocs 24
|  4> end
|  5>
|  6> * xyz 0 1
|  7> S 	 -107.444 	 4.01912 	 -112.04
|  8> C 	 -108.114 	 4.67541 	 -113.471
|  9> C 	 -107.416 	 4.29805 	 -114.676
| 10> C 	 -106.106 	 3.69053 	 -114.328
| 11> C 	 -105.996 	 3.4829 	 -112.941
| 12> H 	 -105.394 	 3.2829 	 -115.045
| 13> C 	 -107.753 	 4.76441 	 -116.097
| 14> H 	 -108.678 	 5.37905 	 -116.012
| 15> H 	 -107.945 	 3.84602 	 -116.686
| 16> C 	 -106.718 	 5.61853 	 -116.758
| 17> H 	 -106.653 	 6.54212 	 -116.166
| 18> H 	 -105.81 	 5.09966 	 -116.685
| 19> C 	 -107.12 	 5.89543 	 -118.228
| 20> H 	 -107.937 	 6.50972 	 -118.175
| 21> H 	 -106.332 	 6.34964 	 -118.768
| 22> H 	 -107.437 	 4.94373 	 -118.577
| 23> S 	 -104.076 	 3.96976 	 -111.051
| 24> C 	 -102.928 	 2.70888 	 -110.689
| 25> C 	 -103.009 	 1.68793 	 -111.509
| 26> C 	 -104.112 	 1.76036 	 -112.417
| 27> C 	 -104.896 	 2.86835 	 -112.156
| 28> H 	 -102.206 	 0.957957 	 -111.487
| 29> C 	 -104.493 	 0.728372 	 -113.458
| 30> H 	 -103.63 	 0.596349 	 -114.153
| 31> H 	 -105.428 	 0.937904 	 -113.95
| 32> C 	 -104.57 	 -0.688467 	 -112.859
| 33> H 	 -105.109 	 -0.710004 	 -111.944
| 34> H 	 -103.548 	 -1.06937 	 -112.668
| 35> C 	 -105.25 	 -1.7427 	 -113.813
| 36> H 	 -105.293 	 -2.78976 	 -113.369
| 37> H 	 -104.818 	 -1.84471 	 -114.865
| 38> H 	 -106.224 	 -1.38407 	 -113.901
| 39> H 	 -109.063 	 5.27699 	 -113.503
| 40> H 	 -102.184 	 2.75653 	 -109.923
| 41> *
| 42>
| 43>                          ****END OF INPUT****

CARTESIAN COORDINATES (ANGSTROEM)
---------------------------------
  S    -107.444000    4.019120  -112.040000
  C    -108.114000    4.675410  -113.471000
  C    -107.416000    4.298050  -114.676000
  C    -106.106000    3.690530  -114.328000
  C    -105.996000    3.482900  -112.941000
  H    -105.394000    3.282900  -115.045000
  C    -107.753000    4.764410  -116.097000
  H    -108.678000    5.379050  -116.012000
  H    -107.945000    3.846020  -116.686000
  C    -106.718000    5.618530  -116.758000
  H    -106.653000    6.542120  -116.166000
  H    -105.810000    5.099660  -116.685000
  C    -107.120000    5.895430  -118.228000
  H    -107.937000    6.509720  -118.175000
  H    -106.332000    6.349640  -118.768000
  H    -107.437000    4.943730  -118.577000
  S    -104.076000    3.969760  -111.051000
  C    -102.928000    2.708880  -110.689000
  C    -103.009000    1.687930  -111.509000
  C    -104.112000    1.760360  -112.417000
  C    -104.896000    2.868350  -112.156000
  H    -102.206000    0.957957  -111.487000
  C    -104.493000    0.728372  -113.458000
  H    -103.630000    0.596349  -114.153000
  H    -105.428000    0.937904  -113.950000
  C    -104.570000   -0.688467  -112.859000
  H    -105.109000   -0.710004  -111.944000
  H    -103.548000   -1.069370  -112.668000
  C    -105.250000   -1.742700  -113.813000
  H    -105.293000   -2.789760  -113.369000
  H    -104.818000   -1.844710  -114.865000
  H    -106.224000   -1.384070  -113.901000
  H    -109.063000    5.276990  -113.503000
  H    -102.184000    2.756530  -109.923000

 Total Charge           Charge          ....    0
 Multiplicity           Mult            ....    1
 Number of Electrons    NEL             ....  134
 Basis Dimension        Dim             ....  322

ORBITAL ENERGIES
----------------

  NO   OCC          E(Eh)            E(eV)
   0   2.0000     -88.968106     -2420.9452
   1   2.0000     -88.959522     -2420.7117
   2   2.0000     -10.334631      -281.2196
   3   2.0000     -10.323574      -280.9187
   4   2.0000     -10.321241      -280.8552
   5   2.0000     -10.311150      -280.5806
   6   2.0000     -10.308257      -280.5019
   7   2.0000     -10.305379      -280.4236
   8   2.0000     -10.304477      -280.3991
   9   2.0000     -10.294447      -280.1261
  10   2.0000     -10.294141      -280.1178
  11   2.0000     -10.287756      -279.9441
  12   2.0000     -10.285441      -279.8811
  13   2.0000     -10.283412      -279.8259
  14   2.0000     -10.277984      -279.6782
  15   2.0000     -10.267172      -279.3840
  16   2.0000      -8.082764      -219.9432
  17   2.0000      -8.074804      -219.7266
  18   2.0000      -6.041161      -164.3883
  19   2.0000      -6.037323      -164.2839
  20   2.0000      -6.033617      -164.1831
  21   2.0000      -6.033277      -164.1738
  22   2.0000      -6.029507      -164.0712
  23   2.0000      -6.025270      -163.9559
  24   2.0000      -1.005701       -27.3665
  25   2.0000      -0.978808       -26.6347
  26   2.0000      -0.917557       -24.9680
  27   2.0000      -0.907548       -24.6956
  28   2.0000      -0.869024       -23.6473
  29   2.0000      -0.849155       -23.1067
  30   2.0000      -0.843395       -22.9499
  31   2.0000      -0.814838       -22.1729
  32   2.0000      -0.780004       -21.2250
  33   2.0000      -0.767557       -20.8863
  34   2.0000      -0.706927       -19.2364
  35   2.0000      -0.695728       -18.9317
  36   2.0000      -0.687792       -18.7158
  37   2.0000      -0.654076       -17.7983
  38   2.0000      -0.636932       -17.3318
  39   2.0000      -0.619598       -16.8601
  40   2.0000      -0.599766       -16.3205
  41   2.0000      -0.578315       -15.7367
  42   2.0000      -0.572169       -15.5695
  43   2.0000      -0.561861       -15.2890
  44   2.0000      -0.531751       -14.4697
  45   2.0000      -0.517818       -14.0905
  46   2.0000      -0.511740       -13.9252
  47   2.0000      -0.504913       -13.7394
  48   2.0000      -0.502510       -13.6740
  49   2.0000      -0.500315       -13.6143
  50   2.0000      -0.487614       -13.2686
  51   2.0000      -0.475106       -12.9283
  52   2.0000      -0.471687       -12.8352
  53   2.0000      -0.465281       -12.6609
  54   2.0000      -0.459793       -12.5116
  55   2.0000      -0.449351       -12.2275
  56   2.0000      -0.447149       -12.1675
  57   2.0000      -0.439221       -11.9518
  58   2.0000      -0.430901       -11.7254
  59   2.0000      -0.425124       -11.5682
  60   2.0000      -0.421278       -11.4635
  61   2.0000      -0.420445       -11.4409
  62   2.0000      -0.417894       -11.3715
  63   2.0000      -0.345774        -9.4090
  64   2.0000      -0.327313        -8.9066
  65   2.0000      -0.324548        -8.8314
  66   2.0000      -0.295631        -8.0445
  67   0.0000       0.031964         0.8698
  68   0.0000       0.071560         1.9472
  69   0.0000       0.106920         2.9094
  70   0.0000       0.110195         2.9986
  71   0.0000       0.130370         3.5475

MULLIKEN ATOMIC CHARGES
-----------------------
   0 S :    0.124338
   1 C :   -0.129333
   2 C :   -0.113552
   3 C :    0.032385
   4 C :   -0.184165
   5 H :    0.033944
   6 C :    0.013890
   7 H :    0.021681
   8 H :    0.038332
   9 C :   -0.081200
  10 H :    0.032949
  11 H :    0.015407
  12 C :    0.041241
  13 H :    0.006523
  14 H :    0.034944
  15 H :    0.010936
  16 S :    0.096041
  17 C :   -0.059859
  18 C :   -0.030541
  19 C :   -0.028984
  20 C :   -0.144457
  21 H :    0.015584
  22 C :    0.087571
  23 H :    0.034135
  24 H :    0.029050
  25 C :   -0.103353
  26 H :    0.032035
  27 H :    0.030343
  28 C :   -0.076348
  29 H :    0.047770
  30 H :    0.039628
  31 H :    0.022616
  32 H :    0.070178
  33 H :    0.040272
Sum of atomic charges:    0.0000000

LOEWDIN ATOMIC CHARGES
----------------------
   0 S :    0.412293
   1 C :   -0.222923
   2 C :   -0.060851
   3 C :   -0.059357
   4 C :   -0.188456
   5 H :    0.034644
   6 C :   -0.038807
   7 H :    0.030833
   8 H :    0.032109
   9 C :   -0.034906
  10 H :    0.027495
  11 H :    0.011655
  12 C :   -0.041861
  13 H :    0.014717
  14 H :    0.024264
  15 H :    0.021292
  16 S :    0.392927
  17 C :   -0.169897
  18 C :   -0.075352
  19 C :   -0.048631
  20 C :   -0.203653
  21 H :    0.034273
  22 C :   -0.029994
  23 H :    0.040307
  24 H :    0.027608
  25 C :   -0.037505
  26 H :    0.019148
  27 H :    0.020459
  28 C :   -0.072953
  29 H :    0.034569
  30 H :    0.029904
  31 H :    0.013313
  32 H :    0.037048
  33 H :    0.026290

  Mayer bond orders larger than 0.100000
B(  0-S ,  1-C ) :   1.1570 B(  0-S ,  4-C ) :   1.1533 B(  1-C ,  2-C ) :   1.6002
B(  1-C , 32-H ) :   0.9568 B(  2-C ,  3-C ) :   1.2215 B(  2-C ,  6-C ) :   1.0357
B(  3-C ,  4-C ) :   1.5909 B(  3-C ,  5-H ) :   0.9821 B(  4-C , 20-C ) :   1.0011
B(  6-C ,  7-H ) :   0.9481 B(  6-C ,  8-H ) :   0.9293 B(  6-C ,  9-C ) :   1.0725
B(  9-C , 10-H ) :   0.9546 B(  9-C , 11-H ) :   0.9537 B(  9-C , 12-C ) :   1.0727
B( 12-C , 13-H ) :   0.9745 B( 12-C , 14-H ) :   0.9736 B( 12-C , 15-H ) :   0.9738
B( 16-S , 17-C ) :   1.1351 B( 16-S , 20-C ) :   1.1339 B( 17-C , 18-C ) :   1.6679
B( 17-C , 33-H ) :   0.9644 B( 18-C , 19-C ) :   1.1929 B( 18-C , 21-H ) :   0.9926
B( 19-C , 20-C ) :   1.6266 B( 19-C , 22-C ) :   1.0588 B( 22-C , 23-H ) :   0.9233
B( 22-C , 24-H ) :   0.9428 B( 22-C , 25-C ) :   1.0541 B( 25-C , 26-H ) :   0.9608
B( 25-C , 27-H ) :   0.9552 B( 25-C , 28-C ) :   1.0772 B( 28-C , 29-H ) :   0.9753
B( 28-C , 30-H ) :   0.9752 B( 28-C , 31-H ) :   0.9774

Dispersion correction           -0.013431484
FINAL SINGLE POINT ENERGY     -1339.863959975789

DIPOLE MOMENT
-------------
                                X             Y             Z
Electronic contribution:      1.92791      10.38148      24.36470
Nuclear contribution   :     -1.75057     -10.63684     -24.89669
                        -----------------------------------------
Total Dipole Moment    :      0.17734      -0.25536      -0.53199
                        -----------------------------------------
Magnitude (a.u.)       :      0.61618
Magnitude (Debye)      :      1.56620

Rotational constants in cm-1:     0.017140     0.007893     0.006615
Rotational constants in MHz :   513.850510   236.634771   198.324824

                             ****ORCA TERMINATED NORMALLY****
TOTAL RUN TIME: 0 days 0 hours 0 minutes 20 seconds 986 msec
