                         Program Version 4.2.1 -  RELEASE  -
|  1> ! wB97X-D3 SP def2-SVP
|  2> %pal
|  3> nprocs 24
|  4> end
|  5>
|  6> * xyz 0 1
|  7> S 	 -87.0168 	 -7.19816 	 -60.5972
|  8> C 	 -88.7078 	 -7.40495 	 -61.0684
|  9> C 	 -89.554 	 -6.52025 	 -60.4123
| 10> C 	 -88.8173 	 -5.55204 	 -59.6993
| 11> C 	 -87.4686 	 -5.72899 	 -59.7264
| 12> H 	 -89.1636 	 -4.73345 	 -59.1242
| 13> C 	 -91.1041 	 -6.43859 	 -60.4827
| 14> H 	 -91.5437 	 -7.04905 	 -59.7058
| 15> H 	 -91.4965 	 -6.80892 	 -61.3922
| 16> C 	 -91.5579 	 -4.96857 	 -60.2494
| 17> H 	 -91.4487 	 -4.66473 	 -59.2139
| 18> H 	 -91.0234 	 -4.20417 	 -60.7884
| 19> C 	 -93.0268 	 -4.65786 	 -60.6101
| 20> H 	 -93.1777 	 -4.87692 	 -61.6663
| 21> H 	 -93.7237 	 -5.32525 	 -60.1129
| 22> H 	 -93.3363 	 -3.63133 	 -60.2376
| 23> S 	 -85.3481 	 -6.08434 	 -58.0599
| 24> C 	 -84.4935 	 -4.59867 	 -57.5185
| 25> C 	 -85.1394 	 -3.4298 	 -57.8995
| 26> C 	 -86.201 	 -3.66942 	 -58.7528
| 27> C 	 -86.4783 	 -5.06399 	 -58.9072
| 28> H 	 -84.7518 	 -2.47558 	 -57.627
| 29> C 	 -86.8749 	 -2.52749 	 -59.4599
| 30> H 	 -86.8445 	 -1.70983 	 -58.8061
| 31> H 	 -87.9688 	 -2.7028 	 -59.7432
| 32> C 	 -86.0531 	 -2.08451 	 -60.6425
| 33> H 	 -85.7901 	 -2.97016 	 -61.1644
| 34> H 	 -85.2076 	 -1.58797 	 -60.28
| 35> C 	 -86.8166 	 -1.15708 	 -61.555
| 36> H 	 -86.2828 	 -0.843886 	 -62.5116
| 37> H 	 -87.0485 	 -0.240217 	 -61.0086
| 38> H 	 -87.7188 	 -1.58868 	 -61.8037
| 39> H 	 -88.9638 	 -8.33407 	 -61.5782
| 40> H 	 -83.7851 	 -4.58658 	 -56.6686
| 41> *
| 42>
| 43>                          ****END OF INPUT****

CARTESIAN COORDINATES (ANGSTROEM)
---------------------------------
  S    -87.016800   -7.198160  -60.597200
  C    -88.707800   -7.404950  -61.068400
  C    -89.554000   -6.520250  -60.412300
  C    -88.817300   -5.552040  -59.699300
  C    -87.468600   -5.728990  -59.726400
  H    -89.163600   -4.733450  -59.124200
  C    -91.104100   -6.438590  -60.482700
  H    -91.543700   -7.049050  -59.705800
  H    -91.496500   -6.808920  -61.392200
  C    -91.557900   -4.968570  -60.249400
  H    -91.448700   -4.664730  -59.213900
  H    -91.023400   -4.204170  -60.788400
  C    -93.026800   -4.657860  -60.610100
  H    -93.177700   -4.876920  -61.666300
  H    -93.723700   -5.325250  -60.112900
  H    -93.336300   -3.631330  -60.237600
  S    -85.348100   -6.084340  -58.059900
  C    -84.493500   -4.598670  -57.518500
  C    -85.139400   -3.429800  -57.899500
  C    -86.201000   -3.669420  -58.752800
  C    -86.478300   -5.063990  -58.907200
  H    -84.751800   -2.475580  -57.627000
  C    -86.874900   -2.527490  -59.459900
  H    -86.844500   -1.709830  -58.806100
  H    -87.968800   -2.702800  -59.743200
  C    -86.053100   -2.084510  -60.642500
  H    -85.790100   -2.970160  -61.164400
  H    -85.207600   -1.587970  -60.280000
  C    -86.816600   -1.157080  -61.555000
  H    -86.282800   -0.843886  -62.511600
  H    -87.048500   -0.240217  -61.008600
  H    -87.718800   -1.588680  -61.803700
  H    -88.963800   -8.334070  -61.578200
  H    -83.785100   -4.586580  -56.668600

 Total Charge           Charge          ....    0
 Multiplicity           Mult            ....    1
 Number of Electrons    NEL             ....  134
 Basis Dimension        Dim             ....  322

ORBITAL ENERGIES
----------------

  NO   OCC          E(Eh)            E(eV)
   0   2.0000     -88.971683     -2421.0426
   1   2.0000     -88.964138     -2420.8373
   2   2.0000     -10.327955      -281.0379
   3   2.0000     -10.324375      -280.9405
   4   2.0000     -10.319310      -280.8027
   5   2.0000     -10.315260      -280.6925
   6   2.0000     -10.305961      -280.4395
   7   2.0000     -10.301099      -280.3072
   8   2.0000     -10.297479      -280.2087
   9   2.0000     -10.291594      -280.0485
  10   2.0000     -10.287691      -279.9423
  11   2.0000     -10.286603      -279.9127
  12   2.0000     -10.286039      -279.8974
  13   2.0000     -10.282687      -279.8061
  14   2.0000     -10.271725      -279.5079
  15   2.0000     -10.270519      -279.4750
  16   2.0000      -8.085420      -220.0155
  17   2.0000      -8.078673      -219.8319
  18   2.0000      -6.043824      -164.4608
  19   2.0000      -6.040102      -164.3595
  20   2.0000      -6.037072      -164.2771
  21   2.0000      -6.036319      -164.2566
  22   2.0000      -6.033380      -164.1766
  23   2.0000      -6.029397      -164.0682
  24   2.0000      -1.006640       -27.3921
  25   2.0000      -0.981939       -26.7199
  26   2.0000      -0.920353       -25.0441
  27   2.0000      -0.908697       -24.7269
  28   2.0000      -0.871195       -23.7064
  29   2.0000      -0.854116       -23.2417
  30   2.0000      -0.846484       -23.0340
  31   2.0000      -0.813783       -22.1442
  32   2.0000      -0.783184       -21.3115
  33   2.0000      -0.767632       -20.8883
  34   2.0000      -0.710741       -19.3403
  35   2.0000      -0.698463       -19.0061
  36   2.0000      -0.689618       -18.7655
  37   2.0000      -0.664872       -18.0921
  38   2.0000      -0.647469       -17.6185
  39   2.0000      -0.622566       -16.9409
  40   2.0000      -0.595597       -16.2070
  41   2.0000      -0.579453       -15.7677
  42   2.0000      -0.569482       -15.4964
  43   2.0000      -0.557842       -15.1797
  44   2.0000      -0.530428       -14.4337
  45   2.0000      -0.517212       -14.0741
  46   2.0000      -0.512387       -13.9428
  47   2.0000      -0.510108       -13.8807
  48   2.0000      -0.505687       -13.7604
  49   2.0000      -0.498931       -13.5766
  50   2.0000      -0.487063       -13.2537
  51   2.0000      -0.482742       -13.1361
  52   2.0000      -0.473905       -12.8956
  53   2.0000      -0.466181       -12.6854
  54   2.0000      -0.455017       -12.3816
  55   2.0000      -0.449782       -12.2392
  56   2.0000      -0.446619       -12.1531
  57   2.0000      -0.435797       -11.8586
  58   2.0000      -0.431102       -11.7309
  59   2.0000      -0.430376       -11.7111
  60   2.0000      -0.423288       -11.5183
  61   2.0000      -0.421821       -11.4783
  62   2.0000      -0.418091       -11.3768
  63   2.0000      -0.350783        -9.5453
  64   2.0000      -0.336797        -9.1647
  65   2.0000      -0.332146        -9.0381
  66   2.0000      -0.281661        -7.6644
  67   0.0000       0.023436         0.6377
  68   0.0000       0.065199         1.7742
  69   0.0000       0.099170         2.6986
  70   0.0000       0.123518         3.3611
  71   0.0000       0.134210         3.6520

MULLIKEN ATOMIC CHARGES
-----------------------
   0 S :    0.088357
   1 C :   -0.141715
   2 C :   -0.066450
   3 C :    0.018787
   4 C :   -0.124559
   5 H :   -0.000277
   6 C :    0.133782
   7 H :    0.039568
   8 H :    0.014738
   9 C :   -0.136403
  10 H :    0.032277
  11 H :    0.034177
  12 C :   -0.046136
  13 H :    0.034243
  14 H :    0.016303
  15 H :    0.044811
  16 S :    0.111103
  17 C :   -0.105800
  18 C :   -0.030514
  19 C :   -0.030312
  20 C :   -0.165855
  21 H :    0.011524
  22 C :    0.062873
  23 H :   -0.000169
  24 H :    0.029939
  25 C :   -0.037056
  26 H :    0.028592
  27 H :    0.011796
  28 C :   -0.018057
  29 H :    0.044806
  30 H :    0.014971
  31 H :    0.008757
  32 H :    0.055284
  33 H :    0.066613
Sum of atomic charges:   -0.0000000

LOEWDIN ATOMIC CHARGES
----------------------
   0 S :    0.383953
   1 C :   -0.193384
   2 C :   -0.055603
   3 C :   -0.062350
   4 C :   -0.184262
   5 H :    0.027084
   6 C :   -0.016573
   7 H :    0.036673
   8 H :    0.023782
   9 C :   -0.046527
  10 H :    0.021919
  11 H :    0.023047
  12 C :   -0.068680
  13 H :    0.023577
  14 H :    0.018066
  15 H :    0.035483
  16 S :    0.401067
  17 C :   -0.183760
  18 C :   -0.060596
  19 C :   -0.055940
  20 C :   -0.198689
  21 H :    0.029861
  22 C :   -0.029490
  23 H :    0.020888
  24 H :    0.033384
  25 C :   -0.030011
  26 H :    0.022432
  27 H :    0.016254
  28 C :   -0.059040
  29 H :    0.035049
  30 H :    0.022891
  31 H :    0.011307
  32 H :    0.026137
  33 H :    0.032050

  Mayer bond orders larger than 0.100000
B(  0-S ,  1-C ) :   1.1339 B(  0-S ,  4-C ) :   1.1357 B(  1-C ,  2-C ) :   1.6193
B(  1-C , 32-H ) :   0.9703 B(  2-C ,  3-C ) :   1.2375 B(  2-C ,  6-C ) :   1.0039
B(  3-C ,  4-C ) :   1.5804 B(  3-C ,  5-H ) :   0.9955 B(  4-C , 20-C ) :   1.0546
B(  6-C ,  7-H ) :   0.9259 B(  6-C ,  8-H ) :   0.9523 B(  6-C ,  9-C ) :   1.0697
B(  9-C , 10-H ) :   0.9436 B(  9-C , 11-H ) :   0.9631 B(  9-C , 12-C ) :   1.0844
B( 12-C , 13-H ) :   0.9754 B( 12-C , 14-H ) :   0.9729 B( 12-C , 15-H ) :   0.9734
B( 16-S , 17-C ) :   1.1450 B( 16-S , 20-C ) :   1.1599 B( 17-C , 18-C ) :   1.5953
B( 17-C , 20-C ) :   0.1124 B( 17-C , 33-H ) :   0.9575 B( 18-C , 19-C ) :   1.2810
B( 18-C , 21-H ) :   0.9880 B( 19-C , 20-C ) :   1.5397 B( 19-C , 22-C ) :   1.0550
B( 22-C , 23-H ) :   0.9187 B( 22-C , 24-H ) :   0.9374 B( 22-C , 25-C ) :   1.0614
B( 25-C , 26-H ) :   0.9575 B( 25-C , 27-H ) :   0.9503 B( 25-C , 28-C ) :   1.0963
B( 28-C , 29-H ) :   0.9727 B( 28-C , 30-H ) :   0.9687 B( 28-C , 31-H ) :   0.9736

Dispersion correction           -0.013846032
FINAL SINGLE POINT ENERGY     -1339.868687086598

DIPOLE MOMENT
-------------
                                X             Y             Z
Electronic contribution:     20.51369     -20.59365       8.48664
Nuclear contribution   :    -20.99684      21.02379      -8.35471
                        -----------------------------------------
Total Dipole Moment    :     -0.48315       0.43015       0.13193
                        -----------------------------------------
Magnitude (a.u.)       :      0.66020
Magnitude (Debye)      :      1.67810

Rotational constants in cm-1:     0.016722     0.009197     0.006990
Rotational constants in MHz :   501.302090   275.713931   209.561527

                             ****ORCA TERMINATED NORMALLY****
TOTAL RUN TIME: 0 days 0 hours 0 minutes 20 seconds 617 msec
