                         Program Version 4.2.1 -  RELEASE  -
|  1> ! wB97X-D3 SP def2-SVP
|  2> %pal
|  3> nprocs 24
|  4> end
|  5>
|  6> * xyz 0 1
|  7> S 	 -100.358 	 39.2192 	 -82.1974
|  8> C 	 -99.5396 	 37.8362 	 -81.4726
|  9> C 	 -98.985 	 36.9874 	 -82.3677
| 10> C 	 -99.3745 	 37.4086 	 -83.6939
| 11> C 	 -100.206 	 38.5676 	 -83.7583
| 12> H 	 -99.1949 	 36.8728 	 -84.5957
| 13> C 	 -97.9991 	 35.8418 	 -82.161
| 14> H 	 -98.2286 	 35.3217 	 -81.2114
| 15> H 	 -96.9732 	 36.1953 	 -82.0927
| 16> C 	 -97.9632 	 34.8452 	 -83.2323
| 17> H 	 -98.9348 	 34.5466 	 -83.5746
| 18> H 	 -97.4228 	 35.2645 	 -84.0735
| 19> C 	 -97.2759 	 33.5017 	 -82.9606
| 20> H 	 -96.2157 	 33.4471 	 -82.7885
| 21> H 	 -97.8226 	 33.0286 	 -82.1163
| 22> H 	 -97.4953 	 32.8915 	 -83.8243
| 23> S 	 -100.434 	 40.9572 	 -85.1047
| 24> C 	 -101.35 	 41.0603 	 -86.6207
| 25> C 	 -101.736 	 39.7955 	 -86.9982
| 26> C 	 -101.472 	 38.7451 	 -86.0115
| 27> C 	 -100.716 	 39.2405 	 -84.935
| 28> H 	 -102.328 	 39.614 	 -87.8933
| 29> C 	 -101.991 	 37.2827 	 -86.1765
| 30> H 	 -103.008 	 37.3258 	 -86.3676
| 31> H 	 -101.919 	 36.7086 	 -85.2406
| 32> C 	 -101.404 	 36.3148 	 -87.2142
| 33> H 	 -102.02 	 36.1578 	 -88.0722
| 34> H 	 -101.507 	 35.2894 	 -86.7949
| 35> C 	 -99.9756 	 36.7231 	 -87.5445
| 36> H 	 -99.4081 	 35.8772 	 -87.9111
| 37> H 	 -99.4 	 37.1087 	 -86.7192
| 38> H 	 -100.021 	 37.5178 	 -88.3315
| 39> H 	 -99.2052 	 37.8746 	 -80.4561
| 40> H 	 -101.702 	 41.9043 	 -87.1743
| 41> *
| 42>
| 43>                          ****END OF INPUT****

CARTESIAN COORDINATES (ANGSTROEM)
---------------------------------
  S    -100.358000   39.219200  -82.197400
  C    -99.539600   37.836200  -81.472600
  C    -98.985000   36.987400  -82.367700
  C    -99.374500   37.408600  -83.693900
  C    -100.206000   38.567600  -83.758300
  H    -99.194900   36.872800  -84.595700
  C    -97.999100   35.841800  -82.161000
  H    -98.228600   35.321700  -81.211400
  H    -96.973200   36.195300  -82.092700
  C    -97.963200   34.845200  -83.232300
  H    -98.934800   34.546600  -83.574600
  H    -97.422800   35.264500  -84.073500
  C    -97.275900   33.501700  -82.960600
  H    -96.215700   33.447100  -82.788500
  H    -97.822600   33.028600  -82.116300
  H    -97.495300   32.891500  -83.824300
  S    -100.434000   40.957200  -85.104700
  C    -101.350000   41.060300  -86.620700
  C    -101.736000   39.795500  -86.998200
  C    -101.472000   38.745100  -86.011500
  C    -100.716000   39.240500  -84.935000
  H    -102.328000   39.614000  -87.893300
  C    -101.991000   37.282700  -86.176500
  H    -103.008000   37.325800  -86.367600
  H    -101.919000   36.708600  -85.240600
  C    -101.404000   36.314800  -87.214200
  H    -102.020000   36.157800  -88.072200
  H    -101.507000   35.289400  -86.794900
  C    -99.975600   36.723100  -87.544500
  H    -99.408100   35.877200  -87.911100
  H    -99.400000   37.108700  -86.719200
  H    -100.021000   37.517800  -88.331500
  H    -99.205200   37.874600  -80.456100
  H    -101.702000   41.904300  -87.174300

 Total Charge           Charge          ....    0
 Multiplicity           Mult            ....    1
 Number of Electrons    NEL             ....  134
 Basis Dimension        Dim             ....  322

ORBITAL ENERGIES
----------------

  NO   OCC          E(Eh)            E(eV)
   0   2.0000     -88.967063     -2420.9169
   1   2.0000     -88.966876     -2420.9118
   2   2.0000     -10.330438      -281.1055
   3   2.0000     -10.329422      -281.0779
   4   2.0000     -10.319313      -280.8028
   5   2.0000     -10.311207      -280.5822
   6   2.0000     -10.310051      -280.5508
   7   2.0000     -10.303593      -280.3750
   8   2.0000     -10.297591      -280.2117
   9   2.0000     -10.294985      -280.1408
  10   2.0000     -10.294059      -280.1156
  11   2.0000     -10.286087      -279.8987
  12   2.0000     -10.283906      -279.8393
  13   2.0000     -10.280936      -279.7585
  14   2.0000     -10.279708      -279.7251
  15   2.0000     -10.274590      -279.5858
  16   2.0000      -8.082512      -219.9363
  17   2.0000      -8.081181      -219.9001
  18   2.0000      -6.040967      -164.3831
  19   2.0000      -6.039889      -164.3537
  20   2.0000      -6.036876      -164.2717
  21   2.0000      -6.035697      -164.2397
  22   2.0000      -6.033320      -164.1750
  23   2.0000      -6.031776      -164.1330
  24   2.0000      -1.007458       -27.4143
  25   2.0000      -0.982032       -26.7225
  26   2.0000      -0.924714       -25.1627
  27   2.0000      -0.906908       -24.6782
  28   2.0000      -0.875747       -23.8303
  29   2.0000      -0.847015       -23.0484
  30   2.0000      -0.839910       -22.8551
  31   2.0000      -0.812053       -22.0971
  32   2.0000      -0.790912       -21.5218
  33   2.0000      -0.779894       -21.2220
  34   2.0000      -0.714907       -19.4536
  35   2.0000      -0.695914       -18.9368
  36   2.0000      -0.689512       -18.7626
  37   2.0000      -0.657549       -17.8928
  38   2.0000      -0.642271       -17.4771
  39   2.0000      -0.621032       -16.8991
  40   2.0000      -0.589334       -16.0366
  41   2.0000      -0.585398       -15.9295
  42   2.0000      -0.568199       -15.4615
  43   2.0000      -0.557472       -15.1696
  44   2.0000      -0.544454       -14.8153
  45   2.0000      -0.526078       -14.3153
  46   2.0000      -0.515989       -14.0408
  47   2.0000      -0.511887       -13.9292
  48   2.0000      -0.503825       -13.7098
  49   2.0000      -0.499910       -13.6032
  50   2.0000      -0.489731       -13.3263
  51   2.0000      -0.486544       -13.2395
  52   2.0000      -0.468183       -12.7399
  53   2.0000      -0.465230       -12.6596
  54   2.0000      -0.460428       -12.5289
  55   2.0000      -0.456341       -12.4177
  56   2.0000      -0.446528       -12.1507
  57   2.0000      -0.437525       -11.9057
  58   2.0000      -0.429375       -11.6839
  59   2.0000      -0.422379       -11.4935
  60   2.0000      -0.419873       -11.4253
  61   2.0000      -0.416649       -11.3376
  62   2.0000      -0.401716       -10.9313
  63   2.0000      -0.347259        -9.4494
  64   2.0000      -0.333044        -9.0626
  65   2.0000      -0.327729        -8.9180
  66   2.0000      -0.294496        -8.0136
  67   0.0000       0.026211         0.7132
  68   0.0000       0.074014         2.0140
  69   0.0000       0.108967         2.9651
  70   0.0000       0.123044         3.3482
  71   0.0000       0.127661         3.4738

MULLIKEN ATOMIC CHARGES
-----------------------
   0 S :    0.117073
   1 C :   -0.122696
   2 C :   -0.074249
   3 C :    0.023138
   4 C :   -0.151274
   5 H :   -0.013435
   6 C :    0.124786
   7 H :    0.020021
   8 H :    0.040454
   9 C :   -0.133173
  10 H :    0.025754
  11 H :    0.031094
  12 C :   -0.029575
  13 H :    0.035070
  14 H :    0.026876
  15 H :    0.028443
  16 S :    0.104141
  17 C :   -0.079667
  18 C :   -0.029836
  19 C :   -0.065240
  20 C :   -0.149980
  21 H :    0.022530
  22 C :    0.093128
  23 H :    0.007315
  24 H :    0.034736
  25 C :   -0.082418
  26 H :    0.013648
  27 H :    0.022044
  28 C :   -0.034264
  29 H :    0.028199
  30 H :    0.034961
  31 H :    0.038047
  32 H :    0.039899
  33 H :    0.054450
Sum of atomic charges:    0.0000000

LOEWDIN ATOMIC CHARGES
----------------------
   0 S :    0.429332
   1 C :   -0.191472
   2 C :   -0.058984
   3 C :   -0.058701
   4 C :   -0.212085
   5 H :    0.016672
   6 C :   -0.031013
   7 H :    0.032148
   8 H :    0.038980
   9 C :   -0.048267
  10 H :    0.022488
  11 H :    0.023888
  12 C :   -0.059575
  13 H :    0.020389
  14 H :    0.026519
  15 H :    0.028493
  16 S :    0.395848
  17 C :   -0.181027
  18 C :   -0.068451
  19 C :   -0.050748
  20 C :   -0.200936
  21 H :    0.030789
  22 C :   -0.031825
  23 H :    0.021958
  24 H :    0.037397
  25 C :   -0.045085
  26 H :    0.016970
  27 H :    0.027072
  28 C :   -0.065232
  29 H :    0.022921
  30 H :    0.021307
  31 H :    0.034592
  32 H :    0.022947
  33 H :    0.032695

  Mayer bond orders larger than 0.100000
B(  0-S ,  1-C ) :   1.1436 B(  0-S ,  4-C ) :   1.1718 B(  1-C ,  2-C ) :   1.6337
B(  1-C , 32-H ) :   0.9638 B(  2-C ,  3-C ) :   1.2568 B(  2-C ,  6-C ) :   1.0133
B(  3-C ,  4-C ) :   1.5296 B(  3-C ,  5-H ) :   0.9908 B(  4-C , 20-C ) :   1.0506
B(  6-C ,  7-H ) :   0.9395 B(  6-C ,  8-H ) :   0.9251 B(  6-C ,  9-C ) :   1.0909
B(  9-C , 10-H ) :   0.9581 B(  9-C , 11-H ) :   0.9360 B(  9-C , 12-C ) :   1.0893
B( 12-C , 13-H ) :   0.9754 B( 12-C , 14-H ) :   0.9719 B( 12-C , 15-H ) :   0.9731
B( 16-S , 17-C ) :   1.1286 B( 16-S , 20-C ) :   1.1374 B( 17-C , 18-C ) :   1.6345
B( 17-C , 33-H ) :   0.9703 B( 18-C , 19-C ) :   1.2295 B( 18-C , 21-H ) :   0.9814
B( 19-C , 20-C ) :   1.5959 B( 19-C , 22-C ) :   1.0563 B( 22-C , 23-H ) :   0.9303
B( 22-C , 24-H ) :   0.9371 B( 22-C , 25-C ) :   1.0570 B( 25-C , 26-H ) :   0.9550
B( 25-C , 27-H ) :   0.9605 B( 25-C , 28-C ) :   1.0884 B( 28-C , 29-H ) :   0.9731
B( 28-C , 30-H ) :   0.9710 B( 28-C , 31-H ) :   0.9632

Dispersion correction           -0.014888574
FINAL SINGLE POINT ENERGY     -1339.868814936883

DIPOLE MOMENT
-------------
                                X             Y             Z
Electronic contribution:     -7.90073      29.18733       8.85377
Nuclear contribution   :      7.98132     -29.81342      -9.14483
                        -----------------------------------------
Total Dipole Moment    :      0.08059      -0.62609      -0.29106
                        -----------------------------------------
Magnitude (a.u.)       :      0.69512
Magnitude (Debye)      :      1.76686

Rotational constants in cm-1:     0.018605     0.009454     0.006839
Rotational constants in MHz :   557.753833   283.413086   205.029582

                             ****ORCA TERMINATED NORMALLY****
TOTAL RUN TIME: 0 days 0 hours 0 minutes 22 seconds 263 msec
