                         Program Version 4.2.1 -  RELEASE  -
|  1> ! wB97X-D3 SP def2-SVP
|  2> %pal
|  3> nprocs 24
|  4> end
|  5>
|  6> * xyz 0 1
|  7> S 	 -85.2685 	 3.35374 	 -115.484
|  8> C 	 -85.038 	 4.98731 	 -116.151
|  9> C 	 -85.8598 	 5.94686 	 -115.596
| 10> C 	 -86.8081 	 5.32668 	 -114.732
| 11> C 	 -86.6366 	 3.93432 	 -114.59
| 12> H 	 -87.5103 	 5.91769 	 -114.176
| 13> C 	 -85.7252 	 7.46109 	 -115.824
| 14> H 	 -84.7927 	 7.80613 	 -116.268
| 15> H 	 -85.6618 	 7.81038 	 -114.748
| 16> C 	 -86.9489 	 8.11447 	 -116.582
| 17> H 	 -87.0656 	 7.81538 	 -117.63
| 18> H 	 -87.9132 	 7.82812 	 -116.125
| 19> C 	 -86.9163 	 9.60859 	 -116.679
| 20> H 	 -86.8812 	 10.1788 	 -115.702
| 21> H 	 -86.0671 	 10.0158 	 -117.266
| 22> H 	 -87.6775 	 9.8877 	 -117.472
| 23> S 	 -86.3272 	 1.71266 	 -113.069
| 24> C 	 -87.7242 	 0.926387 	 -112.322
| 25> C 	 -88.8407 	 1.63361 	 -112.641
| 26> C 	 -88.6656 	 2.8511 	 -113.379
| 27> C 	 -87.3345 	 3.01221 	 -113.72
| 28> H 	 -89.7068 	 1.11698 	 -112.26
| 29> C 	 -89.7581 	 3.81414 	 -113.704
| 30> H 	 -89.5007 	 4.87191 	 -113.489
| 31> H 	 -90.5111 	 3.67871 	 -112.965
| 32> C 	 -90.2791 	 3.60486 	 -115.228
| 33> H 	 -90.6529 	 2.58989 	 -115.332
| 34> H 	 -89.5239 	 3.55819 	 -115.933
| 35> C 	 -91.2254 	 4.72642 	 -115.684
| 36> H 	 -92.1832 	 4.62249 	 -115.265
| 37> H 	 -91.352 	 4.68067 	 -116.781
| 38> H 	 -90.7929 	 5.68012 	 -115.494
| 39> H 	 -84.223 	 5.36663 	 -116.834
| 40> H 	 -87.8252 	 -0.157908 	 -112.103
| 41> *
| 42>
| 43>                          ****END OF INPUT****

CARTESIAN COORDINATES (ANGSTROEM)
---------------------------------
  S    -85.268500    3.353740  -115.484000
  C    -85.038000    4.987310  -116.151000
  C    -85.859800    5.946860  -115.596000
  C    -86.808100    5.326680  -114.732000
  C    -86.636600    3.934320  -114.590000
  H    -87.510300    5.917690  -114.176000
  C    -85.725200    7.461090  -115.824000
  H    -84.792700    7.806130  -116.268000
  H    -85.661800    7.810380  -114.748000
  C    -86.948900    8.114470  -116.582000
  H    -87.065600    7.815380  -117.630000
  H    -87.913200    7.828120  -116.125000
  C    -86.916300    9.608590  -116.679000
  H    -86.881200   10.178800  -115.702000
  H    -86.067100   10.015800  -117.266000
  H    -87.677500    9.887700  -117.472000
  S    -86.327200    1.712660  -113.069000
  C    -87.724200    0.926387  -112.322000
  C    -88.840700    1.633610  -112.641000
  C    -88.665600    2.851100  -113.379000
  C    -87.334500    3.012210  -113.720000
  H    -89.706800    1.116980  -112.260000
  C    -89.758100    3.814140  -113.704000
  H    -89.500700    4.871910  -113.489000
  H    -90.511100    3.678710  -112.965000
  C    -90.279100    3.604860  -115.228000
  H    -90.652900    2.589890  -115.332000
  H    -89.523900    3.558190  -115.933000
  C    -91.225400    4.726420  -115.684000
  H    -92.183200    4.622490  -115.265000
  H    -91.352000    4.680670  -116.781000
  H    -90.792900    5.680120  -115.494000
  H    -84.223000    5.366630  -116.834000
  H    -87.825200   -0.157908  -112.103000

 Total Charge           Charge          ....    0
 Multiplicity           Mult            ....    1
 Number of Electrons    NEL             ....  134
 Basis Dimension        Dim             ....  322

ORBITAL ENERGIES
----------------

  NO   OCC          E(Eh)            E(eV)
   0   2.0000     -88.972261     -2421.0583
   1   2.0000     -88.960911     -2420.7494
   2   2.0000     -10.332928      -281.1733
   3   2.0000     -10.328180      -281.0441
   4   2.0000     -10.316175      -280.7174
   5   2.0000     -10.312455      -280.6162
   6   2.0000     -10.307129      -280.4713
   7   2.0000     -10.304048      -280.3874
   8   2.0000     -10.303025      -280.3596
   9   2.0000     -10.297347      -280.2051
  10   2.0000     -10.295433      -280.1530
  11   2.0000     -10.294306      -280.1223
  12   2.0000     -10.291724      -280.0520
  13   2.0000     -10.288218      -279.9567
  14   2.0000     -10.283451      -279.8269
  15   2.0000     -10.272010      -279.5156
  16   2.0000      -8.086362      -220.0411
  17   2.0000      -8.075421      -219.7434
  18   2.0000      -6.044923      -164.4907
  19   2.0000      -6.041048      -164.3853
  20   2.0000      -6.036989      -164.2748
  21   2.0000      -6.034067      -164.1953
  22   2.0000      -6.029954      -164.0834
  23   2.0000      -6.026046      -163.9771
  24   2.0000      -1.007322       -27.4106
  25   2.0000      -0.981061       -26.6960
  26   2.0000      -0.909961       -24.7613
  27   2.0000      -0.901113       -24.5205
  28   2.0000      -0.873857       -23.7788
  29   2.0000      -0.853414       -23.2226
  30   2.0000      -0.845375       -23.0038
  31   2.0000      -0.814426       -22.1617
  32   2.0000      -0.782175       -21.2841
  33   2.0000      -0.770693       -20.9716
  34   2.0000      -0.714523       -19.4432
  35   2.0000      -0.703132       -19.1332
  36   2.0000      -0.694807       -18.9067
  37   2.0000      -0.658806       -17.9270
  38   2.0000      -0.631386       -17.1809
  39   2.0000      -0.624121       -16.9832
  40   2.0000      -0.591097       -16.0846
  41   2.0000      -0.566149       -15.4057
  42   2.0000      -0.560830       -15.2610
  43   2.0000      -0.553102       -15.0507
  44   2.0000      -0.530047       -14.4233
  45   2.0000      -0.524915       -14.2837
  46   2.0000      -0.518382       -14.1059
  47   2.0000      -0.507815       -13.8183
  48   2.0000      -0.504851       -13.7377
  49   2.0000      -0.495770       -13.4906
  50   2.0000      -0.489689       -13.3251
  51   2.0000      -0.484266       -13.1775
  52   2.0000      -0.468208       -12.7406
  53   2.0000      -0.464253       -12.6330
  54   2.0000      -0.457383       -12.4460
  55   2.0000      -0.450688       -12.2638
  56   2.0000      -0.448466       -12.2034
  57   2.0000      -0.439394       -11.9565
  58   2.0000      -0.435021       -11.8375
  59   2.0000      -0.425425       -11.5764
  60   2.0000      -0.424235       -11.5440
  61   2.0000      -0.412142       -11.2150
  62   2.0000      -0.406039       -11.0489
  63   2.0000      -0.352175        -9.5832
  64   2.0000      -0.335064        -9.1176
  65   2.0000      -0.327982        -8.9248
  66   2.0000      -0.284796        -7.7497
  67   0.0000       0.018547         0.5047
  68   0.0000       0.073040         1.9875
  69   0.0000       0.105105         2.8601
  70   0.0000       0.119997         3.2653
  71   0.0000       0.127849         3.4789

MULLIKEN ATOMIC CHARGES
-----------------------
   0 S :    0.119115
   1 C :   -0.134348
   2 C :   -0.081559
   3 C :    0.017067
   4 C :   -0.114756
   5 H :   -0.001073
   6 C :    0.052710
   7 H :    0.022538
   8 H :    0.045555
   9 C :   -0.067948
  10 H :    0.031441
  11 H :    0.031838
  12 C :   -0.083523
  13 H :    0.050340
  14 H :    0.021232
  15 H :    0.037434
  16 S :    0.069016
  17 C :   -0.105990
  18 C :   -0.059810
  19 C :   -0.019724
  20 C :   -0.134100
  21 H :    0.016703
  22 C :    0.064631
  23 H :    0.023458
  24 H :    0.010858
  25 C :   -0.048122
  26 H :    0.018769
  27 H :    0.017891
  28 C :   -0.012078
  29 H :    0.025589
  30 H :    0.028996
  31 H :    0.022797
  32 H :    0.056437
  33 H :    0.078617
Sum of atomic charges:   -0.0000000

LOEWDIN ATOMIC CHARGES
----------------------
   0 S :    0.408925
   1 C :   -0.205341
   2 C :   -0.064432
   3 C :   -0.060510
   4 C :   -0.193720
   5 H :    0.024243
   6 C :   -0.030706
   7 H :    0.028688
   8 H :    0.043364
   9 C :   -0.047731
  10 H :    0.030410
  11 H :    0.025692
  12 C :   -0.086165
  13 H :    0.030761
  14 H :    0.024140
  15 H :    0.038587
  16 S :    0.374963
  17 C :   -0.202506
  18 C :   -0.068650
  19 C :   -0.063262
  20 C :   -0.176754
  21 H :    0.032258
  22 C :   -0.028935
  23 H :    0.030594
  24 H :    0.026910
  25 C :   -0.027131
  26 H :    0.025257
  27 H :    0.016859
  28 C :   -0.057808
  29 H :    0.017605
  30 H :    0.030774
  31 H :    0.020628
  32 H :    0.038976
  33 H :    0.044013

  Mayer bond orders larger than 0.100000
B(  0-S ,  1-C ) :   1.1232 B(  0-S ,  4-C ) :   1.1503 B(  1-C ,  2-C ) :   1.6341
B(  1-C , 32-H ) :   0.9542 B(  2-C ,  3-C ) :   1.2578 B(  2-C ,  6-C ) :   1.0105
B(  3-C ,  4-C ) :   1.5334 B(  3-C ,  5-H ) :   0.9958 B(  4-C , 20-C ) :   1.0815
B(  6-C ,  7-H ) :   0.9482 B(  6-C ,  8-H ) :   0.9419 B(  6-C ,  9-C ) :   1.0455
B(  9-C , 10-H ) :   0.9550 B(  9-C , 11-H ) :   0.9566 B(  9-C , 12-C ) :   1.0937
B( 12-C , 13-H ) :   0.9724 B( 12-C , 14-H ) :   0.9682 B( 12-C , 15-H ) :   0.9692
B( 16-S , 17-C ) :   1.1185 B( 16-S , 20-C ) :   1.1365 B( 17-C , 18-C ) :   1.6717
B( 17-C , 33-H ) :   0.9515 B( 18-C , 19-C ) :   1.2098 B( 18-C , 21-H ) :   0.9861
B( 19-C , 20-C ) :   1.5881 B( 19-C , 22-C ) :   1.0500 B( 22-C , 23-H ) :   0.9443
B( 22-C , 24-H ) :   0.9283 B( 22-C , 25-C ) :   1.0306 B( 25-C , 26-H ) :   0.9541
B( 25-C , 27-H ) :   0.9641 B( 25-C , 28-C ) :   1.0812 B( 28-C , 29-H ) :   0.9772
B( 28-C , 30-H ) :   0.9736 B( 28-C , 31-H ) :   0.9741

Dispersion correction           -0.014119873
FINAL SINGLE POINT ENERGY     -1339.857102120371

DIPOLE MOMENT
-------------
                                X             Y             Z
Electronic contribution:     17.67403     -25.08173      10.54798
Nuclear contribution   :    -18.12334      25.59204     -10.80272
                        -----------------------------------------
Total Dipole Moment    :     -0.44930       0.51032      -0.25474
                        -----------------------------------------
Magnitude (a.u.)       :      0.72608
Magnitude (Debye)      :      1.84554

Rotational constants in cm-1:     0.018853     0.008809     0.006528
Rotational constants in MHz :   565.202795   264.099154   195.718488

                             ****ORCA TERMINATED NORMALLY****
TOTAL RUN TIME: 0 days 0 hours 0 minutes 20 seconds 417 msec
