                         Program Version 4.2.1 -  RELEASE  -
|  1> ! wB97X-D3 SP def2-SVP
|  2> %pal
|  3> nprocs 24
|  4> end
|  5>
|  6> * xyz 0 1
|  7> S 	 -74.5275 	 1.19408 	 12.3325
|  8> C 	 -74.1758 	 2.57441 	 11.3192
|  9> C 	 -73.4243 	 3.57397 	 11.9652
| 10> C 	 -73.2643 	 3.22605 	 13.3445
| 11> C 	 -73.8909 	 2.0466 	 13.7523
| 12> H 	 -72.6942 	 3.76068 	 14.1545
| 13> C 	 -72.953 	 4.8811 	 11.3493
| 14> H 	 -73.361 	 4.97379 	 10.3113
| 15> H 	 -71.9158 	 4.71901 	 11.1229
| 16> C 	 -73.2817 	 6.07336 	 12.2348
| 17> H 	 -74.372 	 6.0487 	 12.5066
| 18> H 	 -72.8297 	 5.86812 	 13.2059
| 19> C 	 -72.8047 	 7.47656 	 11.8061
| 20> H 	 -71.7407 	 7.52093 	 11.5396
| 21> H 	 -73.29 	 7.92597 	 10.9854
| 22> H 	 -72.7311 	 8.13389 	 12.6678
| 23> S 	 -72.1921 	 0.470761 	 15.2026
| 24> C 	 -72.5126 	 0.172217 	 16.9384
| 25> C 	 -73.6987 	 0.706791 	 17.2575
| 26> C 	 -74.4616 	 1.29492 	 16.1086
| 27> C 	 -73.6903 	 1.3447 	 14.9686
| 28> H 	 -74.007 	 0.525101 	 18.2643
| 29> C 	 -75.8145 	 2.00362 	 16.3899
| 30> H 	 -76.2698 	 1.18477 	 17.0124
| 31> H 	 -76.4146 	 2.11261 	 15.4437
| 32> C 	 -75.7157 	 3.41897 	 16.9927
| 33> H 	 -75.3402 	 3.23868 	 18.0475
| 34> H 	 -76.6908 	 3.87484 	 17.1248
| 35> C 	 -74.9143 	 4.37892 	 16.1133
| 36> H 	 -75.2775 	 4.46495 	 15.0643
| 37> H 	 -73.8635 	 4.24807 	 16.2342
| 38> H 	 -74.9986 	 5.37744 	 16.476
| 39> H 	 -74.3277 	 2.62564 	 10.2739
| 40> H 	 -71.8516 	 -0.316542 	 17.6332
| 41> *
| 42>
| 43>                          ****END OF INPUT****

CARTESIAN COORDINATES (ANGSTROEM)
---------------------------------
  S    -74.527500    1.194080   12.332500
  C    -74.175800    2.574410   11.319200
  C    -73.424300    3.573970   11.965200
  C    -73.264300    3.226050   13.344500
  C    -73.890900    2.046600   13.752300
  H    -72.694200    3.760680   14.154500
  C    -72.953000    4.881100   11.349300
  H    -73.361000    4.973790   10.311300
  H    -71.915800    4.719010   11.122900
  C    -73.281700    6.073360   12.234800
  H    -74.372000    6.048700   12.506600
  H    -72.829700    5.868120   13.205900
  C    -72.804700    7.476560   11.806100
  H    -71.740700    7.520930   11.539600
  H    -73.290000    7.925970   10.985400
  H    -72.731100    8.133890   12.667800
  S    -72.192100    0.470761   15.202600
  C    -72.512600    0.172217   16.938400
  C    -73.698700    0.706791   17.257500
  C    -74.461600    1.294920   16.108600
  C    -73.690300    1.344700   14.968600
  H    -74.007000    0.525101   18.264300
  C    -75.814500    2.003620   16.389900
  H    -76.269800    1.184770   17.012400
  H    -76.414600    2.112610   15.443700
  C    -75.715700    3.418970   16.992700
  H    -75.340200    3.238680   18.047500
  H    -76.690800    3.874840   17.124800
  C    -74.914300    4.378920   16.113300
  H    -75.277500    4.464950   15.064300
  H    -73.863500    4.248070   16.234200
  H    -74.998600    5.377440   16.476000
  H    -74.327700    2.625640   10.273900
  H    -71.851600   -0.316542   17.633200

 Total Charge           Charge          ....    0
 Multiplicity           Mult            ....    1
 Number of Electrons    NEL             ....  134
 Basis Dimension        Dim             ....  322

ORBITAL ENERGIES
----------------

  NO   OCC          E(Eh)            E(eV)
   0   2.0000     -88.966567     -2420.9034
   1   2.0000     -88.957171     -2420.6477
   2   2.0000     -10.324976      -280.9569
   3   2.0000     -10.321850      -280.8718
   4   2.0000     -10.316097      -280.7153
   5   2.0000     -10.313722      -280.6506
   6   2.0000     -10.308808      -280.5169
   7   2.0000     -10.305165      -280.4178
   8   2.0000     -10.300690      -280.2960
   9   2.0000     -10.298211      -280.2286
  10   2.0000     -10.295840      -280.1641
  11   2.0000     -10.293538      -280.1014
  12   2.0000     -10.292856      -280.0828
  13   2.0000     -10.291120      -280.0356
  14   2.0000     -10.277933      -279.6768
  15   2.0000     -10.272038      -279.5164
  16   2.0000      -8.080733      -219.8879
  17   2.0000      -8.071831      -219.6457
  18   2.0000      -6.039137      -164.3333
  19   2.0000      -6.035389      -164.2313
  20   2.0000      -6.031565      -164.1272
  21   2.0000      -6.030599      -164.1009
  22   2.0000      -6.026333      -163.9848
  23   2.0000      -6.022295      -163.8750
  24   2.0000      -1.002306       -27.2741
  25   2.0000      -0.977065       -26.5873
  26   2.0000      -0.911701       -24.8086
  27   2.0000      -0.901758       -24.5381
  28   2.0000      -0.874002       -23.7828
  29   2.0000      -0.846133       -23.0244
  30   2.0000      -0.837621       -22.7928
  31   2.0000      -0.817308       -22.2401
  32   2.0000      -0.785267       -21.3682
  33   2.0000      -0.771742       -21.0002
  34   2.0000      -0.717240       -19.5171
  35   2.0000      -0.698345       -19.0029
  36   2.0000      -0.689153       -18.7528
  37   2.0000      -0.657071       -17.8798
  38   2.0000      -0.641712       -17.4619
  39   2.0000      -0.613771       -16.7016
  40   2.0000      -0.587244       -15.9797
  41   2.0000      -0.566734       -15.4216
  42   2.0000      -0.560523       -15.2526
  43   2.0000      -0.548268       -14.9191
  44   2.0000      -0.546840       -14.8803
  45   2.0000      -0.525206       -14.2916
  46   2.0000      -0.513310       -13.9679
  47   2.0000      -0.510574       -13.8934
  48   2.0000      -0.503752       -13.7078
  49   2.0000      -0.498025       -13.5520
  50   2.0000      -0.489185       -13.3114
  51   2.0000      -0.480160       -13.0658
  52   2.0000      -0.470815       -12.8115
  53   2.0000      -0.464214       -12.6319
  54   2.0000      -0.455597       -12.3974
  55   2.0000      -0.450139       -12.2489
  56   2.0000      -0.437910       -11.9161
  57   2.0000      -0.432332       -11.7644
  58   2.0000      -0.431693       -11.7470
  59   2.0000      -0.424673       -11.5559
  60   2.0000      -0.415282       -11.3004
  61   2.0000      -0.413732       -11.2582
  62   2.0000      -0.404702       -11.0125
  63   2.0000      -0.337645        -9.1878
  64   2.0000      -0.326441        -8.8829
  65   2.0000      -0.318721        -8.6728
  66   2.0000      -0.308957        -8.4072
  67   0.0000       0.041489         1.1290
  68   0.0000       0.053963         1.4684
  69   0.0000       0.116788         3.1780
  70   0.0000       0.123586         3.3629
  71   0.0000       0.125331         3.4104

MULLIKEN ATOMIC CHARGES
-----------------------
   0 S :    0.118276
   1 C :   -0.095807
   2 C :   -0.114401
   3 C :    0.005111
   4 C :   -0.182550
   5 H :    0.041422
   6 C :    0.115090
   7 H :    0.017084
   8 H :    0.031529
   9 C :   -0.111358
  10 H :    0.045250
  11 H :    0.026027
  12 C :   -0.013774
  13 H :    0.015328
  14 H :    0.033192
  15 H :    0.027338
  16 S :    0.095213
  17 C :   -0.090476
  18 C :   -0.032968
  19 C :   -0.031933
  20 C :   -0.167343
  21 H :    0.013627
  22 C :    0.025735
  23 H :    0.043068
  24 H :    0.036471
  25 C :   -0.058453
  26 H :    0.031857
  27 H :    0.031566
  28 C :   -0.038886
  29 H :    0.055373
  30 H :    0.029906
  31 H :    0.011373
  32 H :    0.031537
  33 H :    0.056575
Sum of atomic charges:   -0.0000000

LOEWDIN ATOMIC CHARGES
----------------------
   0 S :    0.406191
   1 C :   -0.191091
   2 C :   -0.062777
   3 C :   -0.054414
   4 C :   -0.200929
   5 H :    0.039747
   6 C :   -0.033866
   7 H :    0.032345
   8 H :    0.032466
   9 C :   -0.046254
  10 H :    0.034062
  11 H :    0.024813
  12 C :   -0.068496
  13 H :    0.029057
  14 H :    0.019051
  15 H :    0.031155
  16 S :    0.375662
  17 C :   -0.166007
  18 C :   -0.074893
  19 C :   -0.049427
  20 C :   -0.209279
  21 H :    0.027798
  22 C :   -0.041300
  23 H :    0.037776
  24 H :    0.032840
  25 C :   -0.041833
  26 H :    0.028955
  27 H :    0.024290
  28 C :   -0.067668
  29 H :    0.035868
  30 H :    0.022143
  31 H :    0.023154
  32 H :    0.018943
  33 H :    0.031917

  Mayer bond orders larger than 0.100000
B(  0-S ,  1-C ) :   1.1587 B(  0-S ,  4-C ) :   1.1425 B(  1-C ,  2-C ) :   1.6014
B(  1-C ,  4-C ) :   0.1061 B(  1-C , 32-H ) :   0.9668 B(  2-C ,  3-C ) :   1.2408
B(  2-C ,  6-C ) :   1.0195 B(  3-C ,  4-C ) :   1.5844 B(  3-C ,  5-H ) :   0.9792
B(  4-C , 20-C ) :   1.0515 B(  6-C ,  7-H ) :   0.9387 B(  6-C ,  8-H ) :   0.9266
B(  6-C ,  9-C ) :   1.0575 B(  9-C , 10-H ) :   0.9572 B(  9-C , 11-H ) :   0.9494
B(  9-C , 12-C ) :   1.0849 B( 12-C , 13-H ) :   0.9677 B( 12-C , 14-H ) :   0.9779
B( 12-C , 15-H ) :   0.9721 B( 16-S , 17-C ) :   1.1153 B( 16-S , 20-C ) :   1.1233
B( 17-C , 18-C ) :   1.6922 B( 17-C , 33-H ) :   0.9678 B( 18-C , 19-C ) :   1.1644
B( 18-C , 21-H ) :   0.9872 B( 19-C , 20-C ) :   1.6354 B( 19-C , 22-C ) :   1.0348
B( 22-C , 23-H ) :   0.9392 B( 22-C , 24-H ) :   0.9374 B( 22-C , 25-C ) :   1.0662
B( 25-C , 26-H ) :   0.9542 B( 25-C , 27-H ) :   0.9565 B( 25-C , 28-C ) :   1.0791
B( 28-C , 29-H ) :   0.9673 B( 28-C , 30-H ) :   0.9700 B( 28-C , 31-H ) :   0.9648

Dispersion correction           -0.015866685
FINAL SINGLE POINT ENERGY     -1339.867178409285

DIPOLE MOMENT
-------------
                                X             Y             Z
Electronic contribution:      3.95738     -27.29039      -2.39364
Nuclear contribution   :     -3.90287      27.91884       2.63219
                        -----------------------------------------
Total Dipole Moment    :      0.05451       0.62845       0.23855
                        -----------------------------------------
Magnitude (a.u.)       :      0.67441
Magnitude (Debye)      :      1.71421

Rotational constants in cm-1:     0.019304     0.008905     0.007591
Rotational constants in MHz :   578.706639   266.955649   227.569518

                             ****ORCA TERMINATED NORMALLY****
TOTAL RUN TIME: 0 days 0 hours 0 minutes 21 seconds 293 msec
