                         Program Version 4.2.1 -  RELEASE  -
|  1> ! wB97X-D3 SP def2-SVP
|  2> %pal
|  3> nprocs 24
|  4> end
|  5>
|  6> * xyz 0 1
|  7> S 	 27.2931 	 -9.03343 	 -115.231
|  8> C 	 28.5958 	 -8.47051 	 -116.309
|  9> C 	 29.8086 	 -8.54183 	 -115.668
| 10> C 	 29.658 	 -9.03786 	 -114.36
| 11> C 	 28.3881 	 -9.44069 	 -114.02
| 12> H 	 30.3635 	 -9.00955 	 -113.551
| 13> C 	 31.0746 	 -7.89373 	 -116.126
| 14> H 	 31.4158 	 -7.26423 	 -115.197
| 15> H 	 30.789 	 -7.06893 	 -116.863
| 16> C 	 32.1459 	 -8.75034 	 -116.679
| 17> H 	 33.0396 	 -8.1365 	 -116.82
| 18> H 	 32.4093 	 -9.6096 	 -116.127
| 19> C 	 31.7148 	 -9.15809 	 -118.08
| 20> H 	 31.7019 	 -8.28572 	 -118.759
| 21> H 	 32.4765 	 -9.82795 	 -118.356
| 22> H 	 30.8278 	 -9.75217 	 -118.062
| 23> S 	 27.9159 	 -11.6402 	 -112.365
| 24> C 	 27.2384 	 -11.4287 	 -110.777
| 25> C 	 27.0572 	 -10.0992 	 -110.523
| 26> C 	 27.4836 	 -9.20455 	 -111.519
| 27> C 	 27.8856 	 -9.92112 	 -112.691
| 28> H 	 26.6127 	 -9.76497 	 -109.563
| 29> C 	 27.3197 	 -7.67696 	 -111.412
| 30> H 	 26.3704 	 -7.52443 	 -110.984
| 31> H 	 27.276 	 -7.26955 	 -112.442
| 32> C 	 28.4894 	 -6.91239 	 -110.631
| 33> H 	 29.3595 	 -7.30641 	 -111.165
| 34> H 	 28.3425 	 -7.23465 	 -109.638
| 35> C 	 28.3711 	 -5.42551 	 -110.778
| 36> H 	 29.0867 	 -4.80983 	 -110.187
| 37> H 	 27.3726 	 -5.08648 	 -110.444
| 38> H 	 28.462 	 -5.17646 	 -111.917
| 39> H 	 28.4591 	 -8.01247 	 -117.308
| 40> H 	 27.0681 	 -12.2366 	 -110.112
| 41> *
| 42>
| 43>                          ****END OF INPUT****

CARTESIAN COORDINATES (ANGSTROEM)
---------------------------------
  S     27.293100   -9.033430  -115.231000
  C     28.595800   -8.470510  -116.309000
  C     29.808600   -8.541830  -115.668000
  C     29.658000   -9.037860  -114.360000
  C     28.388100   -9.440690  -114.020000
  H     30.363500   -9.009550  -113.551000
  C     31.074600   -7.893730  -116.126000
  H     31.415800   -7.264230  -115.197000
  H     30.789000   -7.068930  -116.863000
  C     32.145900   -8.750340  -116.679000
  H     33.039600   -8.136500  -116.820000
  H     32.409300   -9.609600  -116.127000
  C     31.714800   -9.158090  -118.080000
  H     31.701900   -8.285720  -118.759000
  H     32.476500   -9.827950  -118.356000
  H     30.827800   -9.752170  -118.062000
  S     27.915900  -11.640200  -112.365000
  C     27.238400  -11.428700  -110.777000
  C     27.057200  -10.099200  -110.523000
  C     27.483600   -9.204550  -111.519000
  C     27.885600   -9.921120  -112.691000
  H     26.612700   -9.764970  -109.563000
  C     27.319700   -7.676960  -111.412000
  H     26.370400   -7.524430  -110.984000
  H     27.276000   -7.269550  -112.442000
  C     28.489400   -6.912390  -110.631000
  H     29.359500   -7.306410  -111.165000
  H     28.342500   -7.234650  -109.638000
  C     28.371100   -5.425510  -110.778000
  H     29.086700   -4.809830  -110.187000
  H     27.372600   -5.086480  -110.444000
  H     28.462000   -5.176460  -111.917000
  H     28.459100   -8.012470  -117.308000
  H     27.068100  -12.236600  -110.112000

 Total Charge           Charge          ....    0
 Multiplicity           Mult            ....    1
 Number of Electrons    NEL             ....  134
 Basis Dimension        Dim             ....  322

ORBITAL ENERGIES
----------------

  NO   OCC          E(Eh)            E(eV)
   0   2.0000     -88.965941     -2420.8863
   1   2.0000     -88.965680     -2420.8792
   2   2.0000     -10.331562      -281.1361
   3   2.0000     -10.324644      -280.9478
   4   2.0000     -10.316619      -280.7295
   5   2.0000     -10.313872      -280.6547
   6   2.0000     -10.306895      -280.4649
   7   2.0000     -10.298675      -280.2412
   8   2.0000     -10.297250      -280.2024
   9   2.0000     -10.292672      -280.0778
  10   2.0000     -10.291130      -280.0359
  11   2.0000     -10.288535      -279.9653
  12   2.0000     -10.287780      -279.9447
  13   2.0000     -10.286117      -279.8995
  14   2.0000     -10.278794      -279.7002
  15   2.0000     -10.268393      -279.4172
  16   2.0000      -8.080991      -219.8949
  17   2.0000      -8.080764      -219.8888
  18   2.0000      -6.039422      -164.3410
  19   2.0000      -6.039122      -164.3329
  20   2.0000      -6.035304      -164.2290
  21   2.0000      -6.035106      -164.2236
  22   2.0000      -6.031885      -164.1359
  23   2.0000      -6.031838      -164.1346
  24   2.0000      -1.009692       -27.4751
  25   2.0000      -0.988438       -26.8968
  26   2.0000      -0.923389       -25.1267
  27   2.0000      -0.904872       -24.6228
  28   2.0000      -0.869807       -23.6687
  29   2.0000      -0.851390       -23.1675
  30   2.0000      -0.847145       -23.0520
  31   2.0000      -0.812608       -22.1122
  32   2.0000      -0.781889       -21.2763
  33   2.0000      -0.769372       -20.9357
  34   2.0000      -0.705399       -19.1949
  35   2.0000      -0.696495       -18.9526
  36   2.0000      -0.690046       -18.7771
  37   2.0000      -0.656232       -17.8570
  38   2.0000      -0.641980       -17.4692
  39   2.0000      -0.619590       -16.8599
  40   2.0000      -0.596709       -16.2373
  41   2.0000      -0.575937       -15.6720
  42   2.0000      -0.573703       -15.6112
  43   2.0000      -0.556092       -15.1320
  44   2.0000      -0.543479       -14.7888
  45   2.0000      -0.520006       -14.1501
  46   2.0000      -0.517425       -14.0798
  47   2.0000      -0.511052       -13.9064
  48   2.0000      -0.507123       -13.7995
  49   2.0000      -0.493794       -13.4368
  50   2.0000      -0.483924       -13.1682
  51   2.0000      -0.476144       -12.9565
  52   2.0000      -0.472900       -12.8683
  53   2.0000      -0.466134       -12.6842
  54   2.0000      -0.458152       -12.4669
  55   2.0000      -0.450468       -12.2579
  56   2.0000      -0.445753       -12.1296
  57   2.0000      -0.440117       -11.9762
  58   2.0000      -0.431415       -11.7394
  59   2.0000      -0.424371       -11.5477
  60   2.0000      -0.422074       -11.4852
  61   2.0000      -0.414047       -11.2668
  62   2.0000      -0.406655       -11.0656
  63   2.0000      -0.336343        -9.1524
  64   2.0000      -0.331051        -9.0084
  65   2.0000      -0.319299        -8.6886
  66   2.0000      -0.312740        -8.5101
  67   0.0000       0.047520         1.2931
  68   0.0000       0.052480         1.4280
  69   0.0000       0.106531         2.8989
  70   0.0000       0.125011         3.4017
  71   0.0000       0.129878         3.5342

MULLIKEN ATOMIC CHARGES
-----------------------
   0 S :    0.119982
   1 C :   -0.142288
   2 C :   -0.056633
   3 C :    0.044566
   4 C :   -0.176185
   5 H :    0.003969
   6 C :   -0.008476
   7 H :    0.041859
   8 H :    0.027205
   9 C :   -0.020201
  10 H :    0.027182
  11 H :    0.024294
  12 C :   -0.038361
  13 H :    0.034271
  14 H :    0.014193
  15 H :    0.034451
  16 S :    0.116814
  17 C :   -0.083430
  18 C :   -0.041146
  19 C :   -0.005229
  20 C :   -0.198929
  21 H :    0.025284
  22 C :    0.038570
  23 H :    0.015874
  24 H :    0.022814
  25 C :   -0.036273
  26 H :    0.036873
  27 H :    0.023285
  28 C :   -0.068275
  29 H :    0.046580
  30 H :    0.026827
  31 H :    0.044125
  32 H :    0.057748
  33 H :    0.048663
Sum of atomic charges:    0.0000000

LOEWDIN ATOMIC CHARGES
----------------------
   0 S :    0.429909
   1 C :   -0.194402
   2 C :   -0.072360
   3 C :   -0.063665
   4 C :   -0.222688
   5 H :    0.028218
   6 C :   -0.041210
   7 H :    0.039026
   8 H :    0.034803
   9 C :   -0.038216
  10 H :    0.028862
  11 H :    0.020764
  12 C :   -0.056556
  13 H :    0.027443
  14 H :    0.019654
  15 H :    0.022234
  16 S :    0.421954
  17 C :   -0.185086
  18 C :   -0.079670
  19 C :   -0.053969
  20 C :   -0.209929
  21 H :    0.035338
  22 C :   -0.025480
  23 H :    0.019757
  24 H :    0.028909
  25 C :   -0.033623
  26 H :    0.028123
  27 H :    0.017218
  28 C :   -0.075363
  29 H :    0.029067
  30 H :    0.024482
  31 H :    0.037207
  32 H :    0.034648
  33 H :    0.024602

  Mayer bond orders larger than 0.100000
B(  0-S ,  1-C ) :   1.1452 B(  0-S ,  4-C ) :   1.1801 B(  1-C ,  2-C ) :   1.5925
B(  1-C , 32-H ) :   0.9653 B(  2-C ,  3-C ) :   1.2483 B(  2-C ,  6-C ) :   1.0105
B(  3-C ,  4-C ) :   1.5876 B(  3-C ,  5-H ) :   1.0000 B(  4-C , 20-C ) :   0.9737
B(  6-C ,  7-H ) :   0.9414 B(  6-C ,  8-H ) :   0.9452 B(  6-C ,  9-C ) :   1.0758
B(  9-C , 10-H ) :   0.9481 B(  9-C , 11-H ) :   0.9566 B(  9-C , 12-C ) :   1.0813
B( 12-C , 13-H ) :   0.9750 B( 12-C , 14-H ) :   0.9708 B( 12-C , 15-H ) :   0.9754
B( 16-S , 17-C ) :   1.1675 B( 16-S , 20-C ) :   1.1795 B( 17-C , 18-C ) :   1.5745
B( 17-C , 20-C ) :   0.1103 B( 17-C , 33-H ) :   0.9750 B( 18-C , 19-C ) :   1.2846
B( 18-C , 21-H ) :   0.9814 B( 19-C , 20-C ) :   1.5478 B( 19-C , 22-C ) :   1.0358
B( 22-C , 23-H ) :   0.9395 B( 22-C , 24-H ) :   0.9382 B( 22-C , 25-C ) :   1.0431
B( 25-C , 26-H ) :   0.9581 B( 25-C , 27-H ) :   0.9567 B( 25-C , 28-C ) :   1.0898
B( 28-C , 29-H ) :   0.9734 B( 28-C , 30-H ) :   0.9704 B( 28-C , 31-H ) :   0.9721

Dispersion correction           -0.014270389
FINAL SINGLE POINT ENERGY     -1339.872051754732

DIPOLE MOMENT
-------------
                                X             Y             Z
Electronic contribution:    -14.61334     -18.34146       2.37627
Nuclear contribution   :     14.92594      18.78861      -2.14869
                        -----------------------------------------
Total Dipole Moment    :      0.31260       0.44715       0.22758
                        -----------------------------------------
Magnitude (a.u.)       :      0.59115
Magnitude (Debye)      :      1.50258

Rotational constants in cm-1:     0.018681     0.008206     0.006778
Rotational constants in MHz :   560.047439   246.013421   203.193928

                             ****ORCA TERMINATED NORMALLY****
TOTAL RUN TIME: 0 days 0 hours 0 minutes 21 seconds 327 msec
