                         Program Version 4.2.1 -  RELEASE  -
|  1> ! wB97X-D3 SP def2-SVP
|  2> %pal
|  3> nprocs 24
|  4> end
|  5>
|  6> * xyz 0 1
|  7> S 	 44.1255 	 -14.4814 	 -117.935
|  8> C 	 44.7471 	 -15.0654 	 -116.415
|  9> C 	 45.9787 	 -15.7251 	 -116.54
| 10> C 	 46.4437 	 -15.5436 	 -117.884
| 11> C 	 45.5404 	 -14.9051 	 -118.774
| 12> H 	 47.441 	 -15.8172 	 -118.252
| 13> C 	 46.8648 	 -16.2687 	 -115.495
| 14> H 	 46.9983 	 -17.3034 	 -115.735
| 15> H 	 46.2191 	 -16.2238 	 -114.663
| 16> C 	 48.1405 	 -15.4216 	 -115.116
| 17> H 	 48.7708 	 -15.071 	 -115.985
| 18> H 	 47.6985 	 -14.5445 	 -114.661
| 19> C 	 49.0623 	 -16.1181 	 -114.156
| 20> H 	 49.9254 	 -15.397 	 -113.981
| 21> H 	 48.5638 	 -16.159 	 -113.217
| 22> H 	 49.6622 	 -16.956 	 -114.355
| 23> S 	 44.6559 	 -14.8118 	 -121.427
| 24> C 	 45.6615 	 -14.1647 	 -122.69
| 25> C 	 46.9381 	 -13.8609 	 -122.155
| 26> C 	 47.0701 	 -14.0384 	 -120.683
| 27> C 	 45.8817 	 -14.5862 	 -120.173
| 28> H 	 47.6976 	 -13.4455 	 -122.797
| 29> C 	 48.3535 	 -13.6898 	 -119.977
| 30> H 	 49.119 	 -13.4863 	 -120.733
| 31> H 	 48.8262 	 -14.5298 	 -119.53
| 32> C 	 48.1336 	 -12.6154 	 -118.904
| 33> H 	 47.6412 	 -12.9314 	 -117.988
| 34> H 	 47.57 	 -11.8068 	 -119.248
| 35> C 	 49.3244 	 -11.8793 	 -118.34
| 36> H 	 49.9517 	 -12.5666 	 -117.768
| 37> H 	 49.1549 	 -11.1246 	 -117.536
| 38> H 	 49.8798 	 -11.4528 	 -119.156
| 39> H 	 44.2204 	 -14.999 	 -115.504
| 40> H 	 45.3957 	 -14.0731 	 -123.702
| 41> *
| 42>
| 43>                          ****END OF INPUT****

CARTESIAN COORDINATES (ANGSTROEM)
---------------------------------
  S     44.125500  -14.481400  -117.935000
  C     44.747100  -15.065400  -116.415000
  C     45.978700  -15.725100  -116.540000
  C     46.443700  -15.543600  -117.884000
  C     45.540400  -14.905100  -118.774000
  H     47.441000  -15.817200  -118.252000
  C     46.864800  -16.268700  -115.495000
  H     46.998300  -17.303400  -115.735000
  H     46.219100  -16.223800  -114.663000
  C     48.140500  -15.421600  -115.116000
  H     48.770800  -15.071000  -115.985000
  H     47.698500  -14.544500  -114.661000
  C     49.062300  -16.118100  -114.156000
  H     49.925400  -15.397000  -113.981000
  H     48.563800  -16.159000  -113.217000
  H     49.662200  -16.956000  -114.355000
  S     44.655900  -14.811800  -121.427000
  C     45.661500  -14.164700  -122.690000
  C     46.938100  -13.860900  -122.155000
  C     47.070100  -14.038400  -120.683000
  C     45.881700  -14.586200  -120.173000
  H     47.697600  -13.445500  -122.797000
  C     48.353500  -13.689800  -119.977000
  H     49.119000  -13.486300  -120.733000
  H     48.826200  -14.529800  -119.530000
  C     48.133600  -12.615400  -118.904000
  H     47.641200  -12.931400  -117.988000
  H     47.570000  -11.806800  -119.248000
  C     49.324400  -11.879300  -118.340000
  H     49.951700  -12.566600  -117.768000
  H     49.154900  -11.124600  -117.536000
  H     49.879800  -11.452800  -119.156000
  H     44.220400  -14.999000  -115.504000
  H     45.395700  -14.073100  -123.702000

 Total Charge           Charge          ....    0
 Multiplicity           Mult            ....    1
 Number of Electrons    NEL             ....  134
 Basis Dimension        Dim             ....  322

ORBITAL ENERGIES
----------------

  NO   OCC          E(Eh)            E(eV)
   0   2.0000     -88.969962     -2420.9958
   1   2.0000     -88.965924     -2420.8859
   2   2.0000     -10.332671      -281.1663
   3   2.0000     -10.327376      -281.0222
   4   2.0000     -10.318095      -280.7696
   5   2.0000     -10.313421      -280.6424
   6   2.0000     -10.310963      -280.5756
   7   2.0000     -10.300833      -280.2999
   8   2.0000     -10.300792      -280.2988
   9   2.0000     -10.298540      -280.2375
  10   2.0000     -10.295310      -280.1496
  11   2.0000     -10.292296      -280.0676
  12   2.0000     -10.287956      -279.9495
  13   2.0000     -10.277875      -279.6752
  14   2.0000     -10.274238      -279.5762
  15   2.0000     -10.273262      -279.5497
  16   2.0000      -8.085209      -220.0097
  17   2.0000      -8.080392      -219.8787
  18   2.0000      -6.043670      -164.4566
  19   2.0000      -6.039486      -164.3428
  20   2.0000      -6.039030      -164.3304
  21   2.0000      -6.036162      -164.2523
  22   2.0000      -6.034768      -164.2144
  23   2.0000      -6.031220      -164.1178
  24   2.0000      -1.003857       -27.3163
  25   2.0000      -0.979095       -26.6425
  26   2.0000      -0.917199       -24.9582
  27   2.0000      -0.911609       -24.8062
  28   2.0000      -0.868969       -23.6458
  29   2.0000      -0.855821       -23.2881
  30   2.0000      -0.846962       -23.0470
  31   2.0000      -0.809370       -22.0241
  32   2.0000      -0.786824       -21.4106
  33   2.0000      -0.776203       -21.1216
  34   2.0000      -0.710070       -19.3220
  35   2.0000      -0.704663       -19.1748
  36   2.0000      -0.691892       -18.8274
  37   2.0000      -0.662628       -18.0310
  38   2.0000      -0.638662       -17.3789
  39   2.0000      -0.619940       -16.8694
  40   2.0000      -0.596681       -16.2365
  41   2.0000      -0.570814       -15.5326
  42   2.0000      -0.566550       -15.4166
  43   2.0000      -0.565432       -15.3862
  44   2.0000      -0.531153       -14.4534
  45   2.0000      -0.527741       -14.3606
  46   2.0000      -0.524060       -14.2604
  47   2.0000      -0.516278       -14.0486
  48   2.0000      -0.504247       -13.7213
  49   2.0000      -0.501308       -13.6413
  50   2.0000      -0.496237       -13.5033
  51   2.0000      -0.490678       -13.3520
  52   2.0000      -0.467463       -12.7203
  53   2.0000      -0.464295       -12.6341
  54   2.0000      -0.458672       -12.4811
  55   2.0000      -0.449337       -12.2271
  56   2.0000      -0.444862       -12.1053
  57   2.0000      -0.434487       -11.8230
  58   2.0000      -0.428452       -11.6588
  59   2.0000      -0.420847       -11.4518
  60   2.0000      -0.419602       -11.4180
  61   2.0000      -0.414613       -11.2822
  62   2.0000      -0.411732       -11.2038
  63   2.0000      -0.345515        -9.4020
  64   2.0000      -0.329432        -8.9643
  65   2.0000      -0.326914        -8.8958
  66   2.0000      -0.287596        -7.8259
  67   0.0000       0.028735         0.7819
  68   0.0000       0.075119         2.0441
  69   0.0000       0.112236         3.0541
  70   0.0000       0.116754         3.1770
  71   0.0000       0.128393         3.4938

MULLIKEN ATOMIC CHARGES
-----------------------
   0 S :    0.133696
   1 C :   -0.123003
   2 C :   -0.095017
   3 C :   -0.012418
   4 C :   -0.136292
   5 H :    0.006580
   6 C :    0.120815
   7 H :    0.034836
   8 H :   -0.005324
   9 C :   -0.081803
  10 H :    0.042120
  11 H :    0.030110
  12 C :   -0.031993
  13 H :    0.023325
  14 H :    0.025811
  15 H :    0.033152
  16 S :    0.105988
  17 C :   -0.080069
  18 C :   -0.042685
  19 C :   -0.047035
  20 C :   -0.151810
  21 H :    0.018873
  22 C :    0.113799
  23 H :    0.010002
  24 H :    0.016581
  25 C :   -0.052666
  26 H :    0.040451
  27 H :    0.018839
  28 C :   -0.064548
  29 H :    0.009575
  30 H :    0.037904
  31 H :    0.024875
  32 H :    0.030132
  33 H :    0.047199
Sum of atomic charges:   -0.0000000

LOEWDIN ATOMIC CHARGES
----------------------
   0 S :    0.440132
   1 C :   -0.199722
   2 C :   -0.061483
   3 C :   -0.061680
   4 C :   -0.220475
   5 H :    0.026992
   6 C :   -0.031985
   7 H :    0.032930
   8 H :    0.025070
   9 C :   -0.032764
  10 H :    0.027224
  11 H :    0.029325
  12 C :   -0.070591
  13 H :    0.037266
  14 H :    0.022689
  15 H :    0.021310
  16 S :    0.403164
  17 C :   -0.188004
  18 C :   -0.067858
  19 C :   -0.049066
  20 C :   -0.189512
  21 H :    0.026029
  22 C :   -0.028497
  23 H :    0.034764
  24 H :    0.026742
  25 C :   -0.040933
  26 H :    0.030557
  27 H :    0.020185
  28 C :   -0.067956
  29 H :    0.016292
  30 H :    0.032896
  31 H :    0.017550
  32 H :    0.016945
  33 H :    0.022465

  Mayer bond orders larger than 0.100000
B(  0-S ,  1-C ) :   1.1584 B(  0-S ,  4-C ) :   1.1701 B(  1-C ,  2-C ) :   1.5623
B(  1-C , 32-H ) :   0.9710 B(  2-C ,  3-C ) :   1.2648 B(  2-C ,  6-C ) :   1.0405
B(  3-C ,  4-C ) :   1.5318 B(  3-C ,  5-H ) :   0.9931 B(  4-C , 20-C ) :   1.0479
B(  6-C ,  7-H ) :   0.9288 B(  6-C ,  8-H ) :   0.9296 B(  6-C ,  9-C ) :   1.0435
B(  9-C , 10-H ) :   0.9629 B(  9-C , 11-H ) :   0.9518 B(  9-C , 12-C ) :   1.0910
B( 12-C , 13-H ) :   0.9666 B( 12-C , 14-H ) :   0.9729 B( 12-C , 15-H ) :   0.9769
B( 16-S , 17-C ) :   1.1526 B( 16-S , 20-C ) :   1.1428 B( 17-C , 18-C ) :   1.6012
B( 17-C , 33-H ) :   0.9768 B( 18-C , 19-C ) :   1.2383 B( 18-C , 21-H ) :   0.9850
B( 19-C , 20-C ) :   1.5834 B( 19-C , 22-C ) :   1.0528 B( 22-C , 23-H ) :   0.9282
B( 22-C , 24-H ) :   0.9247 B( 22-C , 25-C ) :   1.0435 B( 25-C , 26-H ) :   0.9499
B( 25-C , 27-H ) :   0.9600 B( 25-C , 28-C ) :   1.0927 B( 28-C , 29-H ) :   0.9710
B( 28-C , 30-H ) :   0.9734 B( 28-C , 31-H ) :   0.9749

Dispersion correction           -0.015006058
FINAL SINGLE POINT ENERGY     -1339.857874352731

DIPOLE MOMENT
-------------
                                X             Y             Z
Electronic contribution:    -26.89913      -3.98366     -19.23224
Nuclear contribution   :     27.58976       4.06137      19.61921
                        -----------------------------------------
Total Dipole Moment    :      0.69063       0.07770       0.38697
                        -----------------------------------------
Magnitude (a.u.)       :      0.79546
Magnitude (Debye)      :      2.02190

Rotational constants in cm-1:     0.019055     0.009168     0.006989
Rotational constants in MHz :   571.261744   274.856911   209.516851

                             ****ORCA TERMINATED NORMALLY****
TOTAL RUN TIME: 0 days 0 hours 0 minutes 22 seconds 365 msec
