                         Program Version 4.2.1 -  RELEASE  -
|  1> ! wB97X-D3 SP def2-SVP
|  2> %pal
|  3> nprocs 24
|  4> end
|  5>
|  6> * xyz 0 1
|  7> S 	 -46.2796 	 11.0527 	 23.7101
|  8> C 	 -46.1322 	 11.4519 	 22.0152
|  9> C 	 -46.85 	 12.6101 	 21.6694
| 10> C 	 -47.538 	 13.1287 	 22.8499
| 11> C 	 -47.5124 	 12.2453 	 23.8661
| 12> H 	 -48.0792 	 14.0989 	 22.866
| 13> C 	 -46.8208 	 13.4154 	 20.3379
| 14> H 	 -47.654 	 14.1551 	 20.3264
| 15> H 	 -46.9287 	 12.6768 	 19.5325
| 16> C 	 -45.6888 	 14.3901 	 20.0458
| 17> H 	 -44.7346 	 13.9218 	 20.1051
| 18> H 	 -45.7342 	 14.7464 	 18.9897
| 19> C 	 -45.6484 	 15.633 	 20.8925
| 20> H 	 -45.4364 	 15.1874 	 21.9316
| 21> H 	 -44.8604 	 16.416 	 20.8177
| 22> H 	 -46.6357 	 16.1641 	 20.9199
| 23> S 	 -47.4332 	 12.76 	 26.6267
| 24> C 	 -48.9457 	 12.8633 	 27.5266
| 25> C 	 -50.0027 	 12.5077 	 26.7
| 26> C 	 -49.6664 	 12.3031 	 25.3494
| 27> C 	 -48.3251 	 12.3416 	 25.124
| 28> H 	 -51.0248 	 12.6139 	 27.0868
| 29> C 	 -50.8255 	 12.0033 	 24.3694
| 30> H 	 -51.4584 	 11.2267 	 24.7844
| 31> H 	 -50.4217 	 11.4082 	 23.5803
| 32> C 	 -51.487 	 13.2818 	 23.9475
| 33> H 	 -50.7761 	 14 	 23.5827
| 34> H 	 -51.9228 	 13.8653 	 24.7693
| 35> C 	 -52.612 	 12.918 	 23.0215
| 36> H 	 -52.1483 	 12.5701 	 22.0413
| 37> H 	 -53.3224 	 13.8071 	 22.8438
| 38> H 	 -53.1647 	 12.1069 	 23.3499
| 39> H 	 -45.3999 	 11.0426 	 21.3243
| 40> H 	 -49.103 	 12.9591 	 28.6009
| 41> *
| 42>
| 43>                          ****END OF INPUT****

CARTESIAN COORDINATES (ANGSTROEM)
---------------------------------
  S    -46.279600   11.052700   23.710100
  C    -46.132200   11.451900   22.015200
  C    -46.850000   12.610100   21.669400
  C    -47.538000   13.128700   22.849900
  C    -47.512400   12.245300   23.866100
  H    -48.079200   14.098900   22.866000
  C    -46.820800   13.415400   20.337900
  H    -47.654000   14.155100   20.326400
  H    -46.928700   12.676800   19.532500
  C    -45.688800   14.390100   20.045800
  H    -44.734600   13.921800   20.105100
  H    -45.734200   14.746400   18.989700
  C    -45.648400   15.633000   20.892500
  H    -45.436400   15.187400   21.931600
  H    -44.860400   16.416000   20.817700
  H    -46.635700   16.164100   20.919900
  S    -47.433200   12.760000   26.626700
  C    -48.945700   12.863300   27.526600
  C    -50.002700   12.507700   26.700000
  C    -49.666400   12.303100   25.349400
  C    -48.325100   12.341600   25.124000
  H    -51.024800   12.613900   27.086800
  C    -50.825500   12.003300   24.369400
  H    -51.458400   11.226700   24.784400
  H    -50.421700   11.408200   23.580300
  C    -51.487000   13.281800   23.947500
  H    -50.776100   14.000000   23.582700
  H    -51.922800   13.865300   24.769300
  C    -52.612000   12.918000   23.021500
  H    -52.148300   12.570100   22.041300
  H    -53.322400   13.807100   22.843800
  H    -53.164700   12.106900   23.349900
  H    -45.399900   11.042600   21.324300
  H    -49.103000   12.959100   28.600900

 Total Charge           Charge          ....    0
 Multiplicity           Mult            ....    1
 Number of Electrons    NEL             ....  134
 Basis Dimension        Dim             ....  322

ORBITAL ENERGIES
----------------

  NO   OCC          E(Eh)            E(eV)
   0   2.0000     -88.969112     -2420.9726
   1   2.0000     -88.963375     -2420.8165
   2   2.0000     -10.328122      -281.0425
   3   2.0000     -10.326670      -281.0030
   4   2.0000     -10.318228      -280.7732
   5   2.0000     -10.318039      -280.7681
   6   2.0000     -10.309603      -280.5386
   7   2.0000     -10.302367      -280.3417
   8   2.0000     -10.298735      -280.2428
   9   2.0000     -10.296501      -280.1820
  10   2.0000     -10.289310      -279.9863
  11   2.0000     -10.288067      -279.9525
  12   2.0000     -10.286237      -279.9027
  13   2.0000     -10.286121      -279.8996
  14   2.0000     -10.282571      -279.8030
  15   2.0000     -10.280053      -279.7345
  16   2.0000      -8.084381      -219.9872
  17   2.0000      -8.077290      -219.7942
  18   2.0000      -6.042841      -164.4341
  19   2.0000      -6.039070      -164.3314
  20   2.0000      -6.035936      -164.2462
  21   2.0000      -6.034905      -164.2181
  22   2.0000      -6.031928      -164.1371
  23   2.0000      -6.027941      -164.0286
  24   2.0000      -1.006328       -27.3836
  25   2.0000      -0.983285       -26.7566
  26   2.0000      -0.916478       -24.9386
  27   2.0000      -0.913226       -24.8501
  28   2.0000      -0.863231       -23.4897
  29   2.0000      -0.851136       -23.1606
  30   2.0000      -0.846362       -23.0307
  31   2.0000      -0.811338       -22.0776
  32   2.0000      -0.780662       -21.2429
  33   2.0000      -0.771772       -21.0010
  34   2.0000      -0.708287       -19.2735
  35   2.0000      -0.698396       -19.0043
  36   2.0000      -0.693205       -18.8631
  37   2.0000      -0.658481       -17.9182
  38   2.0000      -0.639352       -17.3977
  39   2.0000      -0.614312       -16.7163
  40   2.0000      -0.594097       -16.1662
  41   2.0000      -0.574830       -15.6419
  42   2.0000      -0.559897       -15.2356
  43   2.0000      -0.553162       -15.0523
  44   2.0000      -0.542107       -14.7515
  45   2.0000      -0.536784       -14.6066
  46   2.0000      -0.513418       -13.9708
  47   2.0000      -0.510291       -13.8857
  48   2.0000      -0.498267       -13.5585
  49   2.0000      -0.494531       -13.4569
  50   2.0000      -0.488864       -13.3027
  51   2.0000      -0.476283       -12.9603
  52   2.0000      -0.470115       -12.7925
  53   2.0000      -0.463699       -12.6179
  54   2.0000      -0.459627       -12.5071
  55   2.0000      -0.452092       -12.3020
  56   2.0000      -0.445969       -12.1354
  57   2.0000      -0.444269       -12.0892
  58   2.0000      -0.435426       -11.8485
  59   2.0000      -0.421005       -11.4561
  60   2.0000      -0.415176       -11.2975
  61   2.0000      -0.406561       -11.0631
  62   2.0000      -0.403174       -10.9709
  63   2.0000      -0.336415        -9.1543
  64   2.0000      -0.332047        -9.0355
  65   2.0000      -0.328660        -8.9433
  66   2.0000      -0.303666        -8.2632
  67   0.0000       0.036967         1.0059
  68   0.0000       0.059933         1.6309
  69   0.0000       0.106448         2.8966
  70   0.0000       0.120920         3.2904
  71   0.0000       0.125520         3.4156

MULLIKEN ATOMIC CHARGES
-----------------------
   0 S :    0.126598
   1 C :   -0.105931
   2 C :   -0.122289
   3 C :    0.029863
   4 C :   -0.160527
   5 H :    0.035374
   6 C :    0.059257
   7 H :    0.020944
   8 H :    0.042111
   9 C :   -0.032508
  10 H :    0.015166
  11 H :    0.029931
  12 C :   -0.118788
  13 H :    0.041768
  14 H :    0.049681
  15 H :    0.033331
  16 S :    0.090102
  17 C :   -0.091477
  18 C :   -0.049197
  19 C :   -0.031751
  20 C :   -0.168192
  21 H :    0.026510
  22 C :    0.079483
  23 H :    0.020943
  24 H :    0.013710
  25 C :   -0.048727
  26 H :    0.020649
  27 H :    0.021720
  28 C :   -0.031247
  29 H :    0.033874
  30 H :    0.044587
  31 H :    0.014802
  32 H :    0.047690
  33 H :    0.062543
Sum of atomic charges:   -0.0000000

LOEWDIN ATOMIC CHARGES
----------------------
   0 S :    0.419645
   1 C :   -0.200649
   2 C :   -0.061689
   3 C :   -0.061469
   4 C :   -0.204810
   5 H :    0.039068
   6 C :   -0.031116
   7 H :    0.033964
   8 H :    0.037015
   9 C :   -0.047906
  10 H :    0.016867
  11 H :    0.027343
  12 C :   -0.084017
  13 H :    0.035358
  14 H :    0.032141
  15 H :    0.023885
  16 S :    0.374727
  17 C :   -0.183846
  18 C :   -0.076090
  19 C :   -0.056471
  20 C :   -0.185086
  21 H :    0.033178
  22 C :   -0.024410
  23 H :    0.032082
  24 H :    0.028629
  25 C :   -0.042703
  26 H :    0.023825
  27 H :    0.025566
  28 C :   -0.064079
  29 H :    0.032271
  30 H :    0.033242
  31 H :    0.012733
  32 H :    0.028034
  33 H :    0.034765

  Mayer bond orders larger than 0.100000
B(  0-S ,  1-C ) :   1.1359 B(  0-S ,  4-C ) :   1.1555 B(  1-C ,  2-C ) :   1.6278
B(  1-C , 32-H ) :   0.9665 B(  2-C ,  3-C ) :   1.2184 B(  2-C ,  6-C ) :   1.0191
B(  3-C ,  4-C ) :   1.6105 B(  3-C ,  5-H ) :   0.9865 B(  4-C , 20-C ) :   0.9761
B(  6-C ,  7-H ) :   0.9441 B(  6-C ,  8-H ) :   0.9395 B(  6-C ,  9-C ) :   1.0656
B(  9-C , 10-H ) :   0.9536 B(  9-C , 11-H ) :   0.9515 B(  9-C , 12-C ) :   1.0687
B( 12-C , 13-H ) :   0.9745 B( 12-C , 14-H ) :   0.9747 B( 12-C , 15-H ) :   0.9730
B( 16-S , 17-C ) :   1.1454 B( 16-S , 20-C ) :   1.1279 B( 17-C , 18-C ) :   1.6323
B( 17-C , 20-C ) :   0.1015 B( 17-C , 33-H ) :   0.9619 B( 18-C , 19-C ) :   1.2363
B( 18-C , 21-H ) :   0.9794 B( 19-C , 20-C ) :   1.6575 B( 19-C , 22-C ) :   1.0226
B( 22-C , 23-H ) :   0.9404 B( 22-C , 24-H ) :   0.9324 B( 22-C , 25-C ) :   1.0532
B( 25-C , 26-H ) :   0.9507 B( 25-C , 27-H ) :   0.9538 B( 25-C , 28-C ) :   1.0821
B( 28-C , 29-H ) :   0.9723 B( 28-C , 30-H ) :   0.9731 B( 28-C , 31-H ) :   0.9695

Dispersion correction           -0.014380039
FINAL SINGLE POINT ENERGY     -1339.858742276412

DIPOLE MOMENT
-------------
                                X             Y             Z
Electronic contribution:     12.62738     -13.03648      19.41442
Nuclear contribution   :    -12.99364      13.31259     -19.78191
                        -----------------------------------------
Total Dipole Moment    :     -0.36626       0.27611      -0.36750
                        -----------------------------------------
Magnitude (a.u.)       :      0.58774
Magnitude (Debye)      :      1.49392

Rotational constants in cm-1:     0.017139     0.008821     0.007096
Rotational constants in MHz :   513.827796   264.451794   212.725142

                             ****ORCA TERMINATED NORMALLY****
TOTAL RUN TIME: 0 days 0 hours 0 minutes 21 seconds 600 msec
