                         Program Version 4.2.1 -  RELEASE  -
|  1> ! wB97X-D3 SP def2-SVP
|  2> %pal
|  3> nprocs 24
|  4> end
|  5>
|  6> * xyz 0 1
|  7> S 	 -80.0333 	 -6.91707 	 -57.94
|  8> C 	 -80.6556 	 -7.64215 	 -56.471
|  9> C 	 -81.8254 	 -7.00614 	 -56.0982
| 10> C 	 -82.351 	 -6.21694 	 -57.1897
| 11> C 	 -81.6193 	 -6.29358 	 -58.3991
| 12> H 	 -83.3177 	 -5.66238 	 -57.279
| 13> C 	 -82.6063 	 -7.28396 	 -54.8199
| 14> H 	 -82.02 	 -6.95651 	 -53.9695
| 15> H 	 -82.5542 	 -8.33718 	 -54.7208
| 16> C 	 -84.1178 	 -6.8768 	 -54.8096
| 17> H 	 -84.2498 	 -5.86214 	 -54.6046
| 18> H 	 -84.606 	 -7.0702 	 -55.7738
| 19> C 	 -85.0044 	 -7.62994 	 -53.778
| 20> H 	 -84.8787 	 -8.73248 	 -53.8409
| 21> H 	 -84.7837 	 -7.27179 	 -52.7701
| 22> H 	 -86.0817 	 -7.34137 	 -54.0073
| 23> S 	 -80.4473 	 -4.68115 	 -60.3455
| 24> C 	 -81.3695 	 -4.14076 	 -61.7303
| 25> C 	 -82.713 	 -4.50871 	 -61.6452
| 26> C 	 -82.9608 	 -5.3536 	 -60.5184
| 27> C 	 -81.8348 	 -5.49569 	 -59.6599
| 28> H 	 -83.4248 	 -4.27028 	 -62.4495
| 29> C 	 -84.2801 	 -6.06284 	 -60.3316
| 30> H 	 -84.2071 	 -6.39718 	 -59.3071
| 31> H 	 -84.2212 	 -6.96757 	 -60.9614
| 32> C 	 -85.5831 	 -5.24892 	 -60.5859
| 33> H 	 -85.6221 	 -4.8269 	 -61.5832
| 34> H 	 -85.6965 	 -4.48342 	 -59.7436
| 35> C 	 -86.8495 	 -6.06335 	 -60.561
| 36> H 	 -86.8924 	 -6.75033 	 -59.6988
| 37> H 	 -86.9781 	 -6.65277 	 -61.431
| 38> H 	 -87.7847 	 -5.48378 	 -60.4765
| 39> H 	 -80.1636 	 -8.46799 	 -55.8411
| 40> H 	 -80.8862 	 -3.66475 	 -62.549
| 41> *
| 42>
| 43>                          ****END OF INPUT****

CARTESIAN COORDINATES (ANGSTROEM)
---------------------------------
  S    -80.033300   -6.917070  -57.940000
  C    -80.655600   -7.642150  -56.471000
  C    -81.825400   -7.006140  -56.098200
  C    -82.351000   -6.216940  -57.189700
  C    -81.619300   -6.293580  -58.399100
  H    -83.317700   -5.662380  -57.279000
  C    -82.606300   -7.283960  -54.819900
  H    -82.020000   -6.956510  -53.969500
  H    -82.554200   -8.337180  -54.720800
  C    -84.117800   -6.876800  -54.809600
  H    -84.249800   -5.862140  -54.604600
  H    -84.606000   -7.070200  -55.773800
  C    -85.004400   -7.629940  -53.778000
  H    -84.878700   -8.732480  -53.840900
  H    -84.783700   -7.271790  -52.770100
  H    -86.081700   -7.341370  -54.007300
  S    -80.447300   -4.681150  -60.345500
  C    -81.369500   -4.140760  -61.730300
  C    -82.713000   -4.508710  -61.645200
  C    -82.960800   -5.353600  -60.518400
  C    -81.834800   -5.495690  -59.659900
  H    -83.424800   -4.270280  -62.449500
  C    -84.280100   -6.062840  -60.331600
  H    -84.207100   -6.397180  -59.307100
  H    -84.221200   -6.967570  -60.961400
  C    -85.583100   -5.248920  -60.585900
  H    -85.622100   -4.826900  -61.583200
  H    -85.696500   -4.483420  -59.743600
  C    -86.849500   -6.063350  -60.561000
  H    -86.892400   -6.750330  -59.698800
  H    -86.978100   -6.652770  -61.431000
  H    -87.784700   -5.483780  -60.476500
  H    -80.163600   -8.467990  -55.841100
  H    -80.886200   -3.664750  -62.549000

 Total Charge           Charge          ....    0
 Multiplicity           Mult            ....    1
 Number of Electrons    NEL             ....  134
 Basis Dimension        Dim             ....  322

ORBITAL ENERGIES
----------------

  NO   OCC          E(Eh)            E(eV)
   0   2.0000     -88.966221     -2420.8939
   1   2.0000     -88.963849     -2420.8294
   2   2.0000     -10.337168      -281.2886
   3   2.0000     -10.333688      -281.1939
   4   2.0000     -10.321575      -280.8643
   5   2.0000     -10.317346      -280.7493
   6   2.0000     -10.307673      -280.4860
   7   2.0000     -10.306669      -280.4587
   8   2.0000     -10.302468      -280.3444
   9   2.0000     -10.297793      -280.2172
  10   2.0000     -10.294720      -280.1336
  11   2.0000     -10.294286      -280.1218
  12   2.0000     -10.292330      -280.0685
  13   2.0000     -10.289084      -279.9802
  14   2.0000     -10.288966      -279.9770
  15   2.0000     -10.275327      -279.6059
  16   2.0000      -8.080992      -219.8950
  17   2.0000      -8.078296      -219.8216
  18   2.0000      -6.039456      -164.3420
  19   2.0000      -6.036952      -164.2738
  20   2.0000      -6.035441      -164.2327
  21   2.0000      -6.033063      -164.1680
  22   2.0000      -6.031866      -164.1354
  23   2.0000      -6.028682      -164.0488
  24   2.0000      -1.001221       -27.2446
  25   2.0000      -0.981608       -26.7109
  26   2.0000      -0.909320       -24.7439
  27   2.0000      -0.907016       -24.6812
  28   2.0000      -0.865381       -23.5482
  29   2.0000      -0.855077       -23.2678
  30   2.0000      -0.840692       -22.8764
  31   2.0000      -0.813810       -22.1449
  32   2.0000      -0.780808       -21.2469
  33   2.0000      -0.768892       -20.9226
  34   2.0000      -0.710060       -19.3217
  35   2.0000      -0.700518       -19.0621
  36   2.0000      -0.687329       -18.7032
  37   2.0000      -0.653186       -17.7741
  38   2.0000      -0.635718       -17.2988
  39   2.0000      -0.612162       -16.6578
  40   2.0000      -0.594173       -16.1683
  41   2.0000      -0.571502       -15.5514
  42   2.0000      -0.571427       -15.5493
  43   2.0000      -0.562206       -15.2984
  44   2.0000      -0.528626       -14.3846
  45   2.0000      -0.524634       -14.2760
  46   2.0000      -0.512639       -13.9496
  47   2.0000      -0.510084       -13.8801
  48   2.0000      -0.502686       -13.6788
  49   2.0000      -0.498074       -13.5533
  50   2.0000      -0.490965       -13.3598
  51   2.0000      -0.482641       -13.1333
  52   2.0000      -0.468233       -12.7413
  53   2.0000      -0.464168       -12.6307
  54   2.0000      -0.457939       -12.4611
  55   2.0000      -0.452236       -12.3060
  56   2.0000      -0.442542       -12.0422
  57   2.0000      -0.435072       -11.8389
  58   2.0000      -0.431834       -11.7508
  59   2.0000      -0.427204       -11.6248
  60   2.0000      -0.425898       -11.5893
  61   2.0000      -0.419202       -11.4071
  62   2.0000      -0.412015       -11.2115
  63   2.0000      -0.349325        -9.5056
  64   2.0000      -0.331475        -9.0199
  65   2.0000      -0.322793        -8.7836
  66   2.0000      -0.283452        -7.7131
  67   0.0000       0.019897         0.5414
  68   0.0000       0.065857         1.7921
  69   0.0000       0.100791         2.7427
  70   0.0000       0.121769         3.3135
  71   0.0000       0.127592         3.4720

MULLIKEN ATOMIC CHARGES
-----------------------
   0 S :    0.091234
   1 C :   -0.147090
   2 C :   -0.086282
   3 C :   -0.006758
   4 C :   -0.135744
   5 H :    0.040238
   6 C :    0.096239
   7 H :    0.036683
   8 H :    0.011262
   9 C :   -0.076398
  10 H :    0.026939
  11 H :    0.035525
  12 C :   -0.083222
  13 H :    0.044566
  14 H :    0.035511
  15 H :    0.044287
  16 S :    0.098868
  17 C :   -0.095489
  18 C :   -0.027280
  19 C :   -0.075296
  20 C :   -0.149621
  21 H :    0.031572
  22 C :    0.086753
  23 H :    0.003272
  24 H :    0.044637
  25 C :   -0.083177
  26 H :    0.033849
  27 H :    0.046924
  28 C :   -0.050241
  29 H :    0.021275
  30 H :    0.021088
  31 H :    0.034089
  32 H :    0.078982
  33 H :    0.052803
Sum of atomic charges:    0.0000000

LOEWDIN ATOMIC CHARGES
----------------------
   0 S :    0.389419
   1 C :   -0.206634
   2 C :   -0.063548
   3 C :   -0.071318
   4 C :   -0.189543
   5 H :    0.036114
   6 C :   -0.031974
   7 H :    0.035481
   8 H :    0.029114
   9 C :   -0.038583
  10 H :    0.017235
  11 H :    0.027111
  12 C :   -0.067126
  13 H :    0.026046
  14 H :    0.021893
  15 H :    0.035086
  16 S :    0.408098
  17 C :   -0.178650
  18 C :   -0.072904
  19 C :   -0.058703
  20 C :   -0.204506
  21 H :    0.036908
  22 C :   -0.034186
  23 H :    0.026642
  24 H :    0.038876
  25 C :   -0.042773
  26 H :    0.023995
  27 H :    0.036038
  28 C :   -0.069163
  29 H :    0.023100
  30 H :    0.017297
  31 H :    0.029989
  32 H :    0.049023
  33 H :    0.022146

  Mayer bond orders larger than 0.100000
B(  0-S ,  1-C ) :   1.1411 B(  0-S ,  4-C ) :   1.1456 B(  1-C ,  2-C ) :   1.6007
B(  1-C ,  4-C ) :   0.1060 B(  1-C , 32-H ) :   0.9628 B(  2-C ,  3-C ) :   1.2491
B(  2-C ,  6-C ) :   1.0069 B(  3-C ,  4-C ) :   1.5446 B(  3-C ,  5-H ) :   0.9764
B(  4-C , 20-C ) :   1.0433 B(  6-C ,  7-H ) :   0.9297 B(  6-C ,  8-H ) :   0.9411
B(  6-C ,  9-C ) :   1.0690 B(  9-C , 10-H ) :   0.9527 B(  9-C , 11-H ) :   0.9570
B(  9-C , 12-C ) :   1.0839 B( 12-C , 13-H ) :   0.9768 B( 12-C , 14-H ) :   0.9778
B( 12-C , 15-H ) :   0.9753 B( 16-S , 17-C ) :   1.1693 B( 16-S , 20-C ) :   1.1455
B( 17-C , 18-C ) :   1.5792 B( 17-C , 33-H ) :   0.9722 B( 18-C , 19-C ) :   1.2639
B( 18-C , 21-H ) :   0.9877 B( 19-C , 20-C ) :   1.5733 B( 19-C , 22-C ) :   1.0387
B( 22-C , 23-H ) :   0.9248 B( 22-C , 24-H ) :   0.9296 B( 22-C , 25-C ) :   1.0669
B( 25-C , 26-H ) :   0.9529 B( 25-C , 27-H ) :   0.9567 B( 25-C , 28-C ) :   1.0874
B( 28-C , 29-H ) :   0.9724 B( 28-C , 30-H ) :   0.9752 B( 28-C , 31-H ) :   0.9736

Dispersion correction           -0.013204077
FINAL SINGLE POINT ENERGY     -1339.860611993841

DIPOLE MOMENT
-------------
                                X             Y             Z
Electronic contribution:     31.12909       5.53279     -11.11230
Nuclear contribution   :    -31.83374      -5.67175      11.30683
                        -----------------------------------------
Total Dipole Moment    :     -0.70465      -0.13896       0.19453
                        -----------------------------------------
Magnitude (a.u.)       :      0.74410
Magnitude (Debye)      :      1.89136

Rotational constants in cm-1:     0.015340     0.009232     0.006056
Rotational constants in MHz :   459.880790   276.774478   181.558577

                             ****ORCA TERMINATED NORMALLY****
TOTAL RUN TIME: 0 days 0 hours 0 minutes 20 seconds 992 msec
