                         Program Version 4.2.1 -  RELEASE  -
|  1> ! wB97X-D3 SP def2-SVP
|  2> %pal
|  3> nprocs 24
|  4> end
|  5>
|  6> * xyz 0 1
|  7> S 	 -132.134 	 57.5164 	 -65.247
|  8> C 	 -131.084 	 57.6947 	 -66.6218
|  9> C 	 -129.719 	 57.7408 	 -66.3276
| 10> C 	 -129.548 	 57.6428 	 -64.9456
| 11> C 	 -130.688 	 57.362 	 -64.2748
| 12> H 	 -128.552 	 57.6481 	 -64.4809
| 13> C 	 -128.583 	 57.7232 	 -67.362
| 14> H 	 -127.749 	 57.9004 	 -66.7025
| 15> H 	 -128.748 	 58.5694 	 -67.9824
| 16> C 	 -128.28 	 56.4083 	 -68.1309
| 17> H 	 -129.128 	 56.1426 	 -68.7415
| 18> H 	 -127.523 	 56.71 	 -68.8722
| 19> C 	 -127.7 	 55.2751 	 -67.2372
| 20> H 	 -127.055 	 54.6756 	 -67.8349
| 21> H 	 -127.032 	 55.7178 	 -66.5597
| 22> H 	 -128.523 	 54.7811 	 -66.6971
| 23> S 	 -130.694 	 58.3819 	 -61.7548
| 24> C 	 -130.803 	 57.2288 	 -60.4252
| 25> C 	 -130.896 	 55.8957 	 -60.8389
| 26> C 	 -130.781 	 55.7223 	 -62.2907
| 27> C 	 -130.852 	 57.0067 	 -62.9191
| 28> H 	 -130.976 	 55.1458 	 -60.0654
| 29> C 	 -130.679 	 54.4805 	 -63.0717
| 30> H 	 -130.293 	 53.7984 	 -62.3189
| 31> H 	 -129.802 	 54.5605 	 -63.806
| 32> C 	 -132.089 	 54.097 	 -63.7351
| 33> H 	 -132.496 	 54.9781 	 -64.3055
| 34> H 	 -132.723 	 53.8496 	 -62.8996
| 35> C 	 -131.978 	 52.9084 	 -64.7397
| 36> H 	 -132.792 	 52.8981 	 -65.466
| 37> H 	 -131.771 	 52.0104 	 -64.198
| 38> H 	 -131.173 	 53.0504 	 -65.3414
| 39> H 	 -131.539 	 57.6513 	 -67.6108
| 40> H 	 -131.013 	 57.4239 	 -59.3833
| 41> *
| 42>
| 43>                          ****END OF INPUT****

CARTESIAN COORDINATES (ANGSTROEM)
---------------------------------
  S    -132.134000   57.516400  -65.247000
  C    -131.084000   57.694700  -66.621800
  C    -129.719000   57.740800  -66.327600
  C    -129.548000   57.642800  -64.945600
  C    -130.688000   57.362000  -64.274800
  H    -128.552000   57.648100  -64.480900
  C    -128.583000   57.723200  -67.362000
  H    -127.749000   57.900400  -66.702500
  H    -128.748000   58.569400  -67.982400
  C    -128.280000   56.408300  -68.130900
  H    -129.128000   56.142600  -68.741500
  H    -127.523000   56.710000  -68.872200
  C    -127.700000   55.275100  -67.237200
  H    -127.055000   54.675600  -67.834900
  H    -127.032000   55.717800  -66.559700
  H    -128.523000   54.781100  -66.697100
  S    -130.694000   58.381900  -61.754800
  C    -130.803000   57.228800  -60.425200
  C    -130.896000   55.895700  -60.838900
  C    -130.781000   55.722300  -62.290700
  C    -130.852000   57.006700  -62.919100
  H    -130.976000   55.145800  -60.065400
  C    -130.679000   54.480500  -63.071700
  H    -130.293000   53.798400  -62.318900
  H    -129.802000   54.560500  -63.806000
  C    -132.089000   54.097000  -63.735100
  H    -132.496000   54.978100  -64.305500
  H    -132.723000   53.849600  -62.899600
  C    -131.978000   52.908400  -64.739700
  H    -132.792000   52.898100  -65.466000
  H    -131.771000   52.010400  -64.198000
  H    -131.173000   53.050400  -65.341400
  H    -131.539000   57.651300  -67.610800
  H    -131.013000   57.423900  -59.383300

 Total Charge           Charge          ....    0
 Multiplicity           Mult            ....    1
 Number of Electrons    NEL             ....  134
 Basis Dimension        Dim             ....  322

ORBITAL ENERGIES
----------------

  NO   OCC          E(Eh)            E(eV)
   0   2.0000     -88.966969     -2420.9143
   1   2.0000     -88.963972     -2420.8328
   2   2.0000     -10.320936      -280.8469
   3   2.0000     -10.317216      -280.7457
   4   2.0000     -10.315572      -280.7010
   5   2.0000     -10.310749      -280.5697
   6   2.0000     -10.308865      -280.5185
   7   2.0000     -10.297470      -280.2084
   8   2.0000     -10.297098      -280.1983
   9   2.0000     -10.296328      -280.1773
  10   2.0000     -10.291470      -280.0451
  11   2.0000     -10.291082      -280.0346
  12   2.0000     -10.290990      -280.0321
  13   2.0000     -10.290764      -280.0259
  14   2.0000     -10.277561      -279.6666
  15   2.0000     -10.266064      -279.3538
  16   2.0000      -8.081728      -219.9150
  17   2.0000      -8.077421      -219.7978
  18   2.0000      -6.039926      -164.3547
  19   2.0000      -6.036362      -164.2578
  20   2.0000      -6.036001      -164.2479
  21   2.0000      -6.032672      -164.1573
  22   2.0000      -6.032165      -164.1436
  23   2.0000      -6.028145      -164.0342
  24   2.0000      -1.007259       -27.4089
  25   2.0000      -0.972439       -26.4614
  26   2.0000      -0.909968       -24.7615
  27   2.0000      -0.899956       -24.4891
  28   2.0000      -0.866386       -23.5756
  29   2.0000      -0.854578       -23.2542
  30   2.0000      -0.846824       -23.0433
  31   2.0000      -0.810977       -22.0678
  32   2.0000      -0.787325       -21.4242
  33   2.0000      -0.762797       -20.7568
  34   2.0000      -0.711251       -19.3541
  35   2.0000      -0.705745       -19.2043
  36   2.0000      -0.691134       -18.8067
  37   2.0000      -0.654132       -17.7998
  38   2.0000      -0.643241       -17.5035
  39   2.0000      -0.614349       -16.7173
  40   2.0000      -0.581619       -15.8267
  41   2.0000      -0.567366       -15.4388
  42   2.0000      -0.561582       -15.2814
  43   2.0000      -0.556912       -15.1543
  44   2.0000      -0.540303       -14.7024
  45   2.0000      -0.524728       -14.2786
  46   2.0000      -0.512969       -13.9586
  47   2.0000      -0.507508       -13.8100
  48   2.0000      -0.496733       -13.5168
  49   2.0000      -0.492064       -13.3897
  50   2.0000      -0.485175       -13.2023
  51   2.0000      -0.484176       -13.1751
  52   2.0000      -0.469427       -12.7737
  53   2.0000      -0.461389       -12.5550
  54   2.0000      -0.456970       -12.4348
  55   2.0000      -0.449011       -12.2182
  56   2.0000      -0.440518       -11.9871
  57   2.0000      -0.437953       -11.9173
  58   2.0000      -0.436639       -11.8815
  59   2.0000      -0.431739       -11.7482
  60   2.0000      -0.426203       -11.5976
  61   2.0000      -0.419704       -11.4207
  62   2.0000      -0.411030       -11.1847
  63   2.0000      -0.340201        -9.2573
  64   2.0000      -0.326322        -8.8797
  65   2.0000      -0.311815        -8.4849
  66   2.0000      -0.300023        -8.1640
  67   0.0000       0.039176         1.0660
  68   0.0000       0.048351         1.3157
  69   0.0000       0.104929         2.8553
  70   0.0000       0.112147         3.0517
  71   0.0000       0.122896         3.3442

MULLIKEN ATOMIC CHARGES
-----------------------
   0 S :    0.120890
   1 C :   -0.139948
   2 C :   -0.109211
   3 C :    0.047641
   4 C :   -0.188767
   5 H :    0.018950
   6 C :    0.092943
   7 H :    0.005406
   8 H :    0.031450
   9 C :   -0.073756
  10 H :    0.026529
  11 H :    0.028887
  12 C :   -0.012776
  13 H :    0.028582
  14 H :    0.005805
  15 H :    0.061741
  16 S :    0.106472
  17 C :   -0.081057
  18 C :   -0.048648
  19 C :   -0.030966
  20 C :   -0.182185
  21 H :    0.015903
  22 C :    0.053749
  23 H :    0.017961
  24 H :    0.044721
  25 C :   -0.097857
  26 H :    0.044773
  27 H :    0.033832
  28 C :    0.030452
  29 H :    0.031545
  30 H :    0.024528
  31 H :   -0.007085
  32 H :    0.046278
  33 H :    0.053217
Sum of atomic charges:   -0.0000000

LOEWDIN ATOMIC CHARGES
----------------------
   0 S :    0.427236
   1 C :   -0.199010
   2 C :   -0.068896
   3 C :   -0.058457
   4 C :   -0.205548
   5 H :    0.037719
   6 C :   -0.024716
   7 H :    0.025329
   8 H :    0.029374
   9 C :   -0.035111
  10 H :    0.019435
  11 H :    0.027529
  12 C :   -0.056229
  13 H :    0.026287
  14 H :    0.017496
  15 H :    0.034139
  16 S :    0.379640
  17 C :   -0.187414
  18 C :   -0.073117
  19 C :   -0.042526
  20 C :   -0.194271
  21 H :    0.028836
  22 C :   -0.045061
  23 H :    0.029783
  24 H :    0.040592
  25 C :   -0.029592
  26 H :    0.019058
  27 H :    0.022616
  28 C :   -0.059083
  29 H :    0.030321
  30 H :    0.023688
  31 H :    0.010496
  32 H :    0.020630
  33 H :    0.028827

  Mayer bond orders larger than 0.100000
B(  0-S ,  1-C ) :   1.1578 B(  0-S ,  4-C ) :   1.1557 B(  1-C ,  2-C ) :   1.5947
B(  1-C ,  4-C ) :   0.1031 B(  1-C , 32-H ) :   0.9701 B(  2-C ,  3-C ) :   1.2608
B(  2-C ,  6-C ) :   0.9985 B(  3-C ,  4-C ) :   1.5931 B(  3-C ,  5-H ) :   0.9896
B(  4-C , 20-C ) :   1.0283 B(  6-C ,  7-H ) :   0.9400 B(  6-C ,  8-H ) :   0.9354
B(  6-C ,  9-C ) :   1.0766 B(  9-C , 10-H ) :   0.9587 B(  9-C , 11-H ) :   0.9543
B(  9-C , 12-C ) :   1.0661 B( 12-C , 13-H ) :   0.9733 B( 12-C , 14-H ) :   0.9731
B( 12-C , 15-H ) :   0.9763 B( 16-S , 17-C ) :   1.1422 B( 16-S , 20-C ) :   1.1299
B( 17-C , 18-C ) :   1.6525 B( 17-C , 20-C ) :   0.1051 B( 17-C , 33-H ) :   0.9592
B( 18-C , 19-C ) :   1.2111 B( 18-C , 21-H ) :   0.9836 B( 19-C , 20-C ) :   1.5820
B( 19-C , 22-C ) :   1.0610 B( 22-C , 23-H ) :   0.9252 B( 22-C , 24-H ) :   0.9262
B( 22-C , 25-C ) :   1.0378 B( 25-C , 26-H ) :   0.9560 B( 25-C , 27-H ) :   0.9579
B( 25-C , 28-C ) :   1.0772 B( 28-C , 29-H ) :   0.9729 B( 28-C , 30-H ) :   0.9738
B( 28-C , 31-H ) :   0.9702

Dispersion correction           -0.015664055
FINAL SINGLE POINT ENERGY     -1339.854666709875

DIPOLE MOMENT
-------------
                                X             Y             Z
Electronic contribution:     -9.71334      19.73515      14.77768
Nuclear contribution   :     10.11344     -20.21358     -15.10430
                        -----------------------------------------
Total Dipole Moment    :      0.40009      -0.47844      -0.32662
                        -----------------------------------------
Magnitude (a.u.)       :      0.70403
Magnitude (Debye)      :      1.78950

Rotational constants in cm-1:     0.018050     0.009693     0.008123
Rotational constants in MHz :   541.135517   290.580426   243.513987

                             ****ORCA TERMINATED NORMALLY****
TOTAL RUN TIME: 0 days 0 hours 0 minutes 21 seconds 582 msec
