                         Program Version 4.2.1 -  RELEASE  -
|  1> ! wB97X-D3 SP def2-SVP
|  2> %pal
|  3> nprocs 24
|  4> end
|  5>
|  6> * xyz 0 1
|  7> S 	 -61.1903 	 14.4997 	 -98.0597
|  8> C 	 -60.325 	 15.9767 	 -98.4005
|  9> C 	 -59.023 	 15.7539 	 -98.8127
| 10> C 	 -58.7348 	 14.2997 	 -98.859
| 11> C 	 -59.8465 	 13.485 	 -98.5451
| 12> H 	 -57.8045 	 13.8831 	 -99.1536
| 13> C 	 -58.0349 	 16.8011 	 -99.2781
| 14> H 	 -58.3559 	 17.7332 	 -98.9491
| 15> H 	 -58.0696 	 16.9199 	 -100.348
| 16> C 	 -56.5896 	 16.7001 	 -98.7189
| 17> H 	 -55.9748 	 15.805 	 -98.942
| 18> H 	 -56.0644 	 17.5633 	 -98.9993
| 19> C 	 -56.5626 	 16.5767 	 -97.2128
| 20> H 	 -57.0799 	 15.6657 	 -96.9761
| 21> H 	 -55.5154 	 16.6877 	 -96.9483
| 22> H 	 -57.0189 	 17.5123 	 -96.7998
| 23> S 	 -60.0411 	 11.1743 	 -97.1385
| 24> C 	 -59.874 	 9.68514 	 -98.0353
| 25> C 	 -59.5064 	 9.83763 	 -99.3734
| 26> C 	 -59.5539 	 11.2367 	 -99.7254
| 27> C 	 -59.8248 	 12.0384 	 -98.6401
| 28> H 	 -59.2289 	 8.98348 	 -99.9469
| 29> C 	 -59.0071 	 11.6891 	 -101.133
| 30> H 	 -58.6458 	 12.7533 	 -101.116
| 31> H 	 -59.782 	 11.5504 	 -101.842
| 32> C 	 -57.7687 	 10.8881 	 -101.614
| 33> H 	 -57.6363 	 11.2666 	 -102.665
| 34> H 	 -57.8417 	 9.78548 	 -101.643
| 35> C 	 -56.5401 	 11.3184 	 -100.762
| 36> H 	 -56.0177 	 12.0884 	 -101.316
| 37> H 	 -55.917 	 10.4022 	 -100.662
| 38> H 	 -56.7061 	 11.7315 	 -99.7874
| 39> H 	 -60.8349 	 16.9223 	 -98.1419
| 40> H 	 -60.0224 	 8.72055 	 -97.5261
| 41> *
| 42>
| 43>                          ****END OF INPUT****

CARTESIAN COORDINATES (ANGSTROEM)
---------------------------------
  S    -61.190300   14.499700  -98.059700
  C    -60.325000   15.976700  -98.400500
  C    -59.023000   15.753900  -98.812700
  C    -58.734800   14.299700  -98.859000
  C    -59.846500   13.485000  -98.545100
  H    -57.804500   13.883100  -99.153600
  C    -58.034900   16.801100  -99.278100
  H    -58.355900   17.733200  -98.949100
  H    -58.069600   16.919900  -100.348000
  C    -56.589600   16.700100  -98.718900
  H    -55.974800   15.805000  -98.942000
  H    -56.064400   17.563300  -98.999300
  C    -56.562600   16.576700  -97.212800
  H    -57.079900   15.665700  -96.976100
  H    -55.515400   16.687700  -96.948300
  H    -57.018900   17.512300  -96.799800
  S    -60.041100   11.174300  -97.138500
  C    -59.874000    9.685140  -98.035300
  C    -59.506400    9.837630  -99.373400
  C    -59.553900   11.236700  -99.725400
  C    -59.824800   12.038400  -98.640100
  H    -59.228900    8.983480  -99.946900
  C    -59.007100   11.689100  -101.133000
  H    -58.645800   12.753300  -101.116000
  H    -59.782000   11.550400  -101.842000
  C    -57.768700   10.888100  -101.614000
  H    -57.636300   11.266600  -102.665000
  H    -57.841700    9.785480  -101.643000
  C    -56.540100   11.318400  -100.762000
  H    -56.017700   12.088400  -101.316000
  H    -55.917000   10.402200  -100.662000
  H    -56.706100   11.731500  -99.787400
  H    -60.834900   16.922300  -98.141900
  H    -60.022400    8.720550  -97.526100

 Total Charge           Charge          ....    0
 Multiplicity           Mult            ....    1
 Number of Electrons    NEL             ....  134
 Basis Dimension        Dim             ....  322

ORBITAL ENERGIES
----------------

  NO   OCC          E(Eh)            E(eV)
   0   2.0000     -88.966839     -2420.9108
   1   2.0000     -88.965024     -2420.8614
   2   2.0000     -10.329900      -281.0909
   3   2.0000     -10.323222      -280.9092
   4   2.0000     -10.320063      -280.8232
   5   2.0000     -10.317865      -280.7634
   6   2.0000     -10.308096      -280.4975
   7   2.0000     -10.307491      -280.4811
   8   2.0000     -10.298010      -280.2231
   9   2.0000     -10.296591      -280.1845
  10   2.0000     -10.296014      -280.1688
  11   2.0000     -10.294922      -280.1391
  12   2.0000     -10.288386      -279.9612
  13   2.0000     -10.281232      -279.7665
  14   2.0000     -10.276525      -279.6385
  15   2.0000     -10.271478      -279.5011
  16   2.0000      -8.082007      -219.9226
  17   2.0000      -8.079826      -219.8632
  18   2.0000      -6.040367      -164.3667
  19   2.0000      -6.038384      -164.3128
  20   2.0000      -6.036652      -164.2656
  21   2.0000      -6.034239      -164.2000
  22   2.0000      -6.032708      -164.1583
  23   2.0000      -6.030625      -164.1017
  24   2.0000      -1.003474       -27.3059
  25   2.0000      -0.979318       -26.6486
  26   2.0000      -0.914960       -24.8973
  27   2.0000      -0.904768       -24.6200
  28   2.0000      -0.869451       -23.6590
  29   2.0000      -0.846864       -23.0444
  30   2.0000      -0.843864       -22.9627
  31   2.0000      -0.809735       -22.0340
  32   2.0000      -0.784274       -21.3412
  33   2.0000      -0.773092       -21.0369
  34   2.0000      -0.703895       -19.1540
  35   2.0000      -0.690566       -18.7913
  36   2.0000      -0.686944       -18.6927
  37   2.0000      -0.658637       -17.9224
  38   2.0000      -0.643097       -17.4996
  39   2.0000      -0.621953       -16.9242
  40   2.0000      -0.598713       -16.2918
  41   2.0000      -0.567767       -15.4497
  42   2.0000      -0.556211       -15.1353
  43   2.0000      -0.553669       -15.0661
  44   2.0000      -0.548675       -14.9302
  45   2.0000      -0.537137       -14.6162
  46   2.0000      -0.519093       -14.1252
  47   2.0000      -0.511270       -13.9124
  48   2.0000      -0.498417       -13.5626
  49   2.0000      -0.496166       -13.5014
  50   2.0000      -0.494943       -13.4681
  51   2.0000      -0.474428       -12.9099
  52   2.0000      -0.464881       -12.6501
  53   2.0000      -0.459923       -12.5151
  54   2.0000      -0.457286       -12.4434
  55   2.0000      -0.453270       -12.3341
  56   2.0000      -0.448030       -12.1915
  57   2.0000      -0.435972       -11.8634
  58   2.0000      -0.430244       -11.7075
  59   2.0000      -0.422183       -11.4882
  60   2.0000      -0.418403       -11.3853
  61   2.0000      -0.413733       -11.2582
  62   2.0000      -0.410284       -11.1644
  63   2.0000      -0.337143        -9.1741
  64   2.0000      -0.332297        -9.0423
  65   2.0000      -0.325540        -8.8584
  66   2.0000      -0.299545        -8.1510
  67   0.0000       0.035204         0.9580
  68   0.0000       0.066713         1.8153
  69   0.0000       0.105755         2.8778
  70   0.0000       0.120024         3.2660
  71   0.0000       0.129439         3.5222

MULLIKEN ATOMIC CHARGES
-----------------------
   0 S :    0.112552
   1 C :   -0.148342
   2 C :   -0.107456
   3 C :    0.043887
   4 C :   -0.146380
   5 H :   -0.009015
   6 C :    0.142851
   7 H :   -0.014597
   8 H :    0.040364
   9 C :   -0.097634
  10 H :    0.031367
  11 H :    0.017374
  12 C :   -0.052877
  13 H :    0.055293
  14 H :    0.030563
  15 H :    0.019883
  16 S :    0.119193
  17 C :   -0.104509
  18 C :   -0.030680
  19 C :   -0.015312
  20 C :   -0.190786
  21 H :    0.016183
  22 C :    0.076298
  23 H :    0.041326
  24 H :    0.027140
  25 C :   -0.118990
  26 H :    0.042546
  27 H :    0.040228
  28 C :   -0.065284
  29 H :    0.031337
  30 H :    0.037876
  31 H :    0.047420
  32 H :    0.065299
  33 H :    0.062884
Sum of atomic charges:   -0.0000000

LOEWDIN ATOMIC CHARGES
----------------------
   0 S :    0.405481
   1 C :   -0.200904
   2 C :   -0.061818
   3 C :   -0.056438
   4 C :   -0.200111
   5 H :    0.018612
   6 C :   -0.026395
   7 H :    0.021669
   8 H :    0.034334
   9 C :   -0.041677
  10 H :    0.024691
  11 H :    0.016317
  12 C :   -0.060202
  13 H :    0.026019
  14 H :    0.026349
  15 H :    0.022619
  16 S :    0.410493
  17 C :   -0.180591
  18 C :   -0.067897
  19 C :   -0.048798
  20 C :   -0.208422
  21 H :    0.029642
  22 C :   -0.023435
  23 H :    0.036745
  24 H :    0.023938
  25 C :   -0.043239
  26 H :    0.033055
  27 H :    0.020007
  28 C :   -0.070122
  29 H :    0.025362
  30 H :    0.032313
  31 H :    0.020675
  32 H :    0.033397
  33 H :    0.028329

  Mayer bond orders larger than 0.100000
B(  0-S ,  1-C ) :   1.1455 B(  0-S ,  4-C ) :   1.1527 B(  1-C ,  2-C ) :   1.6087
B(  1-C , 32-H ) :   0.9642 B(  2-C ,  3-C ) :   1.2224 B(  2-C ,  6-C ) :   1.0286
B(  3-C ,  4-C ) :   1.5684 B(  3-C ,  5-H ) :   0.9948 B(  4-C , 20-C ) :   1.0331
B(  6-C ,  7-H ) :   0.9261 B(  6-C ,  8-H ) :   0.9367 B(  6-C ,  9-C ) :   1.0639
B(  9-C , 10-H ) :   0.9602 B(  9-C , 11-H ) :   0.9584 B(  9-C , 12-C ) :   1.0740
B( 12-C , 13-H ) :   0.9724 B( 12-C , 14-H ) :   0.9742 B( 12-C , 15-H ) :   0.9757
B( 16-S , 17-C ) :   1.1613 B( 16-S , 20-C ) :   1.1440 B( 17-C , 18-C ) :   1.6192
B( 17-C , 33-H ) :   0.9639 B( 18-C , 19-C ) :   1.2110 B( 18-C , 21-H ) :   0.9959
B( 19-C , 20-C ) :   1.6318 B( 19-C , 22-C ) :   1.0231 B( 22-C , 23-H ) :   0.9468
B( 22-C , 24-H ) :   0.9286 B( 22-C , 25-C ) :   1.0715 B( 25-C , 26-H ) :   0.9589
B( 25-C , 27-H ) :   0.9618 B( 25-C , 28-C ) :   1.0491 B( 28-C , 29-H ) :   0.9785
B( 28-C , 30-H ) :   0.9774 B( 28-C , 31-H ) :   0.9801

Dispersion correction           -0.015268200
FINAL SINGLE POINT ENERGY     -1339.867061020476

DIPOLE MOMENT
-------------
                                X             Y             Z
Electronic contribution:    -23.08191      -7.58715      11.66769
Nuclear contribution   :     23.61548       7.67458     -12.10481
                        -----------------------------------------
Total Dipole Moment    :      0.53358       0.08743      -0.43712
                        -----------------------------------------
Magnitude (a.u.)       :      0.69529
Magnitude (Debye)      :      1.76728

Rotational constants in cm-1:     0.018187     0.009502     0.007557
Rotational constants in MHz :   545.232762   284.850251   226.546447

                             ****ORCA TERMINATED NORMALLY****
TOTAL RUN TIME: 0 days 0 hours 0 minutes 22 seconds 419 msec
