                         Program Version 4.2.1 -  RELEASE  -
|  1> ! wB97X-D3 SP def2-SVP
|  2> %pal
|  3> nprocs 24
|  4> end
|  5>
|  6> * xyz 0 1
|  7> S 	 -54.0586 	 7.01719 	 -32.149
|  8> C 	 -55.0248 	 5.56661 	 -31.905
|  9> C 	 -54.2102 	 4.43645 	 -31.866
| 10> C 	 -52.8302 	 4.70296 	 -32.223
| 11> C 	 -52.6004 	 6.04402 	 -32.5793
| 12> H 	 -52.0831 	 3.93417 	 -32.1819
| 13> C 	 -54.5894 	 3.06957 	 -31.3104
| 14> H 	 -55.0584 	 3.18797 	 -30.3154
| 15> H 	 -53.5973 	 2.63517 	 -31.061
| 16> C 	 -55.4328 	 2.17007 	 -32.2562
| 17> H 	 -56.386 	 2.59758 	 -32.5032
| 18> H 	 -54.91 	 2.11544 	 -33.21
| 19> C 	 -55.6815 	 0.766489 	 -31.6184
| 20> H 	 -56.2459 	 0.856426 	 -30.6915
| 21> H 	 -56.2221 	 0.101411 	 -32.3323
| 22> H 	 -54.7608 	 0.265014 	 -31.5042
| 23> S 	 -51.7129 	 7.86094 	 -34.219
| 24> C 	 -50.0586 	 8.46107 	 -34.1137
| 25> C 	 -49.3078 	 7.69058 	 -33.2665
| 26> C 	 -50.0777 	 6.63248 	 -32.6718
| 27> C 	 -51.42 	 6.70577 	 -32.9872
| 28> H 	 -48.2474 	 7.96046 	 -33.0502
| 29> C 	 -49.5344 	 5.71586 	 -31.59
| 30> H 	 -48.9505 	 5.04027 	 -32.1755
| 31> H 	 -50.3094 	 5.15232 	 -31.0995
| 32> C 	 -48.6697 	 6.44488 	 -30.559
| 33> H 	 -49.2965 	 7.20422 	 -30.0491
| 34> H 	 -47.8181 	 6.99981 	 -30.9548
| 35> C 	 -48.1753 	 5.39825 	 -29.568
| 36> H 	 -47.9172 	 4.4911 	 -30.1052
| 37> H 	 -48.9448 	 5.2093 	 -28.8471
| 38> H 	 -47.2466 	 5.70191 	 -29.0042
| 39> H 	 -56.1052 	 5.48482 	 -31.6179
| 40> H 	 -49.7082 	 9.32725 	 -34.7024
| 41> *
| 42>
| 43>                          ****END OF INPUT****

CARTESIAN COORDINATES (ANGSTROEM)
---------------------------------
  S    -54.058600    7.017190  -32.149000
  C    -55.024800    5.566610  -31.905000
  C    -54.210200    4.436450  -31.866000
  C    -52.830200    4.702960  -32.223000
  C    -52.600400    6.044020  -32.579300
  H    -52.083100    3.934170  -32.181900
  C    -54.589400    3.069570  -31.310400
  H    -55.058400    3.187970  -30.315400
  H    -53.597300    2.635170  -31.061000
  C    -55.432800    2.170070  -32.256200
  H    -56.386000    2.597580  -32.503200
  H    -54.910000    2.115440  -33.210000
  C    -55.681500    0.766489  -31.618400
  H    -56.245900    0.856426  -30.691500
  H    -56.222100    0.101411  -32.332300
  H    -54.760800    0.265014  -31.504200
  S    -51.712900    7.860940  -34.219000
  C    -50.058600    8.461070  -34.113700
  C    -49.307800    7.690580  -33.266500
  C    -50.077700    6.632480  -32.671800
  C    -51.420000    6.705770  -32.987200
  H    -48.247400    7.960460  -33.050200
  C    -49.534400    5.715860  -31.590000
  H    -48.950500    5.040270  -32.175500
  H    -50.309400    5.152320  -31.099500
  C    -48.669700    6.444880  -30.559000
  H    -49.296500    7.204220  -30.049100
  H    -47.818100    6.999810  -30.954800
  C    -48.175300    5.398250  -29.568000
  H    -47.917200    4.491100  -30.105200
  H    -48.944800    5.209300  -28.847100
  H    -47.246600    5.701910  -29.004200
  H    -56.105200    5.484820  -31.617900
  H    -49.708200    9.327250  -34.702400

 Total Charge           Charge          ....    0
 Multiplicity           Mult            ....    1
 Number of Electrons    NEL             ....  134
 Basis Dimension        Dim             ....  322

ORBITAL ENERGIES
----------------

  NO   OCC          E(Eh)            E(eV)
   0   2.0000     -88.967752     -2420.9356
   1   2.0000     -88.959926     -2420.7226
   2   2.0000     -10.333759      -281.1959
   3   2.0000     -10.318354      -280.7767
   4   2.0000     -10.318245      -280.7737
   5   2.0000     -10.318041      -280.7682
   6   2.0000     -10.302927      -280.3569
   7   2.0000     -10.301158      -280.3088
   8   2.0000     -10.298720      -280.2424
   9   2.0000     -10.298300      -280.2310
  10   2.0000     -10.296720      -280.1880
  11   2.0000     -10.288362      -279.9606
  12   2.0000     -10.288277      -279.9582
  13   2.0000     -10.286871      -279.9200
  14   2.0000     -10.279277      -279.7133
  15   2.0000     -10.277416      -279.6627
  16   2.0000      -8.081181      -219.9001
  17   2.0000      -8.075614      -219.7486
  18   2.0000      -6.039911      -164.3543
  19   2.0000      -6.035950      -164.2465
  20   2.0000      -6.034045      -164.1947
  21   2.0000      -6.031672      -164.1301
  22   2.0000      -6.029970      -164.0838
  23   2.0000      -6.026371      -163.9859
  24   2.0000      -1.009172       -27.4610
  25   2.0000      -0.977345       -26.5949
  26   2.0000      -0.914685       -24.8898
  27   2.0000      -0.905235       -24.6327
  28   2.0000      -0.872428       -23.7400
  29   2.0000      -0.851419       -23.1683
  30   2.0000      -0.842892       -22.9363
  31   2.0000      -0.812521       -22.1098
  32   2.0000      -0.777058       -21.1448
  33   2.0000      -0.765910       -20.8415
  34   2.0000      -0.707504       -19.2522
  35   2.0000      -0.705879       -19.2080
  36   2.0000      -0.699617       -19.0375
  37   2.0000      -0.659972       -17.9588
  38   2.0000      -0.631229       -17.1766
  39   2.0000      -0.619746       -16.8641
  40   2.0000      -0.597548       -16.2601
  41   2.0000      -0.571221       -15.5437
  42   2.0000      -0.562417       -15.3042
  43   2.0000      -0.558998       -15.2111
  44   2.0000      -0.527115       -14.3435
  45   2.0000      -0.523232       -14.2379
  46   2.0000      -0.516865       -14.0646
  47   2.0000      -0.513570       -13.9750
  48   2.0000      -0.502103       -13.6629
  49   2.0000      -0.499591       -13.5945
  50   2.0000      -0.490614       -13.3503
  51   2.0000      -0.477109       -12.9828
  52   2.0000      -0.470374       -12.7995
  53   2.0000      -0.463196       -12.6042
  54   2.0000      -0.459451       -12.5023
  55   2.0000      -0.448858       -12.2140
  56   2.0000      -0.445609       -12.1256
  57   2.0000      -0.436199       -11.8696
  58   2.0000      -0.435176       -11.8417
  59   2.0000      -0.426722       -11.6117
  60   2.0000      -0.424781       -11.5589
  61   2.0000      -0.417690       -11.3659
  62   2.0000      -0.410961       -11.1828
  63   2.0000      -0.351296        -9.5593
  64   2.0000      -0.329916        -8.9775
  65   2.0000      -0.324863        -8.8400
  66   2.0000      -0.285906        -7.7799
  67   0.0000       0.022684         0.6173
  68   0.0000       0.073227         1.9926
  69   0.0000       0.098362         2.6766
  70   0.0000       0.117787         3.2051
  71   0.0000       0.132808         3.6139

MULLIKEN ATOMIC CHARGES
-----------------------
   0 S :    0.111026
   1 C :   -0.121292
   2 C :   -0.113630
   3 C :    0.035314
   4 C :   -0.135574
   5 H :    0.010539
   6 C :    0.029721
   7 H :    0.034788
   8 H :    0.016438
   9 C :   -0.056113
  10 H :    0.024696
  11 H :    0.028919
  12 C :   -0.041613
  13 H :    0.039619
  14 H :    0.035420
  15 H :    0.021981
  16 S :    0.099951
  17 C :   -0.099451
  18 C :   -0.054633
  19 C :   -0.027195
  20 C :   -0.165476
  21 H :    0.037797
  22 C :    0.084855
  23 H :    0.024026
  24 H :    0.020518
  25 C :   -0.097455
  26 H :    0.041254
  27 H :    0.030392
  28 C :   -0.042470
  29 H :    0.024753
  30 H :    0.033705
  31 H :    0.036543
  32 H :    0.065285
  33 H :    0.067362
Sum of atomic charges:    0.0000000

LOEWDIN ATOMIC CHARGES
----------------------
   0 S :    0.387811
   1 C :   -0.207362
   2 C :   -0.067566
   3 C :   -0.061849
   4 C :   -0.178690
   5 H :    0.025457
   6 C :   -0.036523
   7 H :    0.031648
   8 H :    0.030824
   9 C :   -0.035773
  10 H :    0.019826
  11 H :    0.025918
  12 C :   -0.063661
  13 H :    0.026435
  14 H :    0.030737
  15 H :    0.017812
  16 S :    0.414216
  17 C :   -0.182183
  18 C :   -0.076815
  19 C :   -0.052740
  20 C :   -0.216301
  21 H :    0.040528
  22 C :   -0.025710
  23 H :    0.030175
  24 H :    0.028255
  25 C :   -0.041652
  26 H :    0.029840
  27 H :    0.020879
  28 C :   -0.065668
  29 H :    0.022609
  30 H :    0.023303
  31 H :    0.030472
  32 H :    0.041383
  33 H :    0.034367

  Mayer bond orders larger than 0.100000
B(  0-S ,  1-C ) :   1.1257 B(  0-S ,  4-C ) :   1.1392 B(  1-C ,  2-C ) :   1.6146
B(  1-C ,  4-C ) :   0.1026 B(  1-C , 32-H ) :   0.9607 B(  2-C ,  3-C ) :   1.2539
B(  2-C ,  6-C ) :   1.0120 B(  3-C ,  4-C ) :   1.5454 B(  3-C ,  5-H ) :   0.9921
B(  4-C , 20-C ) :   1.0795 B(  6-C ,  7-H ) :   0.9433 B(  6-C ,  8-H ) :   0.9474
B(  6-C ,  9-C ) :   1.0528 B(  9-C , 10-H ) :   0.9598 B(  9-C , 11-H ) :   0.9559
B(  9-C , 12-C ) :   1.0793 B( 12-C , 13-H ) :   0.9759 B( 12-C , 14-H ) :   0.9747
B( 12-C , 15-H ) :   0.9769 B( 16-S , 17-C ) :   1.1480 B( 16-S , 20-C ) :   1.1438
B( 17-C , 18-C ) :   1.6152 B( 17-C , 33-H ) :   0.9659 B( 18-C , 19-C ) :   1.2240
B( 18-C , 21-H ) :   0.9847 B( 19-C , 20-C ) :   1.5835 B( 19-C , 22-C ) :   1.0337
B( 22-C , 23-H ) :   0.9139 B( 22-C , 24-H ) :   0.9432 B( 22-C , 25-C ) :   1.0727
B( 25-C , 26-H ) :   0.9596 B( 25-C , 27-H ) :   0.9515 B( 25-C , 28-C ) :   1.0798
B( 28-C , 29-H ) :   0.9730 B( 28-C , 30-H ) :   0.9758 B( 28-C , 31-H ) :   0.9744

Dispersion correction           -0.013384316
FINAL SINGLE POINT ENERGY     -1339.881185028528

DIPOLE MOMENT
-------------
                                X             Y             Z
Electronic contribution:     -5.12412      23.49221     -14.41744
Nuclear contribution   :      5.46401     -23.93784      14.80781
                        -----------------------------------------
Total Dipole Moment    :      0.33989      -0.44564       0.39037
                        -----------------------------------------
Magnitude (a.u.)       :      0.68301
Magnitude (Debye)      :      1.73608

Rotational constants in cm-1:     0.018741     0.007707     0.006073
Rotational constants in MHz :   561.841651   231.047774   182.075654

                             ****ORCA TERMINATED NORMALLY****
TOTAL RUN TIME: 0 days 0 hours 0 minutes 20 seconds 965 msec
