                         Program Version 4.2.1 -  RELEASE  -
|  1> ! wB97X-D3 SP def2-SVP
|  2> %pal
|  3> nprocs 24
|  4> end
|  5>
|  6> * xyz 0 1
|  7> S 	 -56.2983 	 3.56186 	 -24.3017
|  8> C 	 -55.4206 	 4.89655 	 -24.844
|  9> C 	 -54.0673 	 4.66781 	 -24.7269
| 10> C 	 -53.78 	 3.32588 	 -24.3157
| 11> C 	 -54.8624 	 2.53265 	 -24.047
| 12> H 	 -52.8172 	 2.92345 	 -24.1364
| 13> C 	 -52.8881 	 5.58276 	 -25.1492
| 14> H 	 -53.3704 	 6.47721 	 -25.6306
| 15> H 	 -52.2886 	 5.09524 	 -25.9379
| 16> C 	 -51.8856 	 6.05207 	 -24.0952
| 17> H 	 -52.5152 	 6.5452 	 -23.3192
| 18> H 	 -51.3474 	 5.17921 	 -23.6982
| 19> C 	 -50.7838 	 7.01091 	 -24.5231
| 20> H 	 -51.262 	 7.93144 	 -24.8436
| 21> H 	 -50.2158 	 7.38443 	 -23.6762
| 22> H 	 -50.0201 	 6.61643 	 -25.1276
| 23> S 	 -54.5245 	 0.880816 	 -21.7379
| 24> C 	 -54.6719 	 -0.794425 	 -21.9975
| 25> C 	 -54.9433 	 -1.08838 	 -23.2805
| 26> C 	 -55.1718 	 0.02156 	 -24.1755
| 27> C 	 -54.9462 	 1.20351 	 -23.469
| 28> H 	 -54.9793 	 -2.07414 	 -23.5707
| 29> C 	 -55.5062 	 -0.0411037 	 -25.6073
| 30> H 	 -55.7157 	 0.923895 	 -26.037
| 31> H 	 -56.4713 	 -0.554193 	 -25.7236
| 32> C 	 -54.4051 	 -0.705793 	 -26.5207
| 33> H 	 -53.9813 	 -1.67953 	 -26.2953
| 34> H 	 -53.4492 	 -0.128777 	 -26.3445
| 35> C 	 -54.8134 	 -0.686389 	 -27.9556
| 36> H 	 -54.8506 	 0.374669 	 -28.3646
| 37> H 	 -55.7889 	 -1.10196 	 -28.203
| 38> H 	 -54.0549 	 -1.13891 	 -28.6734
| 39> H 	 -55.7463 	 5.72497 	 -25.4241
| 40> H 	 -54.3813 	 -1.5137 	 -21.2432
| 41> *
| 42>
| 43>                          ****END OF INPUT****

CARTESIAN COORDINATES (ANGSTROEM)
---------------------------------
  S    -56.298300    3.561860  -24.301700
  C    -55.420600    4.896550  -24.844000
  C    -54.067300    4.667810  -24.726900
  C    -53.780000    3.325880  -24.315700
  C    -54.862400    2.532650  -24.047000
  H    -52.817200    2.923450  -24.136400
  C    -52.888100    5.582760  -25.149200
  H    -53.370400    6.477210  -25.630600
  H    -52.288600    5.095240  -25.937900
  C    -51.885600    6.052070  -24.095200
  H    -52.515200    6.545200  -23.319200
  H    -51.347400    5.179210  -23.698200
  C    -50.783800    7.010910  -24.523100
  H    -51.262000    7.931440  -24.843600
  H    -50.215800    7.384430  -23.676200
  H    -50.020100    6.616430  -25.127600
  S    -54.524500    0.880816  -21.737900
  C    -54.671900   -0.794425  -21.997500
  C    -54.943300   -1.088380  -23.280500
  C    -55.171800    0.021560  -24.175500
  C    -54.946200    1.203510  -23.469000
  H    -54.979300   -2.074140  -23.570700
  C    -55.506200   -0.041104  -25.607300
  H    -55.715700    0.923895  -26.037000
  H    -56.471300   -0.554193  -25.723600
  C    -54.405100   -0.705793  -26.520700
  H    -53.981300   -1.679530  -26.295300
  H    -53.449200   -0.128777  -26.344500
  C    -54.813400   -0.686389  -27.955600
  H    -54.850600    0.374669  -28.364600
  H    -55.788900   -1.101960  -28.203000
  H    -54.054900   -1.138910  -28.673400
  H    -55.746300    5.724970  -25.424100
  H    -54.381300   -1.513700  -21.243200

 Total Charge           Charge          ....    0
 Multiplicity           Mult            ....    1
 Number of Electrons    NEL             ....  134
 Basis Dimension        Dim             ....  322

ORBITAL ENERGIES
----------------

  NO   OCC          E(Eh)            E(eV)
   0   2.0000     -88.964028     -2420.8343
   1   2.0000     -88.960988     -2420.7516
   2   2.0000     -10.327770      -281.0329
   3   2.0000     -10.326388      -280.9953
   4   2.0000     -10.313050      -280.6324
   5   2.0000     -10.309482      -280.5353
   6   2.0000     -10.306380      -280.4509
   7   2.0000     -10.300259      -280.2843
   8   2.0000     -10.296555      -280.1835
   9   2.0000     -10.294184      -280.1190
  10   2.0000     -10.292180      -280.0645
  11   2.0000     -10.288718      -279.9703
  12   2.0000     -10.288126      -279.9541
  13   2.0000     -10.285080      -279.8713
  14   2.0000     -10.284297      -279.8499
  15   2.0000     -10.273739      -279.5626
  16   2.0000      -8.079032      -219.8416
  17   2.0000      -8.076338      -219.7683
  18   2.0000      -6.037491      -164.2885
  19   2.0000      -6.034830      -164.2161
  20   2.0000      -6.033590      -164.1823
  21   2.0000      -6.030608      -164.1012
  22   2.0000      -6.029720      -164.0770
  23   2.0000      -6.027195      -164.0083
  24   2.0000      -1.006816       -27.3969
  25   2.0000      -0.988542       -26.8996
  26   2.0000      -0.912170       -24.8214
  27   2.0000      -0.906116       -24.6567
  28   2.0000      -0.874982       -23.8095
  29   2.0000      -0.853818       -23.2336
  30   2.0000      -0.847828       -23.0706
  31   2.0000      -0.817419       -22.2431
  32   2.0000      -0.784327       -21.3426
  33   2.0000      -0.772072       -21.0091
  34   2.0000      -0.707219       -19.2444
  35   2.0000      -0.702772       -19.1234
  36   2.0000      -0.689390       -18.7592
  37   2.0000      -0.658498       -17.9186
  38   2.0000      -0.643865       -17.5204
  39   2.0000      -0.620415       -16.8823
  40   2.0000      -0.606339       -16.4993
  41   2.0000      -0.575421       -15.6580
  42   2.0000      -0.566818       -15.4239
  43   2.0000      -0.555053       -15.1037
  44   2.0000      -0.531109       -14.4522
  45   2.0000      -0.525001       -14.2860
  46   2.0000      -0.514409       -13.9978
  47   2.0000      -0.512461       -13.9448
  48   2.0000      -0.505279       -13.7493
  49   2.0000      -0.502580       -13.6759
  50   2.0000      -0.497115       -13.5272
  51   2.0000      -0.479003       -13.0343
  52   2.0000      -0.472544       -12.8586
  53   2.0000      -0.464939       -12.6516
  54   2.0000      -0.460174       -12.5220
  55   2.0000      -0.450672       -12.2634
  56   2.0000      -0.450017       -12.2456
  57   2.0000      -0.438500       -11.9322
  58   2.0000      -0.426286       -11.5998
  59   2.0000      -0.421684       -11.4746
  60   2.0000      -0.418305       -11.3827
  61   2.0000      -0.409070       -11.1314
  62   2.0000      -0.405654       -11.0384
  63   2.0000      -0.336204        -9.1486
  64   2.0000      -0.328502        -8.9390
  65   2.0000      -0.322520        -8.7762
  66   2.0000      -0.311554        -8.4778
  67   0.0000       0.040113         1.0915
  68   0.0000       0.060732         1.6526
  69   0.0000       0.111941         3.0461
  70   0.0000       0.124075         3.3763
  71   0.0000       0.134025         3.6470

MULLIKEN ATOMIC CHARGES
-----------------------
   0 S :    0.106854
   1 C :   -0.085876
   2 C :   -0.096106
   3 C :    0.051781
   4 C :   -0.191868
   5 H :   -0.004267
   6 C :    0.043314
   7 H :    0.012201
   8 H :    0.032450
   9 C :   -0.093345
  10 H :    0.035482
  11 H :    0.030033
  12 C :   -0.017463
  13 H :    0.023159
  14 H :    0.023326
  15 H :    0.027866
  16 S :    0.114045
  17 C :   -0.080553
  18 C :    0.002995
  19 C :   -0.001722
  20 C :   -0.171457
  21 H :   -0.020301
  22 C :    0.098956
  23 H :    0.018456
  24 H :    0.034735
  25 C :   -0.080097
  26 H :    0.026148
  27 H :    0.030808
  28 C :   -0.078717
  29 H :    0.032816
  30 H :    0.033800
  31 H :    0.040629
  32 H :    0.039959
  33 H :    0.061959
Sum of atomic charges:    0.0000000

LOEWDIN ATOMIC CHARGES
----------------------
   0 S :    0.413870
   1 C :   -0.210150
   2 C :   -0.069640
   3 C :   -0.052633
   4 C :   -0.188173
   5 H :    0.024446
   6 C :   -0.037812
   7 H :    0.027309
   8 H :    0.030016
   9 C :   -0.045757
  10 H :    0.029674
  11 H :    0.023335
  12 C :   -0.064395
  13 H :    0.025631
  14 H :    0.031370
  15 H :    0.019309
  16 S :    0.397133
  17 C :   -0.188841
  18 C :   -0.066342
  19 C :   -0.037106
  20 C :   -0.193178
  21 H :    0.016099
  22 C :   -0.028579
  23 H :    0.030710
  24 H :    0.037329
  25 C :   -0.048664
  26 H :    0.022121
  27 H :    0.033285
  28 C :   -0.079998
  29 H :    0.030612
  30 H :    0.023245
  31 H :    0.033552
  32 H :    0.028932
  33 H :    0.033291

  Mayer bond orders larger than 0.100000
B(  0-S ,  1-C ) :   1.1618 B(  0-S ,  4-C ) :   1.1274 B(  1-C ,  2-C ) :   1.6053
B(  1-C , 32-H ) :   0.9630 B(  2-C ,  3-C ) :   1.2395 B(  2-C ,  6-C ) :   1.0221
B(  3-C ,  4-C ) :   1.6038 B(  3-C ,  5-H ) :   1.0041 B(  4-C , 20-C ) :   1.0305
B(  6-C ,  7-H ) :   0.9400 B(  6-C ,  8-H ) :   0.9449 B(  6-C ,  9-C ) :   1.0641
B(  9-C , 10-H ) :   0.9549 B(  9-C , 11-H ) :   0.9532 B(  9-C , 12-C ) :   1.0983
B( 12-C , 13-H ) :   0.9711 B( 12-C , 14-H ) :   0.9682 B( 12-C , 15-H ) :   0.9735
B( 16-S , 17-C ) :   1.1534 B( 16-S , 20-C ) :   1.1263 B( 17-C , 18-C ) :   1.6287
B( 17-C , 33-H ) :   0.9636 B( 18-C , 19-C ) :   1.2181 B( 18-C , 21-H ) :   1.0055
B( 19-C , 20-C ) :   1.5930 B( 19-C , 22-C ) :   1.0713 B( 22-C , 23-H ) :   0.9201
B( 22-C , 24-H ) :   0.9247 B( 22-C , 25-C ) :   1.0380 B( 25-C , 26-H ) :   0.9593
B( 25-C , 27-H ) :   0.9487 B( 25-C , 28-C ) :   1.0896 B( 28-C , 29-H ) :   0.9714
B( 28-C , 30-H ) :   0.9735 B( 28-C , 31-H ) :   0.9716

Dispersion correction           -0.013786629
FINAL SINGLE POINT ENERGY     -1339.874740411680

DIPOLE MOMENT
-------------
                                X             Y             Z
Electronic contribution:    -15.00187      -5.54983      17.95558
Nuclear contribution   :     15.50719       5.38435     -18.35942
                        -----------------------------------------
Total Dipole Moment    :      0.50532      -0.16548      -0.40384
                        -----------------------------------------
Magnitude (a.u.)       :      0.66770
Magnitude (Debye)      :      1.69715

Rotational constants in cm-1:     0.017473     0.007670     0.006745
Rotational constants in MHz :   523.838809   229.950619   202.205089

                             ****ORCA TERMINATED NORMALLY****
TOTAL RUN TIME: 0 days 0 hours 0 minutes 20 seconds 965 msec
