                         Program Version 4.2.1 -  RELEASE  -
|  1> ! wB97X-D3 SP def2-SVP
|  2> %pal
|  3> nprocs 24
|  4> end
|  5>
|  6> * xyz 0 1
|  7> S 	 -100.543 	 1.6585 	 -122.717
|  8> C 	 -100.656 	 2.56509 	 -121.242
|  9> C 	 -100.156 	 1.80073 	 -120.208
| 10> C 	 -99.6755 	 0.489402 	 -120.611
| 11> C 	 -99.7502 	 0.277532 	 -121.973
| 12> H 	 -99.1986 	 -0.199703 	 -119.927
| 13> C 	 -100.083 	 2.21773 	 -118.745
| 14> H 	 -100.403 	 3.24479 	 -118.612
| 15> H 	 -99.0131 	 2.24449 	 -118.446
| 16> C 	 -101.013 	 1.37796 	 -117.829
| 17> H 	 -101.997 	 1.52882 	 -118.182
| 18> H 	 -100.761 	 0.314165 	 -117.872
| 19> C 	 -101.01 	 1.94202 	 -116.408
| 20> H 	 -101.361 	 1.15559 	 -115.777
| 21> H 	 -100.076 	 2.04377 	 -115.892
| 22> H 	 -101.703 	 2.78502 	 -116.282
| 23> S 	 -100.005 	 -1.25418 	 -124.245
| 24> C 	 -98.6723 	 -2.35486 	 -124.599
| 25> C 	 -97.5815 	 -2.2483 	 -123.749
| 26> C 	 -97.8296 	 -1.3102 	 -122.685
| 27> C 	 -99.109 	 -0.719503 	 -122.815
| 28> H 	 -96.6873 	 -2.81499 	 -123.873
| 29> C 	 -96.815 	 -1.0014 	 -121.665
| 30> H 	 -95.9708 	 -1.69726 	 -121.72
| 31> H 	 -97.3726 	 -1.12242 	 -120.704
| 32> C 	 -96.1923 	 0.402111 	 -121.94
| 33> H 	 -96.8339 	 1.27785 	 -121.831
| 34> H 	 -95.8152 	 0.483896 	 -122.992
| 35> C 	 -95.0475 	 0.601648 	 -120.924
| 36> H 	 -94.5642 	 1.51936 	 -121.182
| 37> H 	 -94.2781 	 -0.184415 	 -121.069
| 38> H 	 -95.2847 	 0.556733 	 -119.848
| 39> H 	 -101.181 	 3.56597 	 -121.145
| 40> H 	 -98.6606 	 -2.87808 	 -125.56
| 41> *
| 42>
| 43>                          ****END OF INPUT****

CARTESIAN COORDINATES (ANGSTROEM)
---------------------------------
  S    -100.543000    1.658500  -122.717000
  C    -100.656000    2.565090  -121.242000
  C    -100.156000    1.800730  -120.208000
  C    -99.675500    0.489402  -120.611000
  C    -99.750200    0.277532  -121.973000
  H    -99.198600   -0.199703  -119.927000
  C    -100.083000    2.217730  -118.745000
  H    -100.403000    3.244790  -118.612000
  H    -99.013100    2.244490  -118.446000
  C    -101.013000    1.377960  -117.829000
  H    -101.997000    1.528820  -118.182000
  H    -100.761000    0.314165  -117.872000
  C    -101.010000    1.942020  -116.408000
  H    -101.361000    1.155590  -115.777000
  H    -100.076000    2.043770  -115.892000
  H    -101.703000    2.785020  -116.282000
  S    -100.005000   -1.254180  -124.245000
  C    -98.672300   -2.354860  -124.599000
  C    -97.581500   -2.248300  -123.749000
  C    -97.829600   -1.310200  -122.685000
  C    -99.109000   -0.719503  -122.815000
  H    -96.687300   -2.814990  -123.873000
  C    -96.815000   -1.001400  -121.665000
  H    -95.970800   -1.697260  -121.720000
  H    -97.372600   -1.122420  -120.704000
  C    -96.192300    0.402111  -121.940000
  H    -96.833900    1.277850  -121.831000
  H    -95.815200    0.483896  -122.992000
  C    -95.047500    0.601648  -120.924000
  H    -94.564200    1.519360  -121.182000
  H    -94.278100   -0.184415  -121.069000
  H    -95.284700    0.556733  -119.848000
  H    -101.181000    3.565970  -121.145000
  H    -98.660600   -2.878080  -125.560000

 Total Charge           Charge          ....    0
 Multiplicity           Mult            ....    1
 Number of Electrons    NEL             ....  134
 Basis Dimension        Dim             ....  322

ORBITAL ENERGIES
----------------

  NO   OCC          E(Eh)            E(eV)
   0   2.0000     -88.968124     -2420.9457
   1   2.0000     -88.959373     -2420.7076
   2   2.0000     -10.328768      -281.0601
   3   2.0000     -10.327558      -281.0271
   4   2.0000     -10.320286      -280.8293
   5   2.0000     -10.316675      -280.7310
   6   2.0000     -10.304914      -280.4110
   7   2.0000     -10.300536      -280.2918
   8   2.0000     -10.296263      -280.1755
   9   2.0000     -10.296127      -280.1719
  10   2.0000     -10.293871      -280.1105
  11   2.0000     -10.290889      -280.0293
  12   2.0000     -10.290567      -280.0206
  13   2.0000     -10.285183      -279.8741
  14   2.0000     -10.276580      -279.6400
  15   2.0000     -10.273492      -279.5559
  16   2.0000      -8.082350      -219.9319
  17   2.0000      -8.074635      -219.7220
  18   2.0000      -6.040753      -164.3772
  19   2.0000      -6.037110      -164.2781
  20   2.0000      -6.033244      -164.1729
  21   2.0000      -6.033086      -164.1686
  22   2.0000      -6.028988      -164.0571
  23   2.0000      -6.025316      -163.9572
  24   2.0000      -1.003106       -27.2959
  25   2.0000      -0.979429       -26.6516
  26   2.0000      -0.911069       -24.7915
  27   2.0000      -0.908715       -24.7274
  28   2.0000      -0.868237       -23.6259
  29   2.0000      -0.852505       -23.1978
  30   2.0000      -0.843352       -22.9488
  31   2.0000      -0.813188       -22.1280
  32   2.0000      -0.780240       -21.2314
  33   2.0000      -0.765086       -20.8191
  34   2.0000      -0.707400       -19.2493
  35   2.0000      -0.700152       -19.0521
  36   2.0000      -0.687830       -18.7168
  37   2.0000      -0.666065       -18.1245
  38   2.0000      -0.636898       -17.3309
  39   2.0000      -0.622076       -16.9276
  40   2.0000      -0.594994       -16.1906
  41   2.0000      -0.570053       -15.5119
  42   2.0000      -0.566863       -15.4251
  43   2.0000      -0.554842       -15.0980
  44   2.0000      -0.529018       -14.3953
  45   2.0000      -0.516267       -14.0483
  46   2.0000      -0.515022       -14.0145
  47   2.0000      -0.509717       -13.8701
  48   2.0000      -0.506747       -13.7893
  49   2.0000      -0.495962       -13.4958
  50   2.0000      -0.492175       -13.3928
  51   2.0000      -0.483472       -13.1559
  52   2.0000      -0.468743       -12.7552
  53   2.0000      -0.460087       -12.5196
  54   2.0000      -0.459197       -12.4954
  55   2.0000      -0.454315       -12.3625
  56   2.0000      -0.445802       -12.1309
  57   2.0000      -0.438024       -11.9193
  58   2.0000      -0.432467       -11.7680
  59   2.0000      -0.426190       -11.5972
  60   2.0000      -0.419933       -11.4270
  61   2.0000      -0.417261       -11.3543
  62   2.0000      -0.404977       -11.0200
  63   2.0000      -0.349865        -9.5203
  64   2.0000      -0.332687        -9.0529
  65   2.0000      -0.324654        -8.8343
  66   2.0000      -0.284483        -7.7412
  67   0.0000       0.024460         0.6656
  68   0.0000       0.075875         2.0647
  69   0.0000       0.102381         2.7859
  70   0.0000       0.119282         3.2458
  71   0.0000       0.139352         3.7920

MULLIKEN ATOMIC CHARGES
-----------------------
   0 S :    0.085469
   1 C :   -0.138218
   2 C :   -0.104531
   3 C :    0.009025
   4 C :   -0.105007
   5 H :    0.011498
   6 C :    0.049790
   7 H :    0.004078
   8 H :    0.037688
   9 C :   -0.065247
  10 H :    0.024052
  11 H :    0.036059
  12 C :   -0.031067
  13 H :    0.011662
  14 H :    0.020615
  15 H :    0.043646
  16 S :    0.105995
  17 C :   -0.090683
  18 C :   -0.020159
  19 C :   -0.044530
  20 C :   -0.153674
  21 H :    0.011459
  22 C :    0.065829
  23 H :    0.017200
  24 H :    0.039984
  25 C :   -0.091934
  26 H :    0.048903
  27 H :    0.039731
  28 C :   -0.041054
  29 H :    0.027163
  30 H :    0.018701
  31 H :    0.037524
  32 H :    0.075840
  33 H :    0.064191
Sum of atomic charges:    0.0000000

LOEWDIN ATOMIC CHARGES
----------------------
   0 S :    0.396274
   1 C :   -0.217278
   2 C :   -0.066816
   3 C :   -0.070286
   4 C :   -0.186146
   5 H :    0.026965
   6 C :   -0.035453
   7 H :    0.024569
   8 H :    0.032343
   9 C :   -0.030993
  10 H :    0.024620
  11 H :    0.023253
  12 C :   -0.072286
  13 H :    0.026832
  14 H :    0.023320
  15 H :    0.030206
  16 S :    0.393952
  17 C :   -0.177649
  18 C :   -0.066284
  19 C :   -0.046698
  20 C :   -0.199956
  21 H :    0.029479
  22 C :   -0.034938
  23 H :    0.031608
  24 H :    0.038477
  25 C :   -0.034017
  26 H :    0.028261
  27 H :    0.033296
  28 C :   -0.069900
  29 H :    0.021496
  30 H :    0.021814
  31 H :    0.027126
  32 H :    0.046323
  33 H :    0.028487

  Mayer bond orders larger than 0.100000
B(  0-S ,  1-C ) :   1.1255 B(  0-S ,  4-C ) :   1.1520 B(  1-C ,  2-C ) :   1.6187
B(  1-C , 32-H ) :   0.9607 B(  2-C ,  3-C ) :   1.2309 B(  2-C ,  6-C ) :   1.0326
B(  3-C ,  4-C ) :   1.5682 B(  3-C ,  5-H ) :   0.9970 B(  4-C , 20-C ) :   1.0512
B(  6-C ,  7-H ) :   0.9438 B(  6-C ,  8-H ) :   0.9415 B(  6-C ,  9-C ) :   1.0559
B(  9-C , 10-H ) :   0.9530 B(  9-C , 11-H ) :   0.9616 B(  9-C , 12-C ) :   1.0910
B( 12-C , 13-H ) :   0.9659 B( 12-C , 14-H ) :   0.9708 B( 12-C , 15-H ) :   0.9755
B( 16-S , 17-C ) :   1.1544 B( 16-S , 20-C ) :   1.1352 B( 17-C , 18-C ) :   1.6049
B( 17-C , 33-H ) :   0.9628 B( 18-C , 19-C ) :   1.2447 B( 18-C , 21-H ) :   0.9938
B( 19-C , 20-C ) :   1.5694 B( 19-C , 22-C ) :   1.0525 B( 22-C , 23-H ) :   0.9332
B( 22-C , 24-H ) :   0.9276 B( 22-C , 25-C ) :   1.0536 B( 25-C , 26-H ) :   0.9575
B( 25-C , 27-H ) :   0.9542 B( 25-C , 28-C ) :   1.0830 B( 28-C , 29-H ) :   0.9734
B( 28-C , 30-H ) :   0.9734 B( 28-C , 31-H ) :   0.9749

Dispersion correction           -0.014435965
FINAL SINGLE POINT ENERGY     -1339.882713594564

DIPOLE MOMENT
-------------
                                X             Y             Z
Electronic contribution:    -12.56711      -6.13930     -26.32133
Nuclear contribution   :     13.05357       6.14777      26.83135
                        -----------------------------------------
Total Dipole Moment    :      0.48646       0.00846       0.51002
                        -----------------------------------------
Magnitude (a.u.)       :      0.70487
Magnitude (Debye)      :      1.79163

Rotational constants in cm-1:     0.018953     0.008538     0.006900
Rotational constants in MHz :   568.204289   255.954076   206.862881

                             ****ORCA TERMINATED NORMALLY****
TOTAL RUN TIME: 0 days 0 hours 0 minutes 21 seconds 906 msec
