                         Program Version 4.2.1 -  RELEASE  -
|  1> ! wB97X-D3 SP def2-SVP
|  2> %pal
|  3> nprocs 24
|  4> end
|  5>
|  6> * xyz 0 1
|  7> S 	 13.0165 	 -15.5077 	 -120.562
|  8> C 	 11.3889 	 -15.6896 	 -121.068
|  9> C 	 10.552 	 -15.7527 	 -119.965
| 10> C 	 11.3072 	 -15.6029 	 -118.708
| 11> C 	 12.6639 	 -15.4796 	 -118.9
| 12> H 	 10.8833 	 -15.7207 	 -117.666
| 13> C 	 9.11033 	 -15.911 	 -120.048
| 14> H 	 8.77187 	 -16.7217 	 -119.473
| 15> H 	 8.85785 	 -15.9282 	 -121.111
| 16> C 	 8.2518 	 -14.6895 	 -119.508
| 17> H 	 8.57743 	 -14.4958 	 -118.499
| 18> H 	 8.66948 	 -13.8119 	 -120.046
| 19> C 	 6.74672 	 -14.8727 	 -119.783
| 20> H 	 6.60601 	 -15.0804 	 -120.866
| 21> H 	 6.318 	 -15.6413 	 -119.142
| 22> H 	 6.10227 	 -14.0072 	 -119.431
| 23> S 	 14.6555 	 -13.988 	 -117.562
| 24> C 	 15.637 	 -14.8487 	 -116.422
| 25> C 	 15.2724 	 -16.1874 	 -116.33
| 26> C 	 14.1978 	 -16.5249 	 -117.199
| 27> C 	 13.7757 	 -15.4766 	 -117.971
| 28> H 	 15.7391 	 -16.8925 	 -115.63
| 29> C 	 13.6735 	 -17.9499 	 -117.28
| 30> H 	 12.6222 	 -17.8805 	 -117.641
| 31> H 	 13.4777 	 -18.2791 	 -116.267
| 32> C 	 14.4079 	 -18.8483 	 -118.212
| 33> H 	 15.431 	 -18.9801 	 -117.876
| 34> H 	 14.552 	 -18.3094 	 -119.178
| 35> C 	 13.7086 	 -20.1579 	 -118.51
| 36> H 	 14.3883 	 -20.8366 	 -119.058
| 37> H 	 12.8079 	 -20.1766 	 -119.099
| 38> H 	 13.5896 	 -20.5436 	 -117.487
| 39> H 	 11.0071 	 -15.8318 	 -122.058
| 40> H 	 16.4887 	 -14.4035 	 -115.874
| 41> *
| 42>
| 43>                          ****END OF INPUT****

CARTESIAN COORDINATES (ANGSTROEM)
---------------------------------
  S     13.016500  -15.507700  -120.562000
  C     11.388900  -15.689600  -121.068000
  C     10.552000  -15.752700  -119.965000
  C     11.307200  -15.602900  -118.708000
  C     12.663900  -15.479600  -118.900000
  H     10.883300  -15.720700  -117.666000
  C      9.110330  -15.911000  -120.048000
  H      8.771870  -16.721700  -119.473000
  H      8.857850  -15.928200  -121.111000
  C      8.251800  -14.689500  -119.508000
  H      8.577430  -14.495800  -118.499000
  H      8.669480  -13.811900  -120.046000
  C      6.746720  -14.872700  -119.783000
  H      6.606010  -15.080400  -120.866000
  H      6.318000  -15.641300  -119.142000
  H      6.102270  -14.007200  -119.431000
  S     14.655500  -13.988000  -117.562000
  C     15.637000  -14.848700  -116.422000
  C     15.272400  -16.187400  -116.330000
  C     14.197800  -16.524900  -117.199000
  C     13.775700  -15.476600  -117.971000
  H     15.739100  -16.892500  -115.630000
  C     13.673500  -17.949900  -117.280000
  H     12.622200  -17.880500  -117.641000
  H     13.477700  -18.279100  -116.267000
  C     14.407900  -18.848300  -118.212000
  H     15.431000  -18.980100  -117.876000
  H     14.552000  -18.309400  -119.178000
  C     13.708600  -20.157900  -118.510000
  H     14.388300  -20.836600  -119.058000
  H     12.807900  -20.176600  -119.099000
  H     13.589600  -20.543600  -117.487000
  H     11.007100  -15.831800  -122.058000
  H     16.488700  -14.403500  -115.874000

 Total Charge           Charge          ....    0
 Multiplicity           Mult            ....    1
 Number of Electrons    NEL             ....  134
 Basis Dimension        Dim             ....  322

ORBITAL ENERGIES
----------------

  NO   OCC          E(Eh)            E(eV)
   0   2.0000     -88.967170     -2420.9198
   1   2.0000     -88.962394     -2420.7898
   2   2.0000     -10.323938      -280.9286
   3   2.0000     -10.323206      -280.9087
   4   2.0000     -10.321606      -280.8652
   5   2.0000     -10.310157      -280.5536
   6   2.0000     -10.300918      -280.3022
   7   2.0000     -10.300359      -280.2870
   8   2.0000     -10.299640      -280.2675
   9   2.0000     -10.294590      -280.1300
  10   2.0000     -10.288999      -279.9779
  11   2.0000     -10.288529      -279.9651
  12   2.0000     -10.286183      -279.9013
  13   2.0000     -10.285475      -279.8820
  14   2.0000     -10.281169      -279.7648
  15   2.0000     -10.275932      -279.6223
  16   2.0000      -8.081746      -219.9155
  17   2.0000      -8.078615      -219.8303
  18   2.0000      -6.040248      -164.3635
  19   2.0000      -6.037059      -164.2767
  20   2.0000      -6.036218      -164.2538
  21   2.0000      -6.032690      -164.1578
  22   2.0000      -6.032587      -164.1550
  23   2.0000      -6.029552      -164.0724
  24   2.0000      -1.011794       -27.5323
  25   2.0000      -0.987726       -26.8774
  26   2.0000      -0.914622       -24.8881
  27   2.0000      -0.913230       -24.8503
  28   2.0000      -0.870057       -23.6754
  29   2.0000      -0.852276       -23.1916
  30   2.0000      -0.843664       -22.9573
  31   2.0000      -0.814460       -22.1626
  32   2.0000      -0.783284       -21.3142
  33   2.0000      -0.770437       -20.9647
  34   2.0000      -0.708608       -19.2822
  35   2.0000      -0.696696       -18.9581
  36   2.0000      -0.691986       -18.8299
  37   2.0000      -0.659959       -17.9584
  38   2.0000      -0.643798       -17.5186
  39   2.0000      -0.617243       -16.7960
  40   2.0000      -0.598252       -16.2793
  41   2.0000      -0.574237       -15.6258
  42   2.0000      -0.565709       -15.3937
  43   2.0000      -0.561905       -15.2902
  44   2.0000      -0.528510       -14.3815
  45   2.0000      -0.526222       -14.3192
  46   2.0000      -0.518212       -14.1013
  47   2.0000      -0.505376       -13.7520
  48   2.0000      -0.503483       -13.7005
  49   2.0000      -0.502440       -13.6721
  50   2.0000      -0.497929       -13.5493
  51   2.0000      -0.477134       -12.9835
  52   2.0000      -0.471631       -12.8337
  53   2.0000      -0.466600       -12.6968
  54   2.0000      -0.461111       -12.5475
  55   2.0000      -0.455495       -12.3946
  56   2.0000      -0.442907       -12.0521
  57   2.0000      -0.432445       -11.7674
  58   2.0000      -0.427806       -11.6412
  59   2.0000      -0.422057       -11.4848
  60   2.0000      -0.420735       -11.4488
  61   2.0000      -0.415628       -11.3098
  62   2.0000      -0.402987       -10.9658
  63   2.0000      -0.335463        -9.1284
  64   2.0000      -0.331982        -9.0337
  65   2.0000      -0.323226        -8.7954
  66   2.0000      -0.308479        -8.3941
  67   0.0000       0.045042         1.2257
  68   0.0000       0.061318         1.6686
  69   0.0000       0.116446         3.1687
  70   0.0000       0.121198         3.2980
  71   0.0000       0.134553         3.6614

MULLIKEN ATOMIC CHARGES
-----------------------
   0 S :    0.121472
   1 C :   -0.094193
   2 C :   -0.130557
   3 C :    0.040913
   4 C :   -0.185984
   5 H :    0.035943
   6 C :    0.088534
   7 H :    0.021152
   8 H :    0.009337
   9 C :   -0.101929
  10 H :    0.023259
  11 H :    0.027863
  12 C :   -0.051759
  13 H :    0.045621
  14 H :    0.029612
  15 H :    0.044633
  16 S :    0.120879
  17 C :   -0.103905
  18 C :   -0.037086
  19 C :   -0.036809
  20 C :   -0.174349
  21 H :    0.024638
  22 C :    0.089485
  23 H :    0.010962
  24 H :    0.016429
  25 C :   -0.051522
  26 H :    0.019158
  27 H :    0.024811
  28 C :   -0.038275
  29 H :    0.031284
  30 H :    0.043550
  31 H :    0.026949
  32 H :    0.038147
  33 H :    0.071737
Sum of atomic charges:   -0.0000000

LOEWDIN ATOMIC CHARGES
----------------------
   0 S :    0.445992
   1 C :   -0.209882
   2 C :   -0.064724
   3 C :   -0.069563
   4 C :   -0.213166
   5 H :    0.040471
   6 C :   -0.030839
   7 H :    0.024392
   8 H :    0.029643
   9 C :   -0.040621
  10 H :    0.016642
  11 H :    0.025103
  12 C :   -0.074039
  13 H :    0.031759
  14 H :    0.024785
  15 H :    0.036436
  16 S :    0.406288
  17 C :   -0.190319
  18 C :   -0.076713
  19 C :   -0.047629
  20 C :   -0.208225
  21 H :    0.034729
  22 C :   -0.038168
  23 H :    0.034147
  24 H :    0.026390
  25 C :   -0.044974
  26 H :    0.022135
  27 H :    0.027312
  28 C :   -0.065126
  29 H :    0.029937
  30 H :    0.025619
  31 H :    0.027492
  32 H :    0.027361
  33 H :    0.037354

  Mayer bond orders larger than 0.100000
B(  0-S ,  1-C ) :   1.1422 B(  0-S ,  4-C ) :   1.1845 B(  1-C ,  2-C ) :   1.6044
B(  1-C , 32-H ) :   0.9695 B(  2-C ,  3-C ) :   1.2141 B(  2-C ,  6-C ) :   1.0688
B(  3-C ,  4-C ) :   1.5916 B(  3-C ,  5-H ) :   0.9853 B(  4-C , 20-C ) :   0.9939
B(  6-C ,  7-H ) :   0.9290 B(  6-C ,  8-H ) :   0.9371 B(  6-C ,  9-C ) :   1.0490
B(  9-C , 10-H ) :   0.9590 B(  9-C , 11-H ) :   0.9575 B(  9-C , 12-C ) :   1.0737
B( 12-C , 13-H ) :   0.9729 B( 12-C , 14-H ) :   0.9740 B( 12-C , 15-H ) :   0.9727
B( 16-S , 17-C ) :   1.1683 B( 16-S , 20-C ) :   1.1335 B( 17-C , 18-C ) :   1.5917
B( 17-C , 33-H ) :   0.9630 B( 18-C , 19-C ) :   1.2527 B( 18-C , 21-H ) :   0.9883
B( 19-C , 20-C ) :   1.6147 B( 19-C , 22-C ) :   1.0459 B( 22-C , 23-H ) :   0.9183
B( 22-C , 24-H ) :   0.9231 B( 22-C , 25-C ) :   1.0687 B( 25-C , 26-H ) :   0.9515
B( 25-C , 27-H ) :   0.9457 B( 25-C , 28-C ) :   1.0818 B( 28-C , 29-H ) :   0.9719
B( 28-C , 30-H ) :   0.9757 B( 28-C , 31-H ) :   0.9739

Dispersion correction           -0.014364071
FINAL SINGLE POINT ENERGY     -1339.886436344006

DIPOLE MOMENT
-------------
                                X             Y             Z
Electronic contribution:     19.51181      15.33748      -0.00015
Nuclear contribution   :    -19.86301     -15.77347       0.22278
                        -----------------------------------------
Total Dipole Moment    :     -0.35120      -0.43599       0.22263
                        -----------------------------------------
Magnitude (a.u.)       :      0.60249
Magnitude (Debye)      :      1.53140

Rotational constants in cm-1:     0.019103     0.007987     0.006809
Rotational constants in MHz :   572.680468   239.456011   204.141410

                             ****ORCA TERMINATED NORMALLY****
TOTAL RUN TIME: 0 days 0 hours 0 minutes 21 seconds 485 msec
