                         Program Version 4.2.1 -  RELEASE  -
|  1> ! wB97X-D3 SP def2-SVP
|  2> %pal
|  3> nprocs 24
|  4> end
|  5>
|  6> * xyz 0 1
|  7> S 	 -84.9822 	 2.00225 	 -113.385
|  8> C 	 -85.0539 	 3.73333 	 -113.073
|  9> C 	 -85.5791 	 4.45272 	 -114.172
| 10> C 	 -86.0069 	 3.56668 	 -115.187
| 11> C 	 -85.8291 	 2.23017 	 -114.876
| 12> H 	 -86.4778 	 3.84097 	 -116.104
| 13> C 	 -85.6095 	 5.96006 	 -114.274
| 14> H 	 -85.4913 	 6.28416 	 -113.275
| 15> H 	 -86.4597 	 6.44903 	 -114.733
| 16> C 	 -84.3711 	 6.49076 	 -114.987
| 17> H 	 -84.2595 	 7.48685 	 -114.604
| 18> H 	 -83.4165 	 6.05023 	 -114.713
| 19> C 	 -84.5274 	 6.61436 	 -116.54
| 20> H 	 -85.5222 	 6.93019 	 -116.887
| 21> H 	 -83.7643 	 7.3026 	 -116.962
| 22> H 	 -84.2968 	 5.66001 	 -116.953
| 23> S 	 -86.9937 	 -0.184462 	 -114.811
| 24> C 	 -87.3011 	 -1.08956 	 -116.274
| 25> C 	 -86.7243 	 -0.442069 	 -117.353
| 26> C 	 -86.2033 	 0.830677 	 -117.015
| 27> C 	 -86.3234 	 1.14046 	 -115.658
| 28> H 	 -86.7148 	 -1.01953 	 -118.279
| 29> C 	 -85.6821 	 1.80308 	 -118.037
| 30> H 	 -84.8685 	 1.21798 	 -118.489
| 31> H 	 -85.275 	 2.71879 	 -117.594
| 32> C 	 -86.6605 	 2.10223 	 -119.221
| 33> H 	 -87.6832 	 2.29841 	 -118.857
| 34> H 	 -86.6497 	 1.27276 	 -119.904
| 35> C 	 -86.2734 	 3.40331 	 -119.962
| 36> H 	 -86.1044 	 4.17872 	 -119.287
| 37> H 	 -87.098 	 3.70717 	 -120.568
| 38> H 	 -85.3848 	 3.29774 	 -120.559
| 39> H 	 -84.6218 	 4.14323 	 -112.137
| 40> H 	 -87.6789 	 -2.09679 	 -116.189
| 41> *
| 42>
| 43>                          ****END OF INPUT****

CARTESIAN COORDINATES (ANGSTROEM)
---------------------------------
  S    -84.982200    2.002250  -113.385000
  C    -85.053900    3.733330  -113.073000
  C    -85.579100    4.452720  -114.172000
  C    -86.006900    3.566680  -115.187000
  C    -85.829100    2.230170  -114.876000
  H    -86.477800    3.840970  -116.104000
  C    -85.609500    5.960060  -114.274000
  H    -85.491300    6.284160  -113.275000
  H    -86.459700    6.449030  -114.733000
  C    -84.371100    6.490760  -114.987000
  H    -84.259500    7.486850  -114.604000
  H    -83.416500    6.050230  -114.713000
  C    -84.527400    6.614360  -116.540000
  H    -85.522200    6.930190  -116.887000
  H    -83.764300    7.302600  -116.962000
  H    -84.296800    5.660010  -116.953000
  S    -86.993700   -0.184462  -114.811000
  C    -87.301100   -1.089560  -116.274000
  C    -86.724300   -0.442069  -117.353000
  C    -86.203300    0.830677  -117.015000
  C    -86.323400    1.140460  -115.658000
  H    -86.714800   -1.019530  -118.279000
  C    -85.682100    1.803080  -118.037000
  H    -84.868500    1.217980  -118.489000
  H    -85.275000    2.718790  -117.594000
  C    -86.660500    2.102230  -119.221000
  H    -87.683200    2.298410  -118.857000
  H    -86.649700    1.272760  -119.904000
  C    -86.273400    3.403310  -119.962000
  H    -86.104400    4.178720  -119.287000
  H    -87.098000    3.707170  -120.568000
  H    -85.384800    3.297740  -120.559000
  H    -84.621800    4.143230  -112.137000
  H    -87.678900   -2.096790  -116.189000

 Total Charge           Charge          ....    0
 Multiplicity           Mult            ....    1
 Number of Electrons    NEL             ....  134
 Basis Dimension        Dim             ....  322

ORBITAL ENERGIES
----------------

  NO   OCC          E(Eh)            E(eV)
   0   2.0000     -88.969114     -2420.9727
   1   2.0000     -88.959806     -2420.7194
   2   2.0000     -10.324292      -280.9383
   3   2.0000     -10.318469      -280.7798
   4   2.0000     -10.317781      -280.7611
   5   2.0000     -10.314810      -280.6803
   6   2.0000     -10.304358      -280.3958
   7   2.0000     -10.301418      -280.3158
   8   2.0000     -10.295474      -280.1541
   9   2.0000     -10.289751      -279.9984
  10   2.0000     -10.288989      -279.9776
  11   2.0000     -10.288090      -279.9532
  12   2.0000     -10.287467      -279.9362
  13   2.0000     -10.283824      -279.8371
  14   2.0000     -10.280278      -279.7406
  15   2.0000     -10.269205      -279.4393
  16   2.0000      -8.083835      -219.9723
  17   2.0000      -8.075660      -219.7499
  18   2.0000      -6.042219      -164.4171
  19   2.0000      -6.038401      -164.3132
  20   2.0000      -6.034680      -164.2120
  21   2.0000      -6.033961      -164.1924
  22   2.0000      -6.029942      -164.0831
  23   2.0000      -6.026641      -163.9932
  24   2.0000      -1.011863       -27.5342
  25   2.0000      -0.984933       -26.8014
  26   2.0000      -0.915705       -24.9176
  27   2.0000      -0.906597       -24.6698
  28   2.0000      -0.870034       -23.6748
  29   2.0000      -0.854093       -23.2411
  30   2.0000      -0.845531       -23.0081
  31   2.0000      -0.814897       -22.1745
  32   2.0000      -0.784688       -21.3524
  33   2.0000      -0.770152       -20.9569
  34   2.0000      -0.705666       -19.2022
  35   2.0000      -0.700718       -19.0675
  36   2.0000      -0.697060       -18.9680
  37   2.0000      -0.661477       -17.9997
  38   2.0000      -0.640666       -17.4334
  39   2.0000      -0.622130       -16.9290
  40   2.0000      -0.595703       -16.2099
  41   2.0000      -0.577209       -15.7067
  42   2.0000      -0.569210       -15.4890
  43   2.0000      -0.548212       -14.9176
  44   2.0000      -0.538998       -14.6669
  45   2.0000      -0.527391       -14.3510
  46   2.0000      -0.517985       -14.0951
  47   2.0000      -0.509824       -13.8730
  48   2.0000      -0.508297       -13.8315
  49   2.0000      -0.492093       -13.3905
  50   2.0000      -0.490298       -13.3417
  51   2.0000      -0.483253       -13.1500
  52   2.0000      -0.473995       -12.8981
  53   2.0000      -0.469495       -12.7756
  54   2.0000      -0.457717       -12.4551
  55   2.0000      -0.450637       -12.2624
  56   2.0000      -0.444950       -12.1077
  57   2.0000      -0.440488       -11.9863
  58   2.0000      -0.437012       -11.8917
  59   2.0000      -0.431170       -11.7327
  60   2.0000      -0.426099       -11.5947
  61   2.0000      -0.412164       -11.2155
  62   2.0000      -0.409697       -11.1484
  63   2.0000      -0.349846        -9.5198
  64   2.0000      -0.332391        -9.0448
  65   2.0000      -0.326089        -8.8733
  66   2.0000      -0.283255        -7.7078
  67   0.0000       0.028252         0.7688
  68   0.0000       0.073507         2.0002
  69   0.0000       0.113752         3.0953
  70   0.0000       0.120816         3.2876
  71   0.0000       0.127910         3.4806

MULLIKEN ATOMIC CHARGES
-----------------------
   0 S :    0.126178
   1 C :   -0.161137
   2 C :   -0.061548
   3 C :    0.013550
   4 C :   -0.138421
   5 H :   -0.000575
   6 C :    0.117359
   7 H :    0.004512
   8 H :    0.029783
   9 C :   -0.077741
  10 H :    0.016686
  11 H :    0.026215
  12 C :   -0.054999
  13 H :    0.030352
  14 H :    0.037741
  15 H :    0.028851
  16 S :    0.092545
  17 C :   -0.110272
  18 C :   -0.037925
  19 C :   -0.022130
  20 C :   -0.151689
  21 H :    0.028319
  22 C :    0.058844
  23 H :    0.029926
  24 H :    0.021983
  25 C :   -0.084004
  26 H :    0.036296
  27 H :    0.028932
  28 C :   -0.014290
  29 H :    0.008695
  30 H :    0.027776
  31 H :    0.027593
  32 H :    0.060982
  33 H :    0.061614
Sum of atomic charges:   -0.0000000

LOEWDIN ATOMIC CHARGES
----------------------
   0 S :    0.415914
   1 C :   -0.208880
   2 C :   -0.052265
   3 C :   -0.065685
   4 C :   -0.196999
   5 H :    0.025633
   6 C :   -0.024021
   7 H :    0.028123
   8 H :    0.032189
   9 C :   -0.036153
  10 H :    0.019417
  11 H :    0.025753
  12 C :   -0.067634
  13 H :    0.023163
  14 H :    0.031171
  15 H :    0.018411
  16 S :    0.420458
  17 C :   -0.185645
  18 C :   -0.072761
  19 C :   -0.057667
  20 C :   -0.215055
  21 H :    0.037318
  22 C :   -0.035114
  23 H :    0.037653
  24 H :    0.026366
  25 C :   -0.032592
  26 H :    0.025822
  27 H :    0.019762
  28 C :   -0.056377
  29 H :    0.014190
  30 H :    0.025036
  31 H :    0.022936
  32 H :    0.030668
  33 H :    0.026864

  Mayer bond orders larger than 0.100000
B(  0-S ,  1-C ) :   1.1409 B(  0-S ,  4-C ) :   1.1643 B(  1-C ,  2-C ) :   1.5730
B(  1-C ,  4-C ) :   0.1023 B(  1-C , 32-H ) :   0.9654 B(  2-C ,  3-C ) :   1.2575
B(  2-C ,  6-C ) :   1.0388 B(  3-C ,  4-C ) :   1.5367 B(  3-C ,  5-H ) :   1.0014
B(  4-C , 20-C ) :   1.0704 B(  6-C ,  7-H ) :   0.9253 B(  6-C ,  8-H ) :   0.9440
B(  6-C ,  9-C ) :   1.0731 B(  9-C , 10-H ) :   0.9582 B(  9-C , 11-H ) :   0.9535
B(  9-C , 12-C ) :   1.0735 B( 12-C , 13-H ) :   0.9762 B( 12-C , 14-H ) :   0.9735
B( 12-C , 15-H ) :   0.9773 B( 16-S , 17-C ) :   1.1720 B( 16-S , 20-C ) :   1.1502
B( 17-C , 18-C ) :   1.5755 B( 17-C , 20-C ) :   0.1021 B( 17-C , 33-H ) :   0.9709
B( 18-C , 19-C ) :   1.2476 B( 18-C , 21-H ) :   0.9960 B( 19-C , 20-C ) :   1.5502
B( 19-C , 22-C ) :   1.0522 B( 22-C , 23-H ) :   0.9192 B( 22-C , 24-H ) :   0.9437
B( 22-C , 25-C ) :   1.0547 B( 25-C , 26-H ) :   0.9643 B( 25-C , 27-H ) :   0.9518
B( 25-C , 28-C ) :   1.0900 B( 28-C , 29-H ) :   0.9750 B( 28-C , 30-H ) :   0.9741
B( 28-C , 31-H ) :   0.9747

Dispersion correction           -0.014656233
FINAL SINGLE POINT ENERGY     -1339.883323216337

DIPOLE MOMENT
-------------
                                X             Y             Z
Electronic contribution:     -3.72622     -23.39083      21.46170
Nuclear contribution   :      3.87535      23.78911     -21.93368
                        -----------------------------------------
Total Dipole Moment    :      0.14913       0.39828      -0.47197
                        -----------------------------------------
Magnitude (a.u.)       :      0.63532
Magnitude (Debye)      :      1.61485

Rotational constants in cm-1:     0.016806     0.010554     0.006808
Rotational constants in MHz :   503.817749   316.414984   204.096762

                             ****ORCA TERMINATED NORMALLY****
TOTAL RUN TIME: 0 days 0 hours 0 minutes 21 seconds 57 msec
