                         Program Version 4.2.1 -  RELEASE  -
|  1> ! wB97X-D3 SP def2-SVP
|  2> %pal
|  3> nprocs 24
|  4> end
|  5>
|  6> * xyz 0 1
|  7> S 	 -87.3763 	 -47.5491 	 -68.6323
|  8> C 	 -85.8242 	 -46.8549 	 -69.0568
|  9> C 	 -85.8186 	 -46.5858 	 -70.418
| 10> C 	 -87.104 	 -46.9137 	 -71.1055
| 11> C 	 -88.0714 	 -47.4348 	 -70.2394
| 12> H 	 -87.3782 	 -46.7394 	 -72.1225
| 13> C 	 -84.5928 	 -45.9749 	 -71.0887
| 14> H 	 -84.1008 	 -46.7966 	 -71.727
| 15> H 	 -83.8884 	 -45.7064 	 -70.2935
| 16> C 	 -84.7888 	 -44.7782 	 -72.0537
| 17> H 	 -83.8127 	 -44.3953 	 -72.2779
| 18> H 	 -85.2337 	 -45.1367 	 -72.9457
| 19> C 	 -85.4276 	 -43.5937 	 -71.3083
| 20> H 	 -85.1337 	 -43.5505 	 -70.2916
| 21> H 	 -85.3246 	 -42.6561 	 -71.6986
| 22> H 	 -86.4858 	 -43.7781 	 -71.1461
| 23> S 	 -90.5635 	 -46.7857 	 -71.3235
| 24> C 	 -91.7294 	 -48.0219 	 -71.473
| 25> C 	 -91.429 	 -49.1044 	 -70.6423
| 26> C 	 -90.0293 	 -49.1581 	 -70.3332
| 27> C 	 -89.3759 	 -47.9502 	 -70.587
| 28> H 	 -92.1542 	 -49.9334 	 -70.5155
| 29> C 	 -89.3178 	 -50.4095 	 -69.7326
| 30> H 	 -90.1214 	 -51.0827 	 -69.4669
| 31> H 	 -88.7919 	 -50.1668 	 -68.8153
| 32> C 	 -88.2998 	 -50.9899 	 -70.6468
| 33> H 	 -87.5412 	 -51.5796 	 -70.1411
| 34> H 	 -87.8712 	 -50.048 	 -71.0691
| 35> C 	 -89.0329 	 -51.7651 	 -71.7621
| 36> H 	 -88.2591 	 -52.3344 	 -72.3601
| 37> H 	 -89.6499 	 -51.1517 	 -72.411
| 38> H 	 -89.5996 	 -52.4777 	 -71.1769
| 39> H 	 -85.0306 	 -46.7642 	 -68.3256
| 40> H 	 -92.6981 	 -47.9327 	 -71.8494
| 41> *
| 42>
| 43>                          ****END OF INPUT****

CARTESIAN COORDINATES (ANGSTROEM)
---------------------------------
  S    -87.376300  -47.549100  -68.632300
  C    -85.824200  -46.854900  -69.056800
  C    -85.818600  -46.585800  -70.418000
  C    -87.104000  -46.913700  -71.105500
  C    -88.071400  -47.434800  -70.239400
  H    -87.378200  -46.739400  -72.122500
  C    -84.592800  -45.974900  -71.088700
  H    -84.100800  -46.796600  -71.727000
  H    -83.888400  -45.706400  -70.293500
  C    -84.788800  -44.778200  -72.053700
  H    -83.812700  -44.395300  -72.277900
  H    -85.233700  -45.136700  -72.945700
  C    -85.427600  -43.593700  -71.308300
  H    -85.133700  -43.550500  -70.291600
  H    -85.324600  -42.656100  -71.698600
  H    -86.485800  -43.778100  -71.146100
  S    -90.563500  -46.785700  -71.323500
  C    -91.729400  -48.021900  -71.473000
  C    -91.429000  -49.104400  -70.642300
  C    -90.029300  -49.158100  -70.333200
  C    -89.375900  -47.950200  -70.587000
  H    -92.154200  -49.933400  -70.515500
  C    -89.317800  -50.409500  -69.732600
  H    -90.121400  -51.082700  -69.466900
  H    -88.791900  -50.166800  -68.815300
  C    -88.299800  -50.989900  -70.646800
  H    -87.541200  -51.579600  -70.141100
  H    -87.871200  -50.048000  -71.069100
  C    -89.032900  -51.765100  -71.762100
  H    -88.259100  -52.334400  -72.360100
  H    -89.649900  -51.151700  -72.411000
  H    -89.599600  -52.477700  -71.176900
  H    -85.030600  -46.764200  -68.325600
  H    -92.698100  -47.932700  -71.849400

 Total Charge           Charge          ....    0
 Multiplicity           Mult            ....    1
 Number of Electrons    NEL             ....  134
 Basis Dimension        Dim             ....  322

ORBITAL ENERGIES
----------------

  NO   OCC          E(Eh)            E(eV)
   0   2.0000     -88.967684     -2420.9338
   1   2.0000     -88.963336     -2420.8154
   2   2.0000     -10.334540      -281.2171
   3   2.0000     -10.331254      -281.1277
   4   2.0000     -10.320166      -280.8260
   5   2.0000     -10.315298      -280.6935
   6   2.0000     -10.312615      -280.6205
   7   2.0000     -10.310208      -280.5550
   8   2.0000     -10.303722      -280.3785
   9   2.0000     -10.299905      -280.2747
  10   2.0000     -10.298771      -280.2438
  11   2.0000     -10.285269      -279.8764
  12   2.0000     -10.283990      -279.8416
  13   2.0000     -10.278383      -279.6890
  14   2.0000     -10.274695      -279.5887
  15   2.0000     -10.262314      -279.2518
  16   2.0000      -8.082123      -219.9258
  17   2.0000      -8.077933      -219.8117
  18   2.0000      -6.040535      -164.3713
  19   2.0000      -6.036755      -164.2685
  20   2.0000      -6.036543      -164.2627
  21   2.0000      -6.032909      -164.1638
  22   2.0000      -6.032269      -164.1464
  23   2.0000      -6.028775      -164.0513
  24   2.0000      -1.002819       -27.2881
  25   2.0000      -0.981256       -26.7013
  26   2.0000      -0.914828       -24.8937
  27   2.0000      -0.909097       -24.7378
  28   2.0000      -0.872165       -23.7328
  29   2.0000      -0.845153       -22.9978
  30   2.0000      -0.838652       -22.8209
  31   2.0000      -0.813119       -22.1261
  32   2.0000      -0.781235       -21.2585
  33   2.0000      -0.773378       -21.0447
  34   2.0000      -0.715963       -19.4823
  35   2.0000      -0.698577       -19.0093
  36   2.0000      -0.683456       -18.5978
  37   2.0000      -0.663903       -18.0657
  38   2.0000      -0.642548       -17.4846
  39   2.0000      -0.613180       -16.6855
  40   2.0000      -0.592788       -16.1306
  41   2.0000      -0.565920       -15.3995
  42   2.0000      -0.555900       -15.1268
  43   2.0000      -0.552998       -15.0478
  44   2.0000      -0.550025       -14.9669
  45   2.0000      -0.543387       -14.7863
  46   2.0000      -0.517937       -14.0938
  47   2.0000      -0.510390       -13.8884
  48   2.0000      -0.507009       -13.7964
  49   2.0000      -0.494877       -13.4663
  50   2.0000      -0.483150       -13.1472
  51   2.0000      -0.477968       -13.0062
  52   2.0000      -0.474706       -12.9174
  53   2.0000      -0.467772       -12.7287
  54   2.0000      -0.459532       -12.5045
  55   2.0000      -0.444822       -12.1042
  56   2.0000      -0.442011       -12.0277
  57   2.0000      -0.437910       -11.9161
  58   2.0000      -0.426625       -11.6091
  59   2.0000      -0.424762       -11.5583
  60   2.0000      -0.417322       -11.3559
  61   2.0000      -0.411634       -11.2011
  62   2.0000      -0.404475       -11.0063
  63   2.0000      -0.342606        -9.3228
  64   2.0000      -0.331307        -9.0153
  65   2.0000      -0.323410        -8.8004
  66   2.0000      -0.298234        -8.1153
  67   0.0000       0.022165         0.6031
  68   0.0000       0.066395         1.8067
  69   0.0000       0.102035         2.7765
  70   0.0000       0.112908         3.0724
  71   0.0000       0.132479         3.6049

MULLIKEN ATOMIC CHARGES
-----------------------
   0 S :    0.100428
   1 C :   -0.131582
   2 C :   -0.082757
   3 C :    0.055055
   4 C :   -0.157220
   5 H :    0.009734
   6 C :    0.008192
   7 H :    0.051724
   8 H :    0.020218
   9 C :   -0.036085
  10 H :    0.023642
  11 H :    0.029582
  12 C :   -0.009719
  13 H :    0.006817
  14 H :    0.018471
  15 H :    0.024616
  16 S :    0.112946
  17 C :   -0.062988
  18 C :   -0.058910
  19 C :   -0.074933
  20 C :   -0.167223
  21 H :    0.036385
  22 C :    0.092508
  23 H :    0.004184
  24 H :    0.028478
  25 C :   -0.073959
  26 H :    0.034584
  27 H :    0.043815
  28 C :   -0.051183
  29 H :    0.038155
  30 H :    0.047311
  31 H :    0.017759
  32 H :    0.060343
  33 H :    0.041609
Sum of atomic charges:   -0.0000000

LOEWDIN ATOMIC CHARGES
----------------------
   0 S :    0.402935
   1 C :   -0.194851
   2 C :   -0.061941
   3 C :   -0.055882
   4 C :   -0.199265
   5 H :    0.026867
   6 C :   -0.036708
   7 H :    0.041307
   8 H :    0.027115
   9 C :   -0.032606
  10 H :    0.025900
  11 H :    0.018339
  12 C :   -0.060327
  13 H :    0.024021
  14 H :    0.012044
  15 H :    0.028778
  16 S :    0.403382
  17 C :   -0.186616
  18 C :   -0.074907
  19 C :   -0.046852
  20 C :   -0.189869
  21 H :    0.035691
  22 C :   -0.029964
  23 H :    0.019623
  24 H :    0.025306
  25 C :   -0.043296
  26 H :    0.024528
  27 H :    0.032821
  28 C :   -0.062887
  29 H :    0.029756
  30 H :    0.026403
  31 H :    0.019541
  32 H :    0.032103
  33 H :    0.019510

  Mayer bond orders larger than 0.100000
B(  0-S ,  1-C ) :   1.1341 B(  0-S ,  4-C ) :   1.1471 B(  1-C ,  2-C ) :   1.6082
B(  1-C , 32-H ) :   0.9734 B(  2-C ,  3-C ) :   1.2028 B(  2-C ,  6-C ) :   1.0269
B(  3-C ,  4-C ) :   1.5684 B(  3-C ,  5-H ) :   0.9966 B(  4-C , 20-C ) :   1.0588
B(  6-C ,  7-H ) :   0.9372 B(  6-C ,  8-H ) :   0.9464 B(  6-C ,  9-C ) :   1.0820
B(  9-C , 10-H ) :   0.9551 B(  9-C , 11-H ) :   0.9572 B(  9-C , 12-C ) :   1.0670
B( 12-C , 13-H ) :   0.9699 B( 12-C , 14-H ) :   0.9790 B( 12-C , 15-H ) :   0.9687
B( 16-S , 17-C ) :   1.1751 B( 16-S , 20-C ) :   1.1234 B( 17-C , 18-C ) :   1.6000
B( 17-C , 20-C ) :   0.1056 B( 17-C , 33-H ) :   0.9689 B( 18-C , 19-C ) :   1.2573
B( 18-C , 21-H ) :   0.9762 B( 19-C , 20-C ) :   1.5820 B( 19-C , 22-C ) :   1.0310
B( 22-C , 23-H ) :   0.9347 B( 22-C , 24-H ) :   0.9311 B( 22-C , 25-C ) :   1.0648
B( 25-C , 26-H ) :   0.9569 B( 25-C , 27-H ) :   0.9544 B( 25-C , 28-C ) :   1.0623
B( 28-C , 29-H ) :   0.9754 B( 28-C , 30-H ) :   0.9770 B( 28-C , 31-H ) :   0.9780

Dispersion correction           -0.015250116
FINAL SINGLE POINT ENERGY     -1339.862288577019

DIPOLE MOMENT
-------------
                                X             Y             Z
Electronic contribution:    -12.56061       3.96273       7.75742
Nuclear contribution   :     12.80989      -4.08527      -7.88290
                        -----------------------------------------
Total Dipole Moment    :      0.24928      -0.12254      -0.12548
                        -----------------------------------------
Magnitude (a.u.)       :      0.30479
Magnitude (Debye)      :      0.77473

Rotational constants in cm-1:     0.021187     0.008405     0.007263
Rotational constants in MHz :   635.171517   251.974260   217.724408

                             ****ORCA TERMINATED NORMALLY****
TOTAL RUN TIME: 0 days 0 hours 0 minutes 20 seconds 847 msec
