                         Program Version 4.2.1 -  RELEASE  -
|  1> ! wB97X-D3 SP def2-SVP
|  2> %pal
|  3> nprocs 24
|  4> end
|  5>
|  6> * xyz 0 1
|  7> S 	 -36.4366 	 -47.9501 	 -77.7596
|  8> C 	 -35.3991 	 -47.7612 	 -79.1391
|  9> C 	 -34.1333 	 -47.401 	 -78.7517
| 10> C 	 -33.9641 	 -47.4214 	 -77.3499
| 11> C 	 -35.0638 	 -47.8218 	 -76.6884
| 12> H 	 -33.0354 	 -47.3171 	 -76.8405
| 13> C 	 -33.1063 	 -46.9279 	 -79.7476
| 14> H 	 -33.5119 	 -46.329 	 -80.4877
| 15> H 	 -32.6847 	 -47.7278 	 -80.3543
| 16> C 	 -31.9516 	 -46.1772 	 -79.2469
| 17> H 	 -32.3705 	 -45.3203 	 -78.7067
| 18> H 	 -31.3378 	 -46.8044 	 -78.4625
| 19> C 	 -31.0136 	 -45.6628 	 -80.3441
| 20> H 	 -31.575 	 -45.3326 	 -81.2383
| 21> H 	 -30.3458 	 -44.853 	 -80.0033
| 22> H 	 -30.4883 	 -46.5109 	 -80.708
| 23> S 	 -35.9367 	 -49.7237 	 -74.9927
| 24> C 	 -35.8151 	 -49.3511 	 -73.2837
| 25> C 	 -35.2894 	 -48.1103 	 -73.0214
| 26> C 	 -34.9771 	 -47.4006 	 -74.1868
| 27> C 	 -35.1949 	 -48.166 	 -75.303
| 28> H 	 -35.0254 	 -47.7705 	 -72.0188
| 29> C 	 -34.5156 	 -45.9321 	 -74.2298
| 30> H 	 -35.2198 	 -45.2688 	 -73.6299
| 31> H 	 -34.6109 	 -45.5189 	 -75.2233
| 32> C 	 -33.1229 	 -45.6322 	 -73.6723
| 33> H 	 -32.5041 	 -46.3885 	 -74.1208
| 34> H 	 -33.0915 	 -45.9004 	 -72.6971
| 35> C 	 -32.464 	 -44.2751 	 -73.9674
| 36> H 	 -31.4505 	 -44.235 	 -73.6296
| 37> H 	 -33.0095 	 -43.4824 	 -73.4658
| 38> H 	 -32.5133 	 -44.0698 	 -74.9933
| 39> H 	 -35.7308 	 -47.8928 	 -80.1298
| 40> H 	 -36.1 	 -49.9575 	 -72.4093
| 41> *
| 42>
| 43>                          ****END OF INPUT****

CARTESIAN COORDINATES (ANGSTROEM)
---------------------------------
  S    -36.436600  -47.950100  -77.759600
  C    -35.399100  -47.761200  -79.139100
  C    -34.133300  -47.401000  -78.751700
  C    -33.964100  -47.421400  -77.349900
  C    -35.063800  -47.821800  -76.688400
  H    -33.035400  -47.317100  -76.840500
  C    -33.106300  -46.927900  -79.747600
  H    -33.511900  -46.329000  -80.487700
  H    -32.684700  -47.727800  -80.354300
  C    -31.951600  -46.177200  -79.246900
  H    -32.370500  -45.320300  -78.706700
  H    -31.337800  -46.804400  -78.462500
  C    -31.013600  -45.662800  -80.344100
  H    -31.575000  -45.332600  -81.238300
  H    -30.345800  -44.853000  -80.003300
  H    -30.488300  -46.510900  -80.708000
  S    -35.936700  -49.723700  -74.992700
  C    -35.815100  -49.351100  -73.283700
  C    -35.289400  -48.110300  -73.021400
  C    -34.977100  -47.400600  -74.186800
  C    -35.194900  -48.166000  -75.303000
  H    -35.025400  -47.770500  -72.018800
  C    -34.515600  -45.932100  -74.229800
  H    -35.219800  -45.268800  -73.629900
  H    -34.610900  -45.518900  -75.223300
  C    -33.122900  -45.632200  -73.672300
  H    -32.504100  -46.388500  -74.120800
  H    -33.091500  -45.900400  -72.697100
  C    -32.464000  -44.275100  -73.967400
  H    -31.450500  -44.235000  -73.629600
  H    -33.009500  -43.482400  -73.465800
  H    -32.513300  -44.069800  -74.993300
  H    -35.730800  -47.892800  -80.129800
  H    -36.100000  -49.957500  -72.409300

 Total Charge           Charge          ....    0
 Multiplicity           Mult            ....    1
 Number of Electrons    NEL             ....  134
 Basis Dimension        Dim             ....  322

ORBITAL ENERGIES
----------------

  NO   OCC          E(Eh)            E(eV)
   0   2.0000     -88.970390     -2421.0074
   1   2.0000     -88.962004     -2420.7792
   2   2.0000     -10.320093      -280.8240
   3   2.0000     -10.318984      -280.7938
   4   2.0000     -10.317068      -280.7417
   5   2.0000     -10.305565      -280.4287
   6   2.0000     -10.300324      -280.2861
   7   2.0000     -10.296531      -280.1829
   8   2.0000     -10.293870      -280.1104
   9   2.0000     -10.290618      -280.0220
  10   2.0000     -10.289276      -279.9854
  11   2.0000     -10.285203      -279.8746
  12   2.0000     -10.280475      -279.7459
  13   2.0000     -10.279074      -279.7078
  14   2.0000     -10.273843      -279.5655
  15   2.0000     -10.273071      -279.5445
  16   2.0000      -8.084857      -220.0001
  17   2.0000      -8.077400      -219.7972
  18   2.0000      -6.043297      -164.4465
  19   2.0000      -6.039561      -164.3448
  20   2.0000      -6.035825      -164.2432
  21   2.0000      -6.035518      -164.2348
  22   2.0000      -6.031883      -164.1359
  23   2.0000      -6.028144      -164.0341
  24   2.0000      -1.014559       -27.6075
  25   2.0000      -0.989499       -26.9256
  26   2.0000      -0.922939       -25.1144
  27   2.0000      -0.908356       -24.7176
  28   2.0000      -0.874217       -23.7887
  29   2.0000      -0.856734       -23.3129
  30   2.0000      -0.847682       -23.0666
  31   2.0000      -0.818574       -22.2745
  32   2.0000      -0.787528       -21.4297
  33   2.0000      -0.774537       -21.0762
  34   2.0000      -0.712459       -19.3870
  35   2.0000      -0.702878       -19.1263
  36   2.0000      -0.686982       -18.6937
  37   2.0000      -0.659905       -17.9569
  38   2.0000      -0.650454       -17.6998
  39   2.0000      -0.626768       -17.0552
  40   2.0000      -0.598648       -16.2900
  41   2.0000      -0.575566       -15.6620
  42   2.0000      -0.567463       -15.4414
  43   2.0000      -0.561790       -15.2871
  44   2.0000      -0.527492       -14.3538
  45   2.0000      -0.524355       -14.2684
  46   2.0000      -0.519599       -14.1390
  47   2.0000      -0.511456       -13.9174
  48   2.0000      -0.506656       -13.7868
  49   2.0000      -0.493015       -13.4156
  50   2.0000      -0.491233       -13.3671
  51   2.0000      -0.485566       -13.2129
  52   2.0000      -0.472957       -12.8698
  53   2.0000      -0.472458       -12.8562
  54   2.0000      -0.463322       -12.6076
  55   2.0000      -0.455689       -12.3999
  56   2.0000      -0.448173       -12.1954
  57   2.0000      -0.438997       -11.9457
  58   2.0000      -0.434596       -11.8260
  59   2.0000      -0.429649       -11.6914
  60   2.0000      -0.422534       -11.4977
  61   2.0000      -0.413998       -11.2655
  62   2.0000      -0.408868       -11.1259
  63   2.0000      -0.345668        -9.4061
  64   2.0000      -0.337037        -9.1712
  65   2.0000      -0.327070        -8.9000
  66   2.0000      -0.293111        -7.9760
  67   0.0000       0.032892         0.8950
  68   0.0000       0.069802         1.8994
  69   0.0000       0.111255         3.0274
  70   0.0000       0.120492         3.2788
  71   0.0000       0.127298         3.4640

MULLIKEN ATOMIC CHARGES
-----------------------
   0 S :    0.111468
   1 C :   -0.117181
   2 C :   -0.048327
   3 C :    0.030047
   4 C :   -0.152257
   5 H :    0.000755
   6 C :    0.108996
   7 H :   -0.001676
   8 H :    0.016680
   9 C :   -0.147771
  10 H :    0.026701
  11 H :    0.044474
  12 C :   -0.023888
  13 H :    0.023890
  14 H :    0.049774
  15 H :    0.022367
  16 S :    0.131187
  17 C :   -0.087770
  18 C :   -0.043832
  19 C :   -0.002509
  20 C :   -0.183914
  21 H :    0.020583
  22 C :    0.056987
  23 H :    0.031275
  24 H :    0.018701
  25 C :   -0.054388
  26 H :    0.009649
  27 H :   -0.003718
  28 C :    0.001542
  29 H :    0.033913
  30 H :    0.022866
  31 H :    0.018835
  32 H :    0.028258
  33 H :    0.058281
Sum of atomic charges:    0.0000000

LOEWDIN ATOMIC CHARGES
----------------------
   0 S :    0.405793
   1 C :   -0.188059
   2 C :   -0.057845
   3 C :   -0.063246
   4 C :   -0.191452
   5 H :    0.029419
   6 C :   -0.037980
   7 H :    0.021643
   8 H :    0.031555
   9 C :   -0.050404
  10 H :    0.020248
  11 H :    0.029465
  12 C :   -0.062798
  13 H :    0.026765
  14 H :    0.033376
  15 H :    0.021373
  16 S :    0.412440
  17 C :   -0.188111
  18 C :   -0.070810
  19 C :   -0.052732
  20 C :   -0.196410
  21 H :    0.033481
  22 C :   -0.028353
  23 H :    0.034574
  24 H :    0.025591
  25 C :   -0.038385
  26 H :    0.020190
  27 H :    0.006345
  28 C :   -0.050782
  29 H :    0.027802
  30 H :    0.024240
  31 H :    0.019092
  32 H :    0.018396
  33 H :    0.035580

  Mayer bond orders larger than 0.100000
B(  0-S ,  1-C ) :   1.1331 B(  0-S ,  4-C ) :   1.1545 B(  1-C ,  2-C ) :   1.6116
B(  1-C , 32-H ) :   0.9836 B(  2-C ,  3-C ) :   1.2441 B(  2-C ,  6-C ) :   1.0028
B(  3-C ,  4-C ) :   1.5762 B(  3-C ,  5-H ) :   1.0042 B(  4-C , 20-C ) :   1.0336
B(  6-C ,  7-H ) :   0.9339 B(  6-C ,  8-H ) :   0.9203 B(  6-C ,  9-C ) :   1.0936
B(  9-C , 10-H ) :   0.9518 B(  9-C , 11-H ) :   0.9432 B(  9-C , 12-C ) :   1.0799
B( 12-C , 13-H ) :   0.9715 B( 12-C , 14-H ) :   0.9731 B( 12-C , 15-H ) :   0.9723
B( 16-S , 17-C ) :   1.1415 B( 16-S , 20-C ) :   1.1375 B( 17-C , 18-C ) :   1.6336
B( 17-C , 33-H ) :   0.9595 B( 18-C , 19-C ) :   1.2424 B( 18-C , 21-H ) :   0.9836
B( 19-C , 20-C ) :   1.6091 B( 19-C , 22-C ) :   1.0472 B( 22-C , 23-H ) :   0.9362
B( 22-C , 24-H ) :   0.9307 B( 22-C , 25-C ) :   1.0509 B( 25-C , 26-H ) :   0.9507
B( 25-C , 27-H ) :   0.9537 B( 25-C , 28-C ) :   1.0892 B( 28-C , 29-H ) :   0.9731
B( 28-C , 30-H ) :   0.9738 B( 28-C , 31-H ) :   0.9738

Dispersion correction           -0.014006735
FINAL SINGLE POINT ENERGY     -1339.871993581161

DIPOLE MOMENT
-------------
                                X             Y             Z
Electronic contribution:    -24.21152     -21.02501       4.05404
Nuclear contribution   :     24.69899      21.39003      -4.05451
                        -----------------------------------------
Total Dipole Moment    :      0.48747       0.36501      -0.00047
                        -----------------------------------------
Magnitude (a.u.)       :      0.60898
Magnitude (Debye)      :      1.54791

Rotational constants in cm-1:     0.016755     0.009541     0.006645
Rotational constants in MHz :   502.307640   286.037903   199.202109

                             ****ORCA TERMINATED NORMALLY****
TOTAL RUN TIME: 0 days 0 hours 0 minutes 20 seconds 738 msec
