                         Program Version 4.2.1 -  RELEASE  -
|  1> ! wB97X-D3 SP def2-SVP
|  2> %pal
|  3> nprocs 24
|  4> end
|  5>
|  6> * xyz 0 1
|  7> S 	 -148.094 	 4.72206 	 11.4458
|  8> C 	 -148.985 	 5.29071 	 9.97425
|  9> C 	 -148.886 	 6.6916 	 9.86468
| 10> C 	 -147.888 	 7.24635 	 10.7454
| 11> C 	 -147.438 	 6.33238 	 11.6749
| 12> H 	 -147.624 	 8.29745 	 10.7732
| 13> C 	 -149.758 	 7.56444 	 8.97872
| 14> H 	 -150.637 	 7.04811 	 8.62795
| 15> H 	 -149.076 	 7.86894 	 8.1724
| 16> C 	 -150.175 	 8.93564 	 9.51284
| 17> H 	 -150.808 	 8.86337 	 10.4033
| 18> H 	 -149.216 	 9.44117 	 9.66633
| 19> C 	 -150.801 	 9.83726 	 8.51812
| 20> H 	 -150.069 	 9.88837 	 7.70728
| 21> H 	 -151.811 	 9.52642 	 8.13429
| 22> H 	 -151.015 	 10.8553 	 8.93368
| 23> S 	 -146.686 	 5.73347 	 14.1626
| 24> C 	 -145.205 	 6.4831 	 14.9064
| 25> C 	 -144.625 	 7.41494 	 14.0505
| 26> C 	 -145.378 	 7.5416 	 12.8141
| 27> C 	 -146.491 	 6.68655 	 12.723
| 28> H 	 -143.633 	 7.84657 	 14.2723
| 29> C 	 -144.896 	 8.51064 	 11.7046
| 30> H 	 -145.335 	 8.20065 	 10.7597
| 31> H 	 -143.825 	 8.38397 	 11.6335
| 32> C 	 -145.375 	 9.9755 	 12.1094
| 33> H 	 -145.228 	 10.2974 	 13.1644
| 34> H 	 -146.502 	 9.93595 	 12.0644
| 35> C 	 -144.932 	 11.1122 	 11.1776
| 36> H 	 -145.625 	 11.943 	 11.2622
| 37> H 	 -145.128 	 10.8395 	 10.1184
| 38> H 	 -143.877 	 11.4065 	 11.325
| 39> H 	 -149.642 	 4.61569 	 9.43207
| 40> H 	 -144.844 	 6.43133 	 15.9266
| 41> *
| 42>
| 43>                          ****END OF INPUT****

CARTESIAN COORDINATES (ANGSTROEM)
---------------------------------
  S    -148.094000    4.722060   11.445800
  C    -148.985000    5.290710    9.974250
  C    -148.886000    6.691600    9.864680
  C    -147.888000    7.246350   10.745400
  C    -147.438000    6.332380   11.674900
  H    -147.624000    8.297450   10.773200
  C    -149.758000    7.564440    8.978720
  H    -150.637000    7.048110    8.627950
  H    -149.076000    7.868940    8.172400
  C    -150.175000    8.935640    9.512840
  H    -150.808000    8.863370   10.403300
  H    -149.216000    9.441170    9.666330
  C    -150.801000    9.837260    8.518120
  H    -150.069000    9.888370    7.707280
  H    -151.811000    9.526420    8.134290
  H    -151.015000   10.855300    8.933680
  S    -146.686000    5.733470   14.162600
  C    -145.205000    6.483100   14.906400
  C    -144.625000    7.414940   14.050500
  C    -145.378000    7.541600   12.814100
  C    -146.491000    6.686550   12.723000
  H    -143.633000    7.846570   14.272300
  C    -144.896000    8.510640   11.704600
  H    -145.335000    8.200650   10.759700
  H    -143.825000    8.383970   11.633500
  C    -145.375000    9.975500   12.109400
  H    -145.228000   10.297400   13.164400
  H    -146.502000    9.935950   12.064400
  C    -144.932000   11.112200   11.177600
  H    -145.625000   11.943000   11.262200
  H    -145.128000   10.839500   10.118400
  H    -143.877000   11.406500   11.325000
  H    -149.642000    4.615690    9.432070
  H    -144.844000    6.431330   15.926600

 Total Charge           Charge          ....    0
 Multiplicity           Mult            ....    1
 Number of Electrons    NEL             ....  134
 Basis Dimension        Dim             ....  322

ORBITAL ENERGIES
----------------

  NO   OCC          E(Eh)            E(eV)
   0   2.0000     -88.970123     -2421.0001
   1   2.0000     -88.966381     -2420.8983
   2   2.0000     -10.333816      -281.1974
   3   2.0000     -10.329673      -281.0847
   4   2.0000     -10.322441      -280.8879
   5   2.0000     -10.321122      -280.8520
   6   2.0000     -10.310584      -280.5653
   7   2.0000     -10.309733      -280.5421
   8   2.0000     -10.301961      -280.3306
   9   2.0000     -10.298732      -280.2428
  10   2.0000     -10.298464      -280.2355
  11   2.0000     -10.295094      -280.1437
  12   2.0000     -10.294283      -280.1217
  13   2.0000     -10.286963      -279.9225
  14   2.0000     -10.285191      -279.8743
  15   2.0000     -10.282762      -279.8082
  16   2.0000      -8.083625      -219.9666
  17   2.0000      -8.080273      -219.8754
  18   2.0000      -6.042338      -164.4204
  19   2.0000      -6.039013      -164.3299
  20   2.0000      -6.038435      -164.3142
  21   2.0000      -6.034882      -164.2175
  22   2.0000      -6.034104      -164.1963
  23   2.0000      -6.030850      -164.1078
  24   2.0000      -1.001889       -27.2628
  25   2.0000      -0.973943       -26.5023
  26   2.0000      -0.921413       -25.0729
  27   2.0000      -0.899099       -24.4657
  28   2.0000      -0.871923       -23.7262
  29   2.0000      -0.850629       -23.1468
  30   2.0000      -0.844095       -22.9690
  31   2.0000      -0.815672       -22.1956
  32   2.0000      -0.780082       -21.2271
  33   2.0000      -0.767599       -20.8874
  34   2.0000      -0.705263       -19.1912
  35   2.0000      -0.694834       -18.9074
  36   2.0000      -0.688908       -18.7461
  37   2.0000      -0.662109       -18.0169
  38   2.0000      -0.637678       -17.3521
  39   2.0000      -0.624965       -17.0062
  40   2.0000      -0.590182       -16.0597
  41   2.0000      -0.584403       -15.9024
  42   2.0000      -0.562087       -15.2952
  43   2.0000      -0.556767       -15.1504
  44   2.0000      -0.524722       -14.2784
  45   2.0000      -0.523643       -14.2491
  46   2.0000      -0.517663       -14.0863
  47   2.0000      -0.509828       -13.8731
  48   2.0000      -0.504989       -13.7414
  49   2.0000      -0.503004       -13.6874
  50   2.0000      -0.498129       -13.5548
  51   2.0000      -0.477707       -12.9991
  52   2.0000      -0.474296       -12.9063
  53   2.0000      -0.465026       -12.6540
  54   2.0000      -0.457097       -12.4383
  55   2.0000      -0.450648       -12.2628
  56   2.0000      -0.445493       -12.1225
  57   2.0000      -0.434058       -11.8113
  58   2.0000      -0.433146       -11.7865
  59   2.0000      -0.424469       -11.5504
  60   2.0000      -0.420331       -11.4378
  61   2.0000      -0.415504       -11.3064
  62   2.0000      -0.410151       -11.1608
  63   2.0000      -0.355283        -9.6678
  64   2.0000      -0.333234        -9.0677
  65   2.0000      -0.326136        -8.8746
  66   2.0000      -0.282530        -7.6880
  67   0.0000       0.022092         0.6011
  68   0.0000       0.067489         1.8365
  69   0.0000       0.097806         2.6614
  70   0.0000       0.114751         3.1225
  71   0.0000       0.122980         3.3464

MULLIKEN ATOMIC CHARGES
-----------------------
   0 S :    0.103745
   1 C :   -0.142929
   2 C :   -0.051210
   3 C :   -0.022253
   4 C :   -0.080733
   5 H :    0.007130
   6 C :    0.077996
   7 H :    0.022571
   8 H :    0.028756
   9 C :   -0.089162
  10 H :    0.042405
  11 H :    0.024756
  12 C :   -0.062065
  13 H :    0.023074
  14 H :    0.032536
  15 H :    0.043518
  16 S :    0.081334
  17 C :   -0.089580
  18 C :   -0.043357
  19 C :   -0.081241
  20 C :   -0.136918
  21 H :    0.040577
  22 C :    0.087768
  23 H :    0.025071
  24 H :    0.028866
  25 C :   -0.123347
  26 H :    0.040408
  27 H :    0.028712
  28 C :   -0.029414
  29 H :    0.028787
  30 H :    0.020657
  31 H :    0.049527
  32 H :    0.054530
  33 H :    0.059482
Sum of atomic charges:   -0.0000000

LOEWDIN ATOMIC CHARGES
----------------------
   0 S :    0.378175
   1 C :   -0.188075
   2 C :   -0.048610
   3 C :   -0.071458
   4 C :   -0.183927
   5 H :    0.028498
   6 C :   -0.031267
   7 H :    0.026313
   8 H :    0.037645
   9 C :   -0.045974
  10 H :    0.024810
  11 H :    0.025997
  12 C :   -0.067640
  13 H :    0.023155
  14 H :    0.024378
  15 H :    0.033477
  16 S :    0.381255
  17 C :   -0.172752
  18 C :   -0.068674
  19 C :   -0.055598
  20 C :   -0.194037
  21 H :    0.040766
  22 C :   -0.024443
  23 H :    0.027328
  24 H :    0.027381
  25 C :   -0.048755
  26 H :    0.028900
  27 H :    0.026597
  28 C :   -0.074137
  29 H :    0.026986
  30 H :    0.026193
  31 H :    0.028274
  32 H :    0.027215
  33 H :    0.032003

  Mayer bond orders larger than 0.100000
B(  0-S ,  1-C ) :   1.1034 B(  0-S ,  4-C ) :   1.1420 B(  1-C ,  2-C ) :   1.6167
B(  1-C , 32-H ) :   0.9721 B(  2-C ,  3-C ) :   1.2171 B(  2-C ,  6-C ) :   1.0286
B(  3-C ,  4-C ) :   1.5762 B(  3-C ,  5-H ) :   0.9867 B(  4-C , 20-C ) :   1.0663
B(  6-C ,  7-H ) :   0.9495 B(  6-C ,  8-H ) :   0.9252 B(  6-C ,  9-C ) :   1.0737
B(  9-C , 10-H ) :   0.9554 B(  9-C , 11-H ) :   0.9452 B(  9-C , 12-C ) :   1.0939
B( 12-C , 13-H ) :   0.9719 B( 12-C , 14-H ) :   0.9718 B( 12-C , 15-H ) :   0.9713
B( 16-S , 17-C ) :   1.1285 B( 16-S , 20-C ) :   1.1231 B( 17-C , 18-C ) :   1.6441
B( 17-C , 33-H ) :   0.9639 B( 18-C , 19-C ) :   1.2300 B( 18-C , 21-H ) :   0.9788
B( 19-C , 20-C ) :   1.5991 B( 19-C , 22-C ) :   1.0392 B( 22-C , 23-H ) :   0.9340
B( 22-C , 24-H ) :   0.9412 B( 22-C , 25-C ) :   1.0396 B( 25-C , 26-H ) :   0.9603
B( 25-C , 27-H ) :   0.9530 B( 25-C , 28-C ) :   1.0819 B( 28-C , 29-H ) :   0.9726
B( 28-C , 30-H ) :   0.9697 B( 28-C , 31-H ) :   0.9761

Dispersion correction           -0.013906108
FINAL SINGLE POINT ENERGY     -1339.868427097784

DIPOLE MOMENT
-------------
                                X             Y             Z
Electronic contribution:      2.90052     -28.69830      16.32066
Nuclear contribution   :     -2.88213      29.42302     -16.61133
                        -----------------------------------------
Total Dipole Moment    :      0.01838       0.72472      -0.29068
                        -----------------------------------------
Magnitude (a.u.)       :      0.78106
Magnitude (Debye)      :      1.98529

Rotational constants in cm-1:     0.015895     0.009807     0.006566
Rotational constants in MHz :   476.508002   294.001958   196.849362

                             ****ORCA TERMINATED NORMALLY****
TOTAL RUN TIME: 0 days 0 hours 0 minutes 20 seconds 489 msec
