                         Program Version 4.2.1 -  RELEASE  -
|  1> ! wB97X-D3 SP def2-SVP
|  2> %pal
|  3> nprocs 24
|  4> end
|  5>
|  6> * xyz 0 1
|  7> S 	 -89.0423 	 -6.96631 	 -117.305
|  8> C 	 -90.5802 	 -7.71682 	 -117.525
|  9> C 	 -91.5402 	 -6.90653 	 -118.019
| 10> C 	 -90.9656 	 -5.67496 	 -118.505
| 11> C 	 -89.6351 	 -5.56006 	 -118.152
| 12> H 	 -91.4489 	 -4.86257 	 -118.977
| 13> C 	 -92.9443 	 -7.26043 	 -118.327
| 14> H 	 -93.0776 	 -8.35461 	 -118.163
| 15> H 	 -93.0935 	 -6.90339 	 -119.361
| 16> C 	 -94.0166 	 -6.50612 	 -117.499
| 17> H 	 -93.7949 	 -5.46092 	 -117.627
| 18> H 	 -95.0101 	 -6.67218 	 -118.007
| 19> C 	 -94.1274 	 -6.69559 	 -115.971
| 20> H 	 -94.3036 	 -7.73156 	 -115.778
| 21> H 	 -93.1096 	 -6.33646 	 -115.599
| 22> H 	 -94.9507 	 -6.20891 	 -115.426
| 23> S 	 -87.4374 	 -5.07281 	 -119.603
| 24> C 	 -87.0762 	 -3.42168 	 -120.047
| 25> C 	 -87.5785 	 -2.53939 	 -119.153
| 26> C 	 -88.6387 	 -3.12645 	 -118.321
| 27> C 	 -88.7338 	 -4.4869 	 -118.58
| 28> H 	 -87.2785 	 -1.51471 	 -119.115
| 29> C 	 -89.4904 	 -2.36396 	 -117.318
| 30> H 	 -90.4841 	 -2.67178 	 -117.439
| 31> H 	 -89.4744 	 -1.32643 	 -117.401
| 32> C 	 -89.1483 	 -2.52291 	 -115.785
| 33> H 	 -89.3091 	 -3.60897 	 -115.629
| 34> H 	 -89.8397 	 -1.97319 	 -115.145
| 35> C 	 -87.7409 	 -2.28794 	 -115.419
| 36> H 	 -87.0192 	 -2.90655 	 -116.046
| 37> H 	 -87.3825 	 -2.36556 	 -114.377
| 38> H 	 -87.5811 	 -1.25904 	 -115.654
| 39> H 	 -90.7555 	 -8.63485 	 -116.915
| 40> H 	 -86.3277 	 -3.30391 	 -120.788
| 41> *
| 42>
| 43>                          ****END OF INPUT****

CARTESIAN COORDINATES (ANGSTROEM)
---------------------------------
  S    -89.042300   -6.966310  -117.305000
  C    -90.580200   -7.716820  -117.525000
  C    -91.540200   -6.906530  -118.019000
  C    -90.965600   -5.674960  -118.505000
  C    -89.635100   -5.560060  -118.152000
  H    -91.448900   -4.862570  -118.977000
  C    -92.944300   -7.260430  -118.327000
  H    -93.077600   -8.354610  -118.163000
  H    -93.093500   -6.903390  -119.361000
  C    -94.016600   -6.506120  -117.499000
  H    -93.794900   -5.460920  -117.627000
  H    -95.010100   -6.672180  -118.007000
  C    -94.127400   -6.695590  -115.971000
  H    -94.303600   -7.731560  -115.778000
  H    -93.109600   -6.336460  -115.599000
  H    -94.950700   -6.208910  -115.426000
  S    -87.437400   -5.072810  -119.603000
  C    -87.076200   -3.421680  -120.047000
  C    -87.578500   -2.539390  -119.153000
  C    -88.638700   -3.126450  -118.321000
  C    -88.733800   -4.486900  -118.580000
  H    -87.278500   -1.514710  -119.115000
  C    -89.490400   -2.363960  -117.318000
  H    -90.484100   -2.671780  -117.439000
  H    -89.474400   -1.326430  -117.401000
  C    -89.148300   -2.522910  -115.785000
  H    -89.309100   -3.608970  -115.629000
  H    -89.839700   -1.973190  -115.145000
  C    -87.740900   -2.287940  -115.419000
  H    -87.019200   -2.906550  -116.046000
  H    -87.382500   -2.365560  -114.377000
  H    -87.581100   -1.259040  -115.654000
  H    -90.755500   -8.634850  -116.915000
  H    -86.327700   -3.303910  -120.788000

 Total Charge           Charge          ....    0
 Multiplicity           Mult            ....    1
 Number of Electrons    NEL             ....  134
 Basis Dimension        Dim             ....  322

ORBITAL ENERGIES
----------------

  NO   OCC          E(Eh)            E(eV)
   0   2.0000     -88.965297     -2420.8688
   1   2.0000     -88.959269     -2420.7048
   2   2.0000     -10.328203      -281.0447
   3   2.0000     -10.325670      -280.9758
   4   2.0000     -10.313248      -280.6377
   5   2.0000     -10.311027      -280.5773
   6   2.0000     -10.309615      -280.5389
   7   2.0000     -10.297871      -280.2193
   8   2.0000     -10.296862      -280.1919
   9   2.0000     -10.296669      -280.1866
  10   2.0000     -10.291403      -280.0433
  11   2.0000     -10.289286      -279.9857
  12   2.0000     -10.286794      -279.9179
  13   2.0000     -10.282814      -279.8096
  14   2.0000     -10.281889      -279.7844
  15   2.0000     -10.272310      -279.5238
  16   2.0000      -8.080907      -219.8927
  17   2.0000      -8.074985      -219.7315
  18   2.0000      -6.039327      -164.3384
  19   2.0000      -6.035442      -164.2327
  20   2.0000      -6.033394      -164.1770
  21   2.0000      -6.031573      -164.1275
  22   2.0000      -6.029689      -164.0762
  23   2.0000      -6.025435      -163.9604
  24   2.0000      -1.010631       -27.5007
  25   2.0000      -0.987734       -26.8776
  26   2.0000      -0.912922       -24.8419
  27   2.0000      -0.910261       -24.7695
  28   2.0000      -0.869903       -23.6713
  29   2.0000      -0.852018       -23.1846
  30   2.0000      -0.846798       -23.0425
  31   2.0000      -0.816301       -22.2127
  32   2.0000      -0.786780       -21.4094
  33   2.0000      -0.776270       -21.1234
  34   2.0000      -0.705633       -19.2012
  35   2.0000      -0.692467       -18.8430
  36   2.0000      -0.684646       -18.6302
  37   2.0000      -0.666797       -18.1445
  38   2.0000      -0.644809       -17.5461
  39   2.0000      -0.618232       -16.8229
  40   2.0000      -0.600566       -16.3422
  41   2.0000      -0.567686       -15.4475
  42   2.0000      -0.562643       -15.3103
  43   2.0000      -0.550476       -14.9792
  44   2.0000      -0.546482       -14.8705
  45   2.0000      -0.538351       -14.6493
  46   2.0000      -0.515662       -14.0319
  47   2.0000      -0.512773       -13.9533
  48   2.0000      -0.500150       -13.6098
  49   2.0000      -0.491954       -13.3867
  50   2.0000      -0.488485       -13.2923
  51   2.0000      -0.479413       -13.0455
  52   2.0000      -0.475114       -12.9285
  53   2.0000      -0.465361       -12.6631
  54   2.0000      -0.462370       -12.5817
  55   2.0000      -0.449882       -12.2419
  56   2.0000      -0.442849       -12.0505
  57   2.0000      -0.439663       -11.9638
  58   2.0000      -0.439439       -11.9577
  59   2.0000      -0.425017       -11.5653
  60   2.0000      -0.418608       -11.3909
  61   2.0000      -0.411111       -11.1869
  62   2.0000      -0.397000       -10.8029
  63   2.0000      -0.346393        -9.4258
  64   2.0000      -0.329750        -8.9729
  65   2.0000      -0.325240        -8.8502
  66   2.0000      -0.297144        -8.0857
  67   0.0000       0.037774         1.0279
  68   0.0000       0.059270         1.6128
  69   0.0000       0.106366         2.8944
  70   0.0000       0.117052         3.1851
  71   0.0000       0.124475         3.3871

MULLIKEN ATOMIC CHARGES
-----------------------
   0 S :    0.110659
   1 C :   -0.147815
   2 C :   -0.070238
   3 C :    0.040658
   4 C :   -0.158185
   5 H :    0.004163
   6 C :    0.076988
   7 H :    0.030839
   8 H :    0.041687
   9 C :   -0.106382
  10 H :    0.016108
  11 H :    0.034498
  12 C :   -0.056254
  13 H :    0.020182
  14 H :    0.051442
  15 H :    0.044417
  16 S :    0.092581
  17 C :   -0.077094
  18 C :   -0.004569
  19 C :   -0.055706
  20 C :   -0.173902
  21 H :    0.014735
  22 C :    0.136247
  23 H :    0.012020
  24 H :   -0.000134
  25 C :   -0.078578
  26 H :    0.026197
  27 H :    0.033118
  28 C :   -0.062963
  29 H :    0.048538
  30 H :    0.041089
  31 H :    0.003635
  32 H :    0.065885
  33 H :    0.046132
Sum of atomic charges:   -0.0000000

LOEWDIN ATOMIC CHARGES
----------------------
   0 S :    0.406625
   1 C :   -0.209735
   2 C :   -0.069159
   3 C :   -0.056319
   4 C :   -0.193379
   5 H :    0.025813
   6 C :   -0.028968
   7 H :    0.033625
   8 H :    0.043770
   9 C :   -0.048237
  10 H :    0.016663
  11 H :    0.025798
  12 C :   -0.072232
  13 H :    0.017065
  14 H :    0.037199
  15 H :    0.031428
  16 S :    0.395760
  17 C :   -0.168694
  18 C :   -0.062186
  19 C :   -0.050700
  20 C :   -0.192341
  21 H :    0.029033
  22 C :   -0.019834
  23 H :    0.027892
  24 H :    0.018629
  25 C :   -0.039520
  26 H :    0.022565
  27 H :    0.024658
  28 C :   -0.077026
  29 H :    0.035312
  30 H :    0.030438
  31 H :    0.014745
  32 H :    0.033199
  33 H :    0.018111

  Mayer bond orders larger than 0.100000
B(  0-S ,  1-C ) :   1.1281 B(  0-S ,  4-C ) :   1.1546 B(  1-C ,  2-C ) :   1.6456
B(  1-C , 32-H ) :   0.9524 B(  2-C ,  3-C ) :   1.1926 B(  2-C ,  6-C ) :   1.0344
B(  3-C ,  4-C ) :   1.6171 B(  3-C ,  5-H ) :   0.9942 B(  4-C , 20-C ) :   1.0063
B(  6-C ,  7-H ) :   0.9451 B(  6-C ,  8-H ) :   0.9328 B(  6-C ,  9-C ) :   1.0633
B(  9-C , 10-H ) :   0.9592 B(  9-C , 11-H ) :   0.9573 B(  9-C , 12-C ) :   1.0654
B( 12-C , 13-H ) :   0.9767 B( 12-C , 14-H ) :   0.9742 B( 12-C , 15-H ) :   0.9749
B( 16-S , 17-C ) :   1.1425 B( 16-S , 20-C ) :   1.1436 B( 17-C , 18-C ) :   1.6263
B( 17-C , 33-H ) :   0.9781 B( 18-C , 19-C ) :   1.1895 B( 18-C , 21-H ) :   0.9972
B( 19-C , 20-C ) :   1.6256 B( 19-C , 22-C ) :   1.0505 B( 22-C , 23-H ) :   0.9267
B( 22-C , 24-H ) :   0.9345 B( 22-C , 25-C ) :   1.0615 B( 25-C , 26-H ) :   0.9565
B( 25-C , 27-H ) :   0.9572 B( 25-C , 28-C ) :   1.0788 B( 28-C , 29-H ) :   0.9686
B( 28-C , 30-H ) :   0.9728 B( 28-C , 31-H ) :   0.9729

Dispersion correction           -0.014931736
FINAL SINGLE POINT ENERGY     -1339.862678536968

DIPOLE MOMENT
-------------
                                X             Y             Z
Electronic contribution:     17.89040      -8.59441     -13.53533
Nuclear contribution   :    -18.29337       8.96746      13.66343
                        -----------------------------------------
Total Dipole Moment    :     -0.40298       0.37305       0.12809
                        -----------------------------------------
Magnitude (a.u.)       :      0.56388
Magnitude (Debye)      :      1.43327

Rotational constants in cm-1:     0.020313     0.008613     0.007317
Rotational constants in MHz :   608.964644   258.221441   219.354452

                             ****ORCA TERMINATED NORMALLY****
TOTAL RUN TIME: 0 days 0 hours 0 minutes 22 seconds 31 msec
