                         Program Version 4.2.1 -  RELEASE  -
|  1> ! wB97X-D3 SP def2-SVP
|  2> %pal
|  3> nprocs 24
|  4> end
|  5>
|  6> * xyz 0 1
|  7> S 	 -64.9578 	 8.9374 	 20.2972
|  8> C 	 -63.5766 	 9.96499 	 20.6761
|  9> C 	 -62.5287 	 9.16825 	 21.1222
| 10> C 	 -62.9086 	 7.78956 	 21.2117
| 11> C 	 -64.2232 	 7.4896 	 20.9056
| 12> H 	 -62.1672 	 7.00443 	 21.5729
| 13> C 	 -61.0946 	 9.61448 	 21.2798
| 14> H 	 -60.7402 	 9.47482 	 22.3007
| 15> H 	 -61.0834 	 10.7327 	 20.9748
| 16> C 	 -60.0042 	 8.8794 	 20.3963
| 17> H 	 -60.2016 	 7.86163 	 20.6992
| 18> H 	 -60.2056 	 8.95368 	 19.3331
| 19> C 	 -58.555 	 9.27043 	 20.6737
| 20> H 	 -57.9647 	 8.83995 	 19.9583
| 21> H 	 -58.4835 	 10.3738 	 20.6012
| 22> H 	 -58.2065 	 9.04855 	 21.6738
| 23> S 	 -66.3281 	 6.34813 	 22.2707
| 24> C 	 -66.6414 	 4.67438 	 22.0143
| 25> C 	 -65.7303 	 4.08263 	 21.1955
| 26> C 	 -64.6566 	 4.99481 	 20.854
| 27> C 	 -64.9668 	 6.28254 	 21.2025
| 28> H 	 -65.8083 	 3.064 	 20.8937
| 29> C 	 -63.384 	 4.59943 	 20.0179
| 30> H 	 -62.6153 	 5.29903 	 20.2818
| 31> H 	 -63.6462 	 4.73781 	 18.9948
| 32> C 	 -62.8113 	 3.2235 	 20.2461
| 33> H 	 -63.4429 	 2.55353 	 19.6622
| 34> H 	 -62.7583 	 2.93659 	 21.2838
| 35> C 	 -61.3391 	 3.07139 	 19.7022
| 36> H 	 -61.048 	 3.72527 	 18.8335
| 37> H 	 -61.0622 	 2.03848 	 19.5047
| 38> H 	 -60.6892 	 3.31483 	 20.5518
| 39> H 	 -63.5653 	 10.9426 	 20.1783
| 40> H 	 -67.5398 	 4.15747 	 22.2888
| 41> *
| 42>
| 43>                          ****END OF INPUT****

CARTESIAN COORDINATES (ANGSTROEM)
---------------------------------
  S    -64.957800    8.937400   20.297200
  C    -63.576600    9.964990   20.676100
  C    -62.528700    9.168250   21.122200
  C    -62.908600    7.789560   21.211700
  C    -64.223200    7.489600   20.905600
  H    -62.167200    7.004430   21.572900
  C    -61.094600    9.614480   21.279800
  H    -60.740200    9.474820   22.300700
  H    -61.083400   10.732700   20.974800
  C    -60.004200    8.879400   20.396300
  H    -60.201600    7.861630   20.699200
  H    -60.205600    8.953680   19.333100
  C    -58.555000    9.270430   20.673700
  H    -57.964700    8.839950   19.958300
  H    -58.483500   10.373800   20.601200
  H    -58.206500    9.048550   21.673800
  S    -66.328100    6.348130   22.270700
  C    -66.641400    4.674380   22.014300
  C    -65.730300    4.082630   21.195500
  C    -64.656600    4.994810   20.854000
  C    -64.966800    6.282540   21.202500
  H    -65.808300    3.064000   20.893700
  C    -63.384000    4.599430   20.017900
  H    -62.615300    5.299030   20.281800
  H    -63.646200    4.737810   18.994800
  C    -62.811300    3.223500   20.246100
  H    -63.442900    2.553530   19.662200
  H    -62.758300    2.936590   21.283800
  C    -61.339100    3.071390   19.702200
  H    -61.048000    3.725270   18.833500
  H    -61.062200    2.038480   19.504700
  H    -60.689200    3.314830   20.551800
  H    -63.565300   10.942600   20.178300
  H    -67.539800    4.157470   22.288800

 Total Charge           Charge          ....    0
 Multiplicity           Mult            ....    1
 Number of Electrons    NEL             ....  134
 Basis Dimension        Dim             ....  322

ORBITAL ENERGIES
----------------

  NO   OCC          E(Eh)            E(eV)
   0   2.0000     -88.964331     -2420.8425
   1   2.0000     -88.962439     -2420.7910
   2   2.0000     -10.329129      -281.0699
   3   2.0000     -10.321194      -280.8540
   4   2.0000     -10.318743      -280.7873
   5   2.0000     -10.310393      -280.5601
   6   2.0000     -10.305503      -280.4270
   7   2.0000     -10.303292      -280.3668
   8   2.0000     -10.300803      -280.2991
   9   2.0000     -10.298763      -280.2436
  10   2.0000     -10.290836      -280.0279
  11   2.0000     -10.288529      -279.9651
  12   2.0000     -10.288203      -279.9562
  13   2.0000     -10.287839      -279.9463
  14   2.0000     -10.284952      -279.8678
  15   2.0000     -10.275838      -279.6198
  16   2.0000      -8.079996      -219.8679
  17   2.0000      -8.077566      -219.8017
  18   2.0000      -6.038504      -164.3161
  19   2.0000      -6.036022      -164.2485
  20   2.0000      -6.034418      -164.2049
  21   2.0000      -6.031905      -164.1365
  22   2.0000      -6.030641      -164.1021
  23   2.0000      -6.028454      -164.0426
  24   2.0000      -1.010981       -27.5102
  25   2.0000      -0.987251       -26.8645
  26   2.0000      -0.908644       -24.7255
  27   2.0000      -0.908051       -24.7093
  28   2.0000      -0.873558       -23.7707
  29   2.0000      -0.849714       -23.1219
  30   2.0000      -0.844280       -22.9740
  31   2.0000      -0.814979       -22.1767
  32   2.0000      -0.783578       -21.3222
  33   2.0000      -0.773726       -21.0542
  34   2.0000      -0.708121       -19.2689
  35   2.0000      -0.699596       -19.0370
  36   2.0000      -0.693144       -18.8614
  37   2.0000      -0.654886       -17.8203
  38   2.0000      -0.639638       -17.4054
  39   2.0000      -0.621250       -16.9051
  40   2.0000      -0.596194       -16.2233
  41   2.0000      -0.576390       -15.6844
  42   2.0000      -0.574265       -15.6265
  43   2.0000      -0.557907       -15.1814
  44   2.0000      -0.529986       -14.4217
  45   2.0000      -0.523127       -14.2350
  46   2.0000      -0.520747       -14.1703
  47   2.0000      -0.512584       -13.9481
  48   2.0000      -0.504935       -13.7400
  49   2.0000      -0.498724       -13.5710
  50   2.0000      -0.490600       -13.3499
  51   2.0000      -0.478228       -13.0132
  52   2.0000      -0.470739       -12.8095
  53   2.0000      -0.463170       -12.6035
  54   2.0000      -0.461260       -12.5515
  55   2.0000      -0.455488       -12.3945
  56   2.0000      -0.449857       -12.2412
  57   2.0000      -0.440802       -11.9948
  58   2.0000      -0.437411       -11.9026
  59   2.0000      -0.421190       -11.4612
  60   2.0000      -0.417704       -11.3663
  61   2.0000      -0.413881       -11.2623
  62   2.0000      -0.408419       -11.1137
  63   2.0000      -0.347926        -9.4675
  64   2.0000      -0.331363        -9.0168
  65   2.0000      -0.326028        -8.8717
  66   2.0000      -0.295915        -8.0523
  67   0.0000       0.031749         0.8639
  68   0.0000       0.071362         1.9419
  69   0.0000       0.113199         3.0803
  70   0.0000       0.121261         3.2997
  71   0.0000       0.129978         3.5369

MULLIKEN ATOMIC CHARGES
-----------------------
   0 S :    0.095089
   1 C :   -0.139579
   2 C :   -0.063485
   3 C :    0.003913
   4 C :   -0.175899
   5 H :    0.045143
   6 C :    0.018186
   7 H :    0.036815
   8 H :    0.032697
   9 C :   -0.095389
  10 H :    0.014768
  11 H :    0.034330
  12 C :    0.000955
  13 H :    0.023554
  14 H :    0.026509
  15 H :    0.026747
  16 S :    0.128214
  17 C :   -0.076089
  18 C :   -0.029885
  19 C :   -0.067515
  20 C :   -0.143235
  21 H :    0.011521
  22 C :    0.114052
  23 H :    0.000640
  24 H :    0.038799
  25 C :   -0.082944
  26 H :    0.030808
  27 H :    0.036385
  28 C :   -0.076590
  29 H :    0.047751
  30 H :    0.032495
  31 H :    0.029151
  32 H :    0.072375
  33 H :    0.049714
Sum of atomic charges:   -0.0000000

LOEWDIN ATOMIC CHARGES
----------------------
   0 S :    0.407948
   1 C :   -0.196923
   2 C :   -0.069302
   3 C :   -0.073045
   4 C :   -0.199862
   5 H :    0.037181
   6 C :   -0.035873
   7 H :    0.030759
   8 H :    0.034450
   9 C :   -0.037082
  10 H :    0.016296
  11 H :    0.024128
  12 C :   -0.054440
  13 H :    0.017221
  14 H :    0.029683
  15 H :    0.024456
  16 S :    0.424926
  17 C :   -0.191243
  18 C :   -0.068124
  19 C :   -0.047936
  20 C :   -0.211837
  21 H :    0.027989
  22 C :   -0.024457
  23 H :    0.023022
  24 H :    0.033157
  25 C :   -0.039248
  26 H :    0.021111
  27 H :    0.025576
  28 C :   -0.072253
  29 H :    0.031002
  30 H :    0.025522
  31 H :    0.025893
  32 H :    0.033463
  33 H :    0.027842

  Mayer bond orders larger than 0.100000
B(  0-S ,  1-C ) :   1.1461 B(  0-S ,  4-C ) :   1.1664 B(  1-C ,  2-C ) :   1.5803
B(  1-C ,  4-C ) :   0.1029 B(  1-C , 32-H ) :   0.9637 B(  2-C ,  3-C ) :   1.2767
B(  2-C ,  6-C ) :   1.0315 B(  3-C ,  4-C ) :   1.5551 B(  3-C ,  5-H ) :   0.9667
B(  4-C , 20-C ) :   1.0317 B(  6-C ,  7-H ) :   0.9388 B(  6-C ,  8-H ) :   0.9463
B(  6-C ,  9-C ) :   1.0514 B(  9-C , 10-H ) :   0.9518 B(  9-C , 11-H ) :   0.9596
B(  9-C , 12-C ) :   1.0891 B( 12-C , 13-H ) :   0.9728 B( 12-C , 14-H ) :   0.9737
B( 12-C , 15-H ) :   0.9730 B( 16-S , 17-C ) :   1.1496 B( 16-S , 20-C ) :   1.1446
B( 17-C , 18-C ) :   1.6339 B( 17-C , 33-H ) :   0.9639 B( 18-C , 19-C ) :   1.2204
B( 18-C , 21-H ) :   0.9942 B( 19-C , 20-C ) :   1.6258 B( 19-C , 22-C ) :   1.0261
B( 22-C , 23-H ) :   0.9352 B( 22-C , 24-H ) :   0.9265 B( 22-C , 25-C ) :   1.0737
B( 25-C , 26-H ) :   0.9523 B( 25-C , 27-H ) :   0.9649 B( 25-C , 28-C ) :   1.0743
B( 28-C , 29-H ) :   0.9768 B( 28-C , 30-H ) :   0.9760 B( 28-C , 31-H ) :   0.9768

Dispersion correction           -0.013612365
FINAL SINGLE POINT ENERGY     -1339.873742582773

DIPOLE MOMENT
-------------
                                X             Y             Z
Electronic contribution:    -31.04460       8.00567       6.30565
Nuclear contribution   :     31.70263      -8.37936      -6.54296
                        -----------------------------------------
Total Dipole Moment    :      0.65804      -0.37369      -0.23730
                        -----------------------------------------
Magnitude (a.u.)       :      0.79308
Magnitude (Debye)      :      2.01584

Rotational constants in cm-1:     0.016125     0.009268     0.006326
Rotational constants in MHz :   483.412159   277.835572   189.642079

                             ****ORCA TERMINATED NORMALLY****
TOTAL RUN TIME: 0 days 0 hours 0 minutes 21 seconds 214 msec
