                         Program Version 4.2.1 -  RELEASE  -
|  1> ! wB97X-D3 SP def2-SVP
|  2> %pal
|  3> nprocs 24
|  4> end
|  5>
|  6> * xyz 0 1
|  7> S 	 -110.163 	 53.6267 	 -94.6515
|  8> C 	 -111.113 	 54.1843 	 -96.0014
|  9> C 	 -111.951 	 55.2185 	 -95.6611
| 10> C 	 -111.977 	 55.4633 	 -94.2481
| 11> C 	 -111.043 	 54.7216 	 -93.5886
| 12> H 	 -112.629 	 56.2298 	 -93.8422
| 13> C 	 -112.986 	 55.8257 	 -96.5484
| 14> H 	 -112.565 	 55.9843 	 -97.5384
| 15> H 	 -113.264 	 56.7836 	 -96.182
| 16> C 	 -114.262 	 54.997 	 -96.8137
| 17> H 	 -113.886 	 54.0045 	 -97.175
| 18> H 	 -114.923 	 54.8144 	 -95.988
| 19> C 	 -115.071 	 55.4528 	 -98.012
| 20> H 	 -114.414 	 55.6128 	 -98.8692
| 21> H 	 -115.817 	 54.6595 	 -98.3055
| 22> H 	 -115.727 	 56.3177 	 -97.8275
| 23> S 	 -109.657 	 56.0667 	 -91.6715
| 24> C 	 -110.108 	 55.8849 	 -89.9995
| 25> C 	 -110.909 	 54.7872 	 -89.8626
| 26> C 	 -111.347 	 54.1563 	 -91.0813
| 27> C 	 -110.772 	 54.7852 	 -92.1825
| 28> H 	 -111.245 	 54.5377 	 -88.8732
| 29> C 	 -112.336 	 53.0194 	 -91.0617
| 30> H 	 -112.617 	 52.7823 	 -92.0649
| 31> H 	 -113.242 	 53.592 	 -90.6448
| 32> C 	 -111.887 	 51.8044 	 -90.1793
| 33> H 	 -111.656 	 52.224 	 -89.237
| 34> H 	 -110.929 	 51.3883 	 -90.6357
| 35> C 	 -113.104 	 50.8538 	 -90.0083
| 36> H 	 -113.981 	 51.4578 	 -89.7436
| 37> H 	 -112.919 	 50.0736 	 -89.2521
| 38> H 	 -113.128 	 50.3877 	 -90.9371
| 39> H 	 -111.037 	 53.8115 	 -96.9921
| 40> H 	 -109.641 	 56.4838 	 -89.2673
| 41> *
| 42>
| 43>                          ****END OF INPUT****

CARTESIAN COORDINATES (ANGSTROEM)
---------------------------------
  S    -110.163000   53.626700  -94.651500
  C    -111.113000   54.184300  -96.001400
  C    -111.951000   55.218500  -95.661100
  C    -111.977000   55.463300  -94.248100
  C    -111.043000   54.721600  -93.588600
  H    -112.629000   56.229800  -93.842200
  C    -112.986000   55.825700  -96.548400
  H    -112.565000   55.984300  -97.538400
  H    -113.264000   56.783600  -96.182000
  C    -114.262000   54.997000  -96.813700
  H    -113.886000   54.004500  -97.175000
  H    -114.923000   54.814400  -95.988000
  C    -115.071000   55.452800  -98.012000
  H    -114.414000   55.612800  -98.869200
  H    -115.817000   54.659500  -98.305500
  H    -115.727000   56.317700  -97.827500
  S    -109.657000   56.066700  -91.671500
  C    -110.108000   55.884900  -89.999500
  C    -110.909000   54.787200  -89.862600
  C    -111.347000   54.156300  -91.081300
  C    -110.772000   54.785200  -92.182500
  H    -111.245000   54.537700  -88.873200
  C    -112.336000   53.019400  -91.061700
  H    -112.617000   52.782300  -92.064900
  H    -113.242000   53.592000  -90.644800
  C    -111.887000   51.804400  -90.179300
  H    -111.656000   52.224000  -89.237000
  H    -110.929000   51.388300  -90.635700
  C    -113.104000   50.853800  -90.008300
  H    -113.981000   51.457800  -89.743600
  H    -112.919000   50.073600  -89.252100
  H    -113.128000   50.387700  -90.937100
  H    -111.037000   53.811500  -96.992100
  H    -109.641000   56.483800  -89.267300

 Total Charge           Charge          ....    0
 Multiplicity           Mult            ....    1
 Number of Electrons    NEL             ....  134
 Basis Dimension        Dim             ....  322

ORBITAL ENERGIES
----------------

  NO   OCC          E(Eh)            E(eV)
   0   2.0000     -88.966166     -2420.8925
   1   2.0000     -88.955945     -2420.6143
   2   2.0000     -10.323783      -280.9244
   3   2.0000     -10.320144      -280.8254
   4   2.0000     -10.312190      -280.6090
   5   2.0000     -10.309368      -280.5322
   6   2.0000     -10.303582      -280.3747
   7   2.0000     -10.294967      -280.1403
   8   2.0000     -10.294322      -280.1227
   9   2.0000     -10.292140      -280.0634
  10   2.0000     -10.291767      -280.0532
  11   2.0000     -10.289569      -279.9934
  12   2.0000     -10.287205      -279.9291
  13   2.0000     -10.286613      -279.9130
  14   2.0000     -10.281782      -279.7815
  15   2.0000     -10.277323      -279.6602
  16   2.0000      -8.080874      -219.8918
  17   2.0000      -8.071133      -219.6267
  18   2.0000      -6.039388      -164.3401
  19   2.0000      -6.035388      -164.2312
  20   2.0000      -6.031640      -164.1293
  21   2.0000      -6.029651      -164.0751
  22   2.0000      -6.025545      -163.9634
  23   2.0000      -6.021893      -163.8640
  24   2.0000      -1.005484       -27.3606
  25   2.0000      -0.982607       -26.7381
  26   2.0000      -0.913165       -24.8485
  27   2.0000      -0.906849       -24.6766
  28   2.0000      -0.871072       -23.7031
  29   2.0000      -0.852035       -23.1850
  30   2.0000      -0.848183       -23.0802
  31   2.0000      -0.812697       -22.1146
  32   2.0000      -0.780322       -21.2336
  33   2.0000      -0.768244       -20.9050
  34   2.0000      -0.705865       -19.2076
  35   2.0000      -0.700181       -19.0529
  36   2.0000      -0.697002       -18.9664
  37   2.0000      -0.656756       -17.8712
  38   2.0000      -0.642914       -17.4946
  39   2.0000      -0.622022       -16.9261
  40   2.0000      -0.599208       -16.3053
  41   2.0000      -0.571710       -15.5570
  42   2.0000      -0.566439       -15.4136
  43   2.0000      -0.561270       -15.2729
  44   2.0000      -0.528322       -14.3764
  45   2.0000      -0.520913       -14.1748
  46   2.0000      -0.517795       -14.0899
  47   2.0000      -0.513052       -13.9609
  48   2.0000      -0.506500       -13.7826
  49   2.0000      -0.496914       -13.5217
  50   2.0000      -0.495397       -13.4804
  51   2.0000      -0.472968       -12.8701
  52   2.0000      -0.471524       -12.8308
  53   2.0000      -0.461328       -12.5534
  54   2.0000      -0.457981       -12.4623
  55   2.0000      -0.450833       -12.2678
  56   2.0000      -0.442067       -12.0292
  57   2.0000      -0.437866       -11.9150
  58   2.0000      -0.435834       -11.8597
  59   2.0000      -0.428275       -11.6539
  60   2.0000      -0.423927       -11.5357
  61   2.0000      -0.412862       -11.2346
  62   2.0000      -0.409820       -11.1518
  63   2.0000      -0.336849        -9.1661
  64   2.0000      -0.323502        -8.8029
  65   2.0000      -0.314487        -8.5576
  66   2.0000      -0.313107        -8.5201
  67   0.0000       0.047606         1.2954
  68   0.0000       0.056470         1.5366
  69   0.0000       0.114870         3.1258
  70   0.0000       0.122981         3.3465
  71   0.0000       0.126071         3.4306

MULLIKEN ATOMIC CHARGES
-----------------------
   0 S :    0.121526
   1 C :   -0.117209
   2 C :   -0.075608
   3 C :    0.050166
   4 C :   -0.174633
   5 H :    0.016957
   6 C :    0.092390
   7 H :    0.010539
   8 H :    0.008506
   9 C :   -0.064284
  10 H :    0.020711
  11 H :    0.028663
  12 C :   -0.075415
  13 H :    0.031210
  14 H :    0.037702
  15 H :    0.034431
  16 S :    0.092080
  17 C :   -0.082711
  18 C :   -0.034520
  19 C :   -0.003542
  20 C :   -0.193048
  21 H :    0.013257
  22 C :    0.048427
  23 H :    0.018198
  24 H :    0.042763
  25 C :   -0.090221
  26 H :    0.017212
  27 H :    0.054621
  28 C :   -0.011023
  29 H :    0.038546
  30 H :    0.038543
  31 H :    0.025060
  32 H :    0.032889
  33 H :    0.047818
Sum of atomic charges:   -0.0000000

LOEWDIN ATOMIC CHARGES
----------------------
   0 S :    0.405805
   1 C :   -0.190142
   2 C :   -0.065860
   3 C :   -0.047539
   4 C :   -0.200364
   5 H :    0.035980
   6 C :   -0.030407
   7 H :    0.030322
   8 H :    0.022544
   9 C :   -0.039920
  10 H :    0.027875
  11 H :    0.020490
  12 C :   -0.071731
  13 H :    0.022882
  14 H :    0.033078
  15 H :    0.022335
  16 S :    0.391231
  17 C :   -0.173707
  18 C :   -0.075751
  19 C :   -0.050286
  20 C :   -0.203444
  21 H :    0.025394
  22 C :   -0.032760
  23 H :    0.022599
  24 H :    0.043599
  25 C :   -0.033240
  26 H :    0.012502
  27 H :    0.036877
  28 C :   -0.057513
  29 H :    0.030210
  30 H :    0.028012
  31 H :    0.019290
  32 H :    0.020437
  33 H :    0.021202

  Mayer bond orders larger than 0.100000
B(  0-S ,  1-C ) :   1.1380 B(  0-S ,  4-C ) :   1.1417 B(  1-C ,  2-C ) :   1.6152
B(  1-C , 32-H ) :   0.9722 B(  2-C ,  3-C ) :   1.2287 B(  2-C ,  6-C ) :   1.0554
B(  3-C ,  4-C ) :   1.5966 B(  3-C ,  5-H ) :   0.9979 B(  4-C , 20-C ) :   1.0130
B(  6-C ,  7-H ) :   0.9301 B(  6-C ,  8-H ) :   0.9330 B(  6-C ,  9-C ) :   1.0608
B(  9-C , 10-H ) :   0.9544 B(  9-C , 11-H ) :   0.9568 B(  9-C , 12-C ) :   1.0857
B( 12-C , 13-H ) :   0.9728 B( 12-C , 14-H ) :   0.9735 B( 12-C , 15-H ) :   0.9749
B( 16-S , 17-C ) :   1.1564 B( 16-S , 20-C ) :   1.1406 B( 17-C , 18-C ) :   1.6147
B( 17-C , 33-H ) :   0.9754 B( 18-C , 19-C ) :   1.2143 B( 18-C , 21-H ) :   0.9898
B( 19-C , 20-C ) :   1.6092 B( 19-C , 22-C ) :   1.0372 B( 22-C , 23-H ) :   0.9347
B( 22-C , 24-H ) :   0.9345 B( 22-C , 25-C ) :   1.0435 B( 25-C , 26-H ) :   0.9580
B( 25-C , 27-H ) :   0.9575 B( 25-C , 28-C ) :   1.0677 B( 28-C , 29-H ) :   0.9738
B( 28-C , 30-H ) :   0.9759 B( 28-C , 31-H ) :   0.9780

Dispersion correction           -0.013567356
FINAL SINGLE POINT ENERGY     -1339.879792317606

DIPOLE MOMENT
-------------
                                X             Y             Z
Electronic contribution:     23.14088       8.50056       4.90689
Nuclear contribution   :    -23.76518      -8.60217      -4.83338
                        -----------------------------------------
Total Dipole Moment    :     -0.62430      -0.10161       0.07351
                        -----------------------------------------
Magnitude (a.u.)       :      0.63678
Magnitude (Debye)      :      1.61855

Rotational constants in cm-1:     0.018355     0.007534     0.006384
Rotational constants in MHz :   550.261102   225.859592   191.386715

                             ****ORCA TERMINATED NORMALLY****
TOTAL RUN TIME: 0 days 0 hours 0 minutes 20 seconds 915 msec
