                         Program Version 4.2.1 -  RELEASE  -
|  1> ! wB97X-D3 SP def2-SVP
|  2> %pal
|  3> nprocs 24
|  4> end
|  5>
|  6> * xyz 0 1
|  7> S 	 9.2868 	 -16.2147 	 -111.826
|  8> C 	 7.91694 	 -16.266 	 -112.903
|  9> C 	 7.12899 	 -17.3831 	 -112.514
| 10> C 	 7.54828 	 -18.0363 	 -111.314
| 11> C 	 8.78808 	 -17.5866 	 -110.886
| 12> H 	 6.93792 	 -18.7978 	 -110.849
| 13> C 	 5.8022 	 -17.8056 	 -113.105
| 14> H 	 5.61216 	 -17.232 	 -114.03
| 15> H 	 5.02067 	 -17.364 	 -112.445
| 16> C 	 5.58217 	 -19.2556 	 -113.185
| 17> H 	 6.4272 	 -19.8918 	 -113.651
| 18> H 	 5.4195 	 -19.5313 	 -112.16
| 19> C 	 4.2765 	 -19.7243 	 -113.931
| 20> H 	 4.23837 	 -20.7849 	 -114.036
| 21> H 	 3.43651 	 -19.394 	 -113.369
| 22> H 	 4.24843 	 -19.3696 	 -115.016
| 23> S 	 10.3407 	 -19.4272 	 -109.563
| 24> C 	 10.9092 	 -19.0485 	 -107.916
| 25> C 	 10.5865 	 -17.7546 	 -107.517
| 26> C 	 9.75866 	 -17.0971 	 -108.504
| 27> C 	 9.46153 	 -17.9 	 -109.641
| 28> H 	 10.8398 	 -17.3398 	 -106.581
| 29> C 	 9.30819 	 -15.6525 	 -108.271
| 30> H 	 8.79912 	 -15.3582 	 -109.203
| 31> H 	 10.2257 	 -15.0853 	 -108.044
| 32> C 	 8.2325 	 -15.5816 	 -107.17
| 33> H 	 7.88458 	 -14.5774 	 -107.118
| 34> H 	 8.68624 	 -15.7014 	 -106.144
| 35> C 	 7.06776 	 -16.5719 	 -107.222
| 36> H 	 7.33866 	 -17.5645 	 -106.88
| 37> H 	 6.80225 	 -16.7492 	 -108.248
| 38> H 	 6.16443 	 -16.5243 	 -106.54
| 39> H 	 7.76754 	 -15.4843 	 -113.683
| 40> H 	 11.4325 	 -19.7248 	 -107.237
| 41> *
| 42>
| 43>                          ****END OF INPUT****

CARTESIAN COORDINATES (ANGSTROEM)
---------------------------------
  S      9.286800  -16.214700  -111.826000
  C      7.916940  -16.266000  -112.903000
  C      7.128990  -17.383100  -112.514000
  C      7.548280  -18.036300  -111.314000
  C      8.788080  -17.586600  -110.886000
  H      6.937920  -18.797800  -110.849000
  C      5.802200  -17.805600  -113.105000
  H      5.612160  -17.232000  -114.030000
  H      5.020670  -17.364000  -112.445000
  C      5.582170  -19.255600  -113.185000
  H      6.427200  -19.891800  -113.651000
  H      5.419500  -19.531300  -112.160000
  C      4.276500  -19.724300  -113.931000
  H      4.238370  -20.784900  -114.036000
  H      3.436510  -19.394000  -113.369000
  H      4.248430  -19.369600  -115.016000
  S     10.340700  -19.427200  -109.563000
  C     10.909200  -19.048500  -107.916000
  C     10.586500  -17.754600  -107.517000
  C      9.758660  -17.097100  -108.504000
  C      9.461530  -17.900000  -109.641000
  H     10.839800  -17.339800  -106.581000
  C      9.308190  -15.652500  -108.271000
  H      8.799120  -15.358200  -109.203000
  H     10.225700  -15.085300  -108.044000
  C      8.232500  -15.581600  -107.170000
  H      7.884580  -14.577400  -107.118000
  H      8.686240  -15.701400  -106.144000
  C      7.067760  -16.571900  -107.222000
  H      7.338660  -17.564500  -106.880000
  H      6.802250  -16.749200  -108.248000
  H      6.164430  -16.524300  -106.540000
  H      7.767540  -15.484300  -113.683000
  H     11.432500  -19.724800  -107.237000

 Total Charge           Charge          ....    0
 Multiplicity           Mult            ....    1
 Number of Electrons    NEL             ....  134
 Basis Dimension        Dim             ....  322

ORBITAL ENERGIES
----------------

  NO   OCC          E(Eh)            E(eV)
   0   2.0000     -88.966602     -2420.9043
   1   2.0000     -88.966423     -2420.8994
   2   2.0000     -10.328904      -281.0638
   3   2.0000     -10.327546      -281.0268
   4   2.0000     -10.323412      -280.9143
   5   2.0000     -10.322171      -280.8806
   6   2.0000     -10.306912      -280.4653
   7   2.0000     -10.305714      -280.4327
   8   2.0000     -10.295730      -280.1611
   9   2.0000     -10.294542      -280.1287
  10   2.0000     -10.293971      -280.1132
  11   2.0000     -10.290683      -280.0237
  12   2.0000     -10.290507      -280.0189
  13   2.0000     -10.286473      -279.9092
  14   2.0000     -10.281028      -279.7610
  15   2.0000     -10.273905      -279.5672
  16   2.0000      -8.081019      -219.8957
  17   2.0000      -8.080363      -219.8779
  18   2.0000      -6.039448      -164.3417
  19   2.0000      -6.038987      -164.3292
  20   2.0000      -6.035256      -164.2277
  21   2.0000      -6.034981      -164.2202
  22   2.0000      -6.032140      -164.1429
  23   2.0000      -6.031083      -164.1141
  24   2.0000      -1.003704       -27.3122
  25   2.0000      -0.977400       -26.5964
  26   2.0000      -0.916948       -24.9514
  27   2.0000      -0.904413       -24.6103
  28   2.0000      -0.867792       -23.6138
  29   2.0000      -0.847545       -23.0629
  30   2.0000      -0.839284       -22.8381
  31   2.0000      -0.812809       -22.1177
  32   2.0000      -0.782648       -21.2969
  33   2.0000      -0.768848       -20.9214
  34   2.0000      -0.710111       -19.3231
  35   2.0000      -0.696352       -18.9487
  36   2.0000      -0.683729       -18.6052
  37   2.0000      -0.662511       -18.0278
  38   2.0000      -0.640177       -17.4201
  39   2.0000      -0.623454       -16.9651
  40   2.0000      -0.585236       -15.9251
  41   2.0000      -0.573162       -15.5965
  42   2.0000      -0.563876       -15.3439
  43   2.0000      -0.555981       -15.1290
  44   2.0000      -0.534932       -14.5562
  45   2.0000      -0.524656       -14.2766
  46   2.0000      -0.514684       -14.0053
  47   2.0000      -0.511950       -13.9309
  48   2.0000      -0.501882       -13.6569
  49   2.0000      -0.497529       -13.5385
  50   2.0000      -0.492880       -13.4119
  51   2.0000      -0.476030       -12.9534
  52   2.0000      -0.475501       -12.9390
  53   2.0000      -0.465488       -12.6666
  54   2.0000      -0.452358       -12.3093
  55   2.0000      -0.449010       -12.2182
  56   2.0000      -0.446873       -12.1600
  57   2.0000      -0.436658       -11.8821
  58   2.0000      -0.431579       -11.7439
  59   2.0000      -0.416977       -11.3465
  60   2.0000      -0.415906       -11.3174
  61   2.0000      -0.408970       -11.1286
  62   2.0000      -0.400139       -10.8883
  63   2.0000      -0.338384        -9.2079
  64   2.0000      -0.332833        -9.0569
  65   2.0000      -0.319333        -8.6895
  66   2.0000      -0.299367        -8.1462
  67   0.0000       0.031575         0.8592
  68   0.0000       0.063852         1.7375
  69   0.0000       0.108215         2.9447
  70   0.0000       0.112101         3.0504
  71   0.0000       0.129587         3.5262

MULLIKEN ATOMIC CHARGES
-----------------------
   0 S :    0.112229
   1 C :   -0.150879
   2 C :   -0.085713
   3 C :    0.034475
   4 C :   -0.149126
   5 H :    0.022696
   6 C :    0.079158
   7 H :    0.010167
   8 H :    0.036345
   9 C :   -0.129818
  10 H :    0.054648
  11 H :    0.029894
  12 C :   -0.037752
  13 H :    0.029277
  14 H :    0.025707
  15 H :    0.038239
  16 S :    0.110591
  17 C :   -0.094829
  18 C :   -0.009630
  19 C :   -0.069383
  20 C :   -0.175127
  21 H :    0.006695
  22 C :    0.088588
  23 H :    0.030268
  24 H :    0.049427
  25 C :   -0.074819
  26 H :    0.025088
  27 H :    0.021317
  28 C :   -0.039105
  29 H :    0.015874
  30 H :    0.017998
  31 H :    0.041355
  32 H :    0.075305
  33 H :    0.060841
Sum of atomic charges:   -0.0000000

LOEWDIN ATOMIC CHARGES
----------------------
   0 S :    0.432028
   1 C :   -0.212766
   2 C :   -0.060789
   3 C :   -0.056262
   4 C :   -0.207608
   5 H :    0.033719
   6 C :   -0.044439
   7 H :    0.025950
   8 H :    0.039871
   9 C :   -0.049967
  10 H :    0.036728
  11 H :    0.021288
  12 C :   -0.061702
  13 H :    0.022291
  14 H :    0.018346
  15 H :    0.031858
  16 S :    0.394485
  17 C :   -0.174495
  18 C :   -0.064071
  19 C :   -0.047759
  20 C :   -0.211609
  21 H :    0.025465
  22 C :   -0.030097
  23 H :    0.024632
  24 H :    0.040782
  25 C :   -0.044429
  26 H :    0.019182
  27 H :    0.023519
  28 C :   -0.079846
  29 H :    0.025234
  30 H :    0.020863
  31 H :    0.038143
  32 H :    0.040189
  33 H :    0.031268

  Mayer bond orders larger than 0.100000
B(  0-S ,  1-C ) :   1.1533 B(  0-S ,  4-C ) :   1.1696 B(  1-C ,  2-C ) :   1.5544
B(  1-C ,  4-C ) :   0.1008 B(  1-C , 32-H ) :   0.9716 B(  2-C ,  3-C ) :   1.2699
B(  2-C ,  6-C ) :   1.0331 B(  3-C ,  4-C ) :   1.5407 B(  3-C ,  5-H ) :   0.9922
B(  4-C , 20-C ) :   1.0173 B(  6-C ,  7-H ) :   0.9426 B(  6-C ,  8-H ) :   0.9307
B(  6-C ,  9-C ) :   1.0551 B(  9-C , 10-H ) :   0.9627 B(  9-C , 11-H ) :   0.9448
B(  9-C , 12-C ) :   1.0894 B( 12-C , 13-H ) :   0.9762 B( 12-C , 14-H ) :   0.9750
B( 12-C , 15-H ) :   0.9754 B( 16-S , 17-C ) :   1.1526 B( 16-S , 20-C ) :   1.1366
B( 17-C , 18-C ) :   1.6086 B( 17-C , 20-C ) :   0.1006 B( 17-C , 33-H ) :   0.9649
B( 18-C , 19-C ) :   1.2332 B( 18-C , 21-H ) :   0.9950 B( 19-C , 20-C ) :   1.5851
B( 19-C , 22-C ) :   1.0392 B( 22-C , 23-H ) :   0.9242 B( 22-C , 24-H ) :   0.9399
B( 22-C , 25-C ) :   1.0710 B( 25-C , 26-H ) :   0.9603 B( 25-C , 27-H ) :   0.9548
B( 25-C , 28-C ) :   1.0639 B( 28-C , 29-H ) :   0.9630 B( 28-C , 30-H ) :   0.9759
B( 28-C , 31-H ) :   0.9735

Dispersion correction           -0.014957050
FINAL SINGLE POINT ENERGY     -1339.866904943394

DIPOLE MOMENT
-------------
                                X             Y             Z
Electronic contribution:     22.29767      -0.52606      -1.55431
Nuclear contribution   :    -22.76969       0.65380       1.76963
                        -----------------------------------------
Total Dipole Moment    :     -0.47203       0.12774       0.21532
                        -----------------------------------------
Magnitude (a.u.)       :      0.53431
Magnitude (Debye)      :      1.35811

Rotational constants in cm-1:     0.020229     0.007836     0.007434
Rotational constants in MHz :   606.450062   234.924481   222.856404

                             ****ORCA TERMINATED NORMALLY****
TOTAL RUN TIME: 0 days 0 hours 0 minutes 20 seconds 843 msec
