                         Program Version 4.2.1 -  RELEASE  -
|  1> ! wB97X-D3 SP def2-SVP
|  2> %pal
|  3> nprocs 24
|  4> end
|  5>
|  6> * xyz 0 1
|  7> S 	 -69.0633 	 -43.6606 	 -92.5492
|  8> C 	 -68.3851 	 -42.2879 	 -93.3049
|  9> C 	 -68.9973 	 -41.9536 	 -94.5729
| 10> C 	 -70.0286 	 -42.929 	 -94.8591
| 11> C 	 -70.192 	 -43.9266 	 -93.9098
| 12> H 	 -70.7688 	 -43.0067 	 -95.6189
| 13> C 	 -68.6712 	 -40.7363 	 -95.4647
| 14> H 	 -69.2658 	 -39.8997 	 -95.0889
| 15> H 	 -69.1563 	 -40.886 	 -96.4327
| 16> C 	 -67.2222 	 -40.2531 	 -95.6599
| 17> H 	 -67.1731 	 -39.2608 	 -96.0481
| 18> H 	 -66.7483 	 -40.2949 	 -94.6929
| 19> C 	 -66.3287 	 -41.0864 	 -96.6799
| 20> H 	 -66.6536 	 -40.9174 	 -97.6888
| 21> H 	 -65.2496 	 -40.7687 	 -96.541
| 22> H 	 -66.4171 	 -42.1917 	 -96.4343
| 23> S 	 -70.6975 	 -46.3918 	 -92.9346
| 24> C 	 -72.1361 	 -47.2857 	 -93.4237
| 25> C 	 -72.9023 	 -46.6631 	 -94.3461
| 26> C 	 -72.367 	 -45.3837 	 -94.709
| 27> C 	 -71.2017 	 -45.0311 	 -93.9173
| 28> H 	 -73.8724 	 -47.1719 	 -94.7107
| 29> C 	 -73.1207 	 -44.367 	 -95.5698
| 30> H 	 -72.7323 	 -43.3326 	 -95.512
| 31> H 	 -74.1542 	 -44.3406 	 -95.309
| 32> C 	 -72.9074 	 -44.7172 	 -96.9988
| 33> H 	 -73.3485 	 -45.6583 	 -97.2123
| 34> H 	 -71.8136 	 -44.7905 	 -97.2307
| 35> C 	 -73.5428 	 -43.6248 	 -97.8482
| 36> H 	 -72.8269 	 -42.8607 	 -98.0494
| 37> H 	 -74.3735 	 -43.0636 	 -97.1968
| 38> H 	 -73.8299 	 -43.9916 	 -98.8858
| 39> H 	 -67.5957 	 -41.6899 	 -92.8667
| 40> H 	 -72.3296 	 -48.3087 	 -93.0607
| 41> *
| 42>
| 43>                          ****END OF INPUT****

CARTESIAN COORDINATES (ANGSTROEM)
---------------------------------
  S    -69.063300  -43.660600  -92.549200
  C    -68.385100  -42.287900  -93.304900
  C    -68.997300  -41.953600  -94.572900
  C    -70.028600  -42.929000  -94.859100
  C    -70.192000  -43.926600  -93.909800
  H    -70.768800  -43.006700  -95.618900
  C    -68.671200  -40.736300  -95.464700
  H    -69.265800  -39.899700  -95.088900
  H    -69.156300  -40.886000  -96.432700
  C    -67.222200  -40.253100  -95.659900
  H    -67.173100  -39.260800  -96.048100
  H    -66.748300  -40.294900  -94.692900
  C    -66.328700  -41.086400  -96.679900
  H    -66.653600  -40.917400  -97.688800
  H    -65.249600  -40.768700  -96.541000
  H    -66.417100  -42.191700  -96.434300
  S    -70.697500  -46.391800  -92.934600
  C    -72.136100  -47.285700  -93.423700
  C    -72.902300  -46.663100  -94.346100
  C    -72.367000  -45.383700  -94.709000
  C    -71.201700  -45.031100  -93.917300
  H    -73.872400  -47.171900  -94.710700
  C    -73.120700  -44.367000  -95.569800
  H    -72.732300  -43.332600  -95.512000
  H    -74.154200  -44.340600  -95.309000
  C    -72.907400  -44.717200  -96.998800
  H    -73.348500  -45.658300  -97.212300
  H    -71.813600  -44.790500  -97.230700
  C    -73.542800  -43.624800  -97.848200
  H    -72.826900  -42.860700  -98.049400
  H    -74.373500  -43.063600  -97.196800
  H    -73.829900  -43.991600  -98.885800
  H    -67.595700  -41.689900  -92.866700
  H    -72.329600  -48.308700  -93.060700

 Total Charge           Charge          ....    0
 Multiplicity           Mult            ....    1
 Number of Electrons    NEL             ....  134
 Basis Dimension        Dim             ....  322

ORBITAL ENERGIES
----------------

  NO   OCC          E(Eh)            E(eV)
   0   2.0000     -88.971261     -2421.0311
   1   2.0000     -88.966336     -2420.8971
   2   2.0000     -10.338209      -281.3170
   3   2.0000     -10.335674      -281.2480
   4   2.0000     -10.319910      -280.8190
   5   2.0000     -10.317598      -280.7561
   6   2.0000     -10.316433      -280.7244
   7   2.0000     -10.313809      -280.6530
   8   2.0000     -10.303583      -280.3748
   9   2.0000     -10.298394      -280.2336
  10   2.0000     -10.296158      -280.1727
  11   2.0000     -10.290959      -280.0312
  12   2.0000     -10.289873      -280.0017
  13   2.0000     -10.289038      -279.9790
  14   2.0000     -10.286088      -279.8987
  15   2.0000     -10.281368      -279.7702
  16   2.0000      -8.085689      -220.0228
  17   2.0000      -8.081046      -219.8964
  18   2.0000      -6.044162      -164.4700
  19   2.0000      -6.040211      -164.3625
  20   2.0000      -6.039511      -164.3434
  21   2.0000      -6.036539      -164.2626
  22   2.0000      -6.035615      -164.2374
  23   2.0000      -6.031814      -164.1340
  24   2.0000      -1.001594       -27.2548
  25   2.0000      -0.979904       -26.6645
  26   2.0000      -0.922361       -25.0987
  27   2.0000      -0.903349       -24.5814
  28   2.0000      -0.867410       -23.6034
  29   2.0000      -0.853074       -23.2133
  30   2.0000      -0.841771       -22.9058
  31   2.0000      -0.812709       -22.1149
  32   2.0000      -0.778753       -21.1909
  33   2.0000      -0.765446       -20.8288
  34   2.0000      -0.705054       -19.1855
  35   2.0000      -0.698072       -18.9955
  36   2.0000      -0.689251       -18.7555
  37   2.0000      -0.662742       -18.0341
  38   2.0000      -0.638342       -17.3702
  39   2.0000      -0.614696       -16.7267
  40   2.0000      -0.597274       -16.2527
  41   2.0000      -0.574951       -15.6452
  42   2.0000      -0.573606       -15.6086
  43   2.0000      -0.543491       -14.7891
  44   2.0000      -0.535848       -14.5812
  45   2.0000      -0.523360       -14.2413
  46   2.0000      -0.514589       -14.0027
  47   2.0000      -0.507640       -13.8136
  48   2.0000      -0.498040       -13.5524
  49   2.0000      -0.496377       -13.5071
  50   2.0000      -0.490010       -13.3338
  51   2.0000      -0.479240       -13.0408
  52   2.0000      -0.472384       -12.8542
  53   2.0000      -0.464960       -12.6522
  54   2.0000      -0.458196       -12.4681
  55   2.0000      -0.451259       -12.2794
  56   2.0000      -0.443082       -12.0569
  57   2.0000      -0.440014       -11.9734
  58   2.0000      -0.435124       -11.8403
  59   2.0000      -0.425650       -11.5825
  60   2.0000      -0.422085       -11.4855
  61   2.0000      -0.417407       -11.3582
  62   2.0000      -0.408517       -11.1163
  63   2.0000      -0.362532        -9.8650
  64   2.0000      -0.337774        -9.1913
  65   2.0000      -0.325623        -8.8606
  66   2.0000      -0.278328        -7.5737
  67   0.0000       0.018816         0.5120
  68   0.0000       0.079150         2.1538
  69   0.0000       0.096865         2.6358
  70   0.0000       0.116454         3.1689
  71   0.0000       0.127612         3.4725

MULLIKEN ATOMIC CHARGES
-----------------------
   0 S :    0.118948
   1 C :   -0.125068
   2 C :   -0.078526
   3 C :    0.019387
   4 C :   -0.124841
   5 H :   -0.028139
   6 C :    0.061444
   7 H :    0.043295
   8 H :    0.014819
   9 C :   -0.054968
  10 H :    0.027522
  11 H :    0.024184
  12 C :   -0.094339
  13 H :    0.034276
  14 H :    0.047643
  15 H :    0.051129
  16 S :    0.082036
  17 C :   -0.093671
  18 C :   -0.044834
  19 C :   -0.051309
  20 C :   -0.119743
  21 H :    0.055761
  22 C :    0.029047
  23 H :    0.026657
  24 H :    0.031471
  25 C :   -0.081170
  26 H :    0.018658
  27 H :    0.043740
  28 C :   -0.069295
  29 H :    0.022936
  30 H :    0.047258
  31 H :    0.047392
  32 H :    0.055966
  33 H :    0.062331
Sum of atomic charges:   -0.0000000

LOEWDIN ATOMIC CHARGES
----------------------
   0 S :    0.410416
   1 C :   -0.214363
   2 C :   -0.055709
   3 C :   -0.066614
   4 C :   -0.185551
   5 H :    0.022929
   6 C :   -0.038774
   7 H :    0.039344
   8 H :    0.029156
   9 C :   -0.036497
  10 H :    0.023617
  11 H :    0.020089
  12 C :   -0.070823
  13 H :    0.018055
  14 H :    0.033072
  15 H :    0.032734
  16 S :    0.395935
  17 C :   -0.183546
  18 C :   -0.082757
  19 C :   -0.053849
  20 C :   -0.187458
  21 H :    0.053086
  22 C :   -0.031960
  23 H :    0.029387
  24 H :    0.027204
  25 C :   -0.046235
  26 H :    0.015240
  27 H :    0.030994
  28 C :   -0.077182
  29 H :    0.017355
  30 H :    0.039516
  31 H :    0.033858
  32 H :    0.026789
  33 H :    0.032541

  Mayer bond orders larger than 0.100000
B(  0-S ,  1-C ) :   1.1669 B(  0-S ,  4-C ) :   1.1363 B(  1-C ,  2-C ) :   1.5690
B(  1-C , 32-H ) :   0.9674 B(  2-C ,  3-C ) :   1.2428 B(  2-C ,  6-C ) :   1.0145
B(  3-C ,  4-C ) :   1.5973 B(  3-C ,  5-H ) :   0.9892 B(  4-C , 20-C ) :   1.0518
B(  6-C ,  7-H ) :   0.9315 B(  6-C ,  8-H ) :   0.9450 B(  6-C ,  9-C ) :   1.0714
B(  9-C , 10-H ) :   0.9545 B(  9-C , 11-H ) :   0.9596 B(  9-C , 12-C ) :   1.0698
B( 12-C , 13-H ) :   0.9780 B( 12-C , 14-H ) :   0.9764 B( 12-C , 15-H ) :   0.9797
B( 16-S , 17-C ) :   1.1483 B( 16-S , 20-C ) :   1.1468 B( 17-C , 18-C ) :   1.6371
B( 17-C , 33-H ) :   0.9604 B( 18-C , 19-C ) :   1.2407 B( 18-C , 21-H ) :   0.9734
B( 19-C , 20-C ) :   1.5625 B( 19-C , 22-C ) :   1.0288 B( 22-C , 23-H ) :   0.9501
B( 22-C , 24-H ) :   0.9378 B( 22-C , 25-C ) :   1.0529 B( 25-C , 26-H ) :   0.9593
B( 25-C , 27-H ) :   0.9544 B( 25-C , 28-C ) :   1.0662 B( 28-C , 29-H ) :   0.9724
B( 28-C , 30-H ) :   0.9690 B( 28-C , 31-H ) :   0.9722

Dispersion correction           -0.013676364
FINAL SINGLE POINT ENERGY     -1339.859995728184

DIPOLE MOMENT
-------------
                                X             Y             Z
Electronic contribution:      1.03627     -16.55511      24.52639
Nuclear contribution   :     -1.29484      16.86712     -25.01330
                        -----------------------------------------
Total Dipole Moment    :     -0.25857       0.31201      -0.48691
                        -----------------------------------------
Magnitude (a.u.)       :      0.63347
Magnitude (Debye)      :      1.61016

Rotational constants in cm-1:     0.018028     0.008514     0.006193
Rotational constants in MHz :   540.477803   255.230729   185.665309

                             ****ORCA TERMINATED NORMALLY****
TOTAL RUN TIME: 0 days 0 hours 0 minutes 21 seconds 181 msec
