                         Program Version 4.2.1 -  RELEASE  -
|  1> ! wB97X-D3 SP def2-SVP
|  2> %pal
|  3> nprocs 24
|  4> end
|  5>
|  6> * xyz 0 1
|  7> S 	 -114.988 	 22.9892 	 -115.493
|  8> C 	 -116.449 	 22.7536 	 -116.444
|  9> C 	 -117.44 	 23.631 	 -116.041
| 10> C 	 -117.014 	 24.5291 	 -114.935
| 11> C 	 -115.669 	 24.333 	 -114.56
| 12> H 	 -117.456 	 25.4102 	 -114.581
| 13> C 	 -118.777 	 23.7681 	 -116.734
| 14> H 	 -118.667 	 23.076 	 -117.572
| 15> H 	 -118.793 	 24.7198 	 -117.227
| 16> C 	 -120.055 	 23.7374 	 -115.812
| 17> H 	 -119.998 	 22.8494 	 -115.217
| 18> H 	 -120.099 	 24.4942 	 -114.972
| 19> C 	 -121.435 	 23.801 	 -116.616
| 20> H 	 -121.568 	 24.6937 	 -117.329
| 21> H 	 -121.55 	 22.9007 	 -117.198
| 22> H 	 -122.251 	 23.7463 	 -115.853
| 23> S 	 -113.281 	 25.5745 	 -114.283
| 24> C 	 -112.948 	 26.6254 	 -113.004
| 25> C 	 -113.781 	 26.297 	 -111.937
| 26> C 	 -114.869 	 25.4537 	 -112.332
| 27> C 	 -114.841 	 25.1268 	 -113.666
| 28> H 	 -113.657 	 26.6426 	 -110.868
| 29> C 	 -115.945 	 24.8622 	 -111.47
| 30> H 	 -116.612 	 24.1789 	 -111.958
| 31> H 	 -116.648 	 25.6829 	 -111.133
| 32> C 	 -115.332 	 24.21 	 -110.255
| 33> H 	 -116.128 	 23.8367 	 -109.63
| 34> H 	 -114.834 	 24.9298 	 -109.626
| 35> C 	 -114.421 	 22.9918 	 -110.603
| 36> H 	 -113.583 	 23.2725 	 -111.34
| 37> H 	 -115.04 	 22.3342 	 -111.139
| 38> H 	 -114.117 	 22.5768 	 -109.768
| 39> H 	 -116.678 	 22.0606 	 -117.2
| 40> H 	 -112.032 	 27.3035 	 -112.896
| 41> *
| 42>
| 43>                          ****END OF INPUT****

CARTESIAN COORDINATES (ANGSTROEM)
---------------------------------
  S    -114.988000   22.989200  -115.493000
  C    -116.449000   22.753600  -116.444000
  C    -117.440000   23.631000  -116.041000
  C    -117.014000   24.529100  -114.935000
  C    -115.669000   24.333000  -114.560000
  H    -117.456000   25.410200  -114.581000
  C    -118.777000   23.768100  -116.734000
  H    -118.667000   23.076000  -117.572000
  H    -118.793000   24.719800  -117.227000
  C    -120.055000   23.737400  -115.812000
  H    -119.998000   22.849400  -115.217000
  H    -120.099000   24.494200  -114.972000
  C    -121.435000   23.801000  -116.616000
  H    -121.568000   24.693700  -117.329000
  H    -121.550000   22.900700  -117.198000
  H    -122.251000   23.746300  -115.853000
  S    -113.281000   25.574500  -114.283000
  C    -112.948000   26.625400  -113.004000
  C    -113.781000   26.297000  -111.937000
  C    -114.869000   25.453700  -112.332000
  C    -114.841000   25.126800  -113.666000
  H    -113.657000   26.642600  -110.868000
  C    -115.945000   24.862200  -111.470000
  H    -116.612000   24.178900  -111.958000
  H    -116.648000   25.682900  -111.133000
  C    -115.332000   24.210000  -110.255000
  H    -116.128000   23.836700  -109.630000
  H    -114.834000   24.929800  -109.626000
  C    -114.421000   22.991800  -110.603000
  H    -113.583000   23.272500  -111.340000
  H    -115.040000   22.334200  -111.139000
  H    -114.117000   22.576800  -109.768000
  H    -116.678000   22.060600  -117.200000
  H    -112.032000   27.303500  -112.896000

 Total Charge           Charge          ....    0
 Multiplicity           Mult            ....    1
 Number of Electrons    NEL             ....  134
 Basis Dimension        Dim             ....  322

ORBITAL ENERGIES
----------------

  NO   OCC          E(Eh)            E(eV)
   0   2.0000     -88.966256     -2420.8949
   1   2.0000     -88.961644     -2420.7694
   2   2.0000     -10.336383      -281.2673
   3   2.0000     -10.324243      -280.9369
   4   2.0000     -10.322496      -280.8894
   5   2.0000     -10.312381      -280.6141
   6   2.0000     -10.306474      -280.4534
   7   2.0000     -10.302409      -280.3428
   8   2.0000     -10.301674      -280.3228
   9   2.0000     -10.299251      -280.2569
  10   2.0000     -10.296801      -280.1902
  11   2.0000     -10.294661      -280.1320
  12   2.0000     -10.292450      -280.0718
  13   2.0000     -10.288220      -279.9567
  14   2.0000     -10.279883      -279.7298
  15   2.0000     -10.263662      -279.2884
  16   2.0000      -8.080272      -219.8754
  17   2.0000      -8.078111      -219.8166
  18   2.0000      -6.039033      -164.3304
  19   2.0000      -6.036478      -164.2609
  20   2.0000      -6.034780      -164.2147
  21   2.0000      -6.032463      -164.1517
  22   2.0000      -6.030887      -164.1088
  23   2.0000      -6.028781      -164.0515
  24   2.0000      -1.013699       -27.5842
  25   2.0000      -0.981159       -26.6987
  26   2.0000      -0.914705       -24.8904
  27   2.0000      -0.903142       -24.5758
  28   2.0000      -0.869002       -23.6467
  29   2.0000      -0.847250       -23.0548
  30   2.0000      -0.837257       -22.7829
  31   2.0000      -0.816221       -22.2105
  32   2.0000      -0.784457       -21.3462
  33   2.0000      -0.771175       -20.9848
  34   2.0000      -0.712217       -19.3804
  35   2.0000      -0.700156       -19.0522
  36   2.0000      -0.696252       -18.9460
  37   2.0000      -0.653664       -17.7871
  38   2.0000      -0.643497       -17.5104
  39   2.0000      -0.613864       -16.7041
  40   2.0000      -0.600183       -16.3318
  41   2.0000      -0.567731       -15.4487
  42   2.0000      -0.560769       -15.2593
  43   2.0000      -0.547435       -14.8965
  44   2.0000      -0.535626       -14.5751
  45   2.0000      -0.525025       -14.2867
  46   2.0000      -0.519981       -14.1494
  47   2.0000      -0.513069       -13.9613
  48   2.0000      -0.504342       -13.7239
  49   2.0000      -0.496798       -13.5185
  50   2.0000      -0.487303       -13.2602
  51   2.0000      -0.476369       -12.9626
  52   2.0000      -0.474358       -12.9079
  53   2.0000      -0.467238       -12.7142
  54   2.0000      -0.458104       -12.4656
  55   2.0000      -0.449336       -12.2270
  56   2.0000      -0.446052       -12.1377
  57   2.0000      -0.443042       -12.0558
  58   2.0000      -0.430144       -11.7048
  59   2.0000      -0.421349       -11.4655
  60   2.0000      -0.420708       -11.4481
  61   2.0000      -0.413335       -11.2474
  62   2.0000      -0.408386       -11.1128
  63   2.0000      -0.350806        -9.5459
  64   2.0000      -0.324604        -8.8329
  65   2.0000      -0.324155        -8.8207
  66   2.0000      -0.293005        -7.9731
  67   0.0000       0.029937         0.8146
  68   0.0000       0.061983         1.6866
  69   0.0000       0.113779         3.0961
  70   0.0000       0.118353         3.2206
  71   0.0000       0.131522         3.5789

MULLIKEN ATOMIC CHARGES
-----------------------
   0 S :    0.103226
   1 C :   -0.087372
   2 C :   -0.124080
   3 C :    0.064552
   4 C :   -0.158954
   5 H :    0.000771
   6 C :    0.096710
   7 H :    0.008698
   8 H :    0.030917
   9 C :   -0.095248
  10 H :    0.025523
  11 H :    0.041508
  12 C :   -0.078725
  13 H :    0.054179
  14 H :    0.032915
  15 H :    0.040755
  16 S :    0.107032
  17 C :   -0.102561
  18 C :   -0.059430
  19 C :   -0.039153
  20 C :   -0.173103
  21 H :    0.040027
  22 C :    0.074359
  23 H :    0.021488
  24 H :    0.035259
  25 C :   -0.100011
  26 H :    0.018702
  27 H :    0.019646
  28 C :    0.015818
  29 H :    0.052551
  30 H :    0.013079
  31 H :    0.002518
  32 H :    0.027911
  33 H :    0.090492
Sum of atomic charges:    0.0000000

LOEWDIN ATOMIC CHARGES
----------------------
   0 S :    0.387144
   1 C :   -0.197727
   2 C :   -0.055078
   3 C :   -0.061749
   4 C :   -0.179621
   5 H :    0.022308
   6 C :   -0.035219
   7 H :    0.030534
   8 H :    0.031651
   9 C :   -0.042894
  10 H :    0.020736
  11 H :    0.031267
  12 C :   -0.073973
  13 H :    0.034992
  14 H :    0.021180
  15 H :    0.031105
  16 S :    0.433814
  17 C :   -0.210521
  18 C :   -0.083816
  19 C :   -0.056424
  20 C :   -0.209556
  21 H :    0.040077
  22 C :   -0.031914
  23 H :    0.026455
  24 H :    0.037076
  25 C :   -0.036770
  26 H :    0.022343
  27 H :    0.015015
  28 C :   -0.045052
  29 H :    0.038799
  30 H :    0.020456
  31 H :    0.001550
  32 H :    0.022883
  33 H :    0.050929

  Mayer bond orders larger than 0.100000
B(  0-S ,  1-C ) :   1.1067 B(  0-S ,  4-C ) :   1.1396 B(  1-C ,  2-C ) :   1.6533
B(  1-C , 32-H ) :   0.9671 B(  2-C ,  3-C ) :   1.1842 B(  2-C ,  6-C ) :   1.0401
B(  3-C ,  4-C ) :   1.6012 B(  3-C ,  5-H ) :   0.9957 B(  4-C , 20-C ) :   1.0552
B(  6-C ,  7-H ) :   0.9422 B(  6-C ,  8-H ) :   0.9343 B(  6-C ,  9-C ) :   1.0317
B(  9-C , 10-H ) :   0.9601 B(  9-C , 11-H ) :   0.9590 B(  9-C , 12-C ) :   1.0699
B( 12-C , 13-H ) :   0.9768 B( 12-C , 14-H ) :   0.9783 B( 12-C , 15-H ) :   0.9762
B( 16-S , 17-C ) :   1.1886 B( 16-S , 20-C ) :   1.1413 B( 17-C , 18-C ) :   1.5554
B( 17-C , 20-C ) :   0.1013 B( 17-C , 33-H ) :   0.9606 B( 18-C , 19-C ) :   1.2654
B( 18-C , 21-H ) :   0.9812 B( 19-C , 20-C ) :   1.5616 B( 19-C , 22-C ) :   1.0414
B( 22-C , 23-H ) :   0.9381 B( 22-C , 24-H ) :   0.9273 B( 22-C , 25-C ) :   1.0853
B( 25-C , 26-H ) :   0.9522 B( 25-C , 27-H ) :   0.9552 B( 25-C , 28-C ) :   1.0667
B( 28-C , 29-H ) :   0.9736 B( 28-C , 30-H ) :   0.9728 B( 28-C , 31-H ) :   0.9735

Dispersion correction           -0.014432998
FINAL SINGLE POINT ENERGY     -1339.849313269148

DIPOLE MOMENT
-------------
                                X             Y             Z
Electronic contribution:     22.55432       3.91723      -7.94259
Nuclear contribution   :    -23.02815      -3.81315       8.24543
                        -----------------------------------------
Total Dipole Moment    :     -0.47383       0.10409       0.30284
                        -----------------------------------------
Magnitude (a.u.)       :      0.57189
Magnitude (Debye)      :      1.45364

Rotational constants in cm-1:     0.021509     0.007503     0.006663
Rotational constants in MHz :   644.823172   224.935812   199.740279

                             ****ORCA TERMINATED NORMALLY****
TOTAL RUN TIME: 0 days 0 hours 0 minutes 21 seconds 307 msec
