                         Program Version 4.2.1 -  RELEASE  -
|  1> ! wB97X-D3 SP def2-SVP
|  2> %pal
|  3> nprocs 24
|  4> end
|  5>
|  6> * xyz 0 1
|  7> S 	 33.0291 	 -35.6618 	 -127.134
|  8> C 	 32.152 	 -34.6963 	 -125.949
|  9> C 	 30.8575 	 -34.4294 	 -126.421
| 10> C 	 30.5798 	 -35.0913 	 -127.681
| 11> C 	 31.6793 	 -35.7708 	 -128.203
| 12> H 	 29.6287 	 -35.0519 	 -128.272
| 13> C 	 29.7346 	 -33.7839 	 -125.633
| 14> H 	 29.2872 	 -33.0471 	 -126.277
| 15> H 	 30.2689 	 -33.1935 	 -124.861
| 16> C 	 28.6807 	 -34.6873 	 -125.019
| 17> H 	 27.7997 	 -34.1777 	 -124.552
| 18> H 	 28.2812 	 -35.397 	 -125.722
| 19> C 	 29.3071 	 -35.5105 	 -123.877
| 20> H 	 29.9143 	 -36.3093 	 -124.247
| 21> H 	 29.8411 	 -34.7583 	 -123.227
| 22> H 	 28.5833 	 -36.0129 	 -123.24
| 23> S 	 30.3343 	 -36.9247 	 -130.341
| 24> C 	 31.1128 	 -36.9424 	 -131.944
| 25> C 	 32.4076 	 -36.4336 	 -131.897
| 26> C 	 32.7584 	 -35.9736 	 -130.585
| 27> C 	 31.7301 	 -36.1563 	 -129.61
| 28> H 	 33.0205 	 -36.4313 	 -132.787
| 29> C 	 34.0267 	 -35.2167 	 -130.414
| 30> H 	 34.5944 	 -35.4073 	 -131.299
| 31> H 	 34.5991 	 -35.7075 	 -129.608
| 32> C 	 33.7927 	 -33.7501 	 -129.95
| 33> H 	 33.3874 	 -33.5674 	 -128.878
| 34> H 	 33.086 	 -33.2376 	 -130.64
| 35> C 	 35.0408 	 -32.8454 	 -130.021
| 36> H 	 34.7599 	 -31.8373 	 -129.701
| 37> H 	 35.6732 	 -32.7894 	 -130.977
| 38> H 	 35.7445 	 -33.1219 	 -129.271
| 39> H 	 32.5722 	 -34.3123 	 -125.041
| 40> H 	 30.661 	 -37.37 	 -132.844
| 41> *
| 42>
| 43>                          ****END OF INPUT****

CARTESIAN COORDINATES (ANGSTROEM)
---------------------------------
  S     33.029100  -35.661800  -127.134000
  C     32.152000  -34.696300  -125.949000
  C     30.857500  -34.429400  -126.421000
  C     30.579800  -35.091300  -127.681000
  C     31.679300  -35.770800  -128.203000
  H     29.628700  -35.051900  -128.272000
  C     29.734600  -33.783900  -125.633000
  H     29.287200  -33.047100  -126.277000
  H     30.268900  -33.193500  -124.861000
  C     28.680700  -34.687300  -125.019000
  H     27.799700  -34.177700  -124.552000
  H     28.281200  -35.397000  -125.722000
  C     29.307100  -35.510500  -123.877000
  H     29.914300  -36.309300  -124.247000
  H     29.841100  -34.758300  -123.227000
  H     28.583300  -36.012900  -123.240000
  S     30.334300  -36.924700  -130.341000
  C     31.112800  -36.942400  -131.944000
  C     32.407600  -36.433600  -131.897000
  C     32.758400  -35.973600  -130.585000
  C     31.730100  -36.156300  -129.610000
  H     33.020500  -36.431300  -132.787000
  C     34.026700  -35.216700  -130.414000
  H     34.594400  -35.407300  -131.299000
  H     34.599100  -35.707500  -129.608000
  C     33.792700  -33.750100  -129.950000
  H     33.387400  -33.567400  -128.878000
  H     33.086000  -33.237600  -130.640000
  C     35.040800  -32.845400  -130.021000
  H     34.759900  -31.837300  -129.701000
  H     35.673200  -32.789400  -130.977000
  H     35.744500  -33.121900  -129.271000
  H     32.572200  -34.312300  -125.041000
  H     30.661000  -37.370000  -132.844000

 Total Charge           Charge          ....    0
 Multiplicity           Mult            ....    1
 Number of Electrons    NEL             ....  134
 Basis Dimension        Dim             ....  322

ORBITAL ENERGIES
----------------

  NO   OCC          E(Eh)            E(eV)
   0   2.0000     -88.972434     -2421.0630
   1   2.0000     -88.969216     -2420.9754
   2   2.0000     -10.332072      -281.1500
   3   2.0000     -10.331343      -281.1301
   4   2.0000     -10.321836      -280.8714
   5   2.0000     -10.321206      -280.8543
   6   2.0000     -10.308988      -280.5218
   7   2.0000     -10.303349      -280.3684
   8   2.0000     -10.299891      -280.2743
   9   2.0000     -10.296544      -280.1832
  10   2.0000     -10.293203      -280.0923
  11   2.0000     -10.292605      -280.0760
  12   2.0000     -10.288932      -279.9761
  13   2.0000     -10.288246      -279.9574
  14   2.0000     -10.274862      -279.5932
  15   2.0000     -10.274358      -279.5795
  16   2.0000      -8.086489      -220.0446
  17   2.0000      -8.082943      -219.9481
  18   2.0000      -6.045101      -164.4956
  19   2.0000      -6.041591      -164.4001
  20   2.0000      -6.040894      -164.3811
  21   2.0000      -6.037525      -164.2894
  22   2.0000      -6.037373      -164.2853
  23   2.0000      -6.033710      -164.1856
  24   2.0000      -1.004940       -27.3458
  25   2.0000      -0.979629       -26.6571
  26   2.0000      -0.914262       -24.8783
  27   2.0000      -0.902722       -24.5643
  28   2.0000      -0.869621       -23.6636
  29   2.0000      -0.849063       -23.1042
  30   2.0000      -0.843147       -22.9432
  31   2.0000      -0.811556       -22.0836
  32   2.0000      -0.781669       -21.2703
  33   2.0000      -0.767369       -20.8812
  34   2.0000      -0.707197       -19.2438
  35   2.0000      -0.696513       -18.9531
  36   2.0000      -0.687044       -18.6954
  37   2.0000      -0.666038       -18.1238
  38   2.0000      -0.635204       -17.2848
  39   2.0000      -0.616015       -16.7626
  40   2.0000      -0.589571       -16.0430
  41   2.0000      -0.569078       -15.4854
  42   2.0000      -0.556565       -15.1449
  43   2.0000      -0.554564       -15.0904
  44   2.0000      -0.544359       -14.8128
  45   2.0000      -0.525771       -14.3069
  46   2.0000      -0.519683       -14.1413
  47   2.0000      -0.508390       -13.8340
  48   2.0000      -0.505258       -13.7488
  49   2.0000      -0.494249       -13.4492
  50   2.0000      -0.490781       -13.3548
  51   2.0000      -0.476144       -12.9565
  52   2.0000      -0.467552       -12.7227
  53   2.0000      -0.463896       -12.6233
  54   2.0000      -0.451539       -12.2870
  55   2.0000      -0.445821       -12.1314
  56   2.0000      -0.442070       -12.0293
  57   2.0000      -0.434865       -11.8333
  58   2.0000      -0.431520       -11.7422
  59   2.0000      -0.422598       -11.4995
  60   2.0000      -0.420299       -11.4369
  61   2.0000      -0.414842       -11.2884
  62   2.0000      -0.405858       -11.0439
  63   2.0000      -0.355319        -9.6687
  64   2.0000      -0.331314        -9.0155
  65   2.0000      -0.329859        -8.9759
  66   2.0000      -0.283458        -7.7133
  67   0.0000       0.019940         0.5426
  68   0.0000       0.076637         2.0854
  69   0.0000       0.107551         2.9266
  70   0.0000       0.121049         3.2939
  71   0.0000       0.125511         3.4153

MULLIKEN ATOMIC CHARGES
-----------------------
   0 S :    0.101003
   1 C :   -0.113771
   2 C :   -0.102791
   3 C :   -0.017948
   4 C :   -0.115217
   5 H :    0.041551
   6 C :    0.074473
   7 H :    0.027826
   8 H :    0.016439
   9 C :   -0.055140
  10 H :    0.040563
  11 H :    0.028244
  12 C :   -0.073209
  13 H :    0.043647
  14 H :    0.026800
  15 H :    0.026671
  16 S :    0.099304
  17 C :   -0.108543
  18 C :   -0.028486
  19 C :   -0.074178
  20 C :   -0.133833
  21 H :    0.023913
  22 C :    0.106276
  23 H :    0.009601
  24 H :    0.029364
  25 C :   -0.106317
  26 H :    0.064083
  27 H :    0.037350
  28 C :   -0.060634
  29 H :    0.027689
  30 H :    0.040090
  31 H :    0.013577
  32 H :    0.047597
  33 H :    0.064004
Sum of atomic charges:    0.0000000

LOEWDIN ATOMIC CHARGES
----------------------
   0 S :    0.429187
   1 C :   -0.193748
   2 C :   -0.059708
   3 C :   -0.069543
   4 C :   -0.204386
   5 H :    0.036145
   6 C :   -0.034179
   7 H :    0.029862
   8 H :    0.029866
   9 C :   -0.041301
  10 H :    0.032393
  11 H :    0.022093
  12 C :   -0.066406
  13 H :    0.023030
  14 H :    0.026472
  15 H :    0.022627
  16 S :    0.399966
  17 C :   -0.181583
  18 C :   -0.069362
  19 C :   -0.058843
  20 C :   -0.194606
  21 H :    0.034014
  22 C :   -0.038997
  23 H :    0.029019
  24 H :    0.029825
  25 C :   -0.048113
  26 H :    0.037958
  27 H :    0.025907
  28 C :   -0.078071
  29 H :    0.026221
  30 H :    0.029581
  31 H :    0.015201
  32 H :    0.027208
  33 H :    0.032271

  Mayer bond orders larger than 0.100000
B(  0-S ,  1-C ) :   1.1325 B(  0-S ,  4-C ) :   1.1562 B(  1-C ,  2-C ) :   1.5863
B(  1-C , 32-H ) :   0.9739 B(  2-C ,  3-C ) :   1.2569 B(  2-C ,  6-C ) :   1.0293
B(  3-C ,  4-C ) :   1.5405 B(  3-C ,  5-H ) :   0.9791 B(  4-C , 20-C ) :   1.0487
B(  6-C ,  7-H ) :   0.9335 B(  6-C ,  8-H ) :   0.9430 B(  6-C ,  9-C ) :   1.0681
B(  9-C , 10-H ) :   0.9573 B(  9-C , 11-H ) :   0.9554 B(  9-C , 12-C ) :   1.0699
B( 12-C , 13-H ) :   0.9778 B( 12-C , 14-H ) :   0.9766 B( 12-C , 15-H ) :   0.9747
B( 16-S , 17-C ) :   1.1516 B( 16-S , 20-C ) :   1.1416 B( 17-C , 18-C ) :   1.5993
B( 17-C , 33-H ) :   0.9645 B( 18-C , 19-C ) :   1.2623 B( 18-C , 21-H ) :   0.9890
B( 19-C , 20-C ) :   1.5434 B( 19-C , 22-C ) :   1.0595 B( 22-C , 23-H ) :   0.9317
B( 22-C , 24-H ) :   0.9204 B( 22-C , 25-C ) :   1.0453 B( 25-C , 26-H ) :   0.9449
B( 25-C , 27-H ) :   0.9626 B( 25-C , 28-C ) :   1.0836 B( 28-C , 29-H ) :   0.9736
B( 28-C , 30-H ) :   0.9756 B( 28-C , 31-H ) :   0.9722

Dispersion correction           -0.015103383
FINAL SINGLE POINT ENERGY     -1339.878970758154

DIPOLE MOMENT
-------------
                                X             Y             Z
Electronic contribution:     -1.04065     -13.55630      -9.62868
Nuclear contribution   :      0.99115      13.88581       9.64619
                        -----------------------------------------
Total Dipole Moment    :     -0.04951       0.32950       0.01751
                        -----------------------------------------
Magnitude (a.u.)       :      0.33366
Magnitude (Debye)      :      0.84810

Rotational constants in cm-1:     0.020110     0.009048     0.006991
Rotational constants in MHz :   602.892616   271.247946   209.575195

                             ****ORCA TERMINATED NORMALLY****
TOTAL RUN TIME: 0 days 0 hours 0 minutes 20 seconds 883 msec
