                         Program Version 4.2.1 -  RELEASE  -
|  1> ! wB97X-D3 SP def2-SVP
|  2> %pal
|  3> nprocs 24
|  4> end
|  5>
|  6> * xyz 0 1
|  7> S 	 -42.6428 	 -3.14237 	 13.2129
|  8> C 	 -42.8446 	 -1.73708 	 14.1742
|  9> C 	 -42.8555 	 -1.94284 	 15.5563
| 10> C 	 -42.9202 	 -3.33067 	 15.8298
| 11> C 	 -43.0376 	 -4.12174 	 14.6631
| 12> H 	 -43.0245 	 -3.73223 	 16.7857
| 13> C 	 -42.8505 	 -0.830112 	 16.5945
| 14> H 	 -42.5181 	 0.112111 	 16.115
| 15> H 	 -42.0076 	 -0.999117 	 17.2218
| 16> C 	 -44.0919 	 -0.632608 	 17.4092
| 17> H 	 -44.9656 	 -0.330154 	 16.8288
| 18> H 	 -44.2543 	 -1.66043 	 17.7454
| 19> C 	 -43.8213 	 0.365431 	 18.6022
| 20> H 	 -42.9512 	 0.0613493 	 19.1855
| 21> H 	 -43.5341 	 1.37351 	 18.2933
| 22> H 	 -44.627 	 0.40079 	 19.2648
| 23> S 	 -42.2393 	 -6.78558 	 14.4362
| 24> C 	 -43.4254 	 -8.01222 	 14.2372
| 25> C 	 -44.6801 	 -7.45124 	 14.4444
| 26> C 	 -44.6527 	 -6.08395 	 14.7849
| 27> C 	 -43.4207 	 -5.50466 	 14.5908
| 28> H 	 -45.5423 	 -8.0838 	 14.3332
| 29> C 	 -45.9631 	 -5.3286 	 15.0384
| 30> H 	 -45.787 	 -4.27573 	 15.2283
| 31> H 	 -46.4205 	 -5.78151 	 15.9447
| 32> C 	 -46.916 	 -5.34376 	 13.7612
| 33> H 	 -47.0553 	 -6.3026 	 13.3864
| 34> H 	 -46.4808 	 -4.7754 	 12.9484
| 35> C 	 -48.2448 	 -4.63588 	 14.0965
| 36> H 	 -48.0628 	 -3.62935 	 14.257
| 37> H 	 -48.6861 	 -5.07783 	 14.9579
| 38> H 	 -48.8882 	 -4.72116 	 13.2384
| 39> H 	 -43.0813 	 -0.764481 	 13.7279
| 40> H 	 -43.2363 	 -9.05242 	 14.0434
| 41> *
| 42>
| 43>                          ****END OF INPUT****

CARTESIAN COORDINATES (ANGSTROEM)
---------------------------------
  S    -42.642800   -3.142370   13.212900
  C    -42.844600   -1.737080   14.174200
  C    -42.855500   -1.942840   15.556300
  C    -42.920200   -3.330670   15.829800
  C    -43.037600   -4.121740   14.663100
  H    -43.024500   -3.732230   16.785700
  C    -42.850500   -0.830112   16.594500
  H    -42.518100    0.112111   16.115000
  H    -42.007600   -0.999117   17.221800
  C    -44.091900   -0.632608   17.409200
  H    -44.965600   -0.330154   16.828800
  H    -44.254300   -1.660430   17.745400
  C    -43.821300    0.365431   18.602200
  H    -42.951200    0.061349   19.185500
  H    -43.534100    1.373510   18.293300
  H    -44.627000    0.400790   19.264800
  S    -42.239300   -6.785580   14.436200
  C    -43.425400   -8.012220   14.237200
  C    -44.680100   -7.451240   14.444400
  C    -44.652700   -6.083950   14.784900
  C    -43.420700   -5.504660   14.590800
  H    -45.542300   -8.083800   14.333200
  C    -45.963100   -5.328600   15.038400
  H    -45.787000   -4.275730   15.228300
  H    -46.420500   -5.781510   15.944700
  C    -46.916000   -5.343760   13.761200
  H    -47.055300   -6.302600   13.386400
  H    -46.480800   -4.775400   12.948400
  C    -48.244800   -4.635880   14.096500
  H    -48.062800   -3.629350   14.257000
  H    -48.686100   -5.077830   14.957900
  H    -48.888200   -4.721160   13.238400
  H    -43.081300   -0.764481   13.727900
  H    -43.236300   -9.052420   14.043400

 Total Charge           Charge          ....    0
 Multiplicity           Mult            ....    1
 Number of Electrons    NEL             ....  134
 Basis Dimension        Dim             ....  322

ORBITAL ENERGIES
----------------

  NO   OCC          E(Eh)            E(eV)
   0   2.0000     -88.968593     -2420.9585
   1   2.0000     -88.958452     -2420.6825
   2   2.0000     -10.330713      -281.1130
   3   2.0000     -10.318771      -280.7880
   4   2.0000     -10.313391      -280.6416
   5   2.0000     -10.313220      -280.6370
   6   2.0000     -10.300914      -280.3021
   7   2.0000     -10.297876      -280.2195
   8   2.0000     -10.296046      -280.1697
   9   2.0000     -10.292221      -280.0656
  10   2.0000     -10.290968      -280.0315
  11   2.0000     -10.289789      -279.9994
  12   2.0000     -10.287693      -279.9424
  13   2.0000     -10.279710      -279.7251
  14   2.0000     -10.279167      -279.7104
  15   2.0000     -10.265098      -279.3275
  16   2.0000      -8.083335      -219.9587
  17   2.0000      -8.074037      -219.7057
  18   2.0000      -6.041638      -164.4013
  19   2.0000      -6.038056      -164.3039
  20   2.0000      -6.034102      -164.1963
  21   2.0000      -6.032489      -164.1524
  22   2.0000      -6.028286      -164.0380
  23   2.0000      -6.024954      -163.9473
  24   2.0000      -1.006336       -27.3838
  25   2.0000      -0.985429       -26.8149
  26   2.0000      -0.914390       -24.8818
  27   2.0000      -0.901141       -24.5213
  28   2.0000      -0.868525       -23.6338
  29   2.0000      -0.851867       -23.1805
  30   2.0000      -0.848186       -23.0803
  31   2.0000      -0.810658       -22.0591
  32   2.0000      -0.781935       -21.2775
  33   2.0000      -0.768733       -20.9183
  34   2.0000      -0.712297       -19.3826
  35   2.0000      -0.702615       -19.1191
  36   2.0000      -0.697425       -18.9779
  37   2.0000      -0.656806       -17.8726
  38   2.0000      -0.644113       -17.5272
  39   2.0000      -0.622667       -16.9436
  40   2.0000      -0.595755       -16.2113
  41   2.0000      -0.571512       -15.5516
  42   2.0000      -0.562160       -15.2971
  43   2.0000      -0.559200       -15.2166
  44   2.0000      -0.530982       -14.4488
  45   2.0000      -0.524823       -14.2812
  46   2.0000      -0.519725       -14.1424
  47   2.0000      -0.513655       -13.9773
  48   2.0000      -0.501101       -13.6356
  49   2.0000      -0.496960       -13.5230
  50   2.0000      -0.488282       -13.2868
  51   2.0000      -0.481060       -13.0903
  52   2.0000      -0.471460       -12.8291
  53   2.0000      -0.468339       -12.7441
  54   2.0000      -0.459864       -12.5135
  55   2.0000      -0.451275       -12.2798
  56   2.0000      -0.444656       -12.0997
  57   2.0000      -0.438852       -11.9418
  58   2.0000      -0.434826       -11.8322
  59   2.0000      -0.430643       -11.7184
  60   2.0000      -0.426953       -11.6180
  61   2.0000      -0.414783       -11.2868
  62   2.0000      -0.409847       -11.1525
  63   2.0000      -0.337464        -9.1829
  64   2.0000      -0.325885        -8.8678
  65   2.0000      -0.323107        -8.7922
  66   2.0000      -0.296201        -8.0600
  67   0.0000       0.034110         0.9282
  68   0.0000       0.051388         1.3983
  69   0.0000       0.111973         3.0470
  70   0.0000       0.122524         3.3340
  71   0.0000       0.139753         3.8029

MULLIKEN ATOMIC CHARGES
-----------------------
   0 S :    0.129957
   1 C :   -0.127611
   2 C :   -0.095675
   3 C :    0.082353
   4 C :   -0.202066
   5 H :   -0.006098
   6 C :    0.073448
   7 H :    0.009115
   8 H :    0.017817
   9 C :   -0.057595
  10 H :    0.035905
  11 H :    0.021909
  12 C :   -0.025045
  13 H :    0.019910
  14 H :    0.029756
  15 H :    0.027510
  16 S :    0.106446
  17 C :   -0.087902
  18 C :   -0.049924
  19 C :    0.004937
  20 C :   -0.176024
  21 H :    0.015153
  22 C :    0.052149
  23 H :    0.023885
  24 H :    0.036880
  25 C :   -0.077905
  26 H :    0.012108
  27 H :    0.028973
  28 C :    0.004950
  29 H :    0.014968
  30 H :    0.020117
  31 H :    0.027711
  32 H :    0.055112
  33 H :    0.054774
Sum of atomic charges:    0.0000000

LOEWDIN ATOMIC CHARGES
----------------------
   0 S :    0.407883
   1 C :   -0.203229
   2 C :   -0.066808
   3 C :   -0.038037
   4 C :   -0.185714
   5 H :    0.021781
   6 C :   -0.035971
   7 H :    0.028220
   8 H :    0.029833
   9 C :   -0.035889
  10 H :    0.026100
  11 H :    0.024619
  12 C :   -0.059369
  13 H :    0.026104
  14 H :    0.026751
  15 H :    0.017935
  16 S :    0.413968
  17 C :   -0.191313
  18 C :   -0.075619
  19 C :   -0.054426
  20 C :   -0.215047
  21 H :    0.027843
  22 C :   -0.026595
  23 H :    0.027048
  24 H :    0.033613
  25 C :   -0.025535
  26 H :    0.008158
  27 H :    0.026631
  28 C :   -0.051789
  29 H :    0.015712
  30 H :    0.019219
  31 H :    0.025773
  32 H :    0.028829
  33 H :    0.029322

  Mayer bond orders larger than 0.100000
B(  0-S ,  1-C ) :   1.1643 B(  0-S ,  4-C ) :   1.1391 B(  1-C ,  2-C ) :   1.6023
B(  1-C ,  4-C ) :   0.1041 B(  1-C , 32-H ) :   0.9607 B(  2-C ,  3-C ) :   1.2446
B(  2-C ,  6-C ) :   1.0205 B(  3-C ,  4-C ) :   1.5605 B(  3-C ,  5-H ) :   1.0056
B(  4-C , 20-C ) :   1.0498 B(  6-C ,  7-H ) :   0.9358 B(  6-C ,  8-H ) :   0.9358
B(  6-C ,  9-C ) :   1.0548 B(  9-C , 10-H ) :   0.9568 B(  9-C , 11-H ) :   0.9578
B(  9-C , 12-C ) :   1.0725 B( 12-C , 13-H ) :   0.9738 B( 12-C , 14-H ) :   0.9765
B( 12-C , 15-H ) :   0.9768 B( 16-S , 17-C ) :   1.1707 B( 16-S , 20-C ) :   1.1448
B( 17-C , 18-C ) :   1.5817 B( 17-C , 20-C ) :   0.1040 B( 17-C , 33-H ) :   0.9727
B( 18-C , 19-C ) :   1.2482 B( 18-C , 21-H ) :   0.9953 B( 19-C , 20-C ) :   1.5786
B( 19-C , 22-C ) :   1.0492 B( 22-C , 23-H ) :   0.9379 B( 22-C , 24-H ) :   0.9361
B( 22-C , 25-C ) :   1.0585 B( 25-C , 26-H ) :   0.9624 B( 25-C , 27-H ) :   0.9551
B( 25-C , 28-C ) :   1.0845 B( 28-C , 29-H ) :   0.9752 B( 28-C , 30-H ) :   0.9762
B( 28-C , 31-H ) :   0.9727

Dispersion correction           -0.014082946
FINAL SINGLE POINT ENERGY     -1339.867399632572

DIPOLE MOMENT
-------------
                                X             Y             Z
Electronic contribution:     19.93702     -15.63897     -13.48108
Nuclear contribution   :    -20.44703      15.92049      13.83588
                        -----------------------------------------
Total Dipole Moment    :     -0.51001       0.28152       0.35480
                        -----------------------------------------
Magnitude (a.u.)       :      0.68209
Magnitude (Debye)      :      1.73374

Rotational constants in cm-1:     0.017367     0.008243     0.006871
Rotational constants in MHz :   520.659383   247.124117   205.992126

                             ****ORCA TERMINATED NORMALLY****
TOTAL RUN TIME: 0 days 0 hours 0 minutes 21 seconds 491 msec
