                         Program Version 4.2.1 -  RELEASE  -
|  1> ! wB97X-D3 SP def2-SVP
|  2> %pal
|  3> nprocs 24
|  4> end
|  5>
|  6> * xyz 0 1
|  7> S 	 -137.774 	 23.0358 	 -20.2615
|  8> C 	 -138.995 	 21.7653 	 -20.5494
|  9> C 	 -139.974 	 21.9092 	 -19.6429
| 10> C 	 -139.676 	 22.8145 	 -18.5606
| 11> C 	 -138.585 	 23.6351 	 -18.8907
| 12> H 	 -140.273 	 23.0019 	 -17.6571
| 13> C 	 -141.244 	 21.054 	 -19.7094
| 14> H 	 -141.442 	 20.5992 	 -20.6627
| 15> H 	 -142.01 	 21.8348 	 -19.6507
| 16> C 	 -141.424 	 20.0394 	 -18.6247
| 17> H 	 -140.702 	 19.2323 	 -18.9007
| 18> H 	 -141.207 	 20.3976 	 -17.6283
| 19> C 	 -142.801 	 19.4203 	 -18.6316
| 20> H 	 -143.574 	 20.0564 	 -18.2062
| 21> H 	 -143.21 	 19.1989 	 -19.6615
| 22> H 	 -142.873 	 18.5435 	 -18.0718
| 23> S 	 -137.855 	 26.2844 	 -19.0435
| 24> C 	 -136.914 	 26.9484 	 -17.823
| 25> C 	 -136.998 	 26.2218 	 -16.6354
| 26> C 	 -137.603 	 24.9583 	 -16.8151
| 27> C 	 -138.062 	 24.8186 	 -18.1233
| 28> H 	 -136.532 	 26.6155 	 -15.7569
| 29> C 	 -137.585 	 23.9622 	 -15.7084
| 30> H 	 -136.51 	 23.8436 	 -15.5401
| 31> H 	 -137.854 	 22.9832 	 -16.1061
| 32> C 	 -138.272 	 24.1693 	 -14.3161
| 33> H 	 -138.1 	 25.2281 	 -14.1572
| 34> H 	 -137.753 	 23.5593 	 -13.6287
| 35> C 	 -139.737 	 23.7913 	 -14.2166
| 36> H 	 -139.864 	 22.7764 	 -14.5814
| 37> H 	 -140.353 	 24.4445 	 -14.901
| 38> H 	 -140.175 	 23.8778 	 -13.1972
| 39> H 	 -138.886 	 21.0146 	 -21.3363
| 40> H 	 -136.324 	 27.8789 	 -17.9707
| 41> *
| 42>
| 43>                          ****END OF INPUT****

CARTESIAN COORDINATES (ANGSTROEM)
---------------------------------
  S    -137.774000   23.035800  -20.261500
  C    -138.995000   21.765300  -20.549400
  C    -139.974000   21.909200  -19.642900
  C    -139.676000   22.814500  -18.560600
  C    -138.585000   23.635100  -18.890700
  H    -140.273000   23.001900  -17.657100
  C    -141.244000   21.054000  -19.709400
  H    -141.442000   20.599200  -20.662700
  H    -142.010000   21.834800  -19.650700
  C    -141.424000   20.039400  -18.624700
  H    -140.702000   19.232300  -18.900700
  H    -141.207000   20.397600  -17.628300
  C    -142.801000   19.420300  -18.631600
  H    -143.574000   20.056400  -18.206200
  H    -143.210000   19.198900  -19.661500
  H    -142.873000   18.543500  -18.071800
  S    -137.855000   26.284400  -19.043500
  C    -136.914000   26.948400  -17.823000
  C    -136.998000   26.221800  -16.635400
  C    -137.603000   24.958300  -16.815100
  C    -138.062000   24.818600  -18.123300
  H    -136.532000   26.615500  -15.756900
  C    -137.585000   23.962200  -15.708400
  H    -136.510000   23.843600  -15.540100
  H    -137.854000   22.983200  -16.106100
  C    -138.272000   24.169300  -14.316100
  H    -138.100000   25.228100  -14.157200
  H    -137.753000   23.559300  -13.628700
  C    -139.737000   23.791300  -14.216600
  H    -139.864000   22.776400  -14.581400
  H    -140.353000   24.444500  -14.901000
  H    -140.175000   23.877800  -13.197200
  H    -138.886000   21.014600  -21.336300
  H    -136.324000   27.878900  -17.970700

 Total Charge           Charge          ....    0
 Multiplicity           Mult            ....    1
 Number of Electrons    NEL             ....  134
 Basis Dimension        Dim             ....  322

ORBITAL ENERGIES
----------------

  NO   OCC          E(Eh)            E(eV)
   0   2.0000     -88.965092     -2420.8632
   1   2.0000     -88.960037     -2420.7257
   2   2.0000     -10.330761      -281.1143
   3   2.0000     -10.325908      -280.9822
   4   2.0000     -10.314226      -280.6643
   5   2.0000     -10.311210      -280.5823
   6   2.0000     -10.303061      -280.3606
   7   2.0000     -10.299632      -280.2672
   8   2.0000     -10.297010      -280.1959
   9   2.0000     -10.289160      -279.9823
  10   2.0000     -10.288996      -279.9778
  11   2.0000     -10.287242      -279.9301
  12   2.0000     -10.287210      -279.9292
  13   2.0000     -10.285450      -279.8813
  14   2.0000     -10.283703      -279.8338
  15   2.0000     -10.274613      -279.5864
  16   2.0000      -8.081433      -219.9070
  17   2.0000      -8.075405      -219.7429
  18   2.0000      -6.039645      -164.3471
  19   2.0000      -6.035736      -164.2407
  20   2.0000      -6.033824      -164.1887
  21   2.0000      -6.032390      -164.1497
  22   2.0000      -6.029787      -164.0789
  23   2.0000      -6.026222      -163.9818
  24   2.0000      -1.010485       -27.4967
  25   2.0000      -0.989785       -26.9334
  26   2.0000      -0.916906       -24.9503
  27   2.0000      -0.911336       -24.7987
  28   2.0000      -0.867482       -23.6054
  29   2.0000      -0.858612       -23.3640
  30   2.0000      -0.840495       -22.8710
  31   2.0000      -0.811466       -22.0811
  32   2.0000      -0.785497       -21.3745
  33   2.0000      -0.775645       -21.1064
  34   2.0000      -0.707646       -19.2560
  35   2.0000      -0.699673       -19.0391
  36   2.0000      -0.688373       -18.7316
  37   2.0000      -0.657864       -17.9014
  38   2.0000      -0.640477       -17.4283
  39   2.0000      -0.619894       -16.8682
  40   2.0000      -0.600306       -16.3352
  41   2.0000      -0.568835       -15.4788
  42   2.0000      -0.563792       -15.3415
  43   2.0000      -0.554927       -15.1003
  44   2.0000      -0.542081       -14.7508
  45   2.0000      -0.526800       -14.3350
  46   2.0000      -0.519577       -14.1384
  47   2.0000      -0.512434       -13.9440
  48   2.0000      -0.504362       -13.7244
  49   2.0000      -0.496983       -13.5236
  50   2.0000      -0.489385       -13.3168
  51   2.0000      -0.483642       -13.1606
  52   2.0000      -0.472243       -12.8504
  53   2.0000      -0.462675       -12.5900
  54   2.0000      -0.458439       -12.4748
  55   2.0000      -0.451465       -12.2850
  56   2.0000      -0.446357       -12.1460
  57   2.0000      -0.441653       -12.0180
  58   2.0000      -0.439960       -11.9719
  59   2.0000      -0.424909       -11.5624
  60   2.0000      -0.420093       -11.4313
  61   2.0000      -0.414901       -11.2900
  62   2.0000      -0.405055       -11.0221
  63   2.0000      -0.339043        -9.2258
  64   2.0000      -0.331781        -9.0282
  65   2.0000      -0.323844        -8.8122
  66   2.0000      -0.295055        -8.0289
  67   0.0000       0.035206         0.9580
  68   0.0000       0.073713         2.0058
  69   0.0000       0.113554         3.0900
  70   0.0000       0.122167         3.3243
  71   0.0000       0.127805         3.4777

MULLIKEN ATOMIC CHARGES
-----------------------
   0 S :    0.102235
   1 C :   -0.144666
   2 C :   -0.062810
   3 C :    0.022673
   4 C :   -0.145446
   5 H :    0.019822
   6 C :    0.063439
   7 H :    0.009986
   8 H :    0.023106
   9 C :   -0.052506
  10 H :    0.031166
  11 H :    0.028549
  12 C :   -0.039528
  13 H :    0.023922
  14 H :    0.025839
  15 H :    0.020244
  16 S :    0.133003
  17 C :   -0.117987
  18 C :   -0.044888
  19 C :    0.003584
  20 C :   -0.193056
  21 H :    0.012794
  22 C :    0.034694
  23 H :    0.033504
  24 H :    0.008043
  25 C :   -0.014791
  26 H :    0.023171
  27 H :    0.022767
  28 C :   -0.069217
  29 H :    0.025985
  30 H :    0.039290
  31 H :    0.047552
  32 H :    0.057465
  33 H :    0.072060
Sum of atomic charges:   -0.0000000

LOEWDIN ATOMIC CHARGES
----------------------
   0 S :    0.406256
   1 C :   -0.190800
   2 C :   -0.061431
   3 C :   -0.071692
   4 C :   -0.204997
   5 H :    0.033709
   6 C :   -0.030772
   7 H :    0.026019
   8 H :    0.030620
   9 C :   -0.041026
  10 H :    0.031118
  11 H :    0.023095
  12 C :   -0.066103
  13 H :    0.024085
  14 H :    0.029245
  15 H :    0.017570
  16 S :    0.442908
  17 C :   -0.209033
  18 C :   -0.076233
  19 C :   -0.056654
  20 C :   -0.208860
  21 H :    0.027141
  22 C :   -0.036696
  23 H :    0.040481
  24 H :    0.025542
  25 C :   -0.030603
  26 H :    0.023305
  27 H :    0.022064
  28 C :   -0.071140
  29 H :    0.021756
  30 H :    0.029901
  31 H :    0.031928
  32 H :    0.033454
  33 H :    0.035843

  Mayer bond orders larger than 0.100000
B(  0-S ,  1-C ) :   1.1104 B(  0-S ,  4-C ) :   1.1863 B(  1-C ,  2-C ) :   1.6291
B(  1-C , 32-H ) :   0.9758 B(  2-C ,  3-C ) :   1.2212 B(  2-C ,  6-C ) :   1.0090
B(  3-C ,  4-C ) :   1.5655 B(  3-C ,  5-H ) :   0.9918 B(  4-C , 20-C ) :   0.9987
B(  6-C ,  7-H ) :   0.9454 B(  6-C ,  8-H ) :   0.9369 B(  6-C ,  9-C ) :   1.0674
B(  9-C , 10-H ) :   0.9519 B(  9-C , 11-H ) :   0.9549 B(  9-C , 12-C ) :   1.0868
B( 12-C , 13-H ) :   0.9722 B( 12-C , 14-H ) :   0.9718 B( 12-C , 15-H ) :   0.9723
B( 16-S , 17-C ) :   1.1905 B( 16-S , 20-C ) :   1.1651 B( 17-C , 18-C ) :   1.5720
B( 17-C , 33-H ) :   0.9635 B( 18-C , 19-C ) :   1.2511 B( 18-C , 21-H ) :   0.9963
B( 19-C , 20-C ) :   1.5677 B( 19-C , 22-C ) :   1.0490 B( 22-C , 23-H ) :   0.9276
B( 22-C , 24-H ) :   0.9301 B( 22-C , 25-C ) :   1.0622 B( 25-C , 26-H ) :   0.9561
B( 25-C , 27-H ) :   0.9503 B( 25-C , 28-C ) :   1.0863 B( 28-C , 29-H ) :   0.9718
B( 28-C , 30-H ) :   0.9757 B( 28-C , 31-H ) :   0.9723

Dispersion correction           -0.013913904
FINAL SINGLE POINT ENERGY     -1339.875143507332

DIPOLE MOMENT
-------------
                                X             Y             Z
Electronic contribution:     17.09449      17.54692     -17.97467
Nuclear contribution   :    -17.28303     -17.83978      18.44974
                        -----------------------------------------
Total Dipole Moment    :     -0.18854      -0.29286       0.47507
                        -----------------------------------------
Magnitude (a.u.)       :      0.58907
Magnitude (Debye)      :      1.49731

Rotational constants in cm-1:     0.018103     0.008645     0.006358
Rotational constants in MHz :   542.724816   259.162781   190.601888

                             ****ORCA TERMINATED NORMALLY****
TOTAL RUN TIME: 0 days 0 hours 0 minutes 21 seconds 314 msec
