                         Program Version 4.2.1 -  RELEASE  -
|  1> ! wB97X-D3 SP def2-SVP
|  2> %pal
|  3> nprocs 24
|  4> end
|  5>
|  6> * xyz 0 1
|  7> S 	 -43.0071 	 16.5381 	 30.2103
|  8> C 	 -42.4287 	 16.813 	 28.5394
|  9> C 	 -43.2512 	 16.1235 	 27.6277
| 10> C 	 -44.3836 	 15.4911 	 28.3124
| 11> C 	 -44.4317 	 15.6738 	 29.6971
| 12> H 	 -45.2738 	 15.0647 	 27.8968
| 13> C 	 -43.1866 	 16.1516 	 26.1267
| 14> H 	 -44.073 	 15.5303 	 25.8437
| 15> H 	 -42.1678 	 15.728 	 25.9091
| 16> C 	 -43.2679 	 17.4962 	 25.4478
| 17> H 	 -42.3741 	 18.053 	 25.8913
| 18> H 	 -42.9459 	 17.3002 	 24.4382
| 19> C 	 -44.6166 	 18.2464 	 25.5266
| 20> H 	 -44.9935 	 18.2312 	 26.518
| 21> H 	 -44.5203 	 19.3223 	 25.3097
| 22> H 	 -45.3722 	 17.9231 	 24.8757
| 23> S 	 -44.9844 	 14.8205 	 32.2776
| 24> C 	 -46.5629 	 15.0453 	 32.9447
| 25> C 	 -47.4339 	 15.4533 	 31.9872
| 26> C 	 -46.8629 	 15.5913 	 30.6722
| 27> C 	 -45.4682 	 15.4625 	 30.7227
| 28> H 	 -48.4466 	 15.6246 	 32.3321
| 29> C 	 -47.6185 	 15.9367 	 29.432
| 30> H 	 -47.4011 	 15.1056 	 28.7008
| 31> H 	 -47.2094 	 16.8971 	 29.1372
| 32> C 	 -49.1697 	 16.1785 	 29.5601
| 33> H 	 -49.5835 	 16.8022 	 28.8396
| 34> H 	 -49.3727 	 16.6606 	 30.4968
| 35> C 	 -49.9134 	 14.9093 	 29.626
| 36> H 	 -49.6115 	 14.2626 	 28.8515
| 37> H 	 -50.9712 	 15.047 	 29.5172
| 38> H 	 -49.7849 	 14.4211 	 30.5986
| 39> H 	 -41.5461 	 17.3744 	 28.268
| 40> H 	 -46.8659 	 15.083 	 33.9468
| 41> *
| 42>
| 43>                          ****END OF INPUT****

CARTESIAN COORDINATES (ANGSTROEM)
---------------------------------
  S    -43.007100   16.538100   30.210300
  C    -42.428700   16.813000   28.539400
  C    -43.251200   16.123500   27.627700
  C    -44.383600   15.491100   28.312400
  C    -44.431700   15.673800   29.697100
  H    -45.273800   15.064700   27.896800
  C    -43.186600   16.151600   26.126700
  H    -44.073000   15.530300   25.843700
  H    -42.167800   15.728000   25.909100
  C    -43.267900   17.496200   25.447800
  H    -42.374100   18.053000   25.891300
  H    -42.945900   17.300200   24.438200
  C    -44.616600   18.246400   25.526600
  H    -44.993500   18.231200   26.518000
  H    -44.520300   19.322300   25.309700
  H    -45.372200   17.923100   24.875700
  S    -44.984400   14.820500   32.277600
  C    -46.562900   15.045300   32.944700
  C    -47.433900   15.453300   31.987200
  C    -46.862900   15.591300   30.672200
  C    -45.468200   15.462500   30.722700
  H    -48.446600   15.624600   32.332100
  C    -47.618500   15.936700   29.432000
  H    -47.401100   15.105600   28.700800
  H    -47.209400   16.897100   29.137200
  C    -49.169700   16.178500   29.560100
  H    -49.583500   16.802200   28.839600
  H    -49.372700   16.660600   30.496800
  C    -49.913400   14.909300   29.626000
  H    -49.611500   14.262600   28.851500
  H    -50.971200   15.047000   29.517200
  H    -49.784900   14.421100   30.598600
  H    -41.546100   17.374400   28.268000
  H    -46.865900   15.083000   33.946800

 Total Charge           Charge          ....    0
 Multiplicity           Mult            ....    1
 Number of Electrons    NEL             ....  134
 Basis Dimension        Dim             ....  322

ORBITAL ENERGIES
----------------

  NO   OCC          E(Eh)            E(eV)
   0   2.0000     -88.964673     -2420.8518
   1   2.0000     -88.963877     -2420.8302
   2   2.0000     -10.332681      -281.1665
   3   2.0000     -10.329518      -281.0805
   4   2.0000     -10.319865      -280.8178
   5   2.0000     -10.308317      -280.5036
   6   2.0000     -10.307891      -280.4920
   7   2.0000     -10.307263      -280.4749
   8   2.0000     -10.298071      -280.2248
   9   2.0000     -10.297853      -280.2188
  10   2.0000     -10.296958      -280.1945
  11   2.0000     -10.292935      -280.0850
  12   2.0000     -10.291940      -280.0579
  13   2.0000     -10.279283      -279.7135
  14   2.0000     -10.274507      -279.5836
  15   2.0000     -10.266862      -279.3755
  16   2.0000      -8.079689      -219.8595
  17   2.0000      -8.078071      -219.8155
  18   2.0000      -6.038311      -164.3108
  19   2.0000      -6.036684      -164.2665
  20   2.0000      -6.034107      -164.1964
  21   2.0000      -6.032483      -164.1522
  22   2.0000      -6.030369      -164.0947
  23   2.0000      -6.028895      -164.0546
  24   2.0000      -1.006065       -27.3764
  25   2.0000      -0.979987       -26.6668
  26   2.0000      -0.917271       -24.9602
  27   2.0000      -0.915083       -24.9007
  28   2.0000      -0.869287       -23.6545
  29   2.0000      -0.856410       -23.3041
  30   2.0000      -0.840029       -22.8584
  31   2.0000      -0.818109       -22.2619
  32   2.0000      -0.787912       -21.4402
  33   2.0000      -0.774528       -21.0760
  34   2.0000      -0.711798       -19.3690
  35   2.0000      -0.707708       -19.2577
  36   2.0000      -0.699694       -19.0396
  37   2.0000      -0.654023       -17.7969
  38   2.0000      -0.637909       -17.3584
  39   2.0000      -0.611157       -16.6304
  40   2.0000      -0.597465       -16.2578
  41   2.0000      -0.571302       -15.5459
  42   2.0000      -0.561437       -15.2775
  43   2.0000      -0.557195       -15.1621
  44   2.0000      -0.546294       -14.8654
  45   2.0000      -0.543221       -14.7818
  46   2.0000      -0.524983       -14.2855
  47   2.0000      -0.513076       -13.9615
  48   2.0000      -0.506331       -13.7780
  49   2.0000      -0.498823       -13.5737
  50   2.0000      -0.492605       -13.4045
  51   2.0000      -0.480362       -13.0713
  52   2.0000      -0.473299       -12.8791
  53   2.0000      -0.468541       -12.7496
  54   2.0000      -0.461779       -12.5657
  55   2.0000      -0.446877       -12.1601
  56   2.0000      -0.444592       -12.0980
  57   2.0000      -0.439780       -11.9670
  58   2.0000      -0.434514       -11.8237
  59   2.0000      -0.426120       -11.5953
  60   2.0000      -0.420009       -11.4290
  61   2.0000      -0.416290       -11.3278
  62   2.0000      -0.405725       -11.0403
  63   2.0000      -0.347750        -9.4628
  64   2.0000      -0.328274        -8.9328
  65   2.0000      -0.327108        -8.9011
  66   2.0000      -0.290022        -7.8919
  67   0.0000       0.023768         0.6468
  68   0.0000       0.070369         1.9148
  69   0.0000       0.111051         3.0218
  70   0.0000       0.119724         3.2578
  71   0.0000       0.128325         3.4919

MULLIKEN ATOMIC CHARGES
-----------------------
   0 S :    0.099065
   1 C :   -0.127537
   2 C :   -0.094365
   3 C :    0.029033
   4 C :   -0.154988
   5 H :   -0.004102
   6 C :    0.031090
   7 H :    0.030740
   8 H :    0.048980
   9 C :   -0.059041
  10 H :    0.024079
  11 H :    0.025726
  12 C :   -0.019283
  13 H :    0.030378
  14 H :    0.031938
  15 H :    0.024647
  16 S :    0.110571
  17 C :   -0.050138
  18 C :   -0.069318
  19 C :   -0.029761
  20 C :   -0.148032
  21 H :    0.016797
  22 C :    0.016287
  23 H :    0.058423
  24 H :    0.049925
  25 C :   -0.020235
  26 H :    0.013753
  27 H :    0.014091
  28 C :   -0.033252
  29 H :    0.014365
  30 H :    0.023433
  31 H :    0.030213
  32 H :    0.052036
  33 H :    0.034481
Sum of atomic charges:   -0.0000000

LOEWDIN ATOMIC CHARGES
----------------------
   0 S :    0.397858
   1 C :   -0.191687
   2 C :   -0.061361
   3 C :   -0.071783
   4 C :   -0.191701
   5 H :    0.023896
   6 C :   -0.041058
   7 H :    0.033888
   8 H :    0.044601
   9 C :   -0.042079
  10 H :    0.029092
  11 H :    0.022733
  12 C :   -0.063350
  13 H :    0.024791
  14 H :    0.033888
  15 H :    0.020440
  16 S :    0.411934
  17 C :   -0.187610
  18 C :   -0.076189
  19 C :   -0.053623
  20 C :   -0.203343
  21 H :    0.031110
  22 C :   -0.032482
  23 H :    0.037989
  24 H :    0.040199
  25 C :   -0.034353
  26 H :    0.017829
  27 H :    0.022907
  28 C :   -0.060236
  29 H :    0.016354
  30 H :    0.023798
  31 H :    0.026073
  32 H :    0.027265
  33 H :    0.024210

  Mayer bond orders larger than 0.100000
B(  0-S ,  1-C ) :   1.1355 B(  0-S ,  4-C ) :   1.1582 B(  1-C ,  2-C ) :   1.5955
B(  1-C ,  4-C ) :   0.1005 B(  1-C , 32-H ) :   0.9728 B(  2-C ,  3-C ) :   1.2212
B(  2-C ,  6-C ) :   1.0195 B(  3-C ,  4-C ) :   1.5881 B(  3-C ,  5-H ) :   0.9908
B(  4-C , 20-C ) :   1.0291 B(  6-C ,  7-H ) :   0.9436 B(  6-C ,  8-H ) :   0.9295
B(  6-C ,  9-C ) :   1.0891 B(  9-C , 10-H ) :   0.9518 B(  9-C , 11-H ) :   0.9536
B(  9-C , 12-C ) :   1.0620 B( 12-C , 13-H ) :   0.9777 B( 12-C , 14-H ) :   0.9719
B( 12-C , 15-H ) :   0.9745 B( 16-S , 17-C ) :   1.1438 B( 16-S , 20-C ) :   1.1469
B( 17-C , 18-C ) :   1.6438 B( 17-C , 33-H ) :   0.9627 B( 18-C , 19-C ) :   1.2240
B( 18-C , 21-H ) :   0.9844 B( 19-C , 20-C ) :   1.5865 B( 19-C , 22-C ) :   1.0231
B( 22-C , 23-H ) :   0.9349 B( 22-C , 24-H ) :   0.9286 B( 22-C , 25-C ) :   1.0869
B( 25-C , 26-H ) :   0.9543 B( 25-C , 27-H ) :   0.9462 B( 25-C , 28-C ) :   1.0893
B( 28-C , 29-H ) :   0.9716 B( 28-C , 30-H ) :   0.9694 B( 28-C , 31-H ) :   0.9748

Dispersion correction           -0.014271417
FINAL SINGLE POINT ENERGY     -1339.863290877469

DIPOLE MOMENT
-------------
                                X             Y             Z
Electronic contribution:     16.47736      -6.21704      22.17423
Nuclear contribution   :    -17.04365       6.53616     -22.71265
                        -----------------------------------------
Total Dipole Moment    :     -0.56629       0.31912      -0.53842
                        -----------------------------------------
Magnitude (a.u.)       :      0.84405
Magnitude (Debye)      :      2.14541

Rotational constants in cm-1:     0.018797     0.008906     0.006427
Rotational constants in MHz :   563.524159   267.007259   192.677368

                             ****ORCA TERMINATED NORMALLY****
TOTAL RUN TIME: 0 days 0 hours 0 minutes 21 seconds 833 msec
