                         Program Version 4.2.1 -  RELEASE  -
|  1> ! wB97X-D3 SP def2-SVP
|  2> %pal
|  3> nprocs 24
|  4> end
|  5>
|  6> * xyz 0 1
|  7> S 	 -103.162 	 20.0724 	 -115.757
|  8> C 	 -102.816 	 18.4097 	 -116.136
|  9> C 	 -103.95 	 17.6664 	 -116.352
| 10> C 	 -105.083 	 18.5441 	 -116.411
| 11> C 	 -104.832 	 19.8255 	 -116.059
| 12> H 	 -106.08 	 18.2225 	 -116.618
| 13> C 	 -104.191 	 16.1553 	 -116.624
| 14> H 	 -103.833 	 15.9189 	 -117.582
| 15> H 	 -105.308 	 16.0579 	 -116.739
| 16> C 	 -103.611 	 15.238 	 -115.561
| 17> H 	 -103.707 	 14.2234 	 -115.957
| 18> H 	 -102.543 	 15.516 	 -115.511
| 19> C 	 -104.257 	 15.2378 	 -114.199
| 20> H 	 -104.689 	 14.2203 	 -113.941
| 21> H 	 -103.491 	 15.3329 	 -113.47
| 22> H 	 -105.038 	 16.026 	 -113.945
| 23> S 	 -105.662 	 21.7583 	 -114.41
| 24> C 	 -107.146 	 22.6333 	 -114.76
| 25> C 	 -107.552 	 22.4539 	 -116.07
| 26> C 	 -106.724 	 21.5492 	 -116.75
| 27> C 	 -105.779 	 20.931 	 -115.977
| 28> H 	 -108.383 	 22.9888 	 -116.462
| 29> C 	 -106.995 	 21.1317 	 -118.176
| 30> H 	 -107.665 	 21.8175 	 -118.673
| 31> H 	 -107.801 	 20.2882 	 -118.139
| 32> C 	 -105.665 	 20.7994 	 -119.005
| 33> H 	 -105.17 	 19.99 	 -118.524
| 34> H 	 -105.116 	 21.6732 	 -118.828
| 35> C 	 -105.914 	 20.3836 	 -120.476
| 36> H 	 -106.611 	 21.0466 	 -120.997
| 37> H 	 -106.44 	 19.4071 	 -120.488
| 38> H 	 -104.936 	 20.3292 	 -120.962
| 39> H 	 -101.885 	 17.932 	 -115.958
| 40> H 	 -107.683 	 23.3568 	 -114.183
| 41> *
| 42>
| 43>                          ****END OF INPUT****

CARTESIAN COORDINATES (ANGSTROEM)
---------------------------------
  S    -103.162000   20.072400  -115.757000
  C    -102.816000   18.409700  -116.136000
  C    -103.950000   17.666400  -116.352000
  C    -105.083000   18.544100  -116.411000
  C    -104.832000   19.825500  -116.059000
  H    -106.080000   18.222500  -116.618000
  C    -104.191000   16.155300  -116.624000
  H    -103.833000   15.918900  -117.582000
  H    -105.308000   16.057900  -116.739000
  C    -103.611000   15.238000  -115.561000
  H    -103.707000   14.223400  -115.957000
  H    -102.543000   15.516000  -115.511000
  C    -104.257000   15.237800  -114.199000
  H    -104.689000   14.220300  -113.941000
  H    -103.491000   15.332900  -113.470000
  H    -105.038000   16.026000  -113.945000
  S    -105.662000   21.758300  -114.410000
  C    -107.146000   22.633300  -114.760000
  C    -107.552000   22.453900  -116.070000
  C    -106.724000   21.549200  -116.750000
  C    -105.779000   20.931000  -115.977000
  H    -108.383000   22.988800  -116.462000
  C    -106.995000   21.131700  -118.176000
  H    -107.665000   21.817500  -118.673000
  H    -107.801000   20.288200  -118.139000
  C    -105.665000   20.799400  -119.005000
  H    -105.170000   19.990000  -118.524000
  H    -105.116000   21.673200  -118.828000
  C    -105.914000   20.383600  -120.476000
  H    -106.611000   21.046600  -120.997000
  H    -106.440000   19.407100  -120.488000
  H    -104.936000   20.329200  -120.962000
  H    -101.885000   17.932000  -115.958000
  H    -107.683000   23.356800  -114.183000

 Total Charge           Charge          ....    0
 Multiplicity           Mult            ....    1
 Number of Electrons    NEL             ....  134
 Basis Dimension        Dim             ....  322

ORBITAL ENERGIES
----------------

  NO   OCC          E(Eh)            E(eV)
   0   2.0000     -88.966444     -2420.9000
   1   2.0000     -88.963238     -2420.8128
   2   2.0000     -10.323864      -280.9266
   3   2.0000     -10.323649      -280.9208
   4   2.0000     -10.315568      -280.7009
   5   2.0000     -10.309724      -280.5418
   6   2.0000     -10.300639      -280.2946
   7   2.0000     -10.300305      -280.2855
   8   2.0000     -10.295737      -280.1612
   9   2.0000     -10.295045      -280.1424
  10   2.0000     -10.289168      -279.9825
  11   2.0000     -10.288663      -279.9687
  12   2.0000     -10.285375      -279.8793
  13   2.0000     -10.279853      -279.7290
  14   2.0000     -10.279489      -279.7191
  15   2.0000     -10.278047      -279.6799
  16   2.0000      -8.082034      -219.9233
  17   2.0000      -8.077691      -219.8051
  18   2.0000      -6.040575      -164.3724
  19   2.0000      -6.036450      -164.2602
  20   2.0000      -6.036226      -164.2541
  21   2.0000      -6.032673      -164.1574
  22   2.0000      -6.032341      -164.1483
  23   2.0000      -6.028324      -164.0390
  24   2.0000      -1.013257       -27.5721
  25   2.0000      -0.987739       -26.8777
  26   2.0000      -0.913653       -24.8618
  27   2.0000      -0.897761       -24.4293
  28   2.0000      -0.871746       -23.7214
  29   2.0000      -0.850463       -23.1423
  30   2.0000      -0.846371       -23.0309
  31   2.0000      -0.815480       -22.1903
  32   2.0000      -0.786220       -21.3941
  33   2.0000      -0.768680       -20.9169
  34   2.0000      -0.713041       -19.4028
  35   2.0000      -0.701185       -19.0802
  36   2.0000      -0.691229       -18.8093
  37   2.0000      -0.665335       -18.1047
  38   2.0000      -0.643443       -17.5090
  39   2.0000      -0.614165       -16.7123
  40   2.0000      -0.589375       -16.0377
  41   2.0000      -0.577199       -15.7064
  42   2.0000      -0.556816       -15.1517
  43   2.0000      -0.551979       -15.0201
  44   2.0000      -0.545793       -14.8518
  45   2.0000      -0.525175       -14.2907
  46   2.0000      -0.509184       -13.8556
  47   2.0000      -0.507726       -13.8159
  48   2.0000      -0.504540       -13.7292
  49   2.0000      -0.498930       -13.5766
  50   2.0000      -0.494842       -13.4653
  51   2.0000      -0.476448       -12.9648
  52   2.0000      -0.474579       -12.9139
  53   2.0000      -0.467424       -12.7192
  54   2.0000      -0.454757       -12.3746
  55   2.0000      -0.449023       -12.2185
  56   2.0000      -0.441283       -12.0079
  57   2.0000      -0.439228       -11.9520
  58   2.0000      -0.427317       -11.6279
  59   2.0000      -0.421144       -11.4599
  60   2.0000      -0.417000       -11.3471
  61   2.0000      -0.414670       -11.2837
  62   2.0000      -0.411274       -11.1913
  63   2.0000      -0.344531        -9.3752
  64   2.0000      -0.333307        -9.0698
  65   2.0000      -0.328098        -8.9280
  66   2.0000      -0.293752        -7.9934
  67   0.0000       0.033995         0.9251
  68   0.0000       0.064717         1.7610
  69   0.0000       0.106550         2.8994
  70   0.0000       0.122421         3.3312
  71   0.0000       0.133363         3.6290

MULLIKEN ATOMIC CHARGES
-----------------------
   0 S :    0.122586
   1 C :   -0.117107
   2 C :   -0.089753
   3 C :    0.009813
   4 C :   -0.139631
   5 H :   -0.000949
   6 C :    0.088533
   7 H :    0.025066
   8 H :    0.021834
   9 C :   -0.078350
  10 H :    0.034027
  11 H :    0.034890
  12 C :   -0.060444
  13 H :    0.035007
  14 H :    0.019895
  15 H :    0.055671
  16 S :    0.091408
  17 C :   -0.057178
  18 C :   -0.047830
  19 C :   -0.004500
  20 C :   -0.163708
  21 H :    0.007766
  22 C :    0.012185
  23 H :   -0.000977
  24 H :    0.034077
  25 C :   -0.055586
  26 H :    0.050115
  27 H :    0.026375
  28 C :   -0.031670
  29 H :    0.026227
  30 H :    0.030212
  31 H :    0.046700
  32 H :    0.032709
  33 H :    0.042590
Sum of atomic charges:   -0.0000000

LOEWDIN ATOMIC CHARGES
----------------------
   0 S :    0.422954
   1 C :   -0.200972
   2 C :   -0.057420
   3 C :   -0.066411
   4 C :   -0.208234
   5 H :    0.025894
   6 C :   -0.023367
   7 H :    0.025676
   8 H :    0.032556
   9 C :   -0.046999
  10 H :    0.029230
  11 H :    0.026906
  12 C :   -0.077979
  13 H :    0.033693
  14 H :    0.023104
  15 H :    0.037092
  16 S :    0.390549
  17 C :   -0.173913
  18 C :   -0.067985
  19 C :   -0.061724
  20 C :   -0.184416
  21 H :    0.029068
  22 C :   -0.042471
  23 H :    0.021349
  24 H :    0.037445
  25 C :   -0.030160
  26 H :    0.024655
  27 H :    0.019428
  28 C :   -0.064508
  29 H :    0.021561
  30 H :    0.029075
  31 H :    0.030893
  32 H :    0.018864
  33 H :    0.026570

  Mayer bond orders larger than 0.100000
B(  0-S ,  1-C ) :   1.1350 B(  0-S ,  4-C ) :   1.1533 B(  1-C ,  2-C ) :   1.6348
B(  1-C , 32-H ) :   0.9657 B(  2-C ,  3-C ) :   1.2312 B(  2-C ,  6-C ) :   0.9933
B(  3-C ,  4-C ) :   1.6012 B(  3-C ,  5-H ) :   1.0022 B(  4-C , 20-C ) :   1.0126
B(  6-C ,  7-H ) :   0.9369 B(  6-C ,  8-H ) :   0.9462 B(  6-C ,  9-C ) :   1.0802
B(  9-C , 10-H ) :   0.9582 B(  9-C , 11-H ) :   0.9634 B(  9-C , 12-C ) :   1.0553
B( 12-C , 13-H ) :   0.9789 B( 12-C , 14-H ) :   0.9737 B( 12-C , 15-H ) :   0.9796
B( 16-S , 17-C ) :   1.1504 B( 16-S , 20-C ) :   1.1174 B( 17-C , 18-C ) :   1.6228
B( 17-C , 20-C ) :   0.1073 B( 17-C , 33-H ) :   0.9659 B( 18-C , 19-C ) :   1.2255
B( 18-C , 21-H ) :   0.9976 B( 19-C , 20-C ) :   1.6061 B( 19-C , 22-C ) :   1.0500
B( 22-C , 23-H ) :   0.9320 B( 22-C , 24-H ) :   0.9297 B( 22-C , 25-C ) :   1.0310
B( 25-C , 26-H ) :   0.9494 B( 25-C , 27-H ) :   0.9635 B( 25-C , 28-C ) :   1.0816
B( 28-C , 29-H ) :   0.9771 B( 28-C , 30-H ) :   0.9737 B( 28-C , 31-H ) :   0.9740

Dispersion correction           -0.014827706
FINAL SINGLE POINT ENERGY     -1339.863077729819

DIPOLE MOMENT
-------------
                                X             Y             Z
Electronic contribution:      4.17233      18.60857      13.29611
Nuclear contribution   :     -4.47584     -19.02844     -13.61427
                        -----------------------------------------
Total Dipole Moment    :     -0.30352      -0.41986      -0.31816
                        -----------------------------------------
Magnitude (a.u.)       :      0.60798
Magnitude (Debye)      :      1.54535

Rotational constants in cm-1:     0.018859     0.008996     0.007354
Rotational constants in MHz :   565.391957   269.695053   220.452750

                             ****ORCA TERMINATED NORMALLY****
TOTAL RUN TIME: 0 days 0 hours 0 minutes 22 seconds 72 msec
