                         Program Version 4.2.1 -  RELEASE  -
|  1> ! wB97X-D3 SP def2-SVP
|  2> %pal
|  3> nprocs 24
|  4> end
|  5>
|  6> * xyz 0 1
|  7> S 	 -59.1817 	 12.9585 	 -98.0145
|  8> C 	 -57.6193 	 13.4333 	 -98.4656
|  9> C 	 -57.3147 	 14.7669 	 -98.1468
| 10> C 	 -58.4219 	 15.3512 	 -97.4743
| 11> C 	 -59.3825 	 14.4332 	 -97.1083
| 12> H 	 -58.5053 	 16.4106 	 -97.167
| 13> C 	 -56.0693 	 15.5018 	 -98.5839
| 14> H 	 -55.7677 	 15.1979 	 -99.5915
| 15> H 	 -55.2566 	 15.2324 	 -97.9103
| 16> C 	 -56.2581 	 16.9995 	 -98.5835
| 17> H 	 -57.2811 	 17.1752 	 -98.7868
| 18> H 	 -55.9761 	 17.3306 	 -97.5477
| 19> C 	 -55.3375 	 17.7415 	 -99.5699
| 20> H 	 -55.3611 	 17.5855 	 -100.642
| 21> H 	 -55.5331 	 18.7902 	 -99.4947
| 22> H 	 -54.2756 	 17.6283 	 -99.3381
| 23> S 	 -62.0188 	 15.0574 	 -97.5976
| 24> C 	 -63.0078 	 15.6472 	 -96.2365
| 25> C 	 -62.248 	 15.5437 	 -95.0564
| 26> C 	 -60.839 	 15.2572 	 -95.3031
| 27> C 	 -60.6095 	 14.8146 	 -96.5831
| 28> H 	 -62.7241 	 15.7736 	 -94.1986
| 29> C 	 -59.8347 	 14.9956 	 -94.1728
| 30> H 	 -59.3446 	 15.9657 	 -94.0307
| 31> H 	 -59.0051 	 14.4328 	 -94.483
| 32> C 	 -60.2689 	 14.4889 	 -92.8182
| 33> H 	 -60.9958 	 13.6302 	 -92.8547
| 34> H 	 -60.8696 	 15.1849 	 -92.2862
| 35> C 	 -59.1279 	 13.9531 	 -91.8388
| 36> H 	 -59.4767 	 13.5682 	 -90.9276
| 37> H 	 -58.4426 	 14.7578 	 -91.5565
| 38> H 	 -58.5614 	 13.1519 	 -92.28
| 39> H 	 -57.017 	 12.8313 	 -99.1147
| 40> H 	 -64.0146 	 15.9147 	 -96.3035
| 41> *
| 42>
| 43>                          ****END OF INPUT****

CARTESIAN COORDINATES (ANGSTROEM)
---------------------------------
  S    -59.181700   12.958500  -98.014500
  C    -57.619300   13.433300  -98.465600
  C    -57.314700   14.766900  -98.146800
  C    -58.421900   15.351200  -97.474300
  C    -59.382500   14.433200  -97.108300
  H    -58.505300   16.410600  -97.167000
  C    -56.069300   15.501800  -98.583900
  H    -55.767700   15.197900  -99.591500
  H    -55.256600   15.232400  -97.910300
  C    -56.258100   16.999500  -98.583500
  H    -57.281100   17.175200  -98.786800
  H    -55.976100   17.330600  -97.547700
  C    -55.337500   17.741500  -99.569900
  H    -55.361100   17.585500  -100.642000
  H    -55.533100   18.790200  -99.494700
  H    -54.275600   17.628300  -99.338100
  S    -62.018800   15.057400  -97.597600
  C    -63.007800   15.647200  -96.236500
  C    -62.248000   15.543700  -95.056400
  C    -60.839000   15.257200  -95.303100
  C    -60.609500   14.814600  -96.583100
  H    -62.724100   15.773600  -94.198600
  C    -59.834700   14.995600  -94.172800
  H    -59.344600   15.965700  -94.030700
  H    -59.005100   14.432800  -94.483000
  C    -60.268900   14.488900  -92.818200
  H    -60.995800   13.630200  -92.854700
  H    -60.869600   15.184900  -92.286200
  C    -59.127900   13.953100  -91.838800
  H    -59.476700   13.568200  -90.927600
  H    -58.442600   14.757800  -91.556500
  H    -58.561400   13.151900  -92.280000
  H    -57.017000   12.831300  -99.114700
  H    -64.014600   15.914700  -96.303500

 Total Charge           Charge          ....    0
 Multiplicity           Mult            ....    1
 Number of Electrons    NEL             ....  134
 Basis Dimension        Dim             ....  322

ORBITAL ENERGIES
----------------

  NO   OCC          E(Eh)            E(eV)
   0   2.0000     -88.967825     -2420.9376
   1   2.0000     -88.960481     -2420.7378
   2   2.0000     -10.316867      -280.7362
   3   2.0000     -10.316614      -280.7293
   4   2.0000     -10.315620      -280.7023
   5   2.0000     -10.310842      -280.5723
   6   2.0000     -10.302558      -280.3469
   7   2.0000     -10.300884      -280.3013
   8   2.0000     -10.295918      -280.1662
   9   2.0000     -10.291275      -280.0398
  10   2.0000     -10.289335      -279.9871
  11   2.0000     -10.288265      -279.9579
  12   2.0000     -10.287716      -279.9430
  13   2.0000     -10.284292      -279.8498
  14   2.0000     -10.277065      -279.6531
  15   2.0000     -10.275549      -279.6119
  16   2.0000      -8.083694      -219.9685
  17   2.0000      -8.074821      -219.7271
  18   2.0000      -6.041870      -164.4076
  19   2.0000      -6.038114      -164.3054
  20   2.0000      -6.034666      -164.2116
  21   2.0000      -6.033466      -164.1790
  22   2.0000      -6.029325      -164.0663
  23   2.0000      -6.025523      -163.9628
  24   2.0000      -1.013645       -27.5827
  25   2.0000      -0.980766       -26.6880
  26   2.0000      -0.918274       -24.9875
  27   2.0000      -0.900847       -24.5133
  28   2.0000      -0.877568       -23.8798
  29   2.0000      -0.851973       -23.1834
  30   2.0000      -0.840893       -22.8819
  31   2.0000      -0.814464       -22.1627
  32   2.0000      -0.785743       -21.3812
  33   2.0000      -0.774164       -21.0661
  34   2.0000      -0.717320       -19.5193
  35   2.0000      -0.706347       -19.2207
  36   2.0000      -0.691744       -18.8233
  37   2.0000      -0.658876       -17.9289
  38   2.0000      -0.644916       -17.5491
  39   2.0000      -0.623883       -16.9767
  40   2.0000      -0.597134       -16.2488
  41   2.0000      -0.576560       -15.6890
  42   2.0000      -0.564931       -15.3725
  43   2.0000      -0.555884       -15.1264
  44   2.0000      -0.532082       -14.4787
  45   2.0000      -0.523258       -14.2386
  46   2.0000      -0.516848       -14.0642
  47   2.0000      -0.512488       -13.9455
  48   2.0000      -0.501504       -13.6466
  49   2.0000      -0.496697       -13.5158
  50   2.0000      -0.487726       -13.2717
  51   2.0000      -0.481639       -13.1061
  52   2.0000      -0.472955       -12.8698
  53   2.0000      -0.466214       -12.6863
  54   2.0000      -0.464602       -12.6425
  55   2.0000      -0.453985       -12.3535
  56   2.0000      -0.446524       -12.1505
  57   2.0000      -0.433913       -11.8074
  58   2.0000      -0.431829       -11.7507
  59   2.0000      -0.428784       -11.6678
  60   2.0000      -0.423628       -11.5275
  61   2.0000      -0.418096       -11.3770
  62   2.0000      -0.403535       -10.9808
  63   2.0000      -0.343463        -9.3461
  64   2.0000      -0.324959        -8.8426
  65   2.0000      -0.323348        -8.7987
  66   2.0000      -0.295425        -8.0389
  67   0.0000       0.033524         0.9122
  68   0.0000       0.059011         1.6058
  69   0.0000       0.116322         3.1653
  70   0.0000       0.125413         3.4127
  71   0.0000       0.131567         3.5801

MULLIKEN ATOMIC CHARGES
-----------------------
   0 S :    0.128629
   1 C :   -0.103298
   2 C :   -0.107595
   3 C :   -0.007319
   4 C :   -0.175368
   5 H :    0.039263
   6 C :    0.100270
   7 H :    0.021929
   8 H :    0.039145
   9 C :   -0.096836
  10 H :    0.037635
  11 H :    0.039140
  12 C :   -0.038680
  13 H :    0.030919
  14 H :    0.022526
  15 H :    0.024876
  16 S :    0.101525
  17 C :   -0.087721
  18 C :    0.012114
  19 C :   -0.029475
  20 C :   -0.143274
  21 H :   -0.022056
  22 C :    0.100418
  23 H :    0.018658
  24 H :    0.013917
  25 C :   -0.083885
  26 H :    0.030578
  27 H :    0.016616
  28 C :   -0.042753
  29 H :    0.018998
  30 H :    0.028860
  31 H :    0.033350
  32 H :    0.037126
  33 H :    0.041769
Sum of atomic charges:   -0.0000000

LOEWDIN ATOMIC CHARGES
----------------------
   0 S :    0.443132
   1 C :   -0.204774
   2 C :   -0.065613
   3 C :   -0.051705
   4 C :   -0.214168
   5 H :    0.039825
   6 C :   -0.032518
   7 H :    0.029066
   8 H :    0.035151
   9 C :   -0.038123
  10 H :    0.020038
  11 H :    0.034492
  12 C :   -0.069859
  13 H :    0.024819
  14 H :    0.025168
  15 H :    0.026110
  16 S :    0.383725
  17 C :   -0.165811
  18 C :   -0.050509
  19 C :   -0.050001
  20 C :   -0.204152
  21 H :    0.009844
  22 C :   -0.034212
  23 H :    0.036196
  24 H :    0.024286
  25 C :   -0.041956
  26 H :    0.028275
  27 H :    0.014742
  28 C :   -0.058001
  29 H :    0.019873
  30 H :    0.024046
  31 H :    0.023904
  32 H :    0.020627
  33 H :    0.018082

  Mayer bond orders larger than 0.100000
B(  0-S ,  1-C ) :   1.1821 B(  0-S ,  4-C ) :   1.1507 B(  1-C ,  2-C ) :   1.5682
B(  1-C , 32-H ) :   0.9722 B(  2-C ,  3-C ) :   1.2870 B(  2-C ,  6-C ) :   1.0105
B(  3-C ,  4-C ) :   1.5314 B(  3-C ,  5-H ) :   0.9850 B(  4-C , 20-C ) :   1.0666
B(  6-C ,  7-H ) :   0.9466 B(  6-C ,  8-H ) :   0.9237 B(  6-C ,  9-C ) :   1.0837
B(  9-C , 10-H ) :   0.9582 B(  9-C , 11-H ) :   0.9459 B(  9-C , 12-C ) :   1.0872
B( 12-C , 13-H ) :   0.9754 B( 12-C , 14-H ) :   0.9714 B( 12-C , 15-H ) :   0.9727
B( 16-S , 17-C ) :   1.1405 B( 16-S , 20-C ) :   1.1278 B( 17-C , 18-C ) :   1.6197
B( 17-C , 33-H ) :   0.9756 B( 18-C , 19-C ) :   1.2103 B( 18-C , 21-H ) :   1.0045
B( 19-C , 20-C ) :   1.6127 B( 19-C , 22-C ) :   1.0402 B( 22-C , 23-H ) :   0.9114
B( 22-C , 24-H ) :   0.9427 B( 22-C , 25-C ) :   1.0658 B( 25-C , 26-H ) :   0.9584
B( 25-C , 27-H ) :   0.9479 B( 25-C , 28-C ) :   1.0811 B( 28-C , 29-H ) :   0.9748
B( 28-C , 30-H ) :   0.9784 B( 28-C , 31-H ) :   0.9773

Dispersion correction           -0.013645053
FINAL SINGLE POINT ENERGY     -1339.853377485257

DIPOLE MOMENT
-------------
                                X             Y             Z
Electronic contribution:    -18.66237     -10.82461     -12.06159
Nuclear contribution   :     19.09297      11.16247      12.23580
                        -----------------------------------------
Total Dipole Moment    :      0.43060       0.33786       0.17421
                        -----------------------------------------
Magnitude (a.u.)       :      0.57438
Magnitude (Debye)      :      1.45996

Rotational constants in cm-1:     0.016850     0.008039     0.007050
Rotational constants in MHz :   505.150398   241.003166   211.339018

                             ****ORCA TERMINATED NORMALLY****
TOTAL RUN TIME: 0 days 0 hours 0 minutes 21 seconds 260 msec
