                         Program Version 4.2.1 -  RELEASE  -
|  1> ! wB97X-D3 SP def2-SVP
|  2> %pal
|  3> nprocs 24
|  4> end
|  5>
|  6> * xyz 0 1
|  7> S 	 -54.5252 	 15.1174 	 -85.8496
|  8> C 	 -53.9925 	 13.7539 	 -86.8246
|  9> C 	 -53.354 	 14.3079 	 -87.8991
| 10> C 	 -53.2802 	 15.7246 	 -87.8919
| 11> C 	 -53.9349 	 16.4078 	 -86.8811
| 12> H 	 -52.7885 	 16.2863 	 -88.661
| 13> C 	 -52.6264 	 13.5112 	 -88.967
| 14> H 	 -52.4036 	 12.5053 	 -88.5992
| 15> H 	 -51.7242 	 14.0345 	 -89.3376
| 16> C 	 -53.4222 	 13.4605 	 -90.2477
| 17> H 	 -54.4443 	 13.1718 	 -90.0985
| 18> H 	 -53.4665 	 14.4755 	 -90.6834
| 19> C 	 -52.7708 	 12.5251 	 -91.2927
| 20> H 	 -51.9016 	 12.9844 	 -91.74
| 21> H 	 -52.476 	 11.5486 	 -90.9733
| 22> H 	 -53.3255 	 12.4348 	 -92.2365
| 23> S 	 -53.9201 	 18.2379 	 -84.867
| 24> C 	 -54.2575 	 19.9144 	 -85.2079
| 25> C 	 -54.4256 	 20.0933 	 -86.5907
| 26> C 	 -54.2996 	 18.9126 	 -87.4046
| 27> C 	 -54.0708 	 17.8172 	 -86.5641
| 28> H 	 -54.5069 	 21.07 	 -87.1101
| 29> C 	 -54.283 	 18.9272 	 -88.8769
| 30> H 	 -53.2053 	 18.5164 	 -89.0493
| 31> H 	 -54.1027 	 19.9799 	 -89.1597
| 32> C 	 -55.4166 	 18.2658 	 -89.696
| 33> H 	 -56.2964 	 18.8966 	 -89.7763
| 34> H 	 -55.488 	 17.2996 	 -89.2547
| 35> C 	 -54.8731 	 17.9204 	 -91.1066
| 36> H 	 -54.5509 	 18.9042 	 -91.546
| 37> H 	 -55.6295 	 17.7165 	 -91.84
| 38> H 	 -54.0703 	 17.201 	 -91.0842
| 39> H 	 -54.0196 	 12.7071 	 -86.5379
| 40> H 	 -54.0902 	 20.7105 	 -84.5202
| 41> *
| 42>
| 43>                          ****END OF INPUT****

CARTESIAN COORDINATES (ANGSTROEM)
---------------------------------
  S    -54.525200   15.117400  -85.849600
  C    -53.992500   13.753900  -86.824600
  C    -53.354000   14.307900  -87.899100
  C    -53.280200   15.724600  -87.891900
  C    -53.934900   16.407800  -86.881100
  H    -52.788500   16.286300  -88.661000
  C    -52.626400   13.511200  -88.967000
  H    -52.403600   12.505300  -88.599200
  H    -51.724200   14.034500  -89.337600
  C    -53.422200   13.460500  -90.247700
  H    -54.444300   13.171800  -90.098500
  H    -53.466500   14.475500  -90.683400
  C    -52.770800   12.525100  -91.292700
  H    -51.901600   12.984400  -91.740000
  H    -52.476000   11.548600  -90.973300
  H    -53.325500   12.434800  -92.236500
  S    -53.920100   18.237900  -84.867000
  C    -54.257500   19.914400  -85.207900
  C    -54.425600   20.093300  -86.590700
  C    -54.299600   18.912600  -87.404600
  C    -54.070800   17.817200  -86.564100
  H    -54.506900   21.070000  -87.110100
  C    -54.283000   18.927200  -88.876900
  H    -53.205300   18.516400  -89.049300
  H    -54.102700   19.979900  -89.159700
  C    -55.416600   18.265800  -89.696000
  H    -56.296400   18.896600  -89.776300
  H    -55.488000   17.299600  -89.254700
  C    -54.873100   17.920400  -91.106600
  H    -54.550900   18.904200  -91.546000
  H    -55.629500   17.716500  -91.840000
  H    -54.070300   17.201000  -91.084200
  H    -54.019600   12.707100  -86.537900
  H    -54.090200   20.710500  -84.520200

 Total Charge           Charge          ....    0
 Multiplicity           Mult            ....    1
 Number of Electrons    NEL             ....  134
 Basis Dimension        Dim             ....  322

ORBITAL ENERGIES
----------------

  NO   OCC          E(Eh)            E(eV)
   0   2.0000     -88.971603     -2421.0404
   1   2.0000     -88.959995     -2420.7245
   2   2.0000     -10.333274      -281.1827
   3   2.0000     -10.331548      -281.1357
   4   2.0000     -10.321272      -280.8561
   5   2.0000     -10.315267      -280.6927
   6   2.0000     -10.306889      -280.4647
   7   2.0000     -10.302548      -280.3466
   8   2.0000     -10.301700      -280.3235
   9   2.0000     -10.298645      -280.2404
  10   2.0000     -10.291446      -280.0445
  11   2.0000     -10.290615      -280.0219
  12   2.0000     -10.290406      -280.0162
  13   2.0000     -10.284719      -279.8614
  14   2.0000     -10.280978      -279.7596
  15   2.0000     -10.274805      -279.5917
  16   2.0000      -8.086078      -220.0334
  17   2.0000      -8.074664      -219.7228
  18   2.0000      -6.044615      -164.4823
  19   2.0000      -6.040535      -164.3713
  20   2.0000      -6.036904      -164.2725
  21   2.0000      -6.033354      -164.1759
  22   2.0000      -6.028941      -164.0558
  23   2.0000      -6.025418      -163.9600
  24   2.0000      -1.009406       -27.4673
  25   2.0000      -0.986792       -26.8520
  26   2.0000      -0.915595       -24.9146
  27   2.0000      -0.914321       -24.8799
  28   2.0000      -0.871935       -23.7266
  29   2.0000      -0.859401       -23.3855
  30   2.0000      -0.839804       -22.8522
  31   2.0000      -0.815555       -22.1924
  32   2.0000      -0.782199       -21.2847
  33   2.0000      -0.773138       -21.0382
  34   2.0000      -0.714447       -19.4411
  35   2.0000      -0.699870       -19.0444
  36   2.0000      -0.696385       -18.9496
  37   2.0000      -0.667340       -18.1592
  38   2.0000      -0.644040       -17.5252
  39   2.0000      -0.622452       -16.9378
  40   2.0000      -0.593491       -16.1497
  41   2.0000      -0.581623       -15.8268
  42   2.0000      -0.574550       -15.6343
  43   2.0000      -0.560423       -15.2499
  44   2.0000      -0.526905       -14.3378
  45   2.0000      -0.523860       -14.2550
  46   2.0000      -0.519604       -14.1392
  47   2.0000      -0.514001       -13.9867
  48   2.0000      -0.509242       -13.8572
  49   2.0000      -0.498982       -13.5780
  50   2.0000      -0.494391       -13.4531
  51   2.0000      -0.487642       -13.2694
  52   2.0000      -0.471594       -12.8327
  53   2.0000      -0.469141       -12.7660
  54   2.0000      -0.460923       -12.5423
  55   2.0000      -0.455284       -12.3889
  56   2.0000      -0.442813       -12.0496
  57   2.0000      -0.439062       -11.9475
  58   2.0000      -0.430739       -11.7210
  59   2.0000      -0.423676       -11.5288
  60   2.0000      -0.417174       -11.3519
  61   2.0000      -0.413395       -11.2491
  62   2.0000      -0.402143       -10.9429
  63   2.0000      -0.355134        -9.6637
  64   2.0000      -0.333582        -9.0772
  65   2.0000      -0.325340        -8.8529
  66   2.0000      -0.289331        -7.8731
  67   0.0000       0.019932         0.5424
  68   0.0000       0.075168         2.0454
  69   0.0000       0.103705         2.8219
  70   0.0000       0.116900         3.1810
  71   0.0000       0.129318         3.5189

MULLIKEN ATOMIC CHARGES
-----------------------
   0 S :    0.078729
   1 C :   -0.121679
   2 C :   -0.069479
   3 C :    0.014342
   4 C :   -0.114668
   5 H :   -0.015863
   6 C :    0.071780
   7 H :    0.020028
   8 H :    0.026399
   9 C :   -0.084515
  10 H :    0.026162
  11 H :    0.027673
  12 C :   -0.029989
  13 H :    0.010447
  14 H :    0.027356
  15 H :    0.026264
  16 S :    0.123834
  17 C :   -0.077429
  18 C :   -0.043446
  19 C :   -0.023192
  20 C :   -0.167540
  21 H :    0.024962
  22 C :   -0.030636
  23 H :    0.054109
  24 H :    0.010601
  25 C :    0.013812
  26 H :    0.045299
  27 H :    0.039688
  28 C :   -0.063875
  29 H :    0.015594
  30 H :    0.028832
  31 H :    0.040303
  32 H :    0.057762
  33 H :    0.058336
Sum of atomic charges:    0.0000000

LOEWDIN ATOMIC CHARGES
----------------------
   0 S :    0.395679
   1 C :   -0.195213
   2 C :   -0.067624
   3 C :   -0.079141
   4 C :   -0.187472
   5 H :    0.019070
   6 C :   -0.028736
   7 H :    0.027188
   8 H :    0.035733
   9 C :   -0.039385
  10 H :    0.017725
  11 H :    0.025630
  12 C :   -0.070900
  13 H :    0.022844
  14 H :    0.019398
  15 H :    0.029882
  16 S :    0.421819
  17 C :   -0.189845
  18 C :   -0.069195
  19 C :   -0.056617
  20 C :   -0.197796
  21 H :    0.033442
  22 C :   -0.047188
  23 H :    0.048914
  24 H :    0.029743
  25 C :   -0.026695
  26 H :    0.031859
  27 H :    0.027170
  28 C :   -0.064239
  29 H :    0.026074
  30 H :    0.023316
  31 H :    0.020578
  32 H :    0.036781
  33 H :    0.027199

  Mayer bond orders larger than 0.100000
B(  0-S ,  1-C ) :   1.1305 B(  0-S ,  4-C ) :   1.1551 B(  1-C ,  2-C ) :   1.5790
B(  1-C ,  4-C ) :   0.1028 B(  1-C , 32-H ) :   0.9764 B(  2-C ,  3-C ) :   1.2676
B(  2-C ,  6-C ) :   1.0323 B(  3-C ,  4-C ) :   1.5319 B(  3-C ,  5-H ) :   0.9986
B(  4-C , 20-C ) :   1.0675 B(  6-C ,  7-H ) :   0.9464 B(  6-C ,  8-H ) :   0.9422
B(  6-C ,  9-C ) :   1.0547 B(  9-C , 10-H ) :   0.9576 B(  9-C , 11-H ) :   0.9542
B(  9-C , 12-C ) :   1.0838 B( 12-C , 13-H ) :   0.9688 B( 12-C , 14-H ) :   0.9774
B( 12-C , 15-H ) :   0.9712 B( 16-S , 17-C ) :   1.1558 B( 16-S , 20-C ) :   1.1580
B( 17-C , 18-C ) :   1.5731 B( 17-C , 20-C ) :   0.1054 B( 17-C , 33-H ) :   0.9724
B( 18-C , 19-C ) :   1.2815 B( 18-C , 21-H ) :   0.9738 B( 19-C , 20-C ) :   1.5476
B( 19-C , 22-C ) :   1.0284 B( 22-C , 23-H ) :   0.9426 B( 22-C , 24-H ) :   0.9185
B( 22-C , 25-C ) :   1.0385 B( 25-C , 26-H ) :   0.9529 B( 25-C , 27-H ) :   0.9577
B( 25-C , 28-C ) :   1.0785 B( 28-C , 29-H ) :   0.9698 B( 28-C , 30-H ) :   0.9728
B( 28-C , 31-H ) :   0.9784

Dispersion correction           -0.014597642
FINAL SINGLE POINT ENERGY     -1339.866629222175

DIPOLE MOMENT
-------------
                                X             Y             Z
Electronic contribution:     -2.96044       7.11740      32.58283
Nuclear contribution   :      3.22617      -6.92066     -33.30404
                        -----------------------------------------
Total Dipole Moment    :      0.26572       0.19673      -0.72122
                        -----------------------------------------
Magnitude (a.u.)       :      0.79339
Magnitude (Debye)      :      2.01663

Rotational constants in cm-1:     0.019741     0.009099     0.006626
Rotational constants in MHz :   591.830734   272.766813   198.646682

                             ****ORCA TERMINATED NORMALLY****
TOTAL RUN TIME: 0 days 0 hours 0 minutes 21 seconds 113 msec
