                         Program Version 4.2.1 -  RELEASE  -
|  1> ! wB97X-D3 SP def2-SVP
|  2> %pal
|  3> nprocs 24
|  4> end
|  5>
|  6> * xyz 0 1
|  7> S 	 -114.876 	 38.5303 	 -117.011
|  8> C 	 -113.356 	 38.0446 	 -117.77
|  9> C 	 -112.405 	 37.6487 	 -116.87
| 10> C 	 -112.886 	 37.8185 	 -115.503
| 11> C 	 -114.232 	 38.2516 	 -115.47
| 12> H 	 -112.414 	 37.6528 	 -114.613
| 13> C 	 -110.987 	 37.2119 	 -117.217
| 14> H 	 -110.454 	 37.7827 	 -117.985
| 15> H 	 -111.088 	 36.2519 	 -117.675
| 16> C 	 -109.986 	 37.1319 	 -116.078
| 17> H 	 -109.913 	 38.0219 	 -115.525
| 18> H 	 -110.34 	 36.3782 	 -115.419
| 19> C 	 -108.581 	 36.865 	 -116.623
| 20> H 	 -108.701 	 36.0741 	 -117.392
| 21> H 	 -108.267 	 37.8343 	 -117.011
| 22> H 	 -107.904 	 36.5633 	 -115.816
| 23> S 	 -115.861 	 40.0416 	 -114.127
| 24> C 	 -116.157 	 39.8085 	 -112.397
| 25> C 	 -115.664 	 38.59 	 -112.001
| 26> C 	 -115.11 	 37.7783 	 -113.034
| 27> C 	 -114.986 	 38.4984 	 -114.258
| 28> H 	 -115.731 	 38.3128 	 -110.976
| 29> C 	 -114.538 	 36.367 	 -112.873
| 30> H 	 -114.676 	 36.1326 	 -111.856
| 31> H 	 -113.475 	 36.2742 	 -113.146
| 32> C 	 -115.244 	 35.2877 	 -113.651
| 33> H 	 -114.868 	 35.2668 	 -114.662
| 34> H 	 -116.268 	 35.5295 	 -113.78
| 35> C 	 -115.15 	 33.9339 	 -112.969
| 36> H 	 -115.455 	 33.0949 	 -113.607
| 37> H 	 -115.883 	 33.9125 	 -112.181
| 38> H 	 -114.117 	 33.8081 	 -112.561
| 39> H 	 -113.196 	 38.0457 	 -118.813
| 40> H 	 -116.578 	 40.4949 	 -111.685
| 41> *
| 42>
| 43>                          ****END OF INPUT****

CARTESIAN COORDINATES (ANGSTROEM)
---------------------------------
  S    -114.876000   38.530300  -117.011000
  C    -113.356000   38.044600  -117.770000
  C    -112.405000   37.648700  -116.870000
  C    -112.886000   37.818500  -115.503000
  C    -114.232000   38.251600  -115.470000
  H    -112.414000   37.652800  -114.613000
  C    -110.987000   37.211900  -117.217000
  H    -110.454000   37.782700  -117.985000
  H    -111.088000   36.251900  -117.675000
  C    -109.986000   37.131900  -116.078000
  H    -109.913000   38.021900  -115.525000
  H    -110.340000   36.378200  -115.419000
  C    -108.581000   36.865000  -116.623000
  H    -108.701000   36.074100  -117.392000
  H    -108.267000   37.834300  -117.011000
  H    -107.904000   36.563300  -115.816000
  S    -115.861000   40.041600  -114.127000
  C    -116.157000   39.808500  -112.397000
  C    -115.664000   38.590000  -112.001000
  C    -115.110000   37.778300  -113.034000
  C    -114.986000   38.498400  -114.258000
  H    -115.731000   38.312800  -110.976000
  C    -114.538000   36.367000  -112.873000
  H    -114.676000   36.132600  -111.856000
  H    -113.475000   36.274200  -113.146000
  C    -115.244000   35.287700  -113.651000
  H    -114.868000   35.266800  -114.662000
  H    -116.268000   35.529500  -113.780000
  C    -115.150000   33.933900  -112.969000
  H    -115.455000   33.094900  -113.607000
  H    -115.883000   33.912500  -112.181000
  H    -114.117000   33.808100  -112.561000
  H    -113.196000   38.045700  -118.813000
  H    -116.578000   40.494900  -111.685000

 Total Charge           Charge          ....    0
 Multiplicity           Mult            ....    1
 Number of Electrons    NEL             ....  134
 Basis Dimension        Dim             ....  322

ORBITAL ENERGIES
----------------

  NO   OCC          E(Eh)            E(eV)
   0   2.0000     -88.968905     -2420.9670
   1   2.0000     -88.965218     -2420.8667
   2   2.0000     -10.330152      -281.0977
   3   2.0000     -10.328423      -281.0507
   4   2.0000     -10.317658      -280.7577
   5   2.0000     -10.309781      -280.5434
   6   2.0000     -10.307456      -280.4801
   7   2.0000     -10.306329      -280.4495
   8   2.0000     -10.292988      -280.0864
   9   2.0000     -10.292907      -280.0842
  10   2.0000     -10.291110      -280.0354
  11   2.0000     -10.286662      -279.9143
  12   2.0000     -10.283495      -279.8281
  13   2.0000     -10.277369      -279.6614
  14   2.0000     -10.276862      -279.6476
  15   2.0000     -10.270692      -279.4797
  16   2.0000      -8.084274      -219.9843
  17   2.0000      -8.079158      -219.8451
  18   2.0000      -6.042720      -164.4308
  19   2.0000      -6.038657      -164.3202
  20   2.0000      -6.037745      -164.2954
  21   2.0000      -6.035117      -164.2239
  22   2.0000      -6.033680      -164.1848
  23   2.0000      -6.029961      -164.0836
  24   2.0000      -1.005899       -27.3719
  25   2.0000      -0.980075       -26.6692
  26   2.0000      -0.920648       -25.0521
  27   2.0000      -0.912943       -24.8424
  28   2.0000      -0.873846       -23.7786
  29   2.0000      -0.850664       -23.1477
  30   2.0000      -0.844765       -22.9872
  31   2.0000      -0.814075       -22.1521
  32   2.0000      -0.783364       -21.3164
  33   2.0000      -0.771324       -20.9888
  34   2.0000      -0.714992       -19.4559
  35   2.0000      -0.698669       -19.0118
  36   2.0000      -0.688483       -18.7346
  37   2.0000      -0.662178       -18.0188
  38   2.0000      -0.646937       -17.6040
  39   2.0000      -0.621727       -16.9181
  40   2.0000      -0.598421       -16.2839
  41   2.0000      -0.580927       -15.8078
  42   2.0000      -0.571634       -15.5550
  43   2.0000      -0.565960       -15.4005
  44   2.0000      -0.527498       -14.3539
  45   2.0000      -0.527019       -14.3409
  46   2.0000      -0.517232       -14.0746
  47   2.0000      -0.512360       -13.9420
  48   2.0000      -0.504523       -13.7288
  49   2.0000      -0.502438       -13.6720
  50   2.0000      -0.492429       -13.3997
  51   2.0000      -0.481342       -13.0980
  52   2.0000      -0.469812       -12.7842
  53   2.0000      -0.466172       -12.6852
  54   2.0000      -0.456914       -12.4333
  55   2.0000      -0.455713       -12.4006
  56   2.0000      -0.446469       -12.1490
  57   2.0000      -0.439588       -11.9618
  58   2.0000      -0.433556       -11.7977
  59   2.0000      -0.430705       -11.7201
  60   2.0000      -0.418501       -11.3880
  61   2.0000      -0.414955       -11.2915
  62   2.0000      -0.414022       -11.2661
  63   2.0000      -0.347057        -9.4439
  64   2.0000      -0.332916        -9.0591
  65   2.0000      -0.330263        -8.9869
  66   2.0000      -0.286556        -7.7976
  67   0.0000       0.023048         0.6272
  68   0.0000       0.072811         1.9813
  69   0.0000       0.107987         2.9385
  70   0.0000       0.119931         3.2635
  71   0.0000       0.137789         3.7494

MULLIKEN ATOMIC CHARGES
-----------------------
   0 S :    0.124864
   1 C :   -0.117156
   2 C :   -0.042301
   3 C :    0.034519
   4 C :   -0.138247
   5 H :   -0.024725
   6 C :    0.048371
   7 H :    0.023622
   8 H :    0.028161
   9 C :   -0.081191
  10 H :    0.024759
  11 H :    0.021490
  12 C :   -0.040838
  13 H :    0.036450
  14 H :    0.038656
  15 H :    0.040713
  16 S :    0.096889
  17 C :   -0.079308
  18 C :   -0.035635
  19 C :   -0.043514
  20 C :   -0.158209
  21 H :    0.008325
  22 C :    0.090511
  23 H :   -0.007846
  24 H :    0.037307
  25 C :   -0.050126
  26 H :    0.029333
  27 H :    0.015951
  28 C :   -0.060709
  29 H :    0.035840
  30 H :    0.026688
  31 H :    0.037086
  32 H :    0.026493
  33 H :    0.053778
Sum of atomic charges:    0.0000000

LOEWDIN ATOMIC CHARGES
----------------------
   0 S :    0.427746
   1 C :   -0.188854
   2 C :   -0.051428
   3 C :   -0.053261
   4 C :   -0.210660
   5 H :    0.011959
   6 C :   -0.033516
   7 H :    0.030910
   8 H :    0.031727
   9 C :   -0.039798
  10 H :    0.017748
  11 H :    0.015478
  12 C :   -0.057543
  13 H :    0.027437
  14 H :    0.027589
  15 H :    0.029280
  16 S :    0.386559
  17 C :   -0.180824
  18 C :   -0.069367
  19 C :   -0.052118
  20 C :   -0.187990
  21 H :    0.027174
  22 C :   -0.028250
  23 H :    0.020375
  24 H :    0.033835
  25 C :   -0.040843
  26 H :    0.022166
  27 H :    0.019052
  28 C :   -0.063940
  29 H :    0.028700
  30 H :    0.022206
  31 H :    0.027683
  32 H :    0.018780
  33 H :    0.031986

  Mayer bond orders larger than 0.100000
B(  0-S ,  1-C ) :   1.1269 B(  0-S ,  4-C ) :   1.1759 B(  1-C ,  2-C ) :   1.6314
B(  1-C , 32-H ) :   0.9792 B(  2-C ,  3-C ) :   1.2291 B(  2-C ,  6-C ) :   0.9975
B(  3-C ,  4-C ) :   1.5358 B(  3-C ,  5-H ) :   1.0079 B(  4-C , 20-C ) :   1.0590
B(  6-C ,  7-H ) :   0.9510 B(  6-C ,  8-H ) :   0.9218 B(  6-C ,  9-C ) :   1.0903
B(  9-C , 10-H ) :   0.9567 B(  9-C , 11-H ) :   0.9438 B(  9-C , 12-C ) :   1.0798
B( 12-C , 13-H ) :   0.9758 B( 12-C , 14-H ) :   0.9759 B( 12-C , 15-H ) :   0.9717
B( 16-S , 17-C ) :   1.1424 B( 16-S , 20-C ) :   1.1400 B( 17-C , 18-C ) :   1.6117
B( 17-C , 20-C ) :   0.1056 B( 17-C , 33-H ) :   0.9672 B( 18-C , 19-C ) :   1.2599
B( 18-C , 21-H ) :   0.9904 B( 19-C , 20-C ) :   1.5468 B( 19-C , 22-C ) :   1.0481
B( 22-C , 23-H ) :   0.9293 B( 22-C , 24-H ) :   0.9300 B( 22-C , 25-C ) :   1.0621
B( 25-C , 26-H ) :   0.9507 B( 25-C , 27-H ) :   0.9562 B( 25-C , 28-C ) :   1.0875
B( 28-C , 29-H ) :   0.9726 B( 28-C , 30-H ) :   0.9748 B( 28-C , 31-H ) :   0.9748

Dispersion correction           -0.013918686
FINAL SINGLE POINT ENERGY     -1339.875556423014

DIPOLE MOMENT
-------------
                                X             Y             Z
Electronic contribution:    -19.80241      21.26364      -4.20135
Nuclear contribution   :     20.28807     -21.66795       4.44310
                        -----------------------------------------
Total Dipole Moment    :      0.48565      -0.40431       0.24175
                        -----------------------------------------
Magnitude (a.u.)       :      0.67658
Magnitude (Debye)      :      1.71974

Rotational constants in cm-1:     0.016908     0.008627     0.007069
Rotational constants in MHz :   506.900990   258.635878   211.935974

                             ****ORCA TERMINATED NORMALLY****
TOTAL RUN TIME: 0 days 0 hours 0 minutes 21 seconds 648 msec
