                         Program Version 4.2.1 -  RELEASE  -
|  1> ! wB97X-D3 SP def2-SVP
|  2> %pal
|  3> nprocs 24
|  4> end
|  5>
|  6> * xyz 0 1
|  7> S 	 -63.3133 	 13.2177 	 -89.7606
|  8> C 	 -62.8091 	 14.6537 	 -90.6542
|  9> C 	 -62.602 	 15.699 	 -89.7691
| 10> C 	 -62.3892 	 15.2459 	 -88.4463
| 11> C 	 -62.6234 	 13.8995 	 -88.3102
| 12> H 	 -62.2016 	 15.7987 	 -87.5356
| 13> C 	 -62.4242 	 17.1185 	 -90.1373
| 14> H 	 -63.1786 	 17.4617 	 -90.8449
| 15> H 	 -61.5322 	 17.1738 	 -90.6558
| 16> C 	 -62.3766 	 18.1588 	 -88.9323
| 17> H 	 -61.7785 	 17.6861 	 -88.1201
| 18> H 	 -61.8274 	 19.0675 	 -89.1902
| 19> C 	 -63.7058 	 18.6005 	 -88.3373
| 20> H 	 -64.5169 	 18.5808 	 -89.0004
| 21> H 	 -64.0882 	 17.9082 	 -87.6316
| 22> H 	 -63.6261 	 19.6946 	 -87.9419
| 23> S 	 -64.039 	 12.369 	 -86.4386
| 24> C 	 -63.08 	 11.5804 	 -85.1283
| 25> C 	 -61.8054 	 12.1043 	 -85.0721
| 26> C 	 -61.4938 	 12.9614 	 -86.1874
| 27> C 	 -62.5587 	 13.1558 	 -87.0375
| 28> H 	 -61.2031 	 11.8695 	 -84.2714
| 29> C 	 -60.0591 	 13.512 	 -86.4374
| 30> H 	 -59.6085 	 13.7093 	 -85.4603
| 31> H 	 -60.2911 	 14.4613 	 -86.8149
| 32> C 	 -59.0745 	 12.6613 	 -87.2736
| 33> H 	 -57.9743 	 12.9601 	 -87.1004
| 34> H 	 -59.2545 	 12.7726 	 -88.3373
| 35> C 	 -59.0652 	 11.1622 	 -86.9194
| 36> H 	 -58.7876 	 10.9679 	 -85.8643
| 37> H 	 -58.2329 	 10.6723 	 -87.4492
| 38> H 	 -60.0023 	 10.6592 	 -87.2343
| 39> H 	 -62.8936 	 14.7311 	 -91.7746
| 40> H 	 -63.6587 	 11.1386 	 -84.2859
| 41> *
| 42>
| 43>                          ****END OF INPUT****

CARTESIAN COORDINATES (ANGSTROEM)
---------------------------------
  S    -63.313300   13.217700  -89.760600
  C    -62.809100   14.653700  -90.654200
  C    -62.602000   15.699000  -89.769100
  C    -62.389200   15.245900  -88.446300
  C    -62.623400   13.899500  -88.310200
  H    -62.201600   15.798700  -87.535600
  C    -62.424200   17.118500  -90.137300
  H    -63.178600   17.461700  -90.844900
  H    -61.532200   17.173800  -90.655800
  C    -62.376600   18.158800  -88.932300
  H    -61.778500   17.686100  -88.120100
  H    -61.827400   19.067500  -89.190200
  C    -63.705800   18.600500  -88.337300
  H    -64.516900   18.580800  -89.000400
  H    -64.088200   17.908200  -87.631600
  H    -63.626100   19.694600  -87.941900
  S    -64.039000   12.369000  -86.438600
  C    -63.080000   11.580400  -85.128300
  C    -61.805400   12.104300  -85.072100
  C    -61.493800   12.961400  -86.187400
  C    -62.558700   13.155800  -87.037500
  H    -61.203100   11.869500  -84.271400
  C    -60.059100   13.512000  -86.437400
  H    -59.608500   13.709300  -85.460300
  H    -60.291100   14.461300  -86.814900
  C    -59.074500   12.661300  -87.273600
  H    -57.974300   12.960100  -87.100400
  H    -59.254500   12.772600  -88.337300
  C    -59.065200   11.162200  -86.919400
  H    -58.787600   10.967900  -85.864300
  H    -58.232900   10.672300  -87.449200
  H    -60.002300   10.659200  -87.234300
  H    -62.893600   14.731100  -91.774600
  H    -63.658700   11.138600  -84.285900

 Total Charge           Charge          ....    0
 Multiplicity           Mult            ....    1
 Number of Electrons    NEL             ....  134
 Basis Dimension        Dim             ....  322

ORBITAL ENERGIES
----------------

  NO   OCC          E(Eh)            E(eV)
   0   2.0000     -88.966746     -2420.9082
   1   2.0000     -88.962530     -2420.7935
   2   2.0000     -10.329370      -281.0764
   3   2.0000     -10.328506      -281.0529
   4   2.0000     -10.321679      -280.8672
   5   2.0000     -10.317914      -280.7647
   6   2.0000     -10.304607      -280.4026
   7   2.0000     -10.301988      -280.3313
   8   2.0000     -10.293037      -280.0878
   9   2.0000     -10.292911      -280.0844
  10   2.0000     -10.292003      -280.0596
  11   2.0000     -10.291185      -280.0374
  12   2.0000     -10.289081      -279.9801
  13   2.0000     -10.287954      -279.9495
  14   2.0000     -10.276839      -279.6470
  15   2.0000     -10.276351      -279.6337
  16   2.0000      -8.081398      -219.9060
  17   2.0000      -8.076336      -219.7683
  18   2.0000      -6.039899      -164.3540
  19   2.0000      -6.036159      -164.2522
  20   2.0000      -6.034908      -164.2182
  21   2.0000      -6.031919      -164.1369
  22   2.0000      -6.031119      -164.1151
  23   2.0000      -6.026949      -164.0016
  24   2.0000      -1.006250       -27.3815
  25   2.0000      -0.980026       -26.6679
  26   2.0000      -0.910931       -24.7877
  27   2.0000      -0.898495       -24.4493
  28   2.0000      -0.868091       -23.6219
  29   2.0000      -0.849495       -23.1159
  30   2.0000      -0.840598       -22.8738
  31   2.0000      -0.818273       -22.2664
  32   2.0000      -0.784864       -21.3572
  33   2.0000      -0.771563       -20.9953
  34   2.0000      -0.710852       -19.3433
  35   2.0000      -0.694641       -18.9021
  36   2.0000      -0.684416       -18.6239
  37   2.0000      -0.662427       -18.0255
  38   2.0000      -0.641005       -17.4426
  39   2.0000      -0.626139       -17.0381
  40   2.0000      -0.583066       -15.8660
  41   2.0000      -0.567002       -15.4289
  42   2.0000      -0.555215       -15.1082
  43   2.0000      -0.551224       -14.9996
  44   2.0000      -0.542410       -14.7597
  45   2.0000      -0.537967       -14.6388
  46   2.0000      -0.519493       -14.1361
  47   2.0000      -0.511159       -13.9093
  48   2.0000      -0.498482       -13.5644
  49   2.0000      -0.488919       -13.3042
  50   2.0000      -0.482187       -13.1210
  51   2.0000      -0.480654       -13.0793
  52   2.0000      -0.471893       -12.8409
  53   2.0000      -0.463830       -12.6215
  54   2.0000      -0.453544       -12.3416
  55   2.0000      -0.452108       -12.3025
  56   2.0000      -0.440221       -11.9790
  57   2.0000      -0.436458       -11.8766
  58   2.0000      -0.435143       -11.8408
  59   2.0000      -0.422409       -11.4943
  60   2.0000      -0.420195       -11.4341
  61   2.0000      -0.413556       -11.2534
  62   2.0000      -0.406304       -11.0561
  63   2.0000      -0.344810        -9.3828
  64   2.0000      -0.331011        -9.0073
  65   2.0000      -0.329516        -8.9666
  66   2.0000      -0.291573        -7.9341
  67   0.0000       0.027617         0.7515
  68   0.0000       0.056796         1.5455
  69   0.0000       0.098501         2.6804
  70   0.0000       0.117668         3.2019
  71   0.0000       0.130621         3.5544

MULLIKEN ATOMIC CHARGES
-----------------------
   0 S :    0.117038
   1 C :   -0.155024
   2 C :   -0.059615
   3 C :    0.010318
   4 C :   -0.148469
   5 H :    0.029575
   6 C :    0.092582
   7 H :    0.029406
   8 H :    0.025602
   9 C :   -0.111608
  10 H :    0.033222
  11 H :    0.030535
  12 C :   -0.031667
  13 H :    0.009658
  14 H :    0.023125
  15 H :    0.050850
  16 S :    0.077491
  17 C :   -0.113265
  18 C :    0.004421
  19 C :   -0.088831
  20 C :   -0.164021
  21 H :   -0.005762
  22 C :    0.158436
  23 H :    0.014822
  24 H :   -0.009751
  25 C :   -0.079232
  26 H :    0.037500
  27 H :    0.039828
  28 C :   -0.079991
  29 H :    0.028606
  30 H :    0.029369
  31 H :    0.058148
  32 H :    0.067320
  33 H :    0.079385
Sum of atomic charges:   -0.0000000

LOEWDIN ATOMIC CHARGES
----------------------
   0 S :    0.403817
   1 C :   -0.202051
   2 C :   -0.060295
   3 C :   -0.068599
   4 C :   -0.188675
   5 H :    0.034375
   6 C :   -0.028551
   7 H :    0.032582
   8 H :    0.029491
   9 C :   -0.042856
  10 H :    0.025265
  11 H :    0.026618
  12 C :   -0.071808
  13 H :    0.016781
  14 H :    0.021621
  15 H :    0.042259
  16 S :    0.358086
  17 C :   -0.174243
  18 C :   -0.053436
  19 C :   -0.058498
  20 C :   -0.183226
  21 H :    0.019724
  22 C :   -0.026874
  23 H :    0.030880
  24 H :    0.019722
  25 C :   -0.042616
  26 H :    0.033814
  27 H :    0.025216
  28 C :   -0.074733
  29 H :    0.023995
  30 H :    0.027308
  31 H :    0.031038
  32 H :    0.038120
  33 H :    0.035748

  Mayer bond orders larger than 0.100000
B(  0-S ,  1-C ) :   1.1319 B(  0-S ,  4-C ) :   1.1567 B(  1-C ,  2-C ) :   1.5948
B(  1-C ,  4-C ) :   0.1046 B(  1-C , 32-H ) :   0.9706 B(  2-C ,  3-C ) :   1.2364
B(  2-C ,  6-C ) :   1.0145 B(  3-C ,  4-C ) :   1.5784 B(  3-C ,  5-H ) :   0.9800
B(  4-C , 20-C ) :   1.0304 B(  6-C ,  7-H ) :   0.9380 B(  6-C ,  8-H ) :   0.9298
B(  6-C ,  9-C ) :   1.0814 B(  9-C , 10-H ) :   0.9516 B(  9-C , 11-H ) :   0.9611
B(  9-C , 12-C ) :   1.0670 B( 12-C , 13-H ) :   0.9729 B( 12-C , 14-H ) :   0.9724
B( 12-C , 15-H ) :   0.9767 B( 16-S , 17-C ) :   1.1239 B( 16-S , 20-C ) :   1.1369
B( 17-C , 18-C ) :   1.6349 B( 17-C , 33-H ) :   0.9580 B( 18-C , 19-C ) :   1.2133
B( 18-C , 21-H ) :   1.0010 B( 19-C , 20-C ) :   1.6325 B( 19-C , 22-C ) :   1.0239
B( 22-C , 23-H ) :   0.9320 B( 22-C , 24-H ) :   0.9249 B( 22-C , 25-C ) :   1.0639
B( 25-C , 26-H ) :   0.9585 B( 25-C , 27-H ) :   0.9575 B( 25-C , 28-C ) :   1.0843
B( 28-C , 29-H ) :   0.9745 B( 28-C , 30-H ) :   0.9730 B( 28-C , 31-H ) :   0.9697

Dispersion correction           -0.014896993
FINAL SINGLE POINT ENERGY     -1339.856316909650

DIPOLE MOMENT
-------------
                                X             Y             Z
Electronic contribution:    -15.24552     -14.40945      -1.55122
Nuclear contribution   :     15.63367      14.95562       1.63027
                        -----------------------------------------
Total Dipole Moment    :      0.38815       0.54617       0.07905
                        -----------------------------------------
Magnitude (a.u.)       :      0.67469
Magnitude (Debye)      :      1.71493

Rotational constants in cm-1:     0.019007     0.008489     0.007926
Rotational constants in MHz :   569.803666   254.482483   237.605979

                             ****ORCA TERMINATED NORMALLY****
TOTAL RUN TIME: 0 days 0 hours 0 minutes 20 seconds 964 msec
