                         Program Version 4.2.1 -  RELEASE  -
|  1> ! wB97X-D3 SP def2-SVP
|  2> %pal
|  3> nprocs 24
|  4> end
|  5>
|  6> * xyz 0 1
|  7> S 	 -30.083 	 -38.9494 	 -93.6087
|  8> C 	 -29.65 	 -37.5772 	 -94.5895
|  9> C 	 -29.5008 	 -36.4304 	 -93.7506
| 10> C 	 -29.7763 	 -36.6973 	 -92.3884
| 11> C 	 -30.0575 	 -38.0544 	 -92.1361
| 12> H 	 -29.7453 	 -35.9348 	 -91.6363
| 13> C 	 -29.2228 	 -35.0516 	 -94.281
| 14> H 	 -30.2213 	 -34.6848 	 -94.4774
| 15> H 	 -28.7048 	 -35.0334 	 -95.2769
| 16> C 	 -28.5391 	 -34.1501 	 -93.2844
| 17> H 	 -28.2397 	 -33.1737 	 -93.7375
| 18> H 	 -29.1651 	 -33.8884 	 -92.4752
| 19> C 	 -27.1807 	 -34.674 	 -92.7671
| 20> H 	 -27.2152 	 -35.7595 	 -92.6024
| 21> H 	 -26.4491 	 -34.5367 	 -93.5952
| 22> H 	 -26.8393 	 -34.1893 	 -91.8643
| 23> S 	 -28.8793 	 -39.0595 	 -89.8824
| 24> C 	 -29.8805 	 -39.6149 	 -88.5873
| 25> C 	 -31.1995 	 -39.3596 	 -88.8581
| 26> C 	 -31.4813 	 -38.8158 	 -90.1053
| 27> C 	 -30.3169 	 -38.6059 	 -90.8362
| 28> H 	 -31.9437 	 -39.5667 	 -88.1361
| 29> C 	 -32.906 	 -38.5264 	 -90.6224
| 30> H 	 -32.8367 	 -37.6954 	 -91.2864
| 31> H 	 -33.456 	 -38.1668 	 -89.736
| 32> C 	 -33.8282 	 -39.5774 	 -91.3048
| 33> H 	 -33.2454 	 -39.9022 	 -92.1845
| 34> H 	 -34.717 	 -39.017 	 -91.7311
| 35> C 	 -34.1435 	 -40.8969 	 -90.5231
| 36> H 	 -34.7788 	 -41.6791 	 -90.9306
| 37> H 	 -34.5129 	 -40.5645 	 -89.5644
| 38> H 	 -33.1501 	 -41.4136 	 -90.3642
| 39> H 	 -29.5614 	 -37.4055 	 -95.6734
| 40> H 	 -29.6054 	 -40.0929 	 -87.6164
| 41> *
| 42>
| 43>                          ****END OF INPUT****

CARTESIAN COORDINATES (ANGSTROEM)
---------------------------------
  S    -30.083000  -38.949400  -93.608700
  C    -29.650000  -37.577200  -94.589500
  C    -29.500800  -36.430400  -93.750600
  C    -29.776300  -36.697300  -92.388400
  C    -30.057500  -38.054400  -92.136100
  H    -29.745300  -35.934800  -91.636300
  C    -29.222800  -35.051600  -94.281000
  H    -30.221300  -34.684800  -94.477400
  H    -28.704800  -35.033400  -95.276900
  C    -28.539100  -34.150100  -93.284400
  H    -28.239700  -33.173700  -93.737500
  H    -29.165100  -33.888400  -92.475200
  C    -27.180700  -34.674000  -92.767100
  H    -27.215200  -35.759500  -92.602400
  H    -26.449100  -34.536700  -93.595200
  H    -26.839300  -34.189300  -91.864300
  S    -28.879300  -39.059500  -89.882400
  C    -29.880500  -39.614900  -88.587300
  C    -31.199500  -39.359600  -88.858100
  C    -31.481300  -38.815800  -90.105300
  C    -30.316900  -38.605900  -90.836200
  H    -31.943700  -39.566700  -88.136100
  C    -32.906000  -38.526400  -90.622400
  H    -32.836700  -37.695400  -91.286400
  H    -33.456000  -38.166800  -89.736000
  C    -33.828200  -39.577400  -91.304800
  H    -33.245400  -39.902200  -92.184500
  H    -34.717000  -39.017000  -91.731100
  C    -34.143500  -40.896900  -90.523100
  H    -34.778800  -41.679100  -90.930600
  H    -34.512900  -40.564500  -89.564400
  H    -33.150100  -41.413600  -90.364200
  H    -29.561400  -37.405500  -95.673400
  H    -29.605400  -40.092900  -87.616400

 Total Charge           Charge          ....    0
 Multiplicity           Mult            ....    1
 Number of Electrons    NEL             ....  134
 Basis Dimension        Dim             ....  322

ORBITAL ENERGIES
----------------

  NO   OCC          E(Eh)            E(eV)
   0   2.0000     -88.972841     -2421.0741
   1   2.0000     -88.966398     -2420.8988
   2   2.0000     -10.327611      -281.0286
   3   2.0000     -10.325220      -280.9635
   4   2.0000     -10.317152      -280.7440
   5   2.0000     -10.316474      -280.7255
   6   2.0000     -10.302794      -280.3533
   7   2.0000     -10.300896      -280.3016
   8   2.0000     -10.294517      -280.1280
   9   2.0000     -10.293959      -280.1129
  10   2.0000     -10.293818      -280.1090
  11   2.0000     -10.293633      -280.1040
  12   2.0000     -10.284479      -279.8549
  13   2.0000     -10.283734      -279.8346
  14   2.0000     -10.281383      -279.7707
  15   2.0000     -10.274701      -279.5888
  16   2.0000      -8.087057      -220.0600
  17   2.0000      -8.080894      -219.8923
  18   2.0000      -6.045525      -164.5071
  19   2.0000      -6.041393      -164.3947
  20   2.0000      -6.039349      -164.3391
  21   2.0000      -6.038127      -164.3058
  22   2.0000      -6.035366      -164.2307
  23   2.0000      -6.031783      -164.1332
  24   2.0000      -1.007599       -27.4182
  25   2.0000      -0.985603       -26.8196
  26   2.0000      -0.917360       -24.9626
  27   2.0000      -0.899810       -24.4851
  28   2.0000      -0.868958       -23.6455
  29   2.0000      -0.847052       -23.0495
  30   2.0000      -0.844671       -22.9847
  31   2.0000      -0.811970       -22.0948
  32   2.0000      -0.786114       -21.3913
  33   2.0000      -0.772551       -21.0222
  34   2.0000      -0.712491       -19.3879
  35   2.0000      -0.693704       -18.8767
  36   2.0000      -0.687473       -18.7071
  37   2.0000      -0.661501       -18.0004
  38   2.0000      -0.632661       -17.2156
  39   2.0000      -0.623964       -16.9789
  40   2.0000      -0.590134       -16.0584
  41   2.0000      -0.569687       -15.5020
  42   2.0000      -0.560137       -15.2421
  43   2.0000      -0.549665       -14.9571
  44   2.0000      -0.538130       -14.6433
  45   2.0000      -0.536327       -14.5942
  46   2.0000      -0.514875       -14.0105
  47   2.0000      -0.508796       -13.8451
  48   2.0000      -0.506201       -13.7744
  49   2.0000      -0.491885       -13.3849
  50   2.0000      -0.481793       -13.1102
  51   2.0000      -0.478916       -13.0320
  52   2.0000      -0.474673       -12.9165
  53   2.0000      -0.469131       -12.7657
  54   2.0000      -0.456477       -12.4214
  55   2.0000      -0.447551       -12.1785
  56   2.0000      -0.444876       -12.1057
  57   2.0000      -0.438430       -11.9303
  58   2.0000      -0.435195       -11.8423
  59   2.0000      -0.424213       -11.5434
  60   2.0000      -0.419991       -11.4285
  61   2.0000      -0.410861       -11.1801
  62   2.0000      -0.405724       -11.0403
  63   2.0000      -0.337505        -9.1840
  64   2.0000      -0.330386        -8.9903
  65   2.0000      -0.316111        -8.6018
  66   2.0000      -0.308048        -8.3824
  67   0.0000       0.042693         1.1617
  68   0.0000       0.047988         1.3058
  69   0.0000       0.113626         3.0919
  70   0.0000       0.127588         3.4719
  71   0.0000       0.130805         3.5594

MULLIKEN ATOMIC CHARGES
-----------------------
   0 S :    0.149601
   1 C :   -0.120963
   2 C :   -0.144341
   3 C :    0.058623
   4 C :   -0.183063
   5 H :    0.005422
   6 C :    0.090972
   7 H :    0.042248
   8 H :    0.031746
   9 C :   -0.097142
  10 H :    0.032661
  11 H :    0.023159
  12 C :   -0.067638
  13 H :    0.045113
  14 H :    0.029783
  15 H :    0.037741
  16 S :    0.122198
  17 C :   -0.093441
  18 C :   -0.041586
  19 C :    0.011533
  20 C :   -0.210968
  21 H :   -0.003225
  22 C :    0.073291
  23 H :    0.024572
  24 H :    0.019615
  25 C :   -0.071855
  26 H :    0.023751
  27 H :    0.044079
  28 C :   -0.065983
  29 H :    0.046927
  30 H :    0.022356
  31 H :    0.044114
  32 H :    0.051970
  33 H :    0.068731
Sum of atomic charges:   -0.0000000

LOEWDIN ATOMIC CHARGES
----------------------
   0 S :    0.443971
   1 C :   -0.224094
   2 C :   -0.062560
   3 C :   -0.056023
   4 C :   -0.220195
   5 H :    0.028551
   6 C :   -0.036577
   7 H :    0.039040
   8 H :    0.035886
   9 C :   -0.048563
  10 H :    0.032151
  11 H :    0.014544
  12 C :   -0.067630
  13 H :    0.025665
  14 H :    0.027860
  15 H :    0.024945
  16 S :    0.411405
  17 C :   -0.198756
  18 C :   -0.076329
  19 C :   -0.052739
  20 C :   -0.194838
  21 H :    0.023753
  22 C :   -0.028802
  23 H :    0.030787
  24 H :    0.029839
  25 C :   -0.043681
  26 H :    0.021541
  27 H :    0.032178
  28 C :   -0.074327
  29 H :    0.028582
  30 H :    0.017553
  31 H :    0.036121
  32 H :    0.037642
  33 H :    0.043098

  Mayer bond orders larger than 0.100000
B(  0-S ,  1-C ) :   1.1561 B(  0-S ,  4-C ) :   1.1798 B(  1-C ,  2-C ) :   1.5640
B(  1-C ,  4-C ) :   0.1130 B(  1-C , 32-H ) :   0.9652 B(  2-C ,  3-C ) :   1.2913
B(  2-C ,  6-C ) :   1.0111 B(  3-C ,  4-C ) :   1.5133 B(  3-C ,  5-H ) :   0.9955
B(  4-C , 20-C ) :   1.0298 B(  6-C ,  7-H ) :   0.9290 B(  6-C ,  8-H ) :   0.9434
B(  6-C ,  9-C ) :   1.0853 B(  9-C , 10-H ) :   0.9559 B(  9-C , 11-H ) :   0.9502
B(  9-C , 12-C ) :   1.0682 B( 12-C , 13-H ) :   0.9757 B( 12-C , 14-H ) :   0.9768
B( 12-C , 15-H ) :   0.9759 B( 16-S , 17-C ) :   1.1575 B( 16-S , 20-C ) :   1.1506
B( 17-C , 18-C ) :   1.6003 B( 17-C , 20-C ) :   0.1070 B( 17-C , 33-H ) :   0.9592
B( 18-C , 19-C ) :   1.2668 B( 18-C , 21-H ) :   0.9912 B( 19-C , 20-C ) :   1.5809
B( 19-C , 22-C ) :   1.0301 B( 22-C , 23-H ) :   0.9272 B( 22-C , 24-H ) :   0.9327
B( 22-C , 25-C ) :   1.0751 B( 25-C , 26-H ) :   0.9543 B( 25-C , 27-H ) :   0.9533
B( 25-C , 28-C ) :   1.0585 B( 28-C , 29-H ) :   0.9772 B( 28-C , 30-H ) :   0.9796
B( 28-C , 31-H ) :   0.9728

Dispersion correction           -0.015002411
FINAL SINGLE POINT ENERGY     -1339.878642059897

DIPOLE MOMENT
-------------
                                X             Y             Z
Electronic contribution:      8.27130     -10.59062       1.62233
Nuclear contribution   :     -8.58719      11.01563      -1.60377
                        -----------------------------------------
Total Dipole Moment    :     -0.31589       0.42500       0.01856
                        -----------------------------------------
Magnitude (a.u.)       :      0.52987
Magnitude (Debye)      :      1.34682

Rotational constants in cm-1:     0.021100     0.008425     0.007154
Rotational constants in MHz :   632.557733   252.584436   214.460358

                             ****ORCA TERMINATED NORMALLY****
TOTAL RUN TIME: 0 days 0 hours 0 minutes 20 seconds 699 msec
