                         Program Version 4.2.1 -  RELEASE  -
|  1> ! wB97X-D3 SP def2-SVP
|  2> %pal
|  3> nprocs 24
|  4> end
|  5>
|  6> * xyz 0 1
|  7> S 	 -47.732 	 9.66719 	 29.8118
|  8> C 	 -47.7918 	 8.45981 	 28.6014
|  9> C 	 -47.0157 	 8.91628 	 27.5361
| 10> C 	 -46.2403 	 10.0894 	 27.8675
| 11> C 	 -46.4792 	 10.6565 	 29.0764
| 12> H 	 -45.5257 	 10.6128 	 27.1801
| 13> C 	 -46.7403 	 8.20051 	 26.2872
| 14> H 	 -46.6675 	 7.13401 	 26.5027
| 15> H 	 -45.791 	 8.42112 	 25.8417
| 16> C 	 -47.7049 	 8.69907 	 25.0824
| 17> H 	 -47.5441 	 8.20574 	 24.1194
| 18> H 	 -48.6556 	 8.40802 	 25.4945
| 19> C 	 -47.7066 	 10.2815 	 24.7704
| 20> H 	 -48.1108 	 10.7532 	 25.5656
| 21> H 	 -46.791 	 10.7467 	 24.4469
| 22> H 	 -48.4058 	 10.578 	 24.008
| 23> S 	 -44.2244 	 11.6412 	 30.3528
| 24> C 	 -44.2415 	 13.3444 	 30.7727
| 25> C 	 -45.3352 	 13.9587 	 30.2448
| 26> C 	 -46.2351 	 13.0802 	 29.578
| 27> C 	 -45.7939 	 11.7971 	 29.5873
| 28> H 	 -45.4152 	 15.0138 	 30.3523
| 29> C 	 -47.5887 	 13.473 	 29.1562
| 30> H 	 -48.2023 	 13.5906 	 30.0559
| 31> H 	 -48.1175 	 12.5541 	 28.8097
| 32> C 	 -47.8198 	 14.7108 	 28.131
| 33> H 	 -47.1332 	 15.4919 	 28.3887
| 34> H 	 -48.8034 	 15.0894 	 28.3049
| 35> C 	 -47.4697 	 14.2993 	 26.6791
| 36> H 	 -46.7312 	 13.5003 	 26.5633
| 37> H 	 -47.2809 	 15.137 	 25.9639
| 38> H 	 -48.3587 	 13.7981 	 26.4212
| 39> H 	 -48.3874 	 7.55293 	 28.5992
| 40> H 	 -43.3949 	 13.8847 	 31.2171
| 41> *
| 42>
| 43>                          ****END OF INPUT****

CARTESIAN COORDINATES (ANGSTROEM)
---------------------------------
  S    -47.732000    9.667190   29.811800
  C    -47.791800    8.459810   28.601400
  C    -47.015700    8.916280   27.536100
  C    -46.240300   10.089400   27.867500
  C    -46.479200   10.656500   29.076400
  H    -45.525700   10.612800   27.180100
  C    -46.740300    8.200510   26.287200
  H    -46.667500    7.134010   26.502700
  H    -45.791000    8.421120   25.841700
  C    -47.704900    8.699070   25.082400
  H    -47.544100    8.205740   24.119400
  H    -48.655600    8.408020   25.494500
  C    -47.706600   10.281500   24.770400
  H    -48.110800   10.753200   25.565600
  H    -46.791000   10.746700   24.446900
  H    -48.405800   10.578000   24.008000
  S    -44.224400   11.641200   30.352800
  C    -44.241500   13.344400   30.772700
  C    -45.335200   13.958700   30.244800
  C    -46.235100   13.080200   29.578000
  C    -45.793900   11.797100   29.587300
  H    -45.415200   15.013800   30.352300
  C    -47.588700   13.473000   29.156200
  H    -48.202300   13.590600   30.055900
  H    -48.117500   12.554100   28.809700
  C    -47.819800   14.710800   28.131000
  H    -47.133200   15.491900   28.388700
  H    -48.803400   15.089400   28.304900
  C    -47.469700   14.299300   26.679100
  H    -46.731200   13.500300   26.563300
  H    -47.280900   15.137000   25.963900
  H    -48.358700   13.798100   26.421200
  H    -48.387400    7.552930   28.599200
  H    -43.394900   13.884700   31.217100

 Total Charge           Charge          ....    0
 Multiplicity           Mult            ....    1
 Number of Electrons    NEL             ....  134
 Basis Dimension        Dim             ....  322

ORBITAL ENERGIES
----------------

  NO   OCC          E(Eh)            E(eV)
   0   2.0000     -88.964334     -2420.8426
   1   2.0000     -88.962979     -2420.8057
   2   2.0000     -10.322312      -280.8844
   3   2.0000     -10.319963      -280.8205
   4   2.0000     -10.318220      -280.7730
   5   2.0000     -10.317790      -280.7613
   6   2.0000     -10.299361      -280.2599
   7   2.0000     -10.297860      -280.2190
   8   2.0000     -10.295342      -280.1505
   9   2.0000     -10.292665      -280.0776
  10   2.0000     -10.292150      -280.0636
  11   2.0000     -10.291434      -280.0442
  12   2.0000     -10.289007      -279.9781
  13   2.0000     -10.288610      -279.9673
  14   2.0000     -10.275676      -279.6154
  15   2.0000     -10.270742      -279.4811
  16   2.0000      -8.079193      -219.8460
  17   2.0000      -8.078038      -219.8146
  18   2.0000      -6.037726      -164.2949
  19   2.0000      -6.036611      -164.2645
  20   2.0000      -6.033777      -164.1874
  21   2.0000      -6.032224      -164.1452
  22   2.0000      -6.029816      -164.0796
  23   2.0000      -6.028954      -164.0562
  24   2.0000      -1.013086       -27.5675
  25   2.0000      -0.990533       -26.9538
  26   2.0000      -0.905266       -24.6335
  27   2.0000      -0.900998       -24.5174
  28   2.0000      -0.875857       -23.8333
  29   2.0000      -0.851584       -23.1728
  30   2.0000      -0.839483       -22.8435
  31   2.0000      -0.820109       -22.3163
  32   2.0000      -0.781590       -21.2681
  33   2.0000      -0.771973       -21.0064
  34   2.0000      -0.711114       -19.3504
  35   2.0000      -0.706339       -19.2205
  36   2.0000      -0.702911       -19.1272
  37   2.0000      -0.659133       -17.9359
  38   2.0000      -0.643437       -17.5088
  39   2.0000      -0.613664       -16.6987
  40   2.0000      -0.598676       -16.2908
  41   2.0000      -0.577916       -15.7259
  42   2.0000      -0.552014       -15.0211
  43   2.0000      -0.541941       -14.7470
  44   2.0000      -0.538543       -14.6545
  45   2.0000      -0.535897       -14.5825
  46   2.0000      -0.525998       -14.3131
  47   2.0000      -0.515399       -14.0247
  48   2.0000      -0.506465       -13.7816
  49   2.0000      -0.492294       -13.3960
  50   2.0000      -0.488999       -13.3063
  51   2.0000      -0.478523       -13.0213
  52   2.0000      -0.470561       -12.8046
  53   2.0000      -0.467072       -12.7097
  54   2.0000      -0.462677       -12.5901
  55   2.0000      -0.449506       -12.2317
  56   2.0000      -0.445114       -12.1122
  57   2.0000      -0.437480       -11.9044
  58   2.0000      -0.432020       -11.7559
  59   2.0000      -0.422007       -11.4834
  60   2.0000      -0.414084       -11.2678
  61   2.0000      -0.411131       -11.1874
  62   2.0000      -0.404156       -10.9976
  63   2.0000      -0.335101        -9.1186
  64   2.0000      -0.332613        -9.0508
  65   2.0000      -0.318672        -8.6715
  66   2.0000      -0.312208        -8.4956
  67   0.0000       0.048747         1.3265
  68   0.0000       0.050874         1.3844
  69   0.0000       0.111267         3.0277
  70   0.0000       0.123976         3.3736
  71   0.0000       0.132832         3.6145

MULLIKEN ATOMIC CHARGES
-----------------------
   0 S :    0.111239
   1 C :   -0.110187
   2 C :   -0.090404
   3 C :    0.016302
   4 C :   -0.181597
   5 H :    0.032017
   6 C :    0.050108
   7 H :    0.034543
   8 H :    0.017195
   9 C :   -0.080331
  10 H :    0.040728
  11 H :    0.021252
  12 C :   -0.027551
  13 H :    0.014058
  14 H :    0.031366
  15 H :    0.021431
  16 S :    0.116919
  17 C :   -0.102650
  18 C :   -0.017981
  19 C :    0.019881
  20 C :   -0.179664
  21 H :    0.008369
  22 C :    0.003078
  23 H :    0.037009
  24 H :    0.021270
  25 C :   -0.033048
  26 H :    0.021355
  27 H :    0.029857
  28 C :   -0.050931
  29 H :    0.038031
  30 H :    0.047528
  31 H :    0.016426
  32 H :    0.058462
  33 H :    0.065919
Sum of atomic charges:   -0.0000000

LOEWDIN ATOMIC CHARGES
----------------------
   0 S :    0.415235
   1 C :   -0.203435
   2 C :   -0.073576
   3 C :   -0.059005
   4 C :   -0.204874
   5 H :    0.038510
   6 C :   -0.038125
   7 H :    0.033869
   8 H :    0.025394
   9 C :   -0.025324
  10 H :    0.022032
  11 H :    0.017223
  12 C :   -0.061966
  13 H :    0.010470
  14 H :    0.023225
  15 H :    0.030088
  16 S :    0.401505
  17 C :   -0.179495
  18 C :   -0.066527
  19 C :   -0.055071
  20 C :   -0.199832
  21 H :    0.027090
  22 C :   -0.041246
  23 H :    0.037783
  24 H :    0.030638
  25 C :   -0.025543
  26 H :    0.016171
  27 H :    0.022457
  28 C :   -0.070682
  29 H :    0.028779
  30 H :    0.031324
  31 H :    0.020782
  32 H :    0.036326
  33 H :    0.035802

  Mayer bond orders larger than 0.100000
B(  0-S ,  1-C ) :   1.1580 B(  0-S ,  4-C ) :   1.1236 B(  1-C ,  2-C ) :   1.5678
B(  1-C , 32-H ) :   0.9734 B(  2-C ,  3-C ) :   1.2462 B(  2-C ,  6-C ) :   1.0394
B(  3-C ,  4-C ) :   1.5970 B(  3-C ,  5-H ) :   0.9831 B(  4-C , 20-C ) :   1.0341
B(  6-C ,  7-H ) :   0.9527 B(  6-C ,  8-H ) :   0.9491 B(  6-C ,  9-C ) :   1.0256
B(  9-C , 10-H ) :   0.9671 B(  9-C , 11-H ) :   0.9638 B(  9-C , 12-C ) :   1.0702
B( 12-C , 13-H ) :   0.9718 B( 12-C , 14-H ) :   0.9778 B( 12-C , 15-H ) :   0.9708
B( 16-S , 17-C ) :   1.1436 B( 16-S , 20-C ) :   1.1297 B( 17-C , 18-C ) :   1.6382
B( 17-C , 33-H ) :   0.9625 B( 18-C , 19-C ) :   1.2098 B( 18-C , 21-H ) :   0.9952
B( 19-C , 20-C ) :   1.6133 B( 19-C , 22-C ) :   1.0605 B( 22-C , 23-H ) :   0.9309
B( 22-C , 24-H ) :   0.9233 B( 22-C , 25-C ) :   1.0484 B( 25-C , 26-H ) :   0.9669
B( 25-C , 27-H ) :   0.9622 B( 25-C , 28-C ) :   1.0473 B( 28-C , 29-H ) :   0.9790
B( 28-C , 30-H ) :   0.9751 B( 28-C , 31-H ) :   0.9762

Dispersion correction           -0.015893106
FINAL SINGLE POINT ENERGY     -1339.849738816284

DIPOLE MOMENT
-------------
                                X             Y             Z
Electronic contribution:     10.28993      -7.27655      23.82142
Nuclear contribution   :    -10.44626       7.55038     -24.27028
                        -----------------------------------------
Total Dipole Moment    :     -0.15633       0.27383      -0.44887
                        -----------------------------------------
Magnitude (a.u.)       :      0.54854
Magnitude (Debye)      :      1.39428

Rotational constants in cm-1:     0.018116     0.009857     0.007817
Rotational constants in MHz :   543.097839   295.518307   234.342053

                             ****ORCA TERMINATED NORMALLY****
TOTAL RUN TIME: 0 days 0 hours 0 minutes 22 seconds 768 msec
