                         Program Version 4.2.1 -  RELEASE  -
|  1> ! wB97X-D3 SP def2-SVP
|  2> %pal
|  3> nprocs 24
|  4> end
|  5>
|  6> * xyz 0 1
|  7> S 	 -100.605 	 6.4854 	 3.6909
|  8> C 	 -101.16 	 7.20678 	 2.15075
|  9> C 	 -100.586 	 6.65565 	 1.03061
| 10> C 	 -99.6642 	 5.65191 	 1.40699
| 11> C 	 -99.5364 	 5.46536 	 2.8405
| 12> H 	 -99.1182 	 4.90696 	 0.858988
| 13> C 	 -100.996 	 6.87642 	 -0.375756
| 14> H 	 -100.091 	 6.77104 	 -0.902961
| 15> H 	 -101.449 	 7.84363 	 -0.478403
| 16> C 	 -102.075 	 5.89176 	 -0.867211
| 17> H 	 -101.742 	 4.83827 	 -0.779373
| 18> H 	 -102.933 	 6.09815 	 -0.18374
| 19> C 	 -102.449 	 6.12124 	 -2.3722
| 20> H 	 -102.824 	 5.1409 	 -2.78516
| 21> H 	 -103.218 	 6.84921 	 -2.57997
| 22> H 	 -101.497 	 6.29735 	 -2.94715
| 23> S 	 -99.3339 	 3.61393 	 4.84927
| 24> C 	 -97.8314 	 2.67692 	 4.85844
| 25> C 	 -96.849 	 3.24672 	 4.10899
| 26> C 	 -97.2701 	 4.32307 	 3.33312
| 27> C 	 -98.687 	 4.48967 	 3.45459
| 28> H 	 -95.8353 	 2.864 	 4.11341
| 29> C 	 -96.4247 	 5.09998 	 2.39299
| 30> H 	 -97.0343 	 5.96692 	 2.17812
| 31> H 	 -96.4551 	 4.53055 	 1.45433
| 32> C 	 -95.0301 	 5.49554 	 2.98495
| 33> H 	 -94.443 	 5.96814 	 2.18693
| 34> H 	 -94.505 	 4.62194 	 3.41668
| 35> C 	 -95.1987 	 6.56185 	 4.13642
| 36> H 	 -95.9225 	 7.36766 	 3.83211
| 37> H 	 -94.2097 	 6.87556 	 4.31067
| 38> H 	 -95.6452 	 6.15566 	 5.05672
| 39> H 	 -101.953 	 7.87962 	 1.97011
| 40> H 	 -97.7726 	 1.79885 	 5.58457
| 41> *
| 42>
| 43>                          ****END OF INPUT****

CARTESIAN COORDINATES (ANGSTROEM)
---------------------------------
  S    -100.605000    6.485400    3.690900
  C    -101.160000    7.206780    2.150750
  C    -100.586000    6.655650    1.030610
  C    -99.664200    5.651910    1.406990
  C    -99.536400    5.465360    2.840500
  H    -99.118200    4.906960    0.858988
  C    -100.996000    6.876420   -0.375756
  H    -100.091000    6.771040   -0.902961
  H    -101.449000    7.843630   -0.478403
  C    -102.075000    5.891760   -0.867211
  H    -101.742000    4.838270   -0.779373
  H    -102.933000    6.098150   -0.183740
  C    -102.449000    6.121240   -2.372200
  H    -102.824000    5.140900   -2.785160
  H    -103.218000    6.849210   -2.579970
  H    -101.497000    6.297350   -2.947150
  S    -99.333900    3.613930    4.849270
  C    -97.831400    2.676920    4.858440
  C    -96.849000    3.246720    4.108990
  C    -97.270100    4.323070    3.333120
  C    -98.687000    4.489670    3.454590
  H    -95.835300    2.864000    4.113410
  C    -96.424700    5.099980    2.392990
  H    -97.034300    5.966920    2.178120
  H    -96.455100    4.530550    1.454330
  C    -95.030100    5.495540    2.984950
  H    -94.443000    5.968140    2.186930
  H    -94.505000    4.621940    3.416680
  C    -95.198700    6.561850    4.136420
  H    -95.922500    7.367660    3.832110
  H    -94.209700    6.875560    4.310670
  H    -95.645200    6.155660    5.056720
  H    -101.953000    7.879620    1.970110
  H    -97.772600    1.798850    5.584570

 Total Charge           Charge          ....    0
 Multiplicity           Mult            ....    1
 Number of Electrons    NEL             ....  134
 Basis Dimension        Dim             ....  322

ORBITAL ENERGIES
----------------

  NO   OCC          E(Eh)            E(eV)
   0   2.0000     -88.970796     -2421.0184
   1   2.0000     -88.964706     -2420.8527
   2   2.0000     -10.326238      -280.9912
   3   2.0000     -10.324490      -280.9436
   4   2.0000     -10.322932      -280.9013
   5   2.0000     -10.307682      -280.4863
   6   2.0000     -10.302240      -280.3382
   7   2.0000     -10.296616      -280.1852
   8   2.0000     -10.296613      -280.1851
   9   2.0000     -10.294237      -280.1204
  10   2.0000     -10.292287      -280.0674
  11   2.0000     -10.291309      -280.0407
  12   2.0000     -10.288461      -279.9633
  13   2.0000     -10.287386      -279.9340
  14   2.0000     -10.285358      -279.8788
  15   2.0000     -10.278134      -279.6823
  16   2.0000      -8.085164      -220.0085
  17   2.0000      -8.079259      -219.8478
  18   2.0000      -6.043667      -164.4565
  19   2.0000      -6.039685      -164.3482
  20   2.0000      -6.037591      -164.2912
  21   2.0000      -6.036017      -164.2484
  22   2.0000      -6.034123      -164.1968
  23   2.0000      -6.029893      -164.0817
  24   2.0000      -1.005956       -27.3735
  25   2.0000      -0.982644       -26.7391
  26   2.0000      -0.917290       -24.9607
  27   2.0000      -0.906407       -24.6646
  28   2.0000      -0.868248       -23.6262
  29   2.0000      -0.848267       -23.0825
  30   2.0000      -0.844506       -22.9802
  31   2.0000      -0.807531       -21.9740
  32   2.0000      -0.784891       -21.3580
  33   2.0000      -0.768762       -20.9191
  34   2.0000      -0.707293       -19.2464
  35   2.0000      -0.699840       -19.0436
  36   2.0000      -0.696715       -18.9586
  37   2.0000      -0.653874       -17.7928
  38   2.0000      -0.638047       -17.3621
  39   2.0000      -0.614418       -16.7192
  40   2.0000      -0.595800       -16.2125
  41   2.0000      -0.573335       -15.6012
  42   2.0000      -0.560500       -15.2520
  43   2.0000      -0.555471       -15.1151
  44   2.0000      -0.537522       -14.6267
  45   2.0000      -0.523442       -14.2436
  46   2.0000      -0.513301       -13.9676
  47   2.0000      -0.510190       -13.8830
  48   2.0000      -0.505778       -13.7629
  49   2.0000      -0.490960       -13.3597
  50   2.0000      -0.489380       -13.3167
  51   2.0000      -0.473218       -12.8769
  52   2.0000      -0.470207       -12.7950
  53   2.0000      -0.464281       -12.6337
  54   2.0000      -0.455835       -12.4039
  55   2.0000      -0.448661       -12.2087
  56   2.0000      -0.442511       -12.0413
  57   2.0000      -0.435449       -11.8492
  58   2.0000      -0.432005       -11.7555
  59   2.0000      -0.427177       -11.6241
  60   2.0000      -0.425577       -11.5805
  61   2.0000      -0.424352       -11.5472
  62   2.0000      -0.418176       -11.3792
  63   2.0000      -0.346176        -9.4199
  64   2.0000      -0.333254        -9.0683
  65   2.0000      -0.328126        -8.9288
  66   2.0000      -0.278182        -7.5697
  67   0.0000       0.020464         0.5569
  68   0.0000       0.067089         1.8256
  69   0.0000       0.098451         2.6790
  70   0.0000       0.127319         3.4645
  71   0.0000       0.132802         3.6137

MULLIKEN ATOMIC CHARGES
-----------------------
   0 S :    0.124619
   1 C :   -0.099310
   2 C :   -0.075866
   3 C :   -0.003672
   4 C :   -0.173377
   5 H :    0.005127
   6 C :    0.115916
   7 H :    0.015451
   8 H :    0.014749
   9 C :   -0.094906
  10 H :    0.038799
  11 H :    0.034547
  12 C :   -0.066013
  13 H :    0.037454
  14 H :    0.044724
  15 H :    0.037816
  16 S :    0.089913
  17 C :   -0.110632
  18 C :   -0.024728
  19 C :   -0.052240
  20 C :   -0.174741
  21 H :    0.018214
  22 C :    0.076814
  23 H :    0.025902
  24 H :    0.045485
  25 C :   -0.089182
  26 H :    0.041102
  27 H :    0.041157
  28 C :   -0.059427
  29 H :    0.044768
  30 H :    0.031445
  31 H :    0.044454
  32 H :    0.016256
  33 H :    0.079379
Sum of atomic charges:    0.0000000

LOEWDIN ATOMIC CHARGES
----------------------
   0 S :    0.415457
   1 C :   -0.192467
   2 C :   -0.058649
   3 C :   -0.068662
   4 C :   -0.211532
   5 H :    0.025270
   6 C :   -0.026995
   7 H :    0.024804
   8 H :    0.029127
   9 C :   -0.036935
  10 H :    0.027252
  11 H :    0.028566
  12 C :   -0.075341
  13 H :    0.032598
  14 H :    0.022948
  15 H :    0.031087
  16 S :    0.380975
  17 C :   -0.177198
  18 C :   -0.076294
  19 C :   -0.047676
  20 C :   -0.200232
  21 H :    0.033574
  22 C :   -0.039830
  23 H :    0.030935
  24 H :    0.035911
  25 C :   -0.035105
  26 H :    0.027883
  27 H :    0.024818
  28 C :   -0.062012
  29 H :    0.033318
  30 H :    0.019027
  31 H :    0.028200
  32 H :    0.017661
  33 H :    0.039519

  Mayer bond orders larger than 0.100000
B(  0-S ,  1-C ) :   1.1233 B(  0-S ,  4-C ) :   1.1665 B(  1-C ,  2-C ) :   1.6100
B(  1-C , 32-H ) :   0.9638 B(  2-C ,  3-C ) :   1.2403 B(  2-C ,  6-C ) :   1.0418
B(  3-C ,  4-C ) :   1.5175 B(  3-C ,  5-H ) :   0.9984 B(  4-C , 20-C ) :   1.1065
B(  6-C ,  7-H ) :   0.9254 B(  6-C ,  8-H ) :   0.9329 B(  6-C ,  9-C ) :   1.0662
B(  9-C , 10-H ) :   0.9607 B(  9-C , 11-H ) :   0.9565 B(  9-C , 12-C ) :   1.0681
B( 12-C , 13-H ) :   0.9777 B( 12-C , 14-H ) :   0.9781 B( 12-C , 15-H ) :   0.9737
B( 16-S , 17-C ) :   1.1520 B( 16-S , 20-C ) :   1.1363 B( 17-C , 18-C ) :   1.5904
B( 17-C , 20-C ) :   0.1093 B( 17-C , 33-H ) :   0.9606 B( 18-C , 19-C ) :   1.2547
B( 18-C , 21-H ) :   0.9936 B( 19-C , 20-C ) :   1.5265 B( 19-C , 22-C ) :   1.0367
B( 22-C , 23-H ) :   0.9228 B( 22-C , 24-H ) :   0.9326 B( 22-C , 25-C ) :   1.0594
B( 25-C , 26-H ) :   0.9589 B( 25-C , 27-H ) :   0.9576 B( 25-C , 28-C ) :   1.0630
B( 28-C , 29-H ) :   0.9765 B( 28-C , 30-H ) :   0.9768 B( 28-C , 31-H ) :   0.9762

Dispersion correction           -0.014311096
FINAL SINGLE POINT ENERGY     -1339.864402662044

DIPOLE MOMENT
-------------
                                X             Y             Z
Electronic contribution:     -6.76697      -6.31163      20.49496
Nuclear contribution   :      7.08225       6.25062     -20.96691
                        -----------------------------------------
Total Dipole Moment    :      0.31528      -0.06100      -0.47196
                        -----------------------------------------
Magnitude (a.u.)       :      0.57085
Magnitude (Debye)      :      1.45097

Rotational constants in cm-1:     0.020966     0.007494     0.006761
Rotational constants in MHz :   628.546713   224.667722   202.688276

                             ****ORCA TERMINATED NORMALLY****
TOTAL RUN TIME: 0 days 0 hours 0 minutes 21 seconds 503 msec
