                         Program Version 4.2.1 -  RELEASE  -
|  1> ! wB97X-D3 SP def2-SVP
|  2> %pal
|  3> nprocs 24
|  4> end
|  5>
|  6> * xyz 0 1
|  7> S 	 -64.4492 	 22.2748 	 -118.09
|  8> C 	 -62.6835 	 22.3103 	 -117.953
|  9> C 	 -62.2629 	 22.2813 	 -116.615
| 10> C 	 -63.4218 	 22.2171 	 -115.705
| 11> C 	 -64.6188 	 22.161 	 -116.337
| 12> H 	 -63.2314 	 22.2334 	 -114.635
| 13> C 	 -60.8276 	 22.3386 	 -116.062
| 14> H 	 -60.2187 	 22.2556 	 -116.952
| 15> H 	 -60.5654 	 21.4996 	 -115.429
| 16> C 	 -60.3506 	 23.6315 	 -115.34
| 17> H 	 -60.8877 	 23.6097 	 -114.364
| 18> H 	 -59.2624 	 23.5204 	 -115.144
| 19> C 	 -60.6117 	 24.9682 	 -116.131
| 20> H 	 -61.6296 	 25.1667 	 -116.249
| 21> H 	 -60.1069 	 25.7641 	 -115.633
| 22> H 	 -60.2043 	 24.8553 	 -117.142
| 23> S 	 -66.7605 	 20.5817 	 -116.514
| 24> C 	 -68.0702 	 20.5978 	 -115.448
| 25> C 	 -67.9383 	 21.6408 	 -114.615
| 26> C 	 -66.5967 	 22.2866 	 -114.667
| 27> C 	 -65.9151 	 21.8515 	 -115.76
| 28> H 	 -68.6195 	 21.7466 	 -113.731
| 29> C 	 -66.147 	 23.2237 	 -113.563
| 30> H 	 -65.0496 	 23.2126 	 -113.611
| 31> H 	 -66.383 	 22.7205 	 -112.607
| 32> C 	 -66.676 	 24.6695 	 -113.736
| 33> H 	 -67.7827 	 24.5613 	 -113.633
| 34> H 	 -66.3862 	 25.1091 	 -114.671
| 35> C 	 -66.1895 	 25.5909 	 -112.611
| 36> H 	 -66.7393 	 26.5438 	 -112.58
| 37> H 	 -65.138 	 25.7992 	 -112.771
| 38> H 	 -66.4151 	 25.0614 	 -111.674
| 39> H 	 -62.0024 	 22.1292 	 -118.791
| 40> H 	 -68.8623 	 19.8529 	 -115.28
| 41> *
| 42>
| 43>                          ****END OF INPUT****

CARTESIAN COORDINATES (ANGSTROEM)
---------------------------------
  S    -64.449200   22.274800  -118.090000
  C    -62.683500   22.310300  -117.953000
  C    -62.262900   22.281300  -116.615000
  C    -63.421800   22.217100  -115.705000
  C    -64.618800   22.161000  -116.337000
  H    -63.231400   22.233400  -114.635000
  C    -60.827600   22.338600  -116.062000
  H    -60.218700   22.255600  -116.952000
  H    -60.565400   21.499600  -115.429000
  C    -60.350600   23.631500  -115.340000
  H    -60.887700   23.609700  -114.364000
  H    -59.262400   23.520400  -115.144000
  C    -60.611700   24.968200  -116.131000
  H    -61.629600   25.166700  -116.249000
  H    -60.106900   25.764100  -115.633000
  H    -60.204300   24.855300  -117.142000
  S    -66.760500   20.581700  -116.514000
  C    -68.070200   20.597800  -115.448000
  C    -67.938300   21.640800  -114.615000
  C    -66.596700   22.286600  -114.667000
  C    -65.915100   21.851500  -115.760000
  H    -68.619500   21.746600  -113.731000
  C    -66.147000   23.223700  -113.563000
  H    -65.049600   23.212600  -113.611000
  H    -66.383000   22.720500  -112.607000
  C    -66.676000   24.669500  -113.736000
  H    -67.782700   24.561300  -113.633000
  H    -66.386200   25.109100  -114.671000
  C    -66.189500   25.590900  -112.611000
  H    -66.739300   26.543800  -112.580000
  H    -65.138000   25.799200  -112.771000
  H    -66.415100   25.061400  -111.674000
  H    -62.002400   22.129200  -118.791000
  H    -68.862300   19.852900  -115.280000

 Total Charge           Charge          ....    0
 Multiplicity           Mult            ....    1
 Number of Electrons    NEL             ....  134
 Basis Dimension        Dim             ....  322

ORBITAL ENERGIES
----------------

  NO   OCC          E(Eh)            E(eV)
   0   2.0000     -88.967872     -2420.9389
   1   2.0000     -88.958612     -2420.6869
   2   2.0000     -10.331367      -281.1308
   3   2.0000     -10.320402      -280.8324
   4   2.0000     -10.320250      -280.8283
   5   2.0000     -10.311084      -280.5789
   6   2.0000     -10.309298      -280.5303
   7   2.0000     -10.302665      -280.3498
   8   2.0000     -10.296362      -280.1783
   9   2.0000     -10.295528      -280.1556
  10   2.0000     -10.295487      -280.1544
  11   2.0000     -10.294224      -280.1201
  12   2.0000     -10.293043      -280.0880
  13   2.0000     -10.287449      -279.9357
  14   2.0000     -10.277632      -279.6686
  15   2.0000     -10.272587      -279.5313
  16   2.0000      -8.082062      -219.9241
  17   2.0000      -8.075742      -219.7521
  18   2.0000      -6.040780      -164.3780
  19   2.0000      -6.036725      -164.2676
  20   2.0000      -6.034326      -164.2023
  21   2.0000      -6.032540      -164.1537
  22   2.0000      -6.029709      -164.0767
  23   2.0000      -6.026430      -163.9875
  24   2.0000      -1.016848       -27.6698
  25   2.0000      -0.983649       -26.7664
  26   2.0000      -0.909158       -24.7395
  27   2.0000      -0.905500       -24.6399
  28   2.0000      -0.872181       -23.7332
  29   2.0000      -0.849985       -23.1293
  30   2.0000      -0.839815       -22.8525
  31   2.0000      -0.817902       -22.2562
  32   2.0000      -0.783477       -21.3195
  33   2.0000      -0.773175       -21.0392
  34   2.0000      -0.707045       -19.2397
  35   2.0000      -0.694631       -18.9019
  36   2.0000      -0.692104       -18.8331
  37   2.0000      -0.659045       -17.9335
  38   2.0000      -0.633855       -17.2481
  39   2.0000      -0.625485       -17.0203
  40   2.0000      -0.592289       -16.1170
  41   2.0000      -0.570412       -15.5217
  42   2.0000      -0.563539       -15.3347
  43   2.0000      -0.551218       -14.9994
  44   2.0000      -0.544755       -14.8235
  45   2.0000      -0.524355       -14.2684
  46   2.0000      -0.517407       -14.0794
  47   2.0000      -0.514006       -13.9868
  48   2.0000      -0.503047       -13.6886
  49   2.0000      -0.495502       -13.4833
  50   2.0000      -0.493295       -13.4232
  51   2.0000      -0.484873       -13.1941
  52   2.0000      -0.467428       -12.7194
  53   2.0000      -0.461574       -12.5601
  54   2.0000      -0.458242       -12.4694
  55   2.0000      -0.448889       -12.2149
  56   2.0000      -0.446609       -12.1529
  57   2.0000      -0.437339       -11.9006
  58   2.0000      -0.434440       -11.8217
  59   2.0000      -0.425071       -11.5668
  60   2.0000      -0.417735       -11.3671
  61   2.0000      -0.414291       -11.2734
  62   2.0000      -0.410337       -11.1658
  63   2.0000      -0.356192        -9.6925
  64   2.0000      -0.328756        -8.9459
  65   2.0000      -0.323422        -8.8008
  66   2.0000      -0.297341        -8.0910
  67   0.0000       0.036363         0.9895
  68   0.0000       0.073644         2.0040
  69   0.0000       0.111007         3.0206
  70   0.0000       0.116990         3.1835
  71   0.0000       0.126245         3.4353

MULLIKEN ATOMIC CHARGES
-----------------------
   0 S :    0.106133
   1 C :   -0.128689
   2 C :   -0.117102
   3 C :    0.022827
   4 C :   -0.124559
   5 H :    0.019781
   6 C :    0.065478
   7 H :    0.006960
   8 H :    0.038830
   9 C :   -0.113892
  10 H :    0.031507
  11 H :    0.042395
  12 C :   -0.018332
  13 H :    0.035253
  14 H :    0.033408
  15 H :    0.024642
  16 S :    0.105862
  17 C :   -0.083895
  18 C :   -0.045991
  19 C :   -0.089478
  20 C :   -0.123961
  21 H :    0.029695
  22 C :    0.056231
  23 H :    0.003988
  24 H :    0.033817
  25 C :   -0.074862
  26 H :    0.033380
  27 H :    0.036810
  28 C :   -0.037651
  29 H :    0.038566
  30 H :    0.036617
  31 H :    0.026329
  32 H :    0.061199
  33 H :    0.068706
Sum of atomic charges:   -0.0000000

LOEWDIN ATOMIC CHARGES
----------------------
   0 S :    0.388928
   1 C :   -0.199198
   2 C :   -0.056085
   3 C :   -0.065157
   4 C :   -0.183343
   5 H :    0.029858
   6 C :   -0.036822
   7 H :    0.024954
   8 H :    0.032246
   9 C :   -0.039550
  10 H :    0.021286
  11 H :    0.029224
  12 C :   -0.056441
  13 H :    0.019946
  14 H :    0.024006
  15 H :    0.027220
  16 S :    0.440236
  17 C :   -0.209242
  18 C :   -0.082532
  19 C :   -0.056138
  20 C :   -0.215741
  21 H :    0.033093
  22 C :   -0.034922
  23 H :    0.025707
  24 H :    0.034354
  25 C :   -0.034648
  26 H :    0.027181
  27 H :    0.024586
  28 C :   -0.066068
  29 H :    0.028021
  30 H :    0.023818
  31 H :    0.024984
  32 H :    0.032552
  33 H :    0.043687

  Mayer bond orders larger than 0.100000
B(  0-S ,  1-C ) :   1.1189 B(  0-S ,  4-C ) :   1.1321 B(  1-C ,  2-C ) :   1.6457
B(  1-C , 32-H ) :   0.9582 B(  2-C ,  3-C ) :   1.2108 B(  2-C ,  6-C ) :   1.0278
B(  3-C ,  4-C ) :   1.6102 B(  3-C ,  5-H ) :   0.9895 B(  4-C , 20-C ) :   1.0191
B(  6-C ,  7-H ) :   0.9356 B(  6-C ,  8-H ) :   0.9439 B(  6-C ,  9-C ) :   1.0676
B(  9-C , 10-H ) :   0.9570 B(  9-C , 11-H ) :   0.9575 B(  9-C , 12-C ) :   1.0695
B( 12-C , 13-H ) :   0.9750 B( 12-C , 14-H ) :   0.9759 B( 12-C , 15-H ) :   0.9759
B( 16-S , 17-C ) :   1.1527 B( 16-S , 20-C ) :   1.1428 B( 17-C , 18-C ) :   1.6418
B( 17-C , 33-H ) :   0.9628 B( 18-C , 19-C ) :   1.2188 B( 18-C , 21-H ) :   0.9725
B( 19-C , 20-C ) :   1.6299 B( 19-C , 22-C ) :   1.0465 B( 22-C , 23-H ) :   0.9324
B( 22-C , 24-H ) :   0.9323 B( 22-C , 25-C ) :   1.0620 B( 25-C , 26-H ) :   0.9576
B( 25-C , 27-H ) :   0.9578 B( 25-C , 28-C ) :   1.0841 B( 28-C , 29-H ) :   0.9742
B( 28-C , 30-H ) :   0.9764 B( 28-C , 31-H ) :   0.9733

Dispersion correction           -0.014021680
FINAL SINGLE POINT ENERGY     -1339.879726612620

DIPOLE MOMENT
-------------
                                X             Y             Z
Electronic contribution:    -13.97331     -18.71668     -17.52559
Nuclear contribution   :     14.29123      18.79802      18.16190
                        -----------------------------------------
Total Dipole Moment    :      0.31792       0.08135       0.63632
                        -----------------------------------------
Magnitude (a.u.)       :      0.71595
Magnitude (Debye)      :      1.81981

Rotational constants in cm-1:     0.017239     0.009384     0.006747
Rotational constants in MHz :   516.804284   281.310830   202.283870

                             ****ORCA TERMINATED NORMALLY****
TOTAL RUN TIME: 0 days 0 hours 0 minutes 21 seconds 486 msec
