                         Program Version 4.2.1 -  RELEASE  -
|  1> ! wB97X-D3 SP def2-SVP
|  2> %pal
|  3> nprocs 24
|  4> end
|  5>
|  6> * xyz 0 1
|  7> S 	 -66.0909 	 7.17383 	 -68.506
|  8> C 	 -65.5241 	 7.6334 	 -70.0986
|  9> C 	 -65.0875 	 6.55389 	 -70.8127
| 10> C 	 -65.1394 	 5.35608 	 -70.0495
| 11> C 	 -65.8104 	 5.46527 	 -68.8112
| 12> H 	 -64.7639 	 4.40134 	 -70.393
| 13> C 	 -64.5288 	 6.59811 	 -72.1946
| 14> H 	 -64.2308 	 5.58691 	 -72.4284
| 15> H 	 -63.6339 	 7.31124 	 -72.1884
| 16> C 	 -65.4452 	 7.01111 	 -73.2875
| 17> H 	 -65.5264 	 8.05164 	 -73.0532
| 18> H 	 -64.791 	 6.86131 	 -74.148
| 19> C 	 -66.7379 	 6.2399 	 -73.3424
| 20> H 	 -67.2153 	 6.16165 	 -72.3197
| 21> H 	 -67.4056 	 6.77697 	 -74.0334
| 22> H 	 -66.5543 	 5.1856 	 -73.5883
| 23> S 	 -65.5642 	 4.73007 	 -66.1636
| 24> C 	 -65.9135 	 3.09786 	 -65.7
| 25> C 	 -66.3799 	 2.298 	 -66.7672
| 26> C 	 -66.4195 	 3.01335 	 -68.0256
| 27> C 	 -66.0937 	 4.34721 	 -67.8772
| 28> H 	 -66.683 	 1.26533 	 -66.6359
| 29> C 	 -66.8772 	 2.31345 	 -69.2771
| 30> H 	 -67.3447 	 3.04023 	 -69.9578
| 31> H 	 -67.733 	 1.70917 	 -69.127
| 32> C 	 -65.7808 	 1.49441 	 -69.919
| 33> H 	 -65.5787 	 0.647105 	 -69.2076
| 34> H 	 -64.8937 	 2.03534 	 -70.0174
| 35> C 	 -66.2938 	 0.755739 	 -71.2176
| 36> H 	 -65.6064 	 0.0136534 	 -71.6373
| 37> H 	 -66.5445 	 1.38063 	 -72.0996
| 38> H 	 -67.2638 	 0.279944 	 -71.0582
| 39> H 	 -65.4961 	 8.59269 	 -70.5353
| 40> H 	 -65.7093 	 2.70558 	 -64.6228
| 41> *
| 42>
| 43>                          ****END OF INPUT****

CARTESIAN COORDINATES (ANGSTROEM)
---------------------------------
  S    -66.090900    7.173830  -68.506000
  C    -65.524100    7.633400  -70.098600
  C    -65.087500    6.553890  -70.812700
  C    -65.139400    5.356080  -70.049500
  C    -65.810400    5.465270  -68.811200
  H    -64.763900    4.401340  -70.393000
  C    -64.528800    6.598110  -72.194600
  H    -64.230800    5.586910  -72.428400
  H    -63.633900    7.311240  -72.188400
  C    -65.445200    7.011110  -73.287500
  H    -65.526400    8.051640  -73.053200
  H    -64.791000    6.861310  -74.148000
  C    -66.737900    6.239900  -73.342400
  H    -67.215300    6.161650  -72.319700
  H    -67.405600    6.776970  -74.033400
  H    -66.554300    5.185600  -73.588300
  S    -65.564200    4.730070  -66.163600
  C    -65.913500    3.097860  -65.700000
  C    -66.379900    2.298000  -66.767200
  C    -66.419500    3.013350  -68.025600
  C    -66.093700    4.347210  -67.877200
  H    -66.683000    1.265330  -66.635900
  C    -66.877200    2.313450  -69.277100
  H    -67.344700    3.040230  -69.957800
  H    -67.733000    1.709170  -69.127000
  C    -65.780800    1.494410  -69.919000
  H    -65.578700    0.647105  -69.207600
  H    -64.893700    2.035340  -70.017400
  C    -66.293800    0.755739  -71.217600
  H    -65.606400    0.013653  -71.637300
  H    -66.544500    1.380630  -72.099600
  H    -67.263800    0.279944  -71.058200
  H    -65.496100    8.592690  -70.535300
  H    -65.709300    2.705580  -64.622800

 Total Charge           Charge          ....    0
 Multiplicity           Mult            ....    1
 Number of Electrons    NEL             ....  134
 Basis Dimension        Dim             ....  322

ORBITAL ENERGIES
----------------

  NO   OCC          E(Eh)            E(eV)
   0   2.0000     -88.969252     -2420.9764
   1   2.0000     -88.966526     -2420.9023
   2   2.0000     -10.336916      -281.2818
   3   2.0000     -10.335558      -281.2448
   4   2.0000     -10.330455      -281.1060
   5   2.0000     -10.310429      -280.5610
   6   2.0000     -10.308496      -280.5084
   7   2.0000     -10.300615      -280.2940
   8   2.0000     -10.293810      -280.1088
   9   2.0000     -10.293082      -280.0890
  10   2.0000     -10.293079      -280.0889
  11   2.0000     -10.289944      -280.0036
  12   2.0000     -10.287527      -279.9378
  13   2.0000     -10.285995      -279.8962
  14   2.0000     -10.281248      -279.7670
  15   2.0000     -10.279231      -279.7121
  16   2.0000      -8.083341      -219.9589
  17   2.0000      -8.080618      -219.8848
  18   2.0000      -6.041978      -164.4106
  19   2.0000      -6.039168      -164.3341
  20   2.0000      -6.037874      -164.2989
  21   2.0000      -6.035275      -164.2282
  22   2.0000      -6.034074      -164.1955
  23   2.0000      -6.031311      -164.1203
  24   2.0000      -1.001232       -27.2449
  25   2.0000      -0.980726       -26.6869
  26   2.0000      -0.924270       -25.1507
  27   2.0000      -0.913417       -24.8553
  28   2.0000      -0.864133       -23.5143
  29   2.0000      -0.850936       -23.1551
  30   2.0000      -0.843241       -22.9458
  31   2.0000      -0.806881       -21.9563
  32   2.0000      -0.785401       -21.3718
  33   2.0000      -0.777001       -21.1433
  34   2.0000      -0.713097       -19.4044
  35   2.0000      -0.703647       -19.1472
  36   2.0000      -0.692367       -18.8403
  37   2.0000      -0.662942       -18.0396
  38   2.0000      -0.635422       -17.2907
  39   2.0000      -0.611108       -16.6291
  40   2.0000      -0.595113       -16.1939
  41   2.0000      -0.583119       -15.8675
  42   2.0000      -0.563023       -15.3206
  43   2.0000      -0.554173       -15.0798
  44   2.0000      -0.543255       -14.7827
  45   2.0000      -0.526871       -14.3369
  46   2.0000      -0.515707       -14.0331
  47   2.0000      -0.512669       -13.9504
  48   2.0000      -0.499052       -13.5799
  49   2.0000      -0.496817       -13.5191
  50   2.0000      -0.495577       -13.4853
  51   2.0000      -0.475467       -12.9381
  52   2.0000      -0.468084       -12.7372
  53   2.0000      -0.467632       -12.7249
  54   2.0000      -0.456542       -12.4231
  55   2.0000      -0.453980       -12.3534
  56   2.0000      -0.446945       -12.1620
  57   2.0000      -0.436751       -11.8846
  58   2.0000      -0.434679       -11.8282
  59   2.0000      -0.426482       -11.6052
  60   2.0000      -0.418670       -11.3926
  61   2.0000      -0.414196       -11.2708
  62   2.0000      -0.411317       -11.1925
  63   2.0000      -0.348663        -9.4876
  64   2.0000      -0.333985        -9.0882
  65   2.0000      -0.330212        -8.9855
  66   2.0000      -0.287567        -7.8251
  67   0.0000       0.023979         0.6525
  68   0.0000       0.067599         1.8395
  69   0.0000       0.101687         2.7670
  70   0.0000       0.119611         3.2548
  71   0.0000       0.125640         3.4188

MULLIKEN ATOMIC CHARGES
-----------------------
   0 S :    0.113929
   1 C :   -0.099444
   2 C :   -0.111329
   3 C :    0.024777
   4 C :   -0.135062
   5 H :   -0.004601
   6 C :    0.044302
   7 H :   -0.000586
   8 H :    0.050074
   9 C :   -0.042506
  10 H :    0.013623
  11 H :    0.032904
  12 C :   -0.060101
  13 H :    0.054795
  14 H :    0.047142
  15 H :    0.029323
  16 S :    0.087737
  17 C :   -0.119118
  18 C :   -0.032361
  19 C :   -0.043142
  20 C :   -0.133129
  21 H :    0.022968
  22 C :    0.066846
  23 H :    0.025248
  24 H :    0.007494
  25 C :   -0.053330
  26 H :    0.033991
  27 H :    0.028202
  28 C :   -0.061976
  29 H :    0.040999
  30 H :    0.027070
  31 H :    0.024550
  32 H :    0.026305
  33 H :    0.094409
Sum of atomic charges:   -0.0000000

LOEWDIN ATOMIC CHARGES
----------------------
   0 S :    0.405575
   1 C :   -0.193625
   2 C :   -0.071140
   3 C :   -0.063487
   4 C :   -0.196542
   5 H :    0.025141
   6 C :   -0.034738
   7 H :    0.020428
   8 H :    0.041967
   9 C :   -0.044730
  10 H :    0.017724
  11 H :    0.029481
  12 C :   -0.069510
  13 H :    0.037135
  14 H :    0.031373
  15 H :    0.026882
  16 S :    0.377789
  17 C :   -0.198750
  18 C :   -0.074906
  19 C :   -0.048507
  20 C :   -0.166465
  21 H :    0.031713
  22 C :   -0.034584
  23 H :    0.032997
  24 H :    0.026364
  25 C :   -0.028814
  26 H :    0.033215
  27 H :    0.013660
  28 C :   -0.074999
  29 H :    0.027369
  30 H :    0.025367
  31 H :    0.025509
  32 H :    0.021401
  33 H :    0.049704

  Mayer bond orders larger than 0.100000
B(  0-S ,  1-C ) :   1.1329 B(  0-S ,  4-C ) :   1.1570 B(  1-C ,  2-C ) :   1.5968
B(  1-C , 32-H ) :   0.9722 B(  2-C ,  3-C ) :   1.2678 B(  2-C ,  6-C ) :   1.0190
B(  3-C ,  4-C ) :   1.5376 B(  3-C ,  5-H ) :   0.9912 B(  4-C , 20-C ) :   1.0355
B(  6-C ,  7-H ) :   0.9353 B(  6-C ,  8-H ) :   0.9409 B(  6-C ,  9-C ) :   1.0682
B(  9-C , 10-H ) :   0.9543 B(  9-C , 11-H ) :   0.9536 B(  9-C , 12-C ) :   1.0802
B( 12-C , 13-H ) :   0.9688 B( 12-C , 14-H ) :   0.9727 B( 12-C , 15-H ) :   0.9713
B( 16-S , 17-C ) :   1.1656 B( 16-S , 20-C ) :   1.1128 B( 17-C , 18-C ) :   1.6058
B( 17-C , 33-H ) :   0.9526 B( 18-C , 19-C ) :   1.2166 B( 18-C , 21-H ) :   0.9893
B( 19-C , 20-C ) :   1.6395 B( 19-C , 22-C ) :   1.0426 B( 22-C , 23-H ) :   0.9376
B( 22-C , 24-H ) :   0.9316 B( 22-C , 25-C ) :   1.0518 B( 25-C , 26-H ) :   0.9534
B( 25-C , 27-H ) :   0.9609 B( 25-C , 28-C ) :   1.0639 B( 28-C , 29-H ) :   0.9780
B( 28-C , 30-H ) :   0.9761 B( 28-C , 31-H ) :   0.9726

Dispersion correction           -0.014607940
FINAL SINGLE POINT ENERGY     -1339.870994404770

DIPOLE MOMENT
-------------
                                X             Y             Z
Electronic contribution:      1.51320      13.01450      28.05267
Nuclear contribution   :     -1.44919     -13.50546     -28.59583
                        -----------------------------------------
Total Dipole Moment    :      0.06402      -0.49097      -0.54316
                        -----------------------------------------
Magnitude (a.u.)       :      0.73496
Magnitude (Debye)      :      1.86813

Rotational constants in cm-1:     0.017315     0.009871     0.006694
Rotational constants in MHz :   519.092194   295.936168   200.685108

                             ****ORCA TERMINATED NORMALLY****
TOTAL RUN TIME: 0 days 0 hours 0 minutes 22 seconds 148 msec
