                         Program Version 4.2.1 -  RELEASE  -
|  1> ! wB97X-D3 SP def2-SVP
|  2> %pal
|  3> nprocs 24
|  4> end
|  5>
|  6> * xyz 0 1
|  7> S 	 -40.0575 	 18.9963 	 12.9708
|  8> C 	 -39.9329 	 17.3374 	 13.4544
|  9> C 	 -38.7089 	 17.1294 	 14.0809
| 10> C 	 -37.8914 	 18.3257 	 14.0416
| 11> C 	 -38.3852 	 19.3258 	 13.2266
| 12> H 	 -36.9557 	 18.4176 	 14.3892
| 13> C 	 -38.2709 	 15.8566 	 14.7626
| 14> H 	 -37.1536 	 15.7576 	 14.8971
| 15> H 	 -38.4516 	 15.0382 	 14.0699
| 16> C 	 -38.9576 	 15.3497 	 15.9825
| 17> H 	 -38.5862 	 15.945 	 16.7879
| 18> H 	 -40.0029 	 15.5614 	 15.9501
| 19> C 	 -38.7606 	 13.9238 	 16.5049
| 20> H 	 -37.7144 	 13.8143 	 16.578
| 21> H 	 -39.1658 	 13.6937 	 17.5308
| 22> H 	 -39.1299 	 13.1728 	 15.8681
| 23> S 	 -38.4246 	 22.0234 	 13.4058
| 24> C 	 -36.9792 	 22.983 	 12.8673
| 25> C 	 -36.1414 	 22.2249 	 12.1039
| 26> C 	 -36.5851 	 20.8819 	 12.064
| 27> C 	 -37.6976 	 20.5966 	 12.8633
| 28> H 	 -35.2715 	 22.6328 	 11.6469
| 29> C 	 -35.794 	 19.745 	 11.4804
| 30> H 	 -35.8534 	 19.7866 	 10.3521
| 31> H 	 -36.1342 	 18.711 	 11.6991
| 32> C 	 -34.2935 	 19.5373 	 11.9399
| 33> H 	 -33.7699 	 20.4801 	 11.8409
| 34> H 	 -33.8264 	 18.8507 	 11.1901
| 35> C 	 -34.0241 	 19.1115 	 13.3743
| 36> H 	 -34.7051 	 19.594 	 14.132
| 37> H 	 -33.0073 	 19.384 	 13.733
| 38> H 	 -34.1589 	 18.0364 	 13.4402
| 39> H 	 -40.754 	 16.6508 	 13.4373
| 40> H 	 -36.8923 	 24.058 	 12.9885
| 41> *
| 42>
| 43>                          ****END OF INPUT****

CARTESIAN COORDINATES (ANGSTROEM)
---------------------------------
  S    -40.057500   18.996300   12.970800
  C    -39.932900   17.337400   13.454400
  C    -38.708900   17.129400   14.080900
  C    -37.891400   18.325700   14.041600
  C    -38.385200   19.325800   13.226600
  H    -36.955700   18.417600   14.389200
  C    -38.270900   15.856600   14.762600
  H    -37.153600   15.757600   14.897100
  H    -38.451600   15.038200   14.069900
  C    -38.957600   15.349700   15.982500
  H    -38.586200   15.945000   16.787900
  H    -40.002900   15.561400   15.950100
  C    -38.760600   13.923800   16.504900
  H    -37.714400   13.814300   16.578000
  H    -39.165800   13.693700   17.530800
  H    -39.129900   13.172800   15.868100
  S    -38.424600   22.023400   13.405800
  C    -36.979200   22.983000   12.867300
  C    -36.141400   22.224900   12.103900
  C    -36.585100   20.881900   12.064000
  C    -37.697600   20.596600   12.863300
  H    -35.271500   22.632800   11.646900
  C    -35.794000   19.745000   11.480400
  H    -35.853400   19.786600   10.352100
  H    -36.134200   18.711000   11.699100
  C    -34.293500   19.537300   11.939900
  H    -33.769900   20.480100   11.840900
  H    -33.826400   18.850700   11.190100
  C    -34.024100   19.111500   13.374300
  H    -34.705100   19.594000   14.132000
  H    -33.007300   19.384000   13.733000
  H    -34.158900   18.036400   13.440200
  H    -40.754000   16.650800   13.437300
  H    -36.892300   24.058000   12.988500

 Total Charge           Charge          ....    0
 Multiplicity           Mult            ....    1
 Number of Electrons    NEL             ....  134
 Basis Dimension        Dim             ....  322

ORBITAL ENERGIES
----------------

  NO   OCC          E(Eh)            E(eV)
   0   2.0000     -88.965167     -2420.8653
   1   2.0000     -88.964919     -2420.8585
   2   2.0000     -10.330440      -281.1056
   3   2.0000     -10.328140      -281.0430
   4   2.0000     -10.322604      -280.8923
   5   2.0000     -10.315184      -280.6904
   6   2.0000     -10.307649      -280.4854
   7   2.0000     -10.304485      -280.3993
   8   2.0000     -10.296943      -280.1941
   9   2.0000     -10.294002      -280.1140
  10   2.0000     -10.293556      -280.1019
  11   2.0000     -10.288458      -279.9632
  12   2.0000     -10.287029      -279.9243
  13   2.0000     -10.282452      -279.7997
  14   2.0000     -10.276650      -279.6419
  15   2.0000     -10.276036      -279.6251
  16   2.0000      -8.080519      -219.8821
  17   2.0000      -8.080379      -219.8783
  18   2.0000      -6.039028      -164.3303
  19   2.0000      -6.038826      -164.3248
  20   2.0000      -6.034911      -164.2183
  21   2.0000      -6.034884      -164.2175
  22   2.0000      -6.031210      -164.1176
  23   2.0000      -6.031093      -164.1144
  24   2.0000      -1.011973       -27.5372
  25   2.0000      -0.989908       -26.9368
  26   2.0000      -0.917382       -24.9632
  27   2.0000      -0.900732       -24.5102
  28   2.0000      -0.875800       -23.8317
  29   2.0000      -0.850734       -23.1496
  30   2.0000      -0.847178       -23.0529
  31   2.0000      -0.823493       -22.4084
  32   2.0000      -0.785304       -21.3692
  33   2.0000      -0.769367       -20.9355
  34   2.0000      -0.703791       -19.1511
  35   2.0000      -0.701940       -19.1008
  36   2.0000      -0.691037       -18.8041
  37   2.0000      -0.661863       -18.0102
  38   2.0000      -0.652729       -17.7616
  39   2.0000      -0.622112       -16.9285
  40   2.0000      -0.600544       -16.3416
  41   2.0000      -0.581876       -15.8337
  42   2.0000      -0.564525       -15.3615
  43   2.0000      -0.543811       -14.7979
  44   2.0000      -0.541880       -14.7453
  45   2.0000      -0.523879       -14.2555
  46   2.0000      -0.518107       -14.0984
  47   2.0000      -0.513426       -13.9710
  48   2.0000      -0.511846       -13.9280
  49   2.0000      -0.503661       -13.7053
  50   2.0000      -0.487936       -13.2774
  51   2.0000      -0.484950       -13.1962
  52   2.0000      -0.473433       -12.8828
  53   2.0000      -0.469040       -12.7632
  54   2.0000      -0.462817       -12.5939
  55   2.0000      -0.455012       -12.3815
  56   2.0000      -0.450076       -12.2472
  57   2.0000      -0.435372       -11.8471
  58   2.0000      -0.432265       -11.7625
  59   2.0000      -0.420248       -11.4355
  60   2.0000      -0.416698       -11.3389
  61   2.0000      -0.405183       -11.0256
  62   2.0000      -0.399427       -10.8690
  63   2.0000      -0.350552        -9.5390
  64   2.0000      -0.328750        -8.9457
  65   2.0000      -0.324249        -8.8233
  66   2.0000      -0.298744        -8.1292
  67   0.0000       0.033618         0.9148
  68   0.0000       0.058184         1.5833
  69   0.0000       0.102361         2.7854
  70   0.0000       0.120170         3.2700
  71   0.0000       0.130527         3.5518

MULLIKEN ATOMIC CHARGES
-----------------------
   0 S :    0.113989
   1 C :   -0.107568
   2 C :   -0.071256
   3 C :    0.106799
   4 C :   -0.145967
   5 H :   -0.058460
   6 C :    0.053713
   7 H :    0.026080
   8 H :    0.016123
   9 C :   -0.051265
  10 H :    0.013545
  11 H :    0.013680
  12 C :   -0.037859
  13 H :    0.014355
  14 H :    0.043986
  15 H :    0.021220
  16 S :    0.099722
  17 C :   -0.096497
  18 C :   -0.011645
  19 C :    0.003623
  20 C :   -0.165089
  21 H :    0.019110
  22 C :    0.005573
  23 H :    0.041035
  24 H :    0.034499
  25 C :   -0.085590
  26 H :    0.015047
  27 H :    0.036975
  28 C :   -0.074536
  29 H :    0.051254
  30 H :    0.040024
  31 H :    0.032194
  32 H :    0.045213
  33 H :    0.057975
Sum of atomic charges:   -0.0000000

LOEWDIN ATOMIC CHARGES
----------------------
   0 S :    0.422669
   1 C :   -0.193735
   2 C :   -0.056357
   3 C :   -0.044816
   4 C :   -0.198998
   5 H :    0.005828
   6 C :   -0.043780
   7 H :    0.034739
   8 H :    0.032612
   9 C :   -0.044874
  10 H :    0.021508
  11 H :    0.017280
  12 C :   -0.058833
  13 H :    0.018667
  14 H :    0.038633
  15 H :    0.014609
  16 S :    0.404574
  17 C :   -0.159202
  18 C :   -0.060280
  19 C :   -0.063548
  20 C :   -0.209965
  21 H :    0.033911
  22 C :   -0.043860
  23 H :    0.038004
  24 H :    0.033733
  25 C :   -0.047281
  26 H :    0.013242
  27 H :    0.030284
  28 C :   -0.074480
  29 H :    0.031703
  30 H :    0.032202
  31 H :    0.021291
  32 H :    0.025909
  33 H :    0.028609

  Mayer bond orders larger than 0.100000
B(  0-S ,  1-C ) :   1.1532 B(  0-S ,  4-C ) :   1.1634 B(  1-C ,  2-C ) :   1.5772
B(  1-C , 32-H ) :   0.9763 B(  2-C ,  3-C ) :   1.2518 B(  2-C ,  6-C ) :   1.0303
B(  3-C ,  4-C ) :   1.5547 B(  3-C ,  5-H ) :   1.0116 B(  4-C , 20-C ) :   1.0086
B(  6-C ,  7-H ) :   0.9387 B(  6-C ,  8-H ) :   0.9328 B(  6-C ,  9-C ) :   1.0658
B(  9-C , 10-H ) :   0.9496 B(  9-C , 11-H ) :   0.9539 B(  9-C , 12-C ) :   1.0815
B( 12-C , 13-H ) :   0.9751 B( 12-C , 14-H ) :   0.9731 B( 12-C , 15-H ) :   0.9752
B( 16-S , 17-C ) :   1.1432 B( 16-S , 20-C ) :   1.1610 B( 17-C , 18-C ) :   1.6123
B( 17-C , 33-H ) :   0.9687 B( 18-C , 19-C ) :   1.2327 B( 18-C , 21-H ) :   0.9989
B( 19-C , 20-C ) :   1.5854 B( 19-C , 22-C ) :   1.0525 B( 22-C , 23-H ) :   0.9294
B( 22-C , 24-H ) :   0.9472 B( 22-C , 25-C ) :   1.0557 B( 25-C , 26-H ) :   0.9605
B( 25-C , 27-H ) :   0.9559 B( 25-C , 28-C ) :   1.0696 B( 28-C , 29-H ) :   0.9696
B( 28-C , 30-H ) :   0.9730 B( 28-C , 31-H ) :   0.9751

Dispersion correction           -0.014460051
FINAL SINGLE POINT ENERGY     -1339.852720205409

DIPOLE MOMENT
-------------
                                X             Y             Z
Electronic contribution:    -16.72859      22.82283      -8.04173
Nuclear contribution   :     17.24470     -23.14085       8.12117
                        -----------------------------------------
Total Dipole Moment    :      0.51611      -0.31802       0.07944
                        -----------------------------------------
Magnitude (a.u.)       :      0.61141
Magnitude (Debye)      :      1.55407

Rotational constants in cm-1:     0.020741     0.007940     0.006377
Rotational constants in MHz :   621.790716   238.035313   191.181255

                             ****ORCA TERMINATED NORMALLY****
TOTAL RUN TIME: 0 days 0 hours 0 minutes 21 seconds 616 msec
