                         Program Version 4.2.1 -  RELEASE  -
|  1> ! wB97X-D3 SP def2-SVP
|  2> %pal
|  3> nprocs 24
|  4> end
|  5>
|  6> * xyz 0 1
|  7> S 	 -122.872 	 66.6109 	 -37.2569
|  8> C 	 -122.466 	 66.4455 	 -35.5175
|  9> C 	 -123.641 	 66.2867 	 -34.7408
| 10> C 	 -124.769 	 65.9733 	 -35.6123
| 11> C 	 -124.477 	 66.0037 	 -36.9486
| 12> H 	 -125.882 	 65.8579 	 -35.3913
| 13> C 	 -123.69 	 66.376 	 -33.2415
| 14> H 	 -124.709 	 66.6916 	 -33.0957
| 15> H 	 -122.987 	 67.1518 	 -33.0258
| 16> C 	 -123.517 	 65.0511 	 -32.6048
| 17> H 	 -123.82 	 65.0925 	 -31.4957
| 18> H 	 -124.154 	 64.2531 	 -33.0145
| 19> C 	 -122.184 	 64.6395 	 -32.8181
| 20> H 	 -121.993 	 64.0993 	 -33.7194
| 21> H 	 -121.537 	 65.555 	 -32.6472
| 22> H 	 -121.98 	 63.9296 	 -31.9926
| 23> S 	 -125.381 	 67.08 	 -39.2474
| 24> C 	 -126.31 	 66.0613 	 -40.3679
| 25> C 	 -126.661 	 64.8673 	 -39.7987
| 26> C 	 -126.123 	 64.7632 	 -38.4592
| 27> C 	 -125.355 	 65.8255 	 -38.0673
| 28> H 	 -127.295 	 64.1571 	 -40.2052
| 29> C 	 -126.46 	 63.4819 	 -37.7257
| 30> H 	 -127.124 	 62.8157 	 -38.3132
| 31> H 	 -126.912 	 63.6101 	 -36.7265
| 32> C 	 -125.157 	 62.7674 	 -37.3866
| 33> H 	 -124.519 	 63.4591 	 -36.8577
| 34> H 	 -124.689 	 62.5226 	 -38.3315
| 35> C 	 -125.377 	 61.5039 	 -36.4927
| 36> H 	 -126.369 	 61.1468 	 -36.7561
| 37> H 	 -125.46 	 61.8933 	 -35.4615
| 38> H 	 -124.617 	 60.7348 	 -36.6314
| 39> H 	 -121.526 	 66.7016 	 -35.14
| 40> H 	 -126.566 	 66.3759 	 -41.3654
| 41> *
| 42>
| 43>                          ****END OF INPUT****

CARTESIAN COORDINATES (ANGSTROEM)
---------------------------------
  S    -122.872000   66.610900  -37.256900
  C    -122.466000   66.445500  -35.517500
  C    -123.641000   66.286700  -34.740800
  C    -124.769000   65.973300  -35.612300
  C    -124.477000   66.003700  -36.948600
  H    -125.882000   65.857900  -35.391300
  C    -123.690000   66.376000  -33.241500
  H    -124.709000   66.691600  -33.095700
  H    -122.987000   67.151800  -33.025800
  C    -123.517000   65.051100  -32.604800
  H    -123.820000   65.092500  -31.495700
  H    -124.154000   64.253100  -33.014500
  C    -122.184000   64.639500  -32.818100
  H    -121.993000   64.099300  -33.719400
  H    -121.537000   65.555000  -32.647200
  H    -121.980000   63.929600  -31.992600
  S    -125.381000   67.080000  -39.247400
  C    -126.310000   66.061300  -40.367900
  C    -126.661000   64.867300  -39.798700
  C    -126.123000   64.763200  -38.459200
  C    -125.355000   65.825500  -38.067300
  H    -127.295000   64.157100  -40.205200
  C    -126.460000   63.481900  -37.725700
  H    -127.124000   62.815700  -38.313200
  H    -126.912000   63.610100  -36.726500
  C    -125.157000   62.767400  -37.386600
  H    -124.519000   63.459100  -36.857700
  H    -124.689000   62.522600  -38.331500
  C    -125.377000   61.503900  -36.492700
  H    -126.369000   61.146800  -36.756100
  H    -125.460000   61.893300  -35.461500
  H    -124.617000   60.734800  -36.631400
  H    -121.526000   66.701600  -35.140000
  H    -126.566000   66.375900  -41.365400

 Total Charge           Charge          ....    0
 Multiplicity           Mult            ....    1
 Number of Electrons    NEL             ....  134
 Basis Dimension        Dim             ....  322

ORBITAL ENERGIES
----------------

  NO   OCC          E(Eh)            E(eV)
   0   2.0000     -88.964905     -2420.8581
   1   2.0000     -88.964629     -2420.8506
   2   2.0000     -10.326364      -280.9947
   3   2.0000     -10.320762      -280.8422
   4   2.0000     -10.319045      -280.7955
   5   2.0000     -10.315628      -280.7025
   6   2.0000     -10.310056      -280.5509
   7   2.0000     -10.301233      -280.3108
   8   2.0000     -10.300408      -280.2884
   9   2.0000     -10.291293      -280.0403
  10   2.0000     -10.290678      -280.0236
  11   2.0000     -10.285784      -279.8904
  12   2.0000     -10.282459      -279.7999
  13   2.0000     -10.277064      -279.6531
  14   2.0000     -10.273990      -279.5695
  15   2.0000     -10.270410      -279.4721
  16   2.0000      -8.079962      -219.8669
  17   2.0000      -8.078909      -219.8383
  18   2.0000      -6.038579      -164.3181
  19   2.0000      -6.037478      -164.2881
  20   2.0000      -6.034391      -164.2041
  21   2.0000      -6.033638      -164.1836
  22   2.0000      -6.030627      -164.1017
  23   2.0000      -6.029458      -164.0699
  24   2.0000      -1.010649       -27.5012
  25   2.0000      -0.981763       -26.7151
  26   2.0000      -0.937904       -25.5217
  27   2.0000      -0.909316       -24.7438
  28   2.0000      -0.875905       -23.8346
  29   2.0000      -0.848365       -23.0852
  30   2.0000      -0.845095       -22.9962
  31   2.0000      -0.816857       -22.2278
  32   2.0000      -0.783662       -21.3245
  33   2.0000      -0.769354       -20.9352
  34   2.0000      -0.708523       -19.2799
  35   2.0000      -0.694162       -18.8891
  36   2.0000      -0.684470       -18.6254
  37   2.0000      -0.669864       -18.2279
  38   2.0000      -0.645563       -17.5667
  39   2.0000      -0.616206       -16.7678
  40   2.0000      -0.601249       -16.3608
  41   2.0000      -0.575098       -15.6492
  42   2.0000      -0.569910       -15.5080
  43   2.0000      -0.564633       -15.3644
  44   2.0000      -0.547575       -14.9003
  45   2.0000      -0.533999       -14.5309
  46   2.0000      -0.519474       -14.1356
  47   2.0000      -0.509982       -13.8773
  48   2.0000      -0.500862       -13.6291
  49   2.0000      -0.499739       -13.5986
  50   2.0000      -0.493508       -13.4290
  51   2.0000      -0.485403       -13.2085
  52   2.0000      -0.468666       -12.7531
  53   2.0000      -0.462313       -12.5802
  54   2.0000      -0.460380       -12.5276
  55   2.0000      -0.449642       -12.2354
  56   2.0000      -0.442353       -12.0370
  57   2.0000      -0.434645       -11.8273
  58   2.0000      -0.427582       -11.6351
  59   2.0000      -0.422238       -11.4897
  60   2.0000      -0.415788       -11.3142
  61   2.0000      -0.414871       -11.2892
  62   2.0000      -0.404692       -11.0122
  63   2.0000      -0.346957        -9.4412
  64   2.0000      -0.329436        -8.9644
  65   2.0000      -0.327806        -8.9201
  66   2.0000      -0.291508        -7.9323
  67   0.0000       0.028157         0.7662
  68   0.0000       0.061782         1.6812
  69   0.0000       0.101301         2.7565
  70   0.0000       0.119179         3.2430
  71   0.0000       0.124539         3.3889

MULLIKEN ATOMIC CHARGES
-----------------------
   0 S :    0.103963
   1 C :   -0.099748
   2 C :   -0.140906
   3 C :    0.002386
   4 C :   -0.166845
   5 H :    0.042868
   6 C :    0.115831
   7 H :    0.013570
   8 H :    0.033766
   9 C :   -0.069782
  10 H :    0.040566
  11 H :    0.026925
  12 C :   -0.046042
  13 H :    0.051800
  14 H :    0.023643
  15 H :    0.025859
  16 S :    0.100689
  17 C :   -0.083987
  18 C :    0.009782
  19 C :   -0.034137
  20 C :   -0.151127
  21 H :   -0.006083
  22 C :    0.058460
  23 H :    0.022747
  24 H :    0.022783
  25 C :   -0.127437
  26 H :    0.054866
  27 H :    0.023389
  28 C :   -0.023469
  29 H :    0.017154
  30 H :    0.032664
  31 H :    0.046610
  32 H :    0.026036
  33 H :    0.053206
Sum of atomic charges:    0.0000000

LOEWDIN ATOMIC CHARGES
----------------------
   0 S :    0.389278
   1 C :   -0.181663
   2 C :   -0.045549
   3 C :   -0.079278
   4 C :   -0.195307
   5 H :    0.046185
   6 C :   -0.030140
   7 H :    0.031560
   8 H :    0.030888
   9 C :   -0.053704
  10 H :    0.030344
  11 H :    0.030714
  12 C :   -0.068000
  13 H :    0.026650
  14 H :    0.027835
  15 H :    0.031158
  16 S :    0.402920
  17 C :   -0.166174
  18 C :   -0.057051
  19 C :   -0.051765
  20 C :   -0.212417
  21 H :    0.021401
  22 C :   -0.033719
  23 H :    0.028135
  24 H :    0.028220
  25 C :   -0.039740
  26 H :    0.022626
  27 H :    0.018173
  28 C :   -0.064577
  29 H :    0.019801
  30 H :    0.027953
  31 H :    0.027965
  32 H :    0.011512
  33 H :    0.025763

  Mayer bond orders larger than 0.100000
B(  0-S ,  1-C ) :   1.1246 B(  0-S ,  4-C ) :   1.1360 B(  1-C ,  2-C ) :   1.6066
B(  1-C , 32-H ) :   0.9790 B(  2-C ,  3-C ) :   1.2070 B(  2-C ,  6-C ) :   1.0085
B(  3-C ,  4-C ) :   1.6091 B(  3-C ,  5-H ) :   0.9776 B(  4-C , 20-C ) :   1.0424
B(  6-C ,  7-H ) :   0.9230 B(  6-C ,  8-H ) :   0.9451 B(  6-C ,  9-C ) :   1.0805
B(  9-C , 10-H ) :   0.9533 B(  9-C , 11-H ) :   0.9417 B(  9-C , 12-C ) :   1.0892
B( 12-C , 13-H ) :   0.9674 B( 12-C , 14-H ) :   0.9713 B( 12-C , 15-H ) :   0.9623
B( 16-S , 17-C ) :   1.1442 B( 16-S , 20-C ) :   1.1307 B( 17-C , 18-C ) :   1.6051
B( 17-C , 33-H ) :   0.9699 B( 18-C , 19-C ) :   1.2386 B( 18-C , 21-H ) :   1.0026
B( 19-C , 20-C ) :   1.6134 B( 19-C , 22-C ) :   1.0455 B( 22-C , 23-H ) :   0.9348
B( 22-C , 24-H ) :   0.9353 B( 22-C , 25-C ) :   1.0542 B( 25-C , 26-H ) :   0.9613
B( 25-C , 27-H ) :   0.9568 B( 25-C , 28-C ) :   1.0673 B( 28-C , 29-H ) :   0.9746
B( 28-C , 30-H ) :   0.9748 B( 28-C , 31-H ) :   0.9763

Dispersion correction           -0.015116535
FINAL SINGLE POINT ENERGY     -1339.851133794145

DIPOLE MOMENT
-------------
                                X             Y             Z
Electronic contribution:     -0.22066      19.92163     -20.92779
Nuclear contribution   :     -0.04999     -20.24105      21.31714
                        -----------------------------------------
Total Dipole Moment    :     -0.27065      -0.31942       0.38935
                        -----------------------------------------
Magnitude (a.u.)       :      0.57173
Magnitude (Debye)      :      1.45322

Rotational constants in cm-1:     0.020646     0.009541     0.007272
Rotational constants in MHz :   618.942099   286.033577   218.000412

                             ****ORCA TERMINATED NORMALLY****
TOTAL RUN TIME: 0 days 0 hours 0 minutes 22 seconds 944 msec
