                         Program Version 4.2.1 -  RELEASE  -
|  1> ! wB97X-D3 SP def2-SVP
|  2> %pal
|  3> nprocs 24
|  4> end
|  5>
|  6> * xyz 0 1
|  7> S 	 -51.7076 	 -53.7884 	 -82.6484
|  8> C 	 -52.7545 	 -52.6324 	 -81.8559
|  9> C 	 -53.9732 	 -53.2476 	 -81.5261
| 10> C 	 -54.0204 	 -54.6131 	 -81.9371
| 11> C 	 -52.8952 	 -55.0716 	 -82.6552
| 12> H 	 -54.8533 	 -55.3064 	 -81.8892
| 13> C 	 -55.0935 	 -52.4675 	 -80.7886
| 14> H 	 -55.0087 	 -52.4641 	 -79.7378
| 15> H 	 -55.9675 	 -53.0288 	 -81.0928
| 16> C 	 -55.4058 	 -50.9927 	 -81.263
| 17> H 	 -54.6339 	 -50.2513 	 -81.1677
| 18> H 	 -55.3478 	 -51.016 	 -82.3802
| 19> C 	 -56.7409 	 -50.3304 	 -80.8294
| 20> H 	 -57.6526 	 -50.877 	 -80.8881
| 21> H 	 -56.6529 	 -50.0488 	 -79.7979
| 22> H 	 -56.8049 	 -49.4191 	 -81.3306
| 23> S 	 -51.7807 	 -57.4624 	 -82.713
| 24> C 	 -52.1756 	 -58.6853 	 -83.8995
| 25> C 	 -53.1333 	 -58.2134 	 -84.7848
| 26> C 	 -53.5513 	 -56.8331 	 -84.4235
| 27> C 	 -52.8216 	 -56.2958 	 -83.364
| 28> H 	 -53.5718 	 -58.89 	 -85.5056
| 29> C 	 -54.6467 	 -56.0546 	 -85.1396
| 30> H 	 -55.2376 	 -55.5562 	 -84.4015
| 31> H 	 -55.2109 	 -56.8747 	 -85.4137
| 32> C 	 -54.0628 	 -55.1183 	 -86.2573
| 33> H 	 -54.8715 	 -54.9225 	 -86.9862
| 34> H 	 -53.3214 	 -55.5993 	 -86.8487
| 35> C 	 -53.3975 	 -53.8037 	 -85.8128
| 36> H 	 -53.1265 	 -53.1431 	 -86.6821
| 37> H 	 -52.4188 	 -54.0542 	 -85.4252
| 38> H 	 -53.8643 	 -53.1415 	 -85.1427
| 39> H 	 -52.4769 	 -51.5862 	 -81.614
| 40> H 	 -51.6826 	 -59.6109 	 -84.0014
| 41> *
| 42>
| 43>                          ****END OF INPUT****

CARTESIAN COORDINATES (ANGSTROEM)
---------------------------------
  S    -51.707600  -53.788400  -82.648400
  C    -52.754500  -52.632400  -81.855900
  C    -53.973200  -53.247600  -81.526100
  C    -54.020400  -54.613100  -81.937100
  C    -52.895200  -55.071600  -82.655200
  H    -54.853300  -55.306400  -81.889200
  C    -55.093500  -52.467500  -80.788600
  H    -55.008700  -52.464100  -79.737800
  H    -55.967500  -53.028800  -81.092800
  C    -55.405800  -50.992700  -81.263000
  H    -54.633900  -50.251300  -81.167700
  H    -55.347800  -51.016000  -82.380200
  C    -56.740900  -50.330400  -80.829400
  H    -57.652600  -50.877000  -80.888100
  H    -56.652900  -50.048800  -79.797900
  H    -56.804900  -49.419100  -81.330600
  S    -51.780700  -57.462400  -82.713000
  C    -52.175600  -58.685300  -83.899500
  C    -53.133300  -58.213400  -84.784800
  C    -53.551300  -56.833100  -84.423500
  C    -52.821600  -56.295800  -83.364000
  H    -53.571800  -58.890000  -85.505600
  C    -54.646700  -56.054600  -85.139600
  H    -55.237600  -55.556200  -84.401500
  H    -55.210900  -56.874700  -85.413700
  C    -54.062800  -55.118300  -86.257300
  H    -54.871500  -54.922500  -86.986200
  H    -53.321400  -55.599300  -86.848700
  C    -53.397500  -53.803700  -85.812800
  H    -53.126500  -53.143100  -86.682100
  H    -52.418800  -54.054200  -85.425200
  H    -53.864300  -53.141500  -85.142700
  H    -52.476900  -51.586200  -81.614000
  H    -51.682600  -59.610900  -84.001400

 Total Charge           Charge          ....    0
 Multiplicity           Mult            ....    1
 Number of Electrons    NEL             ....  134
 Basis Dimension        Dim             ....  322

ORBITAL ENERGIES
----------------

  NO   OCC          E(Eh)            E(eV)
   0   2.0000     -88.968551     -2420.9574
   1   2.0000     -88.960673     -2420.7430
   2   2.0000     -10.328738      -281.0592
   3   2.0000     -10.321096      -280.8513
   4   2.0000     -10.318246      -280.7738
   5   2.0000     -10.315873      -280.7092
   6   2.0000     -10.309030      -280.5230
   7   2.0000     -10.307557      -280.4829
   8   2.0000     -10.301076      -280.3065
   9   2.0000     -10.299226      -280.2562
  10   2.0000     -10.295963      -280.1674
  11   2.0000     -10.293066      -280.0886
  12   2.0000     -10.286288      -279.9041
  13   2.0000     -10.283860      -279.8381
  14   2.0000     -10.273537      -279.5571
  15   2.0000     -10.267546      -279.3941
  16   2.0000      -8.082571      -219.9379
  17   2.0000      -8.076725      -219.7789
  18   2.0000      -6.041059      -164.3856
  19   2.0000      -6.036867      -164.2715
  20   2.0000      -6.035232      -164.2270
  21   2.0000      -6.033693      -164.1851
  22   2.0000      -6.030808      -164.1066
  23   2.0000      -6.027635      -164.0203
  24   2.0000      -1.009193       -27.4615
  25   2.0000      -0.982205       -26.7271
  26   2.0000      -0.904056       -24.6006
  27   2.0000      -0.902207       -24.5503
  28   2.0000      -0.873911       -23.7803
  29   2.0000      -0.849853       -23.1257
  30   2.0000      -0.842300       -22.9202
  31   2.0000      -0.816028       -22.2052
  32   2.0000      -0.786352       -21.3977
  33   2.0000      -0.770939       -20.9783
  34   2.0000      -0.711725       -19.3670
  35   2.0000      -0.706986       -19.2381
  36   2.0000      -0.696287       -18.9469
  37   2.0000      -0.665189       -18.1007
  38   2.0000      -0.644275       -17.5316
  39   2.0000      -0.612433       -16.6651
  40   2.0000      -0.589864       -16.0510
  41   2.0000      -0.570386       -15.5210
  42   2.0000      -0.560948       -15.2642
  43   2.0000      -0.548372       -14.9220
  44   2.0000      -0.535243       -14.5647
  45   2.0000      -0.523844       -14.2545
  46   2.0000      -0.522361       -14.2142
  47   2.0000      -0.513401       -13.9703
  48   2.0000      -0.507654       -13.8140
  49   2.0000      -0.497884       -13.5481
  50   2.0000      -0.493331       -13.4242
  51   2.0000      -0.483827       -13.1656
  52   2.0000      -0.472981       -12.8705
  53   2.0000      -0.471496       -12.8301
  54   2.0000      -0.459117       -12.4932
  55   2.0000      -0.444204       -12.0874
  56   2.0000      -0.441091       -12.0027
  57   2.0000      -0.438822       -11.9410
  58   2.0000      -0.431029       -11.7289
  59   2.0000      -0.428346       -11.6559
  60   2.0000      -0.415519       -11.3068
  61   2.0000      -0.410103       -11.1595
  62   2.0000      -0.401322       -10.9205
  63   2.0000      -0.338738        -9.2175
  64   2.0000      -0.331189        -9.0121
  65   2.0000      -0.322353        -8.7717
  66   2.0000      -0.302225        -8.2240
  67   0.0000       0.035436         0.9643
  68   0.0000       0.059656         1.6233
  69   0.0000       0.116504         3.1702
  70   0.0000       0.125354         3.4110
  71   0.0000       0.129254         3.5172

MULLIKEN ATOMIC CHARGES
-----------------------
   0 S :    0.127003
   1 C :   -0.139308
   2 C :   -0.099891
   3 C :    0.052397
   4 C :   -0.174279
   5 H :    0.014463
   6 C :    0.116955
   7 H :    0.042249
   8 H :    0.019840
   9 C :   -0.131873
  10 H :    0.016245
  11 H :    0.022156
  12 C :   -0.001450
  13 H :    0.031106
  14 H :    0.019650
  15 H :    0.020382
  16 S :    0.110429
  17 C :   -0.078946
  18 C :   -0.040584
  19 C :   -0.107083
  20 C :   -0.166999
  21 H :    0.027070
  22 C :    0.155967
  23 H :    0.011879
  24 H :   -0.004049
  25 C :   -0.040972
  26 H :    0.027981
  27 H :    0.018535
  28 C :   -0.042000
  29 H :    0.027659
  30 H :    0.023886
  31 H :    0.026599
  32 H :    0.068393
  33 H :    0.046588
Sum of atomic charges:   -0.0000000

LOEWDIN ATOMIC CHARGES
----------------------
   0 S :    0.428477
   1 C :   -0.202858
   2 C :   -0.066554
   3 C :   -0.056978
   4 C :   -0.208006
   5 H :    0.030574
   6 C :   -0.023431
   7 H :    0.025437
   8 H :    0.032148
   9 C :   -0.048761
  10 H :    0.017592
  11 H :    0.025886
  12 C :   -0.056185
  13 H :    0.022270
  14 H :    0.024220
  15 H :    0.023984
  16 S :    0.434085
  17 C :   -0.179802
  18 C :   -0.073679
  19 C :   -0.046836
  20 C :   -0.231814
  21 H :    0.033079
  22 C :   -0.024742
  23 H :    0.027243
  24 H :    0.021947
  25 C :   -0.031052
  26 H :    0.023328
  27 H :    0.023590
  28 C :   -0.068996
  29 H :    0.033579
  30 H :    0.016276
  31 H :    0.015524
  32 H :    0.038169
  33 H :    0.022286

  Mayer bond orders larger than 0.100000
B(  0-S ,  1-C ) :   1.1633 B(  0-S ,  4-C ) :   1.1609 B(  1-C ,  2-C ) :   1.5603
B(  1-C ,  4-C ) :   0.1081 B(  1-C , 32-H ) :   0.9694 B(  2-C ,  3-C ) :   1.2787
B(  2-C ,  6-C ) :   1.0046 B(  3-C ,  4-C ) :   1.5448 B(  3-C ,  5-H ) :   0.9906
B(  4-C , 20-C ) :   1.0375 B(  6-C ,  7-H ) :   0.9453 B(  6-C ,  8-H ) :   0.9430
B(  6-C ,  9-C ) :   1.0511 B(  9-C , 10-H ) :   0.9520 B(  9-C , 11-H ) :   0.9588
B(  9-C , 12-C ) :   1.0879 B( 12-C , 13-H ) :   0.9785 B( 12-C , 14-H ) :   0.9726
B( 12-C , 15-H ) :   0.9700 B( 16-S , 17-C ) :   1.1656 B( 16-S , 20-C ) :   1.1622
B( 17-C , 18-C ) :   1.6076 B( 17-C , 33-H ) :   0.9728 B( 18-C , 19-C ) :   1.2349
B( 18-C , 21-H ) :   0.9894 B( 19-C , 20-C ) :   1.5808 B( 19-C , 22-C ) :   1.0255
B( 22-C , 23-H ) :   0.9347 B( 22-C , 24-H ) :   0.9220 B( 22-C , 25-C ) :   1.0518
B( 25-C , 26-H ) :   0.9596 B( 25-C , 27-H ) :   0.9565 B( 25-C , 28-C ) :   1.0790
B( 28-C , 29-H ) :   0.9689 B( 28-C , 30-H ) :   0.9678 B( 28-C , 31-H ) :   0.9791

Dispersion correction           -0.015678995
FINAL SINGLE POINT ENERGY     -1339.857941995941

DIPOLE MOMENT
-------------
                                X             Y             Z
Electronic contribution:     19.66480     -19.05544       4.70849
Nuclear contribution   :    -20.24020      19.25129      -4.83514
                        -----------------------------------------
Total Dipole Moment    :     -0.57540       0.19585      -0.12666
                        -----------------------------------------
Magnitude (a.u.)       :      0.62088
Magnitude (Debye)      :      1.57815

Rotational constants in cm-1:     0.023512     0.007811     0.007055
Rotational constants in MHz :   704.874414   234.179924   211.493025

                             ****ORCA TERMINATED NORMALLY****
TOTAL RUN TIME: 0 days 0 hours 0 minutes 21 seconds 115 msec
