                         Program Version 4.2.1 -  RELEASE  -
|  1> ! wB97X-D3 SP def2-SVP
|  2> %pal
|  3> nprocs 24
|  4> end
|  5>
|  6> * xyz 0 1
|  7> S 	 -134.195 	 62.9367 	 -62.5076
|  8> C 	 -134.844 	 64.4688 	 -62.033
|  9> C 	 -134.665 	 64.5869 	 -60.6855
| 10> C 	 -134.222 	 63.3893 	 -60.0208
| 11> C 	 -133.785 	 62.4807 	 -60.9141
| 12> H 	 -134.26 	 63.1652 	 -58.9771
| 13> C 	 -135.164 	 65.7159 	 -59.7844
| 14> H 	 -135.199 	 66.641 	 -60.3034
| 15> H 	 -134.381 	 65.9666 	 -59.0116
| 16> C 	 -136.499 	 65.3266 	 -58.9406
| 17> H 	 -136.216 	 64.7589 	 -58.1043
| 18> H 	 -137.002 	 66.2338 	 -58.5874
| 19> C 	 -137.541 	 64.4405 	 -59.6499
| 20> H 	 -137.039 	 63.5378 	 -59.9382
| 21> H 	 -138.33 	 64.1688 	 -59.058
| 22> H 	 -138.042 	 64.9394 	 -60.5527
| 23> S 	 -134.419 	 59.8811 	 -60.1783
| 24> C 	 -133.26 	 58.5795 	 -60.0616
| 25> C 	 -132.028 	 59.1338 	 -60.3204
| 26> C 	 -132.044 	 60.535 	 -60.6435
| 27> C 	 -133.338 	 61.1147 	 -60.6148
| 28> H 	 -131.246 	 58.4395 	 -60.1439
| 29> C 	 -130.756 	 61.2844 	 -60.8932
| 30> H 	 -130.581 	 61.7175 	 -59.8718
| 31> H 	 -131.065 	 62.1327 	 -61.5812
| 32> C 	 -129.695 	 60.5359 	 -61.669
| 33> H 	 -129.448 	 59.6479 	 -61.093
| 34> H 	 -128.799 	 61.2078 	 -61.6603
| 35> C 	 -130.235 	 60.2075 	 -63.0514
| 36> H 	 -129.46 	 59.7987 	 -63.714
| 37> H 	 -130.625 	 61.093 	 -63.519
| 38> H 	 -130.971 	 59.5155 	 -62.9166
| 39> H 	 -135.239 	 65.2109 	 -62.6789
| 40> H 	 -133.587 	 57.5741 	 -59.7212
| 41> *
| 42>
| 43>                          ****END OF INPUT****

CARTESIAN COORDINATES (ANGSTROEM)
---------------------------------
  S    -134.195000   62.936700  -62.507600
  C    -134.844000   64.468800  -62.033000
  C    -134.665000   64.586900  -60.685500
  C    -134.222000   63.389300  -60.020800
  C    -133.785000   62.480700  -60.914100
  H    -134.260000   63.165200  -58.977100
  C    -135.164000   65.715900  -59.784400
  H    -135.199000   66.641000  -60.303400
  H    -134.381000   65.966600  -59.011600
  C    -136.499000   65.326600  -58.940600
  H    -136.216000   64.758900  -58.104300
  H    -137.002000   66.233800  -58.587400
  C    -137.541000   64.440500  -59.649900
  H    -137.039000   63.537800  -59.938200
  H    -138.330000   64.168800  -59.058000
  H    -138.042000   64.939400  -60.552700
  S    -134.419000   59.881100  -60.178300
  C    -133.260000   58.579500  -60.061600
  C    -132.028000   59.133800  -60.320400
  C    -132.044000   60.535000  -60.643500
  C    -133.338000   61.114700  -60.614800
  H    -131.246000   58.439500  -60.143900
  C    -130.756000   61.284400  -60.893200
  H    -130.581000   61.717500  -59.871800
  H    -131.065000   62.132700  -61.581200
  C    -129.695000   60.535900  -61.669000
  H    -129.448000   59.647900  -61.093000
  H    -128.799000   61.207800  -61.660300
  C    -130.235000   60.207500  -63.051400
  H    -129.460000   59.798700  -63.714000
  H    -130.625000   61.093000  -63.519000
  H    -130.971000   59.515500  -62.916600
  H    -135.239000   65.210900  -62.678900
  H    -133.587000   57.574100  -59.721200

 Total Charge           Charge          ....    0
 Multiplicity           Mult            ....    1
 Number of Electrons    NEL             ....  134
 Basis Dimension        Dim             ....  322

ORBITAL ENERGIES
----------------

  NO   OCC          E(Eh)            E(eV)
   0   2.0000     -88.963256     -2420.8133
   1   2.0000     -88.959055     -2420.6990
   2   2.0000     -10.325300      -280.9657
   3   2.0000     -10.323791      -280.9246
   4   2.0000     -10.320885      -280.8456
   5   2.0000     -10.312663      -280.6218
   6   2.0000     -10.304335      -280.3952
   7   2.0000     -10.300412      -280.2885
   8   2.0000     -10.296235      -280.1748
   9   2.0000     -10.292107      -280.0625
  10   2.0000     -10.290450      -280.0174
  11   2.0000     -10.289943      -280.0036
  12   2.0000     -10.288965      -279.9770
  13   2.0000     -10.285148      -279.8731
  14   2.0000     -10.268968      -279.4328
  15   2.0000     -10.265476      -279.3378
  16   2.0000      -8.079236      -219.8472
  17   2.0000      -8.074918      -219.7297
  18   2.0000      -6.037744      -164.2954
  19   2.0000      -6.033438      -164.1782
  20   2.0000      -6.033349      -164.1758
  21   2.0000      -6.030020      -164.0852
  22   2.0000      -6.028877      -164.0541
  23   2.0000      -6.026078      -163.9779
  24   2.0000      -1.016112       -27.6498
  25   2.0000      -0.992358       -27.0034
  26   2.0000      -0.914443       -24.8833
  27   2.0000      -0.901583       -24.5333
  28   2.0000      -0.873657       -23.7734
  29   2.0000      -0.846278       -23.0284
  30   2.0000      -0.841596       -22.9010
  31   2.0000      -0.823047       -22.3962
  32   2.0000      -0.782035       -21.2802
  33   2.0000      -0.770414       -20.9640
  34   2.0000      -0.708410       -19.2768
  35   2.0000      -0.700059       -19.0496
  36   2.0000      -0.694829       -18.9072
  37   2.0000      -0.653379       -17.7794
  38   2.0000      -0.645475       -17.5643
  39   2.0000      -0.622951       -16.9514
  40   2.0000      -0.598491       -16.2858
  41   2.0000      -0.574291       -15.6273
  42   2.0000      -0.557452       -15.1691
  43   2.0000      -0.545520       -14.8444
  44   2.0000      -0.541965       -14.7476
  45   2.0000      -0.539407       -14.6780
  46   2.0000      -0.524608       -14.2753
  47   2.0000      -0.518064       -14.0972
  48   2.0000      -0.505394       -13.7525
  49   2.0000      -0.499211       -13.5842
  50   2.0000      -0.486197       -13.2301
  51   2.0000      -0.475718       -12.9449
  52   2.0000      -0.470170       -12.7940
  53   2.0000      -0.466349       -12.6900
  54   2.0000      -0.458853       -12.4860
  55   2.0000      -0.443438       -12.0666
  56   2.0000      -0.441117       -12.0034
  57   2.0000      -0.435783       -11.8583
  58   2.0000      -0.432278       -11.7629
  59   2.0000      -0.420583       -11.4446
  60   2.0000      -0.417695       -11.3661
  61   2.0000      -0.412327       -11.2200
  62   2.0000      -0.403915       -10.9911
  63   2.0000      -0.336265        -9.1502
  64   2.0000      -0.333746        -9.0817
  65   2.0000      -0.321181        -8.7398
  66   2.0000      -0.308867        -8.4047
  67   0.0000       0.050051         1.3619
  68   0.0000       0.057521         1.5652
  69   0.0000       0.117073         3.1857
  70   0.0000       0.127370         3.4659
  71   0.0000       0.130277         3.5450

MULLIKEN ATOMIC CHARGES
-----------------------
   0 S :    0.116408
   1 C :   -0.102820
   2 C :   -0.095369
   3 C :    0.013940
   4 C :   -0.134868
   5 H :    0.014317
   6 C :    0.069235
   7 H :    0.010008
   8 H :    0.034938
   9 C :   -0.078882
  10 H :    0.021378
  11 H :    0.034759
  12 C :   -0.028219
  13 H :    0.033728
  14 H :    0.014214
  15 H :    0.032147
  16 S :    0.101504
  17 C :   -0.132882
  18 C :   -0.029014
  19 C :   -0.074415
  20 C :   -0.153091
  21 H :    0.014106
  22 C :    0.033983
  23 H :    0.056920
  24 H :    0.028709
  25 C :   -0.065392
  26 H :    0.025828
  27 H :    0.037951
  28 C :    0.000080
  29 H :    0.035542
  30 H :    0.024952
  31 H :    0.020370
  32 H :    0.040080
  33 H :    0.079853
Sum of atomic charges:    0.0000000

LOEWDIN ATOMIC CHARGES
----------------------
   0 S :    0.431199
   1 C :   -0.192164
   2 C :   -0.065931
   3 C :   -0.055878
   4 C :   -0.205189
   5 H :    0.031973
   6 C :   -0.033266
   7 H :    0.019324
   8 H :    0.037619
   9 C :   -0.031861
  10 H :    0.016026
  11 H :    0.025848
  12 C :   -0.062778
  13 H :    0.024005
  14 H :    0.013035
  15 H :    0.030697
  16 S :    0.428856
  17 C :   -0.190315
  18 C :   -0.083661
  19 C :   -0.060454
  20 C :   -0.231536
  21 H :    0.027754
  22 C :   -0.044597
  23 H :    0.042544
  24 H :    0.032904
  25 C :   -0.042022
  26 H :    0.018913
  27 H :    0.030063
  28 C :   -0.048635
  29 H :    0.029869
  30 H :    0.025567
  31 H :    0.014867
  32 H :    0.027106
  33 H :    0.040117

  Mayer bond orders larger than 0.100000
B(  0-S ,  1-C ) :   1.1362 B(  0-S ,  4-C ) :   1.1662 B(  1-C ,  2-C ) :   1.6138
B(  1-C , 32-H ) :   0.9797 B(  2-C ,  3-C ) :   1.2034 B(  2-C ,  6-C ) :   1.0420
B(  3-C ,  4-C ) :   1.6020 B(  3-C ,  5-H ) :   1.0069 B(  4-C , 20-C ) :   0.9924
B(  6-C ,  7-H ) :   0.9467 B(  6-C ,  8-H ) :   0.9466 B(  6-C ,  9-C ) :   1.0354
B(  9-C , 10-H ) :   0.9560 B(  9-C , 11-H ) :   0.9614 B(  9-C , 12-C ) :   1.0915
B( 12-C , 13-H ) :   0.9669 B( 12-C , 14-H ) :   0.9723 B( 12-C , 15-H ) :   0.9765
B( 16-S , 17-C ) :   1.1856 B( 16-S , 20-C ) :   1.1730 B( 17-C , 18-C ) :   1.5575
B( 17-C , 20-C ) :   0.1055 B( 17-C , 33-H ) :   0.9666 B( 18-C , 19-C ) :   1.2562
B( 18-C , 21-H ) :   1.0012 B( 19-C , 20-C ) :   1.5469 B( 19-C , 22-C ) :   1.0239
B( 22-C , 23-H ) :   0.9359 B( 22-C , 24-H ) :   0.9326 B( 22-C , 25-C ) :   1.0653
B( 25-C , 26-H ) :   0.9496 B( 25-C , 27-H ) :   0.9547 B( 25-C , 28-C ) :   1.0710
B( 28-C , 29-H ) :   0.9720 B( 28-C , 30-H ) :   0.9729 B( 28-C , 31-H ) :   0.9714

Dispersion correction           -0.015299498
FINAL SINGLE POINT ENERGY     -1339.862149167885

DIPOLE MOMENT
-------------
                                X             Y             Z
Electronic contribution:     -3.98557      -7.87562      -3.07157
Nuclear contribution   :      4.09273       8.00038       3.40598
                        -----------------------------------------
Total Dipole Moment    :      0.10716       0.12476       0.33441
                        -----------------------------------------
Magnitude (a.u.)       :      0.37267
Magnitude (Debye)      :      0.94725

Rotational constants in cm-1:     0.024409     0.008147     0.007039
Rotational constants in MHz :   731.765273   244.244238   211.033401

                             ****ORCA TERMINATED NORMALLY****
TOTAL RUN TIME: 0 days 0 hours 0 minutes 22 seconds 72 msec
