                         Program Version 4.2.1 -  RELEASE  -
|  1> ! wB97X-D3 SP def2-SVP
|  2> %pal
|  3> nprocs 24
|  4> end
|  5>
|  6> * xyz 0 1
|  7> S 	 -65.3653 	 -47.9547 	 -92.8329
|  8> C 	 -63.7558 	 -47.2363 	 -92.5856
|  9> C 	 -63.0303 	 -48.0327 	 -91.7663
| 10> C 	 -63.7048 	 -49.2201 	 -91.3374
| 11> C 	 -65.0455 	 -49.3043 	 -91.7338
| 12> H 	 -63.3825 	 -49.9845 	 -90.6298
| 13> C 	 -61.6388 	 -47.7317 	 -91.2751
| 14> H 	 -60.9697 	 -48.0295 	 -92.0766
| 15> H 	 -61.4387 	 -48.4934 	 -90.5155
| 16> C 	 -61.3569 	 -46.3725 	 -90.7412
| 17> H 	 -61.8669 	 -45.6312 	 -91.3903
| 18> H 	 -61.8704 	 -46.2121 	 -89.814
| 19> C 	 -59.8545 	 -46.1437 	 -90.7858
| 20> H 	 -59.3427 	 -46.1683 	 -91.7654
| 21> H 	 -59.6922 	 -45.12 	 -90.523
| 22> H 	 -59.3286 	 -46.7286 	 -90.053
| 23> S 	 -67.3788 	 -49.5913 	 -90.1758
| 24> C 	 -67.7992 	 -51.2517 	 -89.7895
| 25> C 	 -67.1144 	 -52.1391 	 -90.5771
| 26> C 	 -66.136 	 -51.5566 	 -91.3816
| 27> C 	 -66.0683 	 -50.1985 	 -91.2238
| 28> H 	 -67.3297 	 -53.2042 	 -90.5654
| 29> C 	 -65.198 	 -52.4581 	 -92.1953
| 30> H 	 -65.426 	 -53.5236 	 -92.0024
| 31> H 	 -64.1873 	 -52.3215 	 -91.8812
| 32> C 	 -65.3208 	 -52.21 	 -93.6871
| 33> H 	 -64.3751 	 -52.4839 	 -94.0745
| 34> H 	 -65.53 	 -51.2187 	 -93.9948
| 35> C 	 -66.3741 	 -53.135 	 -94.2473
| 36> H 	 -67.3742 	 -52.9261 	 -93.916
| 37> H 	 -66.0663 	 -54.1632 	 -93.9919
| 38> H 	 -66.4399 	 -53.181 	 -95.3599
| 39> H 	 -63.4121 	 -46.3974 	 -93.1509
| 40> H 	 -68.6001 	 -51.557 	 -89.1992
| 41> *
| 42>
| 43>                          ****END OF INPUT****

CARTESIAN COORDINATES (ANGSTROEM)
---------------------------------
  S    -65.365300  -47.954700  -92.832900
  C    -63.755800  -47.236300  -92.585600
  C    -63.030300  -48.032700  -91.766300
  C    -63.704800  -49.220100  -91.337400
  C    -65.045500  -49.304300  -91.733800
  H    -63.382500  -49.984500  -90.629800
  C    -61.638800  -47.731700  -91.275100
  H    -60.969700  -48.029500  -92.076600
  H    -61.438700  -48.493400  -90.515500
  C    -61.356900  -46.372500  -90.741200
  H    -61.866900  -45.631200  -91.390300
  H    -61.870400  -46.212100  -89.814000
  C    -59.854500  -46.143700  -90.785800
  H    -59.342700  -46.168300  -91.765400
  H    -59.692200  -45.120000  -90.523000
  H    -59.328600  -46.728600  -90.053000
  S    -67.378800  -49.591300  -90.175800
  C    -67.799200  -51.251700  -89.789500
  C    -67.114400  -52.139100  -90.577100
  C    -66.136000  -51.556600  -91.381600
  C    -66.068300  -50.198500  -91.223800
  H    -67.329700  -53.204200  -90.565400
  C    -65.198000  -52.458100  -92.195300
  H    -65.426000  -53.523600  -92.002400
  H    -64.187300  -52.321500  -91.881200
  C    -65.320800  -52.210000  -93.687100
  H    -64.375100  -52.483900  -94.074500
  H    -65.530000  -51.218700  -93.994800
  C    -66.374100  -53.135000  -94.247300
  H    -67.374200  -52.926100  -93.916000
  H    -66.066300  -54.163200  -93.991900
  H    -66.439900  -53.181000  -95.359900
  H    -63.412100  -46.397400  -93.150900
  H    -68.600100  -51.557000  -89.199200

 Total Charge           Charge          ....    0
 Multiplicity           Mult            ....    1
 Number of Electrons    NEL             ....  134
 Basis Dimension        Dim             ....  322

ORBITAL ENERGIES
----------------

  NO   OCC          E(Eh)            E(eV)
   0   2.0000     -88.967825     -2420.9376
   1   2.0000     -88.961066     -2420.7537
   2   2.0000     -10.330383      -281.1040
   3   2.0000     -10.325122      -280.9609
   4   2.0000     -10.312833      -280.6264
   5   2.0000     -10.311676      -280.5950
   6   2.0000     -10.297517      -280.2097
   7   2.0000     -10.297157      -280.1999
   8   2.0000     -10.295296      -280.1493
   9   2.0000     -10.288724      -279.9704
  10   2.0000     -10.287700      -279.9426
  11   2.0000     -10.284694      -279.8608
  12   2.0000     -10.283152      -279.8188
  13   2.0000     -10.276364      -279.6341
  14   2.0000     -10.272741      -279.5355
  15   2.0000     -10.271431      -279.4998
  16   2.0000      -8.081894      -219.9195
  17   2.0000      -8.075135      -219.7356
  18   2.0000      -6.040409      -164.3679
  19   2.0000      -6.036630      -164.2651
  20   2.0000      -6.033707      -164.1855
  21   2.0000      -6.032546      -164.1539
  22   2.0000      -6.029621      -164.0743
  23   2.0000      -6.025981      -163.9753
  24   2.0000      -1.004598       -27.3365
  25   2.0000      -0.983494       -26.7622
  26   2.0000      -0.918347       -24.9895
  27   2.0000      -0.914230       -24.8775
  28   2.0000      -0.871023       -23.7017
  29   2.0000      -0.851130       -23.1604
  30   2.0000      -0.844520       -22.9806
  31   2.0000      -0.812413       -22.1069
  32   2.0000      -0.781792       -21.2736
  33   2.0000      -0.773065       -21.0362
  34   2.0000      -0.714493       -19.4424
  35   2.0000      -0.708492       -19.2790
  36   2.0000      -0.691573       -18.8187
  37   2.0000      -0.661994       -18.0138
  38   2.0000      -0.644615       -17.5409
  39   2.0000      -0.611819       -16.6484
  40   2.0000      -0.602213       -16.3870
  41   2.0000      -0.574497       -15.6329
  42   2.0000      -0.559710       -15.2305
  43   2.0000      -0.553776       -15.0690
  44   2.0000      -0.548414       -14.9231
  45   2.0000      -0.525345       -14.2954
  46   2.0000      -0.515906       -14.0385
  47   2.0000      -0.513899       -13.9839
  48   2.0000      -0.510045       -13.8790
  49   2.0000      -0.498879       -13.5752
  50   2.0000      -0.484713       -13.1897
  51   2.0000      -0.480392       -13.0721
  52   2.0000      -0.475763       -12.9462
  53   2.0000      -0.467233       -12.7141
  54   2.0000      -0.463165       -12.6034
  55   2.0000      -0.446530       -12.1507
  56   2.0000      -0.443988       -12.0815
  57   2.0000      -0.432921       -11.7804
  58   2.0000      -0.429046       -11.6749
  59   2.0000      -0.427595       -11.6354
  60   2.0000      -0.416690       -11.3387
  61   2.0000      -0.411939       -11.2094
  62   2.0000      -0.409469       -11.1422
  63   2.0000      -0.339664        -9.2427
  64   2.0000      -0.333103        -9.0642
  65   2.0000      -0.326647        -8.8885
  66   2.0000      -0.298307        -8.1173
  67   0.0000       0.032611         0.8874
  68   0.0000       0.057557         1.5662
  69   0.0000       0.116600         3.1729
  70   0.0000       0.124095         3.3768
  71   0.0000       0.132456         3.6043

MULLIKEN ATOMIC CHARGES
-----------------------
   0 S :    0.088885
   1 C :   -0.135825
   2 C :   -0.079592
   3 C :    0.044090
   4 C :   -0.194828
   5 H :    0.018656
   6 C :    0.081813
   7 H :    0.031454
   8 H :    0.010700
   9 C :   -0.059120
  10 H :    0.019633
  11 H :    0.030157
  12 C :   -0.031680
  13 H :    0.038323
  14 H :    0.013989
  15 H :    0.032520
  16 S :    0.120515
  17 C :   -0.062452
  18 C :   -0.043143
  19 C :   -0.017508
  20 C :   -0.175153
  21 H :    0.017406
  22 C :    0.092307
  23 H :    0.013558
  24 H :    0.020183
  25 C :   -0.008953
  26 H :    0.009387
  27 H :    0.029609
  28 C :   -0.068241
  29 H :    0.032681
  30 H :    0.016460
  31 H :    0.031473
  32 H :    0.050053
  33 H :    0.032642
Sum of atomic charges:    0.0000000

LOEWDIN ATOMIC CHARGES
----------------------
   0 S :    0.377862
   1 C :   -0.184868
   2 C :   -0.066420
   3 C :   -0.062903
   4 C :   -0.185908
   5 H :    0.033020
   6 C :   -0.036149
   7 H :    0.033225
   8 H :    0.028469
   9 C :   -0.039000
  10 H :    0.024655
  11 H :    0.027905
  12 C :   -0.063120
  13 H :    0.032478
  14 H :    0.022967
  15 H :    0.023781
  16 S :    0.396009
  17 C :   -0.168585
  18 C :   -0.072692
  19 C :   -0.051729
  20 C :   -0.196725
  21 H :    0.032022
  22 C :   -0.018585
  23 H :    0.030680
  24 H :    0.026273
  25 C :   -0.031092
  26 H :    0.020358
  27 H :    0.020270
  28 C :   -0.065293
  29 H :    0.021196
  30 H :    0.021550
  31 H :    0.026650
  32 H :    0.026122
  33 H :    0.017576

  Mayer bond orders larger than 0.100000
B(  0-S ,  1-C ) :   1.1183 B(  0-S ,  4-C ) :   1.1460 B(  1-C ,  2-C ) :   1.6182
B(  1-C , 32-H ) :   0.9757 B(  2-C ,  3-C ) :   1.2382 B(  2-C ,  6-C ) :   1.0060
B(  3-C ,  4-C ) :   1.5891 B(  3-C ,  5-H ) :   0.9847 B(  4-C , 20-C ) :   1.0404
B(  6-C ,  7-H ) :   0.9345 B(  6-C ,  8-H ) :   0.9371 B(  6-C ,  9-C ) :   1.0647
B(  9-C , 10-H ) :   0.9567 B(  9-C , 11-H ) :   0.9522 B(  9-C , 12-C ) :   1.0807
B( 12-C , 13-H ) :   0.9742 B( 12-C , 14-H ) :   0.9690 B( 12-C , 15-H ) :   0.9751
B( 16-S , 17-C ) :   1.1520 B( 16-S , 20-C ) :   1.1269 B( 17-C , 18-C ) :   1.6107
B( 17-C , 20-C ) :   0.1014 B( 17-C , 33-H ) :   0.9716 B( 18-C , 19-C ) :   1.2617
B( 18-C , 21-H ) :   0.9858 B( 19-C , 20-C ) :   1.6018 B( 19-C , 22-C ) :   1.0301
B( 22-C , 23-H ) :   0.9388 B( 22-C , 24-H ) :   0.9319 B( 22-C , 25-C ) :   1.0620
B( 25-C , 26-H ) :   0.9500 B( 25-C , 27-H ) :   0.9616 B( 25-C , 28-C ) :   1.0803
B( 28-C , 29-H ) :   0.9780 B( 28-C , 30-H ) :   0.9737 B( 28-C , 31-H ) :   0.9736

Dispersion correction           -0.014284744
FINAL SINGLE POINT ENERGY     -1339.876468438649

DIPOLE MOMENT
-------------
                                X             Y             Z
Electronic contribution:    -19.64969       5.18124       5.07398
Nuclear contribution   :     20.19500      -5.47611      -4.98248
                        -----------------------------------------
Total Dipole Moment    :      0.54531      -0.29487       0.09150
                        -----------------------------------------
Magnitude (a.u.)       :      0.62664
Magnitude (Debye)      :      1.59280

Rotational constants in cm-1:     0.022332     0.007287     0.006562
Rotational constants in MHz :   669.502032   218.465103   196.736082

                             ****ORCA TERMINATED NORMALLY****
TOTAL RUN TIME: 0 days 0 hours 0 minutes 21 seconds 687 msec
