                         Program Version 4.2.1 -  RELEASE  -
|  1> ! wB97X-D3 SP def2-SVP
|  2> %pal
|  3> nprocs 24
|  4> end
|  5>
|  6> * xyz 0 1
|  7> S 	 18.9903 	 -13.9791 	 -121.777
|  8> C 	 17.3549 	 -13.6569 	 -122.264
|  9> C 	 16.4711 	 -14.4471 	 -121.563
| 10> C 	 17.0654 	 -15.0835 	 -120.405
| 11> C 	 18.4686 	 -15.0463 	 -120.5
| 12> H 	 16.4524 	 -15.6762 	 -119.737
| 13> C 	 15.0334 	 -14.3438 	 -121.82
| 14> H 	 14.6903 	 -13.2756 	 -121.878
| 15> H 	 14.3129 	 -14.5877 	 -121.004
| 16> C 	 14.5894 	 -15.1401 	 -123.047
| 17> H 	 15.3954 	 -15.0389 	 -123.826
| 18> H 	 14.6263 	 -16.2148 	 -122.791
| 19> C 	 13.2124 	 -14.9429 	 -123.682
| 20> H 	 13.2703 	 -15.4522 	 -124.61
| 21> H 	 12.5268 	 -15.5945 	 -123.165
| 22> H 	 12.9411 	 -13.9046 	 -123.69
| 23> S 	 20.754 	 -16.5103 	 -120.523
| 24> C 	 21.4159 	 -17.1331 	 -119.099
| 25> C 	 20.4918 	 -17.1306 	 -118.066
| 26> C 	 19.2863 	 -16.407 	 -118.373
| 27> C 	 19.3144 	 -15.9312 	 -119.719
| 28> H 	 20.7999 	 -17.5974 	 -117.087
| 29> C 	 18.2669 	 -15.9731 	 -117.358
| 30> H 	 17.8203 	 -15.0103 	 -117.688
| 31> H 	 18.8449 	 -15.8076 	 -116.441
| 32> C 	 17.1917 	 -17.0211 	 -116.978
| 33> H 	 17.6903 	 -17.8627 	 -116.489
| 34> H 	 16.7681 	 -17.3096 	 -117.922
| 35> C 	 16.1788 	 -16.4094 	 -115.994
| 36> H 	 16.5879 	 -16.0663 	 -115.087
| 37> H 	 15.3795 	 -17.1381 	 -115.734
| 38> H 	 15.6987 	 -15.5226 	 -116.389
| 39> H 	 17.0759 	 -12.9359 	 -123.026
| 40> H 	 22.3998 	 -17.5767 	 -119.03
| 41> *
| 42>
| 43>                          ****END OF INPUT****

CARTESIAN COORDINATES (ANGSTROEM)
---------------------------------
  S     18.990300  -13.979100  -121.777000
  C     17.354900  -13.656900  -122.264000
  C     16.471100  -14.447100  -121.563000
  C     17.065400  -15.083500  -120.405000
  C     18.468600  -15.046300  -120.500000
  H     16.452400  -15.676200  -119.737000
  C     15.033400  -14.343800  -121.820000
  H     14.690300  -13.275600  -121.878000
  H     14.312900  -14.587700  -121.004000
  C     14.589400  -15.140100  -123.047000
  H     15.395400  -15.038900  -123.826000
  H     14.626300  -16.214800  -122.791000
  C     13.212400  -14.942900  -123.682000
  H     13.270300  -15.452200  -124.610000
  H     12.526800  -15.594500  -123.165000
  H     12.941100  -13.904600  -123.690000
  S     20.754000  -16.510300  -120.523000
  C     21.415900  -17.133100  -119.099000
  C     20.491800  -17.130600  -118.066000
  C     19.286300  -16.407000  -118.373000
  C     19.314400  -15.931200  -119.719000
  H     20.799900  -17.597400  -117.087000
  C     18.266900  -15.973100  -117.358000
  H     17.820300  -15.010300  -117.688000
  H     18.844900  -15.807600  -116.441000
  C     17.191700  -17.021100  -116.978000
  H     17.690300  -17.862700  -116.489000
  H     16.768100  -17.309600  -117.922000
  C     16.178800  -16.409400  -115.994000
  H     16.587900  -16.066300  -115.087000
  H     15.379500  -17.138100  -115.734000
  H     15.698700  -15.522600  -116.389000
  H     17.075900  -12.935900  -123.026000
  H     22.399800  -17.576700  -119.030000

 Total Charge           Charge          ....    0
 Multiplicity           Mult            ....    1
 Number of Electrons    NEL             ....  134
 Basis Dimension        Dim             ....  322

ORBITAL ENERGIES
----------------

  NO   OCC          E(Eh)            E(eV)
   0   2.0000     -88.972008     -2421.0514
   1   2.0000     -88.962690     -2420.7979
   2   2.0000     -10.334657      -281.2203
   3   2.0000     -10.328425      -281.0507
   4   2.0000     -10.314120      -280.6615
   5   2.0000     -10.311510      -280.5905
   6   2.0000     -10.306238      -280.4470
   7   2.0000     -10.300278      -280.2848
   8   2.0000     -10.299607      -280.2666
   9   2.0000     -10.298311      -280.2313
  10   2.0000     -10.291652      -280.0501
  11   2.0000     -10.290695      -280.0241
  12   2.0000     -10.287575      -279.9391
  13   2.0000     -10.285481      -279.8822
  14   2.0000     -10.276489      -279.6375
  15   2.0000     -10.273060      -279.5442
  16   2.0000      -8.086687      -220.0499
  17   2.0000      -8.078785      -219.8349
  18   2.0000      -6.045207      -164.4985
  19   2.0000      -6.041130      -164.3875
  20   2.0000      -6.037493      -164.2885
  21   2.0000      -6.037092      -164.2776
  22   2.0000      -6.033027      -164.1670
  23   2.0000      -6.029764      -164.0782
  24   2.0000      -1.009434       -27.4681
  25   2.0000      -0.987564       -26.8730
  26   2.0000      -0.914189       -24.8764
  27   2.0000      -0.910047       -24.7636
  28   2.0000      -0.870478       -23.6869
  29   2.0000      -0.855568       -23.2812
  30   2.0000      -0.848373       -23.0854
  31   2.0000      -0.814437       -22.1620
  32   2.0000      -0.782996       -21.3064
  33   2.0000      -0.770827       -20.9753
  34   2.0000      -0.707714       -19.2579
  35   2.0000      -0.696688       -18.9578
  36   2.0000      -0.692446       -18.8424
  37   2.0000      -0.661264       -17.9939
  38   2.0000      -0.636966       -17.3327
  39   2.0000      -0.622664       -16.9436
  40   2.0000      -0.593970       -16.1627
  41   2.0000      -0.572746       -15.5852
  42   2.0000      -0.569811       -15.5053
  43   2.0000      -0.556891       -15.1538
  44   2.0000      -0.529274       -14.4023
  45   2.0000      -0.525273       -14.2934
  46   2.0000      -0.519699       -14.1417
  47   2.0000      -0.509847       -13.8736
  48   2.0000      -0.507323       -13.8049
  49   2.0000      -0.503490       -13.7007
  50   2.0000      -0.498057       -13.5528
  51   2.0000      -0.478228       -13.0132
  52   2.0000      -0.476847       -12.9757
  53   2.0000      -0.462615       -12.5884
  54   2.0000      -0.456879       -12.4323
  55   2.0000      -0.449013       -12.2183
  56   2.0000      -0.444969       -12.1082
  57   2.0000      -0.435655       -11.8548
  58   2.0000      -0.434178       -11.8146
  59   2.0000      -0.428983       -11.6732
  60   2.0000      -0.425360       -11.5746
  61   2.0000      -0.417436       -11.3590
  62   2.0000      -0.397226       -10.8091
  63   2.0000      -0.356154        -9.6915
  64   2.0000      -0.331879        -9.0309
  65   2.0000      -0.327453        -8.9104
  66   2.0000      -0.279749        -7.6124
  67   0.0000       0.021129         0.5750
  68   0.0000       0.077711         2.1146
  69   0.0000       0.112606         3.0642
  70   0.0000       0.114446         3.1142
  71   0.0000       0.129490         3.5236

MULLIKEN ATOMIC CHARGES
-----------------------
   0 S :    0.130344
   1 C :   -0.116247
   2 C :   -0.057754
   3 C :    0.022617
   4 C :   -0.115460
   5 H :    0.011008
   6 C :    0.017521
   7 H :    0.028201
   8 H :    0.015839
   9 C :   -0.146868
  10 H :    0.029439
  11 H :    0.025311
  12 C :    0.023466
  13 H :    0.024634
  14 H :    0.019979
  15 H :    0.036781
  16 S :    0.106417
  17 C :   -0.101217
  18 C :   -0.052873
  19 C :   -0.020109
  20 C :   -0.156268
  21 H :    0.036124
  22 C :    0.004742
  23 H :    0.037350
  24 H :    0.022569
  25 C :   -0.051319
  26 H :    0.030901
  27 H :    0.026178
  28 C :   -0.022518
  29 H :    0.015561
  30 H :    0.040326
  31 H :    0.019305
  32 H :    0.057234
  33 H :    0.058787
Sum of atomic charges:    0.0000000

LOEWDIN ATOMIC CHARGES
----------------------
   0 S :    0.422323
   1 C :   -0.196251
   2 C :   -0.062046
   3 C :   -0.056004
   4 C :   -0.198630
   5 H :    0.030376
   6 C :   -0.052983
   7 H :    0.033407
   8 H :    0.030507
   9 C :   -0.049657
  10 H :    0.021394
  11 H :    0.026140
  12 C :   -0.058928
  13 H :    0.029331
  14 H :    0.025158
  15 H :    0.022760
  16 S :    0.427882
  17 C :   -0.208998
  18 C :   -0.080339
  19 C :   -0.060178
  20 C :   -0.194555
  21 H :    0.039899
  22 C :   -0.037205
  23 H :    0.032824
  24 H :    0.030977
  25 C :   -0.032535
  26 H :    0.026497
  27 H :    0.017741
  28 C :   -0.064252
  29 H :    0.018429
  30 H :    0.031273
  31 H :    0.023061
  32 H :    0.032306
  33 H :    0.030275

  Mayer bond orders larger than 0.100000
B(  0-S ,  1-C ) :   1.1318 B(  0-S ,  4-C ) :   1.1626 B(  1-C ,  2-C ) :   1.5853
B(  1-C , 32-H ) :   0.9690 B(  2-C ,  3-C ) :   1.2770 B(  2-C ,  6-C ) :   1.0342
B(  3-C ,  4-C ) :   1.4968 B(  3-C ,  5-H ) :   0.9913 B(  4-C , 20-C ) :   1.0901
B(  6-C ,  7-H ) :   0.9450 B(  6-C ,  8-H ) :   0.9426 B(  6-C ,  9-C ) :   1.0417
B(  9-C , 10-H ) :   0.9673 B(  9-C , 11-H ) :   0.9529 B(  9-C , 12-C ) :   1.0799
B( 12-C , 13-H ) :   0.9670 B( 12-C , 14-H ) :   0.9729 B( 12-C , 15-H ) :   0.9764
B( 16-S , 17-C ) :   1.1732 B( 16-S , 20-C ) :   1.1531 B( 17-C , 18-C ) :   1.5890
B( 17-C , 33-H ) :   0.9682 B( 18-C , 19-C ) :   1.2626 B( 18-C , 21-H ) :   0.9822
B( 19-C , 20-C ) :   1.5346 B( 19-C , 22-C ) :   1.0490 B( 22-C , 23-H ) :   0.9388
B( 22-C , 24-H ) :   0.9330 B( 22-C , 25-C ) :   1.0599 B( 25-C , 26-H ) :   0.9528
B( 25-C , 27-H ) :   0.9568 B( 25-C , 28-C ) :   1.0825 B( 28-C , 29-H ) :   0.9719
B( 28-C , 30-H ) :   0.9746 B( 28-C , 31-H ) :   0.9731

Dispersion correction           -0.013707038
FINAL SINGLE POINT ENERGY     -1339.873683313020

DIPOLE MOMENT
-------------
                                X             Y             Z
Electronic contribution:     28.24412       2.80882      -7.67692
Nuclear contribution   :    -28.73253      -2.87897       7.94351
                        -----------------------------------------
Total Dipole Moment    :     -0.48840      -0.07015       0.26660
                        -----------------------------------------
Magnitude (a.u.)       :      0.56083
Magnitude (Debye)      :      1.42553

Rotational constants in cm-1:     0.017574     0.008457     0.006284
Rotational constants in MHz :   526.852294   253.528947   188.382272

                             ****ORCA TERMINATED NORMALLY****
TOTAL RUN TIME: 0 days 0 hours 0 minutes 21 seconds 148 msec
