                         Program Version 4.2.1 -  RELEASE  -
|  1> ! wB97X-D3 SP def2-SVP
|  2> %pal
|  3> nprocs 24
|  4> end
|  5>
|  6> * xyz 0 1
|  7> S 	 -65.7261 	 21.76 	 -108.882
|  8> C 	 -65.8475 	 20.6118 	 -107.601
|  9> C 	 -65.4462 	 19.3398 	 -108.006
| 10> C 	 -65.4177 	 19.3121 	 -109.451
| 11> C 	 -65.5842 	 20.5525 	 -110.019
| 12> H 	 -65.1868 	 18.4382 	 -110.068
| 13> C 	 -65.219 	 18.0237 	 -107.21
| 14> H 	 -65.7738 	 17.2695 	 -107.733
| 15> H 	 -65.7805 	 17.9647 	 -106.311
| 16> C 	 -63.7934 	 17.5932 	 -107.072
| 17> H 	 -63.2831 	 17.3852 	 -108.027
| 18> H 	 -63.249 	 18.4153 	 -106.553
| 19> C 	 -63.6697 	 16.4213 	 -106.086
| 20> H 	 -62.6375 	 16.0391 	 -106.181
| 21> H 	 -63.857 	 16.7209 	 -105.013
| 22> H 	 -64.2808 	 15.623 	 -106.294
| 23> S 	 -64.2459 	 22.1894 	 -111.726
| 24> C 	 -64.434 	 21.91 	 -113.421
| 25> C 	 -65.4222 	 20.9818 	 -113.714
| 26> C 	 -65.9801 	 20.3685 	 -112.555
| 27> C 	 -65.3884 	 20.9243 	 -111.398
| 28> H 	 -65.6958 	 20.892 	 -114.774
| 29> C 	 -67.0569 	 19.2607 	 -112.62
| 30> H 	 -67.7873 	 19.7889 	 -113.206
| 31> H 	 -67.5233 	 19.0834 	 -111.586
| 32> C 	 -66.5953 	 17.991 	 -113.287
| 33> H 	 -66.2237 	 18.2319 	 -114.272
| 34> H 	 -67.5637 	 17.3983 	 -113.353
| 35> C 	 -65.4759 	 17.2366 	 -112.499
| 36> H 	 -64.6508 	 17.8802 	 -112.206
| 37> H 	 -65.2216 	 16.3346 	 -113.049
| 38> H 	 -65.8634 	 16.8841 	 -111.54
| 39> H 	 -66.0354 	 20.9354 	 -106.583
| 40> H 	 -63.8525 	 22.3101 	 -114.192
| 41> *
| 42>
| 43>                          ****END OF INPUT****

CARTESIAN COORDINATES (ANGSTROEM)
---------------------------------
  S    -65.726100   21.760000  -108.882000
  C    -65.847500   20.611800  -107.601000
  C    -65.446200   19.339800  -108.006000
  C    -65.417700   19.312100  -109.451000
  C    -65.584200   20.552500  -110.019000
  H    -65.186800   18.438200  -110.068000
  C    -65.219000   18.023700  -107.210000
  H    -65.773800   17.269500  -107.733000
  H    -65.780500   17.964700  -106.311000
  C    -63.793400   17.593200  -107.072000
  H    -63.283100   17.385200  -108.027000
  H    -63.249000   18.415300  -106.553000
  C    -63.669700   16.421300  -106.086000
  H    -62.637500   16.039100  -106.181000
  H    -63.857000   16.720900  -105.013000
  H    -64.280800   15.623000  -106.294000
  S    -64.245900   22.189400  -111.726000
  C    -64.434000   21.910000  -113.421000
  C    -65.422200   20.981800  -113.714000
  C    -65.980100   20.368500  -112.555000
  C    -65.388400   20.924300  -111.398000
  H    -65.695800   20.892000  -114.774000
  C    -67.056900   19.260700  -112.620000
  H    -67.787300   19.788900  -113.206000
  H    -67.523300   19.083400  -111.586000
  C    -66.595300   17.991000  -113.287000
  H    -66.223700   18.231900  -114.272000
  H    -67.563700   17.398300  -113.353000
  C    -65.475900   17.236600  -112.499000
  H    -64.650800   17.880200  -112.206000
  H    -65.221600   16.334600  -113.049000
  H    -65.863400   16.884100  -111.540000
  H    -66.035400   20.935400  -106.583000
  H    -63.852500   22.310100  -114.192000

 Total Charge           Charge          ....    0
 Multiplicity           Mult            ....    1
 Number of Electrons    NEL             ....  134
 Basis Dimension        Dim             ....  322

ORBITAL ENERGIES
----------------

  NO   OCC          E(Eh)            E(eV)
   0   2.0000     -88.967661     -2420.9331
   1   2.0000     -88.961959     -2420.7780
   2   2.0000     -10.321927      -280.8739
   3   2.0000     -10.316133      -280.7163
   4   2.0000     -10.310814      -280.5715
   5   2.0000     -10.308929      -280.5202
   6   2.0000     -10.305135      -280.4170
   7   2.0000     -10.303630      -280.3760
   8   2.0000     -10.294854      -280.1372
   9   2.0000     -10.293449      -280.0990
  10   2.0000     -10.292517      -280.0736
  11   2.0000     -10.288817      -279.9729
  12   2.0000     -10.288411      -279.9619
  13   2.0000     -10.287839      -279.9463
  14   2.0000     -10.280006      -279.7332
  15   2.0000     -10.277181      -279.6563
  16   2.0000      -8.082893      -219.9467
  17   2.0000      -8.079179      -219.8457
  18   2.0000      -6.041280      -164.3916
  19   2.0000      -6.037456      -164.2875
  20   2.0000      -6.037406      -164.2862
  21   2.0000      -6.033688      -164.1850
  22   2.0000      -6.033385      -164.1767
  23   2.0000      -6.030009      -164.0849
  24   2.0000      -1.016201       -27.6522
  25   2.0000      -0.986844       -26.8534
  26   2.0000      -0.915771       -24.9194
  27   2.0000      -0.909757       -24.7557
  28   2.0000      -0.870500       -23.6875
  29   2.0000      -0.849177       -23.1073
  30   2.0000      -0.845203       -22.9991
  31   2.0000      -0.810185       -22.0462
  32   2.0000      -0.786695       -21.4071
  33   2.0000      -0.776244       -21.1227
  34   2.0000      -0.705739       -19.2041
  35   2.0000      -0.699043       -19.0219
  36   2.0000      -0.691237       -18.8095
  37   2.0000      -0.657511       -17.8918
  38   2.0000      -0.641695       -17.4614
  39   2.0000      -0.621266       -16.9055
  40   2.0000      -0.595456       -16.2032
  41   2.0000      -0.566552       -15.4167
  42   2.0000      -0.559934       -15.2366
  43   2.0000      -0.552360       -15.0305
  44   2.0000      -0.541002       -14.7214
  45   2.0000      -0.529045       -14.3960
  46   2.0000      -0.519175       -14.1275
  47   2.0000      -0.515154       -14.0181
  48   2.0000      -0.502131       -13.6637
  49   2.0000      -0.498008       -13.5515
  50   2.0000      -0.491739       -13.3809
  51   2.0000      -0.472163       -12.8482
  52   2.0000      -0.466991       -12.7075
  53   2.0000      -0.463517       -12.6129
  54   2.0000      -0.459590       -12.5061
  55   2.0000      -0.451655       -12.2901
  56   2.0000      -0.446329       -12.1452
  57   2.0000      -0.443143       -12.0585
  58   2.0000      -0.440969       -11.9994
  59   2.0000      -0.423452       -11.5227
  60   2.0000      -0.421598       -11.4723
  61   2.0000      -0.413574       -11.2539
  62   2.0000      -0.412450       -11.2233
  63   2.0000      -0.347587        -9.4583
  64   2.0000      -0.331598        -9.0232
  65   2.0000      -0.328717        -8.9449
  66   2.0000      -0.284019        -7.7285
  67   0.0000       0.038309         1.0425
  68   0.0000       0.068232         1.8567
  69   0.0000       0.112472         3.0605
  70   0.0000       0.121844         3.3155
  71   0.0000       0.132479         3.6049

MULLIKEN ATOMIC CHARGES
-----------------------
   0 S :    0.109477
   1 C :   -0.130739
   2 C :   -0.065327
   3 C :    0.017819
   4 C :   -0.133454
   5 H :   -0.020405
   6 C :    0.084186
   7 H :    0.009806
   8 H :    0.003669
   9 C :   -0.080910
  10 H :    0.040638
  11 H :    0.036534
  12 C :   -0.041501
  13 H :    0.034729
  14 H :    0.042203
  15 H :    0.009832
  16 S :    0.125223
  17 C :   -0.076066
  18 C :   -0.064607
  19 C :   -0.045358
  20 C :   -0.168620
  21 H :    0.027881
  22 C :    0.059112
  23 H :    0.029335
  24 H :    0.045840
  25 C :   -0.074846
  26 H :    0.029187
  27 H :    0.045107
  28 C :   -0.052442
  29 H :    0.060009
  30 H :    0.038667
  31 H :    0.027227
  32 H :    0.044979
  33 H :    0.032815
Sum of atomic charges:    0.0000000

LOEWDIN ATOMIC CHARGES
----------------------
   0 S :    0.446771
   1 C :   -0.208296
   2 C :   -0.051732
   3 C :   -0.070133
   4 C :   -0.221934
   5 H :    0.028398
   6 C :   -0.035112
   7 H :    0.028594
   8 H :    0.025969
   9 C :   -0.041520
  10 H :    0.027680
  11 H :    0.031699
  12 C :   -0.062315
  13 H :    0.031218
  14 H :    0.032771
  15 H :    0.007831
  16 S :    0.420338
  17 C :   -0.190595
  18 C :   -0.074703
  19 C :   -0.057878
  20 C :   -0.208098
  21 H :    0.035501
  22 C :   -0.036159
  23 H :    0.032005
  24 H :    0.039440
  25 C :   -0.039881
  26 H :    0.020333
  27 H :    0.035102
  28 C :   -0.065460
  29 H :    0.027881
  30 H :    0.029022
  31 H :    0.021564
  32 H :    0.023753
  33 H :    0.017947

  Mayer bond orders larger than 0.100000
B(  0-S ,  1-C ) :   1.1521 B(  0-S ,  4-C ) :   1.1755 B(  1-C ,  2-C ) :   1.5921
B(  1-C , 32-H ) :   0.9751 B(  2-C ,  3-C ) :   1.2469 B(  2-C ,  6-C ) :   1.0125
B(  3-C ,  4-C ) :   1.5559 B(  3-C ,  5-H ) :   0.9869 B(  4-C , 20-C ) :   1.0292
B(  6-C ,  7-H ) :   0.9335 B(  6-C ,  8-H ) :   0.9434 B(  6-C ,  9-C ) :   1.0650
B(  9-C , 10-H ) :   0.9560 B(  9-C , 11-H ) :   0.9552 B(  9-C , 12-C ) :   1.0811
B( 12-C , 13-H ) :   0.9734 B( 12-C , 14-H ) :   0.9757 B( 12-C , 15-H ) :   0.9751
B( 16-S , 17-C ) :   1.1516 B( 16-S , 20-C ) :   1.1567 B( 17-C , 18-C ) :   1.6230
B( 17-C , 20-C ) :   0.1019 B( 17-C , 33-H ) :   0.9712 B( 18-C , 19-C ) :   1.2354
B( 18-C , 21-H ) :   0.9844 B( 19-C , 20-C ) :   1.5768 B( 19-C , 22-C ) :   1.0217
B( 22-C , 23-H ) :   0.9302 B( 22-C , 24-H ) :   0.9366 B( 22-C , 25-C ) :   1.0769
B( 25-C , 26-H ) :   0.9551 B( 25-C , 27-H ) :   0.9540 B( 25-C , 28-C ) :   1.0723
B( 28-C , 29-H ) :   0.9687 B( 28-C , 30-H ) :   0.9678 B( 28-C , 31-H ) :   0.9664

Dispersion correction           -0.014800995
FINAL SINGLE POINT ENERGY     -1339.874035249128

DIPOLE MOMENT
-------------
                                X             Y             Z
Electronic contribution:     -0.39157      28.56478      -4.59129
Nuclear contribution   :      0.35426     -29.18391       4.49525
                        -----------------------------------------
Total Dipole Moment    :     -0.03731      -0.61913      -0.09604
                        -----------------------------------------
Magnitude (a.u.)       :      0.62764
Magnitude (Debye)      :      1.59535

Rotational constants in cm-1:     0.019187     0.008856     0.007003
Rotational constants in MHz :   575.219070   265.506664   209.933034

                             ****ORCA TERMINATED NORMALLY****
TOTAL RUN TIME: 0 days 0 hours 0 minutes 22 seconds 229 msec
