                         Program Version 4.2.1 -  RELEASE  -
|  1> ! wB97X-D3 SP def2-SVP
|  2> %pal
|  3> nprocs 24
|  4> end
|  5>
|  6> * xyz 0 1
|  7> S 	 -128.626 	 74.238 	 -43.4191
|  8> C 	 -129.536 	 75.0963 	 -42.2984
|  9> C 	 -128.886 	 76.2423 	 -41.9094
| 10> C 	 -127.487 	 76.1449 	 -42.2258
| 11> C 	 -127.147 	 75.2433 	 -43.1625
| 12> H 	 -126.703 	 76.7891 	 -41.8515
| 13> C 	 -129.482 	 77.4404 	 -41.0955
| 14> H 	 -128.762 	 78.2759 	 -41.1418
| 15> H 	 -129.586 	 77.0811 	 -40.0639
| 16> C 	 -130.797 	 77.9797 	 -41.5587
| 17> H 	 -131.464 	 77.1485 	 -41.4199
| 18> H 	 -131.201 	 78.749 	 -40.9658
| 19> C 	 -130.867 	 78.5057 	 -43.021
| 20> H 	 -130.154 	 79.4649 	 -43.0253
| 21> H 	 -130.282 	 77.8016 	 -43.6462
| 22> H 	 -131.924 	 78.4983 	 -43.3084
| 23> S 	 -125.241 	 73.2876 	 -43.1159
| 24> C 	 -123.657 	 73.6148 	 -43.8355
| 25> C 	 -123.76 	 74.7167 	 -44.6776
| 26> C 	 -124.995 	 75.3978 	 -44.6201
| 27> C 	 -125.816 	 74.8741 	 -43.6447
| 28> H 	 -122.993 	 74.953 	 -45.4325
| 29> C 	 -125.252 	 76.7279 	 -45.3019
| 30> H 	 -126.111 	 77.183 	 -44.8871
| 31> H 	 -125.522 	 76.6594 	 -46.3426
| 32> C 	 -124.043 	 77.6975 	 -45.1747
| 33> H 	 -123.204 	 77.2509 	 -45.6776
| 34> H 	 -123.894 	 77.8246 	 -44.0761
| 35> C 	 -124.324 	 78.9767 	 -45.9478
| 36> H 	 -125.193 	 79.3746 	 -45.473
| 37> H 	 -124.523 	 78.8323 	 -46.9858
| 38> H 	 -123.477 	 79.6398 	 -45.8766
| 39> H 	 -130.574 	 74.9097 	 -42.1175
| 40> H 	 -123.009 	 72.7153 	 -43.9782
| 41> *
| 42>
| 43>                          ****END OF INPUT****

CARTESIAN COORDINATES (ANGSTROEM)
---------------------------------
  S    -128.626000   74.238000  -43.419100
  C    -129.536000   75.096300  -42.298400
  C    -128.886000   76.242300  -41.909400
  C    -127.487000   76.144900  -42.225800
  C    -127.147000   75.243300  -43.162500
  H    -126.703000   76.789100  -41.851500
  C    -129.482000   77.440400  -41.095500
  H    -128.762000   78.275900  -41.141800
  H    -129.586000   77.081100  -40.063900
  C    -130.797000   77.979700  -41.558700
  H    -131.464000   77.148500  -41.419900
  H    -131.201000   78.749000  -40.965800
  C    -130.867000   78.505700  -43.021000
  H    -130.154000   79.464900  -43.025300
  H    -130.282000   77.801600  -43.646200
  H    -131.924000   78.498300  -43.308400
  S    -125.241000   73.287600  -43.115900
  C    -123.657000   73.614800  -43.835500
  C    -123.760000   74.716700  -44.677600
  C    -124.995000   75.397800  -44.620100
  C    -125.816000   74.874100  -43.644700
  H    -122.993000   74.953000  -45.432500
  C    -125.252000   76.727900  -45.301900
  H    -126.111000   77.183000  -44.887100
  H    -125.522000   76.659400  -46.342600
  C    -124.043000   77.697500  -45.174700
  H    -123.204000   77.250900  -45.677600
  H    -123.894000   77.824600  -44.076100
  C    -124.324000   78.976700  -45.947800
  H    -125.193000   79.374600  -45.473000
  H    -124.523000   78.832300  -46.985800
  H    -123.477000   79.639800  -45.876600
  H    -130.574000   74.909700  -42.117500
  H    -123.009000   72.715300  -43.978200

 Total Charge           Charge          ....    0
 Multiplicity           Mult            ....    1
 Number of Electrons    NEL             ....  134
 Basis Dimension        Dim             ....  322

ORBITAL ENERGIES
----------------

  NO   OCC          E(Eh)            E(eV)
   0   2.0000     -88.961458     -2420.7643
   1   2.0000     -88.960085     -2420.7270
   2   2.0000     -10.328029      -281.0400
   3   2.0000     -10.326629      -281.0019
   4   2.0000     -10.322607      -280.8924
   5   2.0000     -10.310564      -280.5647
   6   2.0000     -10.303596      -280.3751
   7   2.0000     -10.302769      -280.3526
   8   2.0000     -10.298379      -280.2331
   9   2.0000     -10.296174      -280.1731
  10   2.0000     -10.291977      -280.0589
  11   2.0000     -10.289778      -279.9991
  12   2.0000     -10.286427      -279.9079
  13   2.0000     -10.285636      -279.8864
  14   2.0000     -10.278760      -279.6993
  15   2.0000     -10.271760      -279.5088
  16   2.0000      -8.076070      -219.7610
  17   2.0000      -8.075724      -219.7516
  18   2.0000      -6.034504      -164.2072
  19   2.0000      -6.034244      -164.2001
  20   2.0000      -6.030742      -164.1048
  21   2.0000      -6.030067      -164.0865
  22   2.0000      -6.026745      -163.9961
  23   2.0000      -6.026416      -163.9871
  24   2.0000      -1.009296       -27.4643
  25   2.0000      -0.988278       -26.8924
  26   2.0000      -0.912931       -24.8421
  27   2.0000      -0.911332       -24.7986
  28   2.0000      -0.872847       -23.7514
  29   2.0000      -0.852397       -23.1949
  30   2.0000      -0.844582       -22.9822
  31   2.0000      -0.813264       -22.1300
  32   2.0000      -0.781375       -21.2623
  33   2.0000      -0.771673       -20.9983
  34   2.0000      -0.702023       -19.1030
  35   2.0000      -0.700532       -19.0624
  36   2.0000      -0.693716       -18.8770
  37   2.0000      -0.657201       -17.8834
  38   2.0000      -0.647398       -17.6166
  39   2.0000      -0.611806       -16.6481
  40   2.0000      -0.598107       -16.2753
  41   2.0000      -0.575981       -15.6732
  42   2.0000      -0.574139       -15.6231
  43   2.0000      -0.556500       -15.1431
  44   2.0000      -0.541261       -14.7285
  45   2.0000      -0.528281       -14.3753
  46   2.0000      -0.522133       -14.2080
  47   2.0000      -0.512966       -13.9585
  48   2.0000      -0.505831       -13.7644
  49   2.0000      -0.499482       -13.5916
  50   2.0000      -0.484062       -13.1720
  51   2.0000      -0.478749       -13.0274
  52   2.0000      -0.470232       -12.7957
  53   2.0000      -0.468698       -12.7539
  54   2.0000      -0.460630       -12.5344
  55   2.0000      -0.448858       -12.2140
  56   2.0000      -0.436388       -11.8747
  57   2.0000      -0.432566       -11.7707
  58   2.0000      -0.427786       -11.6406
  59   2.0000      -0.425522       -11.5790
  60   2.0000      -0.421036       -11.4570
  61   2.0000      -0.419310       -11.4100
  62   2.0000      -0.408574       -11.1179
  63   2.0000      -0.344135        -9.3644
  64   2.0000      -0.329378        -8.9628
  65   2.0000      -0.318993        -8.6802
  66   2.0000      -0.305540        -8.3142
  67   0.0000       0.030264         0.8235
  68   0.0000       0.058284         1.5860
  69   0.0000       0.110787         3.0147
  70   0.0000       0.121760         3.3133
  71   0.0000       0.126201         3.4341

MULLIKEN ATOMIC CHARGES
-----------------------
   0 S :    0.099353
   1 C :   -0.107509
   2 C :   -0.119481
   3 C :    0.032889
   4 C :   -0.149791
   5 H :    0.012230
   6 C :    0.073994
   7 H :    0.018512
   8 H :    0.049384
   9 C :   -0.064513
  10 H :    0.006542
  11 H :    0.023380
  12 C :   -0.084040
  13 H :    0.044963
  14 H :    0.042103
  15 H :    0.055135
  16 S :    0.095643
  17 C :   -0.097077
  18 C :   -0.058272
  19 C :    0.014405
  20 C :   -0.197381
  21 H :    0.033925
  22 C :    0.086186
  23 H :    0.005807
  24 H :    0.018179
  25 C :   -0.112965
  26 H :    0.026090
  27 H :    0.047389
  28 C :   -0.004125
  29 H :    0.018112
  30 H :    0.024438
  31 H :    0.033279
  32 H :    0.049568
  33 H :    0.083646
Sum of atomic charges:   -0.0000000

LOEWDIN ATOMIC CHARGES
----------------------
   0 S :    0.399907
   1 C :   -0.205284
   2 C :   -0.071029
   3 C :   -0.055562
   4 C :   -0.189154
   5 H :    0.031918
   6 C :   -0.029282
   7 H :    0.026380
   8 H :    0.038855
   9 C :   -0.049022
  10 H :    0.015410
  11 H :    0.019897
  12 C :   -0.074333
  13 H :    0.040716
  14 H :    0.025396
  15 H :    0.032661
  16 S :    0.393390
  17 C :   -0.188909
  18 C :   -0.070263
  19 C :   -0.052458
  20 C :   -0.189123
  21 H :    0.035490
  22 C :   -0.027481
  23 H :    0.022395
  24 H :    0.029109
  25 C :   -0.034477
  26 H :    0.017116
  27 H :    0.031328
  28 C :   -0.057471
  29 H :    0.021578
  30 H :    0.022474
  31 H :    0.025869
  32 H :    0.025864
  33 H :    0.038093

  Mayer bond orders larger than 0.100000
B(  0-S ,  1-C ) :   1.1655 B(  0-S ,  4-C ) :   1.1124 B(  1-C ,  2-C ) :   1.6029
B(  1-C , 32-H ) :   0.9681 B(  2-C ,  3-C ) :   1.2257 B(  2-C ,  6-C ) :   0.9990
B(  3-C ,  4-C ) :   1.6341 B(  3-C ,  5-H ) :   0.9879 B(  4-C , 20-C ) :   1.0267
B(  6-C ,  7-H ) :   0.9484 B(  6-C ,  8-H ) :   0.9390 B(  6-C ,  9-C ) :   1.0828
B(  9-C , 10-H ) :   0.9501 B(  9-C , 11-H ) :   0.9536 B(  9-C , 12-C ) :   1.0697
B( 12-C , 13-H ) :   0.9710 B( 12-C , 14-H ) :   0.9779 B( 12-C , 15-H ) :   0.9727
B( 16-S , 17-C ) :   1.1504 B( 16-S , 20-C ) :   1.1567 B( 17-C , 18-C ) :   1.5938
B( 17-C , 20-C ) :   0.1078 B( 17-C , 33-H ) :   0.9576 B( 18-C , 19-C ) :   1.2608
B( 18-C , 21-H ) :   0.9791 B( 19-C , 20-C ) :   1.5811 B( 19-C , 22-C ) :   1.0423
B( 22-C , 23-H ) :   0.9347 B( 22-C , 24-H ) :   0.9234 B( 22-C , 25-C ) :   1.0683
B( 25-C , 26-H ) :   0.9501 B( 25-C , 27-H ) :   0.9589 B( 25-C , 28-C ) :   1.0847
B( 28-C , 29-H ) :   0.9748 B( 28-C , 30-H ) :   0.9719 B( 28-C , 31-H ) :   0.9723

Dispersion correction           -0.013964856
FINAL SINGLE POINT ENERGY     -1339.855196820920

DIPOLE MOMENT
-------------
                                X             Y             Z
Electronic contribution:      4.08117     -27.36507       4.15435
Nuclear contribution   :     -4.10749      27.90229      -4.28640
                        -----------------------------------------
Total Dipole Moment    :     -0.02631       0.53722      -0.13204
                        -----------------------------------------
Magnitude (a.u.)       :      0.55384
Magnitude (Debye)      :      1.40774

Rotational constants in cm-1:     0.018204     0.008688     0.006427
Rotational constants in MHz :   545.738046   260.452960   192.680507

                             ****ORCA TERMINATED NORMALLY****
TOTAL RUN TIME: 0 days 0 hours 0 minutes 21 seconds 333 msec
