                         Program Version 4.2.1 -  RELEASE  -
|  1> ! wB97X-D3 SP def2-SVP
|  2> %pal
|  3> nprocs 24
|  4> end
|  5>
|  6> * xyz 0 1
|  7> S 	 -148.995 	 6.21658 	 4.69277
|  8> C 	 -149.692 	 5.09264 	 5.86681
|  9> C 	 -149.74 	 5.68052 	 7.13096
| 10> C 	 -149.11 	 6.89917 	 7.20445
| 11> C 	 -148.85 	 7.40426 	 5.95761
| 12> H 	 -149.118 	 7.50963 	 8.08936
| 13> C 	 -150.24 	 4.91438 	 8.41284
| 14> H 	 -149.608 	 5.14201 	 9.23804
| 15> H 	 -150.089 	 3.87497 	 8.18432
| 16> C 	 -151.736 	 4.95699 	 8.67657
| 17> H 	 -152.351 	 4.5784 	 7.86483
| 18> H 	 -152.025 	 4.41299 	 9.54136
| 19> C 	 -152.21 	 6.35913 	 8.89573
| 20> H 	 -153.234 	 6.34349 	 9.26197
| 21> H 	 -151.603 	 6.85128 	 9.63881
| 22> H 	 -152.193 	 6.96295 	 7.96519
| 23> S 	 -149.99 	 9.98165 	 6.14066
| 24> C 	 -149.063 	 11.2999 	 5.41359
| 25> C 	 -147.901 	 10.8257 	 4.81338
| 26> C 	 -147.707 	 9.44877 	 4.9359
| 27> C 	 -148.755 	 8.82148 	 5.59179
| 28> H 	 -147.334 	 11.5749 	 4.40102
| 29> C 	 -146.41 	 8.73061 	 4.54275
| 30> H 	 -146.476 	 7.69676 	 4.86367
| 31> H 	 -145.658 	 9.14346 	 5.20283
| 32> C 	 -145.95 	 8.89396 	 3.03602
| 33> H 	 -145.742 	 9.90424 	 2.74604
| 34> H 	 -146.841 	 8.56411 	 2.49296
| 35> C 	 -144.735 	 7.98598 	 2.50156
| 36> H 	 -144.466 	 8.24477 	 1.44371
| 37> H 	 -144.905 	 6.90719 	 2.49124
| 38> H 	 -143.751 	 8.26102 	 2.94587
| 39> H 	 -150.174 	 4.13682 	 5.56984
| 40> H 	 -149.513 	 12.2377 	 5.29475
| 41> *
| 42>
| 43>                          ****END OF INPUT****

CARTESIAN COORDINATES (ANGSTROEM)
---------------------------------
  S    -148.995000    6.216580    4.692770
  C    -149.692000    5.092640    5.866810
  C    -149.740000    5.680520    7.130960
  C    -149.110000    6.899170    7.204450
  C    -148.850000    7.404260    5.957610
  H    -149.118000    7.509630    8.089360
  C    -150.240000    4.914380    8.412840
  H    -149.608000    5.142010    9.238040
  H    -150.089000    3.874970    8.184320
  C    -151.736000    4.956990    8.676570
  H    -152.351000    4.578400    7.864830
  H    -152.025000    4.412990    9.541360
  C    -152.210000    6.359130    8.895730
  H    -153.234000    6.343490    9.261970
  H    -151.603000    6.851280    9.638810
  H    -152.193000    6.962950    7.965190
  S    -149.990000    9.981650    6.140660
  C    -149.063000   11.299900    5.413590
  C    -147.901000   10.825700    4.813380
  C    -147.707000    9.448770    4.935900
  C    -148.755000    8.821480    5.591790
  H    -147.334000   11.574900    4.401020
  C    -146.410000    8.730610    4.542750
  H    -146.476000    7.696760    4.863670
  H    -145.658000    9.143460    5.202830
  C    -145.950000    8.893960    3.036020
  H    -145.742000    9.904240    2.746040
  H    -146.841000    8.564110    2.492960
  C    -144.735000    7.985980    2.501560
  H    -144.466000    8.244770    1.443710
  H    -144.905000    6.907190    2.491240
  H    -143.751000    8.261020    2.945870
  H    -150.174000    4.136820    5.569840
  H    -149.513000   12.237700    5.294750

 Total Charge           Charge          ....    0
 Multiplicity           Mult            ....    1
 Number of Electrons    NEL             ....  134
 Basis Dimension        Dim             ....  322

ORBITAL ENERGIES
----------------

  NO   OCC          E(Eh)            E(eV)
   0   2.0000     -88.968486     -2420.9556
   1   2.0000     -88.966707     -2420.9072
   2   2.0000     -10.326207      -280.9904
   3   2.0000     -10.326048      -280.9860
   4   2.0000     -10.316562      -280.7279
   5   2.0000     -10.315533      -280.6999
   6   2.0000     -10.301612      -280.3211
   7   2.0000     -10.299965      -280.2763
   8   2.0000     -10.293951      -280.1126
   9   2.0000     -10.292233      -280.0659
  10   2.0000     -10.288108      -279.9537
  11   2.0000     -10.288082      -279.9529
  12   2.0000     -10.287296      -279.9316
  13   2.0000     -10.286472      -279.9091
  14   2.0000     -10.277243      -279.6580
  15   2.0000     -10.267194      -279.3845
  16   2.0000      -8.082893      -219.9467
  17   2.0000      -8.080577      -219.8837
  18   2.0000      -6.041235      -164.3904
  19   2.0000      -6.039014      -164.3299
  20   2.0000      -6.037471      -164.2879
  21   2.0000      -6.035230      -164.2270
  22   2.0000      -6.033831      -164.1889
  23   2.0000      -6.031461      -164.1244
  24   2.0000      -1.007729       -27.4217
  25   2.0000      -0.983733       -26.7687
  26   2.0000      -0.913354       -24.8536
  27   2.0000      -0.894512       -24.3409
  28   2.0000      -0.866309       -23.5735
  29   2.0000      -0.853226       -23.2175
  30   2.0000      -0.843209       -22.9449
  31   2.0000      -0.813175       -22.1276
  32   2.0000      -0.783806       -21.3284
  33   2.0000      -0.770149       -20.9568
  34   2.0000      -0.704191       -19.1620
  35   2.0000      -0.698824       -19.0160
  36   2.0000      -0.697219       -18.9723
  37   2.0000      -0.662888       -18.0381
  38   2.0000      -0.638583       -17.3767
  39   2.0000      -0.618519       -16.8308
  40   2.0000      -0.595183       -16.1957
  41   2.0000      -0.575131       -15.6501
  42   2.0000      -0.559924       -15.2363
  43   2.0000      -0.549477       -14.9520
  44   2.0000      -0.544699       -14.8220
  45   2.0000      -0.528772       -14.3886
  46   2.0000      -0.514549       -14.0016
  47   2.0000      -0.506855       -13.7922
  48   2.0000      -0.500397       -13.6165
  49   2.0000      -0.490290       -13.3415
  50   2.0000      -0.483516       -13.1571
  51   2.0000      -0.478571       -13.0226
  52   2.0000      -0.473853       -12.8942
  53   2.0000      -0.465165       -12.6578
  54   2.0000      -0.456500       -12.4220
  55   2.0000      -0.445302       -12.1173
  56   2.0000      -0.443132       -12.0582
  57   2.0000      -0.435030       -11.8378
  58   2.0000      -0.432289       -11.7632
  59   2.0000      -0.424670       -11.5559
  60   2.0000      -0.419493       -11.4150
  61   2.0000      -0.414737       -11.2856
  62   2.0000      -0.414334       -11.2746
  63   2.0000      -0.340823        -9.2743
  64   2.0000      -0.335718        -9.1353
  65   2.0000      -0.333801        -9.0832
  66   2.0000      -0.289507        -7.8779
  67   0.0000       0.028697         0.7809
  68   0.0000       0.058075         1.5803
  69   0.0000       0.104233         2.8363
  70   0.0000       0.113951         3.1008
  71   0.0000       0.136154         3.7049

MULLIKEN ATOMIC CHARGES
-----------------------
   0 S :    0.119761
   1 C :   -0.140834
   2 C :   -0.112021
   3 C :    0.044659
   4 C :   -0.185167
   5 H :    0.011980
   6 C :    0.081706
   7 H :    0.025803
   8 H :    0.016095
   9 C :   -0.038714
  10 H :    0.023446
  11 H :    0.020888
  12 C :   -0.069631
  13 H :    0.026722
  14 H :    0.017487
  15 H :    0.045368
  16 S :    0.105093
  17 C :   -0.101675
  18 C :    0.003680
  19 C :   -0.024644
  20 C :   -0.137447
  21 H :   -0.012429
  22 C :    0.095680
  23 H :    0.019981
  24 H :    0.031653
  25 C :   -0.074698
  26 H :    0.032259
  27 H :    0.035544
  28 C :   -0.084709
  29 H :    0.029853
  30 H :    0.048595
  31 H :    0.033126
  32 H :    0.064807
  33 H :    0.047782
Sum of atomic charges:   -0.0000000

LOEWDIN ATOMIC CHARGES
----------------------
   0 S :    0.412620
   1 C :   -0.203120
   2 C :   -0.058996
   3 C :   -0.068213
   4 C :   -0.186552
   5 H :    0.032216
   6 C :   -0.021673
   7 H :    0.026617
   8 H :    0.030021
   9 C :   -0.040686
  10 H :    0.025815
  11 H :    0.021180
  12 C :   -0.067473
  13 H :    0.023660
  14 H :    0.016999
  15 H :    0.028244
  16 S :    0.388642
  17 C :   -0.166425
  18 C :   -0.057890
  19 C :   -0.057085
  20 C :   -0.191804
  21 H :    0.019617
  22 C :   -0.029611
  23 H :    0.023669
  24 H :    0.031976
  25 C :   -0.036028
  26 H :    0.020195
  27 H :    0.027019
  28 C :   -0.078750
  29 H :    0.031435
  30 H :    0.026364
  31 H :    0.026628
  32 H :    0.034097
  33 H :    0.017291

  Mayer bond orders larger than 0.100000
B(  0-S ,  1-C ) :   1.1397 B(  0-S ,  4-C ) :   1.1698 B(  1-C ,  2-C ) :   1.6027
B(  1-C ,  4-C ) :   0.1076 B(  1-C , 32-H ) :   0.9624 B(  2-C ,  3-C ) :   1.2669
B(  2-C ,  6-C ) :   0.9970 B(  3-C ,  4-C ) :   1.5496 B(  3-C ,  5-H ) :   0.9973
B(  4-C , 20-C ) :   1.0202 B(  6-C ,  7-H ) :   0.9515 B(  6-C ,  8-H ) :   0.9415
B(  6-C ,  9-C ) :   1.0783 B(  9-C , 10-H ) :   0.9527 B(  9-C , 11-H ) :   0.9536
B(  9-C , 12-C ) :   1.0887 B( 12-C , 13-H ) :   0.9726 B( 12-C , 14-H ) :   0.9753
B( 12-C , 15-H ) :   0.9721 B( 16-S , 17-C ) :   1.1566 B( 16-S , 20-C ) :   1.1375
B( 17-C , 18-C ) :   1.5979 B( 17-C , 20-C ) :   0.1030 B( 17-C , 33-H ) :   0.9726
B( 18-C , 19-C ) :   1.2366 B( 18-C , 21-H ) :   1.0110 B( 19-C , 20-C ) :   1.5790
B( 19-C , 22-C ) :   1.0455 B( 22-C , 23-H ) :   0.9281 B( 22-C , 24-H ) :   0.9322
B( 22-C , 25-C ) :   1.0380 B( 25-C , 26-H ) :   0.9610 B( 25-C , 27-H ) :   0.9616
B( 25-C , 28-C ) :   1.0774 B( 28-C , 29-H ) :   0.9744 B( 28-C , 30-H ) :   0.9789
B( 28-C , 31-H ) :   0.9758

Dispersion correction           -0.014587224
FINAL SINGLE POINT ENERGY     -1339.865329478171

DIPOLE MOMENT
-------------
                                X             Y             Z
Electronic contribution:     -4.96140       6.78158      -2.60190
Nuclear contribution   :      5.02444      -6.79335       2.70544
                        -----------------------------------------
Total Dipole Moment    :      0.06304      -0.01176       0.10354
                        -----------------------------------------
Magnitude (a.u.)       :      0.12179
Magnitude (Debye)      :      0.30956

Rotational constants in cm-1:     0.021474     0.008398     0.006439
Rotational constants in MHz :   643.779706   251.772145   193.039001

                             ****ORCA TERMINATED NORMALLY****
TOTAL RUN TIME: 0 days 0 hours 0 minutes 20 seconds 61 msec
