                         Program Version 4.2.1 -  RELEASE  -
|  1> ! wB97X-D3 SP def2-SVP
|  2> %pal
|  3> nprocs 24
|  4> end
|  5>
|  6> * xyz 0 1
|  7> S 	 -43.053 	 -8.78585 	 -19.7893
|  8> C 	 -43.3402 	 -10.4937 	 -19.9222
|  9> C 	 -42.6619 	 -11.2062 	 -19.0063
| 10> C 	 -41.9269 	 -10.4128 	 -18.1156
| 11> C 	 -42.0493 	 -9.06677 	 -18.4105
| 12> H 	 -41.2951 	 -10.7365 	 -17.2691
| 13> C 	 -42.7563 	 -12.7365 	 -18.9337
| 14> H 	 -41.6932 	 -13.2154 	 -18.9191
| 15> H 	 -43.4446 	 -13.0555 	 -19.6494
| 16> C 	 -43.4643 	 -13.1772 	 -17.6241
| 17> H 	 -43.1058 	 -12.5443 	 -16.8025
| 18> H 	 -44.4808 	 -12.847 	 -17.6939
| 19> C 	 -43.4407 	 -14.7478 	 -17.3577
| 20> H 	 -43.875 	 -15.3048 	 -18.1652
| 21> H 	 -42.4332 	 -15.0825 	 -17.3425
| 22> H 	 -43.8849 	 -14.9957 	 -16.4171
| 23> S 	 -40.4537 	 -6.92681 	 -18.6788
| 24> C 	 -39.7879 	 -6.174 	 -17.2047
| 25> C 	 -40.5794 	 -6.46463 	 -16.0834
| 26> C 	 -41.5213 	 -7.53753 	 -16.3314
| 27> C 	 -41.4051 	 -7.94739 	 -17.6814
| 28> H 	 -40.3727 	 -5.94411 	 -15.1559
| 29> C 	 -42.434 	 -8.13921 	 -15.2952
| 30> H 	 -43.2094 	 -8.69664 	 -15.7169
| 31> H 	 -42.9234 	 -7.39275 	 -14.7045
| 32> C 	 -41.8039 	 -9.22918 	 -14.5271
| 33> H 	 -40.9772 	 -8.7768 	 -14.0451
| 34> H 	 -41.2163 	 -9.87407 	 -15.1905
| 35> C 	 -42.7242 	 -10.0513 	 -13.6788
| 36> H 	 -42.1114 	 -10.773 	 -12.988
| 37> H 	 -43.5151 	 -10.6023 	 -14.1802
| 38> H 	 -43.2022 	 -9.39345 	 -12.9575
| 39> H 	 -44.0662 	 -11.0123 	 -20.5634
| 40> H 	 -38.9707 	 -5.4357 	 -17.2587
| 41> *
| 42>
| 43>                          ****END OF INPUT****

CARTESIAN COORDINATES (ANGSTROEM)
---------------------------------
  S    -43.053000   -8.785850  -19.789300
  C    -43.340200  -10.493700  -19.922200
  C    -42.661900  -11.206200  -19.006300
  C    -41.926900  -10.412800  -18.115600
  C    -42.049300   -9.066770  -18.410500
  H    -41.295100  -10.736500  -17.269100
  C    -42.756300  -12.736500  -18.933700
  H    -41.693200  -13.215400  -18.919100
  H    -43.444600  -13.055500  -19.649400
  C    -43.464300  -13.177200  -17.624100
  H    -43.105800  -12.544300  -16.802500
  H    -44.480800  -12.847000  -17.693900
  C    -43.440700  -14.747800  -17.357700
  H    -43.875000  -15.304800  -18.165200
  H    -42.433200  -15.082500  -17.342500
  H    -43.884900  -14.995700  -16.417100
  S    -40.453700   -6.926810  -18.678800
  C    -39.787900   -6.174000  -17.204700
  C    -40.579400   -6.464630  -16.083400
  C    -41.521300   -7.537530  -16.331400
  C    -41.405100   -7.947390  -17.681400
  H    -40.372700   -5.944110  -15.155900
  C    -42.434000   -8.139210  -15.295200
  H    -43.209400   -8.696640  -15.716900
  H    -42.923400   -7.392750  -14.704500
  C    -41.803900   -9.229180  -14.527100
  H    -40.977200   -8.776800  -14.045100
  H    -41.216300   -9.874070  -15.190500
  C    -42.724200  -10.051300  -13.678800
  H    -42.111400  -10.773000  -12.988000
  H    -43.515100  -10.602300  -14.180200
  H    -43.202200   -9.393450  -12.957500
  H    -44.066200  -11.012300  -20.563400
  H    -38.970700   -5.435700  -17.258700

 Total Charge           Charge          ....    0
 Multiplicity           Mult            ....    1
 Number of Electrons    NEL             ....  134
 Basis Dimension        Dim             ....  322

ORBITAL ENERGIES
----------------

  NO   OCC          E(Eh)            E(eV)
   0   2.0000     -88.967806     -2420.9371
   1   2.0000     -88.966119     -2420.8912
   2   2.0000     -10.327623      -281.0289
   3   2.0000     -10.327485      -281.0252
   4   2.0000     -10.322667      -280.8941
   5   2.0000     -10.309814      -280.5443
   6   2.0000     -10.307411      -280.4789
   7   2.0000     -10.302130      -280.3352
   8   2.0000     -10.296273      -280.1758
   9   2.0000     -10.293457      -280.0992
  10   2.0000     -10.292453      -280.0719
  11   2.0000     -10.286666      -279.9144
  12   2.0000     -10.285829      -279.8916
  13   2.0000     -10.279683      -279.7244
  14   2.0000     -10.276983      -279.6509
  15   2.0000     -10.275927      -279.6222
  16   2.0000      -8.083117      -219.9528
  17   2.0000      -8.081216      -219.9011
  18   2.0000      -6.041498      -164.3975
  19   2.0000      -6.039548      -164.3445
  20   2.0000      -6.037659      -164.2931
  21   2.0000      -6.035885      -164.2448
  22   2.0000      -6.033862      -164.1897
  23   2.0000      -6.031926      -164.1370
  24   2.0000      -1.011485       -27.5239
  25   2.0000      -0.985887       -26.8273
  26   2.0000      -0.924800       -25.1651
  27   2.0000      -0.907868       -24.7044
  28   2.0000      -0.865496       -23.5513
  29   2.0000      -0.850740       -23.1498
  30   2.0000      -0.846456       -23.0332
  31   2.0000      -0.815256       -22.1842
  32   2.0000      -0.785363       -21.3708
  33   2.0000      -0.772691       -21.0260
  34   2.0000      -0.707962       -19.2646
  35   2.0000      -0.701366       -19.0851
  36   2.0000      -0.691130       -18.8066
  37   2.0000      -0.662311       -18.0224
  38   2.0000      -0.638625       -17.3779
  39   2.0000      -0.623185       -16.9577
  40   2.0000      -0.603764       -16.4293
  41   2.0000      -0.571709       -15.5570
  42   2.0000      -0.566625       -15.4187
  43   2.0000      -0.554918       -15.1001
  44   2.0000      -0.525632       -14.3032
  45   2.0000      -0.521630       -14.1943
  46   2.0000      -0.517925       -14.0934
  47   2.0000      -0.511548       -13.9199
  48   2.0000      -0.500618       -13.6225
  49   2.0000      -0.498736       -13.5713
  50   2.0000      -0.494436       -13.4543
  51   2.0000      -0.485308       -13.2059
  52   2.0000      -0.474297       -12.9063
  53   2.0000      -0.467060       -12.7093
  54   2.0000      -0.465661       -12.6713
  55   2.0000      -0.450109       -12.2481
  56   2.0000      -0.443808       -12.0766
  57   2.0000      -0.437555       -11.9065
  58   2.0000      -0.433717       -11.8020
  59   2.0000      -0.431689       -11.7469
  60   2.0000      -0.425034       -11.5658
  61   2.0000      -0.418550       -11.3893
  62   2.0000      -0.404349       -11.0029
  63   2.0000      -0.344926        -9.3859
  64   2.0000      -0.334897        -9.1130
  65   2.0000      -0.327178        -8.9030
  66   2.0000      -0.291343        -7.9279
  67   0.0000       0.035480         0.9655
  68   0.0000       0.062742         1.7073
  69   0.0000       0.100212         2.7269
  70   0.0000       0.123119         3.3502
  71   0.0000       0.128392         3.4937

MULLIKEN ATOMIC CHARGES
-----------------------
   0 S :    0.124079
   1 C :   -0.123067
   2 C :   -0.085830
   3 C :    0.013229
   4 C :   -0.151403
   5 H :    0.025931
   6 C :    0.090500
   7 H :    0.054310
   8 H :    0.001353
   9 C :   -0.115084
  10 H :    0.023355
  11 H :    0.015608
  12 C :   -0.000819
  13 H :    0.025992
  14 H :    0.016092
  15 H :    0.035678
  16 S :    0.109331
  17 C :   -0.112095
  18 C :   -0.035200
  19 C :   -0.034035
  20 C :   -0.179592
  21 H :    0.024993
  22 C :    0.141478
  23 H :   -0.009200
  24 H :    0.020690
  25 C :   -0.053547
  26 H :   -0.005235
  27 H :    0.004759
  28 C :   -0.043290
  29 H :    0.044379
  30 H :    0.044797
  31 H :    0.022713
  32 H :    0.044371
  33 H :    0.064761
Sum of atomic charges:    0.0000000

LOEWDIN ATOMIC CHARGES
----------------------
   0 S :    0.416900
   1 C :   -0.207631
   2 C :   -0.068766
   3 C :   -0.070496
   4 C :   -0.197231
   5 H :    0.036447
   6 C :   -0.024059
   7 H :    0.043248
   8 H :    0.019178
   9 C :   -0.042051
  10 H :    0.019188
  11 H :    0.017955
  12 C :   -0.057472
  13 H :    0.024087
  14 H :    0.019569
  15 H :    0.025581
  16 S :    0.407299
  17 C :   -0.181287
  18 C :   -0.065061
  19 C :   -0.047081
  20 C :   -0.203618
  21 H :    0.032951
  22 C :   -0.028638
  23 H :    0.024050
  24 H :    0.029993
  25 C :   -0.047158
  26 H :    0.016397
  27 H :    0.022005
  28 C :   -0.068057
  29 H :    0.040909
  30 H :    0.025838
  31 H :    0.023734
  32 H :    0.033293
  33 H :    0.029984

  Mayer bond orders larger than 0.100000
B(  0-S ,  1-C ) :   1.1216 B(  0-S ,  4-C ) :   1.1703 B(  1-C ,  2-C ) :   1.6503
B(  1-C , 32-H ) :   0.9570 B(  2-C ,  3-C ) :   1.2283 B(  2-C ,  6-C ) :   1.0315
B(  3-C ,  4-C ) :   1.5823 B(  3-C ,  5-H ) :   0.9906 B(  4-C , 20-C ) :   1.0019
B(  6-C ,  7-H ) :   0.9410 B(  6-C ,  8-H ) :   0.9374 B(  6-C ,  9-C ) :   1.0497
B(  9-C , 10-H ) :   0.9643 B(  9-C , 11-H ) :   0.9551 B(  9-C , 12-C ) :   1.0652
B( 12-C , 13-H ) :   0.9753 B( 12-C , 14-H ) :   0.9766 B( 12-C , 15-H ) :   0.9763
B( 16-S , 17-C ) :   1.1445 B( 16-S , 20-C ) :   1.1654 B( 17-C , 18-C ) :   1.6105
B( 17-C , 20-C ) :   0.1048 B( 17-C , 33-H ) :   0.9692 B( 18-C , 19-C ) :   1.2138
B( 18-C , 21-H ) :   0.9916 B( 19-C , 20-C ) :   1.5834 B( 19-C , 22-C ) :   1.0619
B( 22-C , 23-H ) :   0.9154 B( 22-C , 24-H ) :   0.9289 B( 22-C , 25-C ) :   1.0559
B( 25-C , 26-H ) :   0.9424 B( 25-C , 27-H ) :   0.9437 B( 25-C , 28-C ) :   1.0830
B( 28-C , 29-H ) :   0.9710 B( 28-C , 30-H ) :   0.9719 B( 28-C , 31-H ) :   0.9693

Dispersion correction           -0.014632178
FINAL SINGLE POINT ENERGY     -1339.860959042317

DIPOLE MOMENT
-------------
                                X             Y             Z
Electronic contribution:      7.07641      24.78963     -20.52700
Nuclear contribution   :     -7.18715     -25.12387      21.06736
                        -----------------------------------------
Total Dipole Moment    :     -0.11074      -0.33423       0.54036
                        -----------------------------------------
Magnitude (a.u.)       :      0.64495
Magnitude (Debye)      :      1.63934

Rotational constants in cm-1:     0.018118     0.009439     0.006773
Rotational constants in MHz :   543.158837   282.963450   203.054440

                             ****ORCA TERMINATED NORMALLY****
TOTAL RUN TIME: 0 days 0 hours 0 minutes 22 seconds 181 msec
