                         Program Version 4.2.1 -  RELEASE  -
|  1> ! wB97X-D3 SP def2-SVP
|  2> %pal
|  3> nprocs 24
|  4> end
|  5>
|  6> * xyz 0 1
|  7> S 	 -81.0196 	 -42.4987 	 -92.3653
|  8> C 	 -80.3175 	 -41.7001 	 -93.7524
|  9> C 	 -81.139 	 -41.6632 	 -94.7901
| 10> C 	 -82.2897 	 -42.5087 	 -94.6116
| 11> C 	 -82.2563 	 -43.1194 	 -93.3727
| 12> H 	 -83.0723 	 -42.7629 	 -95.3736
| 13> C 	 -81.0947 	 -40.9726 	 -96.1755
| 14> H 	 -80.9853 	 -41.7817 	 -96.8303
| 15> H 	 -80.1587 	 -40.4733 	 -96.2503
| 16> C 	 -82.3573 	 -40.1458 	 -96.5106
| 17> H 	 -83.2212 	 -40.8354 	 -96.5908
| 18> H 	 -82.6612 	 -39.5059 	 -95.63
| 19> C 	 -82.2412 	 -39.363 	 -97.8343
| 20> H 	 -82.1383 	 -40.0707 	 -98.6375
| 21> H 	 -83.0827 	 -38.6338 	 -97.9128
| 22> H 	 -81.3724 	 -38.7391 	 -97.8541
| 23> S 	 -84.3432 	 -44.6871 	 -94.0266
| 24> C 	 -85.3431 	 -45.3556 	 -92.7713
| 25> C 	 -85.0642 	 -44.7641 	 -91.5622
| 26> C 	 -83.9835 	 -43.8801 	 -91.5839
| 27> C 	 -83.3925 	 -43.8598 	 -92.8166
| 28> H 	 -85.5808 	 -44.9984 	 -90.5976
| 29> C 	 -83.6978 	 -43.0316 	 -90.3836
| 30> H 	 -84.6055 	 -42.9839 	 -89.813
| 31> H 	 -83.4453 	 -42.0252 	 -90.631
| 32> C 	 -82.7345 	 -43.5248 	 -89.3194
| 33> H 	 -82.643 	 -42.6817 	 -88.6156
| 34> H 	 -81.7027 	 -43.6303 	 -89.6377
| 35> C 	 -83.3261 	 -44.8186 	 -88.5746
| 36> H 	 -82.5931 	 -45.1826 	 -87.8436
| 37> H 	 -83.4565 	 -45.6951 	 -89.146
| 38> H 	 -84.2851 	 -44.6554 	 -88.0943
| 39> H 	 -79.5419 	 -41.0063 	 -93.5924
| 40> H 	 -86.0907 	 -46.0901 	 -92.9057
| 41> *
| 42>
| 43>                          ****END OF INPUT****

CARTESIAN COORDINATES (ANGSTROEM)
---------------------------------
  S    -81.019600  -42.498700  -92.365300
  C    -80.317500  -41.700100  -93.752400
  C    -81.139000  -41.663200  -94.790100
  C    -82.289700  -42.508700  -94.611600
  C    -82.256300  -43.119400  -93.372700
  H    -83.072300  -42.762900  -95.373600
  C    -81.094700  -40.972600  -96.175500
  H    -80.985300  -41.781700  -96.830300
  H    -80.158700  -40.473300  -96.250300
  C    -82.357300  -40.145800  -96.510600
  H    -83.221200  -40.835400  -96.590800
  H    -82.661200  -39.505900  -95.630000
  C    -82.241200  -39.363000  -97.834300
  H    -82.138300  -40.070700  -98.637500
  H    -83.082700  -38.633800  -97.912800
  H    -81.372400  -38.739100  -97.854100
  S    -84.343200  -44.687100  -94.026600
  C    -85.343100  -45.355600  -92.771300
  C    -85.064200  -44.764100  -91.562200
  C    -83.983500  -43.880100  -91.583900
  C    -83.392500  -43.859800  -92.816600
  H    -85.580800  -44.998400  -90.597600
  C    -83.697800  -43.031600  -90.383600
  H    -84.605500  -42.983900  -89.813000
  H    -83.445300  -42.025200  -90.631000
  C    -82.734500  -43.524800  -89.319400
  H    -82.643000  -42.681700  -88.615600
  H    -81.702700  -43.630300  -89.637700
  C    -83.326100  -44.818600  -88.574600
  H    -82.593100  -45.182600  -87.843600
  H    -83.456500  -45.695100  -89.146000
  H    -84.285100  -44.655400  -88.094300
  H    -79.541900  -41.006300  -93.592400
  H    -86.090700  -46.090100  -92.905700

 Total Charge           Charge          ....    0
 Multiplicity           Mult            ....    1
 Number of Electrons    NEL             ....  134
 Basis Dimension        Dim             ....  322

ORBITAL ENERGIES
----------------

  NO   OCC          E(Eh)            E(eV)
   0   2.0000     -88.964954     -2420.8595
   1   2.0000     -88.964175     -2420.8383
   2   2.0000     -10.324937      -280.9558
   3   2.0000     -10.322086      -280.8783
   4   2.0000     -10.310568      -280.5648
   5   2.0000     -10.302290      -280.3396
   6   2.0000     -10.297092      -280.1981
   7   2.0000     -10.295429      -280.1529
   8   2.0000     -10.292983      -280.0863
   9   2.0000     -10.291282      -280.0400
  10   2.0000     -10.290228      -280.0114
  11   2.0000     -10.289879      -280.0018
  12   2.0000     -10.288347      -279.9601
  13   2.0000     -10.283719      -279.8342
  14   2.0000     -10.280629      -279.7501
  15   2.0000     -10.276908      -279.6489
  16   2.0000      -8.080335      -219.8771
  17   2.0000      -8.079216      -219.8467
  18   2.0000      -6.038825      -164.3248
  19   2.0000      -6.037668      -164.2933
  20   2.0000      -6.035027      -164.2214
  21   2.0000      -6.033897      -164.1907
  22   2.0000      -6.030823      -164.1070
  23   2.0000      -6.029840      -164.0803
  24   2.0000      -1.015205       -27.6251
  25   2.0000      -0.992023       -26.9943
  26   2.0000      -0.911184       -24.7946
  27   2.0000      -0.909669       -24.7534
  28   2.0000      -0.872000       -23.7283
  29   2.0000      -0.852277       -23.1916
  30   2.0000      -0.842965       -22.9383
  31   2.0000      -0.808319       -21.9955
  32   2.0000      -0.788171       -21.4472
  33   2.0000      -0.780758       -21.2455
  34   2.0000      -0.713226       -19.4079
  35   2.0000      -0.703092       -19.1321
  36   2.0000      -0.690993       -18.8029
  37   2.0000      -0.673390       -18.3239
  38   2.0000      -0.636556       -17.3216
  39   2.0000      -0.611979       -16.6528
  40   2.0000      -0.600407       -16.3379
  41   2.0000      -0.567126       -15.4323
  42   2.0000      -0.557910       -15.1815
  43   2.0000      -0.554717       -15.0946
  44   2.0000      -0.535205       -14.5637
  45   2.0000      -0.529782       -14.4161
  46   2.0000      -0.516106       -14.0440
  47   2.0000      -0.512536       -13.9468
  48   2.0000      -0.505396       -13.7525
  49   2.0000      -0.497600       -13.5404
  50   2.0000      -0.481990       -13.1156
  51   2.0000      -0.480932       -13.0868
  52   2.0000      -0.473969       -12.8974
  53   2.0000      -0.471850       -12.8397
  54   2.0000      -0.464670       -12.6443
  55   2.0000      -0.449301       -12.2261
  56   2.0000      -0.442744       -12.0477
  57   2.0000      -0.439783       -11.9671
  58   2.0000      -0.431179       -11.7330
  59   2.0000      -0.426599       -11.6084
  60   2.0000      -0.419579       -11.4173
  61   2.0000      -0.417717       -11.3667
  62   2.0000      -0.413848       -11.2614
  63   2.0000      -0.359512        -9.7828
  64   2.0000      -0.333339        -9.0706
  65   2.0000      -0.328899        -8.9498
  66   2.0000      -0.283989        -7.7277
  67   0.0000       0.026504         0.7212
  68   0.0000       0.084407         2.2968
  69   0.0000       0.096673         2.6306
  70   0.0000       0.123150         3.3511
  71   0.0000       0.139594         3.7985

MULLIKEN ATOMIC CHARGES
-----------------------
   0 S :    0.082174
   1 C :   -0.105330
   2 C :   -0.066966
   3 C :   -0.071162
   4 C :   -0.083290
   5 H :    0.049285
   6 C :    0.120585
   7 H :    0.021412
   8 H :    0.000795
   9 C :   -0.126552
  10 H :    0.034524
  11 H :    0.044504
  12 C :   -0.016200
  13 H :    0.031457
  14 H :    0.043397
  15 H :    0.020873
  16 S :    0.085351
  17 C :   -0.061909
  18 C :   -0.046518
  19 C :   -0.036573
  20 C :   -0.142386
  21 H :    0.026841
  22 C :    0.067478
  23 H :    0.006865
  24 H :    0.023030
  25 C :   -0.047967
  26 H :    0.028487
  27 H :    0.028357
  28 C :   -0.070323
  29 H :    0.032355
  30 H :    0.031213
  31 H :    0.028896
  32 H :    0.029055
  33 H :    0.038245
Sum of atomic charges:   -0.0000000

LOEWDIN ATOMIC CHARGES
----------------------
   0 S :    0.422730
   1 C :   -0.198084
   2 C :   -0.053736
   3 C :   -0.082095
   4 C :   -0.193678
   5 H :    0.031836
   6 C :   -0.022361
   7 H :    0.027480
   8 H :    0.021292
   9 C :   -0.044658
  10 H :    0.025198
  11 H :    0.031130
  12 C :   -0.061703
  13 H :    0.024699
  14 H :    0.034781
  15 H :    0.020159
  16 S :    0.413655
  17 C :   -0.183946
  18 C :   -0.070143
  19 C :   -0.069108
  20 C :   -0.181668
  21 H :    0.036780
  22 C :   -0.036055
  23 H :    0.031747
  24 H :    0.023839
  25 C :   -0.032175
  26 H :    0.028189
  27 H :    0.015079
  28 C :   -0.071151
  29 H :    0.030237
  30 H :    0.020120
  31 H :    0.022733
  32 H :    0.017698
  33 H :    0.021179

  Mayer bond orders larger than 0.100000
B(  0-S ,  1-C ) :   1.1039 B(  0-S ,  4-C ) :   1.1633 B(  1-C ,  2-C ) :   1.6820
B(  1-C , 32-H ) :   0.9645 B(  2-C ,  3-C ) :   1.2197 B(  2-C ,  6-C ) :   1.0053
B(  3-C ,  4-C ) :   1.5722 B(  3-C ,  5-H ) :   0.9713 B(  4-C , 20-C ) :   1.0430
B(  6-C ,  7-H ) :   0.9357 B(  6-C ,  8-H ) :   0.9433 B(  6-C ,  9-C ) :   1.0484
B(  9-C , 10-H ) :   0.9494 B(  9-C , 11-H ) :   0.9618 B(  9-C , 12-C ) :   1.0817
B( 12-C , 13-H ) :   0.9742 B( 12-C , 14-H ) :   0.9740 B( 12-C , 15-H ) :   0.9762
B( 16-S , 17-C ) :   1.1470 B( 16-S , 20-C ) :   1.1444 B( 17-C , 18-C ) :   1.6006
B( 17-C , 33-H ) :   0.9754 B( 18-C , 19-C ) :   1.2641 B( 18-C , 21-H ) :   0.9758
B( 19-C , 20-C ) :   1.5855 B( 19-C , 22-C ) :   1.0354 B( 22-C , 23-H ) :   0.9285
B( 22-C , 24-H ) :   0.9320 B( 22-C , 25-C ) :   1.0826 B( 25-C , 26-H ) :   0.9538
B( 25-C , 27-H ) :   0.9559 B( 25-C , 28-C ) :   1.0611 B( 28-C , 29-H ) :   0.9740
B( 28-C , 30-H ) :   0.9768 B( 28-C , 31-H ) :   0.9764

Dispersion correction           -0.014288766
FINAL SINGLE POINT ENERGY     -1339.866466756489

DIPOLE MOMENT
-------------
                                X             Y             Z
Electronic contribution:      0.53402     -10.21657      -0.81984
Nuclear contribution   :     -0.69378      10.59271       0.81475
                        -----------------------------------------
Total Dipole Moment    :     -0.15976       0.37614      -0.00509
                        -----------------------------------------
Magnitude (a.u.)       :      0.40869
Magnitude (Debye)      :      1.03882

Rotational constants in cm-1:     0.023648     0.007937     0.006451
Rotational constants in MHz :   708.964015   237.955429   193.400965

                             ****ORCA TERMINATED NORMALLY****
TOTAL RUN TIME: 0 days 0 hours 0 minutes 20 seconds 467 msec
