                         Program Version 4.2.1 -  RELEASE  -
|  1> ! wB97X-D3 SP def2-SVP
|  2> %pal
|  3> nprocs 24
|  4> end
|  5>
|  6> * xyz 0 1
|  7> S 	 -66.7007 	 7.19474 	 -102.368
|  8> C 	 -65.4618 	 7.39758 	 -101.169
|  9> C 	 -66.0085 	 7.56105 	 -99.9712
| 10> C 	 -67.4655 	 7.35533 	 -100.002
| 11> C 	 -68.0057 	 7.0841 	 -101.238
| 12> H 	 -68.1273 	 7.44403 	 -99.0965
| 13> C 	 -65.298 	 7.61174 	 -98.6166
| 14> H 	 -64.4202 	 8.20293 	 -98.7937
| 15> H 	 -65.1015 	 6.66565 	 -98.1138
| 16> C 	 -66.0316 	 8.27621 	 -97.4269
| 17> H 	 -66.9241 	 7.69317 	 -97.3451
| 18> H 	 -65.5252 	 8.04561 	 -96.4387
| 19> C 	 -66.4879 	 9.72274 	 -97.5213
| 20> H 	 -65.7362 	 10.444 	 -97.7929
| 21> H 	 -67.3763 	 9.82227 	 -98.0835
| 22> H 	 -66.748 	 9.98414 	 -96.4818
| 23> S 	 -69.8452 	 7.9184 	 -103.095
| 24> C 	 -71.466 	 7.26508 	 -103.049
| 25> C 	 -71.6142 	 6.43017 	 -101.99
| 26> C 	 -70.4548 	 6.26571 	 -101.205
| 27> C 	 -69.3623 	 6.97224 	 -101.721
| 28> H 	 -72.6285 	 5.95358 	 -101.775
| 29> C 	 -70.3353 	 5.22886 	 -100.028
| 30> H 	 -69.6653 	 5.53908 	 -99.3059
| 31> H 	 -69.9867 	 4.34321 	 -100.483
| 32> C 	 -71.6987 	 4.96736 	 -99.4675
| 33> H 	 -72.3607 	 4.46241 	 -100.086
| 34> H 	 -72.0635 	 6.00192 	 -99.3689
| 35> C 	 -71.6994 	 4.30228 	 -98.059
| 36> H 	 -72.5524 	 4.60056 	 -97.4017
| 37> H 	 -70.8463 	 4.61499 	 -97.4384
| 38> H 	 -71.7377 	 3.1727 	 -98.0349
| 39> H 	 -64.4186 	 7.28077 	 -101.303
| 40> H 	 -72.1553 	 7.5245 	 -103.817
| 41> *
| 42>
| 43>                          ****END OF INPUT****

CARTESIAN COORDINATES (ANGSTROEM)
---------------------------------
  S    -66.700700    7.194740  -102.368000
  C    -65.461800    7.397580  -101.169000
  C    -66.008500    7.561050  -99.971200
  C    -67.465500    7.355330  -100.002000
  C    -68.005700    7.084100  -101.238000
  H    -68.127300    7.444030  -99.096500
  C    -65.298000    7.611740  -98.616600
  H    -64.420200    8.202930  -98.793700
  H    -65.101500    6.665650  -98.113800
  C    -66.031600    8.276210  -97.426900
  H    -66.924100    7.693170  -97.345100
  H    -65.525200    8.045610  -96.438700
  C    -66.487900    9.722740  -97.521300
  H    -65.736200   10.444000  -97.792900
  H    -67.376300    9.822270  -98.083500
  H    -66.748000    9.984140  -96.481800
  S    -69.845200    7.918400  -103.095000
  C    -71.466000    7.265080  -103.049000
  C    -71.614200    6.430170  -101.990000
  C    -70.454800    6.265710  -101.205000
  C    -69.362300    6.972240  -101.721000
  H    -72.628500    5.953580  -101.775000
  C    -70.335300    5.228860  -100.028000
  H    -69.665300    5.539080  -99.305900
  H    -69.986700    4.343210  -100.483000
  C    -71.698700    4.967360  -99.467500
  H    -72.360700    4.462410  -100.086000
  H    -72.063500    6.001920  -99.368900
  C    -71.699400    4.302280  -98.059000
  H    -72.552400    4.600560  -97.401700
  H    -70.846300    4.614990  -97.438400
  H    -71.737700    3.172700  -98.034900
  H    -64.418600    7.280770  -101.303000
  H    -72.155300    7.524500  -103.817000

 Total Charge           Charge          ....    0
 Multiplicity           Mult            ....    1
 Number of Electrons    NEL             ....  134
 Basis Dimension        Dim             ....  322

ORBITAL ENERGIES
----------------

  NO   OCC          E(Eh)            E(eV)
   0   2.0000     -88.965906     -2420.8854
   1   2.0000     -88.960089     -2420.7271
   2   2.0000     -10.329959      -281.0925
   3   2.0000     -10.327357      -281.0217
   4   2.0000     -10.315208      -280.6911
   5   2.0000     -10.308421      -280.5064
   6   2.0000     -10.305070      -280.4152
   7   2.0000     -10.300411      -280.2884
   8   2.0000     -10.298838      -280.2456
   9   2.0000     -10.298325      -280.2317
  10   2.0000     -10.290668      -280.0233
  11   2.0000     -10.287447      -279.9357
  12   2.0000     -10.287262      -279.9306
  13   2.0000     -10.284966      -279.8681
  14   2.0000     -10.282849      -279.8106
  15   2.0000     -10.270990      -279.4879
  16   2.0000      -8.081092      -219.8977
  17   2.0000      -8.075941      -219.7575
  18   2.0000      -6.039519      -164.3437
  19   2.0000      -6.035472      -164.2335
  20   2.0000      -6.034656      -164.2113
  21   2.0000      -6.031962      -164.1380
  22   2.0000      -6.030149      -164.0887
  23   2.0000      -6.026534      -163.9903
  24   2.0000      -1.013977       -27.5917
  25   2.0000      -0.991562       -26.9818
  26   2.0000      -0.915846       -24.9214
  27   2.0000      -0.911992       -24.8166
  28   2.0000      -0.878952       -23.9175
  29   2.0000      -0.846559       -23.0360
  30   2.0000      -0.838605       -22.8196
  31   2.0000      -0.818754       -22.2794
  32   2.0000      -0.788281       -21.4502
  33   2.0000      -0.779489       -21.2110
  34   2.0000      -0.712190       -19.3797
  35   2.0000      -0.709569       -19.3083
  36   2.0000      -0.691674       -18.8214
  37   2.0000      -0.650994       -17.7144
  38   2.0000      -0.639290       -17.3960
  39   2.0000      -0.622529       -16.9399
  40   2.0000      -0.605359       -16.4727
  41   2.0000      -0.580816       -15.8048
  42   2.0000      -0.569363       -15.4932
  43   2.0000      -0.555367       -15.1123
  44   2.0000      -0.537745       -14.6328
  45   2.0000      -0.526090       -14.3156
  46   2.0000      -0.517506       -14.0820
  47   2.0000      -0.514327       -13.9956
  48   2.0000      -0.505624       -13.7587
  49   2.0000      -0.500496       -13.6192
  50   2.0000      -0.496327       -13.5057
  51   2.0000      -0.482128       -13.1194
  52   2.0000      -0.475739       -12.9455
  53   2.0000      -0.470102       -12.7921
  54   2.0000      -0.461776       -12.5656
  55   2.0000      -0.454807       -12.3759
  56   2.0000      -0.443674       -12.0730
  57   2.0000      -0.437640       -11.9088
  58   2.0000      -0.435080       -11.8391
  59   2.0000      -0.420906       -11.4534
  60   2.0000      -0.413381       -11.2487
  61   2.0000      -0.409511       -11.1434
  62   2.0000      -0.403093       -10.9687
  63   2.0000      -0.358690        -9.7605
  64   2.0000      -0.335955        -9.1418
  65   2.0000      -0.326110        -8.8739
  66   2.0000      -0.293875        -7.9967
  67   0.0000       0.028774         0.7830
  68   0.0000       0.074339         2.0229
  69   0.0000       0.115110         3.1323
  70   0.0000       0.121626         3.3096
  71   0.0000       0.131711         3.5840

MULLIKEN ATOMIC CHARGES
-----------------------
   0 S :    0.088535
   1 C :   -0.101477
   2 C :   -0.066474
   3 C :   -0.017475
   4 C :   -0.146392
   5 H :    0.032402
   6 C :    0.094892
   7 H :    0.017138
   8 H :    0.047735
   9 C :   -0.141522
  10 H :    0.007689
  11 H :    0.036380
  12 C :   -0.012139
  13 H :    0.032145
  14 H :    0.029511
  15 H :    0.023180
  16 S :    0.109454
  17 C :   -0.088696
  18 C :   -0.053420
  19 C :   -0.090725
  20 C :   -0.139464
  21 H :    0.046748
  22 C :    0.192034
  23 H :   -0.008631
  24 H :    0.030324
  25 C :   -0.104667
  26 H :    0.026943
  27 H :    0.034028
  28 C :   -0.066425
  29 H :    0.034479
  30 H :    0.025040
  31 H :    0.042574
  32 H :    0.034298
  33 H :    0.051978
Sum of atomic charges:    0.0000000

LOEWDIN ATOMIC CHARGES
----------------------
   0 S :    0.408817
   1 C :   -0.184919
   2 C :   -0.068498
   3 C :   -0.074311
   4 C :   -0.195402
   5 H :    0.032950
   6 C :   -0.030914
   7 H :    0.023958
   8 H :    0.039370
   9 C :   -0.050255
  10 H :    0.015091
  11 H :    0.031642
  12 C :   -0.064018
  13 H :    0.022972
  14 H :    0.020934
  15 H :    0.032367
  16 S :    0.415785
  17 C :   -0.179242
  18 C :   -0.083359
  19 C :   -0.056399
  20 C :   -0.206495
  21 H :    0.046578
  22 C :   -0.008368
  23 H :    0.016987
  24 H :    0.030926
  25 C :   -0.041617
  26 H :    0.014671
  27 H :    0.030670
  28 C :   -0.076951
  29 H :    0.030338
  30 H :    0.023743
  31 H :    0.029914
  32 H :    0.028323
  33 H :    0.024713

  Mayer bond orders larger than 0.100000
B(  0-S ,  1-C ) :   1.1261 B(  0-S ,  4-C ) :   1.1417 B(  1-C ,  2-C ) :   1.6572
B(  1-C , 32-H ) :   0.9748 B(  2-C ,  3-C ) :   1.2106 B(  2-C ,  6-C ) :   1.0109
B(  3-C ,  4-C ) :   1.6019 B(  3-C ,  5-H ) :   0.9764 B(  4-C , 20-C ) :   1.0440
B(  6-C ,  7-H ) :   0.9398 B(  6-C ,  8-H ) :   0.9448 B(  6-C ,  9-C ) :   1.0672
B(  9-C , 10-H ) :   0.9455 B(  9-C , 11-H ) :   0.9603 B(  9-C , 12-C ) :   1.0832
B( 12-C , 13-H ) :   0.9773 B( 12-C , 14-H ) :   0.9723 B( 12-C , 15-H ) :   0.9702
B( 16-S , 17-C ) :   1.1576 B( 16-S , 20-C ) :   1.1604 B( 17-C , 18-C ) :   1.5809
B( 17-C , 20-C ) :   0.1071 B( 17-C , 33-H ) :   0.9733 B( 18-C , 19-C ) :   1.2703
B( 18-C , 21-H ) :   0.9763 B( 19-C , 20-C ) :   1.5859 B( 19-C , 22-C ) :   1.0215
B( 22-C , 23-H ) :   0.9260 B( 22-C , 24-H ) :   0.9220 B( 22-C , 25-C ) :   1.0852
B( 25-C , 26-H ) :   0.9465 B( 25-C , 27-H ) :   0.9625 B( 25-C , 28-C ) :   1.0717
B( 28-C , 29-H ) :   0.9761 B( 28-C , 30-H ) :   0.9751 B( 28-C , 31-H ) :   0.9755

Dispersion correction           -0.013566124
FINAL SINGLE POINT ENERGY     -1339.861702401664

DIPOLE MOMENT
-------------
                                X             Y             Z
Electronic contribution:      3.55461       4.58704     -28.88078
Nuclear contribution   :     -3.74012      -4.83144      29.50993
                        -----------------------------------------
Total Dipole Moment    :     -0.18552      -0.24440       0.62915
                        -----------------------------------------
Magnitude (a.u.)       :      0.69999
Magnitude (Debye)      :      1.77922

Rotational constants in cm-1:     0.016149     0.009284     0.006811
Rotational constants in MHz :   484.130099   278.320006   204.198417

                             ****ORCA TERMINATED NORMALLY****
TOTAL RUN TIME: 0 days 0 hours 0 minutes 21 seconds 491 msec
