                         Program Version 4.2.1 -  RELEASE  -
|  1> ! wB97X-D3 SP def2-SVP
|  2> %pal
|  3> nprocs 24
|  4> end
|  5>
|  6> * xyz 0 1
|  7> S 	 -48.3962 	 -1.98763 	 20.4495
|  8> C 	 -49.5647 	 -1.82234 	 19.1758
|  9> C 	 -49.6126 	 -2.90737 	 18.3663
| 10> C 	 -48.4213 	 -3.62632 	 18.5558
| 11> C 	 -47.5071 	 -3.21257 	 19.5245
| 12> H 	 -48.2002 	 -4.48796 	 17.9475
| 13> C 	 -50.7278 	 -3.38138 	 17.4439
| 14> H 	 -50.33 	 -4.06074 	 16.7103
| 15> H 	 -51.1335 	 -2.54217 	 16.8384
| 16> C 	 -51.9082 	 -4.17006 	 18.1273
| 17> H 	 -51.483 	 -4.98668 	 18.6859
| 18> H 	 -52.3763 	 -3.47295 	 18.8589
| 19> C 	 -52.9969 	 -4.75344 	 17.159
| 20> H 	 -53.8431 	 -5.23427 	 17.6424
| 21> H 	 -53.326 	 -3.92561 	 16.5514
| 22> H 	 -52.6713 	 -5.45706 	 16.4699
| 23> S 	 -45.9603 	 -5.52693 	 20.0186
| 24> C 	 -44.2643 	 -5.37813 	 20.6186
| 25> C 	 -43.9204 	 -4.05158 	 20.6821
| 26> C 	 -45.0467 	 -3.17465 	 20.4446
| 27> C 	 -46.1569 	 -3.75165 	 19.852
| 28> H 	 -43.0006 	 -3.58808 	 21.0057
| 29> C 	 -44.8299 	 -1.67501 	 20.7021
| 30> H 	 -44.1961 	 -1.62455 	 21.5721
| 31> H 	 -45.7902 	 -1.24986 	 21.0412
| 32> C 	 -44.3461 	 -0.92596 	 19.3961
| 33> H 	 -43.4027 	 -1.35585 	 19.0481
| 34> H 	 -44.1534 	 0.0950309 	 19.6751
| 35> C 	 -45.3353 	 -0.900168 	 18.2453
| 36> H 	 -44.947 	 -0.314711 	 17.3481
| 37> H 	 -46.2292 	 -0.433108 	 18.6091
| 38> H 	 -45.68 	 -1.88507 	 17.8888
| 39> H 	 -50.2964 	 -1.06317 	 19.2073
| 40> H 	 -43.6443 	 -6.18025 	 20.8929
| 41> *
| 42>
| 43>                          ****END OF INPUT****

CARTESIAN COORDINATES (ANGSTROEM)
---------------------------------
  S    -48.396200   -1.987630   20.449500
  C    -49.564700   -1.822340   19.175800
  C    -49.612600   -2.907370   18.366300
  C    -48.421300   -3.626320   18.555800
  C    -47.507100   -3.212570   19.524500
  H    -48.200200   -4.487960   17.947500
  C    -50.727800   -3.381380   17.443900
  H    -50.330000   -4.060740   16.710300
  H    -51.133500   -2.542170   16.838400
  C    -51.908200   -4.170060   18.127300
  H    -51.483000   -4.986680   18.685900
  H    -52.376300   -3.472950   18.858900
  C    -52.996900   -4.753440   17.159000
  H    -53.843100   -5.234270   17.642400
  H    -53.326000   -3.925610   16.551400
  H    -52.671300   -5.457060   16.469900
  S    -45.960300   -5.526930   20.018600
  C    -44.264300   -5.378130   20.618600
  C    -43.920400   -4.051580   20.682100
  C    -45.046700   -3.174650   20.444600
  C    -46.156900   -3.751650   19.852000
  H    -43.000600   -3.588080   21.005700
  C    -44.829900   -1.675010   20.702100
  H    -44.196100   -1.624550   21.572100
  H    -45.790200   -1.249860   21.041200
  C    -44.346100   -0.925960   19.396100
  H    -43.402700   -1.355850   19.048100
  H    -44.153400    0.095031   19.675100
  C    -45.335300   -0.900168   18.245300
  H    -44.947000   -0.314711   17.348100
  H    -46.229200   -0.433108   18.609100
  H    -45.680000   -1.885070   17.888800
  H    -50.296400   -1.063170   19.207300
  H    -43.644300   -6.180250   20.892900

 Total Charge           Charge          ....    0
 Multiplicity           Mult            ....    1
 Number of Electrons    NEL             ....  134
 Basis Dimension        Dim             ....  322

ORBITAL ENERGIES
----------------

  NO   OCC          E(Eh)            E(eV)
   0   2.0000     -88.966539     -2420.9026
   1   2.0000     -88.963748     -2420.8266
   2   2.0000     -10.336598      -281.2731
   3   2.0000     -10.334716      -281.2219
   4   2.0000     -10.324738      -280.9504
   5   2.0000     -10.310896      -280.5738
   6   2.0000     -10.304978      -280.4127
   7   2.0000     -10.300090      -280.2797
   8   2.0000     -10.299889      -280.2742
   9   2.0000     -10.297503      -280.2093
  10   2.0000     -10.294305      -280.1223
  11   2.0000     -10.292635      -280.0768
  12   2.0000     -10.291991      -280.0593
  13   2.0000     -10.285110      -279.8721
  14   2.0000     -10.276140      -279.6280
  15   2.0000     -10.270884      -279.4850
  16   2.0000      -8.080855      -219.8912
  17   2.0000      -8.077082      -219.7886
  18   2.0000      -6.039403      -164.3405
  19   2.0000      -6.035939      -164.2462
  20   2.0000      -6.035635      -164.2380
  21   2.0000      -6.031842      -164.1348
  22   2.0000      -6.031374      -164.1220
  23   2.0000      -6.027478      -164.0160
  24   2.0000      -1.005756       -27.3680
  25   2.0000      -0.983089       -26.7512
  26   2.0000      -0.904940       -24.6247
  27   2.0000      -0.899119       -24.4663
  28   2.0000      -0.868744       -23.6397
  29   2.0000      -0.849252       -23.1093
  30   2.0000      -0.839437       -22.8422
  31   2.0000      -0.815417       -22.1886
  32   2.0000      -0.785253       -21.3678
  33   2.0000      -0.770740       -20.9729
  34   2.0000      -0.705702       -19.2031
  35   2.0000      -0.704144       -19.1607
  36   2.0000      -0.691995       -18.8301
  37   2.0000      -0.671042       -18.2600
  38   2.0000      -0.640578       -17.4310
  39   2.0000      -0.617131       -16.7930
  40   2.0000      -0.594766       -16.1844
  41   2.0000      -0.572186       -15.5700
  42   2.0000      -0.559510       -15.2250
  43   2.0000      -0.545778       -14.8514
  44   2.0000      -0.541186       -14.7264
  45   2.0000      -0.525038       -14.2870
  46   2.0000      -0.518827       -14.1180
  47   2.0000      -0.509359       -13.8604
  48   2.0000      -0.500633       -13.6229
  49   2.0000      -0.497987       -13.5509
  50   2.0000      -0.491239       -13.3673
  51   2.0000      -0.473253       -12.8779
  52   2.0000      -0.471875       -12.8404
  53   2.0000      -0.462196       -12.5770
  54   2.0000      -0.456694       -12.4273
  55   2.0000      -0.449980       -12.2446
  56   2.0000      -0.443779       -12.0759
  57   2.0000      -0.434856       -11.8330
  58   2.0000      -0.431477       -11.7411
  59   2.0000      -0.427823       -11.6417
  60   2.0000      -0.422578       -11.4989
  61   2.0000      -0.416908       -11.3447
  62   2.0000      -0.405121       -11.0239
  63   2.0000      -0.350271        -9.5314
  64   2.0000      -0.329157        -8.9568
  65   2.0000      -0.325671        -8.8620
  66   2.0000      -0.292713        -7.9651
  67   0.0000       0.018616         0.5066
  68   0.0000       0.069954         1.9035
  69   0.0000       0.096329         2.6212
  70   0.0000       0.115907         3.1540
  71   0.0000       0.124945         3.3999

MULLIKEN ATOMIC CHARGES
-----------------------
   0 S :    0.101798
   1 C :   -0.124566
   2 C :   -0.036987
   3 C :   -0.000980
   4 C :   -0.131417
   5 H :    0.000204
   6 C :    0.058097
   7 H :    0.014538
   8 H :    0.032007
   9 C :   -0.076896
  10 H :    0.030389
  11 H :    0.034564
  12 C :   -0.024061
  13 H :    0.040877
  14 H :    0.021125
  15 H :    0.015963
  16 S :    0.074154
  17 C :   -0.063999
  18 C :    0.008576
  19 C :   -0.129448
  20 C :   -0.102706
  21 H :    0.019343
  22 C :    0.054356
  23 H :    0.020242
  24 H :    0.022641
  25 C :   -0.030263
  26 H :    0.021431
  27 H :    0.026934
  28 C :   -0.064437
  29 H :    0.044421
  30 H :    0.018857
  31 H :    0.047681
  32 H :    0.028920
  33 H :    0.048637
Sum of atomic charges:   -0.0000000

LOEWDIN ATOMIC CHARGES
----------------------
   0 S :    0.406884
   1 C :   -0.177758
   2 C :   -0.067271
   3 C :   -0.061604
   4 C :   -0.186601
   5 H :    0.023859
   6 C :   -0.030175
   7 H :    0.025842
   8 H :    0.033613
   9 C :   -0.033463
  10 H :    0.021325
  11 H :    0.025987
  12 C :   -0.062656
  13 H :    0.031529
  14 H :    0.024371
  15 H :    0.015755
  16 S :    0.363343
  17 C :   -0.149381
  18 C :   -0.067000
  19 C :   -0.050853
  20 C :   -0.192013
  21 H :    0.031717
  22 C :   -0.033506
  23 H :    0.026778
  24 H :    0.020489
  25 C :   -0.031850
  26 H :    0.020487
  27 H :    0.022111
  28 C :   -0.070456
  29 H :    0.035086
  30 H :    0.018301
  31 H :    0.027766
  32 H :    0.016103
  33 H :    0.023244

  Mayer bond orders larger than 0.100000
B(  0-S ,  1-C ) :   1.1589 B(  0-S ,  4-C ) :   1.1224 B(  1-C ,  2-C ) :   1.5822
B(  1-C , 32-H ) :   0.9741 B(  2-C ,  3-C ) :   1.2673 B(  2-C ,  6-C ) :   1.0302
B(  3-C ,  4-C ) :   1.5510 B(  3-C ,  5-H ) :   0.9969 B(  4-C , 20-C ) :   1.0666
B(  6-C ,  7-H ) :   0.9403 B(  6-C ,  8-H ) :   0.9385 B(  6-C ,  9-C ) :   1.0533
B(  9-C , 10-H ) :   0.9584 B(  9-C , 11-H ) :   0.9603 B(  9-C , 12-C ) :   1.0735
B( 12-C , 13-H ) :   0.9755 B( 12-C , 14-H ) :   0.9751 B( 12-C , 15-H ) :   0.9758
B( 16-S , 17-C ) :   1.1419 B( 16-S , 20-C ) :   1.0958 B( 17-C , 18-C ) :   1.6053
B( 17-C , 33-H ) :   0.9761 B( 18-C , 19-C ) :   1.2387 B( 18-C , 21-H ) :   0.9823
B( 19-C , 20-C ) :   1.6089 B( 19-C , 22-C ) :   1.0419 B( 22-C , 23-H ) :   0.9359
B( 22-C , 24-H ) :   0.9338 B( 22-C , 25-C ) :   1.0559 B( 25-C , 26-H ) :   0.9572
B( 25-C , 27-H ) :   0.9552 B( 25-C , 28-C ) :   1.0825 B( 28-C , 29-H ) :   0.9707
B( 28-C , 30-H ) :   0.9716 B( 28-C , 31-H ) :   0.9684

Dispersion correction           -0.015222952
FINAL SINGLE POINT ENERGY     -1339.867219129819

DIPOLE MOMENT
-------------
                                X             Y             Z
Electronic contribution:     10.05535      -6.55051      12.35831
Nuclear contribution   :    -10.14323       6.64768     -12.46901
                        -----------------------------------------
Total Dipole Moment    :     -0.08788       0.09717      -0.11071
                        -----------------------------------------
Magnitude (a.u.)       :      0.17153
Magnitude (Debye)      :      0.43599

Rotational constants in cm-1:     0.023343     0.007737     0.006478
Rotational constants in MHz :   699.793861   231.935715   194.192791

                             ****ORCA TERMINATED NORMALLY****
TOTAL RUN TIME: 0 days 0 hours 0 minutes 21 seconds 726 msec
