                         Program Version 4.2.1 -  RELEASE  -
|  1> ! wB97X-D3 SP def2-SVP
|  2> %pal
|  3> nprocs 24
|  4> end
|  5>
|  6> * xyz 0 1
|  7> S 	 -95.0777 	 14.7492 	 -115.284
|  8> C 	 -95.1641 	 13.8723 	 -113.757
|  9> C 	 -96.4798 	 13.9578 	 -113.28
| 10> C 	 -97.401 	 14.4693 	 -114.276
| 11> C 	 -96.7603 	 14.6523 	 -115.516
| 12> H 	 -98.464 	 14.6025 	 -114.087
| 13> C 	 -96.9588 	 13.4692 	 -111.902
| 14> H 	 -96.5809 	 14.1666 	 -111.14
| 15> H 	 -96.41 	 12.5848 	 -111.686
| 16> C 	 -98.4608 	 13.0773 	 -111.605
| 17> H 	 -98.5351 	 13.1038 	 -110.498
| 18> H 	 -99.1445 	 13.9011 	 -111.897
| 19> C 	 -98.8404 	 11.7965 	 -112.276
| 20> H 	 -98.0711 	 11.0206 	 -112.19
| 21> H 	 -99.7685 	 11.4494 	 -111.901
| 22> H 	 -98.7851 	 12.0452 	 -113.353
| 23> S 	 -96.7855 	 16.4086 	 -117.667
| 24> C 	 -98.1594 	 16.5136 	 -118.664
| 25> C 	 -98.969 	 15.4272 	 -118.51
| 26> C 	 -98.5289 	 14.5492 	 -117.48
| 27> C 	 -97.41 	 15.0169 	 -116.803
| 28> H 	 -99.8981 	 15.3448 	 -119.165
| 29> C 	 -99.3331 	 13.3358 	 -117.173
| 30> H 	 -98.7903 	 12.8244 	 -116.457
| 31> H 	 -99.1723 	 12.6394 	 -118.017
| 32> C 	 -100.85 	 13.5117 	 -116.806
| 33> H 	 -101.263 	 13.9156 	 -117.77
| 34> H 	 -100.97 	 14.4009 	 -116.249
| 35> C 	 -101.549 	 12.4295 	 -116.041
| 36> H 	 -101.024 	 12.216 	 -115.157
| 37> H 	 -101.564 	 11.4687 	 -116.586
| 38> H 	 -102.617 	 12.6541 	 -115.755
| 39> H 	 -94.2987 	 13.6293 	 -113.146
| 40> H 	 -98.2126 	 17.2642 	 -119.423
| 41> *
| 42>
| 43>                          ****END OF INPUT****

CARTESIAN COORDINATES (ANGSTROEM)
---------------------------------
  S    -95.077700   14.749200  -115.284000
  C    -95.164100   13.872300  -113.757000
  C    -96.479800   13.957800  -113.280000
  C    -97.401000   14.469300  -114.276000
  C    -96.760300   14.652300  -115.516000
  H    -98.464000   14.602500  -114.087000
  C    -96.958800   13.469200  -111.902000
  H    -96.580900   14.166600  -111.140000
  H    -96.410000   12.584800  -111.686000
  C    -98.460800   13.077300  -111.605000
  H    -98.535100   13.103800  -110.498000
  H    -99.144500   13.901100  -111.897000
  C    -98.840400   11.796500  -112.276000
  H    -98.071100   11.020600  -112.190000
  H    -99.768500   11.449400  -111.901000
  H    -98.785100   12.045200  -113.353000
  S    -96.785500   16.408600  -117.667000
  C    -98.159400   16.513600  -118.664000
  C    -98.969000   15.427200  -118.510000
  C    -98.528900   14.549200  -117.480000
  C    -97.410000   15.016900  -116.803000
  H    -99.898100   15.344800  -119.165000
  C    -99.333100   13.335800  -117.173000
  H    -98.790300   12.824400  -116.457000
  H    -99.172300   12.639400  -118.017000
  C    -100.850000   13.511700  -116.806000
  H    -101.263000   13.915600  -117.770000
  H    -100.970000   14.400900  -116.249000
  C    -101.549000   12.429500  -116.041000
  H    -101.024000   12.216000  -115.157000
  H    -101.564000   11.468700  -116.586000
  H    -102.617000   12.654100  -115.755000
  H    -94.298700   13.629300  -113.146000
  H    -98.212600   17.264200  -119.423000

 Total Charge           Charge          ....    0
 Multiplicity           Mult            ....    1
 Number of Electrons    NEL             ....  134
 Basis Dimension        Dim             ....  322

ORBITAL ENERGIES
----------------

  NO   OCC          E(Eh)            E(eV)
   0   2.0000     -88.965148     -2420.8648
   1   2.0000     -88.960941     -2420.7503
   2   2.0000     -10.334406      -281.2135
   3   2.0000     -10.329135      -281.0701
   4   2.0000     -10.315475      -280.6983
   5   2.0000     -10.312507      -280.6176
   6   2.0000     -10.308783      -280.5163
   7   2.0000     -10.303378      -280.3692
   8   2.0000     -10.298707      -280.2421
   9   2.0000     -10.295342      -280.1505
  10   2.0000     -10.294566      -280.1294
  11   2.0000     -10.293599      -280.1031
  12   2.0000     -10.287784      -279.9448
  13   2.0000     -10.284073      -279.8439
  14   2.0000     -10.281551      -279.7752
  15   2.0000     -10.277704      -279.6705
  16   2.0000      -8.080683      -219.8866
  17   2.0000      -8.077175      -219.7911
  18   2.0000      -6.039165      -164.3340
  19   2.0000      -6.035579      -164.2364
  20   2.0000      -6.035296      -164.2287
  21   2.0000      -6.031444      -164.1239
  22   2.0000      -6.031204      -164.1174
  23   2.0000      -6.027986      -164.0298
  24   2.0000      -1.011232       -27.5170
  25   2.0000      -0.989312       -26.9205
  26   2.0000      -0.911323       -24.7984
  27   2.0000      -0.909886       -24.7592
  28   2.0000      -0.869405       -23.6577
  29   2.0000      -0.857205       -23.3257
  30   2.0000      -0.843102       -22.9420
  31   2.0000      -0.815183       -22.1823
  32   2.0000      -0.785111       -21.3640
  33   2.0000      -0.775383       -21.0992
  34   2.0000      -0.712894       -19.3988
  35   2.0000      -0.705338       -19.1932
  36   2.0000      -0.692616       -18.8470
  37   2.0000      -0.654517       -17.8103
  38   2.0000      -0.635227       -17.2854
  39   2.0000      -0.624677       -16.9983
  40   2.0000      -0.601708       -16.3733
  41   2.0000      -0.564955       -15.3732
  42   2.0000      -0.560436       -15.2502
  43   2.0000      -0.554283       -15.0828
  44   2.0000      -0.532351       -14.4860
  45   2.0000      -0.529288       -14.4027
  46   2.0000      -0.516289       -14.0489
  47   2.0000      -0.515094       -14.0164
  48   2.0000      -0.506164       -13.7734
  49   2.0000      -0.500594       -13.6219
  50   2.0000      -0.496615       -13.5136
  51   2.0000      -0.490345       -13.3430
  52   2.0000      -0.475080       -12.9276
  53   2.0000      -0.470067       -12.7912
  54   2.0000      -0.458626       -12.4798
  55   2.0000      -0.450687       -12.2638
  56   2.0000      -0.445352       -12.1186
  57   2.0000      -0.440038       -11.9741
  58   2.0000      -0.432883       -11.7793
  59   2.0000      -0.429613       -11.6904
  60   2.0000      -0.418488       -11.3876
  61   2.0000      -0.411897       -11.2083
  62   2.0000      -0.402938       -10.9645
  63   2.0000      -0.348308        -9.4780
  64   2.0000      -0.330129        -8.9833
  65   2.0000      -0.323897        -8.8137
  66   2.0000      -0.289409        -7.8752
  67   0.0000       0.024293         0.6611
  68   0.0000       0.068854         1.8736
  69   0.0000       0.100921         2.7462
  70   0.0000       0.121670         3.3108
  71   0.0000       0.124062         3.3759

MULLIKEN ATOMIC CHARGES
-----------------------
   0 S :    0.105813
   1 C :   -0.112417
   2 C :   -0.112484
   3 C :    0.029961
   4 C :   -0.139369
   5 H :    0.018111
   6 C :    0.040076
   7 H :    0.040713
   8 H :    0.015132
   9 C :   -0.093925
  10 H :    0.029540
  11 H :    0.032558
  12 C :   -0.019091
  13 H :    0.025875
  14 H :    0.038113
  15 H :    0.039414
  16 S :    0.093834
  17 C :   -0.080670
  18 C :   -0.064186
  19 C :   -0.068122
  20 C :   -0.139569
  21 H :    0.048535
  22 C :    0.110166
  23 H :   -0.020502
  24 H :    0.033515
  25 C :   -0.060620
  26 H :    0.020828
  27 H :    0.014297
  28 C :   -0.024422
  29 H :    0.019616
  30 H :    0.030591
  31 H :    0.045543
  32 H :    0.052503
  33 H :    0.050640
Sum of atomic charges:   -0.0000000

LOEWDIN ATOMIC CHARGES
----------------------
   0 S :    0.418257
   1 C :   -0.203510
   2 C :   -0.057577
   3 C :   -0.068778
   4 C :   -0.199529
   5 H :    0.030851
   6 C :   -0.037780
   7 H :    0.036276
   8 H :    0.026858
   9 C :   -0.044915
  10 H :    0.027020
  11 H :    0.023266
  12 C :   -0.064017
  13 H :    0.026813
  14 H :    0.022870
  15 H :    0.032902
  16 S :    0.415074
  17 C :   -0.187968
  18 C :   -0.085057
  19 C :   -0.055425
  20 C :   -0.198156
  21 H :    0.045123
  22 C :   -0.033101
  23 H :    0.014534
  24 H :    0.039463
  25 C :   -0.045277
  26 H :    0.026610
  27 H :    0.019690
  28 C :   -0.064163
  29 H :    0.020894
  30 H :    0.027502
  31 H :    0.037486
  32 H :    0.029405
  33 H :    0.024359

  Mayer bond orders larger than 0.100000
B(  0-S ,  1-C ) :   1.1265 B(  0-S ,  4-C ) :   1.1845 B(  1-C ,  2-C ) :   1.5942
B(  1-C ,  4-C ) :   0.1059 B(  1-C , 32-H ) :   0.9737 B(  2-C ,  3-C ) :   1.2572
B(  2-C ,  6-C ) :   1.0055 B(  3-C ,  4-C ) :   1.5184 B(  3-C ,  5-H ) :   0.9931
B(  4-C , 20-C ) :   1.0280 B(  6-C ,  7-H ) :   0.9347 B(  6-C ,  8-H ) :   0.9447
B(  6-C ,  9-C ) :   1.0762 B(  9-C , 10-H ) :   0.9515 B(  9-C , 11-H ) :   0.9518
B(  9-C , 12-C ) :   1.0703 B( 12-C , 13-H ) :   0.9723 B( 12-C , 14-H ) :   0.9733
B( 12-C , 15-H ) :   0.9686 B( 16-S , 17-C ) :   1.1782 B( 16-S , 20-C ) :   1.1365
B( 17-C , 18-C ) :   1.5964 B( 17-C , 33-H ) :   0.9705 B( 18-C , 19-C ) :   1.2335
B( 18-C , 21-H ) :   0.9832 B( 19-C , 20-C ) :   1.6005 B( 19-C , 22-C ) :   1.0611
B( 22-C , 23-H ) :   0.9221 B( 22-C , 24-H ) :   0.9216 B( 22-C , 25-C ) :   1.0346
B( 25-C , 26-H ) :   0.9484 B( 25-C , 27-H ) :   0.9578 B( 25-C , 28-C ) :   1.0853
B( 28-C , 29-H ) :   0.9698 B( 28-C , 30-H ) :   0.9740 B( 28-C , 31-H ) :   0.9713

Dispersion correction           -0.014765163
FINAL SINGLE POINT ENERGY     -1339.857962229555

DIPOLE MOMENT
-------------
                                X             Y             Z
Electronic contribution:     23.19748      17.83611     -14.18155
Nuclear contribution   :    -23.75424     -18.07283      14.55164
                        -----------------------------------------
Total Dipole Moment    :     -0.55677      -0.23672       0.37009
                        -----------------------------------------
Magnitude (a.u.)       :      0.70922
Magnitude (Debye)      :      1.80269

Rotational constants in cm-1:     0.015963     0.010808     0.006841
Rotational constants in MHz :   478.547900   324.014500   205.097480

                             ****ORCA TERMINATED NORMALLY****
TOTAL RUN TIME: 0 days 0 hours 0 minutes 22 seconds 250 msec
