                         Program Version 4.2.1 -  RELEASE  -
|  1> ! wB97X-D3 SP def2-SVP
|  2> %pal
|  3> nprocs 24
|  4> end
|  5>
|  6> * xyz 0 1
|  7> S 	 -51.476 	 16.0743 	 24.402
|  8> C 	 -52.8118 	 15.0469 	 24.8012
|  9> C 	 -52.454 	 13.7547 	 24.9243
| 10> C 	 -51.0193 	 13.5918 	 24.8858
| 11> C 	 -50.3511 	 14.8076 	 24.6513
| 12> H 	 -50.5473 	 12.6221 	 24.9365
| 13> C 	 -53.4436 	 12.6364 	 25.2746
| 14> H 	 -54.2682 	 12.9844 	 25.7839
| 15> H 	 -52.9204 	 12.0275 	 25.9956
| 16> C 	 -53.7729 	 11.6401 	 24.1366
| 17> H 	 -54.2268 	 12.1011 	 23.2807
| 18> H 	 -52.8447 	 11.2738 	 23.7617
| 19> C 	 -54.5649 	 10.3878 	 24.6838
| 20> H 	 -54.8921 	 9.7666 	 23.838
| 21> H 	 -54.0618 	 9.71191 	 25.4218
| 22> H 	 -55.3873 	 10.6493 	 25.3005
| 23> S 	 -48.2139 	 15.5827 	 23.0819
| 24> C 	 -46.5511 	 15.5409 	 23.8158
| 25> C 	 -46.6104 	 14.9632 	 25.0949
| 26> C 	 -47.9509 	 14.6468 	 25.4864
| 27> C 	 -48.9059 	 15.0246 	 24.5909
| 28> H 	 -45.7182 	 14.8713 	 25.6785
| 29> C 	 -48.28 	 14.1547 	 26.9019
| 30> H 	 -47.3711 	 13.7749 	 27.2902
| 31> H 	 -48.9945 	 13.3542 	 26.742
| 32> C 	 -48.9447 	 15.1703 	 27.9074
| 33> H 	 -49.499 	 14.6747 	 28.7372
| 34> H 	 -49.6492 	 15.7816 	 27.3649
| 35> C 	 -47.939 	 16.1336 	 28.5201
| 36> H 	 -47.3195 	 16.4879 	 27.7725
| 37> H 	 -47.3213 	 15.6111 	 29.2302
| 38> H 	 -48.4567 	 16.9222 	 29.0231
| 39> H 	 -53.826 	 15.4557 	 24.9368
| 40> H 	 -45.6471 	 15.7547 	 23.1902
| 41> *
| 42>
| 43>                          ****END OF INPUT****

CARTESIAN COORDINATES (ANGSTROEM)
---------------------------------
  S    -51.476000   16.074300   24.402000
  C    -52.811800   15.046900   24.801200
  C    -52.454000   13.754700   24.924300
  C    -51.019300   13.591800   24.885800
  C    -50.351100   14.807600   24.651300
  H    -50.547300   12.622100   24.936500
  C    -53.443600   12.636400   25.274600
  H    -54.268200   12.984400   25.783900
  H    -52.920400   12.027500   25.995600
  C    -53.772900   11.640100   24.136600
  H    -54.226800   12.101100   23.280700
  H    -52.844700   11.273800   23.761700
  C    -54.564900   10.387800   24.683800
  H    -54.892100    9.766600   23.838000
  H    -54.061800    9.711910   25.421800
  H    -55.387300   10.649300   25.300500
  S    -48.213900   15.582700   23.081900
  C    -46.551100   15.540900   23.815800
  C    -46.610400   14.963200   25.094900
  C    -47.950900   14.646800   25.486400
  C    -48.905900   15.024600   24.590900
  H    -45.718200   14.871300   25.678500
  C    -48.280000   14.154700   26.901900
  H    -47.371100   13.774900   27.290200
  H    -48.994500   13.354200   26.742000
  C    -48.944700   15.170300   27.907400
  H    -49.499000   14.674700   28.737200
  H    -49.649200   15.781600   27.364900
  C    -47.939000   16.133600   28.520100
  H    -47.319500   16.487900   27.772500
  H    -47.321300   15.611100   29.230200
  H    -48.456700   16.922200   29.023100
  H    -53.826000   15.455700   24.936800
  H    -45.647100   15.754700   23.190200

 Total Charge           Charge          ....    0
 Multiplicity           Mult            ....    1
 Number of Electrons    NEL             ....  134
 Basis Dimension        Dim             ....  322

ORBITAL ENERGIES
----------------

  NO   OCC          E(Eh)            E(eV)
   0   2.0000     -88.966128     -2420.8914
   1   2.0000     -88.964863     -2420.8570
   2   2.0000     -10.330953      -281.1195
   3   2.0000     -10.329091      -281.0688
   4   2.0000     -10.324295      -280.9383
   5   2.0000     -10.310622      -280.5663
   6   2.0000     -10.300844      -280.3002
   7   2.0000     -10.300172      -280.2819
   8   2.0000     -10.299639      -280.2674
   9   2.0000     -10.298582      -280.2387
  10   2.0000     -10.288584      -279.9666
  11   2.0000     -10.287558      -279.9387
  12   2.0000     -10.286662      -279.9143
  13   2.0000     -10.283143      -279.8185
  14   2.0000     -10.282145      -279.7914
  15   2.0000     -10.260554      -279.2039
  16   2.0000      -8.082004      -219.9225
  17   2.0000      -8.078778      -219.8347
  18   2.0000      -6.040410      -164.3679
  19   2.0000      -6.037387      -164.2857
  20   2.0000      -6.036305      -164.2562
  21   2.0000      -6.033417      -164.1776
  22   2.0000      -6.032841      -164.1619
  23   2.0000      -6.029465      -164.0701
  24   2.0000      -1.009560       -27.4715
  25   2.0000      -0.983001       -26.7488
  26   2.0000      -0.909954       -24.7611
  27   2.0000      -0.900718       -24.5098
  28   2.0000      -0.868617       -23.6363
  29   2.0000      -0.849400       -23.1134
  30   2.0000      -0.844832       -22.9891
  31   2.0000      -0.812699       -22.1147
  32   2.0000      -0.783668       -21.3247
  33   2.0000      -0.771729       -20.9998
  34   2.0000      -0.713657       -19.4196
  35   2.0000      -0.703160       -19.1340
  36   2.0000      -0.686713       -18.6864
  37   2.0000      -0.667034       -18.1509
  38   2.0000      -0.643264       -17.5041
  39   2.0000      -0.621008       -16.8985
  40   2.0000      -0.585881       -15.9426
  41   2.0000      -0.569265       -15.4905
  42   2.0000      -0.557979       -15.1834
  43   2.0000      -0.550548       -14.9812
  44   2.0000      -0.544968       -14.8293
  45   2.0000      -0.527853       -14.3636
  46   2.0000      -0.517900       -14.0928
  47   2.0000      -0.513733       -13.9794
  48   2.0000      -0.504363       -13.7244
  49   2.0000      -0.495292       -13.4776
  50   2.0000      -0.485497       -13.2110
  51   2.0000      -0.480349       -13.0709
  52   2.0000      -0.471649       -12.8342
  53   2.0000      -0.466278       -12.6881
  54   2.0000      -0.457141       -12.4394
  55   2.0000      -0.451175       -12.2771
  56   2.0000      -0.446044       -12.1375
  57   2.0000      -0.436707       -11.8834
  58   2.0000      -0.431776       -11.7492
  59   2.0000      -0.425978       -11.5915
  60   2.0000      -0.422791       -11.5047
  61   2.0000      -0.419375       -11.4118
  62   2.0000      -0.410765       -11.1775
  63   2.0000      -0.345043        -9.3891
  64   2.0000      -0.332594        -9.0503
  65   2.0000      -0.329843        -8.9755
  66   2.0000      -0.295773        -8.0484
  67   0.0000       0.031254         0.8505
  68   0.0000       0.064925         1.7667
  69   0.0000       0.106626         2.9014
  70   0.0000       0.122051         3.3212
  71   0.0000       0.130944         3.5632

MULLIKEN ATOMIC CHARGES
-----------------------
   0 S :    0.121630
   1 C :   -0.147407
   2 C :   -0.073053
   3 C :    0.041022
   4 C :   -0.179440
   5 H :    0.020101
   6 C :    0.092350
   7 H :    0.001991
   8 H :    0.010461
   9 C :   -0.038686
  10 H :    0.030381
  11 H :    0.016778
  12 C :   -0.066199
  13 H :    0.044087
  14 H :    0.030455
  15 H :    0.018695
  16 S :    0.091350
  17 C :   -0.125558
  18 C :   -0.020946
  19 C :   -0.064793
  20 C :   -0.134344
  21 H :    0.020174
  22 C :    0.112981
  23 H :    0.001312
  24 H :    0.016795
  25 C :   -0.068483
  26 H :    0.033535
  27 H :    0.027757
  28 C :   -0.010714
  29 H :    0.014281
  30 H :    0.015766
  31 H :    0.029102
  32 H :    0.056682
  33 H :    0.081937
Sum of atomic charges:   -0.0000000

LOEWDIN ATOMIC CHARGES
----------------------
   0 S :    0.429147
   1 C :   -0.202866
   2 C :   -0.064425
   3 C :   -0.059575
   4 C :   -0.205639
   5 H :    0.030199
   6 C :   -0.020914
   7 H :    0.016429
   8 H :    0.030430
   9 C :   -0.028584
  10 H :    0.022295
  11 H :    0.020707
  12 C :   -0.072334
  13 H :    0.030379
  14 H :    0.030191
  15 H :    0.017447
  16 S :    0.376471
  17 C :   -0.171714
  18 C :   -0.065979
  19 C :   -0.061074
  20 C :   -0.198696
  21 H :    0.030797
  22 C :   -0.023696
  23 H :    0.019191
  24 H :    0.029985
  25 C :   -0.032086
  26 H :    0.027016
  27 H :    0.021082
  28 C :   -0.054946
  29 H :    0.014582
  30 H :    0.019484
  31 H :    0.024638
  32 H :    0.033108
  33 H :    0.038951

  Mayer bond orders larger than 0.100000
B(  0-S ,  1-C ) :   1.1371 B(  0-S ,  4-C ) :   1.1720 B(  1-C ,  2-C ) :   1.6217
B(  1-C , 32-H ) :   0.9679 B(  2-C ,  3-C ) :   1.2479 B(  2-C ,  6-C ) :   1.0161
B(  3-C ,  4-C ) :   1.5560 B(  3-C ,  5-H ) :   0.9915 B(  4-C , 20-C ) :   1.0117
B(  6-C ,  7-H ) :   0.9491 B(  6-C ,  8-H ) :   0.9408 B(  6-C ,  9-C ) :   1.0541
B(  9-C , 10-H ) :   0.9603 B(  9-C , 11-H ) :   0.9558 B(  9-C , 12-C ) :   1.0682
B( 12-C , 13-H ) :   0.9764 B( 12-C , 14-H ) :   0.9752 B( 12-C , 15-H ) :   0.9769
B( 16-S , 17-C ) :   1.1416 B( 16-S , 20-C ) :   1.1413 B( 17-C , 18-C ) :   1.6051
B( 17-C , 20-C ) :   0.1027 B( 17-C , 33-H ) :   0.9628 B( 18-C , 19-C ) :   1.2278
B( 18-C , 21-H ) :   0.9938 B( 19-C , 20-C ) :   1.6211 B( 19-C , 22-C ) :   1.0457
B( 22-C , 23-H ) :   0.9354 B( 22-C , 24-H ) :   0.9224 B( 22-C , 25-C ) :   1.0600
B( 25-C , 26-H ) :   0.9586 B( 25-C , 27-H ) :   0.9591 B( 25-C , 28-C ) :   1.0795
B( 28-C , 29-H ) :   0.9775 B( 28-C , 30-H ) :   0.9753 B( 28-C , 31-H ) :   0.9732

Dispersion correction           -0.014541983
FINAL SINGLE POINT ENERGY     -1339.878584674358

DIPOLE MOMENT
-------------
                                X             Y             Z
Electronic contribution:      8.92599      15.83353     -16.44121
Nuclear contribution   :     -9.04470     -16.31128      16.82843
                        -----------------------------------------
Total Dipole Moment    :     -0.11871      -0.47775       0.38722
                        -----------------------------------------
Magnitude (a.u.)       :      0.62632
Magnitude (Debye)      :      1.59198

Rotational constants in cm-1:     0.020418     0.007627     0.006893
Rotational constants in MHz :   612.126936   228.657975   206.657567

                             ****ORCA TERMINATED NORMALLY****
TOTAL RUN TIME: 0 days 0 hours 0 minutes 21 seconds 649 msec
