                         Program Version 4.2.1 -  RELEASE  -
|  1> ! wB97X-D3 SP def2-SVP
|  2> %pal
|  3> nprocs 24
|  4> end
|  5>
|  6> * xyz 0 1
|  7> S 	 -105.399 	 35.1971 	 -25.7279
|  8> C 	 -104.349 	 33.8018 	 -25.9663
|  9> C 	 -104.048 	 33.2237 	 -24.7697
| 10> C 	 -104.894 	 33.655 	 -23.6778
| 11> C 	 -105.634 	 34.7699 	 -24.0417
| 12> H 	 -104.965 	 33.2925 	 -22.6654
| 13> C 	 -103.091 	 31.9784 	 -24.6464
| 14> H 	 -102.915 	 31.7439 	 -25.6997
| 15> H 	 -103.487 	 31.1211 	 -24.2198
| 16> C 	 -101.701 	 32.2111 	 -24.1265
| 17> H 	 -101.204 	 31.2226 	 -24.1548
| 18> H 	 -101.089 	 32.8222 	 -24.7507
| 19> C 	 -101.72 	 32.7598 	 -22.6306
| 20> H 	 -100.692 	 32.8805 	 -22.2421
| 21> H 	 -102.172 	 33.7074 	 -22.6644
| 22> H 	 -102.129 	 32.1131 	 -21.9112
| 23> S 	 -106.373 	 36.5827 	 -21.9938
| 24> C 	 -108.095 	 36.6219 	 -21.6448
| 25> C 	 -108.864 	 35.8009 	 -22.4404
| 26> C 	 -108.082 	 35.206 	 -23.5093
| 27> C 	 -106.704 	 35.355 	 -23.2624
| 28> H 	 -109.923 	 35.8143 	 -22.333
| 29> C 	 -108.778 	 34.3749 	 -24.6207
| 30> H 	 -108.881 	 34.9123 	 -25.5831
| 31> H 	 -109.829 	 34.316 	 -24.3586
| 32> C 	 -108.306 	 32.9092 	 -24.8719
| 33> H 	 -107.309 	 33 	 -25.372
| 34> H 	 -108.877 	 32.4189 	 -25.6186
| 35> C 	 -108.133 	 31.913 	 -23.7527
| 36> H 	 -108.968 	 32.0879 	 -23.0253
| 37> H 	 -107.247 	 32.1404 	 -23.19
| 38> H 	 -108.049 	 30.9411 	 -24.18
| 39> H 	 -103.735 	 33.5704 	 -26.8208
| 40> H 	 -108.404 	 37.1674 	 -20.8087
| 41> *
| 42>
| 43>                          ****END OF INPUT****

CARTESIAN COORDINATES (ANGSTROEM)
---------------------------------
  S    -105.399000   35.197100  -25.727900
  C    -104.349000   33.801800  -25.966300
  C    -104.048000   33.223700  -24.769700
  C    -104.894000   33.655000  -23.677800
  C    -105.634000   34.769900  -24.041700
  H    -104.965000   33.292500  -22.665400
  C    -103.091000   31.978400  -24.646400
  H    -102.915000   31.743900  -25.699700
  H    -103.487000   31.121100  -24.219800
  C    -101.701000   32.211100  -24.126500
  H    -101.204000   31.222600  -24.154800
  H    -101.089000   32.822200  -24.750700
  C    -101.720000   32.759800  -22.630600
  H    -100.692000   32.880500  -22.242100
  H    -102.172000   33.707400  -22.664400
  H    -102.129000   32.113100  -21.911200
  S    -106.373000   36.582700  -21.993800
  C    -108.095000   36.621900  -21.644800
  C    -108.864000   35.800900  -22.440400
  C    -108.082000   35.206000  -23.509300
  C    -106.704000   35.355000  -23.262400
  H    -109.923000   35.814300  -22.333000
  C    -108.778000   34.374900  -24.620700
  H    -108.881000   34.912300  -25.583100
  H    -109.829000   34.316000  -24.358600
  C    -108.306000   32.909200  -24.871900
  H    -107.309000   33.000000  -25.372000
  H    -108.877000   32.418900  -25.618600
  C    -108.133000   31.913000  -23.752700
  H    -108.968000   32.087900  -23.025300
  H    -107.247000   32.140400  -23.190000
  H    -108.049000   30.941100  -24.180000
  H    -103.735000   33.570400  -26.820800
  H    -108.404000   37.167400  -20.808700

 Total Charge           Charge          ....    0
 Multiplicity           Mult            ....    1
 Number of Electrons    NEL             ....  134
 Basis Dimension        Dim             ....  322

ORBITAL ENERGIES
----------------

  NO   OCC          E(Eh)            E(eV)
   0   2.0000     -88.967749     -2420.9355
   1   2.0000     -88.967392     -2420.9258
   2   2.0000     -10.328728      -281.0590
   3   2.0000     -10.327486      -281.0252
   4   2.0000     -10.315390      -280.6960
   5   2.0000     -10.314224      -280.6643
   6   2.0000     -10.312964      -280.6300
   7   2.0000     -10.304693      -280.4049
   8   2.0000     -10.296769      -280.1893
   9   2.0000     -10.296356      -280.1781
  10   2.0000     -10.295770      -280.1621
  11   2.0000     -10.287129      -279.9270
  12   2.0000     -10.286065      -279.8981
  13   2.0000     -10.275738      -279.6170
  14   2.0000     -10.269969      -279.4601
  15   2.0000     -10.267605      -279.3957
  16   2.0000      -8.081798      -219.9169
  17   2.0000      -8.081405      -219.9062
  18   2.0000      -6.040225      -164.3629
  19   2.0000      -6.039980      -164.3562
  20   2.0000      -6.036563      -164.2632
  21   2.0000      -6.036036      -164.2489
  22   2.0000      -6.032529      -164.1535
  23   2.0000      -6.032084      -164.1414
  24   2.0000      -1.002308       -27.2742
  25   2.0000      -0.978641       -26.6302
  26   2.0000      -0.908847       -24.7310
  27   2.0000      -0.898763       -24.4566
  28   2.0000      -0.868368       -23.6295
  29   2.0000      -0.848441       -23.0872
  30   2.0000      -0.839824       -22.8528
  31   2.0000      -0.814254       -22.1570
  32   2.0000      -0.788257       -21.4496
  33   2.0000      -0.775824       -21.1112
  34   2.0000      -0.707120       -19.2417
  35   2.0000      -0.698885       -19.0176
  36   2.0000      -0.683259       -18.5924
  37   2.0000      -0.662951       -18.0398
  38   2.0000      -0.642187       -17.4748
  39   2.0000      -0.609746       -16.5920
  40   2.0000      -0.590522       -16.0689
  41   2.0000      -0.577887       -15.7251
  42   2.0000      -0.553122       -15.0512
  43   2.0000      -0.548904       -14.9364
  44   2.0000      -0.540271       -14.7015
  45   2.0000      -0.537913       -14.6373
  46   2.0000      -0.511338       -13.9142
  47   2.0000      -0.509880       -13.8745
  48   2.0000      -0.500421       -13.6171
  49   2.0000      -0.492210       -13.3937
  50   2.0000      -0.488888       -13.3033
  51   2.0000      -0.476998       -12.9798
  52   2.0000      -0.474685       -12.9168
  53   2.0000      -0.464045       -12.6273
  54   2.0000      -0.460627       -12.5343
  55   2.0000      -0.447641       -12.1809
  56   2.0000      -0.441731       -12.0201
  57   2.0000      -0.440179       -11.9779
  58   2.0000      -0.437866       -11.9149
  59   2.0000      -0.421335       -11.4651
  60   2.0000      -0.418356       -11.3840
  61   2.0000      -0.407051       -11.0764
  62   2.0000      -0.392902       -10.6914
  63   2.0000      -0.336011        -9.1433
  64   2.0000      -0.334385        -9.0991
  65   2.0000      -0.325669        -8.8619
  66   2.0000      -0.305732        -8.3194
  67   0.0000       0.035033         0.9533
  68   0.0000       0.056483         1.5370
  69   0.0000       0.105774         2.8783
  70   0.0000       0.116489         3.1698
  71   0.0000       0.121607         3.3091

MULLIKEN ATOMIC CHARGES
-----------------------
   0 S :    0.119559
   1 C :   -0.120800
   2 C :   -0.088324
   3 C :    0.042078
   4 C :   -0.182641
   5 H :    0.025319
   6 C :    0.092581
   7 H :    0.004316
   8 H :    0.019374
   9 C :   -0.070043
  10 H :    0.028099
  11 H :    0.021497
  12 C :   -0.049316
  13 H :    0.027339
  14 H :    0.041029
  15 H :    0.020944
  16 S :    0.107291
  17 C :   -0.078016
  18 C :   -0.009962
  19 C :   -0.025717
  20 C :   -0.179254
  21 H :    0.017510
  22 C :    0.075465
  23 H :    0.045288
  24 H :    0.005846
  25 C :   -0.093779
  26 H :    0.031758
  27 H :    0.013084
  28 C :   -0.003652
  29 H :    0.025459
  30 H :    0.014756
  31 H :    0.033575
  32 H :    0.048107
  33 H :    0.041230
Sum of atomic charges:   -0.0000000

LOEWDIN ATOMIC CHARGES
----------------------
   0 S :    0.403659
   1 C :   -0.196341
   2 C :   -0.059552
   3 C :   -0.054006
   4 C :   -0.193696
   5 H :    0.033606
   6 C :   -0.024896
   7 H :    0.030889
   8 H :    0.020918
   9 C :   -0.033927
  10 H :    0.026987
  11 H :    0.018163
  12 C :   -0.063527
  13 H :    0.028663
  14 H :    0.020260
  15 H :    0.016906
  16 S :    0.384680
  17 C :   -0.165417
  18 C :   -0.066781
  19 C :   -0.041417
  20 C :   -0.198237
  21 H :    0.029593
  22 C :   -0.035845
  23 H :    0.041145
  24 H :    0.025804
  25 C :   -0.048953
  26 H :    0.025641
  27 H :    0.018390
  28 C :   -0.060338
  29 H :    0.028160
  30 H :    0.019128
  31 H :    0.026386
  32 H :    0.029614
  33 H :    0.014342

  Mayer bond orders larger than 0.100000
B(  0-S ,  1-C ) :   1.1272 B(  0-S ,  4-C ) :   1.1408 B(  1-C ,  2-C ) :   1.6577
B(  1-C , 32-H ) :   0.9557 B(  2-C ,  3-C ) :   1.1980 B(  2-C ,  6-C ) :   1.0056
B(  3-C ,  4-C ) :   1.6114 B(  3-C ,  5-H ) :   0.9880 B(  4-C , 20-C ) :   1.0307
B(  6-C ,  7-H ) :   0.9354 B(  6-C ,  8-H ) :   0.9522 B(  6-C ,  9-C ) :   1.0850
B(  9-C , 10-H ) :   0.9535 B(  9-C , 11-H ) :   0.9578 B(  9-C , 12-C ) :   1.0727
B( 12-C , 13-H ) :   0.9745 B( 12-C , 14-H ) :   0.9762 B( 12-C , 15-H ) :   0.9773
B( 16-S , 17-C ) :   1.1525 B( 16-S , 20-C ) :   1.1322 B( 17-C , 18-C ) :   1.6303
B( 17-C , 33-H ) :   0.9714 B( 18-C , 19-C ) :   1.2216 B( 18-C , 21-H ) :   0.9882
B( 19-C , 20-C ) :   1.6016 B( 19-C , 22-C ) :   1.0286 B( 22-C , 23-H ) :   0.9331
B( 22-C , 24-H ) :   0.9336 B( 22-C , 25-C ) :   1.0711 B( 25-C , 26-H ) :   0.9471
B( 25-C , 27-H ) :   0.9559 B( 25-C , 28-C ) :   1.0848 B( 28-C , 29-H ) :   0.9744
B( 28-C , 30-H ) :   0.9662 B( 28-C , 31-H ) :   0.9714

Dispersion correction           -0.016458553
FINAL SINGLE POINT ENERGY     -1339.863192492414

DIPOLE MOMENT
-------------
                                X             Y             Z
Electronic contribution:     -5.33270      21.23518       0.14202
Nuclear contribution   :      5.28211     -21.66821      -0.16278
                        -----------------------------------------
Total Dipole Moment    :     -0.05059      -0.43303      -0.02076
                        -----------------------------------------
Magnitude (a.u.)       :      0.43647
Magnitude (Debye)      :      1.10942

Rotational constants in cm-1:     0.020054     0.009253     0.008055
Rotational constants in MHz :   601.194306   277.392640   241.485679

                             ****ORCA TERMINATED NORMALLY****
TOTAL RUN TIME: 0 days 0 hours 0 minutes 21 seconds 703 msec
