                         Program Version 4.2.1 -  RELEASE  -
|  1> ! wB97X-D3 SP def2-SVP
|  2> %pal
|  3> nprocs 24
|  4> end
|  5>
|  6> * xyz 0 1
|  7> S 	 -104.133 	 -1.38558 	 -107.052
|  8> C 	 -104.302 	 -0.287702 	 -108.399
|  9> C 	 -104.955 	 0.839012 	 -108.023
| 10> C 	 -105.47 	 0.777938 	 -106.722
| 11> C 	 -105.039 	 -0.319773 	 -106.02
| 12> H 	 -106.118 	 1.52679 	 -106.246
| 13> C 	 -105.355 	 1.97207 	 -109.015
| 14> H 	 -104.52 	 1.91878 	 -109.707
| 15> H 	 -105.361 	 2.97163 	 -108.481
| 16> C 	 -106.708 	 1.66124 	 -109.706
| 17> H 	 -106.609 	 0.724304 	 -110.1
| 18> H 	 -107.557 	 1.52876 	 -109.02
| 19> C 	 -107.101 	 2.72243 	 -110.692
| 20> H 	 -107.869 	 2.35561 	 -111.374
| 21> H 	 -107.54 	 3.54056 	 -110.126
| 22> H 	 -106.28 	 3.08618 	 -111.31
| 23> S 	 -105.99 	 -2.33101 	 -104.429
| 24> C 	 -106.395 	 -2.0498 	 -102.82
| 25> C 	 -106.252 	 -0.717874 	 -102.476
| 26> C 	 -105.577 	 0.0360279 	 -103.526
| 27> C 	 -105.439 	 -0.705431 	 -104.677
| 28> H 	 -106.423 	 -0.35572 	 -101.445
| 29> C 	 -105.175 	 1.43615 	 -103.369
| 30> H 	 -106.153 	 1.83156 	 -103.214
| 31> H 	 -104.784 	 1.98773 	 -104.263
| 32> C 	 -104.235 	 1.64211 	 -102.188
| 33> H 	 -104.664 	 1.13503 	 -101.306
| 34> H 	 -104.052 	 2.67406 	 -101.865
| 35> C 	 -102.795 	 1.00079 	 -102.344
| 36> H 	 -102.839 	 0.074251 	 -102.841
| 37> H 	 -102.368 	 0.892386 	 -101.374
| 38> H 	 -102.187 	 1.62263 	 -102.933
| 39> H 	 -103.903 	 -0.508221 	 -109.448
| 40> H 	 -106.835 	 -2.85681 	 -102.227
| 41> *
| 42>
| 43>                          ****END OF INPUT****

CARTESIAN COORDINATES (ANGSTROEM)
---------------------------------
  S    -104.133000   -1.385580  -107.052000
  C    -104.302000   -0.287702  -108.399000
  C    -104.955000    0.839012  -108.023000
  C    -105.470000    0.777938  -106.722000
  C    -105.039000   -0.319773  -106.020000
  H    -106.118000    1.526790  -106.246000
  C    -105.355000    1.972070  -109.015000
  H    -104.520000    1.918780  -109.707000
  H    -105.361000    2.971630  -108.481000
  C    -106.708000    1.661240  -109.706000
  H    -106.609000    0.724304  -110.100000
  H    -107.557000    1.528760  -109.020000
  C    -107.101000    2.722430  -110.692000
  H    -107.869000    2.355610  -111.374000
  H    -107.540000    3.540560  -110.126000
  H    -106.280000    3.086180  -111.310000
  S    -105.990000   -2.331010  -104.429000
  C    -106.395000   -2.049800  -102.820000
  C    -106.252000   -0.717874  -102.476000
  C    -105.577000    0.036028  -103.526000
  C    -105.439000   -0.705431  -104.677000
  H    -106.423000   -0.355720  -101.445000
  C    -105.175000    1.436150  -103.369000
  H    -106.153000    1.831560  -103.214000
  H    -104.784000    1.987730  -104.263000
  C    -104.235000    1.642110  -102.188000
  H    -104.664000    1.135030  -101.306000
  H    -104.052000    2.674060  -101.865000
  C    -102.795000    1.000790  -102.344000
  H    -102.839000    0.074251  -102.841000
  H    -102.368000    0.892386  -101.374000
  H    -102.187000    1.622630  -102.933000
  H    -103.903000   -0.508221  -109.448000
  H    -106.835000   -2.856810  -102.227000

 Total Charge           Charge          ....    0
 Multiplicity           Mult            ....    1
 Number of Electrons    NEL             ....  134
 Basis Dimension        Dim             ....  322

ORBITAL ENERGIES
----------------

  NO   OCC          E(Eh)            E(eV)
   0   2.0000     -88.964257     -2420.8405
   1   2.0000     -88.960471     -2420.7375
   2   2.0000     -10.325376      -280.9678
   3   2.0000     -10.319261      -280.8014
   4   2.0000     -10.316486      -280.7259
   5   2.0000     -10.315465      -280.6981
   6   2.0000     -10.302409      -280.3428
   7   2.0000     -10.298788      -280.2443
   8   2.0000     -10.298114      -280.2259
   9   2.0000     -10.295124      -280.1446
  10   2.0000     -10.289477      -279.9909
  11   2.0000     -10.288464      -279.9633
  12   2.0000     -10.287353      -279.9331
  13   2.0000     -10.278214      -279.6844
  14   2.0000     -10.274696      -279.5887
  15   2.0000     -10.263004      -279.2705
  16   2.0000      -8.079433      -219.8526
  17   2.0000      -8.077260      -219.7934
  18   2.0000      -6.037936      -164.3006
  19   2.0000      -6.035575      -164.2363
  20   2.0000      -6.033852      -164.1895
  21   2.0000      -6.031404      -164.1228
  22   2.0000      -6.030209      -164.0903
  23   2.0000      -6.028171      -164.0349
  24   2.0000      -1.014744       -27.6126
  25   2.0000      -0.992414       -27.0049
  26   2.0000      -0.915024       -24.8991
  27   2.0000      -0.911236       -24.7960
  28   2.0000      -0.872039       -23.7294
  29   2.0000      -0.852186       -23.1892
  30   2.0000      -0.843433       -22.9510
  31   2.0000      -0.814091       -22.1525
  32   2.0000      -0.786167       -21.3927
  33   2.0000      -0.770890       -20.9770
  34   2.0000      -0.707246       -19.2452
  35   2.0000      -0.701313       -19.0837
  36   2.0000      -0.694461       -18.8972
  37   2.0000      -0.659034       -17.9332
  38   2.0000      -0.635953       -17.3052
  39   2.0000      -0.620667       -16.8892
  40   2.0000      -0.601784       -16.3754
  41   2.0000      -0.570934       -15.5359
  42   2.0000      -0.559710       -15.2305
  43   2.0000      -0.556252       -15.1364
  44   2.0000      -0.538123       -14.6431
  45   2.0000      -0.524507       -14.2726
  46   2.0000      -0.515456       -14.0263
  47   2.0000      -0.509113       -13.8537
  48   2.0000      -0.504932       -13.7399
  49   2.0000      -0.500251       -13.6125
  50   2.0000      -0.489017       -13.3068
  51   2.0000      -0.478158       -13.0113
  52   2.0000      -0.477550       -12.9948
  53   2.0000      -0.466124       -12.6839
  54   2.0000      -0.463723       -12.6185
  55   2.0000      -0.450757       -12.2657
  56   2.0000      -0.447439       -12.1754
  57   2.0000      -0.438749       -11.9390
  58   2.0000      -0.435917       -11.8619
  59   2.0000      -0.423126       -11.5138
  60   2.0000      -0.418337       -11.3835
  61   2.0000      -0.414636       -11.2828
  62   2.0000      -0.408467       -11.1150
  63   2.0000      -0.352059        -9.5800
  64   2.0000      -0.332629        -9.0513
  65   2.0000      -0.326312        -8.8794
  66   2.0000      -0.291045        -7.9197
  67   0.0000       0.033439         0.9099
  68   0.0000       0.081448         2.2163
  69   0.0000       0.114412         3.1133
  70   0.0000       0.121936         3.3180
  71   0.0000       0.142891         3.8883

MULLIKEN ATOMIC CHARGES
-----------------------
   0 S :    0.107249
   1 C :   -0.165814
   2 C :   -0.079585
   3 C :    0.012716
   4 C :   -0.143491
   5 H :    0.021334
   6 C :    0.041073
   7 H :    0.022785
   8 H :    0.035941
   9 C :   -0.031014
  10 H :   -0.003334
  11 H :    0.024938
  12 C :   -0.026347
  13 H :    0.031888
  14 H :    0.030137
  15 H :    0.029433
  16 S :    0.110335
  17 C :   -0.097286
  18 C :   -0.044539
  19 C :   -0.075444
  20 C :   -0.142187
  21 H :    0.036421
  22 C :    0.082315
  23 H :    0.030156
  24 H :    0.038558
  25 C :   -0.103352
  26 H :    0.019242
  27 H :    0.030561
  28 C :   -0.010515
  29 H :    0.029334
  30 H :    0.028306
  31 H :    0.016456
  32 H :    0.074623
  33 H :    0.069107
Sum of atomic charges:    0.0000000

LOEWDIN ATOMIC CHARGES
----------------------
   0 S :    0.406346
   1 C :   -0.212009
   2 C :   -0.071443
   3 C :   -0.067184
   4 C :   -0.192551
   5 H :    0.034910
   6 C :   -0.024031
   7 H :    0.027474
   8 H :    0.032844
   9 C :   -0.037465
  10 H :    0.010142
  11 H :    0.029118
  12 C :   -0.063917
  13 H :    0.027994
  14 H :    0.026404
  15 H :    0.023806
  16 S :    0.432814
  17 C :   -0.200812
  18 C :   -0.079333
  19 C :   -0.052348
  20 C :   -0.212243
  21 H :    0.035151
  22 C :   -0.041209
  23 H :    0.036096
  24 H :    0.036746
  25 C :   -0.037864
  26 H :    0.020619
  27 H :    0.023495
  28 C :   -0.050917
  29 H :    0.020999
  30 H :    0.024193
  31 H :    0.016644
  32 H :    0.044236
  33 H :    0.033294

  Mayer bond orders larger than 0.100000
B(  0-S ,  1-C ) :   1.1342 B(  0-S ,  4-C ) :   1.1581 B(  1-C ,  2-C ) :   1.6156
B(  1-C , 32-H ) :   0.9571 B(  2-C ,  3-C ) :   1.2516 B(  2-C ,  6-C ) :   1.0173
B(  3-C ,  4-C ) :   1.5669 B(  3-C ,  5-H ) :   0.9899 B(  4-C , 20-C ) :   1.0399
B(  6-C ,  7-H ) :   0.9387 B(  6-C ,  8-H ) :   0.9458 B(  6-C ,  9-C ) :   1.0619
B(  9-C , 10-H ) :   0.9513 B(  9-C , 11-H ) :   0.9548 B(  9-C , 12-C ) :   1.0851
B( 12-C , 13-H ) :   0.9721 B( 12-C , 14-H ) :   0.9751 B( 12-C , 15-H ) :   0.9743
B( 16-S , 17-C ) :   1.1855 B( 16-S , 20-C ) :   1.1397 B( 17-C , 18-C ) :   1.5867
B( 17-C , 33-H ) :   0.9672 B( 18-C , 19-C ) :   1.2342 B( 18-C , 21-H ) :   0.9823
B( 19-C , 20-C ) :   1.5984 B( 19-C , 22-C ) :   1.0311 B( 22-C , 23-H ) :   0.9223
B( 22-C , 24-H ) :   0.9416 B( 22-C , 25-C ) :   1.0688 B( 25-C , 26-H ) :   0.9611
B( 25-C , 27-H ) :   0.9586 B( 25-C , 28-C ) :   1.0679 B( 28-C , 29-H ) :   0.9777
B( 28-C , 30-H ) :   0.9761 B( 28-C , 31-H ) :   0.9763

Dispersion correction           -0.014218719
FINAL SINGLE POINT ENERGY     -1339.883447866082

DIPOLE MOMENT
-------------
                                X             Y             Z
Electronic contribution:      0.87664     -22.18420       3.78074
Nuclear contribution   :     -1.13507      22.67248      -3.75389
                        -----------------------------------------
Total Dipole Moment    :     -0.25842       0.48829       0.02685
                        -----------------------------------------
Magnitude (a.u.)       :      0.55311
Magnitude (Debye)      :      1.40589

Rotational constants in cm-1:     0.021105     0.007608     0.006853
Rotational constants in MHz :   632.708312   228.091540   205.446549

                             ****ORCA TERMINATED NORMALLY****
TOTAL RUN TIME: 0 days 0 hours 0 minutes 21 seconds 669 msec
