                         Program Version 4.2.1 -  RELEASE  -
|  1> ! wB97X-D3 SP def2-SVP
|  2> %pal
|  3> nprocs 24
|  4> end
|  5>
|  6> * xyz 0 1
|  7> S 	 -48.7084 	 18.3678 	 -90.6022
|  8> C 	 -48.4378 	 19.7206 	 -89.4983
|  9> C 	 -49.6112 	 20.0542 	 -88.7901
| 10> C 	 -50.6964 	 19.1725 	 -89.2071
| 11> C 	 -50.356 	 18.1506 	 -90.0785
| 12> H 	 -51.7317 	 19.2417 	 -88.9242
| 13> C 	 -49.7731 	 21.1655 	 -87.8288
| 14> H 	 -48.8651 	 21.3737 	 -87.2648
| 15> H 	 -50.3929 	 20.8054 	 -87.0501
| 16> C 	 -50.4658 	 22.4668 	 -88.3248
| 17> H 	 -51.4067 	 22.2374 	 -88.8518
| 18> H 	 -50.7519 	 23.018 	 -87.4772
| 19> C 	 -49.4692 	 23.2476 	 -89.1331
| 20> H 	 -48.4839 	 23.2155 	 -88.7037
| 21> H 	 -49.3608 	 22.8576 	 -90.1228
| 22> H 	 -49.7354 	 24.3117 	 -89.2674
| 23> S 	 -52.4104 	 16.3776 	 -90.0312
| 24> C 	 -53.127 	 15.703 	 -91.4729
| 25> C 	 -52.2843 	 15.9835 	 -92.5172
| 26> C 	 -51.2441 	 16.8921 	 -92.2296
| 27> C 	 -51.1781 	 17.1996 	 -90.8708
| 28> H 	 -52.4357 	 15.3685 	 -93.3935
| 29> C 	 -50.397 	 17.4592 	 -93.4179
| 30> H 	 -50.1238 	 18.5094 	 -93.2921
| 31> H 	 -50.948 	 17.4179 	 -94.3766
| 32> C 	 -49.0394 	 16.7099 	 -93.5517
| 33> H 	 -49.2331 	 15.6254 	 -93.7757
| 34> H 	 -48.4672 	 16.6821 	 -92.5817
| 35> C 	 -48.1513 	 17.1754 	 -94.6825
| 36> H 	 -47.4047 	 16.3163 	 -94.7357
| 37> H 	 -47.6196 	 18.1467 	 -94.6198
| 38> H 	 -48.8135 	 17.2922 	 -95.5209
| 39> H 	 -47.4537 	 20.2115 	 -89.4185
| 40> H 	 -53.8691 	 15.0067 	 -91.5291
| 41> *
| 42>
| 43>                          ****END OF INPUT****

CARTESIAN COORDINATES (ANGSTROEM)
---------------------------------
  S    -48.708400   18.367800  -90.602200
  C    -48.437800   19.720600  -89.498300
  C    -49.611200   20.054200  -88.790100
  C    -50.696400   19.172500  -89.207100
  C    -50.356000   18.150600  -90.078500
  H    -51.731700   19.241700  -88.924200
  C    -49.773100   21.165500  -87.828800
  H    -48.865100   21.373700  -87.264800
  H    -50.392900   20.805400  -87.050100
  C    -50.465800   22.466800  -88.324800
  H    -51.406700   22.237400  -88.851800
  H    -50.751900   23.018000  -87.477200
  C    -49.469200   23.247600  -89.133100
  H    -48.483900   23.215500  -88.703700
  H    -49.360800   22.857600  -90.122800
  H    -49.735400   24.311700  -89.267400
  S    -52.410400   16.377600  -90.031200
  C    -53.127000   15.703000  -91.472900
  C    -52.284300   15.983500  -92.517200
  C    -51.244100   16.892100  -92.229600
  C    -51.178100   17.199600  -90.870800
  H    -52.435700   15.368500  -93.393500
  C    -50.397000   17.459200  -93.417900
  H    -50.123800   18.509400  -93.292100
  H    -50.948000   17.417900  -94.376600
  C    -49.039400   16.709900  -93.551700
  H    -49.233100   15.625400  -93.775700
  H    -48.467200   16.682100  -92.581700
  C    -48.151300   17.175400  -94.682500
  H    -47.404700   16.316300  -94.735700
  H    -47.619600   18.146700  -94.619800
  H    -48.813500   17.292200  -95.520900
  H    -47.453700   20.211500  -89.418500
  H    -53.869100   15.006700  -91.529100

 Total Charge           Charge          ....    0
 Multiplicity           Mult            ....    1
 Number of Electrons    NEL             ....  134
 Basis Dimension        Dim             ....  322

ORBITAL ENERGIES
----------------

  NO   OCC          E(Eh)            E(eV)
   0   2.0000     -88.965362     -2420.8706
   1   2.0000     -88.964796     -2420.8552
   2   2.0000     -10.333844      -281.1982
   3   2.0000     -10.331077      -281.1229
   4   2.0000     -10.321849      -280.8718
   5   2.0000     -10.309611      -280.5388
   6   2.0000     -10.308700      -280.5140
   7   2.0000     -10.306062      -280.4422
   8   2.0000     -10.298920      -280.2479
   9   2.0000     -10.295662      -280.1592
  10   2.0000     -10.290255      -280.0121
  11   2.0000     -10.287669      -279.9417
  12   2.0000     -10.285844      -279.8920
  13   2.0000     -10.284942      -279.8675
  14   2.0000     -10.278452      -279.6909
  15   2.0000     -10.270269      -279.4682
  16   2.0000      -8.080357      -219.8777
  17   2.0000      -8.079502      -219.8544
  18   2.0000      -6.038805      -164.3242
  19   2.0000      -6.037999      -164.3023
  20   2.0000      -6.034570      -164.2090
  21   2.0000      -6.034004      -164.1936
  22   2.0000      -6.031306      -164.1202
  23   2.0000      -6.030387      -164.0952
  24   2.0000      -1.010856       -27.5068
  25   2.0000      -0.984999       -26.8032
  26   2.0000      -0.917584       -24.9687
  27   2.0000      -0.902203       -24.5502
  28   2.0000      -0.870968       -23.7003
  29   2.0000      -0.851485       -23.1701
  30   2.0000      -0.843865       -22.9627
  31   2.0000      -0.817101       -22.2344
  32   2.0000      -0.783656       -21.3244
  33   2.0000      -0.771523       -20.9942
  34   2.0000      -0.712722       -19.3942
  35   2.0000      -0.694434       -18.8965
  36   2.0000      -0.683797       -18.6071
  37   2.0000      -0.668584       -18.1931
  38   2.0000      -0.640461       -17.4278
  39   2.0000      -0.621059       -16.8999
  40   2.0000      -0.598337       -16.2816
  41   2.0000      -0.576112       -15.6768
  42   2.0000      -0.559675       -15.2295
  43   2.0000      -0.551789       -15.0150
  44   2.0000      -0.541947       -14.7471
  45   2.0000      -0.529569       -14.4103
  46   2.0000      -0.520180       -14.1548
  47   2.0000      -0.511095       -13.9076
  48   2.0000      -0.505431       -13.7535
  49   2.0000      -0.499105       -13.5813
  50   2.0000      -0.488866       -13.3027
  51   2.0000      -0.478430       -13.0187
  52   2.0000      -0.473866       -12.8946
  53   2.0000      -0.469176       -12.7669
  54   2.0000      -0.461280       -12.5521
  55   2.0000      -0.445695       -12.1280
  56   2.0000      -0.438328       -11.9275
  57   2.0000      -0.432084       -11.7576
  58   2.0000      -0.431579       -11.7439
  59   2.0000      -0.427466       -11.6319
  60   2.0000      -0.420384       -11.4392
  61   2.0000      -0.414805       -11.2874
  62   2.0000      -0.400005       -10.8847
  63   2.0000      -0.352656        -9.5962
  64   2.0000      -0.330878        -9.0036
  65   2.0000      -0.326040        -8.8720
  66   2.0000      -0.293278        -7.9805
  67   0.0000       0.028230         0.7682
  68   0.0000       0.073997         2.0136
  69   0.0000       0.110572         3.0088
  70   0.0000       0.122994         3.3468
  71   0.0000       0.131866         3.5883

MULLIKEN ATOMIC CHARGES
-----------------------
   0 S :    0.076502
   1 C :   -0.118838
   2 C :   -0.076517
   3 C :    0.025596
   4 C :   -0.119085
   5 H :    0.008754
   6 C :    0.047394
   7 H :    0.024134
   8 H :    0.011206
   9 C :   -0.030584
  10 H :    0.033101
  11 H :    0.016890
  12 C :   -0.037413
  13 H :    0.015631
  14 H :    0.030593
  15 H :    0.031985
  16 S :    0.102651
  17 C :   -0.053609
  18 C :   -0.054870
  19 C :   -0.019113
  20 C :   -0.148336
  21 H :    0.024247
  22 C :    0.060352
  23 H :    0.031284
  24 H :    0.028426
  25 C :   -0.132258
  26 H :    0.025376
  27 H :    0.046443
  28 C :   -0.038964
  29 H :    0.048599
  30 H :    0.039422
  31 H :    0.018424
  32 H :    0.062299
  33 H :    0.020279
Sum of atomic charges:   -0.0000000

LOEWDIN ATOMIC CHARGES
----------------------
   0 S :    0.423814
   1 C :   -0.193966
   2 C :   -0.058621
   3 C :   -0.060470
   4 C :   -0.193306
   5 H :    0.027122
   6 C :   -0.035804
   7 H :    0.032762
   8 H :    0.028636
   9 C :   -0.029035
  10 H :    0.028949
  11 H :    0.018409
  12 C :   -0.066165
  13 H :    0.020685
  14 H :    0.024299
  15 H :    0.027364
  16 S :    0.433304
  17 C :   -0.177123
  18 C :   -0.068086
  19 C :   -0.062466
  20 C :   -0.212480
  21 H :    0.033143
  22 C :   -0.035593
  23 H :    0.026454
  24 H :    0.031429
  25 C :   -0.057457
  26 H :    0.024721
  27 H :    0.013421
  28 C :   -0.072131
  29 H :    0.039576
  30 H :    0.025260
  31 H :    0.019468
  32 H :    0.032738
  33 H :    0.011150

  Mayer bond orders larger than 0.100000
B(  0-S ,  1-C ) :   1.1454 B(  0-S ,  4-C ) :   1.1480 B(  1-C ,  2-C ) :   1.5900
B(  1-C , 32-H ) :   0.9687 B(  2-C ,  3-C ) :   1.2318 B(  2-C ,  6-C ) :   1.0410
B(  3-C ,  4-C ) :   1.5974 B(  3-C ,  5-H ) :   0.9866 B(  4-C , 20-C ) :   0.9951
B(  6-C ,  7-H ) :   0.9418 B(  6-C ,  8-H ) :   0.9258 B(  6-C ,  9-C ) :   1.0802
B(  9-C , 10-H ) :   0.9546 B(  9-C , 11-H ) :   0.9524 B(  9-C , 12-C ) :   1.0765
B( 12-C , 13-H ) :   0.9735 B( 12-C , 14-H ) :   0.9749 B( 12-C , 15-H ) :   0.9731
B( 16-S , 17-C ) :   1.1557 B( 16-S , 20-C ) :   1.1731 B( 17-C , 18-C ) :   1.6045
B( 17-C , 33-H ) :   0.9780 B( 18-C , 19-C ) :   1.2688 B( 18-C , 21-H ) :   0.9852
B( 19-C , 20-C ) :   1.5616 B( 19-C , 22-C ) :   1.0314 B( 22-C , 23-H ) :   0.9380
B( 22-C , 24-H ) :   0.9385 B( 22-C , 25-C ) :   1.0589 B( 25-C , 26-H ) :   0.9547
B( 25-C , 27-H ) :   0.9480 B( 25-C , 28-C ) :   1.0729 B( 28-C , 29-H ) :   0.9753
B( 28-C , 30-H ) :   0.9741 B( 28-C , 31-H ) :   0.9713

Dispersion correction           -0.014326130
FINAL SINGLE POINT ENERGY     -1339.874063409420

DIPOLE MOMENT
-------------
                                X             Y             Z
Electronic contribution:     -8.42992     -15.64834       7.36005
Nuclear contribution   :      8.38499      15.96863      -7.44776
                        -----------------------------------------
Total Dipole Moment    :     -0.04494       0.32029      -0.08771
                        -----------------------------------------
Magnitude (a.u.)       :      0.33511
Magnitude (Debye)      :      0.85178

Rotational constants in cm-1:     0.019396     0.008564     0.006647
Rotational constants in MHz :   581.471833   256.729609   199.275337

                             ****ORCA TERMINATED NORMALLY****
TOTAL RUN TIME: 0 days 0 hours 0 minutes 21 seconds 247 msec
