                         Program Version 4.2.1 -  RELEASE  -
|  1> ! wB97X-D3 SP def2-SVP
|  2> %pal
|  3> nprocs 24
|  4> end
|  5>
|  6> * xyz 0 1
|  7> S 	 23.7096 	 -23.7444 	 -122.033
|  8> C 	 23.2533 	 -25.1097 	 -123.105
|  9> C 	 22.9021 	 -26.242 	 -122.317
| 10> C 	 23.2105 	 -26.0056 	 -120.886
| 11> C 	 23.7609 	 -24.783 	 -120.619
| 12> H 	 23.1728 	 -26.8064 	 -120.13
| 13> C 	 22.7124 	 -27.6389 	 -122.872
| 14> H 	 23.6595 	 -28.1189 	 -122.779
| 15> H 	 22.374 	 -27.7145 	 -123.933
| 16> C 	 21.6914 	 -28.5203 	 -122.026
| 17> H 	 22.0109 	 -28.5498 	 -121.036
| 18> H 	 20.7141 	 -28.052 	 -122.056
| 19> C 	 21.5787 	 -29.9975 	 -122.51
| 20> H 	 21.3726 	 -30.1063 	 -123.537
| 21> H 	 22.578 	 -30.4554 	 -122.377
| 22> H 	 20.8934 	 -30.5769 	 -121.914
| 23> S 	 25.6276 	 -23.1528 	 -119.496
| 24> C 	 25.4964 	 -22.918 	 -117.732
| 25> C 	 24.531 	 -23.6853 	 -117.16
| 26> C 	 23.9141 	 -24.5551 	 -118.022
| 27> C 	 24.2781 	 -24.268 	 -119.378
| 28> H 	 24.3479 	 -23.627 	 -116.078
| 29> C 	 22.7844 	 -25.4856 	 -117.486
| 30> H 	 22.9065 	 -25.6936 	 -116.417
| 31> H 	 22.8157 	 -26.444 	 -118.023
| 32> C 	 21.4447 	 -24.9158 	 -117.695
| 33> H 	 21.2013 	 -24.8707 	 -118.796
| 34> H 	 21.4842 	 -23.8736 	 -117.321
| 35> C 	 20.2702 	 -25.5903 	 -116.948
| 36> H 	 19.3117 	 -25.143 	 -117.326
| 37> H 	 20.3366 	 -25.4988 	 -115.831
| 38> H 	 20.2633 	 -26.617 	 -117.111
| 39> H 	 23.0786 	 -25.095 	 -124.16
| 40> H 	 26.105 	 -22.1855 	 -117.191
| 41> *
| 42>
| 43>                          ****END OF INPUT****

CARTESIAN COORDINATES (ANGSTROEM)
---------------------------------
  S     23.709600  -23.744400  -122.033000
  C     23.253300  -25.109700  -123.105000
  C     22.902100  -26.242000  -122.317000
  C     23.210500  -26.005600  -120.886000
  C     23.760900  -24.783000  -120.619000
  H     23.172800  -26.806400  -120.130000
  C     22.712400  -27.638900  -122.872000
  H     23.659500  -28.118900  -122.779000
  H     22.374000  -27.714500  -123.933000
  C     21.691400  -28.520300  -122.026000
  H     22.010900  -28.549800  -121.036000
  H     20.714100  -28.052000  -122.056000
  C     21.578700  -29.997500  -122.510000
  H     21.372600  -30.106300  -123.537000
  H     22.578000  -30.455400  -122.377000
  H     20.893400  -30.576900  -121.914000
  S     25.627600  -23.152800  -119.496000
  C     25.496400  -22.918000  -117.732000
  C     24.531000  -23.685300  -117.160000
  C     23.914100  -24.555100  -118.022000
  C     24.278100  -24.268000  -119.378000
  H     24.347900  -23.627000  -116.078000
  C     22.784400  -25.485600  -117.486000
  H     22.906500  -25.693600  -116.417000
  H     22.815700  -26.444000  -118.023000
  C     21.444700  -24.915800  -117.695000
  H     21.201300  -24.870700  -118.796000
  H     21.484200  -23.873600  -117.321000
  C     20.270200  -25.590300  -116.948000
  H     19.311700  -25.143000  -117.326000
  H     20.336600  -25.498800  -115.831000
  H     20.263300  -26.617000  -117.111000
  H     23.078600  -25.095000  -124.160000
  H     26.105000  -22.185500  -117.191000

 Total Charge           Charge          ....    0
 Multiplicity           Mult            ....    1
 Number of Electrons    NEL             ....  134
 Basis Dimension        Dim             ....  322

ORBITAL ENERGIES
----------------

  NO   OCC          E(Eh)            E(eV)
   0   2.0000     -88.972639     -2421.0686
   1   2.0000     -88.965735     -2420.8807
   2   2.0000     -10.332404      -281.1590
   3   2.0000     -10.330320      -281.1023
   4   2.0000     -10.318446      -280.7792
   5   2.0000     -10.318184      -280.7720
   6   2.0000     -10.311811      -280.5987
   7   2.0000     -10.307164      -280.4722
   8   2.0000     -10.298445      -280.2349
   9   2.0000     -10.297833      -280.2183
  10   2.0000     -10.295079      -280.1434
  11   2.0000     -10.291445      -280.0444
  12   2.0000     -10.285947      -279.8948
  13   2.0000     -10.284201      -279.8473
  14   2.0000     -10.279756      -279.7264
  15   2.0000     -10.277721      -279.6710
  16   2.0000      -8.086515      -220.0453
  17   2.0000      -8.079639      -219.8581
  18   2.0000      -6.044863      -164.4891
  19   2.0000      -6.041236      -164.3904
  20   2.0000      -6.038400      -164.3132
  21   2.0000      -6.037391      -164.2858
  22   2.0000      -6.034319      -164.2022
  23   2.0000      -6.030111      -164.0877
  24   2.0000      -1.006276       -27.3822
  25   2.0000      -0.977588       -26.6015
  26   2.0000      -0.914548       -24.8861
  27   2.0000      -0.906302       -24.6617
  28   2.0000      -0.870851       -23.6971
  29   2.0000      -0.851331       -23.1659
  30   2.0000      -0.841209       -22.8905
  31   2.0000      -0.812802       -22.1175
  32   2.0000      -0.783932       -21.3319
  33   2.0000      -0.770323       -20.9616
  34   2.0000      -0.712199       -19.3799
  35   2.0000      -0.699276       -19.0283
  36   2.0000      -0.686068       -18.6689
  37   2.0000      -0.662161       -18.0183
  38   2.0000      -0.638454       -17.3732
  39   2.0000      -0.619149       -16.8479
  40   2.0000      -0.600148       -16.3309
  41   2.0000      -0.570247       -15.5172
  42   2.0000      -0.566412       -15.4129
  43   2.0000      -0.558847       -15.2070
  44   2.0000      -0.526407       -14.3243
  45   2.0000      -0.523888       -14.2557
  46   2.0000      -0.513948       -13.9852
  47   2.0000      -0.505215       -13.7476
  48   2.0000      -0.504115       -13.7177
  49   2.0000      -0.499189       -13.5836
  50   2.0000      -0.491946       -13.3865
  51   2.0000      -0.486471       -13.2376
  52   2.0000      -0.471237       -12.8230
  53   2.0000      -0.467123       -12.7111
  54   2.0000      -0.458513       -12.4768
  55   2.0000      -0.451887       -12.2965
  56   2.0000      -0.448239       -12.1972
  57   2.0000      -0.439592       -11.9619
  58   2.0000      -0.430027       -11.7016
  59   2.0000      -0.427959       -11.6453
  60   2.0000      -0.423046       -11.5117
  61   2.0000      -0.414908       -11.2902
  62   2.0000      -0.410832       -11.1793
  63   2.0000      -0.356278        -9.6948
  64   2.0000      -0.339631        -9.2418
  65   2.0000      -0.325317        -8.8523
  66   2.0000      -0.280867        -7.6428
  67   0.0000       0.016106         0.4383
  68   0.0000       0.072972         1.9857
  69   0.0000       0.100359         2.7309
  70   0.0000       0.114581         3.1179
  71   0.0000       0.127228         3.4620

MULLIKEN ATOMIC CHARGES
-----------------------
   0 S :    0.096491
   1 C :   -0.109107
   2 C :   -0.064087
   3 C :   -0.019765
   4 C :   -0.110313
   5 H :    0.020819
   6 C :    0.020355
   7 H :    0.041305
   8 H :    0.034843
   9 C :   -0.090916
  10 H :    0.016661
  11 H :    0.035077
  12 C :   -0.029701
  13 H :    0.022575
  14 H :    0.021821
  15 H :    0.035455
  16 S :    0.117334
  17 C :   -0.094922
  18 C :   -0.036348
  19 C :   -0.017817
  20 C :   -0.158802
  21 H :    0.026234
  22 C :    0.075910
  23 H :    0.018284
  24 H :    0.018552
  25 C :   -0.106272
  26 H :    0.048652
  27 H :    0.026434
  28 C :   -0.031878
  29 H :    0.046613
  30 H :    0.032390
  31 H :    0.011043
  32 H :    0.045283
  33 H :    0.057796
Sum of atomic charges:   -0.0000000

LOEWDIN ATOMIC CHARGES
----------------------
   0 S :    0.378639
   1 C :   -0.189573
   2 C :   -0.052377
   3 C :   -0.075306
   4 C :   -0.185395
   5 H :    0.029570
   6 C :   -0.030362
   7 H :    0.031418
   8 H :    0.033647
   9 C :   -0.032272
  10 H :    0.010751
  11 H :    0.022966
  12 C :   -0.060790
  13 H :    0.016663
  14 H :    0.027273
  15 H :    0.025925
  16 S :    0.403037
  17 C :   -0.176284
  18 C :   -0.073435
  19 C :   -0.047593
  20 C :   -0.194704
  21 H :    0.039405
  22 C :   -0.030630
  23 H :    0.030354
  24 H :    0.026336
  25 C :   -0.050695
  26 H :    0.033022
  27 H :    0.025453
  28 C :   -0.065289
  29 H :    0.036200
  30 H :    0.027736
  31 H :    0.010825
  32 H :    0.025527
  33 H :    0.029960

  Mayer bond orders larger than 0.100000
B(  0-S ,  1-C ) :   1.1067 B(  0-S ,  4-C ) :   1.1314 B(  1-C ,  2-C ) :   1.6286
B(  1-C , 32-H ) :   0.9714 B(  2-C ,  3-C ) :   1.1956 B(  2-C ,  6-C ) :   1.0389
B(  3-C ,  4-C ) :   1.6130 B(  3-C ,  5-H ) :   0.9816 B(  4-C , 20-C ) :   1.0859
B(  6-C ,  7-H ) :   0.9445 B(  6-C ,  8-H ) :   0.9495 B(  6-C ,  9-C ) :   1.0486
B(  9-C , 10-H ) :   0.9556 B(  9-C , 11-H ) :   0.9625 B(  9-C , 12-C ) :   1.0860
B( 12-C , 13-H ) :   0.9774 B( 12-C , 14-H ) :   0.9736 B( 12-C , 15-H ) :   0.9749
B( 16-S , 17-C ) :   1.1413 B( 16-S , 20-C ) :   1.1606 B( 17-C , 18-C ) :   1.5973
B( 17-C , 20-C ) :   0.1154 B( 17-C , 33-H ) :   0.9651 B( 18-C , 19-C ) :   1.2862
B( 18-C , 21-H ) :   0.9830 B( 19-C , 20-C ) :   1.5220 B( 19-C , 22-C ) :   1.0442
B( 22-C , 23-H ) :   0.9342 B( 22-C , 24-H ) :   0.9243 B( 22-C , 25-C ) :   1.0788
B( 25-C , 26-H ) :   0.9500 B( 25-C , 27-H ) :   0.9521 B( 25-C , 28-C ) :   1.0809
B( 28-C , 29-H ) :   0.9738 B( 28-C , 30-H ) :   0.9735 B( 28-C , 31-H ) :   0.9736

Dispersion correction           -0.013997747
FINAL SINGLE POINT ENERGY     -1339.872420650808

DIPOLE MOMENT
-------------
                                X             Y             Z
Electronic contribution:     20.27001      24.01838      -5.47551
Nuclear contribution   :    -20.53018     -24.54856       5.80228
                        -----------------------------------------
Total Dipole Moment    :     -0.26017      -0.53018       0.32677
                        -----------------------------------------
Magnitude (a.u.)       :      0.67495
Magnitude (Debye)      :      1.71559

Rotational constants in cm-1:     0.016928     0.009124     0.006646
Rotational constants in MHz :   507.499339   273.540736   199.249600

                             ****ORCA TERMINATED NORMALLY****
TOTAL RUN TIME: 0 days 0 hours 0 minutes 22 seconds 813 msec
