                         Program Version 4.2.1 -  RELEASE  -
|  1> ! wB97X-D3 SP def2-SVP
|  2> %pal
|  3> nprocs 24
|  4> end
|  5>
|  6> * xyz 0 1
|  7> S 	 -50.193 	 14.5819 	 22.9704
|  8> C 	 -51.5475 	 13.4442 	 22.7351
|  9> C 	 -52.5213 	 13.7035 	 23.6143
| 10> C 	 -52.0986 	 14.6841 	 24.5959
| 11> C 	 -50.9162 	 15.3329 	 24.4079
| 12> H 	 -52.6969 	 14.9005 	 25.4611
| 13> C 	 -53.8122 	 13.0216 	 23.8896
| 14> H 	 -54.3075 	 12.7171 	 22.9212
| 15> H 	 -54.5314 	 13.7131 	 24.3318
| 16> C 	 -53.6946 	 11.6746 	 24.6353
| 17> H 	 -52.7815 	 11.2295 	 24.2026
| 18> H 	 -53.4577 	 11.9508 	 25.6182
| 19> C 	 -54.8687 	 10.7095 	 24.5059
| 20> H 	 -55.7845 	 11.265 	 24.6133
| 21> H 	 -54.836 	 10.2576 	 23.52
| 22> H 	 -54.7685 	 9.95825 	 25.31
| 23> S 	 -49.2967 	 17.7058 	 24.5138
| 24> C 	 -48.7933 	 18.2135 	 26.086
| 25> C 	 -49.5577 	 17.6712 	 27.0632
| 26> C 	 -50.3524 	 16.5118 	 26.6677
| 27> C 	 -50.2748 	 16.3638 	 25.2894
| 28> H 	 -49.5194 	 18.0033 	 28.0693
| 29> C 	 -51.2445 	 15.7678 	 27.7031
| 30> H 	 -51.2628 	 14.6772 	 27.4976
| 31> H 	 -52.2258 	 16.0773 	 27.4925
| 32> C 	 -50.9008 	 15.9064 	 29.1423
| 33> H 	 -51.6438 	 15.3502 	 29.7095
| 34> H 	 -51.0214 	 16.9905 	 29.4505
| 35> C 	 -49.5371 	 15.4145 	 29.5805
| 36> H 	 -49.3976 	 14.2926 	 29.5516
| 37> H 	 -49.4173 	 15.719 	 30.6054
| 38> H 	 -48.8053 	 15.8686 	 28.9169
| 39> H 	 -51.665 	 12.6153 	 22.0072
| 40> H 	 -48.0804 	 19.0227 	 26.2863
| 41> *
| 42>
| 43>                          ****END OF INPUT****

CARTESIAN COORDINATES (ANGSTROEM)
---------------------------------
  S    -50.193000   14.581900   22.970400
  C    -51.547500   13.444200   22.735100
  C    -52.521300   13.703500   23.614300
  C    -52.098600   14.684100   24.595900
  C    -50.916200   15.332900   24.407900
  H    -52.696900   14.900500   25.461100
  C    -53.812200   13.021600   23.889600
  H    -54.307500   12.717100   22.921200
  H    -54.531400   13.713100   24.331800
  C    -53.694600   11.674600   24.635300
  H    -52.781500   11.229500   24.202600
  H    -53.457700   11.950800   25.618200
  C    -54.868700   10.709500   24.505900
  H    -55.784500   11.265000   24.613300
  H    -54.836000   10.257600   23.520000
  H    -54.768500    9.958250   25.310000
  S    -49.296700   17.705800   24.513800
  C    -48.793300   18.213500   26.086000
  C    -49.557700   17.671200   27.063200
  C    -50.352400   16.511800   26.667700
  C    -50.274800   16.363800   25.289400
  H    -49.519400   18.003300   28.069300
  C    -51.244500   15.767800   27.703100
  H    -51.262800   14.677200   27.497600
  H    -52.225800   16.077300   27.492500
  C    -50.900800   15.906400   29.142300
  H    -51.643800   15.350200   29.709500
  H    -51.021400   16.990500   29.450500
  C    -49.537100   15.414500   29.580500
  H    -49.397600   14.292600   29.551600
  H    -49.417300   15.719000   30.605400
  H    -48.805300   15.868600   28.916900
  H    -51.665000   12.615300   22.007200
  H    -48.080400   19.022700   26.286300

 Total Charge           Charge          ....    0
 Multiplicity           Mult            ....    1
 Number of Electrons    NEL             ....  134
 Basis Dimension        Dim             ....  322

ORBITAL ENERGIES
----------------

  NO   OCC          E(Eh)            E(eV)
   0   2.0000     -88.966421     -2420.8994
   1   2.0000     -88.962496     -2420.7926
   2   2.0000     -10.339285      -281.3463
   3   2.0000     -10.333064      -281.1770
   4   2.0000     -10.317482      -280.7530
   5   2.0000     -10.317093      -280.7424
   6   2.0000     -10.312717      -280.6233
   7   2.0000     -10.296625      -280.1854
   8   2.0000     -10.295322      -280.1500
   9   2.0000     -10.293042      -280.0879
  10   2.0000     -10.291682      -280.0509
  11   2.0000     -10.290689      -280.0239
  12   2.0000     -10.288616      -279.9675
  13   2.0000     -10.282664      -279.8055
  14   2.0000     -10.282104      -279.7903
  15   2.0000     -10.279505      -279.7195
  16   2.0000      -8.080549      -219.8829
  17   2.0000      -8.076349      -219.7686
  18   2.0000      -6.039206      -164.3351
  19   2.0000      -6.035403      -164.2317
  20   2.0000      -6.035250      -164.2275
  21   2.0000      -6.030957      -164.1107
  22   2.0000      -6.030929      -164.1099
  23   2.0000      -6.026708      -163.9951
  24   2.0000      -1.000818       -27.2336
  25   2.0000      -0.983752       -26.7693
  26   2.0000      -0.919040       -25.0084
  27   2.0000      -0.914214       -24.8770
  28   2.0000      -0.870549       -23.6889
  29   2.0000      -0.850753       -23.1502
  30   2.0000      -0.840141       -22.8614
  31   2.0000      -0.815054       -22.1788
  32   2.0000      -0.791790       -21.5457
  33   2.0000      -0.777789       -21.1647
  34   2.0000      -0.705133       -19.1876
  35   2.0000      -0.702542       -19.1171
  36   2.0000      -0.691270       -18.8104
  37   2.0000      -0.656799       -17.8724
  38   2.0000      -0.635906       -17.3039
  39   2.0000      -0.620651       -16.8888
  40   2.0000      -0.602482       -16.3944
  41   2.0000      -0.575851       -15.6697
  42   2.0000      -0.567136       -15.4326
  43   2.0000      -0.559762       -15.2319
  44   2.0000      -0.544487       -14.8162
  45   2.0000      -0.525415       -14.2973
  46   2.0000      -0.515349       -14.0234
  47   2.0000      -0.509447       -13.8628
  48   2.0000      -0.505751       -13.7622
  49   2.0000      -0.500423       -13.6172
  50   2.0000      -0.493766       -13.4361
  51   2.0000      -0.480195       -13.0668
  52   2.0000      -0.473778       -12.8922
  53   2.0000      -0.471349       -12.8261
  54   2.0000      -0.462443       -12.5837
  55   2.0000      -0.451480       -12.2854
  56   2.0000      -0.444943       -12.1075
  57   2.0000      -0.437752       -11.9118
  58   2.0000      -0.430155       -11.7051
  59   2.0000      -0.424227       -11.5438
  60   2.0000      -0.420516       -11.4428
  61   2.0000      -0.414189       -11.2706
  62   2.0000      -0.411023       -11.1845
  63   2.0000      -0.354768        -9.6537
  64   2.0000      -0.330328        -8.9887
  65   2.0000      -0.325215        -8.8495
  66   2.0000      -0.294227        -8.0063
  67   0.0000       0.026200         0.7129
  68   0.0000       0.076916         2.0930
  69   0.0000       0.097427         2.6511
  70   0.0000       0.120725         3.2851
  71   0.0000       0.129051         3.5117

MULLIKEN ATOMIC CHARGES
-----------------------
   0 S :    0.089033
   1 C :   -0.130452
   2 C :   -0.053365
   3 C :   -0.022060
   4 C :   -0.090816
   5 H :   -0.009357
   6 C :    0.018216
   7 H :    0.016060
   8 H :    0.029774
   9 C :   -0.057079
  10 H :    0.023786
  11 H :    0.007176
  12 C :   -0.021036
  13 H :    0.030341
  14 H :    0.037341
  15 H :    0.044708
  16 S :    0.101190
  17 C :   -0.078240
  18 C :   -0.030706
  19 C :   -0.062731
  20 C :   -0.155343
  21 H :    0.007333
  22 C :    0.080060
  23 H :    0.033284
  24 H :    0.041623
  25 C :   -0.096206
  26 H :    0.027595
  27 H :    0.032751
  28 C :   -0.044582
  29 H :    0.040461
  30 H :    0.034267
  31 H :    0.037765
  32 H :    0.054663
  33 H :    0.064547
Sum of atomic charges:   -0.0000000

LOEWDIN ATOMIC CHARGES
----------------------
   0 S :    0.373525
   1 C :   -0.183032
   2 C :   -0.071362
   3 C :   -0.065828
   4 C :   -0.182462
   5 H :    0.021344
   6 C :   -0.039401
   7 H :    0.030646
   8 H :    0.028080
   9 C :   -0.037696
  10 H :    0.026240
  11 H :    0.011953
  12 C :   -0.059536
  13 H :    0.023416
  14 H :    0.027346
  15 H :    0.034142
  16 S :    0.374823
  17 C :   -0.185541
  18 C :   -0.073191
  19 C :   -0.044642
  20 C :   -0.167725
  21 H :    0.022858
  22 C :   -0.031757
  23 H :    0.037827
  24 H :    0.028810
  25 C :   -0.050295
  26 H :    0.028377
  27 H :    0.026736
  28 C :   -0.064850
  29 H :    0.032314
  30 H :    0.026542
  31 H :    0.025047
  32 H :    0.040933
  33 H :    0.036357

  Mayer bond orders larger than 0.100000
B(  0-S ,  1-C ) :   1.1151 B(  0-S ,  4-C ) :   1.1128 B(  1-C ,  2-C ) :   1.6552
B(  1-C , 32-H ) :   0.9589 B(  2-C ,  3-C ) :   1.2091 B(  2-C ,  6-C ) :   1.0455
B(  3-C ,  4-C ) :   1.6072 B(  3-C ,  5-H ) :   0.9938 B(  4-C , 20-C ) :   1.0467
B(  6-C ,  7-H ) :   0.9369 B(  6-C ,  8-H ) :   0.9362 B(  6-C ,  9-C ) :   1.0490
B(  9-C , 10-H ) :   0.9567 B(  9-C , 11-H ) :   0.9550 B(  9-C , 12-C ) :   1.0780
B( 12-C , 13-H ) :   0.9763 B( 12-C , 14-H ) :   0.9736 B( 12-C , 15-H ) :   0.9734
B( 16-S , 17-C ) :   1.1354 B( 16-S , 20-C ) :   1.1185 B( 17-C , 18-C ) :   1.6473
B( 17-C , 33-H ) :   0.9605 B( 18-C , 19-C ) :   1.2101 B( 18-C , 21-H ) :   0.9811
B( 19-C , 20-C ) :   1.6515 B( 19-C , 22-C ) :   1.0119 B( 22-C , 23-H ) :   0.9295
B( 22-C , 24-H ) :   0.9266 B( 22-C , 25-C ) :   1.0925 B( 25-C , 26-H ) :   0.9445
B( 25-C , 27-H ) :   0.9425 B( 25-C , 28-C ) :   1.0853 B( 28-C , 29-H ) :   0.9711
B( 28-C , 30-H ) :   0.9720 B( 28-C , 31-H ) :   0.9732

Dispersion correction           -0.013762943
FINAL SINGLE POINT ENERGY     -1339.871222451344

DIPOLE MOMENT
-------------
                                X             Y             Z
Electronic contribution:     15.83272      16.83487     -18.99376
Nuclear contribution   :    -16.38586     -17.11666      19.74166
                        -----------------------------------------
Total Dipole Moment    :     -0.55315      -0.28179       0.74790
                        -----------------------------------------
Magnitude (a.u.)       :      0.97197
Magnitude (Debye)      :      2.47056

Rotational constants in cm-1:     0.018647     0.008153     0.006040
Rotational constants in MHz :   559.025077   244.409240   181.087355

                             ****ORCA TERMINATED NORMALLY****
TOTAL RUN TIME: 0 days 0 hours 0 minutes 21 seconds 350 msec
