                         Program Version 4.2.1 -  RELEASE  -
|  1> ! wB97X-D3 SP def2-SVP
|  2> %pal
|  3> nprocs 24
|  4> end
|  5>
|  6> * xyz 0 1
|  7> S 	 -52.4713 	 -45.1584 	 -80.4091
|  8> C 	 -53.4447 	 -43.9418 	 -81.3661
|  9> C 	 -53.8884 	 -44.5211 	 -82.5226
| 10> C 	 -53.3554 	 -45.8825 	 -82.7499
| 11> C 	 -52.5216 	 -46.3315 	 -81.7009
| 12> H 	 -53.6078 	 -46.6224 	 -83.5385
| 13> C 	 -54.8071 	 -43.8434 	 -83.5232
| 14> H 	 -54.8181 	 -42.8729 	 -83.2216
| 15> H 	 -55.804 	 -44.2598 	 -83.3159
| 16> C 	 -54.4229 	 -44.0501 	 -85.0243
| 17> H 	 -54.4977 	 -45.1045 	 -85.2404
| 18> H 	 -55.1739 	 -43.5847 	 -85.7188
| 19> C 	 -52.9917 	 -43.6068 	 -85.2924
| 20> H 	 -52.8626 	 -42.5387 	 -85.0647
| 21> H 	 -52.1172 	 -44.1718 	 -84.9192
| 22> H 	 -52.891 	 -43.5775 	 -86.3814
| 23> S 	 -52.5947 	 -48.9282 	 -82.0317
| 24> C 	 -51.1928 	 -49.9841 	 -81.7052
| 25> C 	 -50.1006 	 -49.1798 	 -81.3952
| 26> C 	 -50.4053 	 -47.8179 	 -81.3558
| 27> C 	 -51.7188 	 -47.501 	 -81.7586
| 28> H 	 -49.1543 	 -49.6156 	 -81.2269
| 29> C 	 -49.3796 	 -46.7308 	 -81.1283
| 30> H 	 -48.5369 	 -47.2691 	 -80.6541
| 31> H 	 -49.7185 	 -46.0622 	 -80.3477
| 32> C 	 -48.9219 	 -45.9495 	 -82.3471
| 33> H 	 -48.1022 	 -45.2937 	 -81.9924
| 34> H 	 -49.7513 	 -45.3849 	 -82.7662
| 35> C 	 -48.1039 	 -46.6412 	 -83.36
| 36> H 	 -47.2504 	 -47.1334 	 -82.8669
| 37> H 	 -47.7446 	 -45.9945 	 -84.1216
| 38> H 	 -48.5921 	 -47.4711 	 -83.8091
| 39> H 	 -53.5238 	 -42.8602 	 -81.2233
| 40> H 	 -51.1477 	 -51.0394 	 -81.7655
| 41> *
| 42>
| 43>                          ****END OF INPUT****

CARTESIAN COORDINATES (ANGSTROEM)
---------------------------------
  S    -52.471300  -45.158400  -80.409100
  C    -53.444700  -43.941800  -81.366100
  C    -53.888400  -44.521100  -82.522600
  C    -53.355400  -45.882500  -82.749900
  C    -52.521600  -46.331500  -81.700900
  H    -53.607800  -46.622400  -83.538500
  C    -54.807100  -43.843400  -83.523200
  H    -54.818100  -42.872900  -83.221600
  H    -55.804000  -44.259800  -83.315900
  C    -54.422900  -44.050100  -85.024300
  H    -54.497700  -45.104500  -85.240400
  H    -55.173900  -43.584700  -85.718800
  C    -52.991700  -43.606800  -85.292400
  H    -52.862600  -42.538700  -85.064700
  H    -52.117200  -44.171800  -84.919200
  H    -52.891000  -43.577500  -86.381400
  S    -52.594700  -48.928200  -82.031700
  C    -51.192800  -49.984100  -81.705200
  C    -50.100600  -49.179800  -81.395200
  C    -50.405300  -47.817900  -81.355800
  C    -51.718800  -47.501000  -81.758600
  H    -49.154300  -49.615600  -81.226900
  C    -49.379600  -46.730800  -81.128300
  H    -48.536900  -47.269100  -80.654100
  H    -49.718500  -46.062200  -80.347700
  C    -48.921900  -45.949500  -82.347100
  H    -48.102200  -45.293700  -81.992400
  H    -49.751300  -45.384900  -82.766200
  C    -48.103900  -46.641200  -83.360000
  H    -47.250400  -47.133400  -82.866900
  H    -47.744600  -45.994500  -84.121600
  H    -48.592100  -47.471100  -83.809100
  H    -53.523800  -42.860200  -81.223300
  H    -51.147700  -51.039400  -81.765500

 Total Charge           Charge          ....    0
 Multiplicity           Mult            ....    1
 Number of Electrons    NEL             ....  134
 Basis Dimension        Dim             ....  322

ORBITAL ENERGIES
----------------

  NO   OCC          E(Eh)            E(eV)
   0   2.0000     -88.968251     -2420.9492
   1   2.0000     -88.966996     -2420.9150
   2   2.0000     -10.333495      -281.1887
   3   2.0000     -10.322051      -280.8773
   4   2.0000     -10.319350      -280.8038
   5   2.0000     -10.318093      -280.7696
   6   2.0000     -10.306700      -280.4596
   7   2.0000     -10.301816      -280.3267
   8   2.0000     -10.300462      -280.2898
   9   2.0000     -10.293705      -280.1060
  10   2.0000     -10.292947      -280.0853
  11   2.0000     -10.287450      -279.9357
  12   2.0000     -10.285372      -279.8792
  13   2.0000     -10.277676      -279.6698
  14   2.0000     -10.277515      -279.6654
  15   2.0000     -10.263654      -279.2882
  16   2.0000      -8.083055      -219.9511
  17   2.0000      -8.080227      -219.8741
  18   2.0000      -6.041500      -164.3976
  19   2.0000      -6.039078      -164.3317
  20   2.0000      -6.037294      -164.2831
  21   2.0000      -6.034923      -164.2186
  22   2.0000      -6.034119      -164.1967
  23   2.0000      -6.030721      -164.1043
  24   2.0000      -1.010280       -27.4911
  25   2.0000      -0.977359       -26.5953
  26   2.0000      -0.913357       -24.8537
  27   2.0000      -0.912224       -24.8229
  28   2.0000      -0.876484       -23.8503
  29   2.0000      -0.854307       -23.2469
  30   2.0000      -0.838152       -22.8073
  31   2.0000      -0.813867       -22.1464
  32   2.0000      -0.785041       -21.3621
  33   2.0000      -0.773367       -21.0444
  34   2.0000      -0.716308       -19.4917
  35   2.0000      -0.698154       -18.9977
  36   2.0000      -0.686522       -18.6812
  37   2.0000      -0.673811       -18.3353
  38   2.0000      -0.630262       -17.1503
  39   2.0000      -0.614113       -16.7109
  40   2.0000      -0.590581       -16.0705
  41   2.0000      -0.569392       -15.4939
  42   2.0000      -0.559802       -15.2330
  43   2.0000      -0.551991       -15.0204
  44   2.0000      -0.551226       -14.9996
  45   2.0000      -0.537668       -14.6307
  46   2.0000      -0.522599       -14.2206
  47   2.0000      -0.516659       -14.0590
  48   2.0000      -0.505800       -13.7635
  49   2.0000      -0.495004       -13.4698
  50   2.0000      -0.487075       -13.2540
  51   2.0000      -0.480868       -13.0851
  52   2.0000      -0.479113       -13.0373
  53   2.0000      -0.464980       -12.6527
  54   2.0000      -0.458032       -12.4637
  55   2.0000      -0.446572       -12.1518
  56   2.0000      -0.443614       -12.0714
  57   2.0000      -0.432302       -11.7635
  58   2.0000      -0.428331       -11.6555
  59   2.0000      -0.423299       -11.5185
  60   2.0000      -0.421122       -11.4593
  61   2.0000      -0.412318       -11.2198
  62   2.0000      -0.399160       -10.8617
  63   2.0000      -0.351041        -9.5523
  64   2.0000      -0.329979        -8.9792
  65   2.0000      -0.326324        -8.8797
  66   2.0000      -0.289522        -7.8783
  67   0.0000       0.018369         0.4998
  68   0.0000       0.073385         1.9969
  69   0.0000       0.109228         2.9723
  70   0.0000       0.113660         3.0929
  71   0.0000       0.129864         3.5338

MULLIKEN ATOMIC CHARGES
-----------------------
   0 S :    0.101717
   1 C :   -0.142584
   2 C :   -0.112695
   3 C :   -0.012218
   4 C :   -0.120632
   5 H :    0.035600
   6 C :    0.137101
   7 H :   -0.016680
   8 H :    0.044836
   9 C :   -0.082342
  10 H :    0.027816
  11 H :    0.042273
  12 C :   -0.063898
  13 H :    0.024332
  14 H :    0.060655
  15 H :    0.022378
  16 S :    0.108607
  17 C :   -0.081041
  18 C :   -0.025258
  19 C :   -0.055652
  20 C :   -0.154922
  21 H :    0.004300
  22 C :    0.070419
  23 H :    0.002933
  24 H :    0.029797
  25 C :   -0.054439
  26 H :    0.027949
  27 H :    0.043753
  28 C :   -0.021521
  29 H :    0.010253
  30 H :    0.031157
  31 H :    0.014865
  32 H :    0.058714
  33 H :    0.044428
Sum of atomic charges:   -0.0000000

LOEWDIN ATOMIC CHARGES
----------------------
   0 S :    0.380255
   1 C :   -0.191189
   2 C :   -0.051502
   3 C :   -0.075896
   4 C :   -0.193937
   5 H :    0.032948
   6 C :   -0.022923
   7 H :    0.011468
   8 H :    0.040012
   9 C :   -0.041494
  10 H :    0.021439
  11 H :    0.033992
  12 C :   -0.075473
  13 H :    0.025399
  14 H :    0.033945
  15 H :    0.027294
  16 S :    0.437505
  17 C :   -0.173475
  18 C :   -0.063442
  19 C :   -0.062326
  20 C :   -0.218150
  21 H :    0.027227
  22 C :   -0.036734
  23 H :    0.028413
  24 H :    0.025695
  25 C :   -0.042365
  26 H :    0.034659
  27 H :    0.026112
  28 C :   -0.061266
  29 H :    0.024852
  30 H :    0.024502
  31 H :    0.014513
  32 H :    0.036654
  33 H :    0.023288

  Mayer bond orders larger than 0.100000
B(  0-S ,  1-C ) :   1.0931 B(  0-S ,  4-C ) :   1.1350 B(  1-C ,  2-C ) :   1.6679
B(  1-C , 32-H ) :   0.9594 B(  2-C ,  3-C ) :   1.1888 B(  2-C ,  6-C ) :   1.0163
B(  3-C ,  4-C ) :   1.5690 B(  3-C ,  5-H ) :   0.9828 B(  4-C , 20-C ) :   1.0608
B(  6-C ,  7-H ) :   0.9364 B(  6-C ,  8-H ) :   0.9326 B(  6-C ,  9-C ) :   1.0680
B(  9-C , 10-H ) :   0.9500 B(  9-C , 11-H ) :   0.9565 B(  9-C , 12-C ) :   1.0775
B( 12-C , 13-H ) :   0.9755 B( 12-C , 14-H ) :   0.9708 B( 12-C , 15-H ) :   0.9704
B( 16-S , 17-C ) :   1.1690 B( 16-S , 20-C ) :   1.1716 B( 17-C , 18-C ) :   1.5544
B( 17-C , 20-C ) :   0.1142 B( 17-C , 33-H ) :   0.9740 B( 18-C , 19-C ) :   1.2961
B( 18-C , 21-H ) :   0.9974 B( 19-C , 20-C ) :   1.5050 B( 19-C , 22-C ) :   1.0477
B( 22-C , 23-H ) :   0.9258 B( 22-C , 24-H ) :   0.9249 B( 22-C , 25-C ) :   1.0867
B( 25-C , 26-H ) :   0.9515 B( 25-C , 27-H ) :   0.9533 B( 25-C , 28-C ) :   1.0770
B( 28-C , 29-H ) :   0.9697 B( 28-C , 30-H ) :   0.9723 B( 28-C , 31-H ) :   0.9717

Dispersion correction           -0.015376928
FINAL SINGLE POINT ENERGY     -1339.863681471737

DIPOLE MOMENT
-------------
                                X             Y             Z
Electronic contribution:     -9.24988     -12.23590      16.43653
Nuclear contribution   :      9.43043      12.37365     -16.87004
                        -----------------------------------------
Total Dipole Moment    :      0.18055       0.13775      -0.43350
                        -----------------------------------------
Magnitude (a.u.)       :      0.48939
Magnitude (Debye)      :      1.24393

Rotational constants in cm-1:     0.019161     0.009067     0.008367
Rotational constants in MHz :   574.420768   271.816612   250.822942

                             ****ORCA TERMINATED NORMALLY****
TOTAL RUN TIME: 0 days 0 hours 0 minutes 21 seconds 320 msec
