                         Program Version 4.2.1 -  RELEASE  -
|  1> ! wB97X-D3 SP def2-SVP
|  2> %pal
|  3> nprocs 24
|  4> end
|  5>
|  6> * xyz 0 1
|  7> S 	 -80.6973 	 -1.46653 	 -59.3897
|  8> C 	 -79.5164 	 -0.628581 	 -60.3349
|  9> C 	 -78.5812 	 -1.46607 	 -60.9291
| 10> C 	 -78.8611 	 -2.81315 	 -60.5918
| 11> C 	 -79.8536 	 -2.93183 	 -59.6704
| 12> H 	 -78.3857 	 -3.68722 	 -61.0224
| 13> C 	 -77.4636 	 -1.15651 	 -61.8501
| 14> H 	 -76.9847 	 -2.16295 	 -62.1246
| 15> H 	 -76.7873 	 -0.533743 	 -61.3424
| 16> C 	 -77.9373 	 -0.52173 	 -63.1163
| 17> H 	 -78.6067 	 -1.23136 	 -63.5782
| 18> H 	 -78.5028 	 0.358271 	 -62.9159
| 19> C 	 -76.7956 	 -0.28411 	 -64.1879
| 20> H 	 -76.4474 	 -1.29926 	 -64.5064
| 21> H 	 -77.1822 	 0.327302 	 -64.9714
| 22> H 	 -75.9622 	 0.146949 	 -63.7294
| 23> S 	 -79.9449 	 -4.2536 	 -57.3614
| 24> C 	 -80.4178 	 -6.00464 	 -57.4061
| 25> C 	 -80.9048 	 -6.35253 	 -58.6642
| 26> C 	 -80.6403 	 -5.36098 	 -59.6309
| 27> C 	 -80.3073 	 -4.13059 	 -59.062
| 28> H 	 -81.2716 	 -7.37203 	 -58.7426
| 29> C 	 -80.8349 	 -5.57112 	 -61.1192
| 30> H 	 -79.7878 	 -5.49352 	 -61.3714
| 31> H 	 -81.3379 	 -4.73495 	 -61.5555
| 32> C 	 -81.4991 	 -6.85559 	 -61.673
| 33> H 	 -80.9761 	 -7.69208 	 -61.2033
| 34> H 	 -81.3488 	 -6.90819 	 -62.7748
| 35> C 	 -83.0453 	 -6.89782 	 -61.4142
| 36> H 	 -83.3421 	 -6.71965 	 -60.4069
| 37> H 	 -83.453 	 -7.86733 	 -61.6053
| 38> H 	 -83.4902 	 -6.23698 	 -62.0772
| 39> H 	 -79.4523 	 0.460394 	 -60.4608
| 40> H 	 -80.2997 	 -6.66636 	 -56.5014
| 41> *
| 42>
| 43>                          ****END OF INPUT****

CARTESIAN COORDINATES (ANGSTROEM)
---------------------------------
  S    -80.697300   -1.466530  -59.389700
  C    -79.516400   -0.628581  -60.334900
  C    -78.581200   -1.466070  -60.929100
  C    -78.861100   -2.813150  -60.591800
  C    -79.853600   -2.931830  -59.670400
  H    -78.385700   -3.687220  -61.022400
  C    -77.463600   -1.156510  -61.850100
  H    -76.984700   -2.162950  -62.124600
  H    -76.787300   -0.533743  -61.342400
  C    -77.937300   -0.521730  -63.116300
  H    -78.606700   -1.231360  -63.578200
  H    -78.502800    0.358271  -62.915900
  C    -76.795600   -0.284110  -64.187900
  H    -76.447400   -1.299260  -64.506400
  H    -77.182200    0.327302  -64.971400
  H    -75.962200    0.146949  -63.729400
  S    -79.944900   -4.253600  -57.361400
  C    -80.417800   -6.004640  -57.406100
  C    -80.904800   -6.352530  -58.664200
  C    -80.640300   -5.360980  -59.630900
  C    -80.307300   -4.130590  -59.062000
  H    -81.271600   -7.372030  -58.742600
  C    -80.834900   -5.571120  -61.119200
  H    -79.787800   -5.493520  -61.371400
  H    -81.337900   -4.734950  -61.555500
  C    -81.499100   -6.855590  -61.673000
  H    -80.976100   -7.692080  -61.203300
  H    -81.348800   -6.908190  -62.774800
  C    -83.045300   -6.897820  -61.414200
  H    -83.342100   -6.719650  -60.406900
  H    -83.453000   -7.867330  -61.605300
  H    -83.490200   -6.236980  -62.077200
  H    -79.452300    0.460394  -60.460800
  H    -80.299700   -6.666360  -56.501400

 Total Charge           Charge          ....    0
 Multiplicity           Mult            ....    1
 Number of Electrons    NEL             ....  134
 Basis Dimension        Dim             ....  322

ORBITAL ENERGIES
----------------

  NO   OCC          E(Eh)            E(eV)
   0   2.0000     -88.966168     -2420.8925
   1   2.0000     -88.962232     -2420.7854
   2   2.0000     -10.325248      -280.9643
   3   2.0000     -10.315664      -280.7035
   4   2.0000     -10.314928      -280.6835
   5   2.0000     -10.309239      -280.5287
   6   2.0000     -10.304297      -280.3942
   7   2.0000     -10.296158      -280.1727
   8   2.0000     -10.295362      -280.1510
   9   2.0000     -10.293539      -280.1014
  10   2.0000     -10.288039      -279.9518
  11   2.0000     -10.287873      -279.9472
  12   2.0000     -10.285148      -279.8731
  13   2.0000     -10.280267      -279.7403
  14   2.0000     -10.276804      -279.6460
  15   2.0000     -10.270170      -279.4655
  16   2.0000      -8.081817      -219.9174
  17   2.0000      -8.076354      -219.7688
  18   2.0000      -6.040148      -164.3608
  19   2.0000      -6.036310      -164.2563
  20   2.0000      -6.034791      -164.2150
  21   2.0000      -6.032611      -164.1557
  22   2.0000      -6.031032      -164.1127
  23   2.0000      -6.027133      -164.0066
  24   2.0000      -1.012681       -27.5564
  25   2.0000      -0.982558       -26.7368
  26   2.0000      -0.919900       -25.0317
  27   2.0000      -0.905186       -24.6314
  28   2.0000      -0.869649       -23.6644
  29   2.0000      -0.853368       -23.2213
  30   2.0000      -0.846069       -23.0227
  31   2.0000      -0.812779       -22.1168
  32   2.0000      -0.786556       -21.4033
  33   2.0000      -0.770981       -20.9794
  34   2.0000      -0.708078       -19.2678
  35   2.0000      -0.706234       -19.2176
  36   2.0000      -0.693271       -18.8649
  37   2.0000      -0.655925       -17.8486
  38   2.0000      -0.640106       -17.4182
  39   2.0000      -0.621187       -16.9033
  40   2.0000      -0.595073       -16.1928
  41   2.0000      -0.575071       -15.6485
  42   2.0000      -0.561673       -15.2839
  43   2.0000      -0.554836       -15.0979
  44   2.0000      -0.541032       -14.7222
  45   2.0000      -0.530769       -14.4430
  46   2.0000      -0.525948       -14.3118
  47   2.0000      -0.509380       -13.8609
  48   2.0000      -0.500554       -13.6208
  49   2.0000      -0.492927       -13.4132
  50   2.0000      -0.488667       -13.2973
  51   2.0000      -0.482428       -13.1275
  52   2.0000      -0.472826       -12.8662
  53   2.0000      -0.465374       -12.6635
  54   2.0000      -0.458875       -12.4866
  55   2.0000      -0.449856       -12.2412
  56   2.0000      -0.445762       -12.1298
  57   2.0000      -0.437848       -11.9145
  58   2.0000      -0.434739       -11.8299
  59   2.0000      -0.424348       -11.5471
  60   2.0000      -0.422907       -11.5079
  61   2.0000      -0.419413       -11.4128
  62   2.0000      -0.416545       -11.3348
  63   2.0000      -0.343486        -9.3467
  64   2.0000      -0.330532        -8.9942
  65   2.0000      -0.321817        -8.7571
  66   2.0000      -0.289220        -7.8701
  67   0.0000       0.036434         0.9914
  68   0.0000       0.063267         1.7216
  69   0.0000       0.115327         3.1382
  70   0.0000       0.116999         3.1837
  71   0.0000       0.133867         3.6427

MULLIKEN ATOMIC CHARGES
-----------------------
   0 S :    0.137188
   1 C :   -0.134545
   2 C :   -0.090175
   3 C :    0.014138
   4 C :   -0.168479
   5 H :    0.011177
   6 C :    0.095523
   7 H :    0.025669
   8 H :    0.023032
   9 C :   -0.104117
  10 H :    0.023817
  11 H :    0.020753
  12 C :   -0.003875
  13 H :    0.027401
  14 H :    0.039576
  15 H :    0.013387
  16 S :    0.100385
  17 C :   -0.136004
  18 C :   -0.034677
  19 C :   -0.041000
  20 C :   -0.152935
  21 H :    0.027619
  22 C :    0.068413
  23 H :    0.029937
  24 H :    0.033779
  25 C :   -0.076509
  26 H :    0.026475
  27 H :    0.040046
  28 C :   -0.011061
  29 H :    0.028960
  30 H :    0.021767
  31 H :    0.020042
  32 H :    0.044949
  33 H :    0.079342
Sum of atomic charges:   -0.0000000

LOEWDIN ATOMIC CHARGES
----------------------
   0 S :    0.435885
   1 C :   -0.214450
   2 C :   -0.059336
   3 C :   -0.062308
   4 C :   -0.213301
   5 H :    0.029688
   6 C :   -0.030356
   7 H :    0.038008
   8 H :    0.024909
   9 C :   -0.035788
  10 H :    0.023565
  11 H :    0.015533
  12 C :   -0.054796
  13 H :    0.029690
  14 H :    0.024907
  15 H :    0.013470
  16 S :    0.388084
  17 C :   -0.172463
  18 C :   -0.077757
  19 C :   -0.047783
  20 C :   -0.215317
  21 H :    0.035806
  22 C :   -0.033799
  23 H :    0.035286
  24 H :    0.029872
  25 C :   -0.035978
  26 H :    0.019812
  27 H :    0.033151
  28 C :   -0.055206
  29 H :    0.022700
  30 H :    0.024644
  31 H :    0.018087
  32 H :    0.027181
  33 H :    0.038361

  Mayer bond orders larger than 0.100000
B(  0-S ,  1-C ) :   1.1400 B(  0-S ,  4-C ) :   1.1719 B(  1-C ,  2-C ) :   1.6040
B(  1-C , 32-H ) :   0.9637 B(  2-C ,  3-C ) :   1.2615 B(  2-C ,  6-C ) :   1.0192
B(  3-C ,  4-C ) :   1.5780 B(  3-C ,  5-H ) :   0.9919 B(  4-C , 20-C ) :   1.0118
B(  6-C ,  7-H ) :   0.9419 B(  6-C ,  8-H ) :   0.9222 B(  6-C ,  9-C ) :   1.0726
B(  9-C , 10-H ) :   0.9571 B(  9-C , 11-H ) :   0.9584 B(  9-C , 12-C ) :   1.0764
B( 12-C , 13-H ) :   0.9747 B( 12-C , 14-H ) :   0.9759 B( 12-C , 15-H ) :   0.9765
B( 16-S , 17-C ) :   1.1590 B( 16-S , 20-C ) :   1.1437 B( 17-C , 18-C ) :   1.5986
B( 17-C , 20-C ) :   0.1157 B( 17-C , 33-H ) :   0.9595 B( 18-C , 19-C ) :   1.2319
B( 18-C , 21-H ) :   0.9868 B( 19-C , 20-C ) :   1.6015 B( 19-C , 22-C ) :   1.0077
B( 22-C , 23-H ) :   0.9188 B( 22-C , 24-H ) :   0.9393 B( 22-C , 25-C ) :   1.0878
B( 25-C , 26-H ) :   0.9517 B( 25-C , 27-H ) :   0.9548 B( 25-C , 28-C ) :   1.0714
B( 28-C , 29-H ) :   0.9787 B( 28-C , 30-H ) :   0.9743 B( 28-C , 31-H ) :   0.9750

Dispersion correction           -0.014082711
FINAL SINGLE POINT ENERGY     -1339.863356809690

DIPOLE MOMENT
-------------
                                X             Y             Z
Electronic contribution:     -4.08620       4.62151      25.60179
Nuclear contribution   :      4.25953      -4.95415     -26.19218
                        -----------------------------------------
Total Dipole Moment    :      0.17333      -0.33264      -0.59039
                        -----------------------------------------
Magnitude (a.u.)       :      0.69946
Magnitude (Debye)      :      1.77790

Rotational constants in cm-1:     0.019683     0.007799     0.006386
Rotational constants in MHz :   590.066808   233.796646   191.453857

                             ****ORCA TERMINATED NORMALLY****
TOTAL RUN TIME: 0 days 0 hours 0 minutes 21 seconds 340 msec
