                         Program Version 4.2.1 -  RELEASE  -
|  1> ! wB97X-D3 SP def2-SVP
|  2> %pal
|  3> nprocs 24
|  4> end
|  5>
|  6> * xyz 0 1
|  7> S 	 28.2967 	 -7.29816 	 -120.769
|  8> C 	 26.5908 	 -7.68272 	 -120.941
|  9> C 	 26.1392 	 -8.48135 	 -119.93
| 10> C 	 27.0975 	 -8.5216 	 -118.865
| 11> C 	 28.3038 	 -7.89505 	 -119.148
| 12> H 	 26.9966 	 -9.08175 	 -117.96
| 13> C 	 24.6903 	 -8.95664 	 -119.904
| 14> H 	 23.9772 	 -8.31486 	 -120.46
| 15> H 	 24.4093 	 -8.95835 	 -118.839
| 16> C 	 24.5136 	 -10.4241 	 -120.177
| 17> H 	 24.9069 	 -11.0721 	 -119.383
| 18> H 	 23.4988 	 -10.6757 	 -120.088
| 19> C 	 24.9765 	 -10.8348 	 -121.537
| 20> H 	 24.5091 	 -11.8543 	 -121.687
| 21> H 	 24.5755 	 -10.1655 	 -122.296
| 22> H 	 26.061 	 -11.0191 	 -121.555
| 23> S 	 30.9349 	 -8.68416 	 -118.947
| 24> C 	 31.5907 	 -8.79087 	 -117.328
| 25> C 	 30.7018 	 -8.4549 	 -116.343
| 26> C 	 29.4934 	 -8.03095 	 -116.848
| 27> C 	 29.448 	 -8.05921 	 -118.255
| 28> H 	 31.0571 	 -8.50369 	 -115.369
| 29> C 	 28.3097 	 -7.57607 	 -115.978
| 30> H 	 27.5361 	 -8.30351 	 -116.057
| 31> H 	 27.9289 	 -6.67765 	 -116.525
| 32> C 	 28.356 	 -7.10647 	 -114.467
| 33> H 	 29.2787 	 -6.5097 	 -114.229
| 34> H 	 28.3468 	 -7.97986 	 -113.812
| 35> C 	 27.0791 	 -6.27253 	 -114.15
| 36> H 	 26.9338 	 -6.05852 	 -113.067
| 37> H 	 26.2382 	 -6.90004 	 -114.48
| 38> H 	 27.0527 	 -5.4287 	 -114.824
| 39> H 	 26.0999 	 -7.65625 	 -121.936
| 40> H 	 32.6333 	 -9.05228 	 -116.985
| 41> *
| 42>
| 43>                          ****END OF INPUT****

CARTESIAN COORDINATES (ANGSTROEM)
---------------------------------
  S     28.296700   -7.298160  -120.769000
  C     26.590800   -7.682720  -120.941000
  C     26.139200   -8.481350  -119.930000
  C     27.097500   -8.521600  -118.865000
  C     28.303800   -7.895050  -119.148000
  H     26.996600   -9.081750  -117.960000
  C     24.690300   -8.956640  -119.904000
  H     23.977200   -8.314860  -120.460000
  H     24.409300   -8.958350  -118.839000
  C     24.513600  -10.424100  -120.177000
  H     24.906900  -11.072100  -119.383000
  H     23.498800  -10.675700  -120.088000
  C     24.976500  -10.834800  -121.537000
  H     24.509100  -11.854300  -121.687000
  H     24.575500  -10.165500  -122.296000
  H     26.061000  -11.019100  -121.555000
  S     30.934900   -8.684160  -118.947000
  C     31.590700   -8.790870  -117.328000
  C     30.701800   -8.454900  -116.343000
  C     29.493400   -8.030950  -116.848000
  C     29.448000   -8.059210  -118.255000
  H     31.057100   -8.503690  -115.369000
  C     28.309700   -7.576070  -115.978000
  H     27.536100   -8.303510  -116.057000
  H     27.928900   -6.677650  -116.525000
  C     28.356000   -7.106470  -114.467000
  H     29.278700   -6.509700  -114.229000
  H     28.346800   -7.979860  -113.812000
  C     27.079100   -6.272530  -114.150000
  H     26.933800   -6.058520  -113.067000
  H     26.238200   -6.900040  -114.480000
  H     27.052700   -5.428700  -114.824000
  H     26.099900   -7.656250  -121.936000
  H     32.633300   -9.052280  -116.985000

 Total Charge           Charge          ....    0
 Multiplicity           Mult            ....    1
 Number of Electrons    NEL             ....  134
 Basis Dimension        Dim             ....  322

ORBITAL ENERGIES
----------------

  NO   OCC          E(Eh)            E(eV)
   0   2.0000     -88.970040     -2420.9979
   1   2.0000     -88.966581     -2420.9037
   2   2.0000     -10.327655      -281.0298
   3   2.0000     -10.326618      -281.0016
   4   2.0000     -10.315326      -280.6943
   5   2.0000     -10.312255      -280.6107
   6   2.0000     -10.303092      -280.3614
   7   2.0000     -10.301020      -280.3050
   8   2.0000     -10.296851      -280.1916
   9   2.0000     -10.294714      -280.1334
  10   2.0000     -10.294042      -280.1151
  11   2.0000     -10.292369      -280.0696
  12   2.0000     -10.283716      -279.8341
  13   2.0000     -10.281759      -279.7809
  14   2.0000     -10.276957      -279.6502
  15   2.0000     -10.276416      -279.6355
  16   2.0000      -8.084409      -219.9880
  17   2.0000      -8.081593      -219.9113
  18   2.0000      -6.042797      -164.4329
  19   2.0000      -6.040054      -164.3582
  20   2.0000      -6.039083      -164.3318
  21   2.0000      -6.036190      -164.2531
  22   2.0000      -6.035207      -164.2263
  23   2.0000      -6.032261      -164.1462
  24   2.0000      -1.009531       -27.4707
  25   2.0000      -0.987332       -26.8667
  26   2.0000      -0.920391       -25.0451
  27   2.0000      -0.901446       -24.5296
  28   2.0000      -0.872537       -23.7429
  29   2.0000      -0.855081       -23.2679
  30   2.0000      -0.847611       -23.0647
  31   2.0000      -0.812262       -22.1028
  32   2.0000      -0.784851       -21.3569
  33   2.0000      -0.768724       -20.9180
  34   2.0000      -0.707651       -19.2562
  35   2.0000      -0.697551       -18.9813
  36   2.0000      -0.690987       -18.8027
  37   2.0000      -0.654959       -17.8224
  38   2.0000      -0.637381       -17.3440
  39   2.0000      -0.622097       -16.9281
  40   2.0000      -0.592105       -16.1120
  41   2.0000      -0.572433       -15.5767
  42   2.0000      -0.566932       -15.4270
  43   2.0000      -0.553294       -15.0559
  44   2.0000      -0.547996       -14.9117
  45   2.0000      -0.523315       -14.2401
  46   2.0000      -0.516393       -14.0518
  47   2.0000      -0.512628       -13.9493
  48   2.0000      -0.501052       -13.6343
  49   2.0000      -0.491353       -13.3704
  50   2.0000      -0.484886       -13.1944
  51   2.0000      -0.481619       -13.1055
  52   2.0000      -0.467710       -12.7270
  53   2.0000      -0.466404       -12.6915
  54   2.0000      -0.460132       -12.5208
  55   2.0000      -0.454499       -12.3675
  56   2.0000      -0.447811       -12.1856
  57   2.0000      -0.435086       -11.8393
  58   2.0000      -0.427393       -11.6299
  59   2.0000      -0.426405       -11.6031
  60   2.0000      -0.418794       -11.3960
  61   2.0000      -0.417569       -11.3626
  62   2.0000      -0.412135       -11.2148
  63   2.0000      -0.350916        -9.5489
  64   2.0000      -0.335444        -9.1279
  65   2.0000      -0.329829        -8.9751
  66   2.0000      -0.285667        -7.7734
  67   0.0000       0.025033         0.6812
  68   0.0000       0.073452         1.9987
  69   0.0000       0.109167         2.9706
  70   0.0000       0.120141         3.2692
  71   0.0000       0.136127         3.7042

MULLIKEN ATOMIC CHARGES
-----------------------
   0 S :    0.105998
   1 C :   -0.138135
   2 C :   -0.059624
   3 C :    0.010254
   4 C :   -0.134307
   5 H :    0.001956
   6 C :    0.049696
   7 H :    0.043932
   8 H :    0.021286
   9 C :   -0.069424
  10 H :    0.022278
  11 H :    0.008394
  12 C :   -0.053931
  13 H :    0.028746
  14 H :    0.030660
  15 H :    0.052014
  16 S :    0.119900
  17 C :   -0.105346
  18 C :   -0.038677
  19 C :    0.004728
  20 C :   -0.154602
  21 H :   -0.010543
  22 C :    0.001337
  23 H :    0.028515
  24 H :    0.042505
  25 C :   -0.058107
  26 H :    0.041959
  27 H :    0.030590
  28 C :   -0.063991
  29 H :    0.051507
  30 H :    0.024785
  31 H :    0.037251
  32 H :    0.065548
  33 H :    0.062850
Sum of atomic charges:    0.0000000

LOEWDIN ATOMIC CHARGES
----------------------
   0 S :    0.406583
   1 C :   -0.200011
   2 C :   -0.060882
   3 C :   -0.056734
   4 C :   -0.205169
   5 H :    0.024759
   6 C :   -0.031629
   7 H :    0.035751
   8 H :    0.036547
   9 C :   -0.051058
  10 H :    0.026298
  11 H :    0.017386
  12 C :   -0.069034
  13 H :    0.032145
  14 H :    0.023098
  15 H :    0.030427
  16 S :    0.411045
  17 C :   -0.194982
  18 C :   -0.070087
  19 C :   -0.054953
  20 C :   -0.195742
  21 H :    0.024381
  22 C :   -0.038138
  23 H :    0.022483
  24 H :    0.040607
  25 C :   -0.041545
  26 H :    0.026188
  27 H :    0.020543
  28 C :   -0.065612
  29 H :    0.032857
  30 H :    0.025803
  31 H :    0.024001
  32 H :    0.034081
  33 H :    0.040593

  Mayer bond orders larger than 0.100000
B(  0-S ,  1-C ) :   1.1326 B(  0-S ,  4-C ) :   1.1541 B(  1-C ,  2-C ) :   1.6123
B(  1-C , 32-H ) :   0.9585 B(  2-C ,  3-C ) :   1.2550 B(  2-C ,  6-C ) :   1.0136
B(  3-C ,  4-C ) :   1.5477 B(  3-C ,  5-H ) :   0.9924 B(  4-C , 20-C ) :   1.0594
B(  6-C ,  7-H ) :   0.9540 B(  6-C ,  8-H ) :   0.9366 B(  6-C ,  9-C ) :   1.0814
B(  9-C , 10-H ) :   0.9496 B(  9-C , 11-H ) :   0.9511 B(  9-C , 12-C ) :   1.0841
B( 12-C , 13-H ) :   0.9722 B( 12-C , 14-H ) :   0.9738 B( 12-C , 15-H ) :   0.9729
B( 16-S , 17-C ) :   1.1565 B( 16-S , 20-C ) :   1.1471 B( 17-C , 18-C ) :   1.6067
B( 17-C , 20-C ) :   0.1040 B( 17-C , 33-H ) :   0.9536 B( 18-C , 19-C ) :   1.2636
B( 18-C , 21-H ) :   1.0077 B( 19-C , 20-C ) :   1.5713 B( 19-C , 22-C ) :   1.0135
B( 22-C , 23-H ) :   0.9295 B( 22-C , 24-H ) :   0.9437 B( 22-C , 25-C ) :   1.0537
B( 25-C , 26-H ) :   0.9596 B( 25-C , 27-H ) :   0.9524 B( 25-C , 28-C ) :   1.0750
B( 28-C , 29-H ) :   0.9722 B( 28-C , 30-H ) :   0.9749 B( 28-C , 31-H ) :   0.9764

Dispersion correction           -0.013909800
FINAL SINGLE POINT ENERGY     -1339.863749037202

DIPOLE MOMENT
-------------
                                X             Y             Z
Electronic contribution:     21.83601       4.47258     -13.02402
Nuclear contribution   :    -22.36955      -4.82094      13.49596
                        -----------------------------------------
Total Dipole Moment    :     -0.53354      -0.34836       0.47194
                        -----------------------------------------
Magnitude (a.u.)       :      0.79294
Magnitude (Debye)      :      2.01549

Rotational constants in cm-1:     0.017075     0.008639     0.006742
Rotational constants in MHz :   511.884513   259.003376   202.106141

                             ****ORCA TERMINATED NORMALLY****
TOTAL RUN TIME: 0 days 0 hours 0 minutes 21 seconds 417 msec
