                         Program Version 4.2.1 -  RELEASE  -
|  1> ! wB97X-D3 SP def2-SVP
|  2> %pal
|  3> nprocs 24
|  4> end
|  5>
|  6> * xyz 0 1
|  7> S 	 -55.9631 	 -50.0775 	 -80.5342
|  8> C 	 -55.9116 	 -50.2383 	 -82.2689
|  9> C 	 -55.0569 	 -49.3864 	 -82.8984
| 10> C 	 -54.2399 	 -48.7095 	 -81.9377
| 11> C 	 -54.7307 	 -48.8979 	 -80.6423
| 12> H 	 -53.3176 	 -48.2284 	 -82.1501
| 13> C 	 -54.8096 	 -49.3824 	 -84.434
| 14> H 	 -54.4154 	 -50.3082 	 -84.6849
| 15> H 	 -54.0468 	 -48.6667 	 -84.5481
| 16> C 	 -55.9644 	 -48.9101 	 -85.3139
| 17> H 	 -55.6946 	 -48.9612 	 -86.3439
| 18> H 	 -56.709 	 -49.729 	 -85.2145
| 19> C 	 -56.6124 	 -47.5502 	 -85.02
| 20> H 	 -56.8016 	 -47.352 	 -83.964
| 21> H 	 -55.9521 	 -46.7673 	 -85.1772
| 22> H 	 -57.493 	 -47.3426 	 -85.6597
| 23> S 	 -54.1023 	 -49.2259 	 -77.9172
| 24> C 	 -53.163 	 -48.0525 	 -77.0573
| 25> C 	 -53.1387 	 -46.915 	 -77.785
| 26> C 	 -53.7568 	 -46.9488 	 -79.1055
| 27> C 	 -54.3225 	 -48.2196 	 -79.3921
| 28> H 	 -52.5056 	 -46.1036 	 -77.5149
| 29> C 	 -53.6978 	 -45.7093 	 -80.0154
| 30> H 	 -54.2062 	 -45.9425 	 -80.9908
| 31> H 	 -52.6169 	 -45.5921 	 -80.2647
| 32> C 	 -54.3255 	 -44.4212 	 -79.4096
| 33> H 	 -53.9558 	 -44.371 	 -78.4309
| 34> H 	 -55.4803 	 -44.6257 	 -79.2752
| 35> C 	 -53.9454 	 -43.0825 	 -80.0635
| 36> H 	 -53.6239 	 -43.1738 	 -81.0998
| 37> H 	 -52.9837 	 -42.6207 	 -79.6852
| 38> H 	 -54.8126 	 -42.4391 	 -79.9407
| 39> H 	 -56.6309 	 -50.9064 	 -82.6943
| 40> H 	 -52.593 	 -48.325 	 -76.1646
| 41> *
| 42>
| 43>                          ****END OF INPUT****

CARTESIAN COORDINATES (ANGSTROEM)
---------------------------------
  S    -55.963100  -50.077500  -80.534200
  C    -55.911600  -50.238300  -82.268900
  C    -55.056900  -49.386400  -82.898400
  C    -54.239900  -48.709500  -81.937700
  C    -54.730700  -48.897900  -80.642300
  H    -53.317600  -48.228400  -82.150100
  C    -54.809600  -49.382400  -84.434000
  H    -54.415400  -50.308200  -84.684900
  H    -54.046800  -48.666700  -84.548100
  C    -55.964400  -48.910100  -85.313900
  H    -55.694600  -48.961200  -86.343900
  H    -56.709000  -49.729000  -85.214500
  C    -56.612400  -47.550200  -85.020000
  H    -56.801600  -47.352000  -83.964000
  H    -55.952100  -46.767300  -85.177200
  H    -57.493000  -47.342600  -85.659700
  S    -54.102300  -49.225900  -77.917200
  C    -53.163000  -48.052500  -77.057300
  C    -53.138700  -46.915000  -77.785000
  C    -53.756800  -46.948800  -79.105500
  C    -54.322500  -48.219600  -79.392100
  H    -52.505600  -46.103600  -77.514900
  C    -53.697800  -45.709300  -80.015400
  H    -54.206200  -45.942500  -80.990800
  H    -52.616900  -45.592100  -80.264700
  C    -54.325500  -44.421200  -79.409600
  H    -53.955800  -44.371000  -78.430900
  H    -55.480300  -44.625700  -79.275200
  C    -53.945400  -43.082500  -80.063500
  H    -53.623900  -43.173800  -81.099800
  H    -52.983700  -42.620700  -79.685200
  H    -54.812600  -42.439100  -79.940700
  H    -56.630900  -50.906400  -82.694300
  H    -52.593000  -48.325000  -76.164600

 Total Charge           Charge          ....    0
 Multiplicity           Mult            ....    1
 Number of Electrons    NEL             ....  134
 Basis Dimension        Dim             ....  322

ORBITAL ENERGIES
----------------

  NO   OCC          E(Eh)            E(eV)
   0   2.0000     -88.965269     -2420.8680
   1   2.0000     -88.957392     -2420.6537
   2   2.0000     -10.334332      -281.2115
   3   2.0000     -10.331390      -281.1314
   4   2.0000     -10.318546      -280.7819
   5   2.0000     -10.311670      -280.5948
   6   2.0000     -10.307567      -280.4832
   7   2.0000     -10.301288      -280.3123
   8   2.0000     -10.299942      -280.2757
   9   2.0000     -10.295321      -280.1499
  10   2.0000     -10.292122      -280.0629
  11   2.0000     -10.291361      -280.0422
  12   2.0000     -10.287412      -279.9347
  13   2.0000     -10.286886      -279.9204
  14   2.0000     -10.284369      -279.8519
  15   2.0000     -10.273030      -279.5433
  16   2.0000      -8.081346      -219.9046
  17   2.0000      -8.072431      -219.6620
  18   2.0000      -6.039560      -164.3448
  19   2.0000      -6.035790      -164.2422
  20   2.0000      -6.032224      -164.1452
  21   2.0000      -6.031036      -164.1128
  22   2.0000      -6.026817      -163.9980
  23   2.0000      -6.023128      -163.8976
  24   2.0000      -1.007284       -27.4096
  25   2.0000      -0.983353       -26.7584
  26   2.0000      -0.912711       -24.8361
  27   2.0000      -0.901938       -24.5430
  28   2.0000      -0.867261       -23.5994
  29   2.0000      -0.852447       -23.1963
  30   2.0000      -0.841343       -22.8941
  31   2.0000      -0.813817       -22.1451
  32   2.0000      -0.789163       -21.4742
  33   2.0000      -0.772358       -21.0169
  34   2.0000      -0.709795       -19.3145
  35   2.0000      -0.700885       -19.0720
  36   2.0000      -0.692991       -18.8572
  37   2.0000      -0.658811       -17.9272
  38   2.0000      -0.641670       -17.4607
  39   2.0000      -0.615095       -16.7376
  40   2.0000      -0.597119       -16.2484
  41   2.0000      -0.569590       -15.4993
  42   2.0000      -0.560385       -15.2488
  43   2.0000      -0.555144       -15.1062
  44   2.0000      -0.541422       -14.7328
  45   2.0000      -0.528765       -14.3884
  46   2.0000      -0.516649       -14.0587
  47   2.0000      -0.514513       -14.0006
  48   2.0000      -0.501583       -13.6488
  49   2.0000      -0.496460       -13.5094
  50   2.0000      -0.489799       -13.3281
  51   2.0000      -0.479550       -13.0492
  52   2.0000      -0.469575       -12.7778
  53   2.0000      -0.467033       -12.7086
  54   2.0000      -0.455575       -12.3968
  55   2.0000      -0.452220       -12.3055
  56   2.0000      -0.448054       -12.1922
  57   2.0000      -0.442763       -12.0482
  58   2.0000      -0.433729       -11.8024
  59   2.0000      -0.427955       -11.6453
  60   2.0000      -0.410250       -11.1635
  61   2.0000      -0.408531       -11.1167
  62   2.0000      -0.405920       -11.0456
  63   2.0000      -0.353725        -9.6253
  64   2.0000      -0.334736        -9.1086
  65   2.0000      -0.324132        -8.8201
  66   2.0000      -0.286613        -7.7991
  67   0.0000       0.025501         0.6939
  68   0.0000       0.074911         2.0384
  69   0.0000       0.103494         2.8162
  70   0.0000       0.117769         3.2046
  71   0.0000       0.133307         3.6275

MULLIKEN ATOMIC CHARGES
-----------------------
   0 S :    0.111642
   1 C :   -0.122816
   2 C :   -0.113153
   3 C :    0.016863
   4 C :   -0.134089
   5 H :    0.011780
   6 C :    0.133301
   7 H :    0.028266
   8 H :   -0.007102
   9 C :   -0.066791
  10 H :    0.023566
  11 H :    0.021895
  12 C :   -0.033595
  13 H :    0.037373
  14 H :    0.003836
  15 H :    0.044246
  16 S :    0.061552
  17 C :   -0.086212
  18 C :   -0.022512
  19 C :   -0.073701
  20 C :   -0.116478
  21 H :    0.015328
  22 C :    0.031276
  23 H :    0.036552
  24 H :    0.037531
  25 C :   -0.090907
  26 H :    0.015885
  27 H :    0.056113
  28 C :   -0.050063
  29 H :    0.025494
  30 H :    0.036592
  31 H :    0.050071
  32 H :    0.042596
  33 H :    0.075660
Sum of atomic charges:   -0.0000000

LOEWDIN ATOMIC CHARGES
----------------------
   0 S :    0.425814
   1 C :   -0.191084
   2 C :   -0.059681
   3 C :   -0.063583
   4 C :   -0.196521
   5 H :    0.027981
   6 C :   -0.014378
   7 H :    0.026781
   8 H :    0.019301
   9 C :   -0.038237
  10 H :    0.022282
  11 H :    0.022844
  12 C :   -0.066554
  13 H :    0.031192
  14 H :    0.014798
  15 H :    0.034875
  16 S :    0.375504
  17 C :   -0.182410
  18 C :   -0.078502
  19 C :   -0.053758
  20 C :   -0.188406
  21 H :    0.024721
  22 C :   -0.040830
  23 H :    0.032751
  24 H :    0.033284
  25 C :   -0.048232
  26 H :    0.014040
  27 H :    0.041856
  28 C :   -0.073349
  29 H :    0.023554
  30 H :    0.033854
  31 H :    0.032762
  32 H :    0.017957
  33 H :    0.039373

  Mayer bond orders larger than 0.100000
B(  0-S ,  1-C ) :   1.1431 B(  0-S ,  4-C ) :   1.1798 B(  1-C ,  2-C ) :   1.6139
B(  1-C , 32-H ) :   0.9750 B(  2-C ,  3-C ) :   1.2417 B(  2-C ,  6-C ) :   0.9971
B(  3-C ,  4-C ) :   1.5591 B(  3-C ,  5-H ) :   0.9968 B(  4-C , 20-C ) :   1.0253
B(  6-C ,  7-H ) :   0.9439 B(  6-C ,  8-H ) :   0.9353 B(  6-C ,  9-C ) :   1.0760
B(  9-C , 10-H ) :   0.9545 B(  9-C , 11-H ) :   0.9577 B(  9-C , 12-C ) :   1.0748
B( 12-C , 13-H ) :   0.9718 B( 12-C , 14-H ) :   0.9705 B( 12-C , 15-H ) :   0.9736
B( 16-S , 17-C ) :   1.1513 B( 16-S , 20-C ) :   1.1234 B( 17-C , 18-C ) :   1.6082
B( 17-C , 33-H ) :   0.9681 B( 18-C , 19-C ) :   1.2327 B( 18-C , 21-H ) :   0.9881
B( 19-C , 20-C ) :   1.6027 B( 19-C , 22-C ) :   1.0359 B( 22-C , 23-H ) :   0.9372
B( 22-C , 24-H ) :   0.9370 B( 22-C , 25-C ) :   1.0572 B( 25-C , 26-H ) :   0.9598
B( 25-C , 27-H ) :   0.9575 B( 25-C , 28-C ) :   1.0615 B( 28-C , 29-H ) :   0.9774
B( 28-C , 30-H ) :   0.9737 B( 28-C , 31-H ) :   0.9754

Dispersion correction           -0.013687207
FINAL SINGLE POINT ENERGY     -1339.860704197074

DIPOLE MOMENT
-------------
                                X             Y             Z
Electronic contribution:      0.01373     -21.91164      19.93606
Nuclear contribution   :      0.40019      22.33559     -20.41984
                        -----------------------------------------
Total Dipole Moment    :      0.41392       0.42396      -0.48378
                        -----------------------------------------
Magnitude (a.u.)       :      0.76492
Magnitude (Debye)      :      1.94428

Rotational constants in cm-1:     0.017080     0.008766     0.006212
Rotational constants in MHz :   512.045187   262.783591   186.234076

                             ****ORCA TERMINATED NORMALLY****
TOTAL RUN TIME: 0 days 0 hours 0 minutes 21 seconds 167 msec
