                         Program Version 4.2.1 -  RELEASE  -
|  1> ! wB97X-D3 SP def2-SVP
|  2> %pal
|  3> nprocs 24
|  4> end
|  5>
|  6> * xyz 0 1
|  7> S 	 -38.0697 	 0.853178 	 -5.68466
|  8> C 	 -38.7409 	 1.58549 	 -4.23579
|  9> C 	 -39.8849 	 2.31628 	 -4.56335
| 10> C 	 -40.1158 	 2.34448 	 -5.97456
| 11> C 	 -39.3565 	 1.52259 	 -6.72654
| 12> H 	 -40.9618 	 2.84382 	 -6.47476
| 13> C 	 -40.6474 	 3.24732 	 -3.60173
| 14> H 	 -40.0838 	 4.09462 	 -3.51281
| 15> H 	 -40.5932 	 2.75254 	 -2.64205
| 16> C 	 -42.1176 	 3.42256 	 -3.9786
| 17> H 	 -42.1004 	 4.00866 	 -4.91774
| 18> H 	 -42.6861 	 2.47586 	 -4.15221
| 19> C 	 -42.966 	 4.43173 	 -3.13517
| 20> H 	 -43.3425 	 3.82846 	 -2.25516
| 21> H 	 -42.4345 	 5.26877 	 -2.86582
| 22> H 	 -43.7461 	 4.79037 	 -3.77421
| 23> S 	 -37.933 	 1.39805 	 -9.07213
| 24> C 	 -38.7347 	 1.20491 	 -10.5768
| 25> C 	 -40.0774 	 1.10574 	 -10.4295
| 26> C 	 -40.5139 	 1.10098 	 -9.08103
| 27> C 	 -39.4496 	 1.34978 	 -8.1846
| 28> H 	 -40.6736 	 1.16794 	 -11.3163
| 29> C 	 -41.9508 	 1.11027 	 -8.66853
| 30> H 	 -41.9897 	 0.842763 	 -7.61746
| 31> H 	 -42.433 	 0.219052 	 -9.08337
| 32> C 	 -42.5756 	 2.46186 	 -8.93717
| 33> H 	 -42.8926 	 2.56809 	 -9.9799
| 34> H 	 -41.9119 	 3.30246 	 -8.68749
| 35> C 	 -43.9352 	 2.73089 	 -8.1972
| 36> H 	 -44.2069 	 3.79356 	 -8.43361
| 37> H 	 -43.684 	 2.66641 	 -7.14335
| 38> H 	 -44.7362 	 2.09387 	 -8.5331
| 39> H 	 -38.3843 	 1.35437 	 -3.19195
| 40> H 	 -38.3478 	 1.15312 	 -11.5413
| 41> *
| 42>
| 43>                          ****END OF INPUT****

CARTESIAN COORDINATES (ANGSTROEM)
---------------------------------
  S    -38.069700    0.853178   -5.684660
  C    -38.740900    1.585490   -4.235790
  C    -39.884900    2.316280   -4.563350
  C    -40.115800    2.344480   -5.974560
  C    -39.356500    1.522590   -6.726540
  H    -40.961800    2.843820   -6.474760
  C    -40.647400    3.247320   -3.601730
  H    -40.083800    4.094620   -3.512810
  H    -40.593200    2.752540   -2.642050
  C    -42.117600    3.422560   -3.978600
  H    -42.100400    4.008660   -4.917740
  H    -42.686100    2.475860   -4.152210
  C    -42.966000    4.431730   -3.135170
  H    -43.342500    3.828460   -2.255160
  H    -42.434500    5.268770   -2.865820
  H    -43.746100    4.790370   -3.774210
  S    -37.933000    1.398050   -9.072130
  C    -38.734700    1.204910  -10.576800
  C    -40.077400    1.105740  -10.429500
  C    -40.513900    1.100980   -9.081030
  C    -39.449600    1.349780   -8.184600
  H    -40.673600    1.167940  -11.316300
  C    -41.950800    1.110270   -8.668530
  H    -41.989700    0.842763   -7.617460
  H    -42.433000    0.219052   -9.083370
  C    -42.575600    2.461860   -8.937170
  H    -42.892600    2.568090   -9.979900
  H    -41.911900    3.302460   -8.687490
  C    -43.935200    2.730890   -8.197200
  H    -44.206900    3.793560   -8.433610
  H    -43.684000    2.666410   -7.143350
  H    -44.736200    2.093870   -8.533100
  H    -38.384300    1.354370   -3.191950
  H    -38.347800    1.153120  -11.541300

 Total Charge           Charge          ....    0
 Multiplicity           Mult            ....    1
 Number of Electrons    NEL             ....  134
 Basis Dimension        Dim             ....  322

ORBITAL ENERGIES
----------------

  NO   OCC          E(Eh)            E(eV)
   0   2.0000     -88.964523     -2420.8477
   1   2.0000     -88.964397     -2420.8443
   2   2.0000     -10.329978      -281.0930
   3   2.0000     -10.329374      -281.0766
   4   2.0000     -10.321251      -280.8555
   5   2.0000     -10.306000      -280.4405
   6   2.0000     -10.303341      -280.3682
   7   2.0000     -10.303102      -280.3617
   8   2.0000     -10.292708      -280.0788
   9   2.0000     -10.290140      -280.0089
  10   2.0000     -10.290002      -280.0052
  11   2.0000     -10.288137      -279.9544
  12   2.0000     -10.287526      -279.9378
  13   2.0000     -10.285328      -279.8780
  14   2.0000     -10.282118      -279.7906
  15   2.0000     -10.277616      -279.6681
  16   2.0000      -8.079575      -219.8564
  17   2.0000      -8.078569      -219.8290
  18   2.0000      -6.038053      -164.3038
  19   2.0000      -6.037263      -164.2823
  20   2.0000      -6.033960      -164.1924
  21   2.0000      -6.033133      -164.1699
  22   2.0000      -6.030398      -164.0955
  23   2.0000      -6.029196      -164.0628
  24   2.0000      -1.006548       -27.3896
  25   2.0000      -0.985102       -26.8060
  26   2.0000      -0.912651       -24.8345
  27   2.0000      -0.910209       -24.7680
  28   2.0000      -0.871183       -23.7061
  29   2.0000      -0.850945       -23.1554
  30   2.0000      -0.843965       -22.9655
  31   2.0000      -0.821438       -22.3525
  32   2.0000      -0.784033       -21.3346
  33   2.0000      -0.771470       -20.9928
  34   2.0000      -0.710347       -19.3295
  35   2.0000      -0.698378       -19.0038
  36   2.0000      -0.690706       -18.7951
  37   2.0000      -0.657426       -17.8895
  38   2.0000      -0.640791       -17.4368
  39   2.0000      -0.619747       -16.8642
  40   2.0000      -0.596421       -16.2294
  41   2.0000      -0.574572       -15.6349
  42   2.0000      -0.569598       -15.4996
  43   2.0000      -0.561775       -15.2867
  44   2.0000      -0.533252       -14.5105
  45   2.0000      -0.529735       -14.4148
  46   2.0000      -0.520423       -14.1614
  47   2.0000      -0.511056       -13.9065
  48   2.0000      -0.505744       -13.7620
  49   2.0000      -0.502780       -13.6814
  50   2.0000      -0.494983       -13.4692
  51   2.0000      -0.485963       -13.2237
  52   2.0000      -0.470463       -12.8019
  53   2.0000      -0.463612       -12.6155
  54   2.0000      -0.458481       -12.4759
  55   2.0000      -0.451248       -12.2791
  56   2.0000      -0.444887       -12.1060
  57   2.0000      -0.444235       -12.0883
  58   2.0000      -0.440426       -11.9846
  59   2.0000      -0.420737       -11.4488
  60   2.0000      -0.414214       -11.2713
  61   2.0000      -0.411766       -11.2047
  62   2.0000      -0.400396       -10.8953
  63   2.0000      -0.352356        -9.5881
  64   2.0000      -0.331375        -9.0172
  65   2.0000      -0.328514        -8.9393
  66   2.0000      -0.290501        -7.9049
  67   0.0000       0.029483         0.8023
  68   0.0000       0.073227         1.9926
  69   0.0000       0.113332         3.0839
  70   0.0000       0.121777         3.3137
  71   0.0000       0.129751         3.5307

MULLIKEN ATOMIC CHARGES
-----------------------
   0 S :    0.099218
   1 C :   -0.150172
   2 C :   -0.098409
   3 C :    0.005033
   4 C :   -0.113579
   5 H :    0.006857
   6 C :    0.148217
   7 H :    0.023928
   8 H :    0.011429
   9 C :   -0.183147
  10 H :    0.037189
  11 H :    0.054135
  12 C :    0.000161
  13 H :    0.044057
  14 H :    0.011621
  15 H :    0.028642
  16 S :    0.109499
  17 C :   -0.050257
  18 C :   -0.046485
  19 C :   -0.046864
  20 C :   -0.171458
  21 H :    0.012172
  22 C :    0.097501
  23 H :    0.014065
  24 H :    0.026411
  25 C :   -0.104342
  26 H :    0.031234
  27 H :    0.047598
  28 C :   -0.054063
  29 H :    0.036795
  30 H :    0.029917
  31 H :    0.040722
  32 H :    0.075154
  33 H :    0.027221
Sum of atomic charges:    0.0000000

LOEWDIN ATOMIC CHARGES
----------------------
   0 S :    0.382603
   1 C :   -0.203406
   2 C :   -0.063081
   3 C :   -0.071206
   4 C :   -0.183359
   5 H :    0.032144
   6 C :   -0.021577
   7 H :    0.023243
   8 H :    0.028080
   9 C :   -0.049660
  10 H :    0.023725
  11 H :    0.032074
  12 C :   -0.054657
  13 H :    0.032089
  14 H :    0.012483
  15 H :    0.025574
  16 S :    0.417933
  17 C :   -0.185055
  18 C :   -0.072830
  19 C :   -0.051051
  20 C :   -0.193190
  21 H :    0.030177
  22 C :   -0.040492
  23 H :    0.028812
  24 H :    0.035484
  25 C :   -0.041821
  26 H :    0.025397
  27 H :    0.027807
  28 C :   -0.063167
  29 H :    0.031197
  30 H :    0.019269
  31 H :    0.022580
  32 H :    0.042985
  33 H :    0.020895

  Mayer bond orders larger than 0.100000
B(  0-S ,  1-C ) :   1.1382 B(  0-S ,  4-C ) :   1.1279 B(  1-C ,  2-C ) :   1.6100
B(  1-C , 32-H ) :   0.9619 B(  2-C ,  3-C ) :   1.2324 B(  2-C ,  6-C ) :   1.0099
B(  3-C ,  4-C ) :   1.6034 B(  3-C ,  5-H ) :   0.9818 B(  4-C , 20-C ) :   1.0440
B(  6-C ,  7-H ) :   0.9379 B(  6-C ,  8-H ) :   0.9353 B(  6-C ,  9-C ) :   1.0645
B(  9-C , 10-H ) :   0.9493 B(  9-C , 11-H ) :   0.9633 B(  9-C , 12-C ) :   1.0773
B( 12-C , 13-H ) :   0.9764 B( 12-C , 14-H ) :   0.9729 B( 12-C , 15-H ) :   0.9783
B( 16-S , 17-C ) :   1.1580 B( 16-S , 20-C ) :   1.1457 B( 17-C , 18-C ) :   1.6233
B( 17-C , 33-H ) :   0.9698 B( 18-C , 19-C ) :   1.2387 B( 18-C , 21-H ) :   0.9934
B( 19-C , 20-C ) :   1.5711 B( 19-C , 22-C ) :   1.0666 B( 22-C , 23-H ) :   0.9296
B( 22-C , 24-H ) :   0.9204 B( 22-C , 25-C ) :   1.0480 B( 25-C , 26-H ) :   0.9528
B( 25-C , 27-H ) :   0.9567 B( 25-C , 28-C ) :   1.0817 B( 28-C , 29-H ) :   0.9759
B( 28-C , 30-H ) :   0.9776 B( 28-C , 31-H ) :   0.9762

Dispersion correction           -0.014789942
FINAL SINGLE POINT ENERGY     -1339.867555876621

DIPOLE MOMENT
-------------
                                X             Y             Z
Electronic contribution:     29.73593     -13.38607      -8.85709
Nuclear contribution   :    -30.44215      13.76793       8.87026
                        -----------------------------------------
Total Dipole Moment    :     -0.70622       0.38187       0.01318
                        -----------------------------------------
Magnitude (a.u.)       :      0.80296
Magnitude (Debye)      :      2.04096

Rotational constants in cm-1:     0.017217     0.009989     0.006666
Rotational constants in MHz :   516.156873   299.455408   199.843439

                             ****ORCA TERMINATED NORMALLY****
TOTAL RUN TIME: 0 days 0 hours 0 minutes 21 seconds 176 msec
