                         Program Version 4.2.1 -  RELEASE  -
|  1> ! wB97X-D3 SP def2-SVP
|  2> %pal
|  3> nprocs 24
|  4> end
|  5>
|  6> * xyz 0 1
|  7> S 	 -40.2613 	 -14.6103 	 5.55784
|  8> C 	 -41.5059 	 -14.835 	 6.67956
|  9> C 	 -42.1222 	 -13.6514 	 7.03954
| 10> C 	 -41.5426 	 -12.5806 	 6.26937
| 11> C 	 -40.5421 	 -12.9026 	 5.41009
| 12> H 	 -41.7939 	 -11.5102 	 6.26525
| 13> C 	 -42.9291 	 -13.4045 	 8.3407
| 14> H 	 -42.8925 	 -14.3131 	 8.92843
| 15> H 	 -43.9531 	 -13.2 	 8.02349
| 16> C 	 -42.4449 	 -12.1968 	 9.16869
| 17> H 	 -42.5305 	 -11.2984 	 8.59711
| 18> H 	 -43.2066 	 -12.1249 	 9.9872
| 19> C 	 -41.0819 	 -12.5449 	 9.75322
| 20> H 	 -41.0695 	 -13.2145 	 10.6186
| 21> H 	 -40.2855 	 -12.8923 	 9.07312
| 22> H 	 -40.7329 	 -11.5621 	 10.1363
| 23> S 	 -39.4485 	 -12.9902 	 2.85337
| 24> C 	 -39.1491 	 -11.5998 	 1.95551
| 25> C 	 -39.5159 	 -10.4181 	 2.66057
| 26> C 	 -39.8148 	 -10.7228 	 4.04791
| 27> C 	 -39.9256 	 -12.1004 	 4.34161
| 28> H 	 -39.4346 	 -9.41149 	 2.21208
| 29> C 	 -40.1871 	 -9.59176 	 4.99979
| 30> H 	 -41.2707 	 -9.65947 	 5.24404
| 31> H 	 -40.094 	 -8.60889 	 4.62069
| 32> C 	 -39.5306 	 -9.71026 	 6.37682
| 33> H 	 -38.4512 	 -9.80433 	 6.3524
| 34> H 	 -39.8594 	 -10.6546 	 6.81233
| 35> C 	 -39.7131 	 -8.44883 	 7.21153
| 36> H 	 -40.7813 	 -8.37775 	 7.43902
| 37> H 	 -39.4914 	 -7.52615 	 6.65607
| 38> H 	 -39.0929 	 -8.42395 	 8.16339
| 39> H 	 -41.7205 	 -15.7893 	 7.19091
| 40> H 	 -38.9024 	 -11.6925 	 0.912276
| 41> *
| 42>
| 43>                          ****END OF INPUT****

CARTESIAN COORDINATES (ANGSTROEM)
---------------------------------
  S    -40.261300  -14.610300    5.557840
  C    -41.505900  -14.835000    6.679560
  C    -42.122200  -13.651400    7.039540
  C    -41.542600  -12.580600    6.269370
  C    -40.542100  -12.902600    5.410090
  H    -41.793900  -11.510200    6.265250
  C    -42.929100  -13.404500    8.340700
  H    -42.892500  -14.313100    8.928430
  H    -43.953100  -13.200000    8.023490
  C    -42.444900  -12.196800    9.168690
  H    -42.530500  -11.298400    8.597110
  H    -43.206600  -12.124900    9.987200
  C    -41.081900  -12.544900    9.753220
  H    -41.069500  -13.214500   10.618600
  H    -40.285500  -12.892300    9.073120
  H    -40.732900  -11.562100   10.136300
  S    -39.448500  -12.990200    2.853370
  C    -39.149100  -11.599800    1.955510
  C    -39.515900  -10.418100    2.660570
  C    -39.814800  -10.722800    4.047910
  C    -39.925600  -12.100400    4.341610
  H    -39.434600   -9.411490    2.212080
  C    -40.187100   -9.591760    4.999790
  H    -41.270700   -9.659470    5.244040
  H    -40.094000   -8.608890    4.620690
  C    -39.530600   -9.710260    6.376820
  H    -38.451200   -9.804330    6.352400
  H    -39.859400  -10.654600    6.812330
  C    -39.713100   -8.448830    7.211530
  H    -40.781300   -8.377750    7.439020
  H    -39.491400   -7.526150    6.656070
  H    -39.092900   -8.423950    8.163390
  H    -41.720500  -15.789300    7.190910
  H    -38.902400  -11.692500    0.912276

 Total Charge           Charge          ....    0
 Multiplicity           Mult            ....    1
 Number of Electrons    NEL             ....  134
 Basis Dimension        Dim             ....  322

ORBITAL ENERGIES
----------------

  NO   OCC          E(Eh)            E(eV)
   0   2.0000     -88.966439     -2420.8999
   1   2.0000     -88.964129     -2420.8370
   2   2.0000     -10.336280      -281.2645
   3   2.0000     -10.329847      -281.0894
   4   2.0000     -10.319995      -280.8214
   5   2.0000     -10.313972      -280.6574
   6   2.0000     -10.313699      -280.6500
   7   2.0000     -10.304272      -280.3935
   8   2.0000     -10.302156      -280.3359
   9   2.0000     -10.293536      -280.1013
  10   2.0000     -10.292941      -280.0852
  11   2.0000     -10.292799      -280.0813
  12   2.0000     -10.292132      -280.0631
  13   2.0000     -10.282928      -279.8127
  14   2.0000     -10.279953      -279.7317
  15   2.0000     -10.278973      -279.7051
  16   2.0000      -8.081752      -219.9157
  17   2.0000      -8.080341      -219.8773
  18   2.0000      -6.040137      -164.3605
  19   2.0000      -6.038789      -164.3238
  20   2.0000      -6.035991      -164.2477
  21   2.0000      -6.034591      -164.2096
  22   2.0000      -6.032777      -164.1602
  23   2.0000      -6.031120      -164.1151
  24   2.0000      -1.012244       -27.5446
  25   2.0000      -0.987253       -26.8645
  26   2.0000      -0.913568       -24.8595
  27   2.0000      -0.912450       -24.8290
  28   2.0000      -0.870391       -23.6846
  29   2.0000      -0.852399       -23.1950
  30   2.0000      -0.842917       -22.9369
  31   2.0000      -0.812099       -22.0983
  32   2.0000      -0.782060       -21.2809
  33   2.0000      -0.773121       -21.0377
  34   2.0000      -0.708073       -19.2676
  35   2.0000      -0.700983       -19.0747
  36   2.0000      -0.686006       -18.6672
  37   2.0000      -0.664721       -18.0880
  38   2.0000      -0.642279       -17.4773
  39   2.0000      -0.622323       -16.9343
  40   2.0000      -0.599912       -16.3244
  41   2.0000      -0.566798       -15.4234
  42   2.0000      -0.564999       -15.3744
  43   2.0000      -0.552935       -15.0461
  44   2.0000      -0.537445       -14.6246
  45   2.0000      -0.521795       -14.1988
  46   2.0000      -0.516602       -14.0575
  47   2.0000      -0.515195       -14.0192
  48   2.0000      -0.505672       -13.7600
  49   2.0000      -0.499101       -13.5812
  50   2.0000      -0.492959       -13.4141
  51   2.0000      -0.488797       -13.3009
  52   2.0000      -0.470283       -12.7970
  53   2.0000      -0.464702       -12.6452
  54   2.0000      -0.460698       -12.5362
  55   2.0000      -0.453272       -12.3342
  56   2.0000      -0.447006       -12.1637
  57   2.0000      -0.440740       -11.9932
  58   2.0000      -0.433092       -11.7850
  59   2.0000      -0.423555       -11.5255
  60   2.0000      -0.414640       -11.2829
  61   2.0000      -0.411396       -11.1947
  62   2.0000      -0.404575       -11.0090
  63   2.0000      -0.361576        -9.8390
  64   2.0000      -0.330533        -8.9942
  65   2.0000      -0.326289        -8.8788
  66   2.0000      -0.284423        -7.7395
  67   0.0000       0.022798         0.6204
  68   0.0000       0.080713         2.1963
  69   0.0000       0.104923         2.8551
  70   0.0000       0.111207         3.0261
  71   0.0000       0.124425         3.3858

MULLIKEN ATOMIC CHARGES
-----------------------
   0 S :    0.107897
   1 C :   -0.125153
   2 C :   -0.089891
   3 C :   -0.008338
   4 C :   -0.126805
   5 H :   -0.001303
   6 C :    0.069837
   7 H :    0.018084
   8 H :    0.031380
   9 C :   -0.067649
  10 H :    0.030900
  11 H :    0.037632
  12 C :   -0.068050
  13 H :    0.035158
  14 H :    0.055915
  15 H :    0.027930
  16 S :    0.102276
  17 C :   -0.094381
  18 C :   -0.040655
  19 C :   -0.042559
  20 C :   -0.113134
  21 H :    0.037098
  22 C :    0.046343
  23 H :    0.037992
  24 H :   -0.001180
  25 C :   -0.081173
  26 H :    0.025181
  27 H :    0.029013
  28 C :   -0.057682
  29 H :    0.017360
  30 H :    0.030457
  31 H :    0.050543
  32 H :    0.060620
  33 H :    0.066337
Sum of atomic charges:   -0.0000000

LOEWDIN ATOMIC CHARGES
----------------------
   0 S :    0.426792
   1 C :   -0.213942
   2 C :   -0.070239
   3 C :   -0.073433
   4 C :   -0.200463
   5 H :    0.028776
   6 C :   -0.025921
   7 H :    0.026143
   8 H :    0.028790
   9 C :   -0.037162
  10 H :    0.019491
  11 H :    0.034590
  12 C :   -0.073086
  13 H :    0.027358
  14 H :    0.031553
  15 H :    0.029567
  16 S :    0.425208
  17 C :   -0.201917
  18 C :   -0.077978
  19 C :   -0.048638
  20 C :   -0.189052
  21 H :    0.037536
  22 C :   -0.030641
  23 H :    0.033849
  24 H :    0.020796
  25 C :   -0.047484
  26 H :    0.022891
  27 H :    0.022699
  28 C :   -0.069468
  29 H :    0.019092
  30 H :    0.025347
  31 H :    0.035058
  32 H :    0.035621
  33 H :    0.028267

  Mayer bond orders larger than 0.100000
B(  0-S ,  1-C ) :   1.1641 B(  0-S ,  4-C ) :   1.1426 B(  1-C ,  2-C ) :   1.6058
B(  1-C , 32-H ) :   0.9593 B(  2-C ,  3-C ) :   1.2423 B(  2-C ,  6-C ) :   1.0124
B(  3-C ,  4-C ) :   1.5899 B(  3-C ,  5-H ) :   0.9788 B(  4-C , 20-C ) :   1.0554
B(  6-C ,  7-H ) :   0.9506 B(  6-C ,  8-H ) :   0.9299 B(  6-C ,  9-C ) :   1.0900
B(  9-C , 10-H ) :   0.9538 B(  9-C , 11-H ) :   0.9500 B(  9-C , 12-C ) :   1.0669
B( 12-C , 13-H ) :   0.9742 B( 12-C , 14-H ) :   0.9775 B( 12-C , 15-H ) :   0.9732
B( 16-S , 17-C ) :   1.2088 B( 16-S , 20-C ) :   1.1345 B( 17-C , 18-C ) :   1.5380
B( 17-C , 20-C ) :   0.1014 B( 17-C , 33-H ) :   0.9689 B( 18-C , 19-C ) :   1.2823
B( 18-C , 21-H ) :   0.9889 B( 19-C , 20-C ) :   1.5491 B( 19-C , 22-C ) :   1.0473
B( 22-C , 23-H ) :   0.9301 B( 22-C , 24-H ) :   0.9398 B( 22-C , 25-C ) :   1.0485
B( 25-C , 26-H ) :   0.9562 B( 25-C , 27-H ) :   0.9493 B( 25-C , 28-C ) :   1.0820
B( 28-C , 29-H ) :   0.9723 B( 28-C , 30-H ) :   0.9726 B( 28-C , 31-H ) :   0.9747

Dispersion correction           -0.015442924
FINAL SINGLE POINT ENERGY     -1339.875135977718

DIPOLE MOMENT
-------------
                                X             Y             Z
Electronic contribution:      5.82529     -18.59876     -24.03983
Nuclear contribution   :     -6.10422      19.07562      24.37128
                        -----------------------------------------
Total Dipole Moment    :     -0.27893       0.47686       0.33145
                        -----------------------------------------
Magnitude (a.u.)       :      0.64425
Magnitude (Debye)      :      1.63755

Rotational constants in cm-1:     0.018251     0.010669     0.007265
Rotational constants in MHz :   547.166144   319.854480   217.789786

                             ****ORCA TERMINATED NORMALLY****
TOTAL RUN TIME: 0 days 0 hours 0 minutes 23 seconds 110 msec
