                         Program Version 4.2.1 -  RELEASE  -
|  1> ! wB97X-D3 SP def2-SVP
|  2> %pal
|  3> nprocs 24
|  4> end
|  5>
|  6> * xyz 0 1
|  7> S 	 -120.963 	 66.7729 	 -65.7658
|  8> C 	 -121.667 	 65.1702 	 -66.115
|  9> C 	 -121.561 	 64.3437 	 -64.9896
| 10> C 	 -120.999 	 65.0346 	 -63.8253
| 11> C 	 -120.771 	 66.3735 	 -64.0568
| 12> H 	 -120.844 	 64.6614 	 -62.7748
| 13> C 	 -121.924 	 62.8429 	 -64.9571
| 14> H 	 -122.174 	 62.3556 	 -65.8927
| 15> H 	 -122.863 	 62.6264 	 -64.4325
| 16> C 	 -120.828 	 62.0097 	 -64.1627
| 17> H 	 -119.834 	 62.2002 	 -64.6012
| 18> H 	 -120.802 	 62.3819 	 -63.1649
| 19> C 	 -121.137 	 60.5006 	 -64.2226
| 20> H 	 -120.477 	 59.9368 	 -63.6042
| 21> H 	 -122.097 	 60.1855 	 -63.8326
| 22> H 	 -121.042 	 60.0611 	 -65.2372
| 23> S 	 -118.497 	 67.7356 	 -63.247
| 24> C 	 -118.585 	 68.6846 	 -61.828
| 25> C 	 -119.753 	 68.6138 	 -61.1832
| 26> C 	 -120.742 	 67.7962 	 -61.8736
| 27> C 	 -120.211 	 67.3126 	 -63.0596
| 28> H 	 -119.916 	 69.2991 	 -60.37
| 29> C 	 -122.079 	 67.4738 	 -61.2954
| 30> H 	 -122.745 	 67.1495 	 -62.1431
| 31> H 	 -122.524 	 68.4028 	 -60.8322
| 32> C 	 -122.12 	 66.2528 	 -60.2817
| 33> H 	 -121.624 	 65.3775 	 -60.728
| 34> H 	 -123.131 	 66.0315 	 -60.0828
| 35> C 	 -121.348 	 66.4766 	 -58.9994
| 36> H 	 -121.267 	 65.5476 	 -58.483
| 37> H 	 -121.838 	 67.2153 	 -58.371
| 38> H 	 -120.333 	 66.7665 	 -59.2095
| 39> H 	 -121.794 	 64.7825 	 -67.1023
| 40> H 	 -117.747 	 69.1656 	 -61.3052
| 41> *
| 42>
| 43>                          ****END OF INPUT****

CARTESIAN COORDINATES (ANGSTROEM)
---------------------------------
  S    -120.963000   66.772900  -65.765800
  C    -121.667000   65.170200  -66.115000
  C    -121.561000   64.343700  -64.989600
  C    -120.999000   65.034600  -63.825300
  C    -120.771000   66.373500  -64.056800
  H    -120.844000   64.661400  -62.774800
  C    -121.924000   62.842900  -64.957100
  H    -122.174000   62.355600  -65.892700
  H    -122.863000   62.626400  -64.432500
  C    -120.828000   62.009700  -64.162700
  H    -119.834000   62.200200  -64.601200
  H    -120.802000   62.381900  -63.164900
  C    -121.137000   60.500600  -64.222600
  H    -120.477000   59.936800  -63.604200
  H    -122.097000   60.185500  -63.832600
  H    -121.042000   60.061100  -65.237200
  S    -118.497000   67.735600  -63.247000
  C    -118.585000   68.684600  -61.828000
  C    -119.753000   68.613800  -61.183200
  C    -120.742000   67.796200  -61.873600
  C    -120.211000   67.312600  -63.059600
  H    -119.916000   69.299100  -60.370000
  C    -122.079000   67.473800  -61.295400
  H    -122.745000   67.149500  -62.143100
  H    -122.524000   68.402800  -60.832200
  C    -122.120000   66.252800  -60.281700
  H    -121.624000   65.377500  -60.728000
  H    -123.131000   66.031500  -60.082800
  C    -121.348000   66.476600  -58.999400
  H    -121.267000   65.547600  -58.483000
  H    -121.838000   67.215300  -58.371000
  H    -120.333000   66.766500  -59.209500
  H    -121.794000   64.782500  -67.102300
  H    -117.747000   69.165600  -61.305200

 Total Charge           Charge          ....    0
 Multiplicity           Mult            ....    1
 Number of Electrons    NEL             ....  134
 Basis Dimension        Dim             ....  322

ORBITAL ENERGIES
----------------

  NO   OCC          E(Eh)            E(eV)
   0   2.0000     -88.965380     -2420.8711
   1   2.0000     -88.964448     -2420.8457
   2   2.0000     -10.331911      -281.1456
   3   2.0000     -10.328050      -281.0405
   4   2.0000     -10.317606      -280.7563
   5   2.0000     -10.312829      -280.6263
   6   2.0000     -10.310482      -280.5625
   7   2.0000     -10.306354      -280.4502
   8   2.0000     -10.302892      -280.3559
   9   2.0000     -10.299189      -280.2552
  10   2.0000     -10.296824      -280.1908
  11   2.0000     -10.291098      -280.0350
  12   2.0000     -10.287985      -279.9503
  13   2.0000     -10.286807      -279.9182
  14   2.0000     -10.278780      -279.6998
  15   2.0000     -10.269545      -279.4485
  16   2.0000      -8.079826      -219.8632
  17   2.0000      -8.079318      -219.8494
  18   2.0000      -6.038306      -164.3107
  19   2.0000      -6.037907      -164.2998
  20   2.0000      -6.034363      -164.2034
  21   2.0000      -6.034019      -164.1940
  22   2.0000      -6.030448      -164.0968
  23   2.0000      -6.029942      -164.0831
  24   2.0000      -1.004608       -27.3368
  25   2.0000      -0.979860       -26.6633
  26   2.0000      -0.907690       -24.6995
  27   2.0000      -0.903005       -24.5720
  28   2.0000      -0.868715       -23.6389
  29   2.0000      -0.852076       -23.1862
  30   2.0000      -0.840577       -22.8733
  31   2.0000      -0.817004       -22.2318
  32   2.0000      -0.782162       -21.2837
  33   2.0000      -0.771313       -20.9885
  34   2.0000      -0.711974       -19.3738
  35   2.0000      -0.701041       -19.0763
  36   2.0000      -0.686875       -18.6908
  37   2.0000      -0.655605       -17.8399
  38   2.0000      -0.644354       -17.5338
  39   2.0000      -0.613742       -16.7008
  40   2.0000      -0.592312       -16.1176
  41   2.0000      -0.566707       -15.4209
  42   2.0000      -0.559161       -15.2156
  43   2.0000      -0.554456       -15.0875
  44   2.0000      -0.543307       -14.7841
  45   2.0000      -0.520840       -14.1728
  46   2.0000      -0.512449       -13.9444
  47   2.0000      -0.507747       -13.8165
  48   2.0000      -0.501264       -13.6401
  49   2.0000      -0.495921       -13.4947
  50   2.0000      -0.489077       -13.3085
  51   2.0000      -0.483776       -13.1642
  52   2.0000      -0.470318       -12.7980
  53   2.0000      -0.468731       -12.7548
  54   2.0000      -0.456315       -12.4170
  55   2.0000      -0.452020       -12.3001
  56   2.0000      -0.444107       -12.0848
  57   2.0000      -0.435574       -11.8526
  58   2.0000      -0.430167       -11.7054
  59   2.0000      -0.427574       -11.6349
  60   2.0000      -0.424808       -11.5596
  61   2.0000      -0.420168       -11.4334
  62   2.0000      -0.412932       -11.2365
  63   2.0000      -0.340405        -9.2629
  64   2.0000      -0.327510        -8.9120
  65   2.0000      -0.325862        -8.8671
  66   2.0000      -0.306169        -8.3313
  67   0.0000       0.036979         1.0063
  68   0.0000       0.062572         1.7027
  69   0.0000       0.115217         3.1352
  70   0.0000       0.119988         3.2650
  71   0.0000       0.125596         3.4177

MULLIKEN ATOMIC CHARGES
-----------------------
   0 S :    0.099717
   1 C :   -0.104153
   2 C :   -0.064052
   3 C :    0.019543
   4 C :   -0.170943
   5 H :    0.040919
   6 C :    0.052556
   7 H :    0.011728
   8 H :    0.031024
   9 C :   -0.098387
  10 H :    0.043819
  11 H :    0.032074
  12 C :   -0.037392
  13 H :    0.020588
  14 H :    0.020591
  15 H :    0.036521
  16 S :    0.114029
  17 C :   -0.081182
  18 C :   -0.044354
  19 C :   -0.022815
  20 C :   -0.181764
  21 H :    0.019811
  22 C :    0.026235
  23 H :    0.044950
  24 H :    0.038859
  25 C :   -0.046589
  26 H :    0.016835
  27 H :    0.026245
  28 C :   -0.038264
  29 H :    0.025436
  30 H :    0.026741
  31 H :    0.031987
  32 H :    0.049527
  33 H :    0.060161
Sum of atomic charges:   -0.0000000

LOEWDIN ATOMIC CHARGES
----------------------
   0 S :    0.383229
   1 C :   -0.188137
   2 C :   -0.054081
   3 C :   -0.067105
   4 C :   -0.192633
   5 H :    0.039838
   6 C :   -0.034646
   7 H :    0.025066
   8 H :    0.032513
   9 C :   -0.033959
  10 H :    0.028901
  11 H :    0.017600
  12 C :   -0.069085
  13 H :    0.022549
  14 H :    0.022320
  15 H :    0.030012
  16 S :    0.406699
  17 C :   -0.196944
  18 C :   -0.079215
  19 C :   -0.050986
  20 C :   -0.193532
  21 H :    0.031558
  22 C :   -0.039188
  23 H :    0.040456
  24 H :    0.036202
  25 C :   -0.028460
  26 H :    0.023064
  27 H :    0.018689
  28 C :   -0.063469
  29 H :    0.023663
  30 H :    0.021876
  31 H :    0.023866
  32 H :    0.026172
  33 H :    0.037166

  Mayer bond orders larger than 0.100000
B(  0-S ,  1-C ) :   1.1201 B(  0-S ,  4-C ) :   1.1452 B(  1-C ,  2-C ) :   1.6381
B(  1-C , 32-H ) :   0.9687 B(  2-C ,  3-C ) :   1.2023 B(  2-C ,  6-C ) :   1.0196
B(  3-C ,  4-C ) :   1.6137 B(  3-C ,  5-H ) :   0.9751 B(  4-C , 20-C ) :   1.0099
B(  6-C ,  7-H ) :   0.9534 B(  6-C ,  8-H ) :   0.9396 B(  6-C ,  9-C ) :   1.0478
B(  9-C , 10-H ) :   0.9617 B(  9-C , 11-H ) :   0.9526 B(  9-C , 12-C ) :   1.0870
B( 12-C , 13-H ) :   0.9719 B( 12-C , 14-H ) :   0.9731 B( 12-C , 15-H ) :   0.9751
B( 16-S , 17-C ) :   1.1442 B( 16-S , 20-C ) :   1.1373 B( 17-C , 18-C ) :   1.6744
B( 17-C , 33-H ) :   0.9532 B( 18-C , 19-C ) :   1.1948 B( 18-C , 21-H ) :   0.9836
B( 19-C , 20-C ) :   1.6402 B( 19-C , 22-C ) :   1.0622 B( 22-C , 23-H ) :   0.9263
B( 22-C , 24-H ) :   0.9378 B( 22-C , 25-C ) :   1.0655 B( 25-C , 26-H ) :   0.9525
B( 25-C , 27-H ) :   0.9556 B( 25-C , 28-C ) :   1.0867 B( 28-C , 29-H ) :   0.9713
B( 28-C , 30-H ) :   0.9753 B( 28-C , 31-H ) :   0.9697

Dispersion correction           -0.014605360
FINAL SINGLE POINT ENERGY     -1339.882413427360

DIPOLE MOMENT
-------------
                                X             Y             Z
Electronic contribution:     10.01157      21.60064     -15.41648
Nuclear contribution   :    -10.16559     -22.11171      15.94995
                        -----------------------------------------
Total Dipole Moment    :     -0.15401      -0.51107       0.53346
                        -----------------------------------------
Magnitude (a.u.)       :      0.75465
Magnitude (Debye)      :      1.91817

Rotational constants in cm-1:     0.017543     0.008726     0.006986
Rotational constants in MHz :   525.925739   261.588174   209.426795

                             ****ORCA TERMINATED NORMALLY****
TOTAL RUN TIME: 0 days 0 hours 0 minutes 21 seconds 777 msec
