                         Program Version 4.2.1 -  RELEASE  -
|  1> ! wB97X-D3 SP def2-SVP
|  2> %pal
|  3> nprocs 24
|  4> end
|  5>
|  6> * xyz 0 1
|  7> S 	 -100.939 	 50.9137 	 -101.539
|  8> C 	 -101.263 	 52.5813 	 -101.361
|  9> C 	 -100.222 	 53.2267 	 -100.736
| 10> C 	 -99.0098 	 52.3958 	 -100.571
| 11> C 	 -99.1837 	 51.1319 	 -101.225
| 12> H 	 -98.1077 	 52.7817 	 -100.085
| 13> C 	 -100.061 	 54.6678 	 -100.257
| 14> H 	 -99.2285 	 54.7317 	 -99.5655
| 15> H 	 -100.938 	 54.9718 	 -99.7124
| 16> C 	 -100.001 	 55.7504 	 -101.306
| 17> H 	 -99.0456 	 55.7651 	 -101.767
| 18> H 	 -100.603 	 55.6122 	 -102.219
| 19> C 	 -100.328 	 57.0953 	 -100.725
| 20> H 	 -100.011 	 57.256 	 -99.7056
| 21> H 	 -99.9885 	 57.855 	 -101.441
| 22> H 	 -101.452 	 57.1075 	 -100.607
| 23> S 	 -97.0957 	 49.6061 	 -100.138
| 24> C 	 -96.2729 	 48.5106 	 -101.188
| 25> C 	 -96.6535 	 48.5296 	 -102.493
| 26> C 	 -97.7449 	 49.4327 	 -102.644
| 27> C 	 -98.1398 	 50.0378 	 -101.455
| 28> H 	 -96.2285 	 47.8836 	 -103.314
| 29> C 	 -98.2924 	 49.7264 	 -104.003
| 30> H 	 -97.4553 	 49.9416 	 -104.738
| 31> H 	 -98.7939 	 50.7214 	 -103.848
| 32> C 	 -99.2882 	 48.6357 	 -104.417
| 33> H 	 -100.01 	 48.912 	 -105.226
| 34> H 	 -99.8771 	 48.3296 	 -103.61
| 35> C 	 -98.6635 	 47.406 	 -105.032
| 36> H 	 -97.6956 	 47.714 	 -105.481
| 37> H 	 -99.3313 	 46.9931 	 -105.779
| 38> H 	 -98.5736 	 46.603 	 -104.327
| 39> H 	 -102.248 	 52.9542 	 -101.503
| 40> H 	 -95.3515 	 48.0525 	 -100.876
| 41> *
| 42>
| 43>                          ****END OF INPUT****

CARTESIAN COORDINATES (ANGSTROEM)
---------------------------------
  S    -100.939000   50.913700  -101.539000
  C    -101.263000   52.581300  -101.361000
  C    -100.222000   53.226700  -100.736000
  C    -99.009800   52.395800  -100.571000
  C    -99.183700   51.131900  -101.225000
  H    -98.107700   52.781700  -100.085000
  C    -100.061000   54.667800  -100.257000
  H    -99.228500   54.731700  -99.565500
  H    -100.938000   54.971800  -99.712400
  C    -100.001000   55.750400  -101.306000
  H    -99.045600   55.765100  -101.767000
  H    -100.603000   55.612200  -102.219000
  C    -100.328000   57.095300  -100.725000
  H    -100.011000   57.256000  -99.705600
  H    -99.988500   57.855000  -101.441000
  H    -101.452000   57.107500  -100.607000
  S    -97.095700   49.606100  -100.138000
  C    -96.272900   48.510600  -101.188000
  C    -96.653500   48.529600  -102.493000
  C    -97.744900   49.432700  -102.644000
  C    -98.139800   50.037800  -101.455000
  H    -96.228500   47.883600  -103.314000
  C    -98.292400   49.726400  -104.003000
  H    -97.455300   49.941600  -104.738000
  H    -98.793900   50.721400  -103.848000
  C    -99.288200   48.635700  -104.417000
  H    -100.010000   48.912000  -105.226000
  H    -99.877100   48.329600  -103.610000
  C    -98.663500   47.406000  -105.032000
  H    -97.695600   47.714000  -105.481000
  H    -99.331300   46.993100  -105.779000
  H    -98.573600   46.603000  -104.327000
  H    -102.248000   52.954200  -101.503000
  H    -95.351500   48.052500  -100.876000

 Total Charge           Charge          ....    0
 Multiplicity           Mult            ....    1
 Number of Electrons    NEL             ....  134
 Basis Dimension        Dim             ....  322

ORBITAL ENERGIES
----------------

  NO   OCC          E(Eh)            E(eV)
   0   2.0000     -88.967445     -2420.9273
   1   2.0000     -88.965602     -2420.8771
   2   2.0000     -10.343215      -281.4532
   3   2.0000     -10.328102      -281.0420
   4   2.0000     -10.312404      -280.6148
   5   2.0000     -10.310536      -280.5639
   6   2.0000     -10.305178      -280.4182
   7   2.0000     -10.304188      -280.3912
   8   2.0000     -10.299252      -280.2569
   9   2.0000     -10.294506      -280.1278
  10   2.0000     -10.292270      -280.0669
  11   2.0000     -10.288755      -279.9712
  12   2.0000     -10.279793      -279.7274
  13   2.0000     -10.277631      -279.6686
  14   2.0000     -10.276263      -279.6313
  15   2.0000     -10.270901      -279.4854
  16   2.0000      -8.082836      -219.9451
  17   2.0000      -8.080136      -219.8717
  18   2.0000      -6.041142      -164.3878
  19   2.0000      -6.038735      -164.3223
  20   2.0000      -6.037407      -164.2862
  21   2.0000      -6.034747      -164.2138
  22   2.0000      -6.033631      -164.1835
  23   2.0000      -6.030730      -164.1045
  24   2.0000      -1.004650       -27.3379
  25   2.0000      -0.983953       -26.7747
  26   2.0000      -0.916435       -24.9375
  27   2.0000      -0.911346       -24.7990
  28   2.0000      -0.863797       -23.5051
  29   2.0000      -0.853120       -23.2146
  30   2.0000      -0.847506       -23.0618
  31   2.0000      -0.812197       -22.1010
  32   2.0000      -0.777647       -21.1608
  33   2.0000      -0.767526       -20.8854
  34   2.0000      -0.702131       -19.1059
  35   2.0000      -0.698357       -19.0033
  36   2.0000      -0.686084       -18.6693
  37   2.0000      -0.662169       -18.0185
  38   2.0000      -0.643417       -17.5083
  39   2.0000      -0.614701       -16.7269
  40   2.0000      -0.596924       -16.2431
  41   2.0000      -0.569294       -15.4913
  42   2.0000      -0.560775       -15.2595
  43   2.0000      -0.549865       -14.9626
  44   2.0000      -0.546921       -14.8825
  45   2.0000      -0.527305       -14.3487
  46   2.0000      -0.516917       -14.0660
  47   2.0000      -0.511189       -13.9101
  48   2.0000      -0.499321       -13.5872
  49   2.0000      -0.494291       -13.4503
  50   2.0000      -0.489403       -13.3173
  51   2.0000      -0.476811       -12.9747
  52   2.0000      -0.468821       -12.7573
  53   2.0000      -0.467018       -12.7082
  54   2.0000      -0.464771       -12.6471
  55   2.0000      -0.447780       -12.1847
  56   2.0000      -0.442722       -12.0471
  57   2.0000      -0.440177       -11.9778
  58   2.0000      -0.435661       -11.8550
  59   2.0000      -0.422093       -11.4857
  60   2.0000      -0.417021       -11.3477
  61   2.0000      -0.407283       -11.0827
  62   2.0000      -0.400695       -10.9035
  63   2.0000      -0.343178        -9.3383
  64   2.0000      -0.334037        -9.0896
  65   2.0000      -0.321067        -8.7367
  66   2.0000      -0.295237        -8.0338
  67   0.0000       0.027978         0.7613
  68   0.0000       0.071036         1.9330
  69   0.0000       0.100928         2.7464
  70   0.0000       0.111727         3.0402
  71   0.0000       0.133795         3.6407

MULLIKEN ATOMIC CHARGES
-----------------------
   0 S :    0.110789
   1 C :   -0.112504
   2 C :   -0.086748
   3 C :    0.017273
   4 C :   -0.164437
   5 H :    0.029710
   6 C :    0.080306
   7 H :    0.022658
   8 H :    0.008879
   9 C :   -0.056049
  10 H :    0.008061
  11 H :    0.027260
  12 C :   -0.064693
  13 H :    0.029953
  14 H :    0.044383
  15 H :    0.032253
  16 S :    0.118085
  17 C :   -0.077492
  18 C :   -0.038092
  19 C :   -0.068785
  20 C :   -0.150705
  21 H :    0.045807
  22 C :    0.026775
  23 H :    0.047355
  24 H :    0.039547
  25 C :   -0.039693
  26 H :    0.032760
  27 H :    0.013044
  28 C :   -0.048579
  29 H :    0.028890
  30 H :    0.027037
  31 H :    0.027892
  32 H :    0.040365
  33 H :    0.048697
Sum of atomic charges:    0.0000000

LOEWDIN ATOMIC CHARGES
----------------------
   0 S :    0.408181
   1 C :   -0.207585
   2 C :   -0.059144
   3 C :   -0.062723
   4 C :   -0.180230
   5 H :    0.032941
   6 C :   -0.030261
   7 H :    0.030517
   8 H :    0.026248
   9 C :   -0.047675
  10 H :    0.015068
  11 H :    0.028681
  12 C :   -0.065844
  13 H :    0.021373
  14 H :    0.031310
  15 H :    0.029668
  16 S :    0.423259
  17 C :   -0.184325
  18 C :   -0.076837
  19 C :   -0.054170
  20 C :   -0.216005
  21 H :    0.046987
  22 C :   -0.040136
  23 H :    0.037237
  24 H :    0.036830
  25 C :   -0.041254
  26 H :    0.030463
  27 H :    0.016816
  28 C :   -0.065774
  29 H :    0.024287
  30 H :    0.025888
  31 H :    0.020126
  32 H :    0.023103
  33 H :    0.022981

  Mayer bond orders larger than 0.100000
B(  0-S ,  1-C ) :   1.1399 B(  0-S ,  4-C ) :   1.1605 B(  1-C ,  2-C ) :   1.6058
B(  1-C , 32-H ) :   0.9756 B(  2-C ,  3-C ) :   1.2406 B(  2-C ,  6-C ) :   1.0242
B(  3-C ,  4-C ) :   1.5517 B(  3-C ,  5-H ) :   0.9880 B(  4-C , 20-C ) :   1.0099
B(  6-C ,  7-H ) :   0.9399 B(  6-C ,  8-H ) :   0.9393 B(  6-C ,  9-C ) :   1.0580
B(  9-C , 10-H ) :   0.9508 B(  9-C , 11-H ) :   0.9554 B(  9-C , 12-C ) :   1.0783
B( 12-C , 13-H ) :   0.9760 B( 12-C , 14-H ) :   0.9721 B( 12-C , 15-H ) :   0.9731
B( 16-S , 17-C ) :   1.1713 B( 16-S , 20-C ) :   1.1416 B( 17-C , 18-C ) :   1.6069
B( 17-C , 33-H ) :   0.9608 B( 18-C , 19-C ) :   1.2569 B( 18-C , 21-H ) :   0.9794
B( 19-C , 20-C ) :   1.5994 B( 19-C , 22-C ) :   1.0377 B( 22-C , 23-H ) :   0.9484
B( 22-C , 24-H ) :   0.9262 B( 22-C , 25-C ) :   1.0614 B( 25-C , 26-H ) :   0.9648
B( 25-C , 27-H ) :   0.9510 B( 25-C , 28-C ) :   1.0749 B( 28-C , 29-H ) :   0.9737
B( 28-C , 30-H ) :   0.9767 B( 28-C , 31-H ) :   0.9735

Dispersion correction           -0.014206723
FINAL SINGLE POINT ENERGY     -1339.858676431912

DIPOLE MOMENT
-------------
                                X             Y             Z
Electronic contribution:      3.31877     -12.85917      12.12184
Nuclear contribution   :     -3.18987      13.18161     -12.33947
                        -----------------------------------------
Total Dipole Moment    :      0.12890       0.32244      -0.21763
                        -----------------------------------------
Magnitude (a.u.)       :      0.40981
Magnitude (Debye)      :      1.04166

Rotational constants in cm-1:     0.023090     0.007090     0.006184
Rotational constants in MHz :   692.229749   212.542861   185.378729

                             ****ORCA TERMINATED NORMALLY****
TOTAL RUN TIME: 0 days 0 hours 0 minutes 21 seconds 202 msec
