                         Program Version 4.2.1 -  RELEASE  -
|  1> ! wB97X-D3 SP def2-SVP
|  2> %pal
|  3> nprocs 24
|  4> end
|  5>
|  6> * xyz 0 1
|  7> S 	 -101.245 	 19.9129 	 -121.921
|  8> C 	 -102.388 	 21.218 	 -122.211
|  9> C 	 -103.709 	 20.86 	 -122.001
| 10> C 	 -103.81 	 19.4337 	 -121.787
| 11> C 	 -102.591 	 18.7217 	 -121.776
| 12> H 	 -104.737 	 18.8437 	 -121.647
| 13> C 	 -104.952 	 21.8594 	 -122.161
| 14> H 	 -105.827 	 21.1704 	 -122.288
| 15> H 	 -104.877 	 22.51 	 -123.08
| 16> C 	 -105.17 	 22.7391 	 -120.909
| 17> H 	 -105.027 	 22.0792 	 -120.003
| 18> H 	 -104.525 	 23.6476 	 -120.885
| 19> C 	 -106.622 	 23.1323 	 -120.904
| 20> H 	 -106.962 	 23.8852 	 -121.586
| 21> H 	 -107.317 	 22.2475 	 -121.041
| 22> H 	 -106.814 	 23.6155 	 -119.956
| 23> S 	 -102.19 	 16.6816 	 -120.049
| 24> C 	 -102.23 	 15.0471 	 -120.644
| 25> C 	 -102.286 	 15.0653 	 -122.034
| 26> C 	 -102.518 	 16.3013 	 -122.659
| 27> C 	 -102.427 	 17.2945 	 -121.681
| 28> H 	 -102.177 	 14.1122 	 -122.532
| 29> C 	 -102.79 	 16.5751 	 -124.187
| 30> H 	 -101.859 	 16.658 	 -124.664
| 31> H 	 -103.1 	 17.6021 	 -124.164
| 32> C 	 -103.71 	 15.5216 	 -124.984
| 33> H 	 -104.681 	 15.4159 	 -124.489
| 34> H 	 -103.12 	 14.5356 	 -124.928
| 35> C 	 -103.764 	 15.9708 	 -126.403
| 36> H 	 -102.807 	 16.3684 	 -126.821
| 37> H 	 -104.551 	 16.7418 	 -126.436
| 38> H 	 -104.115 	 15.1419 	 -127.096
| 39> H 	 -102.193 	 22.1942 	 -122.656
| 40> H 	 -101.954 	 14.2365 	 -120.024
| 41> *
| 42>
| 43>                          ****END OF INPUT****

CARTESIAN COORDINATES (ANGSTROEM)
---------------------------------
  S    -101.245000   19.912900  -121.921000
  C    -102.388000   21.218000  -122.211000
  C    -103.709000   20.860000  -122.001000
  C    -103.810000   19.433700  -121.787000
  C    -102.591000   18.721700  -121.776000
  H    -104.737000   18.843700  -121.647000
  C    -104.952000   21.859400  -122.161000
  H    -105.827000   21.170400  -122.288000
  H    -104.877000   22.510000  -123.080000
  C    -105.170000   22.739100  -120.909000
  H    -105.027000   22.079200  -120.003000
  H    -104.525000   23.647600  -120.885000
  C    -106.622000   23.132300  -120.904000
  H    -106.962000   23.885200  -121.586000
  H    -107.317000   22.247500  -121.041000
  H    -106.814000   23.615500  -119.956000
  S    -102.190000   16.681600  -120.049000
  C    -102.230000   15.047100  -120.644000
  C    -102.286000   15.065300  -122.034000
  C    -102.518000   16.301300  -122.659000
  C    -102.427000   17.294500  -121.681000
  H    -102.177000   14.112200  -122.532000
  C    -102.790000   16.575100  -124.187000
  H    -101.859000   16.658000  -124.664000
  H    -103.100000   17.602100  -124.164000
  C    -103.710000   15.521600  -124.984000
  H    -104.681000   15.415900  -124.489000
  H    -103.120000   14.535600  -124.928000
  C    -103.764000   15.970800  -126.403000
  H    -102.807000   16.368400  -126.821000
  H    -104.551000   16.741800  -126.436000
  H    -104.115000   15.141900  -127.096000
  H    -102.193000   22.194200  -122.656000
  H    -101.954000   14.236500  -120.024000

 Total Charge           Charge          ....    0
 Multiplicity           Mult            ....    1
 Number of Electrons    NEL             ....  134
 Basis Dimension        Dim             ....  322

ORBITAL ENERGIES
----------------

  NO   OCC          E(Eh)            E(eV)
   0   2.0000     -88.965647     -2420.8783
   1   2.0000     -88.963040     -2420.8074
   2   2.0000     -10.329482      -281.0795
   3   2.0000     -10.323043      -280.9043
   4   2.0000     -10.314394      -280.6689
   5   2.0000     -10.312659      -280.6217
   6   2.0000     -10.306782      -280.4618
   7   2.0000     -10.306601      -280.4569
   8   2.0000     -10.305182      -280.4183
   9   2.0000     -10.301477      -280.3174
  10   2.0000     -10.300159      -280.2816
  11   2.0000     -10.293463      -280.0994
  12   2.0000     -10.293459      -280.0993
  13   2.0000     -10.290986      -280.0320
  14   2.0000     -10.286353      -279.9059
  15   2.0000     -10.276359      -279.6339
  16   2.0000      -8.079227      -219.8469
  17   2.0000      -8.077994      -219.8134
  18   2.0000      -6.037872      -164.2989
  19   2.0000      -6.036354      -164.2576
  20   2.0000      -6.033882      -164.1903
  21   2.0000      -6.032442      -164.1511
  22   2.0000      -6.029920      -164.0825
  23   2.0000      -6.028928      -164.0555
  24   2.0000      -1.000489       -27.2247
  25   2.0000      -0.974719       -26.5235
  26   2.0000      -0.907013       -24.6811
  27   2.0000      -0.903518       -24.5860
  28   2.0000      -0.867844       -23.6152
  29   2.0000      -0.853199       -23.2167
  30   2.0000      -0.840521       -22.8717
  31   2.0000      -0.805504       -21.9189
  32   2.0000      -0.778935       -21.1959
  33   2.0000      -0.766848       -20.8670
  34   2.0000      -0.700029       -19.0488
  35   2.0000      -0.699250       -19.0276
  36   2.0000      -0.692071       -18.8322
  37   2.0000      -0.653948       -17.7948
  38   2.0000      -0.635136       -17.2829
  39   2.0000      -0.609241       -16.5783
  40   2.0000      -0.593476       -16.1493
  41   2.0000      -0.568461       -15.4686
  42   2.0000      -0.567946       -15.4546
  43   2.0000      -0.557391       -15.1674
  44   2.0000      -0.526553       -14.3282
  45   2.0000      -0.516800       -14.0628
  46   2.0000      -0.516408       -14.0522
  47   2.0000      -0.506268       -13.7762
  48   2.0000      -0.505147       -13.7457
  49   2.0000      -0.491571       -13.3763
  50   2.0000      -0.489642       -13.3238
  51   2.0000      -0.476076       -12.9547
  52   2.0000      -0.466048       -12.6818
  53   2.0000      -0.461491       -12.5578
  54   2.0000      -0.457265       -12.4428
  55   2.0000      -0.448623       -12.2076
  56   2.0000      -0.441821       -12.0226
  57   2.0000      -0.437627       -11.9084
  58   2.0000      -0.435803       -11.8588
  59   2.0000      -0.422959       -11.5093
  60   2.0000      -0.419409       -11.4127
  61   2.0000      -0.414717       -11.2850
  62   2.0000      -0.408975       -11.1288
  63   2.0000      -0.335462        -9.1284
  64   2.0000      -0.328272        -8.9327
  65   2.0000      -0.318043        -8.6544
  66   2.0000      -0.304426        -8.2839
  67   0.0000       0.042752         1.1633
  68   0.0000       0.045581         1.2403
  69   0.0000       0.119272         3.2456
  70   0.0000       0.123892         3.3713
  71   0.0000       0.126166         3.4332

MULLIKEN ATOMIC CHARGES
-----------------------
   0 S :    0.112758
   1 C :   -0.117765
   2 C :   -0.081942
   3 C :    0.040773
   4 C :   -0.201069
   5 H :    0.025069
   6 C :    0.017471
   7 H :    0.028674
   8 H :    0.048131
   9 C :   -0.070037
  10 H :    0.048930
  11 H :    0.046323
  12 C :   -0.062692
  13 H :    0.024247
  14 H :    0.037106
  15 H :    0.025161
  16 S :    0.114014
  17 C :   -0.086703
  18 C :   -0.056711
  19 C :    0.007303
  20 C :   -0.213508
  21 H :    0.013693
  22 C :    0.097268
  23 H :    0.020941
  24 H :    0.021018
  25 C :   -0.092772
  26 H :    0.050327
  27 H :    0.043578
  28 C :   -0.062608
  29 H :    0.043745
  30 H :    0.035705
  31 H :    0.043871
  32 H :    0.049580
  33 H :    0.050119
Sum of atomic charges:   -0.0000000

LOEWDIN ATOMIC CHARGES
----------------------
   0 S :    0.379229
   1 C :   -0.195900
   2 C :   -0.070527
   3 C :   -0.059222
   4 C :   -0.198575
   5 H :    0.035740
   6 C :   -0.030920
   7 H :    0.030829
   8 H :    0.035708
   9 C :   -0.045952
  10 H :    0.036353
  11 H :    0.031197
  12 C :   -0.073400
  13 H :    0.019710
  14 H :    0.030252
  15 H :    0.024366
  16 S :    0.413651
  17 C :   -0.186888
  18 C :   -0.072876
  19 C :   -0.046651
  20 C :   -0.206641
  21 H :    0.027501
  22 C :   -0.022746
  23 H :    0.026742
  24 H :    0.029468
  25 C :   -0.039799
  26 H :    0.029255
  27 H :    0.030693
  28 C :   -0.075150
  29 H :    0.030843
  30 H :    0.028796
  31 H :    0.032284
  32 H :    0.031699
  33 H :    0.020930

  Mayer bond orders larger than 0.100000
B(  0-S ,  1-C ) :   1.1446 B(  0-S ,  4-C ) :   1.1186 B(  1-C ,  2-C ) :   1.6277
B(  1-C ,  4-C ) :   0.1004 B(  1-C , 32-H ) :   0.9616 B(  2-C ,  3-C ) :   1.2372
B(  2-C ,  6-C ) :   1.0006 B(  3-C ,  4-C ) :   1.5963 B(  3-C ,  5-H ) :   0.9845
B(  4-C , 20-C ) :   1.0335 B(  6-C ,  7-H ) :   0.9520 B(  6-C ,  8-H ) :   0.9481
B(  6-C ,  9-C ) :   1.0570 B(  9-C , 10-H ) :   0.9572 B(  9-C , 11-H ) :   0.9512
B(  9-C , 12-C ) :   1.0833 B( 12-C , 13-H ) :   0.9728 B( 12-C , 14-H ) :   0.9746
B( 12-C , 15-H ) :   0.9719 B( 16-S , 17-C ) :   1.1594 B( 16-S , 20-C ) :   1.1730
B( 17-C , 18-C ) :   1.5935 B( 17-C , 20-C ) :   0.1142 B( 17-C , 33-H ) :   0.9722
B( 18-C , 19-C ) :   1.2530 B( 18-C , 21-H ) :   0.9877 B( 19-C , 20-C ) :   1.5759
B( 19-C , 22-C ) :   1.0177 B( 22-C , 23-H ) :   0.9318 B( 22-C , 24-H ) :   0.9297
B( 22-C , 25-C ) :   1.0461 B( 25-C , 26-H ) :   0.9620 B( 25-C , 27-H ) :   0.9518
B( 25-C , 28-C ) :   1.0812 B( 28-C , 29-H ) :   0.9709 B( 28-C , 30-H ) :   0.9746
B( 28-C , 31-H ) :   0.9718

Dispersion correction           -0.013409699
FINAL SINGLE POINT ENERGY     -1339.862438931033

DIPOLE MOMENT
-------------
                                X             Y             Z
Electronic contribution:     19.22214      -7.21135      14.77242
Nuclear contribution   :    -19.68627       7.25661     -15.23960
                        -----------------------------------------
Total Dipole Moment    :     -0.46413       0.04526      -0.46718
                        -----------------------------------------
Magnitude (a.u.)       :      0.66009
Magnitude (Debye)      :      1.67782

Rotational constants in cm-1:     0.017429     0.007386     0.006278
Rotational constants in MHz :   522.501524   221.422341   188.222983

                             ****ORCA TERMINATED NORMALLY****
TOTAL RUN TIME: 0 days 0 hours 0 minutes 20 seconds 632 msec
