                         Program Version 4.2.1 -  RELEASE  -
|  1> ! wB97X-D3 SP def2-SVP
|  2> %pal
|  3> nprocs 24
|  4> end
|  5>
|  6> * xyz 0 1
|  7> S 	 36.2968 	 -25.3054 	 -123.021
|  8> C 	 36.1746 	 -24.2585 	 -124.417
|  9> C 	 37.3614 	 -23.9907 	 -125.034
| 10> C 	 38.4289 	 -24.8427 	 -124.524
| 11> C 	 38.025 	 -25.6031 	 -123.445
| 12> H 	 39.4825 	 -24.7832 	 -124.829
| 13> C 	 37.6029 	 -23.0073 	 -126.113
| 14> H 	 36.5865 	 -22.6808 	 -126.466
| 15> H 	 38.0865 	 -23.5238 	 -126.946
| 16> C 	 38.3203 	 -21.6204 	 -125.727
| 17> H 	 39.2972 	 -21.964 	 -125.404
| 18> H 	 38.277 	 -20.9775 	 -126.648
| 19> C 	 37.5828 	 -21.0625 	 -124.517
| 20> H 	 37.9769 	 -20.0866 	 -124.222
| 21> H 	 36.509 	 -20.9652 	 -124.667
| 22> H 	 37.6704 	 -21.7543 	 -123.609
| 23> S 	 38.8403 	 -25.8515 	 -120.911
| 24> C 	 40.4097 	 -26.5922 	 -120.625
| 25> C 	 40.8931 	 -27.2531 	 -121.724
| 26> C 	 40.0245 	 -27.0762 	 -122.876
| 27> C 	 38.9133 	 -26.307 	 -122.574
| 28> H 	 41.8489 	 -27.8098 	 -121.66
| 29> C 	 40.3273 	 -27.6061 	 -124.28
| 30> H 	 39.3858 	 -27.5691 	 -124.853
| 31> H 	 40.5076 	 -28.6459 	 -124.063
| 32> C 	 41.5823 	 -26.9465 	 -124.975
| 33> H 	 42.6086 	 -27.1806 	 -124.421
| 34> H 	 41.4978 	 -25.8577 	 -125.058
| 35> C 	 41.663 	 -27.7398 	 -126.345
| 36> H 	 41.5575 	 -28.8115 	 -126.214
| 37> H 	 42.5645 	 -27.5301 	 -126.891
| 38> H 	 40.8336 	 -27.3942 	 -126.876
| 39> H 	 35.2941 	 -23.7782 	 -124.622
| 40> H 	 40.9128 	 -26.4475 	 -119.647
| 41> *
| 42>
| 43>                          ****END OF INPUT****

CARTESIAN COORDINATES (ANGSTROEM)
---------------------------------
  S     36.296800  -25.305400  -123.021000
  C     36.174600  -24.258500  -124.417000
  C     37.361400  -23.990700  -125.034000
  C     38.428900  -24.842700  -124.524000
  C     38.025000  -25.603100  -123.445000
  H     39.482500  -24.783200  -124.829000
  C     37.602900  -23.007300  -126.113000
  H     36.586500  -22.680800  -126.466000
  H     38.086500  -23.523800  -126.946000
  C     38.320300  -21.620400  -125.727000
  H     39.297200  -21.964000  -125.404000
  H     38.277000  -20.977500  -126.648000
  C     37.582800  -21.062500  -124.517000
  H     37.976900  -20.086600  -124.222000
  H     36.509000  -20.965200  -124.667000
  H     37.670400  -21.754300  -123.609000
  S     38.840300  -25.851500  -120.911000
  C     40.409700  -26.592200  -120.625000
  C     40.893100  -27.253100  -121.724000
  C     40.024500  -27.076200  -122.876000
  C     38.913300  -26.307000  -122.574000
  H     41.848900  -27.809800  -121.660000
  C     40.327300  -27.606100  -124.280000
  H     39.385800  -27.569100  -124.853000
  H     40.507600  -28.645900  -124.063000
  C     41.582300  -26.946500  -124.975000
  H     42.608600  -27.180600  -124.421000
  H     41.497800  -25.857700  -125.058000
  C     41.663000  -27.739800  -126.345000
  H     41.557500  -28.811500  -126.214000
  H     42.564500  -27.530100  -126.891000
  H     40.833600  -27.394200  -126.876000
  H     35.294100  -23.778200  -124.622000
  H     40.912800  -26.447500  -119.647000

 Total Charge           Charge          ....    0
 Multiplicity           Mult            ....    1
 Number of Electrons    NEL             ....  134
 Basis Dimension        Dim             ....  322

ORBITAL ENERGIES
----------------

  NO   OCC          E(Eh)            E(eV)
   0   2.0000     -88.965737     -2420.8808
   1   2.0000     -88.961319     -2420.7606
   2   2.0000     -10.330936      -281.1191
   3   2.0000     -10.319164      -280.7987
   4   2.0000     -10.317883      -280.7639
   5   2.0000     -10.307299      -280.4759
   6   2.0000     -10.306539      -280.4552
   7   2.0000     -10.302730      -280.3515
   8   2.0000     -10.299503      -280.2637
   9   2.0000     -10.299382      -280.2604
  10   2.0000     -10.297297      -280.2037
  11   2.0000     -10.297270      -280.2030
  12   2.0000     -10.295803      -280.1630
  13   2.0000     -10.293981      -280.1135
  14   2.0000     -10.279755      -279.7264
  15   2.0000     -10.275223      -279.6030
  16   2.0000      -8.079945      -219.8665
  17   2.0000      -8.076922      -219.7842
  18   2.0000      -6.038513      -164.3163
  19   2.0000      -6.035383      -164.2311
  20   2.0000      -6.034777      -164.2146
  21   2.0000      -6.031428      -164.1235
  22   2.0000      -6.030436      -164.0965
  23   2.0000      -6.027548      -164.0179
  24   2.0000      -1.006894       -27.3990
  25   2.0000      -0.980436       -26.6790
  26   2.0000      -0.908422       -24.7194
  27   2.0000      -0.902946       -24.5704
  28   2.0000      -0.871651       -23.7188
  29   2.0000      -0.850057       -23.1312
  30   2.0000      -0.842820       -22.9343
  31   2.0000      -0.813398       -22.1337
  32   2.0000      -0.776366       -21.1260
  33   2.0000      -0.766728       -20.8637
  34   2.0000      -0.707447       -19.2506
  35   2.0000      -0.699145       -19.0247
  36   2.0000      -0.695303       -18.9202
  37   2.0000      -0.661615       -18.0035
  38   2.0000      -0.639628       -17.4052
  39   2.0000      -0.617432       -16.8012
  40   2.0000      -0.590997       -16.0818
  41   2.0000      -0.565712       -15.3938
  42   2.0000      -0.559535       -15.2257
  43   2.0000      -0.549856       -14.9624
  44   2.0000      -0.541051       -14.7227
  45   2.0000      -0.528504       -14.3813
  46   2.0000      -0.517307       -14.0767
  47   2.0000      -0.512106       -13.9351
  48   2.0000      -0.498866       -13.5748
  49   2.0000      -0.493963       -13.4414
  50   2.0000      -0.488766       -13.3000
  51   2.0000      -0.477693       -12.9987
  52   2.0000      -0.467440       -12.7197
  53   2.0000      -0.462521       -12.5858
  54   2.0000      -0.457006       -12.4358
  55   2.0000      -0.448652       -12.2084
  56   2.0000      -0.446780       -12.1575
  57   2.0000      -0.443086       -12.0570
  58   2.0000      -0.434068       -11.8116
  59   2.0000      -0.426189       -11.5972
  60   2.0000      -0.423615       -11.5272
  61   2.0000      -0.414877       -11.2894
  62   2.0000      -0.408301       -11.1104
  63   2.0000      -0.355613        -9.6767
  64   2.0000      -0.330527        -8.9941
  65   2.0000      -0.324672        -8.8348
  66   2.0000      -0.286172        -7.7871
  67   0.0000       0.030931         0.8417
  68   0.0000       0.068674         1.8687
  69   0.0000       0.104965         2.8563
  70   0.0000       0.119135         3.2418
  71   0.0000       0.125283         3.4091

MULLIKEN ATOMIC CHARGES
-----------------------
   0 S :    0.089535
   1 C :   -0.073966
   2 C :   -0.091313
   3 C :    0.013862
   4 C :   -0.137799
   5 H :    0.012811
   6 C :    0.018457
   7 H :    0.016578
   8 H :    0.037598
   9 C :   -0.050328
  10 H :    0.031584
  11 H :    0.056402
  12 C :   -0.080121
  13 H :    0.035897
  14 H :    0.023350
  15 H :    0.060723
  16 S :    0.095356
  17 C :   -0.118855
  18 C :   -0.024599
  19 C :   -0.060400
  20 C :   -0.125906
  21 H :    0.033127
  22 C :    0.036689
  23 H :    0.044662
  24 H :    0.029789
  25 C :   -0.128162
  26 H :    0.049360
  27 H :    0.047698
  28 C :   -0.004928
  29 H :    0.032286
  30 H :    0.033049
  31 H :    0.017301
  32 H :    0.008738
  33 H :    0.071527
Sum of atomic charges:    0.0000000

LOEWDIN ATOMIC CHARGES
----------------------
   0 S :    0.370702
   1 C :   -0.176148
   2 C :   -0.064689
   3 C :   -0.059475
   4 C :   -0.171232
   5 H :    0.033385
   6 C :   -0.039493
   7 H :    0.029182
   8 H :    0.029481
   9 C :   -0.033385
  10 H :    0.022197
  11 H :    0.034442
  12 C :   -0.073669
  13 H :    0.023837
  14 H :    0.020080
  15 H :    0.040431
  16 S :    0.402126
  17 C :   -0.182982
  18 C :   -0.074204
  19 C :   -0.058536
  20 C :   -0.211497
  21 H :    0.039701
  22 C :   -0.034164
  23 H :    0.036042
  24 H :    0.032920
  25 C :   -0.038358
  26 H :    0.035149
  27 H :    0.019872
  28 C :   -0.058308
  29 H :    0.027004
  30 H :    0.021032
  31 H :    0.017531
  32 H :    0.006532
  33 H :    0.034492

  Mayer bond orders larger than 0.100000
B(  0-S ,  1-C ) :   1.1164 B(  0-S ,  4-C ) :   1.1198 B(  1-C ,  2-C ) :   1.6466
B(  1-C , 32-H ) :   0.9724 B(  2-C ,  3-C ) :   1.1952 B(  2-C ,  6-C ) :   1.0370
B(  3-C ,  4-C ) :   1.6034 B(  3-C ,  5-H ) :   0.9846 B(  4-C , 20-C ) :   1.0537
B(  6-C ,  7-H ) :   0.9414 B(  6-C ,  8-H ) :   0.9437 B(  6-C ,  9-C ) :   1.0464
B(  9-C , 10-H ) :   0.9566 B(  9-C , 11-H ) :   0.9591 B(  9-C , 12-C ) :   1.0767
B( 12-C , 13-H ) :   0.9732 B( 12-C , 14-H ) :   0.9769 B( 12-C , 15-H ) :   0.9663
B( 16-S , 17-C ) :   1.1489 B( 16-S , 20-C ) :   1.1312 B( 17-C , 18-C ) :   1.6232
B( 17-C , 33-H ) :   0.9647 B( 18-C , 19-C ) :   1.2082 B( 18-C , 21-H ) :   0.9908
B( 19-C , 20-C ) :   1.6148 B( 19-C , 22-C ) :   1.0335 B( 22-C , 23-H ) :   0.9442
B( 22-C , 24-H ) :   0.9310 B( 22-C , 25-C ) :   1.0428 B( 25-C , 26-H ) :   0.9566
B( 25-C , 27-H ) :   0.9598 B( 25-C , 28-C ) :   1.0599 B( 28-C , 29-H ) :   0.9746
B( 28-C , 30-H ) :   0.9757 B( 28-C , 31-H ) :   0.9759

Dispersion correction           -0.014981712
FINAL SINGLE POINT ENERGY     -1339.872765877094

DIPOLE MOMENT
-------------
                                X             Y             Z
Electronic contribution:    -12.39536      -7.43338      20.65122
Nuclear contribution   :     12.93896       7.62889     -21.07342
                        -----------------------------------------
Total Dipole Moment    :      0.54360       0.19551      -0.42220
                        -----------------------------------------
Magnitude (a.u.)       :      0.71553
Magnitude (Debye)      :      1.81872

Rotational constants in cm-1:     0.016719     0.009770     0.007491
Rotational constants in MHz :   501.208151   292.910349   224.576000

                             ****ORCA TERMINATED NORMALLY****
TOTAL RUN TIME: 0 days 0 hours 0 minutes 22 seconds 226 msec
