                         Program Version 4.2.1 -  RELEASE  -
|  1> ! wB97X-D3 SP def2-SVP
|  2> %pal
|  3> nprocs 24
|  4> end
|  5>
|  6> * xyz 0 1
|  7> S 	 -148.233 	 6.44154 	 9.84897
|  8> C 	 -147.665 	 4.7066 	 10.0424
|  9> C 	 -148.531 	 3.7628 	 9.49595
| 10> C 	 -149.707 	 4.39497 	 9.02972
| 11> C 	 -149.752 	 5.73939 	 9.17729
| 12> H 	 -150.609 	 3.93651 	 8.63535
| 13> C 	 -148.383 	 2.25159 	 9.41724
| 14> H 	 -147.396 	 1.97164 	 8.95634
| 15> H 	 -149.054 	 1.96013 	 8.65949
| 16> C 	 -148.737 	 1.51829 	 10.7314
| 17> H 	 -147.885 	 1.58964 	 11.4661
| 18> H 	 -149.62 	 1.82988 	 11.2017
| 19> C 	 -148.931 	 0.0667235 	 10.4053
| 20> H 	 -149.861 	 -0.0962094 	 9.81527
| 21> H 	 -148.127 	 -0.372594 	 9.80566
| 22> H 	 -149.01 	 -0.561795 	 11.2479
| 23> S 	 -151.694 	 7.24279 	 10.4886
| 24> C 	 -153.117 	 7.75838 	 9.59769
| 25> C 	 -153.001 	 7.37504 	 8.22771
| 26> C 	 -151.767 	 6.73744 	 7.95201
| 27> C 	 -150.926 	 6.5922 	 9.03621
| 28> H 	 -153.833 	 7.71907 	 7.58333
| 29> C 	 -151.367 	 6.45718 	 6.55952
| 30> H 	 -152.015 	 5.64939 	 6.24756
| 31> H 	 -150.393 	 5.93811 	 6.64572
| 32> C 	 -151.334 	 7.59412 	 5.48395
| 33> H 	 -151.08 	 8.51293 	 6.00725
| 34> H 	 -152.391 	 7.57885 	 5.25027
| 35> C 	 -150.372 	 7.47198 	 4.30331
| 36> H 	 -150.498 	 6.4806 	 3.73207
| 37> H 	 -149.322 	 7.42132 	 4.65556
| 38> H 	 -150.443 	 8.3125 	 3.61878
| 39> H 	 -146.71 	 4.41995 	 10.5564
| 40> H 	 -153.912 	 8.33232 	 10.1045
| 41> *
| 42>
| 43>                          ****END OF INPUT****

CARTESIAN COORDINATES (ANGSTROEM)
---------------------------------
  S    -148.233000    6.441540    9.848970
  C    -147.665000    4.706600   10.042400
  C    -148.531000    3.762800    9.495950
  C    -149.707000    4.394970    9.029720
  C    -149.752000    5.739390    9.177290
  H    -150.609000    3.936510    8.635350
  C    -148.383000    2.251590    9.417240
  H    -147.396000    1.971640    8.956340
  H    -149.054000    1.960130    8.659490
  C    -148.737000    1.518290   10.731400
  H    -147.885000    1.589640   11.466100
  H    -149.620000    1.829880   11.201700
  C    -148.931000    0.066723   10.405300
  H    -149.861000   -0.096209    9.815270
  H    -148.127000   -0.372594    9.805660
  H    -149.010000   -0.561795   11.247900
  S    -151.694000    7.242790   10.488600
  C    -153.117000    7.758380    9.597690
  C    -153.001000    7.375040    8.227710
  C    -151.767000    6.737440    7.952010
  C    -150.926000    6.592200    9.036210
  H    -153.833000    7.719070    7.583330
  C    -151.367000    6.457180    6.559520
  H    -152.015000    5.649390    6.247560
  H    -150.393000    5.938110    6.645720
  C    -151.334000    7.594120    5.483950
  H    -151.080000    8.512930    6.007250
  H    -152.391000    7.578850    5.250270
  C    -150.372000    7.471980    4.303310
  H    -150.498000    6.480600    3.732070
  H    -149.322000    7.421320    4.655560
  H    -150.443000    8.312500    3.618780
  H    -146.710000    4.419950   10.556400
  H    -153.912000    8.332320   10.104500

 Total Charge           Charge          ....    0
 Multiplicity           Mult            ....    1
 Number of Electrons    NEL             ....  134
 Basis Dimension        Dim             ....  322

ORBITAL ENERGIES
----------------

  NO   OCC          E(Eh)            E(eV)
   0   2.0000     -88.966870     -2420.9116
   1   2.0000     -88.963404     -2420.8173
   2   2.0000     -10.328140      -281.0430
   3   2.0000     -10.324899      -280.9548
   4   2.0000     -10.323672      -280.9214
   5   2.0000     -10.322818      -280.8982
   6   2.0000     -10.302964      -280.3579
   7   2.0000     -10.299857      -280.2734
   8   2.0000     -10.299540      -280.2647
   9   2.0000     -10.296201      -280.1739
  10   2.0000     -10.291403      -280.0433
  11   2.0000     -10.288280      -279.9583
  12   2.0000     -10.286689      -279.9150
  13   2.0000     -10.286629      -279.9134
  14   2.0000     -10.283081      -279.8169
  15   2.0000     -10.273940      -279.5681
  16   2.0000      -8.079607      -219.8573
  17   2.0000      -8.077879      -219.8103
  18   2.0000      -6.038179      -164.3072
  19   2.0000      -6.036293      -164.2559
  20   2.0000      -6.034713      -164.2129
  21   2.0000      -6.032283      -164.1468
  22   2.0000      -6.030095      -164.0872
  23   2.0000      -6.028886      -164.0543
  24   2.0000      -1.000900       -27.2359
  25   2.0000      -0.975873       -26.5548
  26   2.0000      -0.914588       -24.8872
  27   2.0000      -0.904878       -24.6230
  28   2.0000      -0.866801       -23.5869
  29   2.0000      -0.851962       -23.1831
  30   2.0000      -0.844691       -22.9852
  31   2.0000      -0.810181       -22.0461
  32   2.0000      -0.780920       -21.2499
  33   2.0000      -0.768514       -20.9123
  34   2.0000      -0.707486       -19.2517
  35   2.0000      -0.702577       -19.1181
  36   2.0000      -0.694401       -18.8956
  37   2.0000      -0.655076       -17.8255
  38   2.0000      -0.640370       -17.4254
  39   2.0000      -0.616080       -16.7644
  40   2.0000      -0.590647       -16.0723
  41   2.0000      -0.568358       -15.4658
  42   2.0000      -0.565104       -15.3773
  43   2.0000      -0.557026       -15.1575
  44   2.0000      -0.531372       -14.4594
  45   2.0000      -0.523058       -14.2331
  46   2.0000      -0.517438       -14.0802
  47   2.0000      -0.512239       -13.9387
  48   2.0000      -0.502328       -13.6690
  49   2.0000      -0.497639       -13.5414
  50   2.0000      -0.487047       -13.2532
  51   2.0000      -0.475094       -12.9280
  52   2.0000      -0.462826       -12.5941
  53   2.0000      -0.459007       -12.4902
  54   2.0000      -0.454344       -12.3633
  55   2.0000      -0.449723       -12.2376
  56   2.0000      -0.443243       -12.0612
  57   2.0000      -0.440796       -11.9947
  58   2.0000      -0.430155       -11.7051
  59   2.0000      -0.426017       -11.5925
  60   2.0000      -0.421890       -11.4802
  61   2.0000      -0.418423       -11.3859
  62   2.0000      -0.406663       -11.0659
  63   2.0000      -0.340628        -9.2690
  64   2.0000      -0.329067        -8.9544
  65   2.0000      -0.327440        -8.9101
  66   2.0000      -0.295498        -8.0409
  67   0.0000       0.030209         0.8220
  68   0.0000       0.060080         1.6349
  69   0.0000       0.097035         2.6405
  70   0.0000       0.126117         3.4318
  71   0.0000       0.130514         3.5515

MULLIKEN ATOMIC CHARGES
-----------------------
   0 S :    0.091864
   1 C :   -0.146395
   2 C :   -0.073955
   3 C :    0.042682
   4 C :   -0.180735
   5 H :    0.015789
   6 C :    0.067995
   7 H :    0.042037
   8 H :    0.002709
   9 C :   -0.031069
  10 H :    0.038233
  11 H :    0.027182
  12 C :   -0.053126
  13 H :    0.029855
  14 H :    0.023042
  15 H :    0.021280
  16 S :    0.105146
  17 C :   -0.133017
  18 C :   -0.047596
  19 C :   -0.050198
  20 C :   -0.129663
  21 H :    0.037982
  22 C :    0.053423
  23 H :    0.021536
  24 H :    0.015092
  25 C :   -0.046193
  26 H :    0.036919
  27 H :    0.029408
  28 C :   -0.070284
  29 H :    0.038468
  30 H :    0.040656
  31 H :    0.044094
  32 H :    0.060569
  33 H :    0.076270
Sum of atomic charges:   -0.0000000

LOEWDIN ATOMIC CHARGES
----------------------
   0 S :    0.344860
   1 C :   -0.173352
   2 C :   -0.063221
   3 C :   -0.056736
   4 C :   -0.174265
   5 H :    0.035743
   6 C :   -0.027753
   7 H :    0.040440
   8 H :    0.023246
   9 C :   -0.031315
  10 H :    0.031293
  11 H :    0.022163
  12 C :   -0.066704
  13 H :    0.026975
  14 H :    0.023705
  15 H :    0.017997
  16 S :    0.402130
  17 C :   -0.184842
  18 C :   -0.078339
  19 C :   -0.062017
  20 C :   -0.205324
  21 H :    0.039473
  22 C :   -0.040662
  23 H :    0.028538
  24 H :    0.027607
  25 C :   -0.039729
  26 H :    0.027411
  27 H :    0.023336
  28 C :   -0.070407
  29 H :    0.032162
  30 H :    0.030919
  31 H :    0.028219
  32 H :    0.034336
  33 H :    0.034114

  Mayer bond orders larger than 0.100000
B(  0-S ,  1-C ) :   1.1164 B(  0-S ,  4-C ) :   1.1136 B(  1-C ,  2-C ) :   1.6491
B(  1-C , 32-H ) :   0.9620 B(  2-C ,  3-C ) :   1.2064 B(  2-C ,  6-C ) :   1.0146
B(  3-C ,  4-C ) :   1.6402 B(  3-C ,  5-H ) :   0.9855 B(  4-C , 20-C ) :   1.0138
B(  6-C ,  7-H ) :   0.9354 B(  6-C ,  8-H ) :   0.9418 B(  6-C ,  9-C ) :   1.0589
B(  9-C , 10-H ) :   0.9538 B(  9-C , 11-H ) :   0.9577 B(  9-C , 12-C ) :   1.0884
B( 12-C , 13-H ) :   0.9742 B( 12-C , 14-H ) :   0.9714 B( 12-C , 15-H ) :   0.9720
B( 16-S , 17-C ) :   1.1825 B( 16-S , 20-C ) :   1.1356 B( 17-C , 18-C ) :   1.5643
B( 17-C , 20-C ) :   0.1055 B( 17-C , 33-H ) :   0.9658 B( 18-C , 19-C ) :   1.2383
B( 18-C , 21-H ) :   0.9935 B( 19-C , 20-C ) :   1.5846 B( 19-C , 22-C ) :   1.0631
B( 22-C , 23-H ) :   0.9242 B( 22-C , 24-H ) :   0.9300 B( 22-C , 25-C ) :   1.0299
B( 25-C , 26-H ) :   0.9616 B( 25-C , 27-H ) :   0.9536 B( 25-C , 28-C ) :   1.0910
B( 28-C , 29-H ) :   0.9750 B( 28-C , 30-H ) :   0.9719 B( 28-C , 31-H ) :   0.9742

Dispersion correction           -0.013703817
FINAL SINGLE POINT ENERGY     -1339.867631708168

DIPOLE MOMENT
-------------
                                X             Y             Z
Electronic contribution:     -1.07563      17.65957      15.03199
Nuclear contribution   :      0.85917     -18.16640     -15.32794
                        -----------------------------------------
Total Dipole Moment    :     -0.21646      -0.50683      -0.29595
                        -----------------------------------------
Magnitude (a.u.)       :      0.62555
Magnitude (Debye)      :      1.59003

Rotational constants in cm-1:     0.017953     0.007486     0.006717
Rotational constants in MHz :   538.227051   224.421209   201.369594

                             ****ORCA TERMINATED NORMALLY****
TOTAL RUN TIME: 0 days 0 hours 0 minutes 19 seconds 787 msec
