                         Program Version 4.2.1 -  RELEASE  -
|  1> ! wB97X-D3 SP def2-SVP
|  2> %pal
|  3> nprocs 24
|  4> end
|  5>
|  6> * xyz 0 1
|  7> S 	 -78.96 	 -20.6359 	 -54.0876
|  8> C 	 -80.1145 	 -19.4011 	 -54.2456
|  9> C 	 -80.96 	 -19.3381 	 -53.2042
| 10> C 	 -80.8364 	 -20.4836 	 -52.3615
| 11> C 	 -79.888 	 -21.3522 	 -52.8051
| 12> H 	 -81.357 	 -20.7334 	 -51.4796
| 13> C 	 -81.8525 	 -18.1771 	 -52.904
| 14> H 	 -82.7448 	 -18.6907 	 -52.4676
| 15> H 	 -82.2725 	 -17.7295 	 -53.8087
| 16> C 	 -81.2417 	 -17.1602 	 -51.8281
| 17> H 	 -80.2333 	 -16.7816 	 -52.0272
| 18> H 	 -81.8773 	 -16.3127 	 -51.8782
| 19> C 	 -81.2967 	 -17.6913 	 -50.3468
| 20> H 	 -82.1973 	 -18.3021 	 -50.0988
| 21> H 	 -80.4468 	 -18.2154 	 -49.9934
| 22> H 	 -81.4293 	 -16.7386 	 -49.8712
| 23> S 	 -80.6971 	 -23.6087 	 -51.4967
| 24> C 	 -79.5034 	 -24.6645 	 -50.8329
| 25> C 	 -78.1929 	 -24.4177 	 -51.1423
| 26> C 	 -78.2215 	 -23.1705 	 -51.8355
| 27> C 	 -79.4304 	 -22.5681 	 -52.1266
| 28> H 	 -77.3936 	 -24.9938 	 -50.8071
| 29> C 	 -76.8766 	 -22.5693 	 -52.1752
| 30> H 	 -76.1027 	 -22.8252 	 -51.3597
| 31> H 	 -76.8658 	 -21.5009 	 -52.0758
| 32> C 	 -76.3212 	 -22.9126 	 -53.543
| 33> H 	 -75.3083 	 -22.4104 	 -53.6009
| 34> H 	 -76.7955 	 -22.374 	 -54.4529
| 35> C 	 -75.9822 	 -24.4237 	 -53.6876
| 36> H 	 -75.3571 	 -24.7069 	 -52.899
| 37> H 	 -75.4297 	 -24.6082 	 -54.62
| 38> H 	 -76.9039 	 -25.0161 	 -53.7083
| 39> H 	 -79.9054 	 -18.5234 	 -54.7935
| 40> H 	 -79.6525 	 -25.4583 	 -50.1672
| 41> *
| 42>
| 43>                          ****END OF INPUT****

CARTESIAN COORDINATES (ANGSTROEM)
---------------------------------
  S    -78.960000  -20.635900  -54.087600
  C    -80.114500  -19.401100  -54.245600
  C    -80.960000  -19.338100  -53.204200
  C    -80.836400  -20.483600  -52.361500
  C    -79.888000  -21.352200  -52.805100
  H    -81.357000  -20.733400  -51.479600
  C    -81.852500  -18.177100  -52.904000
  H    -82.744800  -18.690700  -52.467600
  H    -82.272500  -17.729500  -53.808700
  C    -81.241700  -17.160200  -51.828100
  H    -80.233300  -16.781600  -52.027200
  H    -81.877300  -16.312700  -51.878200
  C    -81.296700  -17.691300  -50.346800
  H    -82.197300  -18.302100  -50.098800
  H    -80.446800  -18.215400  -49.993400
  H    -81.429300  -16.738600  -49.871200
  S    -80.697100  -23.608700  -51.496700
  C    -79.503400  -24.664500  -50.832900
  C    -78.192900  -24.417700  -51.142300
  C    -78.221500  -23.170500  -51.835500
  C    -79.430400  -22.568100  -52.126600
  H    -77.393600  -24.993800  -50.807100
  C    -76.876600  -22.569300  -52.175200
  H    -76.102700  -22.825200  -51.359700
  H    -76.865800  -21.500900  -52.075800
  C    -76.321200  -22.912600  -53.543000
  H    -75.308300  -22.410400  -53.600900
  H    -76.795500  -22.374000  -54.452900
  C    -75.982200  -24.423700  -53.687600
  H    -75.357100  -24.706900  -52.899000
  H    -75.429700  -24.608200  -54.620000
  H    -76.903900  -25.016100  -53.708300
  H    -79.905400  -18.523400  -54.793500
  H    -79.652500  -25.458300  -50.167200

 Total Charge           Charge          ....    0
 Multiplicity           Mult            ....    1
 Number of Electrons    NEL             ....  134
 Basis Dimension        Dim             ....  322

ORBITAL ENERGIES
----------------

  NO   OCC          E(Eh)            E(eV)
   0   2.0000     -88.966148     -2420.8920
   1   2.0000     -88.962275     -2420.7866
   2   2.0000     -10.326845      -281.0077
   3   2.0000     -10.324815      -280.9525
   4   2.0000     -10.309569      -280.5376
   5   2.0000     -10.299606      -280.2665
   6   2.0000     -10.297692      -280.2144
   7   2.0000     -10.295662      -280.1592
   8   2.0000     -10.294758      -280.1346
   9   2.0000     -10.293348      -280.0962
  10   2.0000     -10.289748      -279.9983
  11   2.0000     -10.288733      -279.9707
  12   2.0000     -10.287599      -279.9398
  13   2.0000     -10.287302      -279.9317
  14   2.0000     -10.278415      -279.6899
  15   2.0000     -10.271072      -279.4901
  16   2.0000      -8.081116      -219.8983
  17   2.0000      -8.078041      -219.8147
  18   2.0000      -6.039582      -164.3454
  19   2.0000      -6.036386      -164.2584
  20   2.0000      -6.035665      -164.2388
  21   2.0000      -6.032598      -164.1553
  22   2.0000      -6.031847      -164.1349
  23   2.0000      -6.028720      -164.0498
  24   2.0000      -1.015537       -27.6342
  25   2.0000      -0.993712       -27.0403
  26   2.0000      -0.906100       -24.6562
  27   2.0000      -0.904173       -24.6038
  28   2.0000      -0.875513       -23.8239
  29   2.0000      -0.851418       -23.1683
  30   2.0000      -0.842238       -22.9185
  31   2.0000      -0.822516       -22.3818
  32   2.0000      -0.782600       -21.2956
  33   2.0000      -0.770854       -20.9760
  34   2.0000      -0.708778       -19.2868
  35   2.0000      -0.704669       -19.1750
  36   2.0000      -0.683033       -18.5863
  37   2.0000      -0.671922       -18.2839
  38   2.0000      -0.645574       -17.5670
  39   2.0000      -0.615759       -16.7557
  40   2.0000      -0.592669       -16.1273
  41   2.0000      -0.577104       -15.7038
  42   2.0000      -0.549893       -14.9633
  43   2.0000      -0.547783       -14.9059
  44   2.0000      -0.539333       -14.6760
  45   2.0000      -0.537297       -14.6206
  46   2.0000      -0.523702       -14.2507
  47   2.0000      -0.512580       -13.9480
  48   2.0000      -0.503447       -13.6995
  49   2.0000      -0.490349       -13.3431
  50   2.0000      -0.484982       -13.1970
  51   2.0000      -0.480979       -13.0881
  52   2.0000      -0.472413       -12.8550
  53   2.0000      -0.469195       -12.7674
  54   2.0000      -0.462606       -12.5881
  55   2.0000      -0.448987       -12.2175
  56   2.0000      -0.441585       -12.0162
  57   2.0000      -0.440246       -11.9797
  58   2.0000      -0.435736       -11.8570
  59   2.0000      -0.427134       -11.6229
  60   2.0000      -0.412465       -11.2238
  61   2.0000      -0.408629       -11.1194
  62   2.0000      -0.394686       -10.7400
  63   2.0000      -0.356066        -9.6890
  64   2.0000      -0.334037        -9.0896
  65   2.0000      -0.326353        -8.8805
  66   2.0000      -0.288973        -7.8633
  67   0.0000       0.029573         0.8047
  68   0.0000       0.080343         2.1862
  69   0.0000       0.105287         2.8650
  70   0.0000       0.120773         3.2864
  71   0.0000       0.135465         3.6862

MULLIKEN ATOMIC CHARGES
-----------------------
   0 S :    0.094823
   1 C :   -0.062946
   2 C :   -0.091798
   3 C :    0.008672
   4 C :   -0.105188
   5 H :   -0.005357
   6 C :    0.036184
   7 H :    0.027682
   8 H :    0.028565
   9 C :   -0.053440
  10 H :    0.036884
  11 H :    0.024386
  12 C :   -0.061436
  13 H :    0.034061
  14 H :    0.047117
  15 H :    0.031816
  16 S :    0.107156
  17 C :   -0.047321
  18 C :   -0.014535
  19 C :   -0.050017
  20 C :   -0.128391
  21 H :    0.001995
  22 C :    0.012124
  23 H :    0.029875
  24 H :    0.017423
  25 C :   -0.115814
  26 H :    0.023386
  27 H :    0.052266
  28 C :   -0.031566
  29 H :    0.013467
  30 H :    0.033659
  31 H :    0.048904
  32 H :    0.032208
  33 H :    0.025154
Sum of atomic charges:    0.0000000

LOEWDIN ATOMIC CHARGES
----------------------
   0 S :    0.439377
   1 C :   -0.208568
   2 C :   -0.064348
   3 C :   -0.061294
   4 C :   -0.188868
   5 H :    0.021763
   6 C :   -0.036911
   7 H :    0.035512
   8 H :    0.030146
   9 C :   -0.027285
  10 H :    0.027957
  11 H :    0.018308
  12 C :   -0.065532
  13 H :    0.028239
  14 H :    0.021037
  15 H :    0.029428
  16 S :    0.414985
  17 C :   -0.173525
  18 C :   -0.058690
  19 C :   -0.058796
  20 C :   -0.196601
  21 H :    0.027382
  22 C :   -0.049242
  23 H :    0.037046
  24 H :    0.020910
  25 C :   -0.057516
  26 H :    0.026753
  27 H :    0.024826
  28 C :   -0.063315
  29 H :    0.014633
  30 H :    0.028798
  31 H :    0.026906
  32 H :    0.019974
  33 H :    0.016512

  Mayer bond orders larger than 0.100000
B(  0-S ,  1-C ) :   1.1389 B(  0-S ,  4-C ) :   1.1579 B(  1-C ,  2-C ) :   1.6447
B(  1-C , 32-H ) :   0.9611 B(  2-C ,  3-C ) :   1.2337 B(  2-C ,  6-C ) :   1.0250
B(  3-C ,  4-C ) :   1.5643 B(  3-C ,  5-H ) :   1.0029 B(  4-C , 20-C ) :   1.0295
B(  6-C ,  7-H ) :   0.9443 B(  6-C ,  8-H ) :   0.9464 B(  6-C ,  9-C ) :   1.0477
B(  9-C , 10-H ) :   0.9592 B(  9-C , 11-H ) :   0.9665 B(  9-C , 12-C ) :   1.0612
B( 12-C , 13-H ) :   0.9766 B( 12-C , 14-H ) :   0.9793 B( 12-C , 15-H ) :   0.9781
B( 16-S , 17-C ) :   1.1697 B( 16-S , 20-C ) :   1.1154 B( 17-C , 18-C ) :   1.6125
B( 17-C , 33-H ) :   0.9623 B( 18-C , 19-C ) :   1.2221 B( 18-C , 21-H ) :   1.0049
B( 19-C , 20-C ) :   1.6195 B( 19-C , 22-C ) :   1.0318 B( 22-C , 23-H ) :   0.9407
B( 22-C , 24-H ) :   0.9346 B( 22-C , 25-C ) :   1.0855 B( 25-C , 26-H ) :   0.9492
B( 25-C , 27-H ) :   0.9494 B( 25-C , 28-C ) :   1.0704 B( 28-C , 29-H ) :   0.9722
B( 28-C , 30-H ) :   0.9738 B( 28-C , 31-H ) :   0.9752

Dispersion correction           -0.014993720
FINAL SINGLE POINT ENERGY     -1339.853520393283

DIPOLE MOMENT
-------------
                                X             Y             Z
Electronic contribution:     -6.99354      -9.78743      -3.56243
Nuclear contribution   :      7.18923      10.20578       3.94965
                        -----------------------------------------
Total Dipole Moment    :      0.19569       0.41835       0.38722
                        -----------------------------------------
Magnitude (a.u.)       :      0.60270
Magnitude (Debye)      :      1.53194

Rotational constants in cm-1:     0.022679     0.008500     0.007075
Rotational constants in MHz :   679.893986   254.823523   212.088641

                             ****ORCA TERMINATED NORMALLY****
TOTAL RUN TIME: 0 days 0 hours 0 minutes 22 seconds 71 msec
