                         Program Version 4.2.1 -  RELEASE  -
|  1> ! wB97X-D3 SP def2-SVP
|  2> %pal
|  3> nprocs 24
|  4> end
|  5>
|  6> * xyz 0 1
|  7> S 	 -105.059 	 35.8689 	 -23.4393
|  8> C 	 -104.6 	 34.2574 	 -23.1671
|  9> C 	 -104.783 	 33.9715 	 -21.8247
| 10> C 	 -105.608 	 34.9082 	 -21.1623
| 11> C 	 -106.042 	 35.8752 	 -22.0201
| 12> H 	 -106.047 	 34.7133 	 -20.1555
| 13> C 	 -104.422 	 32.6516 	 -21.2253
| 14> H 	 -105.366 	 32.1244 	 -21.2858
| 15> H 	 -104.139 	 32.9018 	 -20.1557
| 16> C 	 -103.295 	 31.7169 	 -21.7814
| 17> H 	 -103.324 	 30.7575 	 -21.2774
| 18> H 	 -103.392 	 31.4098 	 -22.8131
| 19> C 	 -101.888 	 32.419 	 -21.7007
| 20> H 	 -101.178 	 31.6564 	 -21.9719
| 21> H 	 -101.78 	 33.2939 	 -22.4297
| 22> H 	 -101.714 	 32.9104 	 -20.7361
| 23> S 	 -107.122 	 37.4752 	 -20.032
| 24> C 	 -108.2 	 38.7738 	 -20.4213
| 25> C 	 -108.437 	 38.8517 	 -21.7385
| 26> C 	 -107.833 	 37.7454 	 -22.5059
| 27> C 	 -106.967 	 36.9762 	 -21.7239
| 28> H 	 -109.141 	 39.587 	 -22.1309
| 29> C 	 -108.084 	 37.5239 	 -24.0036
| 30> H 	 -107.122 	 37.5241 	 -24.4888
| 31> H 	 -108.678 	 38.3196 	 -24.5342
| 32> C 	 -108.752 	 36.1783 	 -24.3199
| 33> H 	 -109.747 	 36.2018 	 -23.8929
| 34> H 	 -108.349 	 35.2512 	 -23.8263
| 35> C 	 -108.981 	 35.9521 	 -25.8339
| 36> H 	 -109.627 	 36.7243 	 -26.2458
| 37> H 	 -109.546 	 35.0427 	 -26.0471
| 38> H 	 -108.035 	 35.8954 	 -26.3593
| 39> H 	 -104.044 	 33.597 	 -23.8315
| 40> H 	 -108.597 	 39.43 	 -19.7098
| 41> *
| 42>
| 43>                          ****END OF INPUT****

CARTESIAN COORDINATES (ANGSTROEM)
---------------------------------
  S    -105.059000   35.868900  -23.439300
  C    -104.600000   34.257400  -23.167100
  C    -104.783000   33.971500  -21.824700
  C    -105.608000   34.908200  -21.162300
  C    -106.042000   35.875200  -22.020100
  H    -106.047000   34.713300  -20.155500
  C    -104.422000   32.651600  -21.225300
  H    -105.366000   32.124400  -21.285800
  H    -104.139000   32.901800  -20.155700
  C    -103.295000   31.716900  -21.781400
  H    -103.324000   30.757500  -21.277400
  H    -103.392000   31.409800  -22.813100
  C    -101.888000   32.419000  -21.700700
  H    -101.178000   31.656400  -21.971900
  H    -101.780000   33.293900  -22.429700
  H    -101.714000   32.910400  -20.736100
  S    -107.122000   37.475200  -20.032000
  C    -108.200000   38.773800  -20.421300
  C    -108.437000   38.851700  -21.738500
  C    -107.833000   37.745400  -22.505900
  C    -106.967000   36.976200  -21.723900
  H    -109.141000   39.587000  -22.130900
  C    -108.084000   37.523900  -24.003600
  H    -107.122000   37.524100  -24.488800
  H    -108.678000   38.319600  -24.534200
  C    -108.752000   36.178300  -24.319900
  H    -109.747000   36.201800  -23.892900
  H    -108.349000   35.251200  -23.826300
  C    -108.981000   35.952100  -25.833900
  H    -109.627000   36.724300  -26.245800
  H    -109.546000   35.042700  -26.047100
  H    -108.035000   35.895400  -26.359300
  H    -104.044000   33.597000  -23.831500
  H    -108.597000   39.430000  -19.709800

 Total Charge           Charge          ....    0
 Multiplicity           Mult            ....    1
 Number of Electrons    NEL             ....  134
 Basis Dimension        Dim             ....  322

ORBITAL ENERGIES
----------------

  NO   OCC          E(Eh)            E(eV)
   0   2.0000     -88.963208     -2420.8120
   1   2.0000     -88.961515     -2420.7659
   2   2.0000     -10.329662      -281.0844
   3   2.0000     -10.328881      -281.0631
   4   2.0000     -10.311387      -280.5871
   5   2.0000     -10.311163      -280.5810
   6   2.0000     -10.305830      -280.4359
   7   2.0000     -10.296935      -280.1939
   8   2.0000     -10.295361      -280.1510
   9   2.0000     -10.294586      -280.1299
  10   2.0000     -10.293598      -280.1030
  11   2.0000     -10.293405      -280.0978
  12   2.0000     -10.293264      -280.0940
  13   2.0000     -10.283723      -279.8343
  14   2.0000     -10.282455      -279.7998
  15   2.0000     -10.273125      -279.5459
  16   2.0000      -8.079167      -219.8453
  17   2.0000      -8.076476      -219.7721
  18   2.0000      -6.037617      -164.2919
  19   2.0000      -6.035062      -164.2224
  20   2.0000      -6.033701      -164.1854
  21   2.0000      -6.030999      -164.1118
  22   2.0000      -6.029721      -164.0771
  23   2.0000      -6.027101      -164.0058
  24   2.0000      -1.015282       -27.6272
  25   2.0000      -0.988860       -26.9082
  26   2.0000      -0.908620       -24.7248
  27   2.0000      -0.901892       -24.5417
  28   2.0000      -0.870377       -23.6842
  29   2.0000      -0.853398       -23.2221
  30   2.0000      -0.841703       -22.9039
  31   2.0000      -0.815729       -22.1971
  32   2.0000      -0.779574       -21.2133
  33   2.0000      -0.768461       -20.9109
  34   2.0000      -0.708955       -19.2917
  35   2.0000      -0.704641       -19.1743
  36   2.0000      -0.688522       -18.7356
  37   2.0000      -0.663539       -18.0558
  38   2.0000      -0.634474       -17.2649
  39   2.0000      -0.609519       -16.5859
  40   2.0000      -0.595863       -16.2143
  41   2.0000      -0.574683       -15.6379
  42   2.0000      -0.558496       -15.1975
  43   2.0000      -0.557080       -15.1589
  44   2.0000      -0.534211       -14.5366
  45   2.0000      -0.518328       -14.1044
  46   2.0000      -0.515595       -14.0301
  47   2.0000      -0.512891       -13.9565
  48   2.0000      -0.509489       -13.8639
  49   2.0000      -0.496101       -13.4996
  50   2.0000      -0.490441       -13.3456
  51   2.0000      -0.486345       -13.2341
  52   2.0000      -0.471053       -12.8180
  53   2.0000      -0.467319       -12.7164
  54   2.0000      -0.458614       -12.4795
  55   2.0000      -0.445581       -12.1249
  56   2.0000      -0.443606       -12.0711
  57   2.0000      -0.436592       -11.8803
  58   2.0000      -0.430827       -11.7234
  59   2.0000      -0.422586       -11.4991
  60   2.0000      -0.417254       -11.3541
  61   2.0000      -0.412395       -11.2218
  62   2.0000      -0.407425       -11.0866
  63   2.0000      -0.356551        -9.7022
  64   2.0000      -0.326821        -8.8932
  65   2.0000      -0.325509        -8.8575
  66   2.0000      -0.286993        -7.8095
  67   0.0000       0.019372         0.5272
  68   0.0000       0.087295         2.3754
  69   0.0000       0.107637         2.9290
  70   0.0000       0.121992         3.3196
  71   0.0000       0.135359         3.6833

MULLIKEN ATOMIC CHARGES
-----------------------
   0 S :    0.118368
   1 C :   -0.112775
   2 C :   -0.090398
   3 C :   -0.019517
   4 C :   -0.118206
   5 H :    0.035982
   6 C :    0.005359
   7 H :    0.049654
   8 H :    0.043697
   9 C :   -0.056366
  10 H :    0.032602
  11 H :    0.020198
  12 C :   -0.081676
  13 H :    0.039731
  14 H :    0.042656
  15 H :    0.036055
  16 S :    0.084058
  17 C :   -0.056743
  18 C :   -0.022630
  19 C :   -0.055559
  20 C :   -0.130450
  21 H :    0.023546
  22 C :    0.064451
  23 H :    0.026859
  24 H :    0.027261
  25 C :   -0.104760
  26 H :    0.017589
  27 H :    0.049026
  28 C :   -0.040575
  29 H :    0.023335
  30 H :    0.029415
  31 H :    0.033716
  32 H :    0.047099
  33 H :    0.038996
Sum of atomic charges:   -0.0000000

LOEWDIN ATOMIC CHARGES
----------------------
   0 S :    0.437907
   1 C :   -0.220098
   2 C :   -0.066126
   3 C :   -0.077928
   4 C :   -0.188512
   5 H :    0.038707
   6 C :   -0.040145
   7 H :    0.037367
   8 H :    0.039485
   9 C :   -0.042310
  10 H :    0.028059
  11 H :    0.019739
  12 C :   -0.070165
  13 H :    0.023796
  14 H :    0.032102
  15 H :    0.024187
  16 S :    0.397030
  17 C :   -0.174071
  18 C :   -0.073831
  19 C :   -0.047009
  20 C :   -0.191697
  21 H :    0.034492
  22 C :   -0.038697
  23 H :    0.020256
  24 H :    0.036359
  25 C :   -0.048065
  26 H :    0.020669
  27 H :    0.030827
  28 C :   -0.065635
  29 H :    0.022628
  30 H :    0.027297
  31 H :    0.022684
  32 H :    0.028852
  33 H :    0.021847

  Mayer bond orders larger than 0.100000
B(  0-S ,  1-C ) :   1.1329 B(  0-S ,  4-C ) :   1.1696 B(  1-C ,  2-C ) :   1.5903
B(  1-C , 32-H ) :   0.9686 B(  2-C ,  3-C ) :   1.2595 B(  2-C ,  6-C ) :   1.0119
B(  3-C ,  4-C ) :   1.5457 B(  3-C ,  5-H ) :   0.9884 B(  4-C , 20-C ) :   1.0750
B(  6-C ,  7-H ) :   0.9429 B(  6-C ,  8-H ) :   0.9433 B(  6-C ,  9-C ) :   1.0808
B(  9-C , 10-H ) :   0.9544 B(  9-C , 11-H ) :   0.9503 B(  9-C , 12-C ) :   1.0659
B( 12-C , 13-H ) :   0.9767 B( 12-C , 14-H ) :   0.9750 B( 12-C , 15-H ) :   0.9788
B( 16-S , 17-C ) :   1.1455 B( 16-S , 20-C ) :   1.1231 B( 17-C , 18-C ) :   1.6391
B( 17-C , 33-H ) :   0.9722 B( 18-C , 19-C ) :   1.2184 B( 18-C , 21-H ) :   0.9886
B( 19-C , 20-C ) :   1.5895 B( 19-C , 22-C ) :   1.0395 B( 22-C , 23-H ) :   0.9332
B( 22-C , 24-H ) :   0.9407 B( 22-C , 25-C ) :   1.0484 B( 25-C , 26-H ) :   0.9521
B( 25-C , 27-H ) :   0.9586 B( 25-C , 28-C ) :   1.0861 B( 28-C , 29-H ) :   0.9728
B( 28-C , 30-H ) :   0.9735 B( 28-C , 31-H ) :   0.9767

Dispersion correction           -0.014536755
FINAL SINGLE POINT ENERGY     -1339.873765973421

DIPOLE MOMENT
-------------
                                X             Y             Z
Electronic contribution:     -2.13561      15.59414      10.51518
Nuclear contribution   :      1.94741     -15.91388     -10.60525
                        -----------------------------------------
Total Dipole Moment    :     -0.18819      -0.31974      -0.09007
                        -----------------------------------------
Magnitude (a.u.)       :      0.38179
Magnitude (Debye)      :      0.97044

Rotational constants in cm-1:     0.021243     0.008217     0.006492
Rotational constants in MHz :   636.857329   246.338139   194.639786

                             ****ORCA TERMINATED NORMALLY****
TOTAL RUN TIME: 0 days 0 hours 0 minutes 21 seconds 521 msec
