                         Program Version 4.2.1 -  RELEASE  -
|  1> ! wB97X-D3 SP def2-SVP
|  2> %pal
|  3> nprocs 24
|  4> end
|  5>
|  6> * xyz 0 1
|  7> S 	 -33.2873 	 2.80421 	 2.45756
|  8> C 	 -34.0646 	 1.57062 	 1.57138
|  9> C 	 -34.907 	 0.837163 	 2.38137
| 10> C 	 -34.7878 	 1.22928 	 3.74322
| 11> C 	 -33.9628 	 2.29878 	 4.04084
| 12> H 	 -35.2857 	 0.779313 	 4.52483
| 13> C 	 -35.9032 	 -0.225461 	 1.94242
| 14> H 	 -35.5671 	 -1.02532 	 2.6119
| 15> H 	 -35.5971 	 -0.503108 	 0.932627
| 16> C 	 -37.4201 	 0.260518 	 2.08485
| 17> H 	 -37.6537 	 0.825094 	 3.01075
| 18> H 	 -37.5884 	 1.01417 	 1.35837
| 19> C 	 -38.5256 	 -0.799328 	 1.88535
| 20> H 	 -38.6244 	 -1.03778 	 0.825449
| 21> H 	 -38.313 	 -1.70453 	 2.37599
| 22> H 	 -39.4703 	 -0.461905 	 2.14628
| 23> S 	 -34.3953 	 4.90568 	 5.10063
| 24> C 	 -33.7474 	 5.18378 	 6.70142
| 25> C 	 -33.4845 	 3.96428 	 7.31878
| 26> C 	 -33.6202 	 2.81521 	 6.52052
| 27> C 	 -33.9585 	 3.16242 	 5.21669
| 28> H 	 -33.3041 	 3.92731 	 8.36763
| 29> C 	 -33.5466 	 1.37603 	 7.09452
| 30> H 	 -33.8809 	 0.635285 	 6.3641
| 31> H 	 -34.2969 	 1.34777 	 7.85631
| 32> C 	 -32.1469 	 1.02236 	 7.65848
| 33> H 	 -32.1682 	 0.105043 	 8.22087
| 34> H 	 -32.0337 	 1.82771 	 8.37339
| 35> C 	 -30.9256 	 0.973832 	 6.63596
| 36> H 	 -30.3222 	 1.92762 	 6.68508
| 37> H 	 -31.2697 	 0.758675 	 5.61659
| 38> H 	 -30.1708 	 0.280098 	 6.97903
| 39> H 	 -34.1578 	 1.56872 	 0.405716
| 40> H 	 -33.596 	 6.10927 	 7.28156
| 41> *
| 42>
| 43>                          ****END OF INPUT****

CARTESIAN COORDINATES (ANGSTROEM)
---------------------------------
  S    -33.287300    2.804210    2.457560
  C    -34.064600    1.570620    1.571380
  C    -34.907000    0.837163    2.381370
  C    -34.787800    1.229280    3.743220
  C    -33.962800    2.298780    4.040840
  H    -35.285700    0.779313    4.524830
  C    -35.903200   -0.225461    1.942420
  H    -35.567100   -1.025320    2.611900
  H    -35.597100   -0.503108    0.932627
  C    -37.420100    0.260518    2.084850
  H    -37.653700    0.825094    3.010750
  H    -37.588400    1.014170    1.358370
  C    -38.525600   -0.799328    1.885350
  H    -38.624400   -1.037780    0.825449
  H    -38.313000   -1.704530    2.375990
  H    -39.470300   -0.461905    2.146280
  S    -34.395300    4.905680    5.100630
  C    -33.747400    5.183780    6.701420
  C    -33.484500    3.964280    7.318780
  C    -33.620200    2.815210    6.520520
  C    -33.958500    3.162420    5.216690
  H    -33.304100    3.927310    8.367630
  C    -33.546600    1.376030    7.094520
  H    -33.880900    0.635285    6.364100
  H    -34.296900    1.347770    7.856310
  C    -32.146900    1.022360    7.658480
  H    -32.168200    0.105043    8.220870
  H    -32.033700    1.827710    8.373390
  C    -30.925600    0.973832    6.635960
  H    -30.322200    1.927620    6.685080
  H    -31.269700    0.758675    5.616590
  H    -30.170800    0.280098    6.979030
  H    -34.157800    1.568720    0.405716
  H    -33.596000    6.109270    7.281560

 Total Charge           Charge          ....    0
 Multiplicity           Mult            ....    1
 Number of Electrons    NEL             ....  134
 Basis Dimension        Dim             ....  322

ORBITAL ENERGIES
----------------

  NO   OCC          E(Eh)            E(eV)
   0   2.0000     -88.970334     -2421.0059
   1   2.0000     -88.961151     -2420.7560
   2   2.0000     -10.330990      -281.1205
   3   2.0000     -10.330377      -281.1039
   4   2.0000     -10.320692      -280.8403
   5   2.0000     -10.317806      -280.7618
   6   2.0000     -10.302852      -280.3549
   7   2.0000     -10.300120      -280.2805
   8   2.0000     -10.298033      -280.2237
   9   2.0000     -10.295787      -280.1626
  10   2.0000     -10.292568      -280.0750
  11   2.0000     -10.288943      -279.9764
  12   2.0000     -10.287631      -279.9407
  13   2.0000     -10.287276      -279.9310
  14   2.0000     -10.280400      -279.7439
  15   2.0000     -10.269479      -279.4467
  16   2.0000      -8.083862      -219.9731
  17   2.0000      -8.076070      -219.7610
  18   2.0000      -6.042490      -164.4245
  19   2.0000      -6.038665      -164.3204
  20   2.0000      -6.034598      -164.2098
  21   2.0000      -6.034424      -164.2050
  22   2.0000      -6.030363      -164.0945
  23   2.0000      -6.026944      -164.0015
  24   2.0000      -1.003429       -27.3047
  25   2.0000      -0.983579       -26.7645
  26   2.0000      -0.902859       -24.5680
  27   2.0000      -0.901407       -24.5285
  28   2.0000      -0.868389       -23.6301
  29   2.0000      -0.850498       -23.1432
  30   2.0000      -0.841202       -22.8903
  31   2.0000      -0.813376       -22.1331
  32   2.0000      -0.784681       -21.3523
  33   2.0000      -0.770344       -20.9621
  34   2.0000      -0.712386       -19.3850
  35   2.0000      -0.700897       -19.0724
  36   2.0000      -0.695126       -18.9153
  37   2.0000      -0.656656       -17.8685
  38   2.0000      -0.639138       -17.3918
  39   2.0000      -0.619886       -16.8679
  40   2.0000      -0.593766       -16.1572
  41   2.0000      -0.561697       -15.2845
  42   2.0000      -0.551363       -15.0034
  43   2.0000      -0.549409       -14.9502
  44   2.0000      -0.538797       -14.6614
  45   2.0000      -0.529490       -14.4082
  46   2.0000      -0.513677       -13.9779
  47   2.0000      -0.510703       -13.8969
  48   2.0000      -0.505683       -13.7603
  49   2.0000      -0.495893       -13.4939
  50   2.0000      -0.486748       -13.2451
  51   2.0000      -0.481714       -13.1081
  52   2.0000      -0.468169       -12.7395
  53   2.0000      -0.462113       -12.5747
  54   2.0000      -0.455994       -12.4082
  55   2.0000      -0.450878       -12.2690
  56   2.0000      -0.442624       -12.0444
  57   2.0000      -0.441781       -12.0215
  58   2.0000      -0.437242       -11.8980
  59   2.0000      -0.421314       -11.4645
  60   2.0000      -0.417625       -11.3642
  61   2.0000      -0.415216       -11.2986
  62   2.0000      -0.412273       -11.2185
  63   2.0000      -0.345899        -9.4124
  64   2.0000      -0.334022        -9.0892
  65   2.0000      -0.321038        -8.7359
  66   2.0000      -0.291135        -7.9222
  67   0.0000       0.023299         0.6340
  68   0.0000       0.065746         1.7890
  69   0.0000       0.104646         2.8476
  70   0.0000       0.125642         3.4189
  71   0.0000       0.135705         3.6927

MULLIKEN ATOMIC CHARGES
-----------------------
   0 S :    0.096677
   1 C :   -0.144581
   2 C :   -0.131682
   3 C :    0.058279
   4 C :   -0.153483
   5 H :   -0.019513
   6 C :    0.090013
   7 H :    0.038171
   8 H :    0.018886
   9 C :   -0.082617
  10 H :    0.037321
  11 H :    0.019150
  12 C :    0.005905
  13 H :    0.020252
  14 H :    0.020112
  15 H :    0.016142
  16 S :    0.125548
  17 C :   -0.096757
  18 C :   -0.044777
  19 C :   -0.016332
  20 C :   -0.184952
  21 H :    0.009977
  22 C :    0.080919
  23 H :    0.017933
  24 H :    0.030815
  25 C :   -0.076932
  26 H :    0.029172
  27 H :    0.018601
  28 C :   -0.062347
  29 H :    0.041891
  30 H :    0.053065
  31 H :    0.030474
  32 H :    0.087449
  33 H :    0.067220
Sum of atomic charges:    0.0000000

LOEWDIN ATOMIC CHARGES
----------------------
   0 S :    0.405150
   1 C :   -0.229376
   2 C :   -0.075985
   3 C :   -0.050616
   4 C :   -0.185640
   5 H :    0.013253
   6 C :   -0.026438
   7 H :    0.035741
   8 H :    0.029188
   9 C :   -0.037653
  10 H :    0.029906
  11 H :    0.022001
  12 C :   -0.056641
  13 H :    0.026383
  14 H :    0.018275
  15 H :    0.018511
  16 S :    0.394217
  17 C :   -0.192336
  18 C :   -0.074519
  19 C :   -0.050518
  20 C :   -0.187122
  21 H :    0.024062
  22 C :   -0.022493
  23 H :    0.025172
  24 H :    0.032239
  25 C :   -0.039707
  26 H :    0.020503
  27 H :    0.019913
  28 C :   -0.070863
  29 H :    0.035783
  30 H :    0.030106
  31 H :    0.025187
  32 H :    0.053580
  33 H :    0.040736

  Mayer bond orders larger than 0.100000
B(  0-S ,  1-C ) :   1.1637 B(  0-S ,  4-C ) :   1.1374 B(  1-C ,  2-C ) :   1.5936
B(  1-C , 32-H ) :   0.9467 B(  2-C ,  3-C ) :   1.2771 B(  2-C ,  6-C ) :   1.0081
B(  3-C ,  4-C ) :   1.5529 B(  3-C ,  5-H ) :   0.9975 B(  4-C , 20-C ) :   1.0637
B(  6-C ,  7-H ) :   0.9438 B(  6-C ,  8-H ) :   0.9436 B(  6-C ,  9-C ) :   1.0358
B(  9-C , 10-H ) :   0.9655 B(  9-C , 11-H ) :   0.9550 B(  9-C , 12-C ) :   1.0837
B( 12-C , 13-H ) :   0.9745 B( 12-C , 14-H ) :   0.9780 B( 12-C , 15-H ) :   0.9730
B( 16-S , 17-C ) :   1.1446 B( 16-S , 20-C ) :   1.1368 B( 17-C , 18-C ) :   1.6062
B( 17-C , 20-C ) :   0.1010 B( 17-C , 33-H ) :   0.9630 B( 18-C , 19-C ) :   1.2656
B( 18-C , 21-H ) :   0.9831 B( 19-C , 20-C ) :   1.5750 B( 19-C , 22-C ) :   1.0237
B( 22-C , 23-H ) :   0.9356 B( 22-C , 24-H ) :   0.9398 B( 22-C , 25-C ) :   1.0718
B( 25-C , 26-H ) :   0.9622 B( 25-C , 27-H ) :   0.9632 B( 25-C , 28-C ) :   1.0514
B( 28-C , 29-H ) :   0.9773 B( 28-C , 30-H ) :   0.9812 B( 28-C , 31-H ) :   0.9780

Dispersion correction           -0.014163608
FINAL SINGLE POINT ENERGY     -1339.855147664087

DIPOLE MOMENT
-------------
                                X             Y             Z
Electronic contribution:      6.08416      21.26130      -3.94188
Nuclear contribution   :     -6.49233     -21.68872       4.25468
                        -----------------------------------------
Total Dipole Moment    :     -0.40818      -0.42743       0.31280
                        -----------------------------------------
Magnitude (a.u.)       :      0.66869
Magnitude (Debye)      :      1.69968

Rotational constants in cm-1:     0.018737     0.007765     0.007129
Rotational constants in MHz :   561.728153   232.778835   213.709436

                             ****ORCA TERMINATED NORMALLY****
TOTAL RUN TIME: 0 days 0 hours 0 minutes 20 seconds 111 msec
