                         Program Version 4.2.1 -  RELEASE  -
|  1> ! wB97X-D3 SP def2-SVP
|  2> %pal
|  3> nprocs 24
|  4> end
|  5>
|  6> * xyz 0 1
|  7> S 	 -102.57 	 65.866 	 -10.1659
|  8> C 	 -101.915 	 66.8546 	 -8.95401
|  9> C 	 -102.46 	 66.5167 	 -7.73259
| 10> C 	 -103.696 	 65.7899 	 -7.82901
| 11> C 	 -103.942 	 65.414 	 -9.12706
| 12> H 	 -104.379 	 65.5798 	 -6.97788
| 13> C 	 -102.062 	 67.1585 	 -6.42012
| 14> H 	 -102.702 	 67.9685 	 -6.20118
| 15> H 	 -101.072 	 67.5895 	 -6.57164
| 16> C 	 -101.918 	 66.1732 	 -5.2425
| 17> H 	 -102.835 	 65.5549 	 -5.10884
| 18> H 	 -100.992 	 65.5488 	 -5.39124
| 19> C 	 -101.676 	 66.8216 	 -3.92974
| 20> H 	 -100.758 	 67.4034 	 -3.8428
| 21> H 	 -102.303 	 67.6848 	 -3.76016
| 22> H 	 -101.548 	 66.0942 	 -3.15503
| 23> S 	 -104.638 	 63.3105 	 -10.6876
| 24> C 	 -106.369 	 62.9997 	 -11.0541
| 25> C 	 -107.137 	 63.7336 	 -10.182
| 26> C 	 -106.422 	 64.7988 	 -9.40932
| 27> C 	 -105.066 	 64.7214 	 -9.64173
| 28> H 	 -108.21 	 63.5511 	 -10.1777
| 29> C 	 -107.106 	 65.741 	 -8.44196
| 30> H 	 -106.317 	 66.1621 	 -7.83523
| 31> H 	 -107.681 	 65.1841 	 -7.66235
| 32> C 	 -107.859 	 66.9226 	 -9.0367
| 33> H 	 -108.129 	 67.5641 	 -8.23681
| 34> H 	 -108.751 	 66.6986 	 -9.55446
| 35> C 	 -106.991 	 67.7504 	 -10.0238
| 36> H 	 -107.55 	 68.7244 	 -10.119
| 37> H 	 -106.855 	 67.3214 	 -11.0084
| 38> H 	 -106.003 	 67.9043 	 -9.61112
| 39> H 	 -100.934 	 67.3375 	 -9.13987
| 40> H 	 -106.653 	 62.1385 	 -11.5557
| 41> *
| 42>
| 43>                          ****END OF INPUT****

CARTESIAN COORDINATES (ANGSTROEM)
---------------------------------
  S    -102.570000   65.866000  -10.165900
  C    -101.915000   66.854600   -8.954010
  C    -102.460000   66.516700   -7.732590
  C    -103.696000   65.789900   -7.829010
  C    -103.942000   65.414000   -9.127060
  H    -104.379000   65.579800   -6.977880
  C    -102.062000   67.158500   -6.420120
  H    -102.702000   67.968500   -6.201180
  H    -101.072000   67.589500   -6.571640
  C    -101.918000   66.173200   -5.242500
  H    -102.835000   65.554900   -5.108840
  H    -100.992000   65.548800   -5.391240
  C    -101.676000   66.821600   -3.929740
  H    -100.758000   67.403400   -3.842800
  H    -102.303000   67.684800   -3.760160
  H    -101.548000   66.094200   -3.155030
  S    -104.638000   63.310500  -10.687600
  C    -106.369000   62.999700  -11.054100
  C    -107.137000   63.733600  -10.182000
  C    -106.422000   64.798800   -9.409320
  C    -105.066000   64.721400   -9.641730
  H    -108.210000   63.551100  -10.177700
  C    -107.106000   65.741000   -8.441960
  H    -106.317000   66.162100   -7.835230
  H    -107.681000   65.184100   -7.662350
  C    -107.859000   66.922600   -9.036700
  H    -108.129000   67.564100   -8.236810
  H    -108.751000   66.698600   -9.554460
  C    -106.991000   67.750400  -10.023800
  H    -107.550000   68.724400  -10.119000
  H    -106.855000   67.321400  -11.008400
  H    -106.003000   67.904300   -9.611120
  H    -100.934000   67.337500   -9.139870
  H    -106.653000   62.138500  -11.555700

 Total Charge           Charge          ....    0
 Multiplicity           Mult            ....    1
 Number of Electrons    NEL             ....  134
 Basis Dimension        Dim             ....  322

ORBITAL ENERGIES
----------------

  NO   OCC          E(Eh)            E(eV)
   0   2.0000     -88.963612     -2420.8229
   1   2.0000     -88.957886     -2420.6671
   2   2.0000     -10.329035      -281.0673
   3   2.0000     -10.328526      -281.0535
   4   2.0000     -10.315982      -280.7121
   5   2.0000     -10.314131      -280.6618
   6   2.0000     -10.310592      -280.5655
   7   2.0000     -10.301455      -280.3168
   8   2.0000     -10.301439      -280.3164
   9   2.0000     -10.299942      -280.2757
  10   2.0000     -10.293975      -280.1133
  11   2.0000     -10.290890      -280.0294
  12   2.0000     -10.287998      -279.9507
  13   2.0000     -10.278586      -279.6945
  14   2.0000     -10.272702      -279.5344
  15   2.0000     -10.271580      -279.5039
  16   2.0000      -8.079307      -219.8491
  17   2.0000      -8.071744      -219.6433
  18   2.0000      -6.037757      -164.2957
  19   2.0000      -6.033768      -164.1872
  20   2.0000      -6.030503      -164.0983
  21   2.0000      -6.029940      -164.0830
  22   2.0000      -6.026601      -163.9921
  23   2.0000      -6.022053      -163.8684
  24   2.0000      -1.009062       -27.4580
  25   2.0000      -0.977171       -26.5902
  26   2.0000      -0.915186       -24.9035
  27   2.0000      -0.907992       -24.7077
  28   2.0000      -0.877277       -23.8719
  29   2.0000      -0.855727       -23.2855
  30   2.0000      -0.838104       -22.8060
  31   2.0000      -0.817603       -22.2481
  32   2.0000      -0.780723       -21.2445
  33   2.0000      -0.770972       -20.9792
  34   2.0000      -0.711870       -19.3710
  35   2.0000      -0.698522       -19.0078
  36   2.0000      -0.692964       -18.8565
  37   2.0000      -0.659871       -17.9560
  38   2.0000      -0.643302       -17.5051
  39   2.0000      -0.624119       -16.9831
  40   2.0000      -0.597008       -16.2454
  41   2.0000      -0.572735       -15.5849
  42   2.0000      -0.557532       -15.1712
  43   2.0000      -0.551200       -14.9989
  44   2.0000      -0.545732       -14.8501
  45   2.0000      -0.534882       -14.5549
  46   2.0000      -0.519094       -14.1253
  47   2.0000      -0.513383       -13.9699
  48   2.0000      -0.509764       -13.8714
  49   2.0000      -0.498777       -13.5724
  50   2.0000      -0.496992       -13.5238
  51   2.0000      -0.473554       -12.8861
  52   2.0000      -0.468639       -12.7523
  53   2.0000      -0.461437       -12.5563
  54   2.0000      -0.456016       -12.4088
  55   2.0000      -0.451798       -12.2940
  56   2.0000      -0.439587       -11.9618
  57   2.0000      -0.433871       -11.8062
  58   2.0000      -0.432271       -11.7627
  59   2.0000      -0.421517       -11.4701
  60   2.0000      -0.414102       -11.2683
  61   2.0000      -0.412633       -11.2283
  62   2.0000      -0.407592       -11.0911
  63   2.0000      -0.357215        -9.7203
  64   2.0000      -0.329275        -8.9600
  65   2.0000      -0.324042        -8.8176
  66   2.0000      -0.290673        -7.9096
  67   0.0000       0.024060         0.6547
  68   0.0000       0.065858         1.7921
  69   0.0000       0.094458         2.5703
  70   0.0000       0.119952         3.2641
  71   0.0000       0.130408         3.5486

MULLIKEN ATOMIC CHARGES
-----------------------
   0 S :    0.117843
   1 C :   -0.127251
   2 C :   -0.080284
   3 C :    0.009487
   4 C :   -0.149095
   5 H :    0.045794
   6 C :    0.064675
   7 H :    0.030009
   8 H :    0.010029
   9 C :   -0.105453
  10 H :    0.039666
  11 H :    0.042592
  12 C :   -0.016459
  13 H :    0.004351
  14 H :    0.012970
  15 H :    0.035497
  16 S :    0.057776
  17 C :   -0.057154
  18 C :   -0.038586
  19 C :   -0.048913
  20 C :   -0.137119
  21 H :    0.026778
  22 C :    0.063205
  23 H :   -0.006124
  24 H :    0.039101
  25 C :   -0.025557
  26 H :    0.018717
  27 H :    0.020257
  28 C :   -0.076747
  29 H :    0.037250
  30 H :    0.048226
  31 H :    0.031525
  32 H :    0.069401
  33 H :    0.043591
Sum of atomic charges:   -0.0000000

LOEWDIN ATOMIC CHARGES
----------------------
   0 S :    0.416144
   1 C :   -0.214391
   2 C :   -0.065951
   3 C :   -0.060189
   4 C :   -0.187702
   5 H :    0.039766
   6 C :   -0.030081
   7 H :    0.024784
   8 H :    0.029286
   9 C :   -0.045525
  10 H :    0.025614
  11 H :    0.035897
  12 C :   -0.074399
  13 H :    0.023658
  14 H :    0.022680
  15 H :    0.027141
  16 S :    0.343857
  17 C :   -0.159311
  18 C :   -0.060121
  19 C :   -0.054143
  20 C :   -0.168924
  21 H :    0.030931
  22 C :   -0.038610
  23 H :    0.026409
  24 H :    0.037959
  25 C :   -0.033281
  26 H :    0.021682
  27 H :    0.016532
  28 C :   -0.062964
  29 H :    0.032468
  30 H :    0.025979
  31 H :    0.022328
  32 H :    0.036074
  33 H :    0.016402

  Mayer bond orders larger than 0.100000
B(  0-S ,  1-C ) :   1.1487 B(  0-S ,  4-C ) :   1.1402 B(  1-C ,  2-C ) :   1.6008
B(  1-C , 32-H ) :   0.9616 B(  2-C ,  3-C ) :   1.2228 B(  2-C ,  6-C ) :   1.0364
B(  3-C ,  4-C ) :   1.5750 B(  3-C ,  5-H ) :   0.9795 B(  4-C , 20-C ) :   1.0769
B(  6-C ,  7-H ) :   0.9475 B(  6-C ,  8-H ) :   0.9368 B(  6-C ,  9-C ) :   1.0617
B(  9-C , 10-H ) :   0.9569 B(  9-C , 11-H ) :   0.9529 B(  9-C , 12-C ) :   1.0963
B( 12-C , 13-H ) :   0.9628 B( 12-C , 14-H ) :   0.9666 B( 12-C , 15-H ) :   0.9711
B( 16-S , 17-C ) :   1.1041 B( 16-S , 20-C ) :   1.1172 B( 17-C , 18-C ) :   1.6759
B( 17-C , 33-H ) :   0.9749 B( 18-C , 19-C ) :   1.1581 B( 18-C , 21-H ) :   0.9845
B( 19-C , 20-C ) :   1.6446 B( 19-C , 22-C ) :   1.0497 B( 22-C , 23-H ) :   0.9251
B( 22-C , 24-H ) :   0.9335 B( 22-C , 25-C ) :   1.0775 B( 25-C , 26-H ) :   0.9548
B( 25-C , 27-H ) :   0.9570 B( 25-C , 28-C ) :   1.0730 B( 28-C , 29-H ) :   0.9748
B( 28-C , 30-H ) :   0.9737 B( 28-C , 31-H ) :   0.9788

Dispersion correction           -0.014502953
FINAL SINGLE POINT ENERGY     -1339.864196224240

DIPOLE MOMENT
-------------
                                X             Y             Z
Electronic contribution:      4.71888     -14.96826     -21.02917
Nuclear contribution   :     -4.93184      15.23932      21.69597
                        -----------------------------------------
Total Dipole Moment    :     -0.21296       0.27106       0.66680
                        -----------------------------------------
Magnitude (a.u.)       :      0.75063
Magnitude (Debye)      :      1.90795

Rotational constants in cm-1:     0.019434     0.008305     0.007227
Rotational constants in MHz :   582.613112   248.992362   216.673930

                             ****ORCA TERMINATED NORMALLY****
TOTAL RUN TIME: 0 days 0 hours 0 minutes 21 seconds 961 msec
