                         Program Version 4.2.1 -  RELEASE  -
|  1> ! wB97X-D3 SP def2-SVP
|  2> %pal
|  3> nprocs 24
|  4> end
|  5>
|  6> * xyz 0 1
|  7> S 	 -103.95 	 44.3252 	 -98.5608
|  8> C 	 -102.912 	 42.9581 	 -98.3661
|  9> C 	 -102.533 	 42.6915 	 -97.0762
| 10> C 	 -103.144 	 43.5951 	 -96.1422
| 11> C 	 -103.969 	 44.5533 	 -96.7759
| 12> H 	 -103.057 	 43.5447 	 -95.0944
| 13> C 	 -101.616 	 41.5211 	 -96.7307
| 14> H 	 -101.646 	 40.7483 	 -97.4592
| 15> H 	 -102.153 	 40.9483 	 -95.9887
| 16> C 	 -100.128 	 41.8086 	 -96.2186
| 17> H 	 -99.706 	 42.6477 	 -96.8136
| 18> H 	 -100.196 	 42.1695 	 -95.2004
| 19> C 	 -99.343 	 40.5158 	 -96.386
| 20> H 	 -99.821 	 39.7255 	 -95.8385
| 21> H 	 -99.0027 	 40.1535 	 -97.3519
| 22> H 	 -98.4911 	 40.6279 	 -95.7821
| 23> S 	 -106.413 	 45.7855 	 -96.4114
| 24> C 	 -106.549 	 47.1896 	 -95.454
| 25> C 	 -105.354 	 47.5839 	 -94.9182
| 26> C 	 -104.275 	 46.6791 	 -95.344
| 27> C 	 -104.671 	 45.6823 	 -96.1705
| 28> H 	 -105.25 	 48.486 	 -94.2963
| 29> C 	 -102.889 	 46.8554 	 -94.8394
| 30> H 	 -102.242 	 46.0322 	 -95.2285
| 31> H 	 -102.833 	 46.6914 	 -93.8102
| 32> C 	 -102.311 	 48.1464 	 -95.3606
| 33> H 	 -101.361 	 48.2425 	 -94.8514
| 34> H 	 -102.861 	 49.0927 	 -95.1475
| 35> C 	 -101.972 	 48.1422 	 -96.906
| 36> H 	 -101.425 	 47.2939 	 -97.231
| 37> H 	 -101.426 	 49.0174 	 -97.2805
| 38> H 	 -102.836 	 48.2223 	 -97.523
| 39> H 	 -102.409 	 42.439 	 -99.1523
| 40> H 	 -107.42 	 47.8308 	 -95.349
| 41> *
| 42>
| 43>                          ****END OF INPUT****

CARTESIAN COORDINATES (ANGSTROEM)
---------------------------------
  S    -103.950000   44.325200  -98.560800
  C    -102.912000   42.958100  -98.366100
  C    -102.533000   42.691500  -97.076200
  C    -103.144000   43.595100  -96.142200
  C    -103.969000   44.553300  -96.775900
  H    -103.057000   43.544700  -95.094400
  C    -101.616000   41.521100  -96.730700
  H    -101.646000   40.748300  -97.459200
  H    -102.153000   40.948300  -95.988700
  C    -100.128000   41.808600  -96.218600
  H    -99.706000   42.647700  -96.813600
  H    -100.196000   42.169500  -95.200400
  C    -99.343000   40.515800  -96.386000
  H    -99.821000   39.725500  -95.838500
  H    -99.002700   40.153500  -97.351900
  H    -98.491100   40.627900  -95.782100
  S    -106.413000   45.785500  -96.411400
  C    -106.549000   47.189600  -95.454000
  C    -105.354000   47.583900  -94.918200
  C    -104.275000   46.679100  -95.344000
  C    -104.671000   45.682300  -96.170500
  H    -105.250000   48.486000  -94.296300
  C    -102.889000   46.855400  -94.839400
  H    -102.242000   46.032200  -95.228500
  H    -102.833000   46.691400  -93.810200
  C    -102.311000   48.146400  -95.360600
  H    -101.361000   48.242500  -94.851400
  H    -102.861000   49.092700  -95.147500
  C    -101.972000   48.142200  -96.906000
  H    -101.425000   47.293900  -97.231000
  H    -101.426000   49.017400  -97.280500
  H    -102.836000   48.222300  -97.523000
  H    -102.409000   42.439000  -99.152300
  H    -107.420000   47.830800  -95.349000

 Total Charge           Charge          ....    0
 Multiplicity           Mult            ....    1
 Number of Electrons    NEL             ....  134
 Basis Dimension        Dim             ....  322

ORBITAL ENERGIES
----------------

  NO   OCC          E(Eh)            E(eV)
   0   2.0000     -88.968440     -2420.9543
   1   2.0000     -88.958450     -2420.6825
   2   2.0000     -10.335771      -281.2506
   3   2.0000     -10.320505      -280.8352
   4   2.0000     -10.312708      -280.6230
   5   2.0000     -10.307479      -280.4808
   6   2.0000     -10.299393      -280.2607
   7   2.0000     -10.298684      -280.2414
   8   2.0000     -10.298248      -280.2296
   9   2.0000     -10.296201      -280.1739
  10   2.0000     -10.293906      -280.1114
  11   2.0000     -10.289778      -279.9991
  12   2.0000     -10.287064      -279.9252
  13   2.0000     -10.282775      -279.8085
  14   2.0000     -10.274952      -279.5957
  15   2.0000     -10.267469      -279.3920
  16   2.0000      -8.082594      -219.9386
  17   2.0000      -8.074270      -219.7121
  18   2.0000      -6.041015      -164.3844
  19   2.0000      -6.037247      -164.2818
  20   2.0000      -6.033417      -164.1776
  21   2.0000      -6.032843      -164.1620
  22   2.0000      -6.028604      -164.0467
  23   2.0000      -6.024906      -163.9460
  24   2.0000      -1.004809       -27.3423
  25   2.0000      -0.982600       -26.7379
  26   2.0000      -0.910886       -24.7865
  27   2.0000      -0.906060       -24.6551
  28   2.0000      -0.870225       -23.6800
  29   2.0000      -0.851690       -23.1757
  30   2.0000      -0.838064       -22.8049
  31   2.0000      -0.815696       -22.1962
  32   2.0000      -0.784403       -21.3447
  33   2.0000      -0.773270       -21.0417
  34   2.0000      -0.713410       -19.4129
  35   2.0000      -0.703036       -19.1306
  36   2.0000      -0.695262       -18.9190
  37   2.0000      -0.656762       -17.8714
  38   2.0000      -0.641936       -17.4680
  39   2.0000      -0.620819       -16.8933
  40   2.0000      -0.600563       -16.3421
  41   2.0000      -0.569425       -15.4948
  42   2.0000      -0.558561       -15.1992
  43   2.0000      -0.554266       -15.0824
  44   2.0000      -0.533007       -14.5039
  45   2.0000      -0.520168       -14.1545
  46   2.0000      -0.516139       -14.0449
  47   2.0000      -0.512545       -13.9470
  48   2.0000      -0.502552       -13.6751
  49   2.0000      -0.492880       -13.4120
  50   2.0000      -0.487378       -13.2622
  51   2.0000      -0.481807       -13.1106
  52   2.0000      -0.470587       -12.8053
  53   2.0000      -0.462704       -12.5908
  54   2.0000      -0.459519       -12.5042
  55   2.0000      -0.450116       -12.2483
  56   2.0000      -0.447968       -12.1898
  57   2.0000      -0.443845       -12.0776
  58   2.0000      -0.436130       -11.8677
  59   2.0000      -0.422725       -11.5029
  60   2.0000      -0.417789       -11.3686
  61   2.0000      -0.414852       -11.2887
  62   2.0000      -0.404623       -11.0104
  63   2.0000      -0.344307        -9.3691
  64   2.0000      -0.332433        -9.0460
  65   2.0000      -0.323990        -8.8162
  66   2.0000      -0.296503        -8.0683
  67   0.0000       0.035249         0.9592
  68   0.0000       0.071846         1.9550
  69   0.0000       0.117875         3.2076
  70   0.0000       0.123966         3.3733
  71   0.0000       0.128187         3.4881

MULLIKEN ATOMIC CHARGES
-----------------------
   0 S :    0.118778
   1 C :   -0.094108
   2 C :   -0.092688
   3 C :    0.066069
   4 C :   -0.167359
   5 H :   -0.001117
   6 C :    0.046905
   7 H :    0.003008
   8 H :    0.017768
   9 C :   -0.062856
  10 H :    0.042196
  11 H :    0.031724
  12 C :   -0.016731
  13 H :    0.016500
  14 H :    0.046191
  15 H :    0.009559
  16 S :    0.100899
  17 C :   -0.076610
  18 C :   -0.049431
  19 C :   -0.050142
  20 C :   -0.159807
  21 H :    0.029765
  22 C :    0.098047
  23 H :    0.018592
  24 H :    0.021501
  25 C :   -0.081823
  26 H :    0.021778
  27 H :    0.037115
  28 C :   -0.044057
  29 H :    0.025618
  30 H :    0.024934
  31 H :    0.025151
  32 H :    0.036578
  33 H :    0.058054
Sum of atomic charges:    0.0000000

LOEWDIN ATOMIC CHARGES
----------------------
   0 S :    0.400206
   1 C :   -0.198622
   2 C :   -0.066671
   3 C :   -0.047157
   4 C :   -0.178446
   5 H :    0.024291
   6 C :   -0.038965
   7 H :    0.024186
   8 H :    0.031344
   9 C :   -0.030570
  10 H :    0.028436
  11 H :    0.024393
  12 C :   -0.066149
  13 H :    0.025600
  14 H :    0.029757
  15 H :    0.022422
  16 S :    0.407494
  17 C :   -0.194061
  18 C :   -0.077085
  19 C :   -0.050615
  20 C :   -0.206495
  21 H :    0.035411
  22 C :   -0.033548
  23 H :    0.036633
  24 H :    0.024492
  25 C :   -0.036703
  26 H :    0.021708
  27 H :    0.025896
  28 C :   -0.065338
  29 H :    0.019825
  30 H :    0.028409
  31 H :    0.021575
  32 H :    0.024627
  33 H :    0.033721

  Mayer bond orders larger than 0.100000
B(  0-S ,  1-C ) :   1.1377 B(  0-S ,  4-C ) :   1.1489 B(  1-C ,  2-C ) :   1.6331
B(  1-C , 32-H ) :   0.9617 B(  2-C ,  3-C ) :   1.2343 B(  2-C ,  6-C ) :   1.0212
B(  3-C ,  4-C ) :   1.5652 B(  3-C ,  5-H ) :   1.0029 B(  4-C , 20-C ) :   1.0286
B(  6-C ,  7-H ) :   0.9476 B(  6-C ,  8-H ) :   0.9308 B(  6-C ,  9-C ) :   1.0352
B(  9-C , 10-H ) :   0.9635 B(  9-C , 11-H ) :   0.9547 B(  9-C , 12-C ) :   1.0838
B( 12-C , 13-H ) :   0.9681 B( 12-C , 14-H ) :   0.9769 B( 12-C , 15-H ) :   0.9663
B( 16-S , 17-C ) :   1.1602 B( 16-S , 20-C ) :   1.1153 B( 17-C , 18-C ) :   1.6330
B( 17-C , 33-H ) :   0.9628 B( 18-C , 19-C ) :   1.1976 B( 18-C , 21-H ) :   0.9885
B( 19-C , 20-C ) :   1.6475 B( 19-C , 22-C ) :   1.0487 B( 22-C , 23-H ) :   0.9272
B( 22-C , 24-H ) :   0.9301 B( 22-C , 25-C ) :   1.0715 B( 25-C , 26-H ) :   0.9544
B( 25-C , 27-H ) :   0.9615 B( 25-C , 28-C ) :   1.0659 B( 28-C , 29-H ) :   0.9763
B( 28-C , 30-H ) :   0.9752 B( 28-C , 31-H ) :   0.9752

Dispersion correction           -0.014655439
FINAL SINGLE POINT ENERGY     -1339.874598653616

DIPOLE MOMENT
-------------
                                X             Y             Z
Electronic contribution:    -25.89875       3.77857      -7.02433
Nuclear contribution   :     26.54763      -3.86250       7.44266
                        -----------------------------------------
Total Dipole Moment    :      0.64887      -0.08393       0.41833
                        -----------------------------------------
Magnitude (a.u.)       :      0.77659
Magnitude (Debye)      :      1.97392

Rotational constants in cm-1:     0.021283     0.007827     0.006764
Rotational constants in MHz :   638.045063   234.639775   202.789023

                             ****ORCA TERMINATED NORMALLY****
TOTAL RUN TIME: 0 days 0 hours 0 minutes 21 seconds 816 msec
