                         Program Version 4.2.1 -  RELEASE  -
|  1> ! wB97X-D3 SP def2-SVP
|  2> %pal
|  3> nprocs 24
|  4> end
|  5>
|  6> * xyz 0 1
|  7> S 	 -144.827 	 6.85809 	 11.1664
|  8> C 	 -144.744 	 5.75588 	 9.87848
|  9> C 	 -145.328 	 6.21054 	 8.71311
| 10> C 	 -145.708 	 7.58991 	 8.84322
| 11> C 	 -145.364 	 8.13336 	 10.0524
| 12> H 	 -146.131 	 8.21944 	 8.05738
| 13> C 	 -145.478 	 5.44019 	 7.38908
| 14> H 	 -146.538 	 5.07105 	 7.47978
| 15> H 	 -144.846 	 4.60264 	 7.59813
| 16> C 	 -145.384 	 6.12248 	 6.06636
| 17> H 	 -145.542 	 5.35092 	 5.26321
| 18> H 	 -146.038 	 7.01599 	 5.98301
| 19> C 	 -144.004 	 6.79309 	 5.85801
| 20> H 	 -143.103 	 6.21268 	 5.99336
| 21> H 	 -143.834 	 7.36457 	 4.89228
| 22> H 	 -143.874 	 7.48955 	 6.74398
| 23> S 	 -146.011 	 9.66483 	 12.308
| 24> C 	 -146.412 	 11.3521 	 12.1035
| 25> C 	 -146.059 	 11.7376 	 10.8815
| 26> C 	 -145.734 	 10.6927 	 9.92331
| 27> C 	 -145.591 	 9.47013 	 10.571
| 28> H 	 -146.146 	 12.8434 	 10.6909
| 29> C 	 -145.451 	 10.9219 	 8.49744
| 30> H 	 -146.406 	 10.9032 	 7.94818
| 31> H 	 -144.851 	 10.1342 	 8.07387
| 32> C 	 -144.754 	 12.2828 	 8.25497
| 33> H 	 -143.774 	 12.1921 	 8.77756
| 34> H 	 -145.342 	 13.1041 	 8.63014
| 35> C 	 -144.28 	 12.3823 	 6.80697
| 36> H 	 -143.913 	 11.4194 	 6.48837
| 37> H 	 -143.506 	 13.1176 	 6.66685
| 38> H 	 -145.014 	 12.7594 	 6.2048
| 39> H 	 -144.375 	 4.73678 	 9.97161
| 40> H 	 -146.665 	 12.1227 	 12.8971
| 41> *
| 42>
| 43>                          ****END OF INPUT****

CARTESIAN COORDINATES (ANGSTROEM)
---------------------------------
  S    -144.827000    6.858090   11.166400
  C    -144.744000    5.755880    9.878480
  C    -145.328000    6.210540    8.713110
  C    -145.708000    7.589910    8.843220
  C    -145.364000    8.133360   10.052400
  H    -146.131000    8.219440    8.057380
  C    -145.478000    5.440190    7.389080
  H    -146.538000    5.071050    7.479780
  H    -144.846000    4.602640    7.598130
  C    -145.384000    6.122480    6.066360
  H    -145.542000    5.350920    5.263210
  H    -146.038000    7.015990    5.983010
  C    -144.004000    6.793090    5.858010
  H    -143.103000    6.212680    5.993360
  H    -143.834000    7.364570    4.892280
  H    -143.874000    7.489550    6.743980
  S    -146.011000    9.664830   12.308000
  C    -146.412000   11.352100   12.103500
  C    -146.059000   11.737600   10.881500
  C    -145.734000   10.692700    9.923310
  C    -145.591000    9.470130   10.571000
  H    -146.146000   12.843400   10.690900
  C    -145.451000   10.921900    8.497440
  H    -146.406000   10.903200    7.948180
  H    -144.851000   10.134200    8.073870
  C    -144.754000   12.282800    8.254970
  H    -143.774000   12.192100    8.777560
  H    -145.342000   13.104100    8.630140
  C    -144.280000   12.382300    6.806970
  H    -143.913000   11.419400    6.488370
  H    -143.506000   13.117600    6.666850
  H    -145.014000   12.759400    6.204800
  H    -144.375000    4.736780    9.971610
  H    -146.665000   12.122700   12.897100

 Total Charge           Charge          ....    0
 Multiplicity           Mult            ....    1
 Number of Electrons    NEL             ....  134
 Basis Dimension        Dim             ....  322

ORBITAL ENERGIES
----------------

  NO   OCC          E(Eh)            E(eV)
   0   2.0000     -88.965410     -2420.8719
   1   2.0000     -88.959983     -2420.7242
   2   2.0000     -10.330886      -281.1177
   3   2.0000     -10.329317      -281.0750
   4   2.0000     -10.316326      -280.7215
   5   2.0000     -10.311169      -280.5812
   6   2.0000     -10.303622      -280.3758
   7   2.0000     -10.303010      -280.3592
   8   2.0000     -10.300308      -280.2856
   9   2.0000     -10.296618      -280.1852
  10   2.0000     -10.295685      -280.1598
  11   2.0000     -10.292978      -280.0862
  12   2.0000     -10.290548      -280.0200
  13   2.0000     -10.287413      -279.9347
  14   2.0000     -10.282995      -279.8145
  15   2.0000     -10.268301      -279.4147
  16   2.0000      -8.080899      -219.8925
  17   2.0000      -8.074432      -219.7165
  18   2.0000      -6.039423      -164.3411
  19   2.0000      -6.035465      -164.2334
  20   2.0000      -6.033253      -164.1731
  21   2.0000      -6.031447      -164.1240
  22   2.0000      -6.029120      -164.0607
  23   2.0000      -6.024730      -163.9412
  24   2.0000      -1.008946       -27.4548
  25   2.0000      -0.986762       -26.8511
  26   2.0000      -0.916765       -24.9464
  27   2.0000      -0.915499       -24.9120
  28   2.0000      -0.875394       -23.8207
  29   2.0000      -0.853141       -23.2152
  30   2.0000      -0.843896       -22.9636
  31   2.0000      -0.819238       -22.2926
  32   2.0000      -0.783768       -21.3274
  33   2.0000      -0.772559       -21.0224
  34   2.0000      -0.712856       -19.3978
  35   2.0000      -0.703917       -19.1546
  36   2.0000      -0.692572       -18.8459
  37   2.0000      -0.649312       -17.6687
  38   2.0000      -0.634705       -17.2712
  39   2.0000      -0.626571       -17.0499
  40   2.0000      -0.600854       -16.3501
  41   2.0000      -0.576527       -15.6881
  42   2.0000      -0.564607       -15.3637
  43   2.0000      -0.550754       -14.9868
  44   2.0000      -0.541826       -14.7438
  45   2.0000      -0.528780       -14.3888
  46   2.0000      -0.523189       -14.2367
  47   2.0000      -0.516735       -14.0611
  48   2.0000      -0.501934       -13.6583
  49   2.0000      -0.492937       -13.4135
  50   2.0000      -0.489968       -13.3327
  51   2.0000      -0.489818       -13.3286
  52   2.0000      -0.473275       -12.8785
  53   2.0000      -0.466184       -12.6855
  54   2.0000      -0.456605       -12.4248
  55   2.0000      -0.453139       -12.3306
  56   2.0000      -0.444846       -12.1049
  57   2.0000      -0.441275       -12.0077
  58   2.0000      -0.431301       -11.7363
  59   2.0000      -0.427024       -11.6199
  60   2.0000      -0.416619       -11.3368
  61   2.0000      -0.412911       -11.2359
  62   2.0000      -0.409211       -11.1352
  63   2.0000      -0.364280        -9.9126
  64   2.0000      -0.331846        -9.0300
  65   2.0000      -0.322568        -8.7775
  66   2.0000      -0.284099        -7.7307
  67   0.0000       0.024663         0.6711
  68   0.0000       0.078467         2.1352
  69   0.0000       0.107054         2.9131
  70   0.0000       0.121018         3.2931
  71   0.0000       0.128849         3.5061

MULLIKEN ATOMIC CHARGES
-----------------------
   0 S :    0.108025
   1 C :   -0.110174
   2 C :   -0.139705
   3 C :   -0.006698
   4 C :   -0.130617
   5 H :    0.014046
   6 C :    0.097744
   7 H :    0.051386
   8 H :    0.013452
   9 C :   -0.052380
  10 H :    0.051704
  11 H :    0.044884
  12 C :   -0.111509
  13 H :    0.023481
  14 H :    0.048961
  15 H :    0.035842
  16 S :    0.072079
  17 C :   -0.098333
  18 C :   -0.056804
  19 C :   -0.055038
  20 C :   -0.107701
  21 H :    0.033250
  22 C :    0.052273
  23 H :    0.039295
  24 H :    0.022894
  25 C :   -0.119702
  26 H :    0.040921
  27 H :    0.040556
  28 C :    0.021679
  29 H :    0.024567
  30 H :    0.020898
  31 H :    0.006060
  32 H :    0.044942
  33 H :    0.079722
Sum of atomic charges:    0.0000000

LOEWDIN ATOMIC CHARGES
----------------------
   0 S :    0.410645
   1 C :   -0.214473
   2 C :   -0.064977
   3 C :   -0.068148
   4 C :   -0.175488
   5 H :    0.031493
   6 C :   -0.035793
   7 H :    0.046686
   8 H :    0.028499
   9 C :   -0.045882
  10 H :    0.037408
  11 H :    0.033512
  12 C :   -0.087037
  13 H :    0.019099
  14 H :    0.031133
  15 H :    0.030237
  16 S :    0.366858
  17 C :   -0.195166
  18 C :   -0.083952
  19 C :   -0.057034
  20 C :   -0.178269
  21 H :    0.038369
  22 C :   -0.036230
  23 H :    0.034632
  24 H :    0.027366
  25 C :   -0.035468
  26 H :    0.033622
  27 H :    0.019946
  28 C :   -0.054114
  29 H :    0.025870
  30 H :    0.025623
  31 H :    0.011260
  32 H :    0.028657
  33 H :    0.051114

  Mayer bond orders larger than 0.100000
B(  0-S ,  1-C ) :   1.1431 B(  0-S ,  4-C ) :   1.1372 B(  1-C ,  2-C ) :   1.6329
B(  1-C , 32-H ) :   0.9594 B(  2-C ,  3-C ) :   1.2232 B(  2-C ,  6-C ) :   0.9997
B(  3-C ,  4-C ) :   1.5828 B(  3-C ,  5-H ) :   0.9846 B(  4-C , 20-C ) :   1.0793
B(  6-C ,  7-H ) :   0.9260 B(  6-C ,  8-H ) :   0.9404 B(  6-C ,  9-C ) :   1.0810
B(  9-C , 10-H ) :   0.9494 B(  9-C , 11-H ) :   0.9477 B(  9-C , 12-C ) :   1.0621
B( 12-C , 13-H ) :   0.9743 B( 12-C , 14-H ) :   0.9772 B( 12-C , 15-H ) :   0.9704
B( 16-S , 17-C ) :   1.1251 B( 16-S , 20-C ) :   1.1048 B( 17-C , 18-C ) :   1.6868
B( 17-C , 33-H ) :   0.9494 B( 18-C , 19-C ) :   1.1904 B( 18-C , 21-H ) :   0.9742
B( 19-C , 20-C ) :   1.6279 B( 19-C , 22-C ) :   1.0623 B( 22-C , 23-H ) :   0.9095
B( 22-C , 24-H ) :   0.9344 B( 22-C , 25-C ) :   1.0734 B( 25-C , 26-H ) :   0.9604
B( 25-C , 27-H ) :   0.9507 B( 25-C , 28-C ) :   1.0859 B( 28-C , 29-H ) :   0.9706
B( 28-C , 30-H ) :   0.9724 B( 28-C , 31-H ) :   0.9707

Dispersion correction           -0.014228167
FINAL SINGLE POINT ENERGY     -1339.866244119144

DIPOLE MOMENT
-------------
                                X             Y             Z
Electronic contribution:     -5.41585      -6.21085      30.05241
Nuclear contribution   :      5.38226       6.44040     -30.78608
                        -----------------------------------------
Total Dipole Moment    :     -0.03358       0.22956      -0.73367
                        -----------------------------------------
Magnitude (a.u.)       :      0.76948
Magnitude (Debye)      :      1.95587

Rotational constants in cm-1:     0.016318     0.010331     0.006697
Rotational constants in MHz :   489.207245   309.710392   200.765151

                             ****ORCA TERMINATED NORMALLY****
TOTAL RUN TIME: 0 days 0 hours 0 minutes 22 seconds 241 msec
