                         Program Version 4.2.1 -  RELEASE  -
|  1> ! wB97X-D3 SP def2-SVP
|  2> %pal
|  3> nprocs 24
|  4> end
|  5>
|  6> * xyz 0 1
|  7> S 	 -54.5156 	 -40.6787 	 -76.7523
|  8> C 	 -55.1641 	 -40.7737 	 -75.1228
|  9> C 	 -54.3148 	 -41.5925 	 -74.3834
| 10> C 	 -53.3074 	 -42.2721 	 -75.206
| 11> C 	 -53.3125 	 -41.9045 	 -76.5105
| 12> H 	 -52.4962 	 -42.9318 	 -74.8811
| 13> C 	 -54.5654 	 -41.996 	 -72.9489
| 14> H 	 -53.8793 	 -41.3837 	 -72.3838
| 15> H 	 -54.2545 	 -43.1014 	 -72.9401
| 16> C 	 -56.016 	 -41.996 	 -72.4455
| 17> H 	 -56.4382 	 -40.975 	 -72.581
| 18> H 	 -56.4944 	 -42.8099 	 -72.9927
| 19> C 	 -56.0802 	 -42.4878 	 -71.0433
| 20> H 	 -55.679 	 -41.7174 	 -70.4648
| 21> H 	 -57.1064 	 -42.5616 	 -70.7034
| 22> H 	 -55.4554 	 -43.3332 	 -70.7165
| 23> S 	 -53.1474 	 -42.3162 	 -79.2391
| 24> C 	 -51.7669 	 -43.1268 	 -79.8927
| 25> C 	 -50.8227 	 -43.4028 	 -78.942
| 26> C 	 -51.2046 	 -43.0223 	 -77.6238
| 27> C 	 -52.4544 	 -42.4027 	 -77.5941
| 28> H 	 -49.8658 	 -43.9444 	 -79.0762
| 29> C 	 -50.2798 	 -43.4238 	 -76.4139
| 30> H 	 -50.474 	 -42.7619 	 -75.5794
| 31> H 	 -49.1833 	 -43.3614 	 -76.6254
| 32> C 	 -50.4933 	 -44.8656 	 -75.9143
| 33> H 	 -51.5428 	 -45.2128 	 -76.0575
| 34> H 	 -50.1714 	 -44.9838 	 -74.8784
| 35> C 	 -49.7666 	 -45.9341 	 -76.8409
| 36> H 	 -50.1421 	 -46.9431 	 -76.69
| 37> H 	 -48.7263 	 -46.0296 	 -76.6592
| 38> H 	 -49.9474 	 -45.7332 	 -77.9274
| 39> H 	 -55.9918 	 -40.2296 	 -74.7926
| 40> H 	 -51.6708 	 -43.3485 	 -80.9305
| 41> *
| 42>
| 43>                          ****END OF INPUT****

CARTESIAN COORDINATES (ANGSTROEM)
---------------------------------
  S    -54.515600  -40.678700  -76.752300
  C    -55.164100  -40.773700  -75.122800
  C    -54.314800  -41.592500  -74.383400
  C    -53.307400  -42.272100  -75.206000
  C    -53.312500  -41.904500  -76.510500
  H    -52.496200  -42.931800  -74.881100
  C    -54.565400  -41.996000  -72.948900
  H    -53.879300  -41.383700  -72.383800
  H    -54.254500  -43.101400  -72.940100
  C    -56.016000  -41.996000  -72.445500
  H    -56.438200  -40.975000  -72.581000
  H    -56.494400  -42.809900  -72.992700
  C    -56.080200  -42.487800  -71.043300
  H    -55.679000  -41.717400  -70.464800
  H    -57.106400  -42.561600  -70.703400
  H    -55.455400  -43.333200  -70.716500
  S    -53.147400  -42.316200  -79.239100
  C    -51.766900  -43.126800  -79.892700
  C    -50.822700  -43.402800  -78.942000
  C    -51.204600  -43.022300  -77.623800
  C    -52.454400  -42.402700  -77.594100
  H    -49.865800  -43.944400  -79.076200
  C    -50.279800  -43.423800  -76.413900
  H    -50.474000  -42.761900  -75.579400
  H    -49.183300  -43.361400  -76.625400
  C    -50.493300  -44.865600  -75.914300
  H    -51.542800  -45.212800  -76.057500
  H    -50.171400  -44.983800  -74.878400
  C    -49.766600  -45.934100  -76.840900
  H    -50.142100  -46.943100  -76.690000
  H    -48.726300  -46.029600  -76.659200
  H    -49.947400  -45.733200  -77.927400
  H    -55.991800  -40.229600  -74.792600
  H    -51.670800  -43.348500  -80.930500

 Total Charge           Charge          ....    0
 Multiplicity           Mult            ....    1
 Number of Electrons    NEL             ....  134
 Basis Dimension        Dim             ....  322

ORBITAL ENERGIES
----------------

  NO   OCC          E(Eh)            E(eV)
   0   2.0000     -88.968084     -2420.9446
   1   2.0000     -88.959425     -2420.7090
   2   2.0000     -10.335155      -281.2339
   3   2.0000     -10.328254      -281.0461
   4   2.0000     -10.317249      -280.7466
   5   2.0000     -10.311856      -280.5999
   6   2.0000     -10.310855      -280.5726
   7   2.0000     -10.304612      -280.4028
   8   2.0000     -10.303644      -280.3764
   9   2.0000     -10.296075      -280.1705
  10   2.0000     -10.296037      -280.1694
  11   2.0000     -10.293551      -280.1018
  12   2.0000     -10.292577      -280.0753
  13   2.0000     -10.289248      -279.9847
  14   2.0000     -10.279377      -279.7161
  15   2.0000     -10.270627      -279.4780
  16   2.0000      -8.082735      -219.9424
  17   2.0000      -8.074640      -219.7221
  18   2.0000      -6.041289      -164.3918
  19   2.0000      -6.037250      -164.2819
  20   2.0000      -6.033446      -164.1784
  21   2.0000      -6.033282      -164.1740
  22   2.0000      -6.029056      -164.0590
  23   2.0000      -6.025238      -163.9551
  24   2.0000      -1.006947       -27.4004
  25   2.0000      -0.984716       -26.7955
  26   2.0000      -0.917887       -24.9770
  27   2.0000      -0.904969       -24.6255
  28   2.0000      -0.872414       -23.7396
  29   2.0000      -0.850609       -23.1462
  30   2.0000      -0.842862       -22.9354
  31   2.0000      -0.816389       -22.2151
  32   2.0000      -0.785962       -21.3871
  33   2.0000      -0.770937       -20.9783
  34   2.0000      -0.710591       -19.3362
  35   2.0000      -0.700935       -19.0734
  36   2.0000      -0.688835       -18.7441
  37   2.0000      -0.666051       -18.1242
  38   2.0000      -0.643107       -17.4998
  39   2.0000      -0.611920       -16.6512
  40   2.0000      -0.600260       -16.3339
  41   2.0000      -0.582541       -15.8517
  42   2.0000      -0.562647       -15.3104
  43   2.0000      -0.549369       -14.9491
  44   2.0000      -0.546816       -14.8796
  45   2.0000      -0.525522       -14.3002
  46   2.0000      -0.520025       -14.1506
  47   2.0000      -0.514945       -14.0124
  48   2.0000      -0.506352       -13.7785
  49   2.0000      -0.500202       -13.6112
  50   2.0000      -0.492749       -13.4084
  51   2.0000      -0.483188       -13.1482
  52   2.0000      -0.477650       -12.9975
  53   2.0000      -0.467108       -12.7107
  54   2.0000      -0.458088       -12.4652
  55   2.0000      -0.448991       -12.2177
  56   2.0000      -0.442745       -12.0477
  57   2.0000      -0.435876       -11.8608
  58   2.0000      -0.427279       -11.6269
  59   2.0000      -0.423463       -11.5230
  60   2.0000      -0.418928       -11.3996
  61   2.0000      -0.415479       -11.3058
  62   2.0000      -0.405863       -11.0441
  63   2.0000      -0.360479        -9.8091
  64   2.0000      -0.336509        -9.1569
  65   2.0000      -0.322708        -8.7813
  66   2.0000      -0.288774        -7.8579
  67   0.0000       0.023926         0.6511
  68   0.0000       0.083353         2.2681
  69   0.0000       0.104116         2.8331
  70   0.0000       0.121280         3.3002
  71   0.0000       0.136141         3.7046

MULLIKEN ATOMIC CHARGES
-----------------------
   0 S :    0.087264
   1 C :   -0.110272
   2 C :   -0.070460
   3 C :   -0.021963
   4 C :   -0.088027
   5 H :    0.008090
   6 C :    0.008559
   7 H :    0.038233
   8 H :    0.040560
   9 C :   -0.080370
  10 H :    0.044469
  11 H :    0.038980
  12 C :   -0.011011
  13 H :   -0.001913
  14 H :    0.032230
  15 H :    0.033122
  16 S :    0.105589
  17 C :   -0.072240
  18 C :   -0.031602
  19 C :   -0.052180
  20 C :   -0.140384
  21 H :    0.032911
  22 C :    0.039199
  23 H :    0.028704
  24 H :    0.039391
  25 C :   -0.084603
  26 H :    0.050064
  27 H :    0.040734
  28 C :   -0.076944
  29 H :    0.028116
  30 H :    0.025169
  31 H :    0.035200
  32 H :    0.033630
  33 H :    0.051756
Sum of atomic charges:    0.0000000

LOEWDIN ATOMIC CHARGES
----------------------
   0 S :    0.393673
   1 C :   -0.190009
   2 C :   -0.058457
   3 C :   -0.078984
   4 C :   -0.190022
   5 H :    0.032556
   6 C :   -0.038958
   7 H :    0.028564
   8 H :    0.040915
   9 C :   -0.042189
  10 H :    0.028737
  11 H :    0.030984
  12 C :   -0.067212
  13 H :    0.016371
  14 H :    0.027700
  15 H :    0.031426
  16 S :    0.403944
  17 C :   -0.182082
  18 C :   -0.076928
  19 C :   -0.050990
  20 C :   -0.180416
  21 H :    0.035967
  22 C :   -0.032807
  23 H :    0.025629
  24 H :    0.037101
  25 C :   -0.042361
  26 H :    0.032485
  27 H :    0.025394
  28 C :   -0.072703
  29 H :    0.025322
  30 H :    0.014678
  31 H :    0.028964
  32 H :    0.017926
  33 H :    0.025784

  Mayer bond orders larger than 0.100000
B(  0-S ,  1-C ) :   1.1187 B(  0-S ,  4-C ) :   1.1428 B(  1-C ,  2-C ) :   1.6060
B(  1-C , 32-H ) :   0.9837 B(  2-C ,  3-C ) :   1.2209 B(  2-C ,  6-C ) :   1.0089
B(  3-C ,  4-C ) :   1.6061 B(  3-C ,  5-H ) :   0.9884 B(  4-C , 20-C ) :   1.0504
B(  6-C ,  7-H ) :   0.9278 B(  6-C ,  8-H ) :   0.9555 B(  6-C ,  9-C ) :   1.0828
B(  9-C , 10-H ) :   0.9451 B(  9-C , 11-H ) :   0.9576 B(  9-C , 12-C ) :   1.0911
B( 12-C , 13-H ) :   0.9663 B( 12-C , 14-H ) :   0.9700 B( 12-C , 15-H ) :   0.9703
B( 16-S , 17-C ) :   1.1578 B( 16-S , 20-C ) :   1.1374 B( 17-C , 18-C ) :   1.5878
B( 17-C , 20-C ) :   0.1009 B( 17-C , 33-H ) :   0.9719 B( 18-C , 19-C ) :   1.2659
B( 18-C , 21-H ) :   0.9753 B( 19-C , 20-C ) :   1.6019 B( 19-C , 22-C ) :   1.0358
B( 22-C , 23-H ) :   0.9396 B( 22-C , 24-H ) :   0.9434 B( 22-C , 25-C ) :   1.0518
B( 25-C , 26-H ) :   0.9601 B( 25-C , 27-H ) :   0.9597 B( 25-C , 28-C ) :   1.0645
B( 28-C , 29-H ) :   0.9761 B( 28-C , 30-H ) :   0.9770 B( 28-C , 31-H ) :   0.9727

Dispersion correction           -0.013855952
FINAL SINGLE POINT ENERGY     -1339.871738292975

DIPOLE MOMENT
-------------
                                X             Y             Z
Electronic contribution:     -5.24542      14.79846     -24.03359
Nuclear contribution   :      5.55286     -15.22972      24.58216
                        -----------------------------------------
Total Dipole Moment    :      0.30745      -0.43126       0.54857
                        -----------------------------------------
Magnitude (a.u.)       :      0.76253
Magnitude (Debye)      :      1.93818

Rotational constants in cm-1:     0.020447     0.007831     0.005939
Rotational constants in MHz :   612.998975   234.760378   178.045402

                             ****ORCA TERMINATED NORMALLY****
TOTAL RUN TIME: 0 days 0 hours 0 minutes 21 seconds 252 msec
