                         Program Version 4.2.1 -  RELEASE  -
|  1> ! wB97X-D3 SP def2-SVP
|  2> %pal
|  3> nprocs 24
|  4> end
|  5>
|  6> * xyz 0 1
|  7> S 	 -58.117 	 12.1736 	 -84.9284
|  8> C 	 -58.8991 	 11.237 	 -86.192
|  9> C 	 -60.1716 	 10.8844 	 -85.7626
| 10> C 	 -60.4135 	 11.3538 	 -84.4277
| 11> C 	 -59.3101 	 11.8947 	 -83.794
| 12> H 	 -61.2944 	 11.1663 	 -83.8407
| 13> C 	 -61.186 	 10.1045 	 -86.6497
| 14> H 	 -62.1799 	 9.88217 	 -86.1641
| 15> H 	 -60.7363 	 9.12571 	 -86.7637
| 16> C 	 -61.4546 	 10.7315 	 -87.9663
| 17> H 	 -60.5796 	 10.5877 	 -88.5261
| 18> H 	 -62.2291 	 10.2842 	 -88.5625
| 19> C 	 -61.7521 	 12.2364 	 -87.8206
| 20> H 	 -62.0468 	 12.591 	 -88.8056
| 21> H 	 -62.6491 	 12.3726 	 -87.2177
| 22> H 	 -60.8946 	 12.9348 	 -87.6456
| 23> S 	 -59.3238 	 13.8164 	 -81.8072
| 24> C 	 -58.8604 	 13.3791 	 -80.1593
| 25> C 	 -58.7581 	 12.0293 	 -80.0763
| 26> C 	 -58.9419 	 11.3381 	 -81.3258
| 27> C 	 -59.1243 	 12.1944 	 -82.3971
| 28> H 	 -58.3637 	 11.552 	 -79.131
| 29> C 	 -58.8289 	 9.82882 	 -81.5491
| 30> H 	 -58.4271 	 9.27957 	 -80.6549
| 31> H 	 -58.1837 	 9.56524 	 -82.3872
| 32> C 	 -60.198 	 9.15636 	 -81.7087
| 33> H 	 -60.0553 	 8.06457 	 -81.746
| 34> H 	 -60.6637 	 9.35273 	 -82.6479
| 35> C 	 -61.1936 	 9.3846 	 -80.5906
| 36> H 	 -61.9458 	 8.62672 	 -80.6041
| 37> H 	 -61.6467 	 10.3785 	 -80.6242
| 38> H 	 -60.6592 	 9.28008 	 -79.6979
| 39> H 	 -58.5245 	 10.9607 	 -87.1782
| 40> H 	 -58.7567 	 14.1266 	 -79.3572
| 41> *
| 42>
| 43>                          ****END OF INPUT****

CARTESIAN COORDINATES (ANGSTROEM)
---------------------------------
  S    -58.117000   12.173600  -84.928400
  C    -58.899100   11.237000  -86.192000
  C    -60.171600   10.884400  -85.762600
  C    -60.413500   11.353800  -84.427700
  C    -59.310100   11.894700  -83.794000
  H    -61.294400   11.166300  -83.840700
  C    -61.186000   10.104500  -86.649700
  H    -62.179900    9.882170  -86.164100
  H    -60.736300    9.125710  -86.763700
  C    -61.454600   10.731500  -87.966300
  H    -60.579600   10.587700  -88.526100
  H    -62.229100   10.284200  -88.562500
  C    -61.752100   12.236400  -87.820600
  H    -62.046800   12.591000  -88.805600
  H    -62.649100   12.372600  -87.217700
  H    -60.894600   12.934800  -87.645600
  S    -59.323800   13.816400  -81.807200
  C    -58.860400   13.379100  -80.159300
  C    -58.758100   12.029300  -80.076300
  C    -58.941900   11.338100  -81.325800
  C    -59.124300   12.194400  -82.397100
  H    -58.363700   11.552000  -79.131000
  C    -58.828900    9.828820  -81.549100
  H    -58.427100    9.279570  -80.654900
  H    -58.183700    9.565240  -82.387200
  C    -60.198000    9.156360  -81.708700
  H    -60.055300    8.064570  -81.746000
  H    -60.663700    9.352730  -82.647900
  C    -61.193600    9.384600  -80.590600
  H    -61.945800    8.626720  -80.604100
  H    -61.646700   10.378500  -80.624200
  H    -60.659200    9.280080  -79.697900
  H    -58.524500   10.960700  -87.178200
  H    -58.756700   14.126600  -79.357200

 Total Charge           Charge          ....    0
 Multiplicity           Mult            ....    1
 Number of Electrons    NEL             ....  134
 Basis Dimension        Dim             ....  322

ORBITAL ENERGIES
----------------

  NO   OCC          E(Eh)            E(eV)
   0   2.0000     -88.965950     -2420.8866
   1   2.0000     -88.961224     -2420.7580
   2   2.0000     -10.323541      -280.9178
   3   2.0000     -10.322152      -280.8800
   4   2.0000     -10.320175      -280.8262
   5   2.0000     -10.315234      -280.6918
   6   2.0000     -10.305798      -280.4350
   7   2.0000     -10.305287      -280.4211
   8   2.0000     -10.299233      -280.2564
   9   2.0000     -10.294474      -280.1269
  10   2.0000     -10.293158      -280.0911
  11   2.0000     -10.292160      -280.0639
  12   2.0000     -10.278658      -279.6965
  13   2.0000     -10.274946      -279.5955
  14   2.0000     -10.274828      -279.5923
  15   2.0000     -10.264268      -279.3049
  16   2.0000      -8.081876      -219.9190
  17   2.0000      -8.076279      -219.7667
  18   2.0000      -6.040262      -164.3639
  19   2.0000      -6.036019      -164.2484
  20   2.0000      -6.034831      -164.2161
  21   2.0000      -6.032855      -164.1623
  22   2.0000      -6.030658      -164.1026
  23   2.0000      -6.027058      -164.0046
  24   2.0000      -1.014792       -27.6139
  25   2.0000      -0.988821       -26.9072
  26   2.0000      -0.919297       -25.0153
  27   2.0000      -0.907889       -24.7049
  28   2.0000      -0.871920       -23.7261
  29   2.0000      -0.844250       -22.9732
  30   2.0000      -0.842819       -22.9343
  31   2.0000      -0.814893       -22.1744
  32   2.0000      -0.786005       -21.3883
  33   2.0000      -0.775739       -21.1089
  34   2.0000      -0.706230       -19.2175
  35   2.0000      -0.702486       -19.1156
  36   2.0000      -0.686787       -18.6884
  37   2.0000      -0.658189       -17.9102
  38   2.0000      -0.641598       -17.4588
  39   2.0000      -0.609413       -16.5830
  40   2.0000      -0.592509       -16.1230
  41   2.0000      -0.580604       -15.7990
  42   2.0000      -0.560240       -15.2449
  43   2.0000      -0.555808       -15.1243
  44   2.0000      -0.551294       -15.0015
  45   2.0000      -0.546690       -14.8762
  46   2.0000      -0.513699       -13.9785
  47   2.0000      -0.509367       -13.8606
  48   2.0000      -0.503341       -13.6966
  49   2.0000      -0.492362       -13.3979
  50   2.0000      -0.488797       -13.3009
  51   2.0000      -0.481100       -13.0914
  52   2.0000      -0.473080       -12.8732
  53   2.0000      -0.465699       -12.6723
  54   2.0000      -0.461632       -12.5616
  55   2.0000      -0.441825       -12.0227
  56   2.0000      -0.437204       -11.8969
  57   2.0000      -0.430430       -11.7126
  58   2.0000      -0.428752       -11.6669
  59   2.0000      -0.421670       -11.4742
  60   2.0000      -0.420846       -11.4518
  61   2.0000      -0.415072       -11.2947
  62   2.0000      -0.406555       -11.0629
  63   2.0000      -0.336640        -9.1604
  64   2.0000      -0.331459        -9.0195
  65   2.0000      -0.321050        -8.7362
  66   2.0000      -0.310410        -8.4467
  67   0.0000       0.041200         1.1211
  68   0.0000       0.055220         1.5026
  69   0.0000       0.120634         3.2826
  70   0.0000       0.126075         3.4307
  71   0.0000       0.130495         3.5509

MULLIKEN ATOMIC CHARGES
-----------------------
   0 S :    0.134474
   1 C :   -0.132111
   2 C :   -0.109486
   3 C :    0.068005
   4 C :   -0.193757
   5 H :    0.009470
   6 C :    0.069387
   7 H :    0.028300
   8 H :    0.034751
   9 C :   -0.050789
  10 H :    0.003358
  11 H :    0.028254
  12 C :   -0.049896
  13 H :    0.011538
  14 H :    0.032310
  15 H :    0.052821
  16 S :    0.099017
  17 C :   -0.107104
  18 C :   -0.041186
  19 C :   -0.023053
  20 C :   -0.169028
  21 H :    0.043223
  22 C :    0.081699
  23 H :    0.021423
  24 H :    0.044062
  25 C :   -0.097493
  26 H :    0.018185
  27 H :    0.010640
  28 C :   -0.003828
  29 H :    0.024259
  30 H :    0.041114
  31 H :    0.000504
  32 H :    0.049754
  33 H :    0.071183
Sum of atomic charges:   -0.0000000

LOEWDIN ATOMIC CHARGES
----------------------
   0 S :    0.450898
   1 C :   -0.204587
   2 C :   -0.055806
   3 C :   -0.059233
   4 C :   -0.227354
   5 H :    0.026642
   6 C :   -0.034620
   7 H :    0.032601
   8 H :    0.032229
   9 C :   -0.042992
  10 H :    0.013765
  11 H :    0.026505
  12 C :   -0.069733
  13 H :    0.022190
  14 H :    0.025798
  15 H :    0.035718
  16 S :    0.399438
  17 C :   -0.179944
  18 C :   -0.082136
  19 C :   -0.052801
  20 C :   -0.208466
  21 H :    0.043118
  22 C :   -0.030855
  23 H :    0.032784
  24 H :    0.036412
  25 C :   -0.042786
  26 H :    0.024073
  27 H :    0.011343
  28 C :   -0.056214
  29 H :    0.023866
  30 H :    0.027195
  31 H :    0.014252
  32 H :    0.031477
  33 H :    0.037222

  Mayer bond orders larger than 0.100000
B(  0-S ,  1-C ) :   1.1525 B(  0-S ,  4-C ) :   1.1878 B(  1-C ,  2-C ) :   1.5811
B(  1-C ,  4-C ) :   0.1052 B(  1-C , 32-H ) :   0.9729 B(  2-C ,  3-C ) :   1.2694
B(  2-C ,  6-C ) :   0.9959 B(  3-C ,  4-C ) :   1.5539 B(  3-C ,  5-H ) :   0.9916
B(  4-C , 20-C ) :   1.0037 B(  6-C ,  7-H ) :   0.9502 B(  6-C ,  8-H ) :   0.9409
B(  6-C ,  9-C ) :   1.0812 B(  9-C , 10-H ) :   0.9463 B(  9-C , 11-H ) :   0.9559
B(  9-C , 12-C ) :   1.0889 B( 12-C , 13-H ) :   0.9698 B( 12-C , 14-H ) :   0.9770
B( 12-C , 15-H ) :   0.9676 B( 16-S , 17-C ) :   1.1499 B( 16-S , 20-C ) :   1.1511
B( 17-C , 18-C ) :   1.6145 B( 17-C , 20-C ) :   0.1004 B( 17-C , 33-H ) :   0.9668
B( 18-C , 19-C ) :   1.2406 B( 18-C , 21-H ) :   0.9777 B( 19-C , 20-C ) :   1.6038
B( 19-C , 22-C ) :   1.0486 B( 22-C , 23-H ) :   0.9372 B( 22-C , 24-H ) :   0.9331
B( 22-C , 25-C ) :   1.0745 B( 25-C , 26-H ) :   0.9532 B( 25-C , 27-H ) :   0.9508
B( 25-C , 28-C ) :   1.0805 B( 28-C , 29-H ) :   0.9724 B( 28-C , 30-H ) :   0.9705
B( 28-C , 31-H ) :   0.9722

Dispersion correction           -0.015894536
FINAL SINGLE POINT ENERGY     -1339.875078636744

DIPOLE MOMENT
-------------
                                X             Y             Z
Electronic contribution:     14.63925      16.42463       6.77298
Nuclear contribution   :    -14.88263     -16.97658      -6.87748
                        -----------------------------------------
Total Dipole Moment    :     -0.24339      -0.55195      -0.10451
                        -----------------------------------------
Magnitude (a.u.)       :      0.61222
Magnitude (Debye)      :      1.55613

Rotational constants in cm-1:     0.022402     0.008698     0.007366
Rotational constants in MHz :   671.607902   260.764190   220.813324

                             ****ORCA TERMINATED NORMALLY****
TOTAL RUN TIME: 0 days 0 hours 0 minutes 21 seconds 555 msec
