                         Program Version 4.2.1 -  RELEASE  -
|  1> ! wB97X-D3 SP def2-SVP
|  2> %pal
|  3> nprocs 24
|  4> end
|  5>
|  6> * xyz 0 1
|  7> S 	 29.8584 	 -29.2548 	 -130.948
|  8> C 	 29.1968 	 -28.1959 	 -132.163
|  9> C 	 27.8783 	 -28.5768 	 -132.417
| 10> C 	 27.4553 	 -29.5576 	 -131.495
| 11> C 	 28.3821 	 -30.0502 	 -130.609
| 12> H 	 26.4429 	 -29.989 	 -131.326
| 13> C 	 26.9489 	 -27.7901 	 -133.333
| 14> H 	 27.7093 	 -27.2382 	 -133.933
| 15> H 	 26.4251 	 -27.0207 	 -132.847
| 16> C 	 26.1115 	 -28.6102 	 -134.377
| 17> H 	 26.8567 	 -29.2056 	 -134.954
| 18> H 	 25.4633 	 -29.3284 	 -133.799
| 19> C 	 25.3025 	 -27.7401 	 -135.265
| 20> H 	 25.8334 	 -27.3741 	 -136.097
| 21> H 	 24.4929 	 -28.3212 	 -135.786
| 22> H 	 24.9548 	 -26.838 	 -134.66
| 23> S 	 27.3907 	 -32.5154 	 -130.07
| 24> C 	 27.6214 	 -33.3524 	 -128.488
| 25> C 	 28.3026 	 -32.517 	 -127.659
| 26> C 	 28.7026 	 -31.2514 	 -128.27
| 27> C 	 28.1469 	 -31.0579 	 -129.549
| 28> H 	 28.5337 	 -32.6947 	 -126.6
| 29> C 	 29.6127 	 -30.1983 	 -127.659
| 30> H 	 30.1308 	 -29.7377 	 -128.458
| 31> H 	 30.3411 	 -30.6494 	 -126.994
| 32> C 	 29.0276 	 -29.0498 	 -126.871
| 33> H 	 28.7393 	 -29.4767 	 -125.96
| 34> H 	 28.1508 	 -28.6019 	 -127.335
| 35> C 	 30.0926 	 -28.0054 	 -126.519
| 36> H 	 29.6891 	 -27.0776 	 -126.038
| 37> H 	 30.4549 	 -27.5994 	 -127.418
| 38> H 	 30.8776 	 -28.43 	 -125.895
| 39> H 	 29.8077 	 -27.4873 	 -132.672
| 40> H 	 27.2436 	 -34.3274 	 -128.261
| 41> *
| 42>
| 43>                          ****END OF INPUT****

CARTESIAN COORDINATES (ANGSTROEM)
---------------------------------
  S     29.858400  -29.254800  -130.948000
  C     29.196800  -28.195900  -132.163000
  C     27.878300  -28.576800  -132.417000
  C     27.455300  -29.557600  -131.495000
  C     28.382100  -30.050200  -130.609000
  H     26.442900  -29.989000  -131.326000
  C     26.948900  -27.790100  -133.333000
  H     27.709300  -27.238200  -133.933000
  H     26.425100  -27.020700  -132.847000
  C     26.111500  -28.610200  -134.377000
  H     26.856700  -29.205600  -134.954000
  H     25.463300  -29.328400  -133.799000
  C     25.302500  -27.740100  -135.265000
  H     25.833400  -27.374100  -136.097000
  H     24.492900  -28.321200  -135.786000
  H     24.954800  -26.838000  -134.660000
  S     27.390700  -32.515400  -130.070000
  C     27.621400  -33.352400  -128.488000
  C     28.302600  -32.517000  -127.659000
  C     28.702600  -31.251400  -128.270000
  C     28.146900  -31.057900  -129.549000
  H     28.533700  -32.694700  -126.600000
  C     29.612700  -30.198300  -127.659000
  H     30.130800  -29.737700  -128.458000
  H     30.341100  -30.649400  -126.994000
  C     29.027600  -29.049800  -126.871000
  H     28.739300  -29.476700  -125.960000
  H     28.150800  -28.601900  -127.335000
  C     30.092600  -28.005400  -126.519000
  H     29.689100  -27.077600  -126.038000
  H     30.454900  -27.599400  -127.418000
  H     30.877600  -28.430000  -125.895000
  H     29.807700  -27.487300  -132.672000
  H     27.243600  -34.327400  -128.261000

 Total Charge           Charge          ....    0
 Multiplicity           Mult            ....    1
 Number of Electrons    NEL             ....  134
 Basis Dimension        Dim             ....  322

ORBITAL ENERGIES
----------------

  NO   OCC          E(Eh)            E(eV)
   0   2.0000     -88.966754     -2420.9085
   1   2.0000     -88.964298     -2420.8416
   2   2.0000     -10.331284      -281.1285
   3   2.0000     -10.329335      -281.0755
   4   2.0000     -10.323086      -280.9055
   5   2.0000     -10.317687      -280.7585
   6   2.0000     -10.308240      -280.5015
   7   2.0000     -10.305258      -280.4203
   8   2.0000     -10.301855      -280.3277
   9   2.0000     -10.292601      -280.0759
  10   2.0000     -10.292298      -280.0677
  11   2.0000     -10.291778      -280.0535
  12   2.0000     -10.281770      -279.7812
  13   2.0000     -10.280501      -279.7467
  14   2.0000     -10.274003      -279.5698
  15   2.0000     -10.273036      -279.5435
  16   2.0000      -8.081798      -219.9169
  17   2.0000      -8.078723      -219.8332
  18   2.0000      -6.040221      -164.3628
  19   2.0000      -6.037425      -164.2867
  20   2.0000      -6.036010      -164.2482
  21   2.0000      -6.033154      -164.1705
  22   2.0000      -6.032878      -164.1630
  23   2.0000      -6.029391      -164.0681
  24   2.0000      -1.011723       -27.5304
  25   2.0000      -0.986209       -26.8361
  26   2.0000      -0.912701       -24.8359
  27   2.0000      -0.911005       -24.7897
  28   2.0000      -0.875322       -23.8187
  29   2.0000      -0.852957       -23.2101
  30   2.0000      -0.842641       -22.9294
  31   2.0000      -0.821298       -22.3487
  32   2.0000      -0.780578       -21.2406
  33   2.0000      -0.769715       -20.9450
  34   2.0000      -0.707220       -19.2444
  35   2.0000      -0.698173       -18.9982
  36   2.0000      -0.689042       -18.7498
  37   2.0000      -0.671393       -18.2695
  38   2.0000      -0.640430       -17.4270
  39   2.0000      -0.616715       -16.7817
  40   2.0000      -0.597553       -16.2602
  41   2.0000      -0.578652       -15.7459
  42   2.0000      -0.576345       -15.6832
  43   2.0000      -0.560757       -15.2590
  44   2.0000      -0.529781       -14.4161
  45   2.0000      -0.522042       -14.2055
  46   2.0000      -0.517616       -14.0851
  47   2.0000      -0.511728       -13.9248
  48   2.0000      -0.507680       -13.8147
  49   2.0000      -0.504175       -13.7193
  50   2.0000      -0.488870       -13.3028
  51   2.0000      -0.487231       -13.2582
  52   2.0000      -0.471127       -12.8200
  53   2.0000      -0.466340       -12.6898
  54   2.0000      -0.462302       -12.5799
  55   2.0000      -0.446574       -12.1519
  56   2.0000      -0.441874       -12.0240
  57   2.0000      -0.432561       -11.7706
  58   2.0000      -0.431630       -11.7453
  59   2.0000      -0.425824       -11.5873
  60   2.0000      -0.415140       -11.2965
  61   2.0000      -0.411407       -11.1950
  62   2.0000      -0.405417       -11.0320
  63   2.0000      -0.356783        -9.7086
  64   2.0000      -0.332810        -9.0562
  65   2.0000      -0.325767        -8.8646
  66   2.0000      -0.294970        -8.0265
  67   0.0000       0.025158         0.6846
  68   0.0000       0.076829         2.0906
  69   0.0000       0.113048         3.0762
  70   0.0000       0.122027         3.3205
  71   0.0000       0.131060         3.5663

MULLIKEN ATOMIC CHARGES
-----------------------
   0 S :    0.100271
   1 C :   -0.124160
   2 C :   -0.052229
   3 C :   -0.010442
   4 C :   -0.127518
   5 H :    0.022817
   6 C :    0.043694
   7 H :    0.010896
   8 H :    0.034369
   9 C :   -0.091475
  10 H :    0.036434
  11 H :    0.041639
  12 C :   -0.037638
  13 H :    0.020123
  14 H :    0.041341
  15 H :    0.040113
  16 S :    0.087548
  17 C :   -0.085395
  18 C :   -0.002973
  19 C :   -0.084206
  20 C :   -0.121207
  21 H :    0.027880
  22 C :    0.068095
  23 H :   -0.001297
  24 H :    0.011952
  25 C :   -0.026301
  26 H :    0.003077
  27 H :    0.030604
  28 C :   -0.047731
  29 H :    0.034492
  30 H :    0.017144
  31 H :    0.034164
  32 H :    0.048208
  33 H :    0.057713
Sum of atomic charges:   -0.0000000

LOEWDIN ATOMIC CHARGES
----------------------
   0 S :    0.438533
   1 C :   -0.190326
   2 C :   -0.066129
   3 C :   -0.076393
   4 C :   -0.210686
   5 H :    0.033796
   6 C :   -0.030633
   7 H :    0.032274
   8 H :    0.022407
   9 C :   -0.046067
  10 H :    0.030420
  11 H :    0.025917
  12 C :   -0.072460
  13 H :    0.018322
  14 H :    0.035960
  15 H :    0.034709
  16 S :    0.400550
  17 C :   -0.165531
  18 C :   -0.067624
  19 C :   -0.055128
  20 C :   -0.200740
  21 H :    0.036436
  22 C :   -0.035555
  23 H :    0.007923
  24 H :    0.029416
  25 C :   -0.033144
  26 H :    0.012740
  27 H :    0.025027
  28 C :   -0.062207
  29 H :    0.032836
  30 H :    0.016629
  31 H :    0.025257
  32 H :    0.024274
  33 H :    0.029194

  Mayer bond orders larger than 0.100000
B(  0-S ,  1-C ) :   1.1634 B(  0-S ,  4-C ) :   1.1588 B(  1-C ,  2-C ) :   1.5605
B(  1-C , 32-H ) :   0.9774 B(  2-C ,  3-C ) :   1.2514 B(  2-C ,  6-C ) :   1.0185
B(  3-C ,  4-C ) :   1.5639 B(  3-C ,  5-H ) :   0.9907 B(  4-C , 20-C ) :   1.0229
B(  6-C ,  7-H ) :   0.9418 B(  6-C ,  8-H ) :   0.9478 B(  6-C ,  9-C ) :   1.0509
B(  9-C , 10-H ) :   0.9548 B(  9-C , 11-H ) :   0.9600 B(  9-C , 12-C ) :   1.0854
B( 12-C , 13-H ) :   0.9728 B( 12-C , 14-H ) :   0.9702 B( 12-C , 15-H ) :   0.9715
B( 16-S , 17-C ) :   1.1369 B( 16-S , 20-C ) :   1.1477 B( 17-C , 18-C ) :   1.6004
B( 17-C , 33-H ) :   0.9747 B( 18-C , 19-C ) :   1.2472 B( 18-C , 21-H ) :   0.9854
B( 19-C , 20-C ) :   1.5792 B( 19-C , 22-C ) :   1.0521 B( 22-C , 23-H ) :   0.9304
B( 22-C , 24-H ) :   0.9288 B( 22-C , 25-C ) :   1.0675 B( 25-C , 26-H ) :   0.9514
B( 25-C , 27-H ) :   0.9551 B( 25-C , 28-C ) :   1.0842 B( 28-C , 29-H ) :   0.9719
B( 28-C , 30-H ) :   0.9746 B( 28-C , 31-H ) :   0.9742

Dispersion correction           -0.013611981
FINAL SINGLE POINT ENERGY     -1339.871969475618

DIPOLE MOMENT
-------------
                                X             Y             Z
Electronic contribution:      4.89781     -16.51925       1.92073
Nuclear contribution   :     -4.97143      16.79107      -1.86696
                        -----------------------------------------
Total Dipole Moment    :     -0.07362       0.27183       0.05377
                        -----------------------------------------
Magnitude (a.u.)       :      0.28670
Magnitude (Debye)      :      0.72875

Rotational constants in cm-1:     0.019783     0.007930     0.006247
Rotational constants in MHz :   593.076086   237.741420   187.286114

                             ****ORCA TERMINATED NORMALLY****
TOTAL RUN TIME: 0 days 0 hours 0 minutes 21 seconds 68 msec
