                         Program Version 4.2.1 -  RELEASE  -
|  1> ! wB97X-D3 SP def2-SVP
|  2> %pal
|  3> nprocs 24
|  4> end
|  5>
|  6> * xyz 0 1
|  7> S 	 -104.315 	 47.7371 	 -83.2452
|  8> C 	 -103.079 	 48.744 	 -84.0299
|  9> C 	 -103.172 	 48.5451 	 -85.4057
| 10> C 	 -104.113 	 47.4957 	 -85.7818
| 11> C 	 -104.761 	 46.8625 	 -84.7562
| 12> H 	 -104.373 	 47.2007 	 -86.7726
| 13> C 	 -102.26 	 49.2633 	 -86.3479
| 14> H 	 -102.38 	 50.3452 	 -86.1388
| 15> H 	 -102.677 	 49.2073 	 -87.3687
| 16> C 	 -100.837 	 48.7591 	 -86.3009
| 17> H 	 -100.59 	 48.4207 	 -85.2934
| 18> H 	 -100.841 	 47.8723 	 -87.011
| 19> C 	 -99.767 	 49.7807 	 -86.6908
| 20> H 	 -99.5479 	 50.4724 	 -85.8248
| 21> H 	 -98.9173 	 49.1451 	 -86.9123
| 22> H 	 -100.108 	 50.418 	 -87.4922
| 23> S 	 -107.214 	 45.885 	 -83.8086
| 24> C 	 -107.945 	 44.4401 	 -84.5579
| 25> C 	 -107.091 	 43.9417 	 -85.5633
| 26> C 	 -105.873 	 44.6554 	 -85.6807
| 27> C 	 -105.786 	 45.7406 	 -84.8206
| 28> H 	 -107.359 	 43.089 	 -86.1352
| 29> C 	 -104.842 	 44.2657 	 -86.7215
| 30> H 	 -104.006 	 44.93 	 -86.6299
| 31> H 	 -105.305 	 44.4606 	 -87.6536
| 32> C 	 -104.215 	 42.8796 	 -86.5648
| 33> H 	 -103.396 	 42.6985 	 -87.3003
| 34> H 	 -104.977 	 42.1161 	 -86.9174
| 35> C 	 -103.728 	 42.5083 	 -85.1376
| 36> H 	 -104.498 	 42.5271 	 -84.3379
| 37> H 	 -102.901 	 43.1876 	 -84.8202
| 38> H 	 -103.271 	 41.5621 	 -84.9524
| 39> H 	 -102.41 	 49.4115 	 -83.49
| 40> H 	 -108.9 	 44.0268 	 -84.31
| 41> *
| 42>
| 43>                          ****END OF INPUT****

CARTESIAN COORDINATES (ANGSTROEM)
---------------------------------
  S    -104.315000   47.737100  -83.245200
  C    -103.079000   48.744000  -84.029900
  C    -103.172000   48.545100  -85.405700
  C    -104.113000   47.495700  -85.781800
  C    -104.761000   46.862500  -84.756200
  H    -104.373000   47.200700  -86.772600
  C    -102.260000   49.263300  -86.347900
  H    -102.380000   50.345200  -86.138800
  H    -102.677000   49.207300  -87.368700
  C    -100.837000   48.759100  -86.300900
  H    -100.590000   48.420700  -85.293400
  H    -100.841000   47.872300  -87.011000
  C    -99.767000   49.780700  -86.690800
  H    -99.547900   50.472400  -85.824800
  H    -98.917300   49.145100  -86.912300
  H    -100.108000   50.418000  -87.492200
  S    -107.214000   45.885000  -83.808600
  C    -107.945000   44.440100  -84.557900
  C    -107.091000   43.941700  -85.563300
  C    -105.873000   44.655400  -85.680700
  C    -105.786000   45.740600  -84.820600
  H    -107.359000   43.089000  -86.135200
  C    -104.842000   44.265700  -86.721500
  H    -104.006000   44.930000  -86.629900
  H    -105.305000   44.460600  -87.653600
  C    -104.215000   42.879600  -86.564800
  H    -103.396000   42.698500  -87.300300
  H    -104.977000   42.116100  -86.917400
  C    -103.728000   42.508300  -85.137600
  H    -104.498000   42.527100  -84.337900
  H    -102.901000   43.187600  -84.820200
  H    -103.271000   41.562100  -84.952400
  H    -102.410000   49.411500  -83.490000
  H    -108.900000   44.026800  -84.310000

 Total Charge           Charge          ....    0
 Multiplicity           Mult            ....    1
 Number of Electrons    NEL             ....  134
 Basis Dimension        Dim             ....  322

ORBITAL ENERGIES
----------------

  NO   OCC          E(Eh)            E(eV)
   0   2.0000     -88.969070     -2420.9715
   1   2.0000     -88.961849     -2420.7750
   2   2.0000     -10.338721      -281.3309
   3   2.0000     -10.335777      -281.2508
   4   2.0000     -10.324865      -280.9539
   5   2.0000     -10.319736      -280.8143
   6   2.0000     -10.304844      -280.4091
   7   2.0000     -10.304300      -280.3942
   8   2.0000     -10.297477      -280.2086
   9   2.0000     -10.296506      -280.1822
  10   2.0000     -10.295452      -280.1535
  11   2.0000     -10.289922      -280.0030
  12   2.0000     -10.288610      -279.9673
  13   2.0000     -10.288259      -279.9578
  14   2.0000     -10.281560      -279.7755
  15   2.0000     -10.277565      -279.6668
  16   2.0000      -8.082993      -219.9494
  17   2.0000      -8.075467      -219.7446
  18   2.0000      -6.041577      -164.3997
  19   2.0000      -6.037554      -164.2902
  20   2.0000      -6.034233      -164.1998
  21   2.0000      -6.033770      -164.1872
  22   2.0000      -6.030052      -164.0861
  23   2.0000      -6.026094      -163.9784
  24   2.0000      -0.998874       -27.1808
  25   2.0000      -0.978727       -26.6325
  26   2.0000      -0.913368       -24.8540
  27   2.0000      -0.907541       -24.6955
  28   2.0000      -0.864235       -23.5170
  29   2.0000      -0.846191       -23.0260
  30   2.0000      -0.840680       -22.8761
  31   2.0000      -0.817435       -22.2435
  32   2.0000      -0.784383       -21.3441
  33   2.0000      -0.770003       -20.9528
  34   2.0000      -0.703453       -19.1419
  35   2.0000      -0.697696       -18.9853
  36   2.0000      -0.693421       -18.8689
  37   2.0000      -0.663039       -18.0422
  38   2.0000      -0.644532       -17.5386
  39   2.0000      -0.616158       -16.7665
  40   2.0000      -0.593196       -16.1417
  41   2.0000      -0.574841       -15.6422
  42   2.0000      -0.561948       -15.2914
  43   2.0000      -0.554074       -15.0771
  44   2.0000      -0.538330       -14.6487
  45   2.0000      -0.534037       -14.5319
  46   2.0000      -0.517123       -14.0716
  47   2.0000      -0.515489       -14.0272
  48   2.0000      -0.499194       -13.5838
  49   2.0000      -0.496248       -13.5036
  50   2.0000      -0.490310       -13.3420
  51   2.0000      -0.475067       -12.9272
  52   2.0000      -0.469948       -12.7879
  53   2.0000      -0.462243       -12.5783
  54   2.0000      -0.459195       -12.4953
  55   2.0000      -0.450280       -12.2527
  56   2.0000      -0.443184       -12.0597
  57   2.0000      -0.440829       -11.9956
  58   2.0000      -0.430839       -11.7237
  59   2.0000      -0.419563       -11.4169
  60   2.0000      -0.417966       -11.3734
  61   2.0000      -0.408534       -11.1168
  62   2.0000      -0.405353       -11.0302
  63   2.0000      -0.352317        -9.5870
  64   2.0000      -0.334581        -9.1044
  65   2.0000      -0.323955        -8.8153
  66   2.0000      -0.290826        -7.9138
  67   0.0000       0.024992         0.6801
  68   0.0000       0.069495         1.8910
  69   0.0000       0.102945         2.8013
  70   0.0000       0.122615         3.3365
  71   0.0000       0.130750         3.5579

MULLIKEN ATOMIC CHARGES
-----------------------
   0 S :    0.078538
   1 C :   -0.126184
   2 C :   -0.100871
   3 C :    0.038111
   4 C :   -0.126746
   5 H :    0.002317
   6 C :    0.045863
   7 H :    0.031433
   8 H :    0.021642
   9 C :   -0.086686
  10 H :    0.033487
  11 H :    0.037306
  12 C :   -0.044839
  13 H :    0.039889
  14 H :    0.042399
  15 H :    0.033671
  16 S :    0.102842
  17 C :   -0.092055
  18 C :   -0.019666
  19 C :   -0.076154
  20 C :   -0.133363
  21 H :    0.010660
  22 C :    0.115710
  23 H :    0.012175
  24 H :    0.033030
  25 C :   -0.095143
  26 H :    0.038478
  27 H :    0.025883
  28 C :   -0.058087
  29 H :    0.045142
  30 H :    0.032324
  31 H :    0.023314
  32 H :    0.060322
  33 H :    0.055255
Sum of atomic charges:   -0.0000000

LOEWDIN ATOMIC CHARGES
----------------------
   0 S :    0.363648
   1 C :   -0.184428
   2 C :   -0.061174
   3 C :   -0.067835
   4 C :   -0.169916
   5 H :    0.025765
   6 C :   -0.046680
   7 H :    0.032304
   8 H :    0.030646
   9 C :   -0.044182
  10 H :    0.023447
  11 H :    0.031581
  12 C :   -0.064909
  13 H :    0.031271
  14 H :    0.030183
  15 H :    0.021652
  16 S :    0.396037
  17 C :   -0.169397
  18 C :   -0.061590
  19 C :   -0.057912
  20 C :   -0.191719
  21 H :    0.027248
  22 C :   -0.028241
  23 H :    0.026795
  24 H :    0.030797
  25 C :   -0.045096
  26 H :    0.030208
  27 H :    0.022219
  28 C :   -0.075980
  29 H :    0.031743
  30 H :    0.030918
  31 H :    0.023009
  32 H :    0.033233
  33 H :    0.026353

  Mayer bond orders larger than 0.100000
B(  0-S ,  1-C ) :   1.1285 B(  0-S ,  4-C ) :   1.1350 B(  1-C ,  2-C ) :   1.6036
B(  1-C , 32-H ) :   0.9747 B(  2-C ,  3-C ) :   1.2236 B(  2-C ,  6-C ) :   1.0306
B(  3-C ,  4-C ) :   1.5938 B(  3-C ,  5-H ) :   0.9946 B(  4-C , 20-C ) :   1.0108
B(  6-C ,  7-H ) :   0.9430 B(  6-C ,  8-H ) :   0.9375 B(  6-C ,  9-C ) :   1.0484
B(  9-C , 10-H ) :   0.9652 B(  9-C , 11-H ) :   0.9554 B(  9-C , 12-C ) :   1.0714
B( 12-C , 13-H ) :   0.9761 B( 12-C , 14-H ) :   0.9743 B( 12-C , 15-H ) :   0.9768
B( 16-S , 17-C ) :   1.1542 B( 16-S , 20-C ) :   1.1436 B( 17-C , 18-C ) :   1.5855
B( 17-C , 20-C ) :   0.1021 B( 17-C , 33-H ) :   0.9736 B( 18-C , 19-C ) :   1.2496
B( 18-C , 21-H ) :   0.9968 B( 19-C , 20-C ) :   1.6002 B( 19-C , 22-C ) :   1.0337
B( 22-C , 23-H ) :   0.9269 B( 22-C , 24-H ) :   0.9353 B( 22-C , 25-C ) :   1.0660
B( 25-C , 26-H ) :   0.9586 B( 25-C , 27-H ) :   0.9542 B( 25-C , 28-C ) :   1.0681
B( 28-C , 29-H ) :   0.9713 B( 28-C , 30-H ) :   0.9747 B( 28-C , 31-H ) :   0.9752

Dispersion correction           -0.014239326
FINAL SINGLE POINT ENERGY     -1339.877998759085

DIPOLE MOMENT
-------------
                                X             Y             Z
Electronic contribution:    -22.10187       3.83183      15.89059
Nuclear contribution   :     22.42044      -3.98477     -16.53750
                        -----------------------------------------
Total Dipole Moment    :      0.31857      -0.15295      -0.64691
                        -----------------------------------------
Magnitude (a.u.)       :      0.73714
Magnitude (Debye)      :      1.87365

Rotational constants in cm-1:     0.020881     0.007850     0.006355
Rotational constants in MHz :   626.009888   235.337661   190.511312

                             ****ORCA TERMINATED NORMALLY****
TOTAL RUN TIME: 0 days 0 hours 0 minutes 21 seconds 392 msec
