                         Program Version 4.2.1 -  RELEASE  -
|  1> ! wB97X-D3 SP def2-SVP
|  2> %pal
|  3> nprocs 24
|  4> end
|  5>
|  6> * xyz 0 1
|  7> S 	 -109.382 	 60.0504 	 -16.5131
|  8> C 	 -109.642 	 60.649 	 -14.9036
|  9> C 	 -109.013 	 59.8394 	 -13.9696
| 10> C 	 -108.192 	 58.8364 	 -14.609
| 11> C 	 -108.227 	 58.808 	 -15.9751
| 12> H 	 -107.785 	 58.0563 	 -14.0306
| 13> C 	 -108.962 	 60.0913 	 -12.5155
| 14> H 	 -108.799 	 59.2604 	 -11.8979
| 15> H 	 -109.921 	 60.5236 	 -12.2467
| 16> C 	 -107.821 	 60.9846 	 -12.0994
| 17> H 	 -106.82 	 60.4477 	 -12.0256
| 18> H 	 -107.711 	 61.7855 	 -12.8474
| 19> C 	 -108.031 	 61.615 	 -10.6824
| 20> H 	 -107.098 	 61.8369 	 -10.1545
| 21> H 	 -108.602 	 62.5737 	 -10.7162
| 22> H 	 -108.539 	 60.8768 	 -10.1036
| 23> S 	 -108.44 	 57.3928 	 -18.4021
| 24> C 	 -107.036 	 56.6765 	 -19.045
| 25> C 	 -106.064 	 56.5431 	 -18.0989
| 26> C 	 -106.323 	 57.2488 	 -16.8669
| 27> C 	 -107.555 	 57.8993 	 -16.9111
| 28> H 	 -105.196 	 55.8756 	 -18.2686
| 29> C 	 -105.385 	 57.2221 	 -15.6696
| 30> H 	 -104.601 	 56.4586 	 -15.8677
| 31> H 	 -105.934 	 56.7738 	 -14.8572
| 32> C 	 -104.698 	 58.583 	 -15.5382
| 33> H 	 -105.38 	 59.4104 	 -15.7207
| 34> H 	 -104.012 	 58.7089 	 -16.3178
| 35> C 	 -103.96 	 58.9012 	 -14.2008
| 36> H 	 -103.427 	 59.8762 	 -14.1837
| 37> H 	 -103.281 	 58.1425 	 -13.8583
| 38> H 	 -104.758 	 58.8119 	 -13.4719
| 39> H 	 -110.143 	 61.5576 	 -14.6619
| 40> H 	 -107.141 	 56.1811 	 -19.9924
| 41> *
| 42>
| 43>                          ****END OF INPUT****

CARTESIAN COORDINATES (ANGSTROEM)
---------------------------------
  S    -109.382000   60.050400  -16.513100
  C    -109.642000   60.649000  -14.903600
  C    -109.013000   59.839400  -13.969600
  C    -108.192000   58.836400  -14.609000
  C    -108.227000   58.808000  -15.975100
  H    -107.785000   58.056300  -14.030600
  C    -108.962000   60.091300  -12.515500
  H    -108.799000   59.260400  -11.897900
  H    -109.921000   60.523600  -12.246700
  C    -107.821000   60.984600  -12.099400
  H    -106.820000   60.447700  -12.025600
  H    -107.711000   61.785500  -12.847400
  C    -108.031000   61.615000  -10.682400
  H    -107.098000   61.836900  -10.154500
  H    -108.602000   62.573700  -10.716200
  H    -108.539000   60.876800  -10.103600
  S    -108.440000   57.392800  -18.402100
  C    -107.036000   56.676500  -19.045000
  C    -106.064000   56.543100  -18.098900
  C    -106.323000   57.248800  -16.866900
  C    -107.555000   57.899300  -16.911100
  H    -105.196000   55.875600  -18.268600
  C    -105.385000   57.222100  -15.669600
  H    -104.601000   56.458600  -15.867700
  H    -105.934000   56.773800  -14.857200
  C    -104.698000   58.583000  -15.538200
  H    -105.380000   59.410400  -15.720700
  H    -104.012000   58.708900  -16.317800
  C    -103.960000   58.901200  -14.200800
  H    -103.427000   59.876200  -14.183700
  H    -103.281000   58.142500  -13.858300
  H    -104.758000   58.811900  -13.471900
  H    -110.143000   61.557600  -14.661900
  H    -107.141000   56.181100  -19.992400

 Total Charge           Charge          ....    0
 Multiplicity           Mult            ....    1
 Number of Electrons    NEL             ....  134
 Basis Dimension        Dim             ....  322

ORBITAL ENERGIES
----------------

  NO   OCC          E(Eh)            E(eV)
   0   2.0000     -88.964954     -2420.8595
   1   2.0000     -88.962365     -2420.7890
   2   2.0000     -10.333835      -281.1980
   3   2.0000     -10.332662      -281.1660
   4   2.0000     -10.313657      -280.6489
   5   2.0000     -10.313487      -280.6442
   6   2.0000     -10.307628      -280.4848
   7   2.0000     -10.299728      -280.2698
   8   2.0000     -10.297616      -280.2124
   9   2.0000     -10.296882      -280.1924
  10   2.0000     -10.290352      -280.0147
  11   2.0000     -10.290092      -280.0076
  12   2.0000     -10.284547      -279.8567
  13   2.0000     -10.281092      -279.7627
  14   2.0000     -10.280263      -279.7402
  15   2.0000     -10.277088      -279.6538
  16   2.0000      -8.079432      -219.8525
  17   2.0000      -8.077670      -219.8046
  18   2.0000      -6.038031      -164.3032
  19   2.0000      -6.036142      -164.2518
  20   2.0000      -6.033950      -164.1921
  21   2.0000      -6.032226      -164.1452
  22   2.0000      -6.030117      -164.0878
  23   2.0000      -6.028313      -164.0387
  24   2.0000      -1.005288       -27.3553
  25   2.0000      -0.986112       -26.8335
  26   2.0000      -0.917985       -24.9796
  27   2.0000      -0.910147       -24.7664
  28   2.0000      -0.868454       -23.6318
  29   2.0000      -0.850109       -23.1326
  30   2.0000      -0.843739       -22.9593
  31   2.0000      -0.815369       -22.1873
  32   2.0000      -0.785008       -21.3611
  33   2.0000      -0.772839       -21.0300
  34   2.0000      -0.710731       -19.3400
  35   2.0000      -0.697354       -18.9760
  36   2.0000      -0.696005       -18.9392
  37   2.0000      -0.663307       -18.0495
  38   2.0000      -0.643023       -17.4976
  39   2.0000      -0.625198       -17.0125
  40   2.0000      -0.598445       -16.2845
  41   2.0000      -0.581535       -15.8244
  42   2.0000      -0.561194       -15.2709
  43   2.0000      -0.552423       -15.0322
  44   2.0000      -0.533458       -14.5161
  45   2.0000      -0.523961       -14.2577
  46   2.0000      -0.520325       -14.1588
  47   2.0000      -0.516302       -14.0493
  48   2.0000      -0.507711       -13.8155
  49   2.0000      -0.502466       -13.6728
  50   2.0000      -0.489155       -13.3106
  51   2.0000      -0.483718       -13.1626
  52   2.0000      -0.471872       -12.8403
  53   2.0000      -0.463068       -12.6007
  54   2.0000      -0.458000       -12.4628
  55   2.0000      -0.447768       -12.1844
  56   2.0000      -0.444196       -12.0872
  57   2.0000      -0.441464       -12.0128
  58   2.0000      -0.433431       -11.7942
  59   2.0000      -0.423286       -11.5182
  60   2.0000      -0.418664       -11.3924
  61   2.0000      -0.414220       -11.2715
  62   2.0000      -0.409037       -11.1305
  63   2.0000      -0.357483        -9.7276
  64   2.0000      -0.329718        -8.9721
  65   2.0000      -0.327308        -8.9065
  66   2.0000      -0.287105        -7.8125
  67   0.0000       0.021290         0.5793
  68   0.0000       0.073567         2.0019
  69   0.0000       0.099919         2.7189
  70   0.0000       0.122131         3.3234
  71   0.0000       0.130380         3.5478

MULLIKEN ATOMIC CHARGES
-----------------------
   0 S :    0.103455
   1 C :   -0.110071
   2 C :   -0.095226
   3 C :    0.014990
   4 C :   -0.105818
   5 H :   -0.007203
   6 C :    0.100423
   7 H :    0.008556
   8 H :    0.022357
   9 C :   -0.113240
  10 H :    0.045020
  11 H :    0.029964
  12 C :   -0.054825
  13 H :    0.034162
  14 H :    0.043524
  15 H :    0.021567
  16 S :    0.092348
  17 C :   -0.083932
  18 C :   -0.034280
  19 C :   -0.077979
  20 C :   -0.144039
  21 H :    0.030007
  22 C :    0.080251
  23 H :    0.017523
  24 H :    0.035968
  25 C :   -0.057054
  26 H :    0.043115
  27 H :    0.010239
  28 C :   -0.035079
  29 H :    0.050235
  30 H :    0.017308
  31 H :    0.016835
  32 H :    0.041193
  33 H :    0.059708
Sum of atomic charges:    0.0000000

LOEWDIN ATOMIC CHARGES
----------------------
   0 S :    0.398359
   1 C :   -0.193332
   2 C :   -0.058510
   3 C :   -0.062124
   4 C :   -0.179729
   5 H :    0.021611
   6 C :   -0.036382
   7 H :    0.025490
   8 H :    0.031922
   9 C :   -0.040909
  10 H :    0.030868
  11 H :    0.020540
  12 C :   -0.068178
  13 H :    0.026628
  14 H :    0.029972
  15 H :    0.018160
  16 S :    0.396030
  17 C :   -0.191442
  18 C :   -0.079346
  19 C :   -0.050511
  20 C :   -0.178750
  21 H :    0.036717
  22 C :   -0.028941
  23 H :    0.034969
  24 H :    0.027852
  25 C :   -0.035382
  26 H :    0.028841
  27 H :    0.017599
  28 C :   -0.067672
  29 H :    0.033756
  30 H :    0.018290
  31 H :    0.021002
  32 H :    0.025394
  33 H :    0.027206

  Mayer bond orders larger than 0.100000
B(  0-S ,  1-C ) :   1.1407 B(  0-S ,  4-C ) :   1.1357 B(  1-C ,  2-C ) :   1.5959
B(  1-C , 32-H ) :   0.9723 B(  2-C ,  3-C ) :   1.2435 B(  2-C ,  6-C ) :   1.0589
B(  3-C ,  4-C ) :   1.5624 B(  3-C ,  5-H ) :   1.0005 B(  4-C , 20-C ) :   1.0681
B(  6-C ,  7-H ) :   0.9249 B(  6-C ,  8-H ) :   0.9384 B(  6-C ,  9-C ) :   1.0547
B(  9-C , 10-H ) :   0.9561 B(  9-C , 11-H ) :   0.9628 B(  9-C , 12-C ) :   1.0671
B( 12-C , 13-H ) :   0.9775 B( 12-C , 14-H ) :   0.9776 B( 12-C , 15-H ) :   0.9746
B( 16-S , 17-C ) :   1.1650 B( 16-S , 20-C ) :   1.1356 B( 17-C , 18-C ) :   1.5914
B( 17-C , 33-H ) :   0.9693 B( 18-C , 19-C ) :   1.2542 B( 18-C , 21-H ) :   0.9848
B( 19-C , 20-C ) :   1.5906 B( 19-C , 22-C ) :   1.0339 B( 22-C , 23-H ) :   0.9269
B( 22-C , 24-H ) :   0.9431 B( 22-C , 25-C ) :   1.0438 B( 25-C , 26-H ) :   0.9652
B( 25-C , 27-H ) :   0.9488 B( 25-C , 28-C ) :   1.0722 B( 28-C , 29-H ) :   0.9746
B( 28-C , 30-H ) :   0.9723 B( 28-C , 31-H ) :   0.9770

Dispersion correction           -0.014717950
FINAL SINGLE POINT ENERGY     -1339.876542321187

DIPOLE MOMENT
-------------
                                X             Y             Z
Electronic contribution:    -16.25016      -7.56812     -27.39606
Nuclear contribution   :     16.65781       7.40202      27.95279
                        -----------------------------------------
Total Dipole Moment    :      0.40766      -0.16610       0.55674
                        -----------------------------------------
Magnitude (a.u.)       :      0.70974
Magnitude (Debye)      :      1.80401

Rotational constants in cm-1:     0.020348     0.008944     0.006588
Rotational constants in MHz :   610.002773   268.138900   197.488877

                             ****ORCA TERMINATED NORMALLY****
TOTAL RUN TIME: 0 days 0 hours 0 minutes 22 seconds 179 msec
