                         Program Version 4.2.1 -  RELEASE  -
|  1> ! wB97X-D3 SP def2-SVP
|  2> %pal
|  3> nprocs 24
|  4> end
|  5>
|  6> * xyz 0 1
|  7> S 	 -56.0919 	 11.504 	 -95.7707
|  8> C 	 -54.8271 	 12.6694 	 -96.2127
|  9> C 	 -55.2007 	 13.9506 	 -95.8956
| 10> C 	 -56.4451 	 13.9909 	 -95.2337
| 11> C 	 -57.0691 	 12.7991 	 -95.1196
| 12> H 	 -56.8704 	 14.832 	 -94.7723
| 13> C 	 -54.3651 	 15.0913 	 -96.0202
| 14> H 	 -53.3615 	 14.6936 	 -95.8516
| 15> H 	 -54.6306 	 15.6072 	 -95.0895
| 16> C 	 -54.5563 	 15.9892 	 -97.3244
| 17> H 	 -54.3149 	 15.4126 	 -98.1348
| 18> H 	 -55.6077 	 16.1494 	 -97.3926
| 19> C 	 -53.9035 	 17.4136 	 -97.1467
| 20> H 	 -54.4245 	 18.064 	 -96.3905
| 21> H 	 -52.8576 	 17.4101 	 -96.7947
| 22> H 	 -54.0138 	 17.8026 	 -98.1801
| 23> S 	 -59.6859 	 12.0114 	 -95.581
| 24> C 	 -60.8417 	 12.2236 	 -94.3037
| 25> C 	 -60.2738 	 12.7383 	 -93.1597
| 26> C 	 -58.8362 	 12.854 	 -93.249
| 27> C 	 -58.3871 	 12.6221 	 -94.5613
| 28> H 	 -60.9625 	 13.0013 	 -92.3571
| 29> C 	 -57.9527 	 13.4508 	 -92.1535
| 30> H 	 -56.9008 	 13.5313 	 -92.459
| 31> H 	 -57.9752 	 12.64 	 -91.425
| 32> C 	 -58.5169 	 14.6764 	 -91.2906
| 33> H 	 -59.3608 	 14.3585 	 -90.6933
| 34> H 	 -58.8671 	 15.4446 	 -91.9177
| 35> C 	 -57.6693 	 15.4231 	 -90.249
| 36> H 	 -56.7606 	 15.9298 	 -90.5458
| 37> H 	 -57.3232 	 14.6967 	 -89.5601
| 38> H 	 -58.2838 	 16.1201 	 -89.6612
| 39> H 	 -53.9002 	 12.3378 	 -96.7166
| 40> H 	 -61.965 	 12.0748 	 -94.4325
| 41> *
| 42>
| 43>                          ****END OF INPUT****

CARTESIAN COORDINATES (ANGSTROEM)
---------------------------------
  S    -56.091900   11.504000  -95.770700
  C    -54.827100   12.669400  -96.212700
  C    -55.200700   13.950600  -95.895600
  C    -56.445100   13.990900  -95.233700
  C    -57.069100   12.799100  -95.119600
  H    -56.870400   14.832000  -94.772300
  C    -54.365100   15.091300  -96.020200
  H    -53.361500   14.693600  -95.851600
  H    -54.630600   15.607200  -95.089500
  C    -54.556300   15.989200  -97.324400
  H    -54.314900   15.412600  -98.134800
  H    -55.607700   16.149400  -97.392600
  C    -53.903500   17.413600  -97.146700
  H    -54.424500   18.064000  -96.390500
  H    -52.857600   17.410100  -96.794700
  H    -54.013800   17.802600  -98.180100
  S    -59.685900   12.011400  -95.581000
  C    -60.841700   12.223600  -94.303700
  C    -60.273800   12.738300  -93.159700
  C    -58.836200   12.854000  -93.249000
  C    -58.387100   12.622100  -94.561300
  H    -60.962500   13.001300  -92.357100
  C    -57.952700   13.450800  -92.153500
  H    -56.900800   13.531300  -92.459000
  H    -57.975200   12.640000  -91.425000
  C    -58.516900   14.676400  -91.290600
  H    -59.360800   14.358500  -90.693300
  H    -58.867100   15.444600  -91.917700
  C    -57.669300   15.423100  -90.249000
  H    -56.760600   15.929800  -90.545800
  H    -57.323200   14.696700  -89.560100
  H    -58.283800   16.120100  -89.661200
  H    -53.900200   12.337800  -96.716600
  H    -61.965000   12.074800  -94.432500

 Total Charge           Charge          ....    0
 Multiplicity           Mult            ....    1
 Number of Electrons    NEL             ....  134
 Basis Dimension        Dim             ....  322

ORBITAL ENERGIES
----------------

  NO   OCC          E(Eh)            E(eV)
   0   2.0000     -88.964239     -2420.8400
   1   2.0000     -88.962314     -2420.7876
   2   2.0000     -10.324281      -280.9380
   3   2.0000     -10.321175      -280.8534
   4   2.0000     -10.319698      -280.8133
   5   2.0000     -10.312919      -280.6288
   6   2.0000     -10.310062      -280.5511
   7   2.0000     -10.297990      -280.2225
   8   2.0000     -10.295477      -280.1542
   9   2.0000     -10.290518      -280.0192
  10   2.0000     -10.289215      -279.9838
  11   2.0000     -10.288196      -279.9560
  12   2.0000     -10.287350      -279.9330
  13   2.0000     -10.284071      -279.8438
  14   2.0000     -10.281820      -279.7825
  15   2.0000     -10.276742      -279.6444
  16   2.0000      -8.079097      -219.8434
  17   2.0000      -8.076924      -219.7843
  18   2.0000      -6.037586      -164.2911
  19   2.0000      -6.035451      -164.2330
  20   2.0000      -6.033565      -164.1816
  21   2.0000      -6.031478      -164.1249
  22   2.0000      -6.029899      -164.0819
  23   2.0000      -6.027649      -164.0207
  24   2.0000      -1.007481       -27.4150
  25   2.0000      -0.984218       -26.7819
  26   2.0000      -0.914306       -24.8795
  27   2.0000      -0.900300       -24.4984
  28   2.0000      -0.868046       -23.6207
  29   2.0000      -0.853913       -23.2362
  30   2.0000      -0.848549       -23.0902
  31   2.0000      -0.816816       -22.2267
  32   2.0000      -0.782780       -21.3005
  33   2.0000      -0.766151       -20.8480
  34   2.0000      -0.715187       -19.4612
  35   2.0000      -0.707311       -19.2469
  36   2.0000      -0.696950       -18.9650
  37   2.0000      -0.652831       -17.7644
  38   2.0000      -0.640793       -17.4369
  39   2.0000      -0.621111       -16.9013
  40   2.0000      -0.589302       -16.0357
  41   2.0000      -0.565258       -15.3815
  42   2.0000      -0.563625       -15.3370
  43   2.0000      -0.552972       -15.0471
  44   2.0000      -0.532892       -14.5007
  45   2.0000      -0.524660       -14.2767
  46   2.0000      -0.519395       -14.1335
  47   2.0000      -0.510688       -13.8965
  48   2.0000      -0.507722       -13.8158
  49   2.0000      -0.496986       -13.5237
  50   2.0000      -0.485455       -13.2099
  51   2.0000      -0.481212       -13.0944
  52   2.0000      -0.472956       -12.8698
  53   2.0000      -0.465197       -12.6587
  54   2.0000      -0.455854       -12.4044
  55   2.0000      -0.453796       -12.3484
  56   2.0000      -0.448746       -12.2110
  57   2.0000      -0.437352       -11.9010
  58   2.0000      -0.432074       -11.7573
  59   2.0000      -0.426918       -11.6170
  60   2.0000      -0.423926       -11.5356
  61   2.0000      -0.415107       -11.2956
  62   2.0000      -0.413170       -11.2429
  63   2.0000      -0.339231        -9.2309
  64   2.0000      -0.327716        -8.9176
  65   2.0000      -0.325117        -8.8469
  66   2.0000      -0.296091        -8.0571
  67   0.0000       0.040139         1.0922
  68   0.0000       0.064329         1.7505
  69   0.0000       0.114366         3.1121
  70   0.0000       0.124060         3.3758
  71   0.0000       0.127574         3.4715

MULLIKEN ATOMIC CHARGES
-----------------------
   0 S :    0.106164
   1 C :   -0.154609
   2 C :   -0.063390
   3 C :    0.042729
   4 C :   -0.159887
   5 H :   -0.007316
   6 C :    0.041772
   7 H :    0.021857
   8 H :    0.015157
   9 C :   -0.005841
  10 H :    0.013461
  11 H :    0.021507
  12 C :   -0.075282
  13 H :    0.044373
  14 H :    0.041724
  15 H :    0.049137
  16 S :    0.116671
  17 C :   -0.120988
  18 C :   -0.051976
  19 C :   -0.007583
  20 C :   -0.186729
  21 H :    0.026800
  22 C :    0.073166
  23 H :    0.039584
  24 H :    0.029507
  25 C :   -0.074732
  26 H :    0.027581
  27 H :    0.024426
  28 C :   -0.044777
  29 H :    0.030172
  30 H :    0.012416
  31 H :    0.035442
  32 H :    0.058094
  33 H :    0.081370
Sum of atomic charges:    0.0000000

LOEWDIN ATOMIC CHARGES
----------------------
   0 S :    0.389780
   1 C :   -0.192355
   2 C :   -0.072871
   3 C :   -0.054756
   4 C :   -0.195638
   5 H :    0.025029
   6 C :   -0.039858
   7 H :    0.031875
   8 H :    0.033977
   9 C :   -0.019205
  10 H :    0.013180
  11 H :    0.025283
  12 C :   -0.070542
  13 H :    0.032014
  14 H :    0.025841
  15 H :    0.033345
  16 S :    0.406490
  17 C :   -0.200153
  18 C :   -0.079269
  19 C :   -0.048571
  20 C :   -0.201345
  21 H :    0.034905
  22 C :   -0.035280
  23 H :    0.032929
  24 H :    0.037206
  25 C :   -0.038067
  26 H :    0.025772
  27 H :    0.014857
  28 C :   -0.063853
  29 H :    0.021313
  30 H :    0.018182
  31 H :    0.032258
  32 H :    0.032407
  33 H :    0.045120

  Mayer bond orders larger than 0.100000
B(  0-S ,  1-C ) :   1.1257 B(  0-S ,  4-C ) :   1.1465 B(  1-C ,  2-C ) :   1.6005
B(  1-C , 32-H ) :   0.9683 B(  2-C ,  3-C ) :   1.2273 B(  2-C ,  6-C ) :   1.0220
B(  3-C ,  4-C ) :   1.5903 B(  3-C ,  5-H ) :   1.0046 B(  4-C , 20-C ) :   1.0391
B(  6-C ,  7-H ) :   0.9374 B(  6-C ,  8-H ) :   0.9402 B(  6-C ,  9-C ) :   1.0374
B(  9-C , 10-H ) :   0.9618 B(  9-C , 11-H ) :   0.9565 B(  9-C , 12-C ) :   1.0623
B( 12-C , 13-H ) :   0.9770 B( 12-C , 14-H ) :   0.9785 B( 12-C , 15-H ) :   0.9766
B( 16-S , 17-C ) :   1.1556 B( 16-S , 20-C ) :   1.1433 B( 17-C , 18-C ) :   1.6336
B( 17-C , 33-H ) :   0.9555 B( 18-C , 19-C ) :   1.2092 B( 18-C , 21-H ) :   0.9884
B( 19-C , 20-C ) :   1.5905 B( 19-C , 22-C ) :   1.0527 B( 22-C , 23-H ) :   0.9425
B( 22-C , 24-H ) :   0.9197 B( 22-C , 25-C ) :   1.0427 B( 25-C , 26-H ) :   0.9502
B( 25-C , 27-H ) :   0.9664 B( 25-C , 28-C ) :   1.0868 B( 28-C , 29-H ) :   0.9765
B( 28-C , 30-H ) :   0.9741 B( 28-C , 31-H ) :   0.9731

Dispersion correction           -0.013667155
FINAL SINGLE POINT ENERGY     -1339.857528724358

DIPOLE MOMENT
-------------
                                X             Y             Z
Electronic contribution:    -11.08662     -25.01461     -11.41627
Nuclear contribution   :     11.19618      25.63955      11.77102
                        -----------------------------------------
Total Dipole Moment    :      0.10955       0.62494       0.35475
                        -----------------------------------------
Magnitude (a.u.)       :      0.72691
Magnitude (Debye)      :      1.84767

Rotational constants in cm-1:     0.015847     0.008481     0.006542
Rotational constants in MHz :   475.078723   254.268596   196.123288

                             ****ORCA TERMINATED NORMALLY****
TOTAL RUN TIME: 0 days 0 hours 0 minutes 19 seconds 983 msec
