                         Program Version 4.2.1 -  RELEASE  -
|  1> ! wB97X-D3 SP def2-SVP
|  2> %pal
|  3> nprocs 24
|  4> end
|  5>
|  6> * xyz 0 1
|  7> S 	 -70.2395 	 16.2403 	 -76.0687
|  8> C 	 -69.2037 	 15.3405 	 -77.1051
|  9> C 	 -68.0941 	 15.9686 	 -77.4011
| 10> C 	 -67.9133 	 17.0999 	 -76.5996
| 11> C 	 -68.9101 	 17.2496 	 -75.6112
| 12> H 	 -67.0943 	 17.8069 	 -76.5121
| 13> C 	 -67.1565 	 15.6296 	 -78.5626
| 14> H 	 -67.2012 	 14.5423 	 -78.6227
| 15> H 	 -66.2015 	 15.9333 	 -78.2244
| 16> C 	 -67.6009 	 16.3523 	 -79.8863
| 17> H 	 -66.9433 	 16.0441 	 -80.6724
| 18> H 	 -68.5995 	 15.9636 	 -80.0468
| 19> C 	 -67.7234 	 17.9127 	 -79.6145
| 20> H 	 -68.6692 	 18.0342 	 -79.0321
| 21> H 	 -67.011 	 18.3989 	 -78.9276
| 22> H 	 -67.811 	 18.4647 	 -80.5586
| 23> S 	 -70.3513 	 19.1255 	 -74.3369
| 24> C 	 -69.5703 	 20.2479 	 -73.275
| 25> C 	 -68.2713 	 19.8915 	 -73.0277
| 26> C 	 -67.8688 	 18.6736 	 -73.7119
| 27> C 	 -68.8969 	 18.1435 	 -74.5096
| 28> H 	 -67.5476 	 20.4528 	 -72.4671
| 29> C 	 -66.4113 	 18.0846 	 -73.5944
| 30> H 	 -66.4958 	 17.0798 	 -73.9997
| 31> H 	 -66.1216 	 18.0273 	 -72.6337
| 32> C 	 -65.35 	 18.8641 	 -74.3952
| 33> H 	 -65.7747 	 19.9081 	 -74.3314
| 34> H 	 -65.4495 	 18.5443 	 -75.4183
| 35> C 	 -63.9538 	 18.7269 	 -73.8654
| 36> H 	 -63.9006 	 18.9686 	 -72.8455
| 37> H 	 -63.3412 	 19.456 	 -74.446
| 38> H 	 -63.568 	 17.7858 	 -74.217
| 39> H 	 -69.4908 	 14.4337 	 -77.6469
| 40> H 	 -70.0268 	 21.1517 	 -72.8458
| 41> *
| 42>
| 43>                          ****END OF INPUT****

CARTESIAN COORDINATES (ANGSTROEM)
---------------------------------
  S    -70.239500   16.240300  -76.068700
  C    -69.203700   15.340500  -77.105100
  C    -68.094100   15.968600  -77.401100
  C    -67.913300   17.099900  -76.599600
  C    -68.910100   17.249600  -75.611200
  H    -67.094300   17.806900  -76.512100
  C    -67.156500   15.629600  -78.562600
  H    -67.201200   14.542300  -78.622700
  H    -66.201500   15.933300  -78.224400
  C    -67.600900   16.352300  -79.886300
  H    -66.943300   16.044100  -80.672400
  H    -68.599500   15.963600  -80.046800
  C    -67.723400   17.912700  -79.614500
  H    -68.669200   18.034200  -79.032100
  H    -67.011000   18.398900  -78.927600
  H    -67.811000   18.464700  -80.558600
  S    -70.351300   19.125500  -74.336900
  C    -69.570300   20.247900  -73.275000
  C    -68.271300   19.891500  -73.027700
  C    -67.868800   18.673600  -73.711900
  C    -68.896900   18.143500  -74.509600
  H    -67.547600   20.452800  -72.467100
  C    -66.411300   18.084600  -73.594400
  H    -66.495800   17.079800  -73.999700
  H    -66.121600   18.027300  -72.633700
  C    -65.350000   18.864100  -74.395200
  H    -65.774700   19.908100  -74.331400
  H    -65.449500   18.544300  -75.418300
  C    -63.953800   18.726900  -73.865400
  H    -63.900600   18.968600  -72.845500
  H    -63.341200   19.456000  -74.446000
  H    -63.568000   17.785800  -74.217000
  H    -69.490800   14.433700  -77.646900
  H    -70.026800   21.151700  -72.845800

 Total Charge           Charge          ....    0
 Multiplicity           Mult            ....    1
 Number of Electrons    NEL             ....  134
 Basis Dimension        Dim             ....  322

ORBITAL ENERGIES
----------------

  NO   OCC          E(Eh)            E(eV)
   0   2.0000     -88.963939     -2420.8319
   1   2.0000     -88.962989     -2420.8060
   2   2.0000     -10.327173      -281.0167
   3   2.0000     -10.325816      -280.9797
   4   2.0000     -10.320596      -280.8377
   5   2.0000     -10.310211      -280.5551
   6   2.0000     -10.303291      -280.3668
   7   2.0000     -10.295607      -280.1577
   8   2.0000     -10.293016      -280.0872
   9   2.0000     -10.291024      -280.0330
  10   2.0000     -10.290784      -280.0265
  11   2.0000     -10.288405      -279.9617
  12   2.0000     -10.285668      -279.8873
  13   2.0000     -10.283641      -279.8321
  14   2.0000     -10.283152      -279.8188
  15   2.0000     -10.278085      -279.6809
  16   2.0000      -8.079261      -219.8479
  17   2.0000      -8.079032      -219.8416
  18   2.0000      -6.037876      -164.2990
  19   2.0000      -6.037431      -164.2868
  20   2.0000      -6.033687      -164.1850
  21   2.0000      -6.033619      -164.1831
  22   2.0000      -6.029936      -164.0829
  23   2.0000      -6.029504      -164.0711
  24   2.0000      -1.016417       -27.6581
  25   2.0000      -0.989502       -26.9257
  26   2.0000      -0.913011       -24.8443
  27   2.0000      -0.910693       -24.7812
  28   2.0000      -0.873666       -23.7737
  29   2.0000      -0.851978       -23.1835
  30   2.0000      -0.840702       -22.8767
  31   2.0000      -0.814453       -22.1624
  32   2.0000      -0.786440       -21.4001
  33   2.0000      -0.775141       -21.0927
  34   2.0000      -0.708311       -19.2741
  35   2.0000      -0.706552       -19.2263
  36   2.0000      -0.694887       -18.9088
  37   2.0000      -0.667423       -18.1615
  38   2.0000      -0.639299       -17.3962
  39   2.0000      -0.612270       -16.6607
  40   2.0000      -0.594883       -16.1876
  41   2.0000      -0.578278       -15.7357
  42   2.0000      -0.575165       -15.6510
  43   2.0000      -0.544690       -14.8218
  44   2.0000      -0.540480       -14.7072
  45   2.0000      -0.525182       -14.2909
  46   2.0000      -0.518821       -14.1178
  47   2.0000      -0.515941       -14.0395
  48   2.0000      -0.508560       -13.8386
  49   2.0000      -0.503510       -13.7012
  50   2.0000      -0.493178       -13.4200
  51   2.0000      -0.481061       -13.0903
  52   2.0000      -0.472642       -12.8612
  53   2.0000      -0.468642       -12.7524
  54   2.0000      -0.460353       -12.5268
  55   2.0000      -0.455077       -12.3833
  56   2.0000      -0.440822       -11.9954
  57   2.0000      -0.437491       -11.9047
  58   2.0000      -0.433402       -11.7935
  59   2.0000      -0.428994       -11.6735
  60   2.0000      -0.420380       -11.4391
  61   2.0000      -0.414649       -11.2832
  62   2.0000      -0.408165       -11.1067
  63   2.0000      -0.355954        -9.6860
  64   2.0000      -0.331295        -9.0150
  65   2.0000      -0.328795        -8.9470
  66   2.0000      -0.284837        -7.7508
  67   0.0000       0.022259         0.6057
  68   0.0000       0.073034         1.9873
  69   0.0000       0.102201         2.7810
  70   0.0000       0.126352         3.4382
  71   0.0000       0.130971         3.5639

MULLIKEN ATOMIC CHARGES
-----------------------
   0 S :    0.111802
   1 C :   -0.119530
   2 C :   -0.093254
   3 C :    0.002896
   4 C :   -0.155945
   5 H :   -0.011274
   6 C :    0.094586
   7 H :    0.022524
   8 H :    0.011294
   9 C :   -0.028829
  10 H :    0.038976
  11 H :    0.026294
  12 C :   -0.093723
  13 H :    0.056469
  14 H :    0.036872
  15 H :    0.045813
  16 S :    0.089397
  17 C :   -0.081280
  18 C :   -0.021540
  19 C :   -0.101505
  20 C :   -0.125833
  21 H :    0.013603
  22 C :    0.121577
  23 H :    0.027716
  24 H :   -0.010069
  25 C :   -0.126324
  26 H :    0.030770
  27 H :    0.026468
  28 C :    0.008584
  29 H :    0.033102
  30 H :    0.030813
  31 H :    0.031124
  32 H :    0.039898
  33 H :    0.068531
Sum of atomic charges:    0.0000000

LOEWDIN ATOMIC CHARGES
----------------------
   0 S :    0.412282
   1 C :   -0.199723
   2 C :   -0.077603
   3 C :   -0.062712
   4 C :   -0.199255
   5 H :    0.024661
   6 C :   -0.017863
   7 H :    0.028255
   8 H :    0.018706
   9 C :   -0.025716
  10 H :    0.019733
  11 H :    0.025384
  12 C :   -0.074168
  13 H :    0.037188
  14 H :    0.024330
  15 H :    0.027367
  16 S :    0.402939
  17 C :   -0.188605
  18 C :   -0.074239
  19 C :   -0.046950
  20 C :   -0.196190
  21 H :    0.028126
  22 C :   -0.018653
  23 H :    0.030477
  24 H :    0.009537
  25 C :   -0.044847
  26 H :    0.025976
  27 H :    0.016751
  28 C :   -0.057118
  29 H :    0.020338
  30 H :    0.035099
  31 H :    0.028253
  32 H :    0.030654
  33 H :    0.037587

  Mayer bond orders larger than 0.100000
B(  0-S ,  1-C ) :   1.1321 B(  0-S ,  4-C ) :   1.1503 B(  1-C ,  2-C ) :   1.6492
B(  1-C , 32-H ) :   0.9602 B(  2-C ,  3-C ) :   1.2294 B(  2-C ,  6-C ) :   1.0049
B(  3-C ,  4-C ) :   1.5436 B(  3-C ,  5-H ) :   1.0015 B(  4-C , 20-C ) :   1.0768
B(  6-C ,  7-H ) :   0.9416 B(  6-C ,  8-H ) :   0.9403 B(  6-C ,  9-C ) :   1.0598
B(  9-C , 10-H ) :   0.9654 B(  9-C , 11-H ) :   0.9567 B(  9-C , 12-C ) :   1.0607
B( 12-C , 13-H ) :   0.9671 B( 12-C , 14-H ) :   0.9784 B( 12-C , 15-H ) :   0.9747
B( 16-S , 17-C ) :   1.1569 B( 16-S , 20-C ) :   1.1242 B( 17-C , 18-C ) :   1.6027
B( 17-C , 33-H ) :   0.9652 B( 18-C , 19-C ) :   1.2410 B( 18-C , 21-H ) :   0.9909
B( 19-C , 20-C ) :   1.6017 B( 19-C , 22-C ) :   1.0369 B( 22-C , 23-H ) :   0.9326
B( 22-C , 24-H ) :   0.9357 B( 22-C , 25-C ) :   1.0498 B( 25-C , 26-H ) :   0.9636
B( 25-C , 27-H ) :   0.9446 B( 25-C , 28-C ) :   1.0909 B( 28-C , 29-H ) :   0.9744
B( 28-C , 30-H ) :   0.9679 B( 28-C , 31-H ) :   0.9710

Dispersion correction           -0.015132797
FINAL SINGLE POINT ENERGY     -1339.853630573248

DIPOLE MOMENT
-------------
                                X             Y             Z
Electronic contribution:    -25.05008      -1.68824      10.30890
Nuclear contribution   :     25.73162       1.84931     -10.51640
                        -----------------------------------------
Total Dipole Moment    :      0.68154       0.16107      -0.20749
                        -----------------------------------------
Magnitude (a.u.)       :      0.73041
Magnitude (Debye)      :      1.85654

Rotational constants in cm-1:     0.016841     0.010083     0.007400
Rotational constants in MHz :   504.869820   302.268394   221.840698

                             ****ORCA TERMINATED NORMALLY****
TOTAL RUN TIME: 0 days 0 hours 0 minutes 22 seconds 603 msec
