                         Program Version 4.2.1 -  RELEASE  -
|  1> ! wB97X-D3 SP def2-SVP
|  2> %pal
|  3> nprocs 24
|  4> end
|  5>
|  6> * xyz 0 1
|  7> S 	 33.1953 	 -36.6801 	 -126.624
|  8> C 	 32.4341 	 -35.8718 	 -125.25
|  9> C 	 31.5103 	 -34.9143 	 -125.69
| 10> C 	 31.6239 	 -34.682 	 -127.065
| 11> C 	 32.4594 	 -35.5678 	 -127.75
| 12> H 	 30.924 	 -34.0765 	 -127.671
| 13> C 	 30.4159 	 -34.2771 	 -124.857
| 14> H 	 30.6159 	 -33.1572 	 -124.983
| 15> H 	 30.4914 	 -34.3459 	 -123.763
| 16> C 	 28.9687 	 -34.6871 	 -125.1
| 17> H 	 28.2873 	 -34.1398 	 -124.434
| 18> H 	 28.6136 	 -34.2674 	 -126.06
| 19> C 	 28.769 	 -36.1826 	 -125.076
| 20> H 	 29.4544 	 -36.7889 	 -125.751
| 21> H 	 28.8357 	 -36.5283 	 -124.013
| 22> H 	 27.7902 	 -36.5015 	 -125.319
| 23> S 	 30.5775 	 -36.1173 	 -129.696
| 24> C 	 31.0525 	 -35.6711 	 -131.278
| 25> C 	 32.4256 	 -35.5824 	 -131.487
| 26> C 	 33.1166 	 -35.7749 	 -130.267
| 27> C 	 32.2364 	 -35.7986 	 -129.195
| 28> H 	 32.8423 	 -35.4071 	 -132.463
| 29> C 	 34.6165 	 -35.7229 	 -130.175
| 30> H 	 34.9015 	 -36.0615 	 -131.087
| 31> H 	 34.8493 	 -36.5475 	 -129.557
| 32> C 	 35.1705 	 -34.3421 	 -129.839
| 33> H 	 35.1357 	 -34.4556 	 -128.721
| 34> H 	 34.5171 	 -33.4565 	 -129.991
| 35> C 	 36.6041 	 -34.1202 	 -130.264
| 36> H 	 36.9766 	 -33.1221 	 -130.091
| 37> H 	 36.7368 	 -34.4115 	 -131.282
| 38> H 	 37.2195 	 -34.7233 	 -129.61
| 39> H 	 32.4716 	 -36.2902 	 -124.28
| 40> H 	 30.3901 	 -35.5347 	 -132.104
| 41> *
| 42>
| 43>                          ****END OF INPUT****

CARTESIAN COORDINATES (ANGSTROEM)
---------------------------------
  S     33.195300  -36.680100  -126.624000
  C     32.434100  -35.871800  -125.250000
  C     31.510300  -34.914300  -125.690000
  C     31.623900  -34.682000  -127.065000
  C     32.459400  -35.567800  -127.750000
  H     30.924000  -34.076500  -127.671000
  C     30.415900  -34.277100  -124.857000
  H     30.615900  -33.157200  -124.983000
  H     30.491400  -34.345900  -123.763000
  C     28.968700  -34.687100  -125.100000
  H     28.287300  -34.139800  -124.434000
  H     28.613600  -34.267400  -126.060000
  C     28.769000  -36.182600  -125.076000
  H     29.454400  -36.788900  -125.751000
  H     28.835700  -36.528300  -124.013000
  H     27.790200  -36.501500  -125.319000
  S     30.577500  -36.117300  -129.696000
  C     31.052500  -35.671100  -131.278000
  C     32.425600  -35.582400  -131.487000
  C     33.116600  -35.774900  -130.267000
  C     32.236400  -35.798600  -129.195000
  H     32.842300  -35.407100  -132.463000
  C     34.616500  -35.722900  -130.175000
  H     34.901500  -36.061500  -131.087000
  H     34.849300  -36.547500  -129.557000
  C     35.170500  -34.342100  -129.839000
  H     35.135700  -34.455600  -128.721000
  H     34.517100  -33.456500  -129.991000
  C     36.604100  -34.120200  -130.264000
  H     36.976600  -33.122100  -130.091000
  H     36.736800  -34.411500  -131.282000
  H     37.219500  -34.723300  -129.610000
  H     32.471600  -36.290200  -124.280000
  H     30.390100  -35.534700  -132.104000

 Total Charge           Charge          ....    0
 Multiplicity           Mult            ....    1
 Number of Electrons    NEL             ....  134
 Basis Dimension        Dim             ....  322

ORBITAL ENERGIES
----------------

  NO   OCC          E(Eh)            E(eV)
   0   2.0000     -88.968368     -2420.9524
   1   2.0000     -88.967697     -2420.9341
   2   2.0000     -10.327478      -281.0250
   3   2.0000     -10.321432      -280.8604
   4   2.0000     -10.314296      -280.6663
   5   2.0000     -10.310860      -280.5728
   6   2.0000     -10.303095      -280.3615
   7   2.0000     -10.297717      -280.2151
   8   2.0000     -10.297026      -280.1963
   9   2.0000     -10.291717      -280.0518
  10   2.0000     -10.289857      -280.0012
  11   2.0000     -10.288704      -279.9699
  12   2.0000     -10.284628      -279.8590
  13   2.0000     -10.278317      -279.6872
  14   2.0000     -10.277053      -279.6528
  15   2.0000     -10.270290      -279.4688
  16   2.0000      -8.082730      -219.9423
  17   2.0000      -8.082528      -219.9368
  18   2.0000      -6.041006      -164.3841
  19   2.0000      -6.040956      -164.3828
  20   2.0000      -6.037456      -164.2875
  21   2.0000      -6.037108      -164.2781
  22   2.0000      -6.033471      -164.1791
  23   2.0000      -6.033426      -164.1779
  24   2.0000      -1.007202       -27.4074
  25   2.0000      -0.985215       -26.8091
  26   2.0000      -0.914641       -24.8887
  27   2.0000      -0.910974       -24.7889
  28   2.0000      -0.863776       -23.5045
  29   2.0000      -0.856028       -23.2937
  30   2.0000      -0.847267       -23.0553
  31   2.0000      -0.808902       -22.0113
  32   2.0000      -0.786835       -21.4109
  33   2.0000      -0.773558       -21.0496
  34   2.0000      -0.707584       -19.2543
  35   2.0000      -0.698240       -19.0001
  36   2.0000      -0.690554       -18.7909
  37   2.0000      -0.664957       -18.0944
  38   2.0000      -0.634399       -17.2629
  39   2.0000      -0.617445       -16.8015
  40   2.0000      -0.595591       -16.2069
  41   2.0000      -0.567554       -15.4439
  42   2.0000      -0.559889       -15.2354
  43   2.0000      -0.554941       -15.1007
  44   2.0000      -0.536229       -14.5915
  45   2.0000      -0.532342       -14.4858
  46   2.0000      -0.515878       -14.0378
  47   2.0000      -0.512919       -13.9572
  48   2.0000      -0.500297       -13.6138
  49   2.0000      -0.493952       -13.4411
  50   2.0000      -0.486233       -13.2311
  51   2.0000      -0.474251       -12.9050
  52   2.0000      -0.469330       -12.7711
  53   2.0000      -0.464967       -12.6524
  54   2.0000      -0.458864       -12.4863
  55   2.0000      -0.452086       -12.3019
  56   2.0000      -0.446324       -12.1451
  57   2.0000      -0.441548       -12.0151
  58   2.0000      -0.440606       -11.9895
  59   2.0000      -0.429349       -11.6832
  60   2.0000      -0.420488       -11.4420
  61   2.0000      -0.401612       -10.9284
  62   2.0000      -0.397547       -10.8178
  63   2.0000      -0.338072        -9.1994
  64   2.0000      -0.329926        -8.9777
  65   2.0000      -0.325534        -8.8582
  66   2.0000      -0.291788        -7.9400
  67   0.0000       0.027744         0.7550
  68   0.0000       0.058029         1.5790
  69   0.0000       0.101044         2.7495
  70   0.0000       0.118518         3.2250
  71   0.0000       0.124324         3.3830

MULLIKEN ATOMIC CHARGES
-----------------------
   0 S :    0.103288
   1 C :   -0.105673
   2 C :   -0.080467
   3 C :   -0.001522
   4 C :   -0.131316
   5 H :    0.031798
   6 C :    0.021071
   7 H :    0.043946
   8 H :    0.020372
   9 C :   -0.053038
  10 H :    0.028654
  11 H :    0.018599
  12 C :   -0.053083
  13 H :    0.058613
  14 H :    0.024641
  15 H :    0.018788
  16 S :    0.133920
  17 C :   -0.079469
  18 C :   -0.042125
  19 C :   -0.073745
  20 C :   -0.201874
  21 H :    0.013351
  22 C :    0.189129
  23 H :   -0.030642
  24 H :    0.011846
  25 C :   -0.110368
  26 H :    0.039272
  27 H :    0.048326
  28 C :   -0.000932
  29 H :    0.028989
  30 H :    0.027469
  31 H :    0.020876
  32 H :    0.041062
  33 H :    0.040243
Sum of atomic charges:    0.0000000

LOEWDIN ATOMIC CHARGES
----------------------
   0 S :    0.404586
   1 C :   -0.186783
   2 C :   -0.064055
   3 C :   -0.067503
   4 C :   -0.206518
   5 H :    0.032552
   6 C :   -0.042688
   7 H :    0.042263
   8 H :    0.029538
   9 C :   -0.047631
  10 H :    0.029223
  11 H :    0.020257
  12 C :   -0.070636
  13 H :    0.037903
  14 H :    0.028421
  15 H :    0.019504
  16 S :    0.424143
  17 C :   -0.190617
  18 C :   -0.070121
  19 C :   -0.043079
  20 C :   -0.199431
  21 H :    0.030932
  22 C :   -0.020979
  23 H :    0.011714
  24 H :    0.028267
  25 C :   -0.047711
  26 H :    0.035489
  27 H :    0.030969
  28 C :   -0.060713
  29 H :    0.026748
  30 H :    0.019287
  31 H :    0.027077
  32 H :    0.019332
  33 H :    0.020260

  Mayer bond orders larger than 0.100000
B(  0-S ,  1-C ) :   1.1502 B(  0-S ,  4-C ) :   1.1620 B(  1-C ,  2-C ) :   1.5706
B(  1-C ,  4-C ) :   0.1003 B(  1-C , 32-H ) :   0.9734 B(  2-C ,  3-C ) :   1.2724
B(  2-C ,  6-C ) :   1.0210 B(  3-C ,  4-C ) :   1.5321 B(  3-C ,  5-H ) :   0.9915
B(  4-C , 20-C ) :   1.0438 B(  6-C ,  7-H ) :   0.9391 B(  6-C ,  8-H ) :   0.9497
B(  6-C ,  9-C ) :   1.0683 B(  9-C , 10-H ) :   0.9526 B(  9-C , 11-H ) :   0.9514
B(  9-C , 12-C ) :   1.0763 B( 12-C , 13-H ) :   0.9709 B( 12-C , 14-H ) :   0.9729
B( 12-C , 15-H ) :   0.9711 B( 16-S , 17-C ) :   1.1658 B( 16-S , 20-C ) :   1.1406
B( 17-C , 18-C ) :   1.6041 B( 17-C , 33-H ) :   0.9665 B( 18-C , 19-C ) :   1.2490
B( 18-C , 21-H ) :   0.9962 B( 19-C , 20-C ) :   1.5766 B( 19-C , 22-C ) :   1.0307
B( 22-C , 23-H ) :   0.9177 B( 22-C , 24-H ) :   0.9206 B( 22-C , 25-C ) :   1.0229
B( 25-C , 26-H ) :   0.9524 B( 25-C , 27-H ) :   0.9691 B( 25-C , 28-C ) :   1.0804
B( 28-C , 29-H ) :   0.9726 B( 28-C , 30-H ) :   0.9789 B( 28-C , 31-H ) :   0.9719

Dispersion correction           -0.015296485
FINAL SINGLE POINT ENERGY     -1339.848458861579

DIPOLE MOMENT
-------------
                                X             Y             Z
Electronic contribution:     -2.35191      -8.67977      -4.23727
Nuclear contribution   :      2.14711       8.84772       4.19706
                        -----------------------------------------
Total Dipole Moment    :     -0.20480       0.16795      -0.04021
                        -----------------------------------------
Magnitude (a.u.)       :      0.26789
Magnitude (Debye)      :      0.68093

Rotational constants in cm-1:     0.021146     0.008891     0.007133
Rotational constants in MHz :   633.929153   266.551475   213.833946

                             ****ORCA TERMINATED NORMALLY****
TOTAL RUN TIME: 0 days 0 hours 0 minutes 23 seconds 126 msec
