                         Program Version 4.2.1 -  RELEASE  -
|  1> ! wB97X-D3 SP def2-SVP
|  2> %pal
|  3> nprocs 24
|  4> end
|  5>
|  6> * xyz 0 1
|  7> S 	 -49.6222 	 -44.0489 	 -78.1647
|  8> C 	 -49.5011 	 -42.4437 	 -78.7488
|  9> C 	 -48.4008 	 -41.7858 	 -78.2585
| 10> C 	 -47.582 	 -42.6283 	 -77.5361
| 11> C 	 -48.0497 	 -43.9329 	 -77.4949
| 12> H 	 -46.6388 	 -42.2299 	 -77.1023
| 13> C 	 -48.0197 	 -40.3919 	 -78.3923
| 14> H 	 -47.9538 	 -40.1835 	 -79.4429
| 15> H 	 -47.0557 	 -40.2342 	 -77.8614
| 16> C 	 -49.0963 	 -39.2978 	 -77.9818
| 17> H 	 -49.9609 	 -39.5744 	 -78.6143
| 18> H 	 -49.2769 	 -39.3188 	 -76.8781
| 19> C 	 -48.6249 	 -37.8557 	 -78.2742
| 20> H 	 -48.5508 	 -37.5109 	 -79.3477
| 21> H 	 -49.3036 	 -37.1481 	 -77.7922
| 22> H 	 -47.6547 	 -37.6998 	 -77.7456
| 23> S 	 -48.4175 	 -45.3233 	 -75.386
| 24> C 	 -47.2187 	 -46.4939 	 -74.8135
| 25> C 	 -46.0498 	 -46.4623 	 -75.5107
| 26> C 	 -46.1919 	 -45.6076 	 -76.7142
| 27> C 	 -47.4182 	 -44.9464 	 -76.6836
| 28> H 	 -45.2498 	 -47.1421 	 -75.2246
| 29> C 	 -45.2209 	 -45.5826 	 -77.8412
| 30> H 	 -45.6358 	 -44.9526 	 -78.6097
| 31> H 	 -45.2835 	 -46.5914 	 -78.2774
| 32> C 	 -43.7015 	 -45.2664 	 -77.5761
| 33> H 	 -43.4523 	 -45.8053 	 -76.6344
| 34> H 	 -43.6318 	 -44.2279 	 -77.391
| 35> C 	 -42.6682 	 -45.5222 	 -78.6561
| 36> H 	 -42.7909 	 -44.9876 	 -79.5768
| 37> H 	 -42.755 	 -46.5477 	 -79.0394
| 38> H 	 -41.6594 	 -45.3973 	 -78.3112
| 39> H 	 -50.2366 	 -42.0552 	 -79.4025
| 40> H 	 -47.3222 	 -47.0441 	 -73.8753
| 41> *
| 42>
| 43>                          ****END OF INPUT****

CARTESIAN COORDINATES (ANGSTROEM)
---------------------------------
  S    -49.622200  -44.048900  -78.164700
  C    -49.501100  -42.443700  -78.748800
  C    -48.400800  -41.785800  -78.258500
  C    -47.582000  -42.628300  -77.536100
  C    -48.049700  -43.932900  -77.494900
  H    -46.638800  -42.229900  -77.102300
  C    -48.019700  -40.391900  -78.392300
  H    -47.953800  -40.183500  -79.442900
  H    -47.055700  -40.234200  -77.861400
  C    -49.096300  -39.297800  -77.981800
  H    -49.960900  -39.574400  -78.614300
  H    -49.276900  -39.318800  -76.878100
  C    -48.624900  -37.855700  -78.274200
  H    -48.550800  -37.510900  -79.347700
  H    -49.303600  -37.148100  -77.792200
  H    -47.654700  -37.699800  -77.745600
  S    -48.417500  -45.323300  -75.386000
  C    -47.218700  -46.493900  -74.813500
  C    -46.049800  -46.462300  -75.510700
  C    -46.191900  -45.607600  -76.714200
  C    -47.418200  -44.946400  -76.683600
  H    -45.249800  -47.142100  -75.224600
  C    -45.220900  -45.582600  -77.841200
  H    -45.635800  -44.952600  -78.609700
  H    -45.283500  -46.591400  -78.277400
  C    -43.701500  -45.266400  -77.576100
  H    -43.452300  -45.805300  -76.634400
  H    -43.631800  -44.227900  -77.391000
  C    -42.668200  -45.522200  -78.656100
  H    -42.790900  -44.987600  -79.576800
  H    -42.755000  -46.547700  -79.039400
  H    -41.659400  -45.397300  -78.311200
  H    -50.236600  -42.055200  -79.402500
  H    -47.322200  -47.044100  -73.875300

 Total Charge           Charge          ....    0
 Multiplicity           Mult            ....    1
 Number of Electrons    NEL             ....  134
 Basis Dimension        Dim             ....  322

ORBITAL ENERGIES
----------------

  NO   OCC          E(Eh)            E(eV)
   0   2.0000     -88.969679     -2420.9880
   1   2.0000     -88.959933     -2420.7229
   2   2.0000     -10.321057      -280.8502
   3   2.0000     -10.316556      -280.7278
   4   2.0000     -10.311537      -280.5912
   5   2.0000     -10.305172      -280.4180
   6   2.0000     -10.305147      -280.4173
   7   2.0000     -10.297082      -280.1978
   8   2.0000     -10.295541      -280.1559
   9   2.0000     -10.288403      -279.9617
  10   2.0000     -10.287843      -279.9464
  11   2.0000     -10.287549      -279.9385
  12   2.0000     -10.286967      -279.9226
  13   2.0000     -10.286534      -279.9108
  14   2.0000     -10.286348      -279.9058
  15   2.0000     -10.274700      -279.5888
  16   2.0000      -8.085527      -220.0184
  17   2.0000      -8.076145      -219.7631
  18   2.0000      -6.043779      -164.4596
  19   2.0000      -6.039927      -164.3548
  20   2.0000      -6.036460      -164.2604
  21   2.0000      -6.034674      -164.2118
  22   2.0000      -6.030483      -164.0978
  23   2.0000      -6.026731      -163.9957
  24   2.0000      -1.019093       -27.7309
  25   2.0000      -0.989576       -26.9277
  26   2.0000      -0.914313       -24.8797
  27   2.0000      -0.903543       -24.5867
  28   2.0000      -0.871851       -23.7243
  29   2.0000      -0.858292       -23.3553
  30   2.0000      -0.850630       -23.1468
  31   2.0000      -0.815065       -22.1790
  32   2.0000      -0.780306       -21.2332
  33   2.0000      -0.768492       -20.9117
  34   2.0000      -0.709233       -19.2992
  35   2.0000      -0.701061       -19.0768
  36   2.0000      -0.690123       -18.7792
  37   2.0000      -0.659861       -17.9557
  38   2.0000      -0.642144       -17.4736
  39   2.0000      -0.621100       -16.9010
  40   2.0000      -0.590992       -16.0817
  41   2.0000      -0.571997       -15.5648
  42   2.0000      -0.563852       -15.3432
  43   2.0000      -0.555386       -15.1128
  44   2.0000      -0.528587       -14.3836
  45   2.0000      -0.521554       -14.1922
  46   2.0000      -0.518569       -14.1110
  47   2.0000      -0.508136       -13.8271
  48   2.0000      -0.507216       -13.8020
  49   2.0000      -0.498702       -13.5704
  50   2.0000      -0.490550       -13.3486
  51   2.0000      -0.477983       -13.0066
  52   2.0000      -0.474402       -12.9091
  53   2.0000      -0.468834       -12.7576
  54   2.0000      -0.455660       -12.3991
  55   2.0000      -0.453744       -12.3470
  56   2.0000      -0.446837       -12.1590
  57   2.0000      -0.435511       -11.8509
  58   2.0000      -0.430733       -11.7208
  59   2.0000      -0.427531       -11.6337
  60   2.0000      -0.422742       -11.5034
  61   2.0000      -0.418809       -11.3964
  62   2.0000      -0.415259       -11.2998
  63   2.0000      -0.345461        -9.4005
  64   2.0000      -0.329907        -8.9772
  65   2.0000      -0.321067        -8.7367
  66   2.0000      -0.291383        -7.9289
  67   0.0000       0.040214         1.0943
  68   0.0000       0.067812         1.8453
  69   0.0000       0.112226         3.0538
  70   0.0000       0.122730         3.3396
  71   0.0000       0.128498         3.4966

MULLIKEN ATOMIC CHARGES
-----------------------
   0 S :    0.138359
   1 C :   -0.135280
   2 C :   -0.026303
   3 C :    0.010872
   4 C :   -0.171375
   5 H :    0.022665
   6 C :    0.064542
   7 H :    0.025561
   8 H :    0.021709
   9 C :   -0.101241
  10 H :    0.036001
  11 H :    0.045441
  12 C :   -0.075248
  13 H :    0.045761
  14 H :    0.035546
  15 H :    0.033566
  16 S :    0.103356
  17 C :   -0.094202
  18 C :   -0.040394
  19 C :   -0.034165
  20 C :   -0.165183
  21 H :    0.029910
  22 C :    0.067077
  23 H :    0.018262
  24 H :    0.030459
  25 C :   -0.068291
  26 H :    0.030316
  27 H :    0.021194
  28 C :   -0.031051
  29 H :    0.024450
  30 H :    0.015988
  31 H :    0.036329
  32 H :    0.030184
  33 H :    0.055185
Sum of atomic charges:    0.0000000

LOEWDIN ATOMIC CHARGES
----------------------
   0 S :    0.448183
   1 C :   -0.205464
   2 C :   -0.071560
   3 C :   -0.059604
   4 C :   -0.222671
   5 H :    0.038248
   6 C :   -0.035174
   7 H :    0.033971
   8 H :    0.029856
   9 C :   -0.036471
  10 H :    0.024573
  11 H :    0.030489
  12 C :   -0.079220
  13 H :    0.029740
  14 H :    0.026838
  15 H :    0.028812
  16 S :    0.419806
  17 C :   -0.183186
  18 C :   -0.068686
  19 C :   -0.058134
  20 C :   -0.213991
  21 H :    0.035198
  22 C :   -0.036808
  23 H :    0.027749
  24 H :    0.035664
  25 C :   -0.038374
  26 H :    0.026946
  27 H :    0.019156
  28 C :   -0.066054
  29 H :    0.023579
  30 H :    0.024440
  31 H :    0.028158
  32 H :    0.016293
  33 H :    0.027700

  Mayer bond orders larger than 0.100000
B(  0-S ,  1-C ) :   1.1579 B(  0-S ,  4-C ) :   1.1863 B(  1-C ,  2-C ) :   1.5374
B(  1-C ,  4-C ) :   0.1012 B(  1-C , 32-H ) :   0.9781 B(  2-C ,  3-C ) :   1.3165
B(  2-C ,  6-C ) :   1.0391 B(  3-C ,  4-C ) :   1.5034 B(  3-C ,  5-H ) :   0.9926
B(  4-C , 20-C ) :   1.0094 B(  6-C ,  7-H ) :   0.9262 B(  6-C ,  8-H ) :   0.9410
B(  6-C ,  9-C ) :   1.0528 B(  9-C , 10-H ) :   0.9561 B(  9-C , 11-H ) :   0.9579
B(  9-C , 12-C ) :   1.0822 B( 12-C , 13-H ) :   0.9744 B( 12-C , 14-H ) :   0.9750
B( 12-C , 15-H ) :   0.9720 B( 16-S , 17-C ) :   1.1239 B( 16-S , 20-C ) :   1.1651
B( 17-C , 18-C ) :   1.6809 B( 17-C , 33-H ) :   0.9628 B( 18-C , 19-C ) :   1.1702
B( 18-C , 21-H ) :   0.9851 B( 19-C , 20-C ) :   1.6274 B( 19-C , 22-C ) :   1.0646
B( 22-C , 23-H ) :   0.9292 B( 22-C , 24-H ) :   0.9290 B( 22-C , 25-C ) :   1.0462
B( 25-C , 26-H ) :   0.9592 B( 25-C , 27-H ) :   0.9549 B( 25-C , 28-C ) :   1.0882
B( 28-C , 29-H ) :   0.9732 B( 28-C , 30-H ) :   0.9713 B( 28-C , 31-H ) :   0.9735

Dispersion correction           -0.013214452
FINAL SINGLE POINT ENERGY     -1339.869121886819

DIPOLE MOMENT
-------------
                                X             Y             Z
Electronic contribution:    -18.32193     -16.67581       8.77838
Nuclear contribution   :     18.70009      17.03818      -8.91570
                        -----------------------------------------
Total Dipole Moment    :      0.37815       0.36237      -0.13732
                        -----------------------------------------
Magnitude (a.u.)       :      0.54145
Magnitude (Debye)      :      1.37625

Rotational constants in cm-1:     0.018082     0.007680     0.006173
Rotational constants in MHz :   542.090957   230.244696   185.076616

                             ****ORCA TERMINATED NORMALLY****
TOTAL RUN TIME: 0 days 0 hours 0 minutes 20 seconds 909 msec
