                         Program Version 4.2.1 -  RELEASE  -
|  1> ! wB97X-D3 SP def2-SVP
|  2> %pal
|  3> nprocs 24
|  4> end
|  5>
|  6> * xyz 0 1
|  7> S 	 -136.87 	 11.3802 	 -1.73825
|  8> C 	 -137.127 	 10.4176 	 -0.240538
|  9> C 	 -136.034 	 10.3917 	 0.573425
| 10> C 	 -135.006 	 11.2272 	 0.0840315
| 11> C 	 -135.321 	 11.9128 	 -1.12361
| 12> H 	 -134.048 	 11.3579 	 0.424785
| 13> C 	 -135.793 	 9.41813 	 1.733
| 14> H 	 -136.538 	 8.66362 	 1.89514
| 15> H 	 -135.886 	 10.0418 	 2.59064
| 16> C 	 -134.413 	 8.80775 	 1.70001
| 17> H 	 -133.609 	 9.49443 	 1.8993
| 18> H 	 -134.473 	 8.04071 	 2.55633
| 19> C 	 -134.185 	 7.9312 	 0.486666
| 20> H 	 -133.191 	 7.51242 	 0.528921
| 21> H 	 -134.973 	 7.17467 	 0.557247
| 22> H 	 -134.34 	 8.36943 	 -0.543273
| 23> S 	 -135.426 	 14.188 	 -2.70091
| 24> C 	 -133.862 	 14.8534 	 -3.2503
| 25> C 	 -132.753 	 14.1469 	 -2.87192
| 26> C 	 -133.136 	 13.0577 	 -2.03372
| 27> C 	 -134.528 	 12.9708 	 -1.8021
| 28> H 	 -131.718 	 14.3838 	 -3.25907
| 29> C 	 -132.079 	 12.1967 	 -1.31292
| 30> H 	 -131.399 	 12.0024 	 -2.14279
| 31> H 	 -132.5 	 11.2495 	 -1.14218
| 32> C 	 -131.426 	 12.7882 	 -0.0345401
| 33> H 	 -132.249 	 13.1774 	 0.606389
| 34> H 	 -130.967 	 13.7089 	 -0.373211
| 35> C 	 -130.58 	 11.6901 	 0.672071
| 36> H 	 -129.847 	 11.2422 	 -0.0682591
| 37> H 	 -131.164 	 10.9462 	 1.14152
| 38> H 	 -129.955 	 12.1343 	 1.4192
| 39> H 	 -137.882 	 9.67781 	 -0.0539091
| 40> H 	 -133.697 	 15.63 	 -3.89231
| 41> *
| 42>
| 43>                          ****END OF INPUT****

CARTESIAN COORDINATES (ANGSTROEM)
---------------------------------
  S    -136.870000   11.380200   -1.738250
  C    -137.127000   10.417600   -0.240538
  C    -136.034000   10.391700    0.573425
  C    -135.006000   11.227200    0.084031
  C    -135.321000   11.912800   -1.123610
  H    -134.048000   11.357900    0.424785
  C    -135.793000    9.418130    1.733000
  H    -136.538000    8.663620    1.895140
  H    -135.886000   10.041800    2.590640
  C    -134.413000    8.807750    1.700010
  H    -133.609000    9.494430    1.899300
  H    -134.473000    8.040710    2.556330
  C    -134.185000    7.931200    0.486666
  H    -133.191000    7.512420    0.528921
  H    -134.973000    7.174670    0.557247
  H    -134.340000    8.369430   -0.543273
  S    -135.426000   14.188000   -2.700910
  C    -133.862000   14.853400   -3.250300
  C    -132.753000   14.146900   -2.871920
  C    -133.136000   13.057700   -2.033720
  C    -134.528000   12.970800   -1.802100
  H    -131.718000   14.383800   -3.259070
  C    -132.079000   12.196700   -1.312920
  H    -131.399000   12.002400   -2.142790
  H    -132.500000   11.249500   -1.142180
  C    -131.426000   12.788200   -0.034540
  H    -132.249000   13.177400    0.606389
  H    -130.967000   13.708900   -0.373211
  C    -130.580000   11.690100    0.672071
  H    -129.847000   11.242200   -0.068259
  H    -131.164000   10.946200    1.141520
  H    -129.955000   12.134300    1.419200
  H    -137.882000    9.677810   -0.053909
  H    -133.697000   15.630000   -3.892310

 Total Charge           Charge          ....    0
 Multiplicity           Mult            ....    1
 Number of Electrons    NEL             ....  134
 Basis Dimension        Dim             ....  322

ORBITAL ENERGIES
----------------

  NO   OCC          E(Eh)            E(eV)
   0   2.0000     -88.971454     -2421.0363
   1   2.0000     -88.969526     -2420.9839
   2   2.0000     -10.335660      -281.2476
   3   2.0000     -10.332153      -281.1522
   4   2.0000     -10.312689      -280.6225
   5   2.0000     -10.309905      -280.5468
   6   2.0000     -10.305685      -280.4319
   7   2.0000     -10.299374      -280.2602
   8   2.0000     -10.298888      -280.2470
   9   2.0000     -10.294800      -280.1357
  10   2.0000     -10.292222      -280.0656
  11   2.0000     -10.290440      -280.0171
  12   2.0000     -10.287974      -279.9500
  13   2.0000     -10.287014      -279.9239
  14   2.0000     -10.285563      -279.8844
  15   2.0000     -10.278146      -279.6826
  16   2.0000      -8.085161      -220.0084
  17   2.0000      -8.083104      -219.9524
  18   2.0000      -6.043722      -164.4580
  19   2.0000      -6.041693      -164.4028
  20   2.0000      -6.039949      -164.3554
  21   2.0000      -6.037876      -164.2990
  22   2.0000      -6.035789      -164.2422
  23   2.0000      -6.033749      -164.1867
  24   2.0000      -1.000798       -27.2331
  25   2.0000      -0.979755       -26.6605
  26   2.0000      -0.919222       -25.0133
  27   2.0000      -0.905493       -24.6397
  28   2.0000      -0.869314       -23.6552
  29   2.0000      -0.849238       -23.1089
  30   2.0000      -0.842731       -22.9319
  31   2.0000      -0.814955       -22.1760
  32   2.0000      -0.788318       -21.4512
  33   2.0000      -0.773706       -21.0536
  34   2.0000      -0.712981       -19.4012
  35   2.0000      -0.702746       -19.1227
  36   2.0000      -0.691135       -18.8067
  37   2.0000      -0.659617       -17.9491
  38   2.0000      -0.640342       -17.4246
  39   2.0000      -0.624860       -17.0033
  40   2.0000      -0.592581       -16.1249
  41   2.0000      -0.570858       -15.5338
  42   2.0000      -0.562837       -15.3156
  43   2.0000      -0.559725       -15.2309
  44   2.0000      -0.535733       -14.5780
  45   2.0000      -0.521353       -14.1867
  46   2.0000      -0.519064       -14.1245
  47   2.0000      -0.508251       -13.8302
  48   2.0000      -0.502452       -13.6724
  49   2.0000      -0.491751       -13.3812
  50   2.0000      -0.489247       -13.3131
  51   2.0000      -0.486361       -13.2346
  52   2.0000      -0.475350       -12.9349
  53   2.0000      -0.463886       -12.6230
  54   2.0000      -0.456580       -12.4242
  55   2.0000      -0.455644       -12.3987
  56   2.0000      -0.443286       -12.0624
  57   2.0000      -0.439279       -11.9534
  58   2.0000      -0.438266       -11.9258
  59   2.0000      -0.430992       -11.7279
  60   2.0000      -0.428393       -11.6572
  61   2.0000      -0.411938       -11.2094
  62   2.0000      -0.408459       -11.1147
  63   2.0000      -0.352404        -9.5894
  64   2.0000      -0.334684        -9.1072
  65   2.0000      -0.332207        -9.0398
  66   2.0000      -0.282023        -7.6742
  67   0.0000       0.021857         0.5948
  68   0.0000       0.073443         1.9985
  69   0.0000       0.097208         2.6452
  70   0.0000       0.119857         3.2615
  71   0.0000       0.123091         3.3495

MULLIKEN ATOMIC CHARGES
-----------------------
   0 S :    0.104057
   1 C :   -0.118352
   2 C :   -0.076781
   3 C :    0.054622
   4 C :   -0.144775
   5 H :   -0.054419
   6 C :    0.121345
   7 H :    0.011790
   8 H :    0.026926
   9 C :   -0.121119
  10 H :    0.038653
  11 H :    0.038264
  12 C :   -0.051163
  13 H :    0.037701
  14 H :    0.021037
  15 H :    0.054014
  16 S :    0.108795
  17 C :   -0.039485
  18 C :   -0.054763
  19 C :   -0.083474
  20 C :   -0.131114
  21 H :    0.046602
  22 C :    0.057490
  23 H :    0.018430
  24 H :    0.001044
  25 C :   -0.051401
  26 H :    0.036897
  27 H :    0.021329
  28 C :   -0.022458
  29 H :    0.040683
  30 H :    0.032348
  31 H :    0.030541
  32 H :    0.033516
  33 H :    0.013221
Sum of atomic charges:    0.0000000

LOEWDIN ATOMIC CHARGES
----------------------
   0 S :    0.385569
   1 C :   -0.191129
   2 C :   -0.057332
   3 C :   -0.059091
   4 C :   -0.180411
   5 H :    0.009670
   6 C :   -0.025144
   7 H :    0.026378
   8 H :    0.033363
   9 C :   -0.044995
  10 H :    0.016871
  11 H :    0.038057
  12 C :   -0.069838
  13 H :    0.024865
  14 H :    0.025498
  15 H :    0.032392
  16 S :    0.391579
  17 C :   -0.160081
  18 C :   -0.073304
  19 C :   -0.053863
  20 C :   -0.197078
  21 H :    0.047166
  22 C :   -0.034826
  23 H :    0.030020
  24 H :    0.016146
  25 C :   -0.038910
  26 H :    0.028936
  27 H :    0.023869
  28 C :   -0.059402
  29 H :    0.035743
  30 H :    0.020405
  31 H :    0.024805
  32 H :    0.024538
  33 H :    0.009536

  Mayer bond orders larger than 0.100000
B(  0-S ,  1-C ) :   1.1144 B(  0-S ,  4-C ) :   1.1556 B(  1-C ,  2-C ) :   1.6407
B(  1-C , 32-H ) :   0.9605 B(  2-C ,  3-C ) :   1.2350 B(  2-C ,  6-C ) :   1.0032
B(  3-C ,  4-C ) :   1.5503 B(  3-C ,  5-H ) :   1.0050 B(  4-C , 20-C ) :   1.0589
B(  6-C ,  7-H ) :   0.9459 B(  6-C ,  8-H ) :   0.9227 B(  6-C ,  9-C ) :   1.0917
B(  9-C , 10-H ) :   0.9495 B(  9-C , 11-H ) :   0.9535 B(  9-C , 12-C ) :   1.0684
B( 12-C , 13-H ) :   0.9744 B( 12-C , 14-H ) :   0.9737 B( 12-C , 15-H ) :   0.9726
B( 16-S , 17-C ) :   1.1376 B( 16-S , 20-C ) :   1.1266 B( 17-C , 18-C ) :   1.6401
B( 17-C , 33-H ) :   0.9686 B( 18-C , 19-C ) :   1.2437 B( 18-C , 21-H ) :   0.9768
B( 19-C , 20-C ) :   1.5833 B( 19-C , 22-C ) :   1.0424 B( 22-C , 23-H ) :   0.9277
B( 22-C , 24-H ) :   0.9310 B( 22-C , 25-C ) :   1.0440 B( 25-C , 26-H ) :   0.9555
B( 25-C , 27-H ) :   0.9548 B( 25-C , 28-C ) :   1.0655 B( 28-C , 29-H ) :   0.9740
B( 28-C , 30-H ) :   0.9762 B( 28-C , 31-H ) :   0.9735

Dispersion correction           -0.015478317
FINAL SINGLE POINT ENERGY     -1339.859887399347

DIPOLE MOMENT
-------------
                                X             Y             Z
Electronic contribution:    -20.70118      16.53447     -17.21335
Nuclear contribution   :     21.38317     -16.87450      17.54943
                        -----------------------------------------
Total Dipole Moment    :      0.68199      -0.34003       0.33608
                        -----------------------------------------
Magnitude (a.u.)       :      0.83287
Magnitude (Debye)      :      2.11700

Rotational constants in cm-1:     0.017130     0.010880     0.007120
Rotational constants in MHz :   513.538225   326.181669   213.450790

                             ****ORCA TERMINATED NORMALLY****
TOTAL RUN TIME: 0 days 0 hours 0 minutes 22 seconds 720 msec
