                         Program Version 4.2.1 -  RELEASE  -
|  1> ! wB97X-D3 SP def2-SVP
|  2> %pal
|  3> nprocs 24
|  4> end
|  5>
|  6> * xyz 0 1
|  7> S 	 -108.034 	 -1.04383 	 -112.26
|  8> C 	 -109.05 	 0.32302 	 -112.452
|  9> C 	 -108.741 	 1.37454 	 -111.582
| 10> C 	 -107.863 	 0.964376 	 -110.565
| 11> C 	 -107.36 	 -0.299988 	 -110.722
| 12> H 	 -107.326 	 1.56199 	 -109.8
| 13> C 	 -109.301 	 2.78092 	 -111.53
| 14> H 	 -108.365 	 3.33765 	 -111.23
| 15> H 	 -110.116 	 3.01596 	 -110.854
| 16> C 	 -109.507 	 3.54938 	 -112.839
| 17> H 	 -108.485 	 3.38849 	 -113.303
| 18> H 	 -110.243 	 3.07736 	 -113.433
| 19> C 	 -109.762 	 5.06857 	 -112.758
| 20> H 	 -109.554 	 5.48663 	 -113.772
| 21> H 	 -110.861 	 5.37922 	 -112.484
| 22> H 	 -109.029 	 5.47864 	 -112.137
| 23> S 	 -106.638 	 -1.06627 	 -108.253
| 24> C 	 -105.111 	 -1.90174 	 -108.019
| 25> C 	 -104.377 	 -1.94455 	 -109.199
| 26> C 	 -105.148 	 -1.53042 	 -110.363
| 27> C 	 -106.323 	 -0.925946 	 -109.954
| 28> H 	 -103.286 	 -2.25997 	 -109.218
| 29> C 	 -104.609 	 -1.7367 	 -111.8
| 30> H 	 -105.425 	 -1.51019 	 -112.522
| 31> H 	 -104.615 	 -2.81232 	 -111.946
| 32> C 	 -103.243 	 -1.13321 	 -112.241
| 33> H 	 -103.26 	 -1.09753 	 -113.31
| 34> H 	 -102.483 	 -1.79702 	 -111.882
| 35> C 	 -103.045 	 0.321397 	 -111.693
| 36> H 	 -103.233 	 0.390824 	 -110.693
| 37> H 	 -103.475 	 1.1687 	 -112.306
| 38> H 	 -102.024 	 0.478458 	 -111.739
| 39> H 	 -109.736 	 0.340063 	 -113.19
| 40> H 	 -104.791 	 -1.99782 	 -106.976
| 41> *
| 42>
| 43>                          ****END OF INPUT****

CARTESIAN COORDINATES (ANGSTROEM)
---------------------------------
  S    -108.034000   -1.043830  -112.260000
  C    -109.050000    0.323020  -112.452000
  C    -108.741000    1.374540  -111.582000
  C    -107.863000    0.964376  -110.565000
  C    -107.360000   -0.299988  -110.722000
  H    -107.326000    1.561990  -109.800000
  C    -109.301000    2.780920  -111.530000
  H    -108.365000    3.337650  -111.230000
  H    -110.116000    3.015960  -110.854000
  C    -109.507000    3.549380  -112.839000
  H    -108.485000    3.388490  -113.303000
  H    -110.243000    3.077360  -113.433000
  C    -109.762000    5.068570  -112.758000
  H    -109.554000    5.486630  -113.772000
  H    -110.861000    5.379220  -112.484000
  H    -109.029000    5.478640  -112.137000
  S    -106.638000   -1.066270  -108.253000
  C    -105.111000   -1.901740  -108.019000
  C    -104.377000   -1.944550  -109.199000
  C    -105.148000   -1.530420  -110.363000
  C    -106.323000   -0.925946  -109.954000
  H    -103.286000   -2.259970  -109.218000
  C    -104.609000   -1.736700  -111.800000
  H    -105.425000   -1.510190  -112.522000
  H    -104.615000   -2.812320  -111.946000
  C    -103.243000   -1.133210  -112.241000
  H    -103.260000   -1.097530  -113.310000
  H    -102.483000   -1.797020  -111.882000
  C    -103.045000    0.321397  -111.693000
  H    -103.233000    0.390824  -110.693000
  H    -103.475000    1.168700  -112.306000
  H    -102.024000    0.478458  -111.739000
  H    -109.736000    0.340063  -113.190000
  H    -104.791000   -1.997820  -106.976000

 Total Charge           Charge          ....    0
 Multiplicity           Mult            ....    1
 Number of Electrons    NEL             ....  134
 Basis Dimension        Dim             ....  322

ORBITAL ENERGIES
----------------

  NO   OCC          E(Eh)            E(eV)
   0   2.0000     -88.966565     -2420.9033
   1   2.0000     -88.963719     -2420.8259
   2   2.0000     -10.328608      -281.0557
   3   2.0000     -10.323546      -280.9180
   4   2.0000     -10.319041      -280.7954
   5   2.0000     -10.308909      -280.5197
   6   2.0000     -10.307472      -280.4806
   7   2.0000     -10.304875      -280.4099
   8   2.0000     -10.303661      -280.3769
   9   2.0000     -10.293498      -280.1003
  10   2.0000     -10.292399      -280.0704
  11   2.0000     -10.292333      -280.0686
  12   2.0000     -10.289169      -279.9825
  13   2.0000     -10.287672      -279.9418
  14   2.0000     -10.285378      -279.8794
  15   2.0000     -10.266523      -279.3663
  16   2.0000      -8.080480      -219.8810
  17   2.0000      -8.078927      -219.8388
  18   2.0000      -6.038880      -164.3263
  19   2.0000      -6.037404      -164.2861
  20   2.0000      -6.035196      -164.2260
  21   2.0000      -6.033438      -164.1782
  22   2.0000      -6.031302      -164.1201
  23   2.0000      -6.029609      -164.0740
  24   2.0000      -1.005789       -27.3689
  25   2.0000      -0.982430       -26.7333
  26   2.0000      -0.909581       -24.7510
  27   2.0000      -0.901812       -24.5395
  28   2.0000      -0.872301       -23.7365
  29   2.0000      -0.854190       -23.2437
  30   2.0000      -0.844831       -22.9890
  31   2.0000      -0.810303       -22.0495
  32   2.0000      -0.786710       -21.4075
  33   2.0000      -0.770819       -20.9751
  34   2.0000      -0.711956       -19.3733
  35   2.0000      -0.698698       -19.0126
  36   2.0000      -0.688078       -18.7236
  37   2.0000      -0.663955       -18.0671
  38   2.0000      -0.643112       -17.5000
  39   2.0000      -0.610083       -16.6012
  40   2.0000      -0.594192       -16.1688
  41   2.0000      -0.577037       -15.7020
  42   2.0000      -0.559983       -15.2379
  43   2.0000      -0.553956       -15.0739
  44   2.0000      -0.542260       -14.7556
  45   2.0000      -0.521118       -14.1803
  46   2.0000      -0.515251       -14.0207
  47   2.0000      -0.506764       -13.7898
  48   2.0000      -0.502149       -13.6642
  49   2.0000      -0.496765       -13.5177
  50   2.0000      -0.491477       -13.3738
  51   2.0000      -0.476549       -12.9676
  52   2.0000      -0.472037       -12.8448
  53   2.0000      -0.465221       -12.6593
  54   2.0000      -0.458870       -12.4865
  55   2.0000      -0.447803       -12.1853
  56   2.0000      -0.443791       -12.0762
  57   2.0000      -0.435478       -11.8500
  58   2.0000      -0.430202       -11.7064
  59   2.0000      -0.423174       -11.5152
  60   2.0000      -0.417782       -11.3684
  61   2.0000      -0.414423       -11.2770
  62   2.0000      -0.404847       -11.0165
  63   2.0000      -0.352784        -9.5997
  64   2.0000      -0.333524        -9.0756
  65   2.0000      -0.326381        -8.8813
  66   2.0000      -0.287504        -7.8234
  67   0.0000       0.029648         0.8067
  68   0.0000       0.067759         1.8438
  69   0.0000       0.097023         2.6401
  70   0.0000       0.113794         3.0965
  71   0.0000       0.128969         3.5094

MULLIKEN ATOMIC CHARGES
-----------------------
   0 S :    0.100530
   1 C :   -0.070777
   2 C :   -0.052953
   3 C :   -0.000013
   4 C :   -0.131981
   5 H :    0.035946
   6 C :    0.039365
   7 H :    0.026461
   8 H :    0.050214
   9 C :   -0.119802
  10 H :    0.033145
  11 H :    0.021776
  12 C :   -0.045570
  13 H :    0.040758
  14 H :    0.054343
  15 H :    0.017603
  16 S :    0.105618
  17 C :   -0.108007
  18 C :   -0.051930
  19 C :   -0.068486
  20 C :   -0.170430
  21 H :    0.048787
  22 C :    0.059484
  23 H :    0.011392
  24 H :    0.030794
  25 C :   -0.052021
  26 H :    0.032584
  27 H :    0.029696
  28 C :   -0.005636
  29 H :    0.016726
  30 H :    0.046473
  31 H :    0.002313
  32 H :    0.002711
  33 H :    0.070886
Sum of atomic charges:   -0.0000000

LOEWDIN ATOMIC CHARGES
----------------------
   0 S :    0.394944
   1 C :   -0.178825
   2 C :   -0.066186
   3 C :   -0.064138
   4 C :   -0.165311
   5 H :    0.042291
   6 C :   -0.040239
   7 H :    0.040248
   8 H :    0.028445
   9 C :   -0.047972
  10 H :    0.031459
  11 H :    0.009009
  12 C :   -0.067614
  13 H :    0.034565
  14 H :    0.037995
  15 H :    0.014262
  16 S :    0.410376
  17 C :   -0.191904
  18 C :   -0.073042
  19 C :   -0.058517
  20 C :   -0.203470
  21 H :    0.042742
  22 C :   -0.044776
  23 H :    0.019341
  24 H :    0.033121
  25 C :   -0.026519
  26 H :    0.028106
  27 H :    0.020904
  28 C :   -0.057750
  29 H :    0.012614
  30 H :    0.037550
  31 H :    0.017497
  32 H :    0.001827
  33 H :    0.028966

  Mayer bond orders larger than 0.100000
B(  0-S ,  1-C ) :   1.1588 B(  0-S ,  4-C ) :   1.1113 B(  1-C ,  2-C ) :   1.5786
B(  1-C , 32-H ) :   0.9882 B(  2-C ,  3-C ) :   1.2474 B(  2-C ,  6-C ) :   1.0039
B(  3-C ,  4-C ) :   1.5997 B(  3-C ,  5-H ) :   0.9793 B(  4-C , 20-C ) :   1.0522
B(  6-C ,  7-H ) :   0.9516 B(  6-C ,  8-H ) :   0.9471 B(  6-C ,  9-C ) :   1.0425
B(  9-C , 10-H ) :   0.9659 B(  9-C , 11-H ) :   0.9546 B(  9-C , 12-C ) :   1.0852
B( 12-C , 13-H ) :   0.9731 B( 12-C , 14-H ) :   0.9718 B( 12-C , 15-H ) :   0.9722
B( 16-S , 17-C ) :   1.1425 B( 16-S , 20-C ) :   1.1530 B( 17-C , 18-C ) :   1.6213
B( 17-C , 33-H ) :   0.9653 B( 18-C , 19-C ) :   1.2127 B( 18-C , 21-H ) :   0.9771
B( 19-C , 20-C ) :   1.5960 B( 19-C , 22-C ) :   1.0376 B( 22-C , 23-H ) :   0.9251
B( 22-C , 24-H ) :   0.9331 B( 22-C , 25-C ) :   1.0630 B( 25-C , 26-H ) :   0.9555
B( 25-C , 27-H ) :   0.9566 B( 25-C , 28-C ) :   1.0871 B( 28-C , 29-H ) :   0.9695
B( 28-C , 30-H ) :   0.9762 B( 28-C , 31-H ) :   0.9694

Dispersion correction           -0.014193400
FINAL SINGLE POINT ENERGY     -1339.844559397749

DIPOLE MOMENT
-------------
                                X             Y             Z
Electronic contribution:     -5.82565     -19.08426      12.76327
Nuclear contribution   :      6.22364      19.47116     -12.99816
                        -----------------------------------------
Total Dipole Moment    :      0.39798       0.38690      -0.23489
                        -----------------------------------------
Magnitude (a.u.)       :      0.60271
Magnitude (Debye)      :      1.53196

Rotational constants in cm-1:     0.020657     0.007441     0.006748
Rotational constants in MHz :   619.291919   223.063806   202.309810

                             ****ORCA TERMINATED NORMALLY****
TOTAL RUN TIME: 0 days 0 hours 0 minutes 22 seconds 180 msec
