                         Program Version 4.2.1 -  RELEASE  -
|  1> ! wB97X-D3 SP def2-SVP
|  2> %pal
|  3> nprocs 24
|  4> end
|  5>
|  6> * xyz 0 1
|  7> S 	 -61.144 	 8.00272 	 -11.4103
|  8> C 	 -60.9284 	 6.2648 	 -11.3844
|  9> C 	 -61.9772 	 5.62817 	 -12.057
| 10> C 	 -62.9403 	 6.54445 	 -12.5768
| 11> C 	 -62.6171 	 7.87528 	 -12.3838
| 12> H 	 -63.861 	 6.40653 	 -13.0897
| 13> C 	 -62.1006 	 4.14721 	 -12.2331
| 14> H 	 -63.1044 	 3.89794 	 -12.5852
| 15> H 	 -62.0634 	 3.69215 	 -11.2388
| 16> C 	 -61.2097 	 3.609 	 -13.3475
| 17> H 	 -61.5594 	 4.01735 	 -14.3138
| 18> H 	 -60.1738 	 4.0252 	 -13.1334
| 19> C 	 -61.1311 	 2.14558 	 -13.4124
| 20> H 	 -62.0951 	 1.6575 	 -13.4215
| 21> H 	 -60.5534 	 1.67601 	 -14.215
| 22> H 	 -60.792 	 1.69603 	 -12.5235
| 23> S 	 -64.0293 	 10.1539 	 -11.4963
| 24> C 	 -64.9871 	 10.9735 	 -12.6718
| 25> C 	 -64.7507 	 10.5226 	 -13.9368
| 26> C 	 -63.8383 	 9.46219 	 -14.0215
| 27> C 	 -63.4049 	 9.0737 	 -12.805
| 28> H 	 -65.1874 	 10.9787 	 -14.7386
| 29> C 	 -63.4271 	 8.89867 	 -15.2724
| 30> H 	 -62.574 	 8.16881 	 -15.1184
| 31> H 	 -63.1204 	 9.73159 	 -15.9373
| 32> C 	 -64.6023 	 8.35831 	 -16.118
| 33> H 	 -64.3619 	 8.21827 	 -17.201
| 34> H 	 -65.5191 	 9.01184 	 -16.0372
| 35> C 	 -65.1511 	 7.00174 	 -15.7038
| 36> H 	 -64.4804 	 6.0618 	 -15.8597
| 37> H 	 -65.9829 	 6.71219 	 -16.3862
| 38> H 	 -65.615 	 6.95899 	 -14.6483
| 39> H 	 -60.1878 	 5.72779 	 -10.8824
| 40> H 	 -65.6233 	 11.832 	 -12.4807
| 41> *
| 42>
| 43>                          ****END OF INPUT****

CARTESIAN COORDINATES (ANGSTROEM)
---------------------------------
  S    -61.144000    8.002720  -11.410300
  C    -60.928400    6.264800  -11.384400
  C    -61.977200    5.628170  -12.057000
  C    -62.940300    6.544450  -12.576800
  C    -62.617100    7.875280  -12.383800
  H    -63.861000    6.406530  -13.089700
  C    -62.100600    4.147210  -12.233100
  H    -63.104400    3.897940  -12.585200
  H    -62.063400    3.692150  -11.238800
  C    -61.209700    3.609000  -13.347500
  H    -61.559400    4.017350  -14.313800
  H    -60.173800    4.025200  -13.133400
  C    -61.131100    2.145580  -13.412400
  H    -62.095100    1.657500  -13.421500
  H    -60.553400    1.676010  -14.215000
  H    -60.792000    1.696030  -12.523500
  S    -64.029300   10.153900  -11.496300
  C    -64.987100   10.973500  -12.671800
  C    -64.750700   10.522600  -13.936800
  C    -63.838300    9.462190  -14.021500
  C    -63.404900    9.073700  -12.805000
  H    -65.187400   10.978700  -14.738600
  C    -63.427100    8.898670  -15.272400
  H    -62.574000    8.168810  -15.118400
  H    -63.120400    9.731590  -15.937300
  C    -64.602300    8.358310  -16.118000
  H    -64.361900    8.218270  -17.201000
  H    -65.519100    9.011840  -16.037200
  C    -65.151100    7.001740  -15.703800
  H    -64.480400    6.061800  -15.859700
  H    -65.982900    6.712190  -16.386200
  H    -65.615000    6.958990  -14.648300
  H    -60.187800    5.727790  -10.882400
  H    -65.623300   11.832000  -12.480700

 Total Charge           Charge          ....    0
 Multiplicity           Mult            ....    1
 Number of Electrons    NEL             ....  134
 Basis Dimension        Dim             ....  322

ORBITAL ENERGIES
----------------

  NO   OCC          E(Eh)            E(eV)
   0   2.0000     -88.965400     -2420.8716
   1   2.0000     -88.963287     -2420.8141
   2   2.0000     -10.329666      -281.0845
   3   2.0000     -10.326236      -280.9912
   4   2.0000     -10.315810      -280.7075
   5   2.0000     -10.311679      -280.5950
   6   2.0000     -10.300890      -280.3015
   7   2.0000     -10.298528      -280.2372
   8   2.0000     -10.294161      -280.1184
   9   2.0000     -10.293770      -280.1077
  10   2.0000     -10.291357      -280.0421
  11   2.0000     -10.290388      -280.0157
  12   2.0000     -10.289080      -279.9801
  13   2.0000     -10.289016      -279.9784
  14   2.0000     -10.281644      -279.7778
  15   2.0000     -10.268456      -279.4189
  16   2.0000      -8.079543      -219.8556
  17   2.0000      -8.078006      -219.8137
  18   2.0000      -6.038043      -164.3035
  19   2.0000      -6.036449      -164.2601
  20   2.0000      -6.034050      -164.1948
  21   2.0000      -6.032681      -164.1576
  22   2.0000      -6.030442      -164.0967
  23   2.0000      -6.028664      -164.0483
  24   2.0000      -1.007470       -27.4146
  25   2.0000      -0.985349       -26.8127
  26   2.0000      -0.917555       -24.9679
  27   2.0000      -0.916886       -24.9497
  28   2.0000      -0.868525       -23.6338
  29   2.0000      -0.854527       -23.2529
  30   2.0000      -0.849185       -23.1075
  31   2.0000      -0.818205       -22.2645
  32   2.0000      -0.784477       -21.3467
  33   2.0000      -0.773540       -21.0491
  34   2.0000      -0.702518       -19.1165
  35   2.0000      -0.701586       -19.0911
  36   2.0000      -0.693915       -18.8824
  37   2.0000      -0.663372       -18.0513
  38   2.0000      -0.648482       -17.6461
  39   2.0000      -0.613387       -16.6911
  40   2.0000      -0.601132       -16.3576
  41   2.0000      -0.575838       -15.6693
  42   2.0000      -0.560992       -15.2654
  43   2.0000      -0.553798       -15.0696
  44   2.0000      -0.542253       -14.7555
  45   2.0000      -0.530647       -14.4396
  46   2.0000      -0.521432       -14.1889
  47   2.0000      -0.516478       -14.0541
  48   2.0000      -0.507815       -13.8184
  49   2.0000      -0.499018       -13.5790
  50   2.0000      -0.490888       -13.3577
  51   2.0000      -0.483305       -13.1514
  52   2.0000      -0.468065       -12.7367
  53   2.0000      -0.462802       -12.5935
  54   2.0000      -0.460334       -12.5263
  55   2.0000      -0.445910       -12.1338
  56   2.0000      -0.441531       -12.0147
  57   2.0000      -0.435302       -11.8452
  58   2.0000      -0.430572       -11.7165
  59   2.0000      -0.426545       -11.6069
  60   2.0000      -0.420392       -11.4395
  61   2.0000      -0.417691       -11.3660
  62   2.0000      -0.404660       -11.0114
  63   2.0000      -0.340947        -9.2776
  64   2.0000      -0.331041        -9.0081
  65   2.0000      -0.328824        -8.9478
  66   2.0000      -0.297045        -8.0830
  67   0.0000       0.035449         0.9646
  68   0.0000       0.064958         1.7676
  69   0.0000       0.113439         3.0868
  70   0.0000       0.123041         3.3481
  71   0.0000       0.129880         3.5342

MULLIKEN ATOMIC CHARGES
-----------------------
   0 S :    0.107663
   1 C :   -0.086892
   2 C :   -0.093908
   3 C :    0.074080
   4 C :   -0.188663
   5 H :   -0.020779
   6 C :    0.054356
   7 H :    0.010048
   8 H :    0.035896
   9 C :   -0.069417
  10 H :    0.033342
  11 H :    0.031503
  12 C :    0.007579
  13 H :    0.003500
  14 H :    0.037588
  15 H :    0.000586
  16 S :    0.103349
  17 C :   -0.073429
  18 C :   -0.014136
  19 C :    0.013084
  20 C :   -0.178239
  21 H :   -0.023796
  22 C :    0.085809
  23 H :    0.053709
  24 H :    0.036102
  25 C :   -0.112089
  26 H :    0.042737
  27 H :    0.046480
  28 C :   -0.131446
  29 H :    0.041493
  30 H :    0.032214
  31 H :    0.060841
  32 H :    0.024963
  33 H :    0.055872
Sum of atomic charges:   -0.0000000

LOEWDIN ATOMIC CHARGES
----------------------
   0 S :    0.398016
   1 C :   -0.188766
   2 C :   -0.059307
   3 C :   -0.058610
   4 C :   -0.188814
   5 H :    0.027490
   6 C :   -0.036228
   7 H :    0.028939
   8 H :    0.033008
   9 C :   -0.040587
  10 H :    0.029380
  11 H :    0.027377
  12 C :   -0.072186
  13 H :    0.023163
  14 H :    0.030302
  15 H :    0.019223
  16 S :    0.386451
  17 C :   -0.177511
  18 C :   -0.065216
  19 C :   -0.061389
  20 C :   -0.180188
  21 H :    0.014375
  22 C :   -0.036202
  23 H :    0.043751
  24 H :    0.043943
  25 C :   -0.048991
  26 H :    0.031198
  27 H :    0.034521
  28 C :   -0.093139
  29 H :    0.029064
  30 H :    0.027322
  31 H :    0.030024
  32 H :    0.017645
  33 H :    0.031946

  Mayer bond orders larger than 0.100000
B(  0-S ,  1-C ) :   1.1414 B(  0-S ,  4-C ) :   1.1517 B(  1-C ,  2-C ) :   1.5936
B(  1-C ,  4-C ) :   0.1007 B(  1-C , 32-H ) :   0.9771 B(  2-C ,  3-C ) :   1.2351
B(  2-C ,  6-C ) :   1.0307 B(  3-C ,  4-C ) :   1.5831 B(  3-C ,  5-H ) :   0.9976
B(  4-C , 20-C ) :   1.0035 B(  6-C ,  7-H ) :   0.9348 B(  6-C ,  8-H ) :   0.9428
B(  6-C ,  9-C ) :   1.0521 B(  9-C , 10-H ) :   0.9513 B(  9-C , 11-H ) :   0.9594
B(  9-C , 12-C ) :   1.0937 B( 12-C , 13-H ) :   0.9604 B( 12-C , 14-H ) :   0.9714
B( 12-C , 15-H ) :   0.9646 B( 16-S , 17-C ) :   1.1537 B( 16-S , 20-C ) :   1.1172
B( 17-C , 18-C ) :   1.6252 B( 17-C , 33-H ) :   0.9637 B( 18-C , 19-C ) :   1.2067
B( 18-C , 21-H ) :   1.0030 B( 19-C , 20-C ) :   1.6236 B( 19-C , 22-C ) :   1.0740
B( 22-C , 23-H ) :   0.9345 B( 22-C , 24-H ) :   0.9154 B( 22-C , 25-C ) :   1.0445
B( 25-C , 26-H ) :   0.9557 B( 25-C , 27-H ) :   0.9548 B( 25-C , 28-C ) :   1.0765
B( 28-C , 29-H ) :   0.9710 B( 28-C , 30-H ) :   0.9687 B( 28-C , 31-H ) :   0.9648

Dispersion correction           -0.014740831
FINAL SINGLE POINT ENERGY     -1339.872121221664

DIPOLE MOMENT
-------------
                                X             Y             Z
Electronic contribution:      3.12591      24.27662      18.64846
Nuclear contribution   :     -3.42956     -24.61555     -19.21638
                        -----------------------------------------
Total Dipole Moment    :     -0.30365      -0.33892      -0.56792
                        -----------------------------------------
Magnitude (a.u.)       :      0.72774
Magnitude (Debye)      :      1.84977

Rotational constants in cm-1:     0.020260     0.008670     0.006585
Rotational constants in MHz :   607.370603   259.912372   197.407700

                             ****ORCA TERMINATED NORMALLY****
TOTAL RUN TIME: 0 days 0 hours 0 minutes 22 seconds 113 msec
