                         Program Version 4.2.1 -  RELEASE  -
|  1> ! wB97X-D3 SP def2-SVP
|  2> %pal
|  3> nprocs 24
|  4> end
|  5>
|  6> * xyz 0 1
|  7> S 	 -45.4142 	 -1.42488 	 -8.12683
|  8> C 	 -47.0767 	 -1.10127 	 -7.621
|  9> C 	 -47.914 	 -1.02572 	 -8.70402
| 10> C 	 -47.2299 	 -1.08975 	 -9.96664
| 11> C 	 -45.8652 	 -1.29829 	 -9.8323
| 12> H 	 -47.732 	 -0.994739 	 -10.9426
| 13> C 	 -49.4097 	 -0.804832 	 -8.53351
| 14> H 	 -49.763 	 0.0695903 	 -9.14592
| 15> H 	 -49.6182 	 -0.42988 	 -7.52407
| 16> C 	 -50.2799 	 -1.96926 	 -8.76788
| 17> H 	 -49.9743 	 -2.65269 	 -8.05181
| 18> H 	 -51.353 	 -1.8339 	 -8.47754
| 19> C 	 -49.9648 	 -2.45763 	 -10.1984
| 20> H 	 -50.661 	 -3.31272 	 -10.3644
| 21> H 	 -50.1816 	 -1.73602 	 -11.0534
| 22> H 	 -49.0344 	 -2.96018 	 -10.2692
| 23> S 	 -43.4657 	 -0.412997 	 -10.8282
| 24> C 	 -42.8238 	 -0.857295 	 -12.3084
| 25> C 	 -43.7461 	 -1.71356 	 -12.9434
| 26> C 	 -44.9181 	 -1.92727 	 -12.2169
| 27> C 	 -44.8789 	 -1.46496 	 -10.8919
| 28> H 	 -43.3501 	 -2.01284 	 -13.9301
| 29> C 	 -46.0971 	 -2.65297 	 -12.7762
| 30> H 	 -46.6857 	 -3.13301 	 -11.9796
| 31> H 	 -45.7011 	 -3.54368 	 -13.305
| 32> C 	 -46.9431 	 -1.71635 	 -13.7035
| 33> H 	 -46.2166 	 -1.41422 	 -14.4547
| 34> H 	 -47.2976 	 -0.821735 	 -13.1266
| 35> C 	 -48.1529 	 -2.47821 	 -14.3292
| 36> H 	 -47.8025 	 -3.42494 	 -14.7614
| 37> H 	 -48.748 	 -1.90364 	 -14.9832
| 38> H 	 -48.8343 	 -2.72183 	 -13.5162
| 39> H 	 -47.4339 	 -0.839897 	 -6.67048
| 40> H 	 -41.9005 	 -0.499433 	 -12.7105
| 41> *
| 42>
| 43>                          ****END OF INPUT****

CARTESIAN COORDINATES (ANGSTROEM)
---------------------------------
  S    -45.414200   -1.424880   -8.126830
  C    -47.076700   -1.101270   -7.621000
  C    -47.914000   -1.025720   -8.704020
  C    -47.229900   -1.089750   -9.966640
  C    -45.865200   -1.298290   -9.832300
  H    -47.732000   -0.994739  -10.942600
  C    -49.409700   -0.804832   -8.533510
  H    -49.763000    0.069590   -9.145920
  H    -49.618200   -0.429880   -7.524070
  C    -50.279900   -1.969260   -8.767880
  H    -49.974300   -2.652690   -8.051810
  H    -51.353000   -1.833900   -8.477540
  C    -49.964800   -2.457630  -10.198400
  H    -50.661000   -3.312720  -10.364400
  H    -50.181600   -1.736020  -11.053400
  H    -49.034400   -2.960180  -10.269200
  S    -43.465700   -0.412997  -10.828200
  C    -42.823800   -0.857295  -12.308400
  C    -43.746100   -1.713560  -12.943400
  C    -44.918100   -1.927270  -12.216900
  C    -44.878900   -1.464960  -10.891900
  H    -43.350100   -2.012840  -13.930100
  C    -46.097100   -2.652970  -12.776200
  H    -46.685700   -3.133010  -11.979600
  H    -45.701100   -3.543680  -13.305000
  C    -46.943100   -1.716350  -13.703500
  H    -46.216600   -1.414220  -14.454700
  H    -47.297600   -0.821735  -13.126600
  C    -48.152900   -2.478210  -14.329200
  H    -47.802500   -3.424940  -14.761400
  H    -48.748000   -1.903640  -14.983200
  H    -48.834300   -2.721830  -13.516200
  H    -47.433900   -0.839897   -6.670480
  H    -41.900500   -0.499433  -12.710500

 Total Charge           Charge          ....    0
 Multiplicity           Mult            ....    1
 Number of Electrons    NEL             ....  134
 Basis Dimension        Dim             ....  322

ORBITAL ENERGIES
----------------

  NO   OCC          E(Eh)            E(eV)
   0   2.0000     -88.967117     -2420.9183
   1   2.0000     -88.961333     -2420.7609
   2   2.0000     -10.334694      -281.2213
   3   2.0000     -10.327040      -281.0131
   4   2.0000     -10.315410      -280.6966
   5   2.0000     -10.311350      -280.5861
   6   2.0000     -10.305450      -280.4255
   7   2.0000     -10.300622      -280.2942
   8   2.0000     -10.298112      -280.2259
   9   2.0000     -10.295709      -280.1605
  10   2.0000     -10.295377      -280.1514
  11   2.0000     -10.291933      -280.0577
  12   2.0000     -10.289117      -279.9811
  13   2.0000     -10.282205      -279.7930
  14   2.0000     -10.282111      -279.7905
  15   2.0000     -10.278932      -279.7040
  16   2.0000      -8.081157      -219.8994
  17   2.0000      -8.077423      -219.7978
  18   2.0000      -6.039842      -164.3524
  19   2.0000      -6.035790      -164.2422
  20   2.0000      -6.035631      -164.2379
  21   2.0000      -6.031730      -164.1317
  22   2.0000      -6.031389      -164.1224
  23   2.0000      -6.028738      -164.0503
  24   2.0000      -1.010768       -27.5044
  25   2.0000      -0.987366       -26.8676
  26   2.0000      -0.921443       -25.0737
  27   2.0000      -0.909311       -24.7436
  28   2.0000      -0.871429       -23.7128
  29   2.0000      -0.851732       -23.1768
  30   2.0000      -0.839122       -22.8337
  31   2.0000      -0.816086       -22.2068
  32   2.0000      -0.783769       -21.3274
  33   2.0000      -0.774105       -21.0645
  34   2.0000      -0.708420       -19.2771
  35   2.0000      -0.703305       -19.1379
  36   2.0000      -0.700553       -19.0630
  37   2.0000      -0.659472       -17.9452
  38   2.0000      -0.638629       -17.3780
  39   2.0000      -0.620701       -16.8901
  40   2.0000      -0.596440       -16.2300
  41   2.0000      -0.578067       -15.7300
  42   2.0000      -0.563800       -15.3418
  43   2.0000      -0.549659       -14.9570
  44   2.0000      -0.548152       -14.9160
  45   2.0000      -0.525373       -14.2961
  46   2.0000      -0.521042       -14.1783
  47   2.0000      -0.513766       -13.9803
  48   2.0000      -0.511377       -13.9153
  49   2.0000      -0.501446       -13.6450
  50   2.0000      -0.495144       -13.4736
  51   2.0000      -0.478564       -13.0224
  52   2.0000      -0.471622       -12.8335
  53   2.0000      -0.466449       -12.6927
  54   2.0000      -0.458930       -12.4881
  55   2.0000      -0.442128       -12.0309
  56   2.0000      -0.440466       -11.9857
  57   2.0000      -0.439816       -11.9680
  58   2.0000      -0.434597       -11.8260
  59   2.0000      -0.426285       -11.5998
  60   2.0000      -0.419196       -11.4069
  61   2.0000      -0.409521       -11.1436
  62   2.0000      -0.406132       -11.0514
  63   2.0000      -0.349183        -9.5018
  64   2.0000      -0.332126        -9.0376
  65   2.0000      -0.328736        -8.9454
  66   2.0000      -0.291703        -7.9377
  67   0.0000       0.024269         0.6604
  68   0.0000       0.074905         2.0383
  69   0.0000       0.116302         3.1647
  70   0.0000       0.118370         3.2210
  71   0.0000       0.123559         3.3622

MULLIKEN ATOMIC CHARGES
-----------------------
   0 S :    0.109963
   1 C :   -0.082978
   2 C :   -0.113752
   3 C :    0.028349
   4 C :   -0.133943
   5 H :    0.005398
   6 C :    0.039578
   7 H :    0.033548
   8 H :    0.003772
   9 C :   -0.008437
  10 H :    0.002284
  11 H :    0.038301
  12 C :   -0.097375
  13 H :    0.024438
  14 H :    0.053116
  15 H :    0.052049
  16 S :    0.101650
  17 C :   -0.090771
  18 C :   -0.062233
  19 C :   -0.032878
  20 C :   -0.111739
  21 H :    0.026910
  22 C :    0.021393
  23 H :    0.023865
  24 H :    0.028197
  25 C :   -0.094498
  26 H :    0.031477
  27 H :    0.045335
  28 C :   -0.004549
  29 H :    0.033478
  30 H :    0.030116
  31 H :    0.019170
  32 H :    0.025282
  33 H :    0.055482
Sum of atomic charges:   -0.0000000

LOEWDIN ATOMIC CHARGES
----------------------
   0 S :    0.391608
   1 C :   -0.182288
   2 C :   -0.059591
   3 C :   -0.061536
   4 C :   -0.187245
   5 H :    0.033800
   6 C :   -0.038506
   7 H :    0.030350
   8 H :    0.024314
   9 C :   -0.041457
  10 H :    0.018009
  11 H :    0.032443
  12 C :   -0.072866
  13 H :    0.028476
  14 H :    0.032568
  15 H :    0.024824
  16 S :    0.443131
  17 C :   -0.202043
  18 C :   -0.087764
  19 C :   -0.055950
  20 C :   -0.205435
  21 H :    0.038047
  22 C :   -0.038527
  23 H :    0.027005
  24 H :    0.033015
  25 C :   -0.034809
  26 H :    0.023619
  27 H :    0.026705
  28 C :   -0.061769
  29 H :    0.028180
  30 H :    0.019494
  31 H :    0.025323
  32 H :    0.020361
  33 H :    0.028515

  Mayer bond orders larger than 0.100000
B(  0-S ,  1-C ) :   1.1195 B(  0-S ,  4-C ) :   1.1450 B(  1-C ,  2-C ) :   1.6443
B(  1-C , 32-H ) :   0.9677 B(  2-C ,  3-C ) :   1.2304 B(  2-C ,  6-C ) :   1.0163
B(  3-C ,  4-C ) :   1.5663 B(  3-C ,  5-H ) :   0.9863 B(  4-C , 20-C ) :   1.0324
B(  6-C ,  7-H ) :   0.9460 B(  6-C ,  8-H ) :   0.9372 B(  6-C ,  9-C ) :   1.0763
B(  9-C , 10-H ) :   0.9387 B(  9-C , 11-H ) :   0.9540 B(  9-C , 12-C ) :   1.0872
B( 12-C , 13-H ) :   0.9670 B( 12-C , 14-H ) :   0.9706 B( 12-C , 15-H ) :   0.9629
B( 16-S , 17-C ) :   1.2212 B( 16-S , 20-C ) :   1.1551 B( 17-C , 18-C ) :   1.5221
B( 17-C , 20-C ) :   0.1161 B( 17-C , 33-H ) :   0.9726 B( 18-C , 19-C ) :   1.2775
B( 18-C , 21-H ) :   1.0001 B( 19-C , 20-C ) :   1.5308 B( 19-C , 22-C ) :   1.0482
B( 22-C , 23-H ) :   0.9401 B( 22-C , 24-H ) :   0.9374 B( 22-C , 25-C ) :   1.0413
B( 25-C , 26-H ) :   0.9564 B( 25-C , 27-H ) :   0.9533 B( 25-C , 28-C ) :   1.0761
B( 28-C , 29-H ) :   0.9733 B( 28-C , 30-H ) :   0.9753 B( 28-C , 31-H ) :   0.9720

Dispersion correction           -0.015643371
FINAL SINGLE POINT ENERGY     -1339.867596073666

DIPOLE MOMENT
-------------
                                X             Y             Z
Electronic contribution:     27.00664       7.45127      13.52061
Nuclear contribution   :    -27.53663      -7.51776     -13.94808
                        -----------------------------------------
Total Dipole Moment    :     -0.52999      -0.06648      -0.42747
                        -----------------------------------------
Magnitude (a.u.)       :      0.68413
Magnitude (Debye)      :      1.73892

Rotational constants in cm-1:     0.017553     0.010826     0.007058
Rotational constants in MHz :   526.210855   324.544379   211.596430

                             ****ORCA TERMINATED NORMALLY****
TOTAL RUN TIME: 0 days 0 hours 0 minutes 23 seconds 13 msec
