                         Program Version 4.2.1 -  RELEASE  -
|  1> ! wB97X-D3 SP def2-SVP
|  2> %pal
|  3> nprocs 24
|  4> end
|  5>
|  6> * xyz 0 1
|  7> S 	 -96.1025 	 5.05893 	 -2.3856
|  8> C 	 -97.2605 	 6.24363 	 -2.98013
|  9> C 	 -96.6208 	 7.32551 	 -3.57763
| 10> C 	 -95.2242 	 7.13278 	 -3.60068
| 11> C 	 -94.7496 	 5.91691 	 -3.11065
| 12> H 	 -94.617 	 7.74002 	 -4.19151
| 13> C 	 -97.2024 	 8.5457 	 -4.2287
| 14> H 	 -96.6647 	 9.49053 	 -3.95156
| 15> H 	 -98.1329 	 8.69985 	 -3.74077
| 16> C 	 -97.3448 	 8.65184 	 -5.78711
| 17> H 	 -96.3596 	 8.58454 	 -6.27263
| 18> H 	 -97.796 	 7.75762 	 -6.20801
| 19> C 	 -98.1662 	 9.90173 	 -6.26647
| 20> H 	 -99.0604 	 9.99927 	 -5.70651
| 21> H 	 -97.5413 	 10.8367 	 -6.2917
| 22> H 	 -98.4476 	 9.69531 	 -7.29453
| 23> S 	 -93.3448 	 3.58344 	 -3.58446
| 24> C 	 -91.6743 	 3.6329 	 -3.98698
| 25> C 	 -91.1648 	 4.88646 	 -3.67282
| 26> C 	 -92.143 	 5.745 	 -3.0797
| 27> C 	 -93.4151 	 5.29063 	 -3.21971
| 28> H 	 -90.1496 	 5.12131 	 -3.9753
| 29> C 	 -91.6982 	 7.1117 	 -2.63231
| 30> H 	 -92.5567 	 7.70306 	 -2.58006
| 31> H 	 -91.0178 	 7.68815 	 -3.31898
| 32> C 	 -90.9786 	 7.0212 	 -1.29212
| 33> H 	 -90.069 	 6.50975 	 -1.32011
| 34> H 	 -91.737 	 6.41 	 -0.692226
| 35> C 	 -90.7175 	 8.34846 	 -0.600099
| 36> H 	 -91.6012 	 9.01882 	 -0.546557
| 37> H 	 -89.8235 	 8.85986 	 -1.04717
| 38> H 	 -90.4104 	 8.15587 	 0.451655
| 39> H 	 -98.2785 	 6.03253 	 -3.11924
| 40> H 	 -91.0795 	 2.80446 	 -4.40114
| 41> *
| 42>
| 43>                          ****END OF INPUT****

CARTESIAN COORDINATES (ANGSTROEM)
---------------------------------
  S    -96.102500    5.058930   -2.385600
  C    -97.260500    6.243630   -2.980130
  C    -96.620800    7.325510   -3.577630
  C    -95.224200    7.132780   -3.600680
  C    -94.749600    5.916910   -3.110650
  H    -94.617000    7.740020   -4.191510
  C    -97.202400    8.545700   -4.228700
  H    -96.664700    9.490530   -3.951560
  H    -98.132900    8.699850   -3.740770
  C    -97.344800    8.651840   -5.787110
  H    -96.359600    8.584540   -6.272630
  H    -97.796000    7.757620   -6.208010
  C    -98.166200    9.901730   -6.266470
  H    -99.060400    9.999270   -5.706510
  H    -97.541300   10.836700   -6.291700
  H    -98.447600    9.695310   -7.294530
  S    -93.344800    3.583440   -3.584460
  C    -91.674300    3.632900   -3.986980
  C    -91.164800    4.886460   -3.672820
  C    -92.143000    5.745000   -3.079700
  C    -93.415100    5.290630   -3.219710
  H    -90.149600    5.121310   -3.975300
  C    -91.698200    7.111700   -2.632310
  H    -92.556700    7.703060   -2.580060
  H    -91.017800    7.688150   -3.318980
  C    -90.978600    7.021200   -1.292120
  H    -90.069000    6.509750   -1.320110
  H    -91.737000    6.410000   -0.692226
  C    -90.717500    8.348460   -0.600099
  H    -91.601200    9.018820   -0.546557
  H    -89.823500    8.859860   -1.047170
  H    -90.410400    8.155870    0.451655
  H    -98.278500    6.032530   -3.119240
  H    -91.079500    2.804460   -4.401140

 Total Charge           Charge          ....    0
 Multiplicity           Mult            ....    1
 Number of Electrons    NEL             ....  134
 Basis Dimension        Dim             ....  322

ORBITAL ENERGIES
----------------

  NO   OCC          E(Eh)            E(eV)
   0   2.0000     -88.966725     -2420.9077
   1   2.0000     -88.962704     -2420.7983
   2   2.0000     -10.335999      -281.2568
   3   2.0000     -10.329263      -281.0735
   4   2.0000     -10.318713      -280.7865
   5   2.0000     -10.313112      -280.6340
   6   2.0000     -10.301875      -280.3283
   7   2.0000     -10.301659      -280.3224
   8   2.0000     -10.294075      -280.1160
   9   2.0000     -10.293582      -280.1026
  10   2.0000     -10.293093      -280.0893
  11   2.0000     -10.288235      -279.9571
  12   2.0000     -10.285164      -279.8735
  13   2.0000     -10.284446      -279.8540
  14   2.0000     -10.282329      -279.7964
  15   2.0000     -10.281890      -279.7845
  16   2.0000      -8.081205      -219.9008
  17   2.0000      -8.078377      -219.8238
  18   2.0000      -6.039787      -164.3510
  19   2.0000      -6.036906      -164.2726
  20   2.0000      -6.035687      -164.2394
  21   2.0000      -6.032765      -164.1599
  22   2.0000      -6.031969      -164.1382
  23   2.0000      -6.029021      -164.0580
  24   2.0000      -1.011108       -27.5136
  25   2.0000      -0.987928       -26.8829
  26   2.0000      -0.912614       -24.8335
  27   2.0000      -0.906160       -24.6579
  28   2.0000      -0.868138       -23.6232
  29   2.0000      -0.853056       -23.2128
  30   2.0000      -0.845439       -23.0056
  31   2.0000      -0.815947       -22.2031
  32   2.0000      -0.781822       -21.2745
  33   2.0000      -0.774255       -21.0685
  34   2.0000      -0.708433       -19.2774
  35   2.0000      -0.701109       -19.0781
  36   2.0000      -0.693463       -18.8701
  37   2.0000      -0.662058       -18.0155
  38   2.0000      -0.643675       -17.5153
  39   2.0000      -0.627623       -17.0785
  40   2.0000      -0.599133       -16.3032
  41   2.0000      -0.571732       -15.5576
  42   2.0000      -0.567682       -15.4474
  43   2.0000      -0.554017       -15.0756
  44   2.0000      -0.532635       -14.4937
  45   2.0000      -0.520258       -14.1569
  46   2.0000      -0.514453       -13.9990
  47   2.0000      -0.511810       -13.9271
  48   2.0000      -0.504640       -13.7320
  49   2.0000      -0.503791       -13.7089
  50   2.0000      -0.496894       -13.5212
  51   2.0000      -0.478737       -13.0271
  52   2.0000      -0.470684       -12.8080
  53   2.0000      -0.466186       -12.6856
  54   2.0000      -0.462628       -12.5888
  55   2.0000      -0.447251       -12.1703
  56   2.0000      -0.444278       -12.0894
  57   2.0000      -0.441617       -12.0170
  58   2.0000      -0.434575       -11.8254
  59   2.0000      -0.426110       -11.5950
  60   2.0000      -0.417548       -11.3621
  61   2.0000      -0.412190       -11.2163
  62   2.0000      -0.404781       -11.0147
  63   2.0000      -0.349118        -9.5000
  64   2.0000      -0.332207        -9.0398
  65   2.0000      -0.328182        -8.9303
  66   2.0000      -0.291288        -7.9264
  67   0.0000       0.021998         0.5986
  68   0.0000       0.073060         1.9881
  69   0.0000       0.105105         2.8600
  70   0.0000       0.119753         3.2586
  71   0.0000       0.135314         3.6821

MULLIKEN ATOMIC CHARGES
-----------------------
   0 S :    0.100224
   1 C :   -0.104737
   2 C :   -0.081165
   3 C :    0.049821
   4 C :   -0.142901
   5 H :   -0.008569
   6 C :    0.053760
   7 H :    0.032721
   8 H :    0.006912
   9 C :   -0.076622
  10 H :    0.026778
  11 H :    0.021892
  12 C :   -0.048165
  13 H :    0.031948
  14 H :    0.047722
  15 H :    0.033348
  16 S :    0.100815
  17 C :   -0.096821
  18 C :   -0.041958
  19 C :   -0.045103
  20 C :   -0.129494
  21 H :    0.024705
  22 C :    0.103188
  23 H :   -0.011385
  24 H :    0.026552
  25 C :   -0.096915
  26 H :    0.022702
  27 H :    0.039500
  28 C :   -0.058817
  29 H :    0.040361
  30 H :    0.035014
  31 H :    0.036874
  32 H :    0.037812
  33 H :    0.070002
Sum of atomic charges:   -0.0000000

LOEWDIN ATOMIC CHARGES
----------------------
   0 S :    0.397797
   1 C :   -0.187536
   2 C :   -0.059472
   3 C :   -0.059412
   4 C :   -0.182037
   5 H :    0.019171
   6 C :   -0.039505
   7 H :    0.039120
   8 H :    0.024047
   9 C :   -0.041194
  10 H :    0.024453
  11 H :    0.020693
  12 C :   -0.061793
  13 H :    0.020458
  14 H :    0.032445
  15 H :    0.029180
  16 S :    0.413188
  17 C :   -0.193599
  18 C :   -0.071015
  19 C :   -0.055963
  20 C :   -0.197692
  21 H :    0.031983
  22 C :   -0.030885
  23 H :    0.017137
  24 H :    0.031097
  25 C :   -0.040948
  26 H :    0.015892
  27 H :    0.033612
  28 C :   -0.072929
  29 H :    0.027293
  30 H :    0.027989
  31 H :    0.030919
  32 H :    0.019444
  33 H :    0.038065

  Mayer bond orders larger than 0.100000
B(  0-S ,  1-C ) :   1.1389 B(  0-S ,  4-C ) :   1.1518 B(  1-C ,  2-C ) :   1.5976
B(  1-C ,  4-C ) :   0.1015 B(  1-C , 32-H ) :   0.9712 B(  2-C ,  3-C ) :   1.2663
B(  2-C ,  6-C ) :   1.0331 B(  3-C ,  4-C ) :   1.5629 B(  3-C ,  5-H ) :   0.9987
B(  4-C , 20-C ) :   1.0423 B(  6-C ,  7-H ) :   0.9415 B(  6-C ,  8-H ) :   0.9364
B(  6-C ,  9-C ) :   1.0497 B(  9-C , 10-H ) :   0.9543 B(  9-C , 11-H ) :   0.9591
B(  9-C , 12-C ) :   1.0749 B( 12-C , 13-H ) :   0.9774 B( 12-C , 14-H ) :   0.9774
B( 12-C , 15-H ) :   0.9752 B( 16-S , 17-C ) :   1.1627 B( 16-S , 20-C ) :   1.1270
B( 17-C , 18-C ) :   1.6041 B( 17-C , 33-H ) :   0.9667 B( 18-C , 19-C ) :   1.2129
B( 18-C , 21-H ) :   0.9945 B( 19-C , 20-C ) :   1.5988 B( 19-C , 22-C ) :   1.0581
B( 22-C , 23-H ) :   0.9255 B( 22-C , 24-H ) :   0.9393 B( 22-C , 25-C ) :   1.0501
B( 25-C , 26-H ) :   0.9577 B( 25-C , 27-H ) :   0.9547 B( 25-C , 28-C ) :   1.0935
B( 28-C , 29-H ) :   0.9738 B( 28-C , 30-H ) :   0.9706 B( 28-C , 31-H ) :   0.9725

Dispersion correction           -0.013301084
FINAL SINGLE POINT ENERGY     -1339.867271448635

DIPOLE MOMENT
-------------
                                X             Y             Z
Electronic contribution:     -1.95132     -26.15347       3.64491
Nuclear contribution   :      2.15561      26.66138      -4.07781
                        -----------------------------------------
Total Dipole Moment    :      0.20429       0.50791      -0.43290
                        -----------------------------------------
Magnitude (a.u.)       :      0.69793
Magnitude (Debye)      :      1.77400

Rotational constants in cm-1:     0.017692     0.007560     0.006412
Rotational constants in MHz :   530.386832   226.629972   192.235931

                             ****ORCA TERMINATED NORMALLY****
TOTAL RUN TIME: 0 days 0 hours 0 minutes 20 seconds 836 msec
