                         Program Version 4.2.1 -  RELEASE  -
|  1> ! wB97X-D3 SP def2-SVP
|  2> %pal
|  3> nprocs 24
|  4> end
|  5>
|  6> * xyz 0 1
|  7> S 	 -116.613 	 28.6752 	 -21.085
|  8> C 	 -116.686 	 28.0515 	 -22.7252
|  9> C 	 -116.735 	 29.1297 	 -23.5803
| 10> C 	 -116.819 	 30.4021 	 -22.9736
| 11> C 	 -116.827 	 30.3268 	 -21.5926
| 12> H 	 -116.94 	 31.3295 	 -23.437
| 13> C 	 -116.732 	 29.0312 	 -25.1264
| 14> H 	 -116.817 	 27.9674 	 -25.4637
| 15> H 	 -115.776 	 29.3429 	 -25.4454
| 16> C 	 -117.81 	 29.8663 	 -25.7904
| 17> H 	 -117.623 	 30.871 	 -25.4773
| 18> H 	 -117.615 	 29.9108 	 -26.8437
| 19> C 	 -119.331 	 29.3216 	 -25.7184
| 20> H 	 -119.557 	 29.071 	 -24.7155
| 21> H 	 -120.019 	 30.0961 	 -26.2512
| 22> H 	 -119.535 	 28.4118 	 -26.2913
| 23> S 	 -118.96 	 31.0044 	 -19.9244
| 24> C 	 -119.111 	 32.7106 	 -19.408
| 25> C 	 -117.919 	 33.397 	 -19.7346
| 26> C 	 -116.993 	 32.6128 	 -20.5141
| 27> C 	 -117.421 	 31.3453 	 -20.7265
| 28> H 	 -117.771 	 34.4467 	 -19.4982
| 29> C 	 -115.693 	 33.0903 	 -21.1151
| 30> H 	 -115.696 	 34.1343 	 -21.3429
| 31> H 	 -115.448 	 32.761 	 -22.1326
| 32> C 	 -114.483 	 32.845 	 -20.1749
| 33> H 	 -113.513 	 32.8984 	 -20.6225
| 34> H 	 -114.382 	 31.8001 	 -19.8688
| 35> C 	 -114.427 	 33.7696 	 -18.9058
| 36> H 	 -113.426 	 33.8023 	 -18.5654
| 37> H 	 -114.971 	 33.3924 	 -17.9401
| 38> H 	 -114.807 	 34.7243 	 -19.1252
| 39> H 	 -116.534 	 27.0471 	 -23.0758
| 40> H 	 -119.816 	 33.0993 	 -18.5916
| 41> *
| 42>
| 43>                          ****END OF INPUT****

CARTESIAN COORDINATES (ANGSTROEM)
---------------------------------
  S    -116.613000   28.675200  -21.085000
  C    -116.686000   28.051500  -22.725200
  C    -116.735000   29.129700  -23.580300
  C    -116.819000   30.402100  -22.973600
  C    -116.827000   30.326800  -21.592600
  H    -116.940000   31.329500  -23.437000
  C    -116.732000   29.031200  -25.126400
  H    -116.817000   27.967400  -25.463700
  H    -115.776000   29.342900  -25.445400
  C    -117.810000   29.866300  -25.790400
  H    -117.623000   30.871000  -25.477300
  H    -117.615000   29.910800  -26.843700
  C    -119.331000   29.321600  -25.718400
  H    -119.557000   29.071000  -24.715500
  H    -120.019000   30.096100  -26.251200
  H    -119.535000   28.411800  -26.291300
  S    -118.960000   31.004400  -19.924400
  C    -119.111000   32.710600  -19.408000
  C    -117.919000   33.397000  -19.734600
  C    -116.993000   32.612800  -20.514100
  C    -117.421000   31.345300  -20.726500
  H    -117.771000   34.446700  -19.498200
  C    -115.693000   33.090300  -21.115100
  H    -115.696000   34.134300  -21.342900
  H    -115.448000   32.761000  -22.132600
  C    -114.483000   32.845000  -20.174900
  H    -113.513000   32.898400  -20.622500
  H    -114.382000   31.800100  -19.868800
  C    -114.427000   33.769600  -18.905800
  H    -113.426000   33.802300  -18.565400
  H    -114.971000   33.392400  -17.940100
  H    -114.807000   34.724300  -19.125200
  H    -116.534000   27.047100  -23.075800
  H    -119.816000   33.099300  -18.591600

 Total Charge           Charge          ....    0
 Multiplicity           Mult            ....    1
 Number of Electrons    NEL             ....  134
 Basis Dimension        Dim             ....  322

ORBITAL ENERGIES
----------------

  NO   OCC          E(Eh)            E(eV)
   0   2.0000     -88.967058     -2420.9167
   1   2.0000     -88.965746     -2420.8810
   2   2.0000     -10.328503      -281.0528
   3   2.0000     -10.328252      -281.0460
   4   2.0000     -10.325272      -280.9649
   5   2.0000     -10.315627      -280.7025
   6   2.0000     -10.301426      -280.3161
   7   2.0000     -10.300837      -280.3000
   8   2.0000     -10.300757      -280.2979
   9   2.0000     -10.292038      -280.0606
  10   2.0000     -10.291594      -280.0485
  11   2.0000     -10.290652      -280.0229
  12   2.0000     -10.286569      -279.9118
  13   2.0000     -10.286488      -279.9096
  14   2.0000     -10.283767      -279.8355
  15   2.0000     -10.276133      -279.6278
  16   2.0000      -8.081684      -219.9138
  17   2.0000      -8.079437      -219.8527
  18   2.0000      -6.040234      -164.3631
  19   2.0000      -6.038100      -164.3051
  20   2.0000      -6.036073      -164.2499
  21   2.0000      -6.034118      -164.1967
  22   2.0000      -6.032526      -164.1534
  23   2.0000      -6.030046      -164.0859
  24   2.0000      -1.008215       -27.4349
  25   2.0000      -0.981602       -26.7107
  26   2.0000      -0.906984       -24.6803
  27   2.0000      -0.902216       -24.5505
  28   2.0000      -0.866935       -23.5905
  29   2.0000      -0.844741       -22.9866
  30   2.0000      -0.839035       -22.8313
  31   2.0000      -0.812419       -22.1070
  32   2.0000      -0.783169       -21.3111
  33   2.0000      -0.775179       -21.0937
  34   2.0000      -0.711185       -19.3523
  35   2.0000      -0.700844       -19.0709
  36   2.0000      -0.692925       -18.8554
  37   2.0000      -0.661194       -17.9920
  38   2.0000      -0.643955       -17.5229
  39   2.0000      -0.622706       -16.9447
  40   2.0000      -0.596616       -16.2348
  41   2.0000      -0.563984       -15.3468
  42   2.0000      -0.551833       -15.0161
  43   2.0000      -0.549976       -14.9656
  44   2.0000      -0.535708       -14.5774
  45   2.0000      -0.530602       -14.4384
  46   2.0000      -0.516290       -14.0490
  47   2.0000      -0.515523       -14.0281
  48   2.0000      -0.499328       -13.5874
  49   2.0000      -0.493140       -13.4190
  50   2.0000      -0.481161       -13.0931
  51   2.0000      -0.476912       -12.9774
  52   2.0000      -0.473285       -12.8787
  53   2.0000      -0.468951       -12.7608
  54   2.0000      -0.457960       -12.4617
  55   2.0000      -0.451040       -12.2734
  56   2.0000      -0.442960       -12.0536
  57   2.0000      -0.432924       -11.7805
  58   2.0000      -0.430213       -11.7067
  59   2.0000      -0.424117       -11.5408
  60   2.0000      -0.421516       -11.4700
  61   2.0000      -0.405215       -11.0265
  62   2.0000      -0.404528       -11.0078
  63   2.0000      -0.345430        -9.3996
  64   2.0000      -0.331473        -9.0198
  65   2.0000      -0.328325        -8.9342
  66   2.0000      -0.298529        -8.1234
  67   0.0000       0.027778         0.7559
  68   0.0000       0.061720         1.6795
  69   0.0000       0.118353         3.2206
  70   0.0000       0.121921         3.3176
  71   0.0000       0.125475         3.4143

MULLIKEN ATOMIC CHARGES
-----------------------
   0 S :    0.105764
   1 C :   -0.108029
   2 C :   -0.097581
   3 C :    0.058371
   4 C :   -0.166234
   5 H :    0.000185
   6 C :    0.083558
   7 H :    0.015606
   8 H :    0.024918
   9 C :   -0.068525
  10 H :    0.019451
  11 H :    0.018092
  12 C :   -0.068152
  13 H :    0.041339
  14 H :    0.051629
  15 H :    0.030905
  16 S :    0.109945
  17 C :   -0.128989
  18 C :   -0.034673
  19 C :   -0.024453
  20 C :   -0.142921
  21 H :    0.024360
  22 C :    0.085501
  23 H :    0.007600
  24 H :    0.020505
  25 C :   -0.064734
  26 H :    0.014560
  27 H :    0.022462
  28 C :   -0.054497
  29 H :    0.023973
  30 H :    0.044813
  31 H :    0.017301
  32 H :    0.044491
  33 H :    0.093458
Sum of atomic charges:   -0.0000000

LOEWDIN ATOMIC CHARGES
----------------------
   0 S :    0.409372
   1 C :   -0.196171
   2 C :   -0.063749
   3 C :   -0.049403
   4 C :   -0.194109
   5 H :    0.021568
   6 C :   -0.027443
   7 H :    0.028689
   8 H :    0.026905
   9 C :   -0.040360
  10 H :    0.017904
  11 H :    0.022046
  12 C :   -0.066708
  13 H :    0.019306
  14 H :    0.040640
  15 H :    0.025337
  16 S :    0.386351
  17 C :   -0.198294
  18 C :   -0.064028
  19 C :   -0.061296
  20 C :   -0.184879
  21 H :    0.031017
  22 C :   -0.033638
  23 H :    0.025156
  24 H :    0.034520
  25 C :   -0.040398
  26 H :    0.021375
  27 H :    0.026564
  28 C :   -0.067387
  29 H :    0.020954
  30 H :    0.036915
  31 H :    0.012062
  32 H :    0.030719
  33 H :    0.050462

  Mayer bond orders larger than 0.100000
B(  0-S ,  1-C ) :   1.1277 B(  0-S ,  4-C ) :   1.1635 B(  1-C ,  2-C ) :   1.6067
B(  1-C , 32-H ) :   0.9715 B(  2-C ,  3-C ) :   1.2535 B(  2-C ,  6-C ) :   1.0080
B(  3-C ,  4-C ) :   1.5548 B(  3-C ,  5-H ) :   0.9938 B(  4-C , 20-C ) :   1.0181
B(  6-C ,  7-H ) :   0.9474 B(  6-C ,  8-H ) :   0.9355 B(  6-C ,  9-C ) :   1.0866
B(  9-C , 10-H ) :   0.9567 B(  9-C , 11-H ) :   0.9514 B(  9-C , 12-C ) :   1.0537
B( 12-C , 13-H ) :   0.9827 B( 12-C , 14-H ) :   0.9759 B( 12-C , 15-H ) :   0.9757
B( 16-S , 17-C ) :   1.1400 B( 16-S , 20-C ) :   1.1280 B( 17-C , 18-C ) :   1.6170
B( 17-C , 33-H ) :   0.9532 B( 18-C , 19-C ) :   1.2425 B( 18-C , 21-H ) :   0.9833
B( 19-C , 20-C ) :   1.6297 B( 19-C , 22-C ) :   1.0455 B( 22-C , 23-H ) :   0.9345
B( 22-C , 24-H ) :   0.9304 B( 22-C , 25-C ) :   1.0707 B( 25-C , 26-H ) :   0.9593
B( 25-C , 27-H ) :   0.9543 B( 25-C , 28-C ) :   1.0663 B( 28-C , 29-H ) :   0.9766
B( 28-C , 30-H ) :   0.9756 B( 28-C , 31-H ) :   0.9787

Dispersion correction           -0.014823180
FINAL SINGLE POINT ENERGY     -1339.854922015852

DIPOLE MOMENT
-------------
                                X             Y             Z
Electronic contribution:     -7.31743      -9.41703      13.50577
Nuclear contribution   :      7.62549       9.71881     -14.02324
                        -----------------------------------------
Total Dipole Moment    :      0.30806       0.30178      -0.51747
                        -----------------------------------------
Magnitude (a.u.)       :      0.67361
Magnitude (Debye)      :      1.71218

Rotational constants in cm-1:     0.020054     0.008293     0.007741
Rotational constants in MHz :   601.213458   248.608512   232.067459

                             ****ORCA TERMINATED NORMALLY****
TOTAL RUN TIME: 0 days 0 hours 0 minutes 21 seconds 833 msec
