                         Program Version 4.2.1 -  RELEASE  -
|  1> ! wB97X-D3 SP def2-SVP
|  2> %pal
|  3> nprocs 24
|  4> end
|  5>
|  6> * xyz 0 1
|  7> S 	 -56.392 	 13.2378 	 -98.5807
|  8> C 	 -55.4021 	 14.2508 	 -99.656
|  9> C 	 -55.5371 	 15.5584 	 -99.1571
| 10> C 	 -56.569 	 15.6995 	 -98.1548
| 11> C 	 -57.2006 	 14.5518 	 -97.8396
| 12> H 	 -56.9549 	 16.6283 	 -97.7064
| 13> C 	 -54.6211 	 16.7669 	 -99.5631
| 14> H 	 -53.9703 	 17.0323 	 -98.7202
| 15> H 	 -55.3749 	 17.5766 	 -99.7172
| 16> C 	 -53.6563 	 16.5179 	 -100.786
| 17> H 	 -53.1692 	 15.5518 	 -100.676
| 18> H 	 -54.2082 	 16.398 	 -101.728
| 19> C 	 -52.5911 	 17.5926 	 -101.032
| 20> H 	 -51.7594 	 17.0355 	 -101.583
| 21> H 	 -52.8787 	 18.5488 	 -101.62
| 22> H 	 -52.2487 	 17.8676 	 -100.064
| 23> S 	 -59.6013 	 13.1564 	 -97.4923
| 24> C 	 -60.6069 	 13.3533 	 -96.0871
| 25> C 	 -60.0501 	 14.3316 	 -95.2962
| 26> C 	 -58.8047 	 14.8649 	 -95.7763
| 27> C 	 -58.43 	 14.3592 	 -97.0257
| 28> H 	 -60.4688 	 14.5896 	 -94.3389
| 29> C 	 -57.9862 	 15.8235 	 -94.8905
| 30> H 	 -56.9069 	 15.7196 	 -95.0044
| 31> H 	 -58.2154 	 15.5929 	 -93.8325
| 32> C 	 -58.2742 	 17.2701 	 -95.2347
| 33> H 	 -58.1959 	 17.4686 	 -96.3051
| 34> H 	 -57.58 	 17.902 	 -94.6539
| 35> C 	 -59.6665 	 17.7204 	 -94.8843
| 36> H 	 -59.9007 	 17.5478 	 -93.8371
| 37> H 	 -60.4559 	 17.3043 	 -95.4482
| 38> H 	 -59.6632 	 18.8825 	 -94.9905
| 39> H 	 -54.7685 	 13.8838 	 -100.396
| 40> H 	 -61.4907 	 12.9249 	 -95.6978
| 41> *
| 42>
| 43>                          ****END OF INPUT****

CARTESIAN COORDINATES (ANGSTROEM)
---------------------------------
  S    -56.392000   13.237800  -98.580700
  C    -55.402100   14.250800  -99.656000
  C    -55.537100   15.558400  -99.157100
  C    -56.569000   15.699500  -98.154800
  C    -57.200600   14.551800  -97.839600
  H    -56.954900   16.628300  -97.706400
  C    -54.621100   16.766900  -99.563100
  H    -53.970300   17.032300  -98.720200
  H    -55.374900   17.576600  -99.717200
  C    -53.656300   16.517900  -100.786000
  H    -53.169200   15.551800  -100.676000
  H    -54.208200   16.398000  -101.728000
  C    -52.591100   17.592600  -101.032000
  H    -51.759400   17.035500  -101.583000
  H    -52.878700   18.548800  -101.620000
  H    -52.248700   17.867600  -100.064000
  S    -59.601300   13.156400  -97.492300
  C    -60.606900   13.353300  -96.087100
  C    -60.050100   14.331600  -95.296200
  C    -58.804700   14.864900  -95.776300
  C    -58.430000   14.359200  -97.025700
  H    -60.468800   14.589600  -94.338900
  C    -57.986200   15.823500  -94.890500
  H    -56.906900   15.719600  -95.004400
  H    -58.215400   15.592900  -93.832500
  C    -58.274200   17.270100  -95.234700
  H    -58.195900   17.468600  -96.305100
  H    -57.580000   17.902000  -94.653900
  C    -59.666500   17.720400  -94.884300
  H    -59.900700   17.547800  -93.837100
  H    -60.455900   17.304300  -95.448200
  H    -59.663200   18.882500  -94.990500
  H    -54.768500   13.883800  -100.396000
  H    -61.490700   12.924900  -95.697800

 Total Charge           Charge          ....    0
 Multiplicity           Mult            ....    1
 Number of Electrons    NEL             ....  134
 Basis Dimension        Dim             ....  322

ORBITAL ENERGIES
----------------

  NO   OCC          E(Eh)            E(eV)
   0   2.0000     -88.969491     -2420.9829
   1   2.0000     -88.961078     -2420.7540
   2   2.0000     -10.333261      -281.1823
   3   2.0000     -10.330007      -281.0938
   4   2.0000     -10.317067      -280.7417
   5   2.0000     -10.316510      -280.7265
   6   2.0000     -10.312047      -280.6051
   7   2.0000     -10.306541      -280.4552
   8   2.0000     -10.303461      -280.3714
   9   2.0000     -10.293922      -280.1119
  10   2.0000     -10.293697      -280.1057
  11   2.0000     -10.292508      -280.0734
  12   2.0000     -10.291987      -280.0592
  13   2.0000     -10.289684      -279.9965
  14   2.0000     -10.286227      -279.9025
  15   2.0000     -10.276467      -279.6369
  16   2.0000      -8.083939      -219.9752
  17   2.0000      -8.076385      -219.7696
  18   2.0000      -6.042553      -164.4262
  19   2.0000      -6.038288      -164.3102
  20   2.0000      -6.034988      -164.2204
  21   2.0000      -6.034732      -164.2134
  22   2.0000      -6.030774      -164.1057
  23   2.0000      -6.027002      -164.0031
  24   2.0000      -1.010183       -27.4885
  25   2.0000      -0.987738       -26.8777
  26   2.0000      -0.915404       -24.9094
  27   2.0000      -0.903726       -24.5916
  28   2.0000      -0.869783       -23.6680
  29   2.0000      -0.848666       -23.0934
  30   2.0000      -0.842329       -22.9209
  31   2.0000      -0.821691       -22.3593
  32   2.0000      -0.781695       -21.2710
  33   2.0000      -0.771500       -20.9936
  34   2.0000      -0.712898       -19.3989
  35   2.0000      -0.698367       -19.0035
  36   2.0000      -0.686196       -18.6723
  37   2.0000      -0.662052       -18.0154
  38   2.0000      -0.647122       -17.6091
  39   2.0000      -0.613057       -16.6821
  40   2.0000      -0.597925       -16.2704
  41   2.0000      -0.571873       -15.5615
  42   2.0000      -0.562675       -15.3112
  43   2.0000      -0.555911       -15.1271
  44   2.0000      -0.543778       -14.7969
  45   2.0000      -0.527211       -14.3461
  46   2.0000      -0.522676       -14.2227
  47   2.0000      -0.513768       -13.9803
  48   2.0000      -0.506489       -13.7823
  49   2.0000      -0.504015       -13.7149
  50   2.0000      -0.490403       -13.3446
  51   2.0000      -0.484669       -13.1885
  52   2.0000      -0.480317       -13.0701
  53   2.0000      -0.466442       -12.6925
  54   2.0000      -0.460252       -12.5241
  55   2.0000      -0.446776       -12.1574
  56   2.0000      -0.435324       -11.8458
  57   2.0000      -0.429524       -11.6880
  58   2.0000      -0.427928       -11.6445
  59   2.0000      -0.425798       -11.5865
  60   2.0000      -0.419552       -11.4166
  61   2.0000      -0.414050       -11.2669
  62   2.0000      -0.409499       -11.1430
  63   2.0000      -0.353374        -9.6158
  64   2.0000      -0.331290        -9.0149
  65   2.0000      -0.324177        -8.8213
  66   2.0000      -0.297266        -8.0890
  67   0.0000       0.025452         0.6926
  68   0.0000       0.079107         2.1526
  69   0.0000       0.108322         2.9476
  70   0.0000       0.128498         3.4966
  71   0.0000       0.131928         3.5899

MULLIKEN ATOMIC CHARGES
-----------------------
   0 S :    0.094373
   1 C :   -0.115368
   2 C :   -0.087243
   3 C :    0.010333
   4 C :   -0.110554
   5 H :    0.001543
   6 C :    0.046530
   7 H :    0.045161
   8 H :    0.044669
   9 C :   -0.108801
  10 H :    0.031135
  11 H :    0.032219
  12 C :   -0.061633
  13 H :    0.044678
  14 H :    0.058855
  15 H :    0.018795
  16 S :    0.120579
  17 C :   -0.051171
  18 C :   -0.050657
  19 C :   -0.063936
  20 C :   -0.145660
  21 H :    0.012284
  22 C :    0.075679
  23 H :    0.031874
  24 H :    0.028668
  25 C :   -0.078003
  26 H :    0.044593
  27 H :    0.032708
  28 C :   -0.073982
  29 H :    0.017140
  30 H :    0.040815
  31 H :    0.039371
  32 H :    0.035402
  33 H :    0.039604
Sum of atomic charges:   -0.0000000

LOEWDIN ATOMIC CHARGES
----------------------
   0 S :    0.402866
   1 C :   -0.184226
   2 C :   -0.054843
   3 C :   -0.079083
   4 C :   -0.195192
   5 H :    0.032583
   6 C :   -0.033224
   7 H :    0.033413
   8 H :    0.035971
   9 C :   -0.051016
  10 H :    0.023092
  11 H :    0.025429
  12 C :   -0.071838
  13 H :    0.038074
  14 H :    0.037060
  15 H :    0.015106
  16 S :    0.426409
  17 C :   -0.189907
  18 C :   -0.073420
  19 C :   -0.054347
  20 C :   -0.203388
  21 H :    0.026384
  22 C :   -0.031421
  23 H :    0.031715
  24 H :    0.032452
  25 C :   -0.043968
  26 H :    0.024107
  27 H :    0.027063
  28 C :   -0.068318
  29 H :    0.018126
  30 H :    0.017911
  31 H :    0.037119
  32 H :    0.016814
  33 H :    0.032497

  Mayer bond orders larger than 0.100000
B(  0-S ,  1-C ) :   1.1191 B(  0-S ,  4-C ) :   1.1581 B(  1-C ,  2-C ) :   1.5995
B(  1-C , 32-H ) :   0.9844 B(  2-C ,  3-C ) :   1.2315 B(  2-C ,  6-C ) :   1.0018
B(  3-C ,  4-C ) :   1.5922 B(  3-C ,  5-H ) :   0.9914 B(  4-C , 20-C ) :   1.0262
B(  6-C ,  7-H ) :   0.9432 B(  6-C ,  8-H ) :   0.9457 B(  6-C ,  9-C ) :   1.0702
B(  9-C , 10-H ) :   0.9523 B(  9-C , 11-H ) :   0.9559 B(  9-C , 12-C ) :   1.0774
B( 12-C , 13-H ) :   0.9743 B( 12-C , 14-H ) :   0.9756 B( 12-C , 15-H ) :   0.9750
B( 16-S , 17-C ) :   1.1552 B( 16-S , 20-C ) :   1.1442 B( 17-C , 18-C ) :   1.6003
B( 17-C , 33-H ) :   0.9692 B( 18-C , 19-C ) :   1.2741 B( 18-C , 21-H ) :   0.9836
B( 19-C , 20-C ) :   1.5714 B( 19-C , 22-C ) :   1.0326 B( 22-C , 23-H ) :   0.9335
B( 22-C , 24-H ) :   0.9415 B( 22-C , 25-C ) :   1.0778 B( 25-C , 26-H ) :   0.9446
B( 25-C , 27-H ) :   0.9536 B( 25-C , 28-C ) :   1.0854 B( 28-C , 29-H ) :   0.9732
B( 28-C , 30-H ) :   0.9735 B( 28-C , 31-H ) :   0.9724

Dispersion correction           -0.014050858
FINAL SINGLE POINT ENERGY     -1339.868478146494

DIPOLE MOMENT
-------------
                                X             Y             Z
Electronic contribution:    -12.04421     -25.10995      -1.19474
Nuclear contribution   :     12.25962      25.65045       1.50413
                        -----------------------------------------
Total Dipole Moment    :      0.21541       0.54050       0.30940
                        -----------------------------------------
Magnitude (a.u.)       :      0.65899
Magnitude (Debye)      :      1.67502

Rotational constants in cm-1:     0.022340     0.007477     0.005878
Rotational constants in MHz :   669.741874   224.152673   176.229797

                             ****ORCA TERMINATED NORMALLY****
TOTAL RUN TIME: 0 days 0 hours 0 minutes 21 seconds 133 msec
