                         Program Version 4.2.1 -  RELEASE  -
|  1> ! wB97X-D3 SP def2-SVP
|  2> %pal
|  3> nprocs 24
|  4> end
|  5>
|  6> * xyz 0 1
|  7> S 	 -30.6954 	 20.1028 	 12.7994
|  8> C 	 -29.2273 	 20.7433 	 12.397
|  9> C 	 -28.5508 	 20.0037 	 11.4327
| 10> C 	 -29.0981 	 18.7614 	 11.1669
| 11> C 	 -30.215 	 18.602 	 11.93
| 12> H 	 -28.7109 	 17.9374 	 10.6122
| 13> C 	 -27.2571 	 20.5194 	 10.8266
| 14> H 	 -26.562 	 19.6692 	 10.7122
| 15> H 	 -26.6757 	 21.0693 	 11.4601
| 16> C 	 -27.4701 	 21.1914 	 9.52646
| 17> H 	 -28.071 	 20.6016 	 8.78824
| 18> H 	 -27.9759 	 22.1206 	 9.60435
| 19> C 	 -26.1893 	 21.3743 	 8.7231
| 20> H 	 -25.5449 	 22.0543 	 9.22307
| 21> H 	 -25.5744 	 20.4206 	 8.5857
| 22> H 	 -26.3471 	 21.7857 	 7.73751
| 23> S 	 -30.9883 	 16.6199 	 13.5897
| 24> C 	 -32.092 	 15.3625 	 13.0407
| 25> C 	 -32.6418 	 15.7321 	 11.8622
| 26> C 	 -32.0483 	 16.901 	 11.3239
| 27> C 	 -31.0879 	 17.4715 	 12.1126
| 28> H 	 -33.2727 	 14.9995 	 11.3974
| 29> C 	 -32.3247 	 17.2737 	 9.87015
| 30> H 	 -32.2 	 16.3621 	 9.22869
| 31> H 	 -31.4489 	 17.812 	 9.51013
| 32> C 	 -33.6294 	 18.1691 	 9.59334
| 33> H 	 -34.4924 	 17.7167 	 10.0425
| 34> H 	 -33.804 	 18.166 	 8.53103
| 35> C 	 -33.5506 	 19.5755 	 10.1434
| 36> H 	 -33.015 	 20.1949 	 9.39755
| 37> H 	 -33.1691 	 19.6006 	 11.1654
| 38> H 	 -34.5668 	 19.9568 	 10.0902
| 39> H 	 -28.8412 	 21.7464 	 12.7759
| 40> H 	 -32.4404 	 14.5574 	 13.5889
| 41> *
| 42>
| 43>                          ****END OF INPUT****

CARTESIAN COORDINATES (ANGSTROEM)
---------------------------------
  S    -30.695400   20.102800   12.799400
  C    -29.227300   20.743300   12.397000
  C    -28.550800   20.003700   11.432700
  C    -29.098100   18.761400   11.166900
  C    -30.215000   18.602000   11.930000
  H    -28.710900   17.937400   10.612200
  C    -27.257100   20.519400   10.826600
  H    -26.562000   19.669200   10.712200
  H    -26.675700   21.069300   11.460100
  C    -27.470100   21.191400    9.526460
  H    -28.071000   20.601600    8.788240
  H    -27.975900   22.120600    9.604350
  C    -26.189300   21.374300    8.723100
  H    -25.544900   22.054300    9.223070
  H    -25.574400   20.420600    8.585700
  H    -26.347100   21.785700    7.737510
  S    -30.988300   16.619900   13.589700
  C    -32.092000   15.362500   13.040700
  C    -32.641800   15.732100   11.862200
  C    -32.048300   16.901000   11.323900
  C    -31.087900   17.471500   12.112600
  H    -33.272700   14.999500   11.397400
  C    -32.324700   17.273700    9.870150
  H    -32.200000   16.362100    9.228690
  H    -31.448900   17.812000    9.510130
  C    -33.629400   18.169100    9.593340
  H    -34.492400   17.716700   10.042500
  H    -33.804000   18.166000    8.531030
  C    -33.550600   19.575500   10.143400
  H    -33.015000   20.194900    9.397550
  H    -33.169100   19.600600   11.165400
  H    -34.566800   19.956800   10.090200
  H    -28.841200   21.746400   12.775900
  H    -32.440400   14.557400   13.588900

 Total Charge           Charge          ....    0
 Multiplicity           Mult            ....    1
 Number of Electrons    NEL             ....  134
 Basis Dimension        Dim             ....  322

ORBITAL ENERGIES
----------------

  NO   OCC          E(Eh)            E(eV)
   0   2.0000     -88.966180     -2420.8928
   1   2.0000     -88.958869     -2420.6939
   2   2.0000     -10.325633      -280.9748
   3   2.0000     -10.316445      -280.7247
   4   2.0000     -10.310244      -280.5560
   5   2.0000     -10.307513      -280.4817
   6   2.0000     -10.296999      -280.1956
   7   2.0000     -10.294709      -280.1333
   8   2.0000     -10.293016      -280.0872
   9   2.0000     -10.290276      -280.0126
  10   2.0000     -10.285036      -279.8701
  11   2.0000     -10.281133      -279.7638
  12   2.0000     -10.280098      -279.7357
  13   2.0000     -10.279698      -279.7248
  14   2.0000     -10.275250      -279.6038
  15   2.0000     -10.270297      -279.4690
  16   2.0000      -8.082019      -219.9229
  17   2.0000      -8.074600      -219.7210
  18   2.0000      -6.040156      -164.3610
  19   2.0000      -6.036491      -164.2613
  20   2.0000      -6.033024      -164.1669
  21   2.0000      -6.032966      -164.1654
  22   2.0000      -6.028926      -164.0554
  23   2.0000      -6.025401      -163.9595
  24   2.0000      -1.016949       -27.6726
  25   2.0000      -0.994589       -27.0641
  26   2.0000      -0.918409       -24.9912
  27   2.0000      -0.896531       -24.3959
  28   2.0000      -0.876941       -23.8628
  29   2.0000      -0.861816       -23.4512
  30   2.0000      -0.846361       -23.0307
  31   2.0000      -0.821411       -22.3517
  32   2.0000      -0.779864       -21.2212
  33   2.0000      -0.763691       -20.7811
  34   2.0000      -0.706207       -19.2169
  35   2.0000      -0.697152       -18.9705
  36   2.0000      -0.691371       -18.8132
  37   2.0000      -0.660465       -17.9722
  38   2.0000      -0.651667       -17.7328
  39   2.0000      -0.628608       -17.1053
  40   2.0000      -0.594268       -16.1709
  41   2.0000      -0.572938       -15.5904
  42   2.0000      -0.561028       -15.2664
  43   2.0000      -0.549482       -14.9522
  44   2.0000      -0.535825       -14.5805
  45   2.0000      -0.531498       -14.4628
  46   2.0000      -0.524071       -14.2607
  47   2.0000      -0.507865       -13.8197
  48   2.0000      -0.506544       -13.7838
  49   2.0000      -0.501517       -13.6470
  50   2.0000      -0.487571       -13.2675
  51   2.0000      -0.483294       -13.1511
  52   2.0000      -0.467459       -12.7202
  53   2.0000      -0.463036       -12.5999
  54   2.0000      -0.457801       -12.4574
  55   2.0000      -0.451396       -12.2831
  56   2.0000      -0.441932       -12.0256
  57   2.0000      -0.440159       -11.9773
  58   2.0000      -0.427762       -11.6400
  59   2.0000      -0.417844       -11.3701
  60   2.0000      -0.412895       -11.2354
  61   2.0000      -0.410679       -11.1751
  62   2.0000      -0.409690       -11.1482
  63   2.0000      -0.349242        -9.5033
  64   2.0000      -0.331123        -9.0103
  65   2.0000      -0.319614        -8.6971
  66   2.0000      -0.301520        -8.2048
  67   0.0000       0.041323         1.1245
  68   0.0000       0.059650         1.6232
  69   0.0000       0.110817         3.0155
  70   0.0000       0.129277         3.5178
  71   0.0000       0.132902         3.6165

MULLIKEN ATOMIC CHARGES
-----------------------
   0 S :    0.131139
   1 C :   -0.122521
   2 C :   -0.093108
   3 C :    0.084176
   4 C :   -0.192119
   5 H :    0.012400
   6 C :    0.113744
   7 H :    0.005610
   8 H :   -0.010793
   9 C :   -0.051500
  10 H :    0.026951
  11 H :    0.019245
  12 C :   -0.058729
  13 H :    0.013368
  14 H :    0.034449
  15 H :    0.031231
  16 S :    0.107644
  17 C :   -0.070459
  18 C :   -0.029282
  19 C :   -0.012472
  20 C :   -0.181498
  21 H :    0.017559
  22 C :    0.040336
  23 H :    0.031314
  24 H :    0.005008
  25 C :   -0.050735
  26 H :    0.018386
  27 H :    0.022764
  28 C :   -0.036648
  29 H :    0.031813
  30 H :    0.041273
  31 H :    0.025688
  32 H :    0.066231
  33 H :    0.029534
Sum of atomic charges:    0.0000000

LOEWDIN ATOMIC CHARGES
----------------------
   0 S :    0.436805
   1 C :   -0.233550
   2 C :   -0.066532
   3 C :   -0.043391
   4 C :   -0.173617
   5 H :    0.038230
   6 C :   -0.028976
   7 H :    0.031433
   8 H :    0.016831
   9 C :   -0.040645
  10 H :    0.029287
  11 H :    0.020471
  12 C :   -0.067318
  13 H :    0.013756
  14 H :    0.030384
  15 H :    0.023592
  16 S :    0.416368
  17 C :   -0.167049
  18 C :   -0.069769
  19 C :   -0.062836
  20 C :   -0.226528
  21 H :    0.032208
  22 C :   -0.039311
  23 H :    0.034288
  24 H :    0.024689
  25 C :   -0.034662
  26 H :    0.017231
  27 H :    0.021322
  28 C :   -0.064206
  29 H :    0.028179
  30 H :    0.020226
  31 H :    0.026470
  32 H :    0.040331
  33 H :    0.016288

  Mayer bond orders larger than 0.100000
B(  0-S ,  1-C ) :   1.1696 B(  0-S ,  4-C ) :   1.1628 B(  1-C ,  2-C ) :   1.5894
B(  1-C ,  4-C ) :   0.1001 B(  1-C , 32-H ) :   0.9575 B(  2-C ,  3-C ) :   1.2465
B(  2-C ,  6-C ) :   1.0245 B(  3-C ,  4-C ) :   1.5859 B(  3-C ,  5-H ) :   1.0036
B(  4-C , 20-C ) :   1.0089 B(  6-C ,  7-H ) :   0.9375 B(  6-C ,  8-H ) :   0.9339
B(  6-C ,  9-C ) :   1.0611 B(  9-C , 10-H ) :   0.9590 B(  9-C , 11-H ) :   0.9503
B(  9-C , 12-C ) :   1.0815 B( 12-C , 13-H ) :   0.9729 B( 12-C , 14-H ) :   0.9742
B( 12-C , 15-H ) :   0.9742 B( 16-S , 17-C ) :   1.1515 B( 16-S , 20-C ) :   1.1515
B( 17-C , 18-C ) :   1.6313 B( 17-C , 33-H ) :   0.9739 B( 18-C , 19-C ) :   1.2267
B( 18-C , 21-H ) :   0.9924 B( 19-C , 20-C ) :   1.6030 B( 19-C , 22-C ) :   1.0374
B( 22-C , 23-H ) :   0.9454 B( 22-C , 24-H ) :   0.9364 B( 22-C , 25-C ) :   1.0485
B( 25-C , 26-H ) :   0.9643 B( 25-C , 27-H ) :   0.9564 B( 25-C , 28-C ) :   1.0826
B( 28-C , 29-H ) :   0.9754 B( 28-C , 30-H ) :   0.9724 B( 28-C , 31-H ) :   0.9718

Dispersion correction           -0.014835769
FINAL SINGLE POINT ENERGY     -1339.860769519933

DIPOLE MOMENT
-------------
                                X             Y             Z
Electronic contribution:     -5.53649     -10.43058      22.58661
Nuclear contribution   :      5.66010      10.42832     -23.07694
                        -----------------------------------------
Total Dipole Moment    :      0.12361      -0.00226      -0.49033
                        -----------------------------------------
Magnitude (a.u.)       :      0.50567
Magnitude (Debye)      :      1.28532

Rotational constants in cm-1:     0.021101     0.008166     0.007231
Rotational constants in MHz :   632.589880   244.796604   216.789689

                             ****ORCA TERMINATED NORMALLY****
TOTAL RUN TIME: 0 days 0 hours 0 minutes 20 seconds 877 msec
