                         Program Version 4.2.1 -  RELEASE  -
|  1> ! wB97X-D3 SP def2-SVP
|  2> %pal
|  3> nprocs 24
|  4> end
|  5>
|  6> * xyz 0 1
|  7> S 	 -73.0704 	 -2.61346 	 -66.4348
|  8> C 	 -72.0109 	 -1.20932 	 -66.4568
|  9> C 	 -72.672 	 -0.0901673 	 -65.9739
| 10> C 	 -74.0541 	 -0.379945 	 -65.8798
| 11> C 	 -74.4717 	 -1.61767 	 -66.2016
| 12> H 	 -74.7128 	 0.363339 	 -65.4399
| 13> C 	 -72.0543 	 1.20752 	 -65.3955
| 14> H 	 -71.5436 	 1.6363 	 -66.2106
| 15> H 	 -71.2315 	 0.860682 	 -64.7085
| 16> C 	 -72.9274 	 2.2569 	 -64.6505
| 17> H 	 -73.7418 	 2.64456 	 -65.2696
| 18> H 	 -73.4211 	 1.82335 	 -63.787
| 19> C 	 -72.0967 	 3.44603 	 -64.0413
| 20> H 	 -71.2991 	 3.20385 	 -63.3679
| 21> H 	 -71.7712 	 4.03359 	 -64.9355
| 22> H 	 -72.6565 	 4.14387 	 -63.4292
| 23> S 	 -76.0068 	 -3.77886 	 -65.9214
| 24> C 	 -77.8041 	 -3.7001 	 -66.0228
| 25> C 	 -78.1212 	 -2.47234 	 -66.4293
| 26> C 	 -77.0653 	 -1.54459 	 -66.5155
| 27> C 	 -75.8317 	 -2.11009 	 -66.2233
| 28> H 	 -79.1436 	 -2.12586 	 -66.7743
| 29> C 	 -77.2828 	 -0.149657 	 -66.9656
| 30> H 	 -77.8476 	 -0.1571 	 -67.9364
| 31> H 	 -76.4083 	 0.431885 	 -67.2852
| 32> C 	 -78.2693 	 0.697147 	 -66.1708
| 33> H 	 -78.0562 	 0.633037 	 -65.116
| 34> H 	 -79.3322 	 0.306591 	 -66.174
| 35> C 	 -78.2425 	 2.17396 	 -66.6242
| 36> H 	 -78.1673 	 2.37342 	 -67.6612
| 37> H 	 -77.4065 	 2.65431 	 -66.146
| 38> H 	 -79.1688 	 2.54912 	 -66.1832
| 39> H 	 -70.9425 	 -1.21377 	 -66.6585
| 40> H 	 -78.5092 	 -4.60748 	 -66.0631
| 41> *
| 42>
| 43>                          ****END OF INPUT****

CARTESIAN COORDINATES (ANGSTROEM)
---------------------------------
  S    -73.070400   -2.613460  -66.434800
  C    -72.010900   -1.209320  -66.456800
  C    -72.672000   -0.090167  -65.973900
  C    -74.054100   -0.379945  -65.879800
  C    -74.471700   -1.617670  -66.201600
  H    -74.712800    0.363339  -65.439900
  C    -72.054300    1.207520  -65.395500
  H    -71.543600    1.636300  -66.210600
  H    -71.231500    0.860682  -64.708500
  C    -72.927400    2.256900  -64.650500
  H    -73.741800    2.644560  -65.269600
  H    -73.421100    1.823350  -63.787000
  C    -72.096700    3.446030  -64.041300
  H    -71.299100    3.203850  -63.367900
  H    -71.771200    4.033590  -64.935500
  H    -72.656500    4.143870  -63.429200
  S    -76.006800   -3.778860  -65.921400
  C    -77.804100   -3.700100  -66.022800
  C    -78.121200   -2.472340  -66.429300
  C    -77.065300   -1.544590  -66.515500
  C    -75.831700   -2.110090  -66.223300
  H    -79.143600   -2.125860  -66.774300
  C    -77.282800   -0.149657  -66.965600
  H    -77.847600   -0.157100  -67.936400
  H    -76.408300    0.431885  -67.285200
  C    -78.269300    0.697147  -66.170800
  H    -78.056200    0.633037  -65.116000
  H    -79.332200    0.306591  -66.174000
  C    -78.242500    2.173960  -66.624200
  H    -78.167300    2.373420  -67.661200
  H    -77.406500    2.654310  -66.146000
  H    -79.168800    2.549120  -66.183200
  H    -70.942500   -1.213770  -66.658500
  H    -78.509200   -4.607480  -66.063100

 Total Charge           Charge          ....    0
 Multiplicity           Mult            ....    1
 Number of Electrons    NEL             ....  134
 Basis Dimension        Dim             ....  322

ORBITAL ENERGIES
----------------

  NO   OCC          E(Eh)            E(eV)
   0   2.0000     -88.966980     -2420.9146
   1   2.0000     -88.960801     -2420.7465
   2   2.0000     -10.325474      -280.9704
   3   2.0000     -10.325004      -280.9577
   4   2.0000     -10.322054      -280.8774
   5   2.0000     -10.314861      -280.6816
   6   2.0000     -10.302373      -280.3418
   7   2.0000     -10.300849      -280.3003
   8   2.0000     -10.298496      -280.2363
   9   2.0000     -10.297502      -280.2093
  10   2.0000     -10.293788      -280.1082
  11   2.0000     -10.289310      -279.9864
  12   2.0000     -10.287913      -279.9484
  13   2.0000     -10.285743      -279.8893
  14   2.0000     -10.284714      -279.8613
  15   2.0000     -10.275769      -279.6179
  16   2.0000      -8.081738      -219.9153
  17   2.0000      -8.076128      -219.7626
  18   2.0000      -6.040445      -164.3689
  19   2.0000      -6.036411      -164.2591
  20   2.0000      -6.034770      -164.2144
  21   2.0000      -6.032115      -164.1422
  22   2.0000      -6.030666      -164.1028
  23   2.0000      -6.026593      -163.9919
  24   2.0000      -1.015727       -27.6393
  25   2.0000      -0.990694       -26.9582
  26   2.0000      -0.912712       -24.8362
  27   2.0000      -0.906896       -24.6779
  28   2.0000      -0.876156       -23.8414
  29   2.0000      -0.852656       -23.2020
  30   2.0000      -0.844648       -22.9840
  31   2.0000      -0.820265       -22.3205
  32   2.0000      -0.782394       -21.2900
  33   2.0000      -0.772473       -21.0201
  34   2.0000      -0.715956       -19.4822
  35   2.0000      -0.699690       -19.0395
  36   2.0000      -0.696348       -18.9486
  37   2.0000      -0.660616       -17.9763
  38   2.0000      -0.638562       -17.3762
  39   2.0000      -0.623633       -16.9699
  40   2.0000      -0.603449       -16.4207
  41   2.0000      -0.570306       -15.5188
  42   2.0000      -0.560885       -15.2625
  43   2.0000      -0.558052       -15.1854
  44   2.0000      -0.531962       -14.4754
  45   2.0000      -0.523091       -14.2340
  46   2.0000      -0.518517       -14.1096
  47   2.0000      -0.510403       -13.8888
  48   2.0000      -0.501920       -13.6579
  49   2.0000      -0.498006       -13.5514
  50   2.0000      -0.495823       -13.4920
  51   2.0000      -0.489933       -13.3318
  52   2.0000      -0.473883       -12.8950
  53   2.0000      -0.466762       -12.7013
  54   2.0000      -0.457081       -12.4378
  55   2.0000      -0.453161       -12.3312
  56   2.0000      -0.448517       -12.2048
  57   2.0000      -0.438765       -11.9394
  58   2.0000      -0.434537       -11.8244
  59   2.0000      -0.432111       -11.7583
  60   2.0000      -0.417352       -11.3567
  61   2.0000      -0.413478       -11.2513
  62   2.0000      -0.404130       -10.9969
  63   2.0000      -0.363207        -9.8834
  64   2.0000      -0.333985        -9.0882
  65   2.0000      -0.321955        -8.7608
  66   2.0000      -0.283596        -7.7170
  67   0.0000       0.021998         0.5986
  68   0.0000       0.074792         2.0352
  69   0.0000       0.101975         2.7749
  70   0.0000       0.116185         3.1615
  71   0.0000       0.131068         3.5665

MULLIKEN ATOMIC CHARGES
-----------------------
   0 S :    0.111929
   1 C :   -0.139393
   2 C :   -0.077119
   3 C :   -0.047968
   4 C :   -0.070841
   5 H :    0.011959
   6 C :    0.071961
   7 H :    0.022107
   8 H :    0.044460
   9 C :   -0.089451
  10 H :    0.040797
  11 H :    0.035967
  12 C :   -0.057836
  13 H :    0.035716
  14 H :    0.038151
  15 H :    0.028743
  16 S :    0.066299
  17 C :   -0.108209
  18 C :   -0.027358
  19 C :   -0.018756
  20 C :   -0.124767
  21 H :    0.035811
  22 C :    0.020376
  23 H :    0.025725
  24 H :    0.029605
  25 C :   -0.116874
  26 H :    0.021222
  27 H :    0.031018
  28 C :   -0.020529
  29 H :    0.029041
  30 H :    0.028157
  31 H :    0.034485
  32 H :    0.046089
  33 H :    0.089482
Sum of atomic charges:    0.0000000

LOEWDIN ATOMIC CHARGES
----------------------
   0 S :    0.406411
   1 C :   -0.195482
   2 C :   -0.060898
   3 C :   -0.073468
   4 C :   -0.196697
   5 H :    0.029035
   6 C :   -0.031155
   7 H :    0.026233
   8 H :    0.042485
   9 C :   -0.042536
  10 H :    0.025494
  11 H :    0.024038
  12 C :   -0.066153
  13 H :    0.023591
  14 H :    0.030532
  15 H :    0.026446
  16 S :    0.392987
  17 C :   -0.185987
  18 C :   -0.073372
  19 C :   -0.070548
  20 C :   -0.192324
  21 H :    0.042456
  22 C :   -0.047440
  23 H :    0.039760
  24 H :    0.032068
  25 C :   -0.044449
  26 H :    0.017513
  27 H :    0.023359
  28 C :   -0.058143
  29 H :    0.019043
  30 H :    0.024225
  31 H :    0.031620
  32 H :    0.028743
  33 H :    0.052614

  Mayer bond orders larger than 0.100000
B(  0-S ,  1-C ) :   1.1389 B(  0-S ,  4-C ) :   1.1362 B(  1-C ,  2-C ) :   1.6049
B(  1-C ,  4-C ) :   0.1011 B(  1-C , 32-H ) :   0.9724 B(  2-C ,  3-C ) :   1.2814
B(  2-C ,  6-C ) :   0.9847 B(  3-C ,  4-C ) :   1.5520 B(  3-C ,  5-H ) :   0.9942
B(  4-C , 20-C ) :   1.0680 B(  6-C ,  7-H ) :   0.9326 B(  6-C ,  8-H ) :   0.9458
B(  6-C ,  9-C ) :   1.0736 B(  9-C , 10-H ) :   0.9523 B(  9-C , 11-H ) :   0.9535
B(  9-C , 12-C ) :   1.0775 B( 12-C , 13-H ) :   0.9772 B( 12-C , 14-H ) :   0.9777
B( 12-C , 15-H ) :   0.9748 B( 16-S , 17-C ) :   1.1209 B( 16-S , 20-C ) :   1.1388
B( 17-C , 18-C ) :   1.6194 B( 17-C , 33-H ) :   0.9573 B( 18-C , 19-C ) :   1.2637
B( 18-C , 21-H ) :   0.9714 B( 19-C , 20-C ) :   1.5711 B( 19-C , 22-C ) :   1.0543
B( 22-C , 23-H ) :   0.9212 B( 22-C , 24-H ) :   0.9476 B( 22-C , 25-C ) :   1.0429
B( 25-C , 26-H ) :   0.9558 B( 25-C , 27-H ) :   0.9577 B( 25-C , 28-C ) :   1.0737
B( 28-C , 29-H ) :   0.9765 B( 28-C , 30-H ) :   0.9768 B( 28-C , 31-H ) :   0.9749

Dispersion correction           -0.013570145
FINAL SINGLE POINT ENERGY     -1339.859502957271

DIPOLE MOMENT
-------------
                                X             Y             Z
Electronic contribution:      4.19018     -32.99429      -4.56367
Nuclear contribution   :     -4.33622      33.79703       4.64026
                        -----------------------------------------
Total Dipole Moment    :     -0.14604       0.80275       0.07660
                        -----------------------------------------
Magnitude (a.u.)       :      0.81951
Magnitude (Debye)      :      2.08303

Rotational constants in cm-1:     0.016031     0.009583     0.006365
Rotational constants in MHz :   480.605235   287.301141   190.810382

                             ****ORCA TERMINATED NORMALLY****
TOTAL RUN TIME: 0 days 0 hours 0 minutes 20 seconds 335 msec
