                         Program Version 4.2.1 -  RELEASE  -
|  1> ! wB97X-D3 SP def2-SVP
|  2> %pal
|  3> nprocs 24
|  4> end
|  5>
|  6> * xyz 0 1
|  7> S 	 30.6037 	 -31.6635 	 -109.935
|  8> C 	 31.098 	 -31.7538 	 -108.265
|  9> C 	 32.1912 	 -30.9462 	 -108.034
| 10> C 	 32.6763 	 -30.3751 	 -109.247
| 11> C 	 31.9863 	 -30.7534 	 -110.407
| 12> H 	 33.5486 	 -29.7285 	 -109.272
| 13> C 	 32.9449 	 -30.7734 	 -106.779
| 14> H 	 32.174 	 -30.6014 	 -106.047
| 15> H 	 33.6386 	 -29.9542 	 -106.915
| 16> C 	 33.8512 	 -31.944 	 -106.228
| 17> H 	 34.5427 	 -32.1774 	 -107.032
| 18> H 	 34.4265 	 -31.6211 	 -105.368
| 19> C 	 32.991 	 -33.201 	 -105.758
| 20> H 	 32.5446 	 -33.5165 	 -106.658
| 21> H 	 33.6089 	 -34.0369 	 -105.504
| 22> H 	 32.2396 	 -33.0064 	 -105.018
| 23> S 	 30.7212 	 -29.4703 	 -112.581
| 24> C 	 31.726 	 -28.8119 	 -113.89
| 25> C 	 33.098 	 -29.069 	 -113.716
| 26> C 	 33.3855 	 -29.7888 	 -112.475
| 27> C 	 32.2186 	 -30.1889 	 -111.78
| 28> H 	 33.8395 	 -28.6192 	 -114.384
| 29> C 	 34.8474 	 -30.0637 	 -112.022
| 30> H 	 35.4804 	 -30.6536 	 -112.735
| 31> H 	 34.6572 	 -30.805 	 -111.223
| 32> C 	 35.5237 	 -28.7679 	 -111.476
| 33> H 	 34.7388 	 -28.2781 	 -110.989
| 34> H 	 35.6418 	 -28.0796 	 -112.331
| 35> C 	 36.9155 	 -28.9468 	 -110.846
| 36> H 	 36.9941 	 -29.5611 	 -109.939
| 37> H 	 37.2886 	 -28.0262 	 -110.443
| 38> H 	 37.6023 	 -29.2913 	 -111.687
| 39> H 	 30.6266 	 -32.3767 	 -107.499
| 40> H 	 31.3765 	 -28.2065 	 -114.7
| 41> *
| 42>
| 43>                          ****END OF INPUT****

CARTESIAN COORDINATES (ANGSTROEM)
---------------------------------
  S     30.603700  -31.663500  -109.935000
  C     31.098000  -31.753800  -108.265000
  C     32.191200  -30.946200  -108.034000
  C     32.676300  -30.375100  -109.247000
  C     31.986300  -30.753400  -110.407000
  H     33.548600  -29.728500  -109.272000
  C     32.944900  -30.773400  -106.779000
  H     32.174000  -30.601400  -106.047000
  H     33.638600  -29.954200  -106.915000
  C     33.851200  -31.944000  -106.228000
  H     34.542700  -32.177400  -107.032000
  H     34.426500  -31.621100  -105.368000
  C     32.991000  -33.201000  -105.758000
  H     32.544600  -33.516500  -106.658000
  H     33.608900  -34.036900  -105.504000
  H     32.239600  -33.006400  -105.018000
  S     30.721200  -29.470300  -112.581000
  C     31.726000  -28.811900  -113.890000
  C     33.098000  -29.069000  -113.716000
  C     33.385500  -29.788800  -112.475000
  C     32.218600  -30.188900  -111.780000
  H     33.839500  -28.619200  -114.384000
  C     34.847400  -30.063700  -112.022000
  H     35.480400  -30.653600  -112.735000
  H     34.657200  -30.805000  -111.223000
  C     35.523700  -28.767900  -111.476000
  H     34.738800  -28.278100  -110.989000
  H     35.641800  -28.079600  -112.331000
  C     36.915500  -28.946800  -110.846000
  H     36.994100  -29.561100  -109.939000
  H     37.288600  -28.026200  -110.443000
  H     37.602300  -29.291300  -111.687000
  H     30.626600  -32.376700  -107.499000
  H     31.376500  -28.206500  -114.700000

 Total Charge           Charge          ....    0
 Multiplicity           Mult            ....    1
 Number of Electrons    NEL             ....  134
 Basis Dimension        Dim             ....  322

ORBITAL ENERGIES
----------------

  NO   OCC          E(Eh)            E(eV)
   0   2.0000     -88.969989     -2420.9965
   1   2.0000     -88.968659     -2420.9603
   2   2.0000     -10.343706      -281.4666
   3   2.0000     -10.335389      -281.2402
   4   2.0000     -10.323752      -280.9236
   5   2.0000     -10.316729      -280.7325
   6   2.0000     -10.315947      -280.7112
   7   2.0000     -10.302246      -280.3384
   8   2.0000     -10.299951      -280.2759
   9   2.0000     -10.298204      -280.2284
  10   2.0000     -10.294698      -280.1330
  11   2.0000     -10.293819      -280.1090
  12   2.0000     -10.289931      -280.0033
  13   2.0000     -10.289870      -280.0016
  14   2.0000     -10.288877      -279.9746
  15   2.0000     -10.274011      -279.5700
  16   2.0000      -8.084956      -220.0028
  17   2.0000      -8.081500      -219.9088
  18   2.0000      -6.043483      -164.4515
  19   2.0000      -6.040218      -164.3627
  20   2.0000      -6.039320      -164.3383
  21   2.0000      -6.036384      -164.2583
  22   2.0000      -6.035796      -164.2424
  23   2.0000      -6.032029      -164.1399
  24   2.0000      -1.004386       -27.3307
  25   2.0000      -0.972503       -26.4632
  26   2.0000      -0.911010       -24.7898
  27   2.0000      -0.903035       -24.5728
  28   2.0000      -0.861281       -23.4366
  29   2.0000      -0.850443       -23.1417
  30   2.0000      -0.842680       -22.9305
  31   2.0000      -0.809336       -22.0232
  32   2.0000      -0.785769       -21.3819
  33   2.0000      -0.774827       -21.0841
  34   2.0000      -0.710812       -19.3422
  35   2.0000      -0.705520       -19.1982
  36   2.0000      -0.696626       -18.9562
  37   2.0000      -0.658677       -17.9235
  38   2.0000      -0.637697       -17.3526
  39   2.0000      -0.618400       -16.8275
  40   2.0000      -0.589793       -16.0491
  41   2.0000      -0.569738       -15.5034
  42   2.0000      -0.562253       -15.2997
  43   2.0000      -0.550217       -14.9722
  44   2.0000      -0.540496       -14.7076
  45   2.0000      -0.523118       -14.2348
  46   2.0000      -0.517490       -14.0816
  47   2.0000      -0.514090       -13.9891
  48   2.0000      -0.503642       -13.7048
  49   2.0000      -0.495562       -13.4849
  50   2.0000      -0.487271       -13.2593
  51   2.0000      -0.484119       -13.1735
  52   2.0000      -0.477160       -12.9842
  53   2.0000      -0.464419       -12.6375
  54   2.0000      -0.461279       -12.5520
  55   2.0000      -0.448224       -12.1968
  56   2.0000      -0.440159       -11.9773
  57   2.0000      -0.437121       -11.8947
  58   2.0000      -0.434580       -11.8255
  59   2.0000      -0.433069       -11.7844
  60   2.0000      -0.421914       -11.4809
  61   2.0000      -0.412439       -11.2230
  62   2.0000      -0.410738       -11.1768
  63   2.0000      -0.349510        -9.5106
  64   2.0000      -0.331866        -9.0305
  65   2.0000      -0.329762        -8.9733
  66   2.0000      -0.289592        -7.8802
  67   0.0000       0.023489         0.6392
  68   0.0000       0.063954         1.7403
  69   0.0000       0.100588         2.7371
  70   0.0000       0.119363         3.2480
  71   0.0000       0.124253         3.3811

MULLIKEN ATOMIC CHARGES
-----------------------
   0 S :    0.116461
   1 C :   -0.132819
   2 C :   -0.088067
   3 C :    0.011828
   4 C :   -0.138023
   5 H :    0.005133
   6 C :    0.067567
   7 H :    0.025926
   8 H :    0.023119
   9 C :   -0.067293
  10 H :    0.030139
  11 H :    0.035792
  12 C :   -0.045987
  13 H :    0.018706
  14 H :    0.030518
  15 H :    0.035972
  16 S :    0.082891
  17 C :   -0.085871
  18 C :   -0.027717
  19 C :   -0.084753
  20 C :   -0.114161
  21 H :    0.032915
  22 C :    0.035070
  23 H :    0.039917
  24 H :    0.024900
  25 C :   -0.064130
  26 H :    0.018242
  27 H :    0.022881
  28 C :   -0.033090
  29 H :    0.034375
  30 H :    0.027511
  31 H :    0.049823
  32 H :    0.056454
  33 H :    0.055771
Sum of atomic charges:   -0.0000000

LOEWDIN ATOMIC CHARGES
----------------------
   0 S :    0.427463
   1 C :   -0.202265
   2 C :   -0.068667
   3 C :   -0.063675
   4 C :   -0.209350
   5 H :    0.027576
   6 C :   -0.031324
   7 H :    0.030730
   8 H :    0.031299
   9 C :   -0.025376
  10 H :    0.023404
  11 H :    0.021541
  12 C :   -0.065135
  13 H :    0.019109
  14 H :    0.025981
  15 H :    0.022505
  16 S :    0.357646
  17 C :   -0.171162
  18 C :   -0.073265
  19 C :   -0.051342
  20 C :   -0.166969
  21 H :    0.035455
  22 C :   -0.036808
  23 H :    0.032492
  24 H :    0.029531
  25 C :   -0.044447
  26 H :    0.015872
  27 H :    0.028317
  28 C :   -0.068977
  29 H :    0.026229
  30 H :    0.025130
  31 H :    0.039580
  32 H :    0.032228
  33 H :    0.026675

  Mayer bond orders larger than 0.100000
B(  0-S ,  1-C ) :   1.1464 B(  0-S ,  4-C ) :   1.1715 B(  1-C ,  2-C ) :   1.5728
B(  1-C , 32-H ) :   0.9648 B(  2-C ,  3-C ) :   1.2853 B(  2-C ,  6-C ) :   1.0358
B(  3-C ,  4-C ) :   1.5198 B(  3-C ,  5-H ) :   0.9898 B(  4-C , 20-C ) :   1.0283
B(  6-C ,  7-H ) :   0.9317 B(  6-C ,  8-H ) :   0.9392 B(  6-C ,  9-C ) :   1.0653
B(  9-C , 10-H ) :   0.9578 B(  9-C , 11-H ) :   0.9601 B(  9-C , 12-C ) :   1.0702
B( 12-C , 13-H ) :   0.9725 B( 12-C , 14-H ) :   0.9720 B( 12-C , 15-H ) :   0.9793
B( 16-S , 17-C ) :   1.1428 B( 16-S , 20-C ) :   1.1124 B( 17-C , 18-C ) :   1.6344
B( 17-C , 33-H ) :   0.9669 B( 18-C , 19-C ) :   1.2136 B( 18-C , 21-H ) :   0.9837
B( 19-C , 20-C ) :   1.6299 B( 19-C , 22-C ) :   1.0338 B( 22-C , 23-H ) :   0.9452
B( 22-C , 24-H ) :   0.9384 B( 22-C , 25-C ) :   1.0402 B( 25-C , 26-H ) :   0.9550
B( 25-C , 27-H ) :   0.9524 B( 25-C , 28-C ) :   1.0717 B( 28-C , 29-H ) :   0.9769
B( 28-C , 30-H ) :   0.9725 B( 28-C , 31-H ) :   0.9713

Dispersion correction           -0.014391116
FINAL SINGLE POINT ENERGY     -1339.863949745478

DIPOLE MOMENT
-------------
                                X             Y             Z
Electronic contribution:    -24.97863       0.86076     -16.57127
Nuclear contribution   :     25.67290      -0.61169      16.90685
                        -----------------------------------------
Total Dipole Moment    :      0.69427       0.24907       0.33558
                        -----------------------------------------
Magnitude (a.u.)       :      0.81034
Magnitude (Debye)      :      2.05973

Rotational constants in cm-1:     0.018090     0.008966     0.006318
Rotational constants in MHz :   542.339545   268.779504   189.410737

                             ****ORCA TERMINATED NORMALLY****
TOTAL RUN TIME: 0 days 0 hours 0 minutes 21 seconds 300 msec
