                         Program Version 4.2.1 -  RELEASE  -
|  1> ! wB97X-D3 SP def2-SVP
|  2> %pal
|  3> nprocs 24
|  4> end
|  5>
|  6> * xyz 0 1
|  7> S 	 14.7308 	 -13.6742 	 -123.949
|  8> C 	 14.3433 	 -12.0822 	 -124.447
|  9> C 	 14.7569 	 -11.1322 	 -123.505
| 10> C 	 15.4139 	 -11.6885 	 -122.413
| 11> C 	 15.5486 	 -13.0992 	 -122.471
| 12> H 	 15.7421 	 -11.1761 	 -121.557
| 13> C 	 14.6189 	 -9.64862 	 -123.817
| 14> H 	 15.1181 	 -9.59037 	 -124.788
| 15> H 	 15.2856 	 -9.03398 	 -123.15
| 16> C 	 13.2114 	 -9.17517 	 -124.139
| 17> H 	 12.8824 	 -9.55184 	 -125.074
| 18> H 	 12.5217 	 -9.4781 	 -123.31
| 19> C 	 13.2105 	 -7.6798 	 -124.138
| 20> H 	 12.2214 	 -7.27939 	 -124.368
| 21> H 	 13.515 	 -7.15176 	 -123.217
| 22> H 	 13.7628 	 -7.4321 	 -125.016
| 23> S 	 15.4406 	 -15.1058 	 -120.628
| 24> C 	 16.8152 	 -15.4162 	 -119.54
| 25> C 	 17.9417 	 -14.7923 	 -120.035
| 26> C 	 17.6369 	 -13.8395 	 -121.043
| 27> C 	 16.373 	 -13.9336 	 -121.562
| 28> H 	 18.898 	 -14.9189 	 -119.542
| 29> C 	 18.5718 	 -12.6975 	 -121.373
| 30> H 	 19.4298 	 -12.7279 	 -120.674
| 31> H 	 18.1317 	 -11.7691 	 -121.098
| 32> C 	 18.9825 	 -12.5851 	 -122.885
| 33> H 	 19.791 	 -11.8792 	 -122.859
| 34> H 	 18.0946 	 -12.2808 	 -123.42
| 35> C 	 19.5182 	 -13.8496 	 -123.568
| 36> H 	 20.1751 	 -14.4612 	 -122.916
| 37> H 	 19.9409 	 -13.5904 	 -124.526
| 38> H 	 18.6721 	 -14.5482 	 -123.796
| 39> H 	 13.9471 	 -11.7244 	 -125.358
| 40> H 	 16.8443 	 -16.1707 	 -118.763
| 41> *
| 42>
| 43>                          ****END OF INPUT****

CARTESIAN COORDINATES (ANGSTROEM)
---------------------------------
  S     14.730800  -13.674200  -123.949000
  C     14.343300  -12.082200  -124.447000
  C     14.756900  -11.132200  -123.505000
  C     15.413900  -11.688500  -122.413000
  C     15.548600  -13.099200  -122.471000
  H     15.742100  -11.176100  -121.557000
  C     14.618900   -9.648620  -123.817000
  H     15.118100   -9.590370  -124.788000
  H     15.285600   -9.033980  -123.150000
  C     13.211400   -9.175170  -124.139000
  H     12.882400   -9.551840  -125.074000
  H     12.521700   -9.478100  -123.310000
  C     13.210500   -7.679800  -124.138000
  H     12.221400   -7.279390  -124.368000
  H     13.515000   -7.151760  -123.217000
  H     13.762800   -7.432100  -125.016000
  S     15.440600  -15.105800  -120.628000
  C     16.815200  -15.416200  -119.540000
  C     17.941700  -14.792300  -120.035000
  C     17.636900  -13.839500  -121.043000
  C     16.373000  -13.933600  -121.562000
  H     18.898000  -14.918900  -119.542000
  C     18.571800  -12.697500  -121.373000
  H     19.429800  -12.727900  -120.674000
  H     18.131700  -11.769100  -121.098000
  C     18.982500  -12.585100  -122.885000
  H     19.791000  -11.879200  -122.859000
  H     18.094600  -12.280800  -123.420000
  C     19.518200  -13.849600  -123.568000
  H     20.175100  -14.461200  -122.916000
  H     19.940900  -13.590400  -124.526000
  H     18.672100  -14.548200  -123.796000
  H     13.947100  -11.724400  -125.358000
  H     16.844300  -16.170700  -118.763000

 Total Charge           Charge          ....    0
 Multiplicity           Mult            ....    1
 Number of Electrons    NEL             ....  134
 Basis Dimension        Dim             ....  322

ORBITAL ENERGIES
----------------

  NO   OCC          E(Eh)            E(eV)
   0   2.0000     -88.973058     -2421.0800
   1   2.0000     -88.961181     -2420.7568
   2   2.0000     -10.336511      -281.2708
   3   2.0000     -10.326878      -281.0086
   4   2.0000     -10.320694      -280.8404
   5   2.0000     -10.309396      -280.5329
   6   2.0000     -10.301747      -280.3248
   7   2.0000     -10.297131      -280.1992
   8   2.0000     -10.294873      -280.1377
   9   2.0000     -10.294208      -280.1197
  10   2.0000     -10.292620      -280.0764
  11   2.0000     -10.288827      -279.9732
  12   2.0000     -10.286676      -279.9147
  13   2.0000     -10.280260      -279.7401
  14   2.0000     -10.275171      -279.6016
  15   2.0000     -10.273304      -279.5508
  16   2.0000      -8.087071      -220.0604
  17   2.0000      -8.075523      -219.7461
  18   2.0000      -6.045476      -164.5058
  19   2.0000      -6.041444      -164.3961
  20   2.0000      -6.038219      -164.3083
  21   2.0000      -6.034140      -164.1973
  22   2.0000      -6.030004      -164.0848
  23   2.0000      -6.026249      -163.9826
  24   2.0000      -1.004184       -27.3252
  25   2.0000      -0.985274       -26.8107
  26   2.0000      -0.919737       -25.0273
  27   2.0000      -0.901327       -24.5264
  28   2.0000      -0.869294       -23.6547
  29   2.0000      -0.855923       -23.2908
  30   2.0000      -0.842845       -22.9350
  31   2.0000      -0.816874       -22.2283
  32   2.0000      -0.780466       -21.2376
  33   2.0000      -0.768954       -20.9243
  34   2.0000      -0.708323       -19.2745
  35   2.0000      -0.700304       -19.0562
  36   2.0000      -0.684840       -18.6354
  37   2.0000      -0.665985       -18.1224
  38   2.0000      -0.643265       -17.5041
  39   2.0000      -0.617128       -16.7929
  40   2.0000      -0.590252       -16.0616
  41   2.0000      -0.578931       -15.7535
  42   2.0000      -0.571786       -15.5591
  43   2.0000      -0.555762       -15.1231
  44   2.0000      -0.538372       -14.6498
  45   2.0000      -0.524034       -14.2597
  46   2.0000      -0.523119       -14.2348
  47   2.0000      -0.511451       -13.9173
  48   2.0000      -0.501648       -13.6505
  49   2.0000      -0.496379       -13.5072
  50   2.0000      -0.485129       -13.2010
  51   2.0000      -0.483048       -13.1444
  52   2.0000      -0.477553       -12.9949
  53   2.0000      -0.469628       -12.7792
  54   2.0000      -0.456356       -12.4181
  55   2.0000      -0.450680       -12.2636
  56   2.0000      -0.438036       -11.9196
  57   2.0000      -0.434824       -11.8322
  58   2.0000      -0.431044       -11.7293
  59   2.0000      -0.421785       -11.4774
  60   2.0000      -0.415830       -11.3153
  61   2.0000      -0.413923       -11.2634
  62   2.0000      -0.408269       -11.1096
  63   2.0000      -0.344679        -9.3792
  64   2.0000      -0.333514        -9.0754
  65   2.0000      -0.323406        -8.8003
  66   2.0000      -0.292488        -7.9590
  67   0.0000       0.029462         0.8017
  68   0.0000       0.055335         1.5057
  69   0.0000       0.118464         3.2236
  70   0.0000       0.119189         3.2433
  71   0.0000       0.128151         3.4872

MULLIKEN ATOMIC CHARGES
-----------------------
   0 S :    0.138398
   1 C :   -0.097419
   2 C :   -0.064358
   3 C :    0.033107
   4 C :   -0.162783
   5 H :   -0.002282
   6 C :    0.022217
   7 H :    0.029478
   8 H :    0.032011
   9 C :   -0.060679
  10 H :    0.023310
  11 H :    0.040200
  12 C :   -0.032183
  13 H :    0.021116
  14 H :    0.045863
  15 H :    0.012027
  16 S :    0.085487
  17 C :   -0.090386
  18 C :   -0.033242
  19 C :   -0.052287
  20 C :   -0.145739
  21 H :    0.023702
  22 C :    0.068835
  23 H :    0.008085
  24 H :    0.019765
  25 C :   -0.062179
  26 H :    0.024603
  27 H :    0.049157
  28 C :   -0.057993
  29 H :    0.028845
  30 H :    0.036010
  31 H :    0.034087
  32 H :    0.026076
  33 H :    0.059151
Sum of atomic charges:   -0.0000000

LOEWDIN ATOMIC CHARGES
----------------------
   0 S :    0.426762
   1 C :   -0.209418
   2 C :   -0.064684
   3 C :   -0.056502
   4 C :   -0.195298
   5 H :    0.024475
   6 C :   -0.039648
   7 H :    0.036190
   8 H :    0.034790
   9 C :   -0.037022
  10 H :    0.019676
  11 H :    0.028281
  12 C :   -0.064689
  13 H :    0.024106
  14 H :    0.030323
  15 H :    0.020400
  16 S :    0.386417
  17 C :   -0.169018
  18 C :   -0.071257
  19 C :   -0.056970
  20 C :   -0.196359
  21 H :    0.033164
  22 C :   -0.029968
  23 H :    0.027827
  24 H :    0.026848
  25 C :   -0.034118
  26 H :    0.020954
  27 H :    0.027023
  28 C :   -0.071405
  29 H :    0.024661
  30 H :    0.024977
  31 H :    0.029738
  32 H :    0.020710
  33 H :    0.029032

  Mayer bond orders larger than 0.100000
B(  0-S ,  1-C ) :   1.1646 B(  0-S ,  4-C ) :   1.1722 B(  1-C ,  2-C ) :   1.5541
B(  1-C ,  4-C ) :   0.1172 B(  1-C , 32-H ) :   0.9714 B(  2-C ,  3-C ) :   1.3033
B(  2-C ,  6-C ) :   1.0086 B(  3-C ,  4-C ) :   1.5053 B(  3-C ,  5-H ) :   1.0086
B(  4-C , 20-C ) :   1.0102 B(  6-C ,  7-H ) :   0.9332 B(  6-C ,  8-H ) :   0.9563
B(  6-C ,  9-C ) :   1.0529 B(  9-C , 10-H ) :   0.9479 B(  9-C , 11-H ) :   0.9618
B(  9-C , 12-C ) :   1.0969 B( 12-C , 13-H ) :   0.9700 B( 12-C , 14-H ) :   0.9763
B( 12-C , 15-H ) :   0.9686 B( 16-S , 17-C ) :   1.1561 B( 16-S , 20-C ) :   1.1301
B( 17-C , 18-C ) :   1.6198 B( 17-C , 20-C ) :   0.1010 B( 17-C , 33-H ) :   0.9651
B( 18-C , 19-C ) :   1.2337 B( 18-C , 21-H ) :   0.9859 B( 19-C , 20-C ) :   1.6201
B( 19-C , 22-C ) :   1.0382 B( 22-C , 23-H ) :   0.9319 B( 22-C , 24-H ) :   0.9372
B( 22-C , 25-C ) :   1.0665 B( 25-C , 26-H ) :   0.9580 B( 25-C , 27-H ) :   0.9535
B( 25-C , 28-C ) :   1.0866 B( 28-C , 29-H ) :   0.9774 B( 28-C , 30-H ) :   0.9741
B( 28-C , 31-H ) :   0.9688

Dispersion correction           -0.014980968
FINAL SINGLE POINT ENERGY     -1339.865956044248

DIPOLE MOMENT
-------------
                                X             Y             Z
Electronic contribution:     -7.36997     -22.46377       8.30992
Nuclear contribution   :      7.68754      23.13874      -8.31479
                        -----------------------------------------
Total Dipole Moment    :      0.31756       0.67497      -0.00487
                        -----------------------------------------
Magnitude (a.u.)       :      0.74596
Magnitude (Debye)      :      1.89607

Rotational constants in cm-1:     0.022148     0.007654     0.006891
Rotational constants in MHz :   663.993496   229.460150   206.601773

                             ****ORCA TERMINATED NORMALLY****
TOTAL RUN TIME: 0 days 0 hours 0 minutes 22 seconds 36 msec
