                         Program Version 4.2.1 -  RELEASE  -
|  1> ! wB97X-D3 SP def2-SVP
|  2> %pal
|  3> nprocs 24
|  4> end
|  5>
|  6> * xyz 0 1
|  7> S 	 -117.186 	 41.8452 	 -112.255
|  8> C 	 -116.733 	 41.2408 	 -113.857
|  9> C 	 -115.378 	 40.9064 	 -113.839
| 10> C 	 -114.707 	 41.156 	 -112.576
| 11> C 	 -115.553 	 41.6283 	 -111.584
| 12> H 	 -113.665 	 40.9467 	 -112.404
| 13> C 	 -114.558 	 40.4102 	 -115.015
| 14> H 	 -113.525 	 40.8176 	 -114.927
| 15> H 	 -114.922 	 40.8224 	 -115.954
| 16> C 	 -114.574 	 38.875 	 -115.257
| 17> H 	 -114.526 	 38.331 	 -114.274
| 18> H 	 -115.519 	 38.5023 	 -115.618
| 19> C 	 -113.548 	 38.3559 	 -116.231
| 20> H 	 -112.478 	 38.6126 	 -116.017
| 21> H 	 -113.657 	 37.2985 	 -116.274
| 22> H 	 -113.766 	 38.7403 	 -117.231
| 23> S 	 -115.252 	 43.8016 	 -109.886
| 24> C 	 -114.67 	 43.553 	 -108.292
| 25> C 	 -114.142 	 42.2832 	 -108.161
| 26> C 	 -114.456 	 41.4126 	 -109.245
| 27> C 	 -115.181 	 42.0395 	 -110.229
| 28> H 	 -113.681 	 41.9255 	 -107.245
| 29> C 	 -114.148 	 39.9416 	 -109.34
| 30> H 	 -113.374 	 39.7429 	 -108.607
| 31> H 	 -113.728 	 39.8491 	 -110.368
| 32> C 	 -115.385 	 39.0699 	 -109.131
| 33> H 	 -116.12 	 39.4467 	 -109.863
| 34> H 	 -115.826 	 39.3324 	 -108.153
| 35> C 	 -115.085 	 37.6088 	 -109.433
| 36> H 	 -116.026 	 37.0089 	 -109.312
| 37> H 	 -114.342 	 37.1844 	 -108.763
| 38> H 	 -114.693 	 37.5543 	 -110.456
| 39> H 	 -117.457 	 41.1702 	 -114.642
| 40> H 	 -114.692 	 44.3727 	 -107.517
| 41> *
| 42>
| 43>                          ****END OF INPUT****

CARTESIAN COORDINATES (ANGSTROEM)
---------------------------------
  S    -117.186000   41.845200  -112.255000
  C    -116.733000   41.240800  -113.857000
  C    -115.378000   40.906400  -113.839000
  C    -114.707000   41.156000  -112.576000
  C    -115.553000   41.628300  -111.584000
  H    -113.665000   40.946700  -112.404000
  C    -114.558000   40.410200  -115.015000
  H    -113.525000   40.817600  -114.927000
  H    -114.922000   40.822400  -115.954000
  C    -114.574000   38.875000  -115.257000
  H    -114.526000   38.331000  -114.274000
  H    -115.519000   38.502300  -115.618000
  C    -113.548000   38.355900  -116.231000
  H    -112.478000   38.612600  -116.017000
  H    -113.657000   37.298500  -116.274000
  H    -113.766000   38.740300  -117.231000
  S    -115.252000   43.801600  -109.886000
  C    -114.670000   43.553000  -108.292000
  C    -114.142000   42.283200  -108.161000
  C    -114.456000   41.412600  -109.245000
  C    -115.181000   42.039500  -110.229000
  H    -113.681000   41.925500  -107.245000
  C    -114.148000   39.941600  -109.340000
  H    -113.374000   39.742900  -108.607000
  H    -113.728000   39.849100  -110.368000
  C    -115.385000   39.069900  -109.131000
  H    -116.120000   39.446700  -109.863000
  H    -115.826000   39.332400  -108.153000
  C    -115.085000   37.608800  -109.433000
  H    -116.026000   37.008900  -109.312000
  H    -114.342000   37.184400  -108.763000
  H    -114.693000   37.554300  -110.456000
  H    -117.457000   41.170200  -114.642000
  H    -114.692000   44.372700  -107.517000

 Total Charge           Charge          ....    0
 Multiplicity           Mult            ....    1
 Number of Electrons    NEL             ....  134
 Basis Dimension        Dim             ....  322

ORBITAL ENERGIES
----------------

  NO   OCC          E(Eh)            E(eV)
   0   2.0000     -88.965931     -2420.8861
   1   2.0000     -88.961067     -2420.7537
   2   2.0000     -10.334796      -281.2241
   3   2.0000     -10.323679      -280.9216
   4   2.0000     -10.321080      -280.8509
   5   2.0000     -10.321039      -280.8498
   6   2.0000     -10.307999      -280.4949
   7   2.0000     -10.300164      -280.2817
   8   2.0000     -10.299040      -280.2511
   9   2.0000     -10.295369      -280.1512
  10   2.0000     -10.293715      -280.1062
  11   2.0000     -10.289239      -279.9844
  12   2.0000     -10.288042      -279.9519
  13   2.0000     -10.283952      -279.8406
  14   2.0000     -10.279458      -279.7183
  15   2.0000     -10.278947      -279.7044
  16   2.0000      -8.079832      -219.8634
  17   2.0000      -8.076089      -219.7616
  18   2.0000      -6.038463      -164.3149
  19   2.0000      -6.034560      -164.2087
  20   2.0000      -6.034288      -164.2013
  21   2.0000      -6.030678      -164.1031
  22   2.0000      -6.030607      -164.1012
  23   2.0000      -6.026816      -163.9980
  24   2.0000      -1.003698       -27.3120
  25   2.0000      -0.980904       -26.6917
  26   2.0000      -0.912166       -24.8213
  27   2.0000      -0.908235       -24.7143
  28   2.0000      -0.868426       -23.6311
  29   2.0000      -0.851692       -23.1757
  30   2.0000      -0.846281       -23.0285
  31   2.0000      -0.811907       -22.0931
  32   2.0000      -0.780128       -21.2284
  33   2.0000      -0.768398       -20.9092
  34   2.0000      -0.703466       -19.1423
  35   2.0000      -0.699253       -19.0276
  36   2.0000      -0.689708       -18.7679
  37   2.0000      -0.662354       -18.0236
  38   2.0000      -0.647232       -17.6121
  39   2.0000      -0.618964       -16.8429
  40   2.0000      -0.592370       -16.1192
  41   2.0000      -0.567452       -15.4411
  42   2.0000      -0.561850       -15.2887
  43   2.0000      -0.555262       -15.1094
  44   2.0000      -0.526961       -14.3393
  45   2.0000      -0.525752       -14.3064
  46   2.0000      -0.518931       -14.1208
  47   2.0000      -0.513860       -13.9828
  48   2.0000      -0.507823       -13.8186
  49   2.0000      -0.496637       -13.5142
  50   2.0000      -0.491427       -13.3724
  51   2.0000      -0.486497       -13.2383
  52   2.0000      -0.465922       -12.6784
  53   2.0000      -0.462464       -12.5843
  54   2.0000      -0.459789       -12.5115
  55   2.0000      -0.450743       -12.2653
  56   2.0000      -0.445263       -12.1162
  57   2.0000      -0.438677       -11.9370
  58   2.0000      -0.433656       -11.8004
  59   2.0000      -0.419492       -11.4150
  60   2.0000      -0.417723       -11.3668
  61   2.0000      -0.415801       -11.3145
  62   2.0000      -0.409427       -11.1411
  63   2.0000      -0.340632        -9.2691
  64   2.0000      -0.329633        -8.9698
  65   2.0000      -0.325907        -8.8684
  66   2.0000      -0.299486        -8.1494
  67   0.0000       0.026948         0.7333
  68   0.0000       0.065039         1.7698
  69   0.0000       0.111084         3.0228
  70   0.0000       0.119783         3.2594
  71   0.0000       0.123695         3.3659

MULLIKEN ATOMIC CHARGES
-----------------------
   0 S :    0.099814
   1 C :   -0.115965
   2 C :   -0.075198
   3 C :    0.045806
   4 C :   -0.176699
   5 H :    0.024004
   6 C :    0.052770
   7 H :    0.032044
   8 H :    0.017870
   9 C :   -0.080478
  10 H :    0.025480
  11 H :    0.017160
  12 C :   -0.037306
  13 H :    0.037278
  14 H :    0.030592
  15 H :    0.025181
  16 S :    0.101200
  17 C :   -0.107886
  18 C :   -0.031642
  19 C :   -0.054251
  20 C :   -0.157194
  21 H :    0.014429
  22 C :    0.083281
  23 H :    0.012205
  24 H :    0.018195
  25 C :   -0.079502
  26 H :    0.036448
  27 H :    0.030504
  28 C :   -0.026130
  29 H :    0.045096
  30 H :    0.027783
  31 H :    0.033655
  32 H :    0.049536
  33 H :    0.081918
Sum of atomic charges:    0.0000000

LOEWDIN ATOMIC CHARGES
----------------------
   0 S :    0.388543
   1 C :   -0.182925
   2 C :   -0.061188
   3 C :   -0.057549
   4 C :   -0.191081
   5 H :    0.030866
   6 C :   -0.036303
   7 H :    0.034276
   8 H :    0.028490
   9 C :   -0.046184
  10 H :    0.024153
  11 H :    0.022281
  12 C :   -0.065128
  13 H :    0.027452
  14 H :    0.025057
  15 H :    0.024417
  16 S :    0.400393
  17 C :   -0.194664
  18 C :   -0.080433
  19 C :   -0.052554
  20 C :   -0.194261
  21 H :    0.030023
  22 C :   -0.031486
  23 H :    0.024475
  24 H :    0.032764
  25 C :   -0.042270
  26 H :    0.028715
  27 H :    0.026462
  28 C :   -0.065260
  29 H :    0.033411
  30 H :    0.021758
  31 H :    0.028884
  32 H :    0.026518
  33 H :    0.042348

  Mayer bond orders larger than 0.100000
B(  0-S ,  1-C ) :   1.1335 B(  0-S ,  4-C ) :   1.1465 B(  1-C ,  2-C ) :   1.5940
B(  1-C , 32-H ) :   0.9798 B(  2-C ,  3-C ) :   1.2397 B(  2-C ,  6-C ) :   1.0300
B(  3-C ,  4-C ) :   1.5707 B(  3-C ,  5-H ) :   0.9878 B(  4-C , 20-C ) :   1.0250
B(  6-C ,  7-H ) :   0.9496 B(  6-C ,  8-H ) :   0.9392 B(  6-C ,  9-C ) :   1.0498
B(  9-C , 10-H ) :   0.9584 B(  9-C , 11-H ) :   0.9509 B(  9-C , 12-C ) :   1.0889
B( 12-C , 13-H ) :   0.9757 B( 12-C , 14-H ) :   0.9715 B( 12-C , 15-H ) :   0.9717
B( 16-S , 17-C ) :   1.1751 B( 16-S , 20-C ) :   1.1356 B( 17-C , 18-C ) :   1.5742
B( 17-C , 20-C ) :   0.1020 B( 17-C , 33-H ) :   0.9616 B( 18-C , 19-C ) :   1.2581
B( 18-C , 21-H ) :   0.9916 B( 19-C , 20-C ) :   1.5963 B( 19-C , 22-C ) :   1.0391
B( 22-C , 23-H ) :   0.9274 B( 22-C , 24-H ) :   0.9233 B( 22-C , 25-C ) :   1.0691
B( 25-C , 26-H ) :   0.9537 B( 25-C , 27-H ) :   0.9515 B( 25-C , 28-C ) :   1.0792
B( 28-C , 29-H ) :   0.9730 B( 28-C , 30-H ) :   0.9749 B( 28-C , 31-H ) :   0.9713

Dispersion correction           -0.014343695
FINAL SINGLE POINT ENERGY     -1339.893983920584

DIPOLE MOMENT
-------------
                                X             Y             Z
Electronic contribution:    -10.40723      25.96433      10.01068
Nuclear contribution   :     10.77039     -26.43669     -10.16345
                        -----------------------------------------
Total Dipole Moment    :      0.36316      -0.47236      -0.15278
                        -----------------------------------------
Magnitude (a.u.)       :      0.61510
Magnitude (Debye)      :      1.56347

Rotational constants in cm-1:     0.018789     0.008433     0.006910
Rotational constants in MHz :   563.294790   252.810869   207.161788

                             ****ORCA TERMINATED NORMALLY****
TOTAL RUN TIME: 0 days 0 hours 0 minutes 20 seconds 668 msec
