                         Program Version 4.2.1 -  RELEASE  -
|  1> ! wB97X-D3 SP def2-SVP
|  2> %pal
|  3> nprocs 24
|  4> end
|  5>
|  6> * xyz 0 1
|  7> S 	 -70.8439 	 6.36828 	 15.18
|  8> C 	 -69.7354 	 7.59444 	 15.6644
|  9> C 	 -68.8992 	 7.20634 	 16.7509
| 10> C 	 -69.1956 	 5.89497 	 17.0915
| 11> C 	 -70.0743 	 5.20758 	 16.2539
| 12> H 	 -68.6674 	 5.23257 	 17.8014
| 13> C 	 -67.9601 	 8.17916 	 17.4243
| 14> H 	 -67.6282 	 7.86397 	 18.3921
| 15> H 	 -68.4655 	 9.12892 	 17.5944
| 16> C 	 -66.7074 	 8.48045 	 16.5915
| 17> H 	 -66.0194 	 9.09001 	 17.1185
| 18> H 	 -66.1481 	 7.579 	 16.3404
| 19> C 	 -66.9258 	 9.23835 	 15.3104
| 20> H 	 -67.5218 	 8.63865 	 14.6699
| 21> H 	 -67.6415 	 10.047 	 15.3425
| 22> H 	 -66.1007 	 9.63007 	 14.7457
| 23> S 	 -72.4385 	 3.82741 	 16.5545
| 24> C 	 -72.4935 	 2.05318 	 16.7278
| 25> C 	 -71.1774 	 1.58456 	 16.8824
| 26> C 	 -70.1431 	 2.58214 	 16.7332
| 27> C 	 -70.6558 	 3.87004 	 16.452
| 28> H 	 -70.9707 	 0.521178 	 17.043
| 29> C 	 -68.6952 	 2.23667 	 16.8549
| 30> H 	 -68.2333 	 3.0302 	 16.165
| 31> H 	 -68.4386 	 1.24168 	 16.4692
| 32> C 	 -68.1119 	 2.06976 	 18.2267
| 33> H 	 -68.5119 	 1.15001 	 18.6626
| 34> H 	 -68.2725 	 2.95762 	 18.8639
| 35> C 	 -66.5233 	 1.92018 	 18.1907
| 36> H 	 -66.0759 	 1.67118 	 19.1791
| 37> H 	 -66.1397 	 2.89761 	 18.0732
| 38> H 	 -66.1987 	 1.28829 	 17.3544
| 39> H 	 -69.7099 	 8.59237 	 15.2069
| 40> H 	 -73.3423 	 1.39359 	 16.8044
| 41> *
| 42>
| 43>                          ****END OF INPUT****

CARTESIAN COORDINATES (ANGSTROEM)
---------------------------------
  S    -70.843900    6.368280   15.180000
  C    -69.735400    7.594440   15.664400
  C    -68.899200    7.206340   16.750900
  C    -69.195600    5.894970   17.091500
  C    -70.074300    5.207580   16.253900
  H    -68.667400    5.232570   17.801400
  C    -67.960100    8.179160   17.424300
  H    -67.628200    7.863970   18.392100
  H    -68.465500    9.128920   17.594400
  C    -66.707400    8.480450   16.591500
  H    -66.019400    9.090010   17.118500
  H    -66.148100    7.579000   16.340400
  C    -66.925800    9.238350   15.310400
  H    -67.521800    8.638650   14.669900
  H    -67.641500   10.047000   15.342500
  H    -66.100700    9.630070   14.745700
  S    -72.438500    3.827410   16.554500
  C    -72.493500    2.053180   16.727800
  C    -71.177400    1.584560   16.882400
  C    -70.143100    2.582140   16.733200
  C    -70.655800    3.870040   16.452000
  H    -70.970700    0.521178   17.043000
  C    -68.695200    2.236670   16.854900
  H    -68.233300    3.030200   16.165000
  H    -68.438600    1.241680   16.469200
  C    -68.111900    2.069760   18.226700
  H    -68.511900    1.150010   18.662600
  H    -68.272500    2.957620   18.863900
  C    -66.523300    1.920180   18.190700
  H    -66.075900    1.671180   19.179100
  H    -66.139700    2.897610   18.073200
  H    -66.198700    1.288290   17.354400
  H    -69.709900    8.592370   15.206900
  H    -73.342300    1.393590   16.804400

 Total Charge           Charge          ....    0
 Multiplicity           Mult            ....    1
 Number of Electrons    NEL             ....  134
 Basis Dimension        Dim             ....  322

ORBITAL ENERGIES
----------------

  NO   OCC          E(Eh)            E(eV)
   0   2.0000     -88.973361     -2421.0882
   1   2.0000     -88.965679     -2420.8792
   2   2.0000     -10.335741      -281.2498
   3   2.0000     -10.332831      -281.1706
   4   2.0000     -10.322273      -280.8833
   5   2.0000     -10.321007      -280.8489
   6   2.0000     -10.307196      -280.4731
   7   2.0000     -10.306913      -280.4654
   8   2.0000     -10.299260      -280.2571
   9   2.0000     -10.298331      -280.2318
  10   2.0000     -10.296214      -280.1742
  11   2.0000     -10.294309      -280.1224
  12   2.0000     -10.292503      -280.0733
  13   2.0000     -10.283456      -279.8271
  14   2.0000     -10.281727      -279.7800
  15   2.0000     -10.267710      -279.3986
  16   2.0000      -8.088035      -220.0866
  17   2.0000      -8.079106      -219.8436
  18   2.0000      -6.046325      -164.5289
  19   2.0000      -6.042442      -164.4232
  20   2.0000      -6.039133      -164.3332
  21   2.0000      -6.037851      -164.2983
  22   2.0000      -6.033761      -164.1870
  23   2.0000      -6.029712      -164.0768
  24   2.0000      -1.006649       -27.3923
  25   2.0000      -0.978478       -26.6257
  26   2.0000      -0.918852       -25.0032
  27   2.0000      -0.910035       -24.7633
  28   2.0000      -0.866056       -23.5666
  29   2.0000      -0.857011       -23.3204
  30   2.0000      -0.843961       -22.9653
  31   2.0000      -0.813890       -22.1471
  32   2.0000      -0.787918       -21.4403
  33   2.0000      -0.772495       -21.0206
  34   2.0000      -0.711782       -19.3686
  35   2.0000      -0.699007       -19.0210
  36   2.0000      -0.692394       -18.8410
  37   2.0000      -0.661653       -18.0045
  38   2.0000      -0.647041       -17.6069
  39   2.0000      -0.617780       -16.8106
  40   2.0000      -0.594515       -16.1776
  41   2.0000      -0.578313       -15.7367
  42   2.0000      -0.570370       -15.5206
  43   2.0000      -0.549879       -14.9630
  44   2.0000      -0.544271       -14.8104
  45   2.0000      -0.524383       -14.2692
  46   2.0000      -0.519214       -14.1285
  47   2.0000      -0.512190       -13.9374
  48   2.0000      -0.506076       -13.7710
  49   2.0000      -0.497814       -13.5462
  50   2.0000      -0.489078       -13.3085
  51   2.0000      -0.480191       -13.0667
  52   2.0000      -0.479574       -13.0499
  53   2.0000      -0.466471       -12.6933
  54   2.0000      -0.456635       -12.4257
  55   2.0000      -0.447947       -12.1893
  56   2.0000      -0.442160       -12.0318
  57   2.0000      -0.437780       -11.9126
  58   2.0000      -0.434403       -11.8207
  59   2.0000      -0.429009       -11.6739
  60   2.0000      -0.417722       -11.3668
  61   2.0000      -0.413473       -11.2512
  62   2.0000      -0.411321       -11.1926
  63   2.0000      -0.349591        -9.5128
  64   2.0000      -0.336417        -9.1544
  65   2.0000      -0.327054        -8.8996
  66   2.0000      -0.287494        -7.8231
  67   0.0000       0.019604         0.5334
  68   0.0000       0.062802         1.7089
  69   0.0000       0.106022         2.8850
  70   0.0000       0.122283         3.3275
  71   0.0000       0.125914         3.4263

MULLIKEN ATOMIC CHARGES
-----------------------
   0 S :    0.132237
   1 C :   -0.135870
   2 C :   -0.072466
   3 C :    0.030521
   4 C :   -0.181254
   5 H :    0.012844
   6 C :    0.097710
   7 H :    0.016375
   8 H :    0.033142
   9 C :   -0.041132
  10 H :    0.018164
  11 H :    0.029800
  12 C :   -0.044537
  13 H :    0.010066
  14 H :   -0.000316
  15 H :    0.036621
  16 S :    0.087452
  17 C :   -0.086728
  18 C :   -0.040389
  19 C :   -0.022064
  20 C :   -0.136270
  21 H :    0.024362
  22 C :    0.006770
  23 H :    0.048130
  24 H :    0.017849
  25 C :   -0.074058
  26 H :    0.034752
  27 H :    0.033324
  28 C :   -0.049532
  29 H :    0.038736
  30 H :    0.016876
  31 H :    0.038546
  32 H :    0.061913
  33 H :    0.058428
Sum of atomic charges:   -0.0000000

LOEWDIN ATOMIC CHARGES
----------------------
   0 S :    0.433275
   1 C :   -0.202038
   2 C :   -0.064669
   3 C :   -0.058658
   4 C :   -0.207231
   5 H :    0.035143
   6 C :   -0.021329
   7 H :    0.029983
   8 H :    0.035111
   9 C :   -0.034138
  10 H :    0.018842
  11 H :    0.027513
  12 C :   -0.073131
  13 H :    0.018110
  14 H :    0.018505
  15 H :    0.027656
  16 S :    0.378910
  17 C :   -0.180832
  18 C :   -0.069947
  19 C :   -0.062148
  20 C :   -0.184085
  21 H :    0.031873
  22 C :   -0.049605
  23 H :    0.041769
  24 H :    0.032292
  25 C :   -0.036004
  26 H :    0.024393
  27 H :    0.020410
  28 C :   -0.066113
  29 H :    0.031268
  30 H :    0.018027
  31 H :    0.025118
  32 H :    0.029820
  33 H :    0.031911

  Mayer bond orders larger than 0.100000
B(  0-S ,  1-C ) :   1.1893 B(  0-S ,  4-C ) :   1.1608 B(  1-C ,  2-C ) :   1.5256
B(  1-C ,  4-C ) :   0.1132 B(  1-C , 32-H ) :   0.9588 B(  2-C ,  3-C ) :   1.3187
B(  2-C ,  6-C ) :   1.0201 B(  3-C ,  4-C ) :   1.5248 B(  3-C ,  5-H ) :   0.9825
B(  4-C , 20-C ) :   1.0437 B(  6-C ,  7-H ) :   0.9385 B(  6-C ,  8-H ) :   0.9425
B(  6-C ,  9-C ) :   1.0754 B(  9-C , 10-H ) :   0.9567 B(  9-C , 11-H ) :   0.9519
B(  9-C , 12-C ) :   1.0795 B( 12-C , 13-H ) :   0.9631 B( 12-C , 14-H ) :   0.9675
B( 12-C , 15-H ) :   0.9711 B( 16-S , 17-C ) :   1.1365 B( 16-S , 20-C ) :   1.1335
B( 17-C , 18-C ) :   1.6075 B( 17-C , 20-C ) :   0.1025 B( 17-C , 33-H ) :   0.9698
B( 18-C , 19-C ) :   1.2457 B( 18-C , 21-H ) :   0.9832 B( 19-C , 20-C ) :   1.5814
B( 19-C , 22-C ) :   1.0596 B( 22-C , 23-H ) :   0.9377 B( 22-C , 24-H ) :   0.9291
B( 22-C , 25-C ) :   1.0569 B( 25-C , 26-H ) :   0.9550 B( 25-C , 27-H ) :   0.9561
B( 25-C , 28-C ) :   1.0724 B( 28-C , 29-H ) :   0.9749 B( 28-C , 30-H ) :   0.9779
B( 28-C , 31-H ) :   0.9744

Dispersion correction           -0.014098600
FINAL SINGLE POINT ENERGY     -1339.864177870621

DIPOLE MOMENT
-------------
                                X             Y             Z
Electronic contribution:    -27.61744      -2.76965      -6.78404
Nuclear contribution   :     28.17491       2.79275       7.09266
                        -----------------------------------------
Total Dipole Moment    :      0.55747       0.02310       0.30862
                        -----------------------------------------
Magnitude (a.u.)       :      0.63761
Magnitude (Debye)      :      1.62068

Rotational constants in cm-1:     0.018526     0.008782     0.006315
Rotational constants in MHz :   555.404869   263.278560   189.331329

                             ****ORCA TERMINATED NORMALLY****
TOTAL RUN TIME: 0 days 0 hours 0 minutes 21 seconds 399 msec
