                         Program Version 4.2.1 -  RELEASE  -
|  1> ! wB97X-D3 SP def2-SVP
|  2> %pal
|  3> nprocs 24
|  4> end
|  5>
|  6> * xyz 0 1
|  7> S 	 -60.7223 	 16.0881 	 -92.5667
|  8> C 	 -59.1567 	 16.7505 	 -92.0511
|  9> C 	 -58.1692 	 16.3686 	 -92.9569
| 10> C 	 -58.7032 	 15.5126 	 -93.9754
| 11> C 	 -60.0449 	 15.2154 	 -93.8943
| 12> H 	 -58.159 	 15.1094 	 -94.8233
| 13> C 	 -56.6953 	 16.87 	 -92.9761
| 14> H 	 -56.017 	 16.0696 	 -93.2741
| 15> H 	 -56.4962 	 16.9928 	 -91.9607
| 16> C 	 -56.318 	 18.0723 	 -93.9034
| 17> H 	 -56.8267 	 19.0088 	 -93.5513
| 18> H 	 -55.2413 	 18.1604 	 -93.8216
| 19> C 	 -56.7636 	 17.8822 	 -95.3567
| 20> H 	 -56.3082 	 18.5461 	 -96.1465
| 21> H 	 -56.6364 	 16.8236 	 -95.7091
| 22> H 	 -57.8107 	 18.1213 	 -95.322
| 23> S 	 -61.9508 	 15.6244 	 -95.7214
| 24> C 	 -62.6062 	 14.3099 	 -96.7808
| 25> C 	 -61.9601 	 13.151 	 -96.4279
| 26> C 	 -60.9239 	 13.2812 	 -95.4066
| 27> C 	 -60.8522 	 14.5532 	 -94.9292
| 28> H 	 -62.2982 	 12.1835 	 -96.9713
| 29> C 	 -59.9513 	 12.2007 	 -94.9808
| 30> H 	 -58.9263 	 12.4073 	 -95.3497
| 31> H 	 -60.124 	 11.3635 	 -95.6432
| 32> C 	 -60.1349 	 11.6658 	 -93.5504
| 33> H 	 -61.1859 	 11.4178 	 -93.3022
| 34> H 	 -59.8494 	 12.4645 	 -92.9203
| 35> C 	 -59.1244 	 10.485 	 -93.2486
| 36> H 	 -59.4127 	 9.67705 	 -93.9447
| 37> H 	 -59.3074 	 10.2463 	 -92.195
| 38> H 	 -58.1829 	 10.8921 	 -93.4719
| 39> H 	 -58.9658 	 17.4119 	 -91.1438
| 40> H 	 -63.2792 	 14.5483 	 -97.6273
| 41> *
| 42>
| 43>                          ****END OF INPUT****

CARTESIAN COORDINATES (ANGSTROEM)
---------------------------------
  S    -60.722300   16.088100  -92.566700
  C    -59.156700   16.750500  -92.051100
  C    -58.169200   16.368600  -92.956900
  C    -58.703200   15.512600  -93.975400
  C    -60.044900   15.215400  -93.894300
  H    -58.159000   15.109400  -94.823300
  C    -56.695300   16.870000  -92.976100
  H    -56.017000   16.069600  -93.274100
  H    -56.496200   16.992800  -91.960700
  C    -56.318000   18.072300  -93.903400
  H    -56.826700   19.008800  -93.551300
  H    -55.241300   18.160400  -93.821600
  C    -56.763600   17.882200  -95.356700
  H    -56.308200   18.546100  -96.146500
  H    -56.636400   16.823600  -95.709100
  H    -57.810700   18.121300  -95.322000
  S    -61.950800   15.624400  -95.721400
  C    -62.606200   14.309900  -96.780800
  C    -61.960100   13.151000  -96.427900
  C    -60.923900   13.281200  -95.406600
  C    -60.852200   14.553200  -94.929200
  H    -62.298200   12.183500  -96.971300
  C    -59.951300   12.200700  -94.980800
  H    -58.926300   12.407300  -95.349700
  H    -60.124000   11.363500  -95.643200
  C    -60.134900   11.665800  -93.550400
  H    -61.185900   11.417800  -93.302200
  H    -59.849400   12.464500  -92.920300
  C    -59.124400   10.485000  -93.248600
  H    -59.412700    9.677050  -93.944700
  H    -59.307400   10.246300  -92.195000
  H    -58.182900   10.892100  -93.471900
  H    -58.965800   17.411900  -91.143800
  H    -63.279200   14.548300  -97.627300

 Total Charge           Charge          ....    0
 Multiplicity           Mult            ....    1
 Number of Electrons    NEL             ....  134
 Basis Dimension        Dim             ....  322

ORBITAL ENERGIES
----------------

  NO   OCC          E(Eh)            E(eV)
   0   2.0000     -88.967987     -2420.9420
   1   2.0000     -88.959137     -2420.7012
   2   2.0000     -10.328473      -281.0520
   3   2.0000     -10.325063      -280.9592
   4   2.0000     -10.325028      -280.9583
   5   2.0000     -10.324448      -280.9425
   6   2.0000     -10.307622      -280.4847
   7   2.0000     -10.306433      -280.4523
   8   2.0000     -10.304852      -280.4093
   9   2.0000     -10.293607      -280.1033
  10   2.0000     -10.293344      -280.0961
  11   2.0000     -10.292250      -280.0664
  12   2.0000     -10.290613      -280.0218
  13   2.0000     -10.281652      -279.7780
  14   2.0000     -10.280981      -279.7597
  15   2.0000     -10.277169      -279.6560
  16   2.0000      -8.082402      -219.9333
  17   2.0000      -8.073908      -219.7022
  18   2.0000      -6.040981      -164.3834
  19   2.0000      -6.036814      -164.2701
  20   2.0000      -6.033213      -164.1721
  21   2.0000      -6.032467      -164.1518
  22   2.0000      -6.028348      -164.0397
  23   2.0000      -6.024649      -163.9390
  24   2.0000      -1.007636       -27.4192
  25   2.0000      -0.981480       -26.7074
  26   2.0000      -0.907154       -24.6849
  27   2.0000      -0.903842       -24.5948
  28   2.0000      -0.868495       -23.6330
  29   2.0000      -0.845165       -22.9981
  30   2.0000      -0.839934       -22.8558
  31   2.0000      -0.815477       -22.1903
  32   2.0000      -0.781975       -21.2786
  33   2.0000      -0.770348       -20.9622
  34   2.0000      -0.703880       -19.1535
  35   2.0000      -0.696342       -18.9484
  36   2.0000      -0.690456       -18.7883
  37   2.0000      -0.660478       -17.9725
  38   2.0000      -0.638634       -17.3781
  39   2.0000      -0.612730       -16.6732
  40   2.0000      -0.591117       -16.0851
  41   2.0000      -0.573452       -15.6044
  42   2.0000      -0.560434       -15.2502
  43   2.0000      -0.544668       -14.8212
  44   2.0000      -0.541315       -14.7299
  45   2.0000      -0.530211       -14.4278
  46   2.0000      -0.520038       -14.1509
  47   2.0000      -0.507824       -13.8186
  48   2.0000      -0.500270       -13.6130
  49   2.0000      -0.496306       -13.5052
  50   2.0000      -0.488632       -13.2964
  51   2.0000      -0.473416       -12.8823
  52   2.0000      -0.471983       -12.8433
  53   2.0000      -0.464688       -12.6448
  54   2.0000      -0.456560       -12.4236
  55   2.0000      -0.446342       -12.1456
  56   2.0000      -0.442866       -12.0510
  57   2.0000      -0.434455       -11.8221
  58   2.0000      -0.428742       -11.6667
  59   2.0000      -0.420163       -11.4332
  60   2.0000      -0.415500       -11.3063
  61   2.0000      -0.414292       -11.2734
  62   2.0000      -0.407707       -11.0943
  63   2.0000      -0.345161        -9.3923
  64   2.0000      -0.331122        -9.0103
  65   2.0000      -0.325022        -8.8443
  66   2.0000      -0.302766        -8.2387
  67   0.0000       0.038615         1.0508
  68   0.0000       0.061471         1.6727
  69   0.0000       0.114651         3.1198
  70   0.0000       0.119089         3.2406
  71   0.0000       0.130255         3.5444

MULLIKEN ATOMIC CHARGES
-----------------------
   0 S :    0.116057
   1 C :   -0.155149
   2 C :   -0.097915
   3 C :    0.037145
   4 C :   -0.151495
   5 H :    0.008584
   6 C :    0.082005
   7 H :    0.023568
   8 H :    0.007791
   9 C :   -0.052286
  10 H :    0.036491
  11 H :    0.034257
  12 C :   -0.089801
  13 H :    0.047964
  14 H :    0.033129
  15 H :    0.046166
  16 S :    0.081219
  17 C :   -0.122573
  18 C :   -0.051593
  19 C :   -0.032449
  20 C :   -0.161306
  21 H :    0.053982
  22 C :    0.060863
  23 H :    0.033583
  24 H :   -0.010815
  25 C :   -0.091675
  26 H :    0.039144
  27 H :    0.031314
  28 C :   -0.023736
  29 H :    0.035746
  30 H :    0.047119
  31 H :    0.026298
  32 H :    0.077589
  33 H :    0.080776
Sum of atomic charges:   -0.0000000

LOEWDIN ATOMIC CHARGES
----------------------
   0 S :    0.411008
   1 C :   -0.203733
   2 C :   -0.066632
   3 C :   -0.064439
   4 C :   -0.210154
   5 H :    0.028599
   6 C :   -0.026801
   7 H :    0.031357
   8 H :    0.021484
   9 C :   -0.035498
  10 H :    0.028640
  11 H :    0.021971
  12 C :   -0.075094
  13 H :    0.033476
  14 H :    0.024355
  15 H :    0.027910
  16 S :    0.383999
  17 C :   -0.177621
  18 C :   -0.078269
  19 C :   -0.064366
  20 C :   -0.194319
  21 H :    0.047702
  22 C :   -0.042224
  23 H :    0.035794
  24 H :    0.024128
  25 C :   -0.034297
  26 H :    0.028156
  27 H :    0.016596
  28 C :   -0.053977
  29 H :    0.026172
  30 H :    0.031115
  31 H :    0.017807
  32 H :    0.046986
  33 H :    0.040167

  Mayer bond orders larger than 0.100000
B(  0-S ,  1-C ) :   1.1416 B(  0-S ,  4-C ) :   1.1522 B(  1-C ,  2-C ) :   1.6026
B(  1-C , 32-H ) :   0.9594 B(  2-C ,  3-C ) :   1.2474 B(  2-C ,  6-C ) :   1.0120
B(  3-C ,  4-C ) :   1.5797 B(  3-C ,  5-H ) :   0.9908 B(  4-C , 20-C ) :   1.0042
B(  6-C ,  7-H ) :   0.9429 B(  6-C ,  8-H ) :   0.9394 B(  6-C ,  9-C ) :   1.0646
B(  9-C , 10-H ) :   0.9603 B(  9-C , 11-H ) :   0.9577 B(  9-C , 12-C ) :   1.0675
B( 12-C , 13-H ) :   0.9733 B( 12-C , 14-H ) :   0.9750 B( 12-C , 15-H ) :   0.9732
B( 16-S , 17-C ) :   1.1268 B( 16-S , 20-C ) :   1.1521 B( 17-C , 18-C ) :   1.6361
B( 17-C , 33-H ) :   0.9676 B( 18-C , 19-C ) :   1.2168 B( 18-C , 21-H ) :   0.9705
B( 19-C , 20-C ) :   1.6350 B( 19-C , 22-C ) :   1.0410 B( 22-C , 23-H ) :   0.9350
B( 22-C , 24-H ) :   0.9206 B( 22-C , 25-C ) :   1.0501 B( 25-C , 26-H ) :   0.9572
B( 25-C , 27-H ) :   0.9586 B( 25-C , 28-C ) :   1.0701 B( 28-C , 29-H ) :   0.9801
B( 28-C , 30-H ) :   0.9763 B( 28-C , 31-H ) :   0.9767

Dispersion correction           -0.014712091
FINAL SINGLE POINT ENERGY     -1339.868975646153

DIPOLE MOMENT
-------------
                                X             Y             Z
Electronic contribution:    -20.12618       8.04783       0.10210
Nuclear contribution   :     20.63515      -8.21474      -0.29553
                        -----------------------------------------
Total Dipole Moment    :      0.50897      -0.16691      -0.19343
                        -----------------------------------------
Magnitude (a.u.)       :      0.56950
Magnitude (Debye)      :      1.44755

Rotational constants in cm-1:     0.017178     0.009110     0.007703
Rotational constants in MHz :   514.973310   273.106502   230.943282

                             ****ORCA TERMINATED NORMALLY****
TOTAL RUN TIME: 0 days 0 hours 0 minutes 20 seconds 582 msec
