                         Program Version 4.2.1 -  RELEASE  -
|  1> ! wB97X-D3 SP def2-SVP
|  2> %pal
|  3> nprocs 24
|  4> end
|  5>
|  6> * xyz 0 1
|  7> S 	 -110.609 	 53.1668 	 -78.6636
|  8> C 	 -111.831 	 52.1466 	 -79.4956
|  9> C 	 -112.018 	 50.8743 	 -78.9065
| 10> C 	 -111.351 	 50.8545 	 -77.6172
| 11> C 	 -110.66 	 52.0409 	 -77.3576
| 12> H 	 -111.186 	 50.0695 	 -76.8284
| 13> C 	 -112.825 	 49.8072 	 -79.5348
| 14> H 	 -113.576 	 50.2853 	 -80.1669
| 15> H 	 -113.409 	 49.3005 	 -78.797
| 16> C 	 -112.156 	 48.7701 	 -80.3594
| 17> H 	 -111.425 	 48.2446 	 -79.6559
| 18> H 	 -112.904 	 48.0071 	 -80.6746
| 19> C 	 -111.488 	 49.3367 	 -81.7002
| 20> H 	 -110.964 	 48.4859 	 -82.2315
| 21> H 	 -112.231 	 49.7826 	 -82.391
| 22> H 	 -110.671 	 49.9911 	 -81.428
| 23> S 	 -108.879 	 50.8828 	 -75.632
| 24> C 	 -108.262 	 51.7392 	 -74.2483
| 25> C 	 -108.699 	 53.0162 	 -74.291
| 26> C 	 -109.691 	 53.2863 	 -75.3233
| 27> C 	 -109.863 	 52.2428 	 -76.1764
| 28> H 	 -108.363 	 53.6581 	 -73.4866
| 29> C 	 -110.206 	 54.7295 	 -75.3838
| 30> H 	 -110.211 	 55.0681 	 -76.441
| 31> H 	 -109.47 	 55.3797 	 -74.9337
| 32> C 	 -111.598 	 55.0722 	 -74.8093
| 33> H 	 -112.389 	 54.5486 	 -75.3856
| 34> H 	 -111.807 	 56.124 	 -75.0203
| 35> C 	 -111.665 	 54.8703 	 -73.3173
| 36> H 	 -111.096 	 55.4969 	 -72.7052
| 37> H 	 -111.299 	 53.9072 	 -73.031
| 38> H 	 -112.678 	 55.0256 	 -72.7938
| 39> H 	 -112.404 	 52.4928 	 -80.3872
| 40> H 	 -107.581 	 51.3663 	 -73.4785
| 41> *
| 42>
| 43>                          ****END OF INPUT****

CARTESIAN COORDINATES (ANGSTROEM)
---------------------------------
  S    -110.609000   53.166800  -78.663600
  C    -111.831000   52.146600  -79.495600
  C    -112.018000   50.874300  -78.906500
  C    -111.351000   50.854500  -77.617200
  C    -110.660000   52.040900  -77.357600
  H    -111.186000   50.069500  -76.828400
  C    -112.825000   49.807200  -79.534800
  H    -113.576000   50.285300  -80.166900
  H    -113.409000   49.300500  -78.797000
  C    -112.156000   48.770100  -80.359400
  H    -111.425000   48.244600  -79.655900
  H    -112.904000   48.007100  -80.674600
  C    -111.488000   49.336700  -81.700200
  H    -110.964000   48.485900  -82.231500
  H    -112.231000   49.782600  -82.391000
  H    -110.671000   49.991100  -81.428000
  S    -108.879000   50.882800  -75.632000
  C    -108.262000   51.739200  -74.248300
  C    -108.699000   53.016200  -74.291000
  C    -109.691000   53.286300  -75.323300
  C    -109.863000   52.242800  -76.176400
  H    -108.363000   53.658100  -73.486600
  C    -110.206000   54.729500  -75.383800
  H    -110.211000   55.068100  -76.441000
  H    -109.470000   55.379700  -74.933700
  C    -111.598000   55.072200  -74.809300
  H    -112.389000   54.548600  -75.385600
  H    -111.807000   56.124000  -75.020300
  C    -111.665000   54.870300  -73.317300
  H    -111.096000   55.496900  -72.705200
  H    -111.299000   53.907200  -73.031000
  H    -112.678000   55.025600  -72.793800
  H    -112.404000   52.492800  -80.387200
  H    -107.581000   51.366300  -73.478500

 Total Charge           Charge          ....    0
 Multiplicity           Mult            ....    1
 Number of Electrons    NEL             ....  134
 Basis Dimension        Dim             ....  322

ORBITAL ENERGIES
----------------

  NO   OCC          E(Eh)            E(eV)
   0   2.0000     -88.972973     -2421.0777
   1   2.0000     -88.961491     -2420.7652
   2   2.0000     -10.327798      -281.0337
   3   2.0000     -10.324645      -280.9479
   4   2.0000     -10.323049      -280.9044
   5   2.0000     -10.314594      -280.6744
   6   2.0000     -10.310888      -280.5735
   7   2.0000     -10.304118      -280.3893
   8   2.0000     -10.302468      -280.3444
   9   2.0000     -10.295565      -280.1566
  10   2.0000     -10.291507      -280.0462
  11   2.0000     -10.290222      -280.0112
  12   2.0000     -10.286139      -279.9001
  13   2.0000     -10.285891      -279.8933
  14   2.0000     -10.284578      -279.8576
  15   2.0000     -10.269314      -279.4422
  16   2.0000      -8.086966      -220.0575
  17   2.0000      -8.076419      -219.7705
  18   2.0000      -6.045372      -164.5029
  19   2.0000      -6.041800      -164.4057
  20   2.0000      -6.037673      -164.2934
  21   2.0000      -6.035052      -164.2221
  22   2.0000      -6.030876      -164.1085
  23   2.0000      -6.027042      -164.0041
  24   2.0000      -1.008657       -27.4470
  25   2.0000      -0.982258       -26.7286
  26   2.0000      -0.917944       -24.9785
  27   2.0000      -0.905060       -24.6279
  28   2.0000      -0.869474       -23.6596
  29   2.0000      -0.849143       -23.1064
  30   2.0000      -0.841014       -22.8852
  31   2.0000      -0.809662       -22.0320
  32   2.0000      -0.785592       -21.3770
  33   2.0000      -0.775944       -21.1145
  34   2.0000      -0.712257       -19.3815
  35   2.0000      -0.696526       -18.9534
  36   2.0000      -0.687368       -18.7042
  37   2.0000      -0.664671       -18.0866
  38   2.0000      -0.632497       -17.2111
  39   2.0000      -0.613214       -16.6864
  40   2.0000      -0.589959       -16.0536
  41   2.0000      -0.569646       -15.5009
  42   2.0000      -0.550639       -14.9837
  43   2.0000      -0.547048       -14.8859
  44   2.0000      -0.546484       -14.8706
  45   2.0000      -0.541075       -14.7234
  46   2.0000      -0.514230       -13.9929
  47   2.0000      -0.511132       -13.9086
  48   2.0000      -0.498804       -13.5732
  49   2.0000      -0.491303       -13.3690
  50   2.0000      -0.487230       -13.2582
  51   2.0000      -0.477157       -12.9841
  52   2.0000      -0.475527       -12.9397
  53   2.0000      -0.466997       -12.7076
  54   2.0000      -0.458536       -12.4774
  55   2.0000      -0.452193       -12.3048
  56   2.0000      -0.437544       -11.9062
  57   2.0000      -0.434805       -11.8317
  58   2.0000      -0.424676       -11.5560
  59   2.0000      -0.423625       -11.5274
  60   2.0000      -0.421259       -11.4630
  61   2.0000      -0.414289       -11.2734
  62   2.0000      -0.406865       -11.0714
  63   2.0000      -0.345908        -9.4126
  64   2.0000      -0.334446        -9.1007
  65   2.0000      -0.328309        -8.9337
  66   2.0000      -0.293126        -7.9764
  67   0.0000       0.023745         0.6461
  68   0.0000       0.076378         2.0783
  69   0.0000       0.098922         2.6918
  70   0.0000       0.110821         3.0156
  71   0.0000       0.124202         3.3797

MULLIKEN ATOMIC CHARGES
-----------------------
   0 S :    0.121939
   1 C :   -0.141875
   2 C :   -0.071077
   3 C :   -0.014431
   4 C :   -0.142835
   5 H :    0.041604
   6 C :    0.097750
   7 H :    0.010074
   8 H :    0.018930
   9 C :   -0.099558
  10 H :    0.037766
  11 H :    0.039969
  12 C :   -0.081144
  13 H :    0.040598
  14 H :    0.042634
  15 H :    0.047772
  16 S :    0.085532
  17 C :   -0.090599
  18 C :   -0.045366
  19 C :   -0.023098
  20 C :   -0.147827
  21 H :    0.021070
  22 C :    0.032075
  23 H :    0.025166
  24 H :    0.019106
  25 C :   -0.027848
  26 H :    0.040335
  27 H :    0.024686
  28 C :   -0.045123
  29 H :    0.001086
  30 H :    0.022410
  31 H :    0.034893
  32 H :    0.062883
  33 H :    0.062504
Sum of atomic charges:    0.0000000

LOEWDIN ATOMIC CHARGES
----------------------
   0 S :    0.407777
   1 C :   -0.189418
   2 C :   -0.051575
   3 C :   -0.071439
   4 C :   -0.200789
   5 H :    0.037431
   6 C :   -0.042676
   7 H :    0.031281
   8 H :    0.030909
   9 C :   -0.042364
  10 H :    0.030063
  11 H :    0.028582
  12 C :   -0.074315
  13 H :    0.032871
  14 H :    0.027555
  15 H :    0.025247
  16 S :    0.397640
  17 C :   -0.187390
  18 C :   -0.075889
  19 C :   -0.059704
  20 C :   -0.191584
  21 H :    0.030980
  22 C :   -0.033802
  23 H :    0.027319
  24 H :    0.028310
  25 C :   -0.038459
  26 H :    0.030893
  27 H :    0.025952
  28 C :   -0.075121
  29 H :    0.014626
  30 H :    0.021169
  31 H :    0.035665
  32 H :    0.032577
  33 H :    0.037679

  Mayer bond orders larger than 0.100000
B(  0-S ,  1-C ) :   1.1277 B(  0-S ,  4-C ) :   1.1553 B(  1-C ,  2-C ) :   1.6085
B(  1-C , 32-H ) :   0.9618 B(  2-C ,  3-C ) :   1.2057 B(  2-C ,  6-C ) :   1.0365
B(  3-C ,  4-C ) :   1.5745 B(  3-C ,  5-H ) :   0.9810 B(  4-C , 20-C ) :   1.0614
B(  6-C ,  7-H ) :   0.9301 B(  6-C ,  8-H ) :   0.9304 B(  6-C ,  9-C ) :   1.0807
B(  9-C , 10-H ) :   0.9549 B(  9-C , 11-H ) :   0.9539 B(  9-C , 12-C ) :   1.0655
B( 12-C , 13-H ) :   0.9752 B( 12-C , 14-H ) :   0.9748 B( 12-C , 15-H ) :   0.9763
B( 16-S , 17-C ) :   1.1351 B( 16-S , 20-C ) :   1.1197 B( 17-C , 18-C ) :   1.6527
B( 17-C , 33-H ) :   0.9641 B( 18-C , 19-C ) :   1.1982 B( 18-C , 21-H ) :   0.9873
B( 19-C , 20-C ) :   1.6262 B( 19-C , 22-C ) :   1.0279 B( 22-C , 23-H ) :   0.9352
B( 22-C , 24-H ) :   0.9410 B( 22-C , 25-C ) :   1.0790 B( 25-C , 26-H ) :   0.9562
B( 25-C , 27-H ) :   0.9521 B( 25-C , 28-C ) :   1.0695 B( 28-C , 29-H ) :   0.9707
B( 28-C , 30-H ) :   0.9760 B( 28-C , 31-H ) :   0.9720

Dispersion correction           -0.014467559
FINAL SINGLE POINT ENERGY     -1339.872826844464

DIPOLE MOMENT
-------------
                                X             Y             Z
Electronic contribution:     11.60559      -0.28652       2.33900
Nuclear contribution   :    -11.77691       0.33062      -2.27340
                        -----------------------------------------
Total Dipole Moment    :     -0.17132       0.04410       0.06560
                        -----------------------------------------
Magnitude (a.u.)       :      0.18868
Magnitude (Debye)      :      0.47958

Rotational constants in cm-1:     0.024204     0.007604     0.006564
Rotational constants in MHz :   725.627198   227.971810   196.796143

                             ****ORCA TERMINATED NORMALLY****
TOTAL RUN TIME: 0 days 0 hours 0 minutes 20 seconds 152 msec
