                         Program Version 4.2.1 -  RELEASE  -
|  1> ! wB97X-D3 SP def2-SVP
|  2> %pal
|  3> nprocs 24
|  4> end
|  5>
|  6> * xyz 0 1
|  7> S 	 -84.0085 	 -0.375477 	 -115.01
|  8> C 	 -83.3315 	 -0.485921 	 -116.578
|  9> C 	 -84.2182 	 -0.955498 	 -117.488
| 10> C 	 -85.4312 	 -1.35129 	 -116.894
| 11> C 	 -85.5433 	 -1.06761 	 -115.517
| 12> H 	 -86.2965 	 -1.84413 	 -117.38
| 13> C 	 -83.8123 	 -1.23643 	 -118.929
| 14> H 	 -82.9253 	 -1.87196 	 -118.928
| 15> H 	 -83.4807 	 -0.287088 	 -119.387
| 16> C 	 -84.8151 	 -1.888 	 -119.836
| 17> H 	 -84.2779 	 -2.31665 	 -120.667
| 18> H 	 -85.2516 	 -2.75896 	 -119.377
| 19> C 	 -85.8656 	 -0.806412 	 -120.35
| 20> H 	 -86.359 	 -0.314367 	 -119.482
| 21> H 	 -85.427 	 -0.0355049 	 -121.015
| 22> H 	 -86.7304 	 -1.19157 	 -120.878
| 23> S 	 -86.475 	 -2.38931 	 -113.307
| 24> C 	 -88.1399 	 -2.30386 	 -112.898
| 25> C 	 -88.8859 	 -1.40903 	 -113.669
| 26> C 	 -87.9927 	 -0.747355 	 -114.623
| 27> C 	 -86.6989 	 -1.28809 	 -114.662
| 28> H 	 -89.934 	 -1.19058 	 -113.419
| 29> C 	 -88.5528 	 0.347033 	 -115.561
| 30> H 	 -89.466 	 -0.0333255 	 -115.885
| 31> H 	 -87.9082 	 0.508768 	 -116.426
| 32> C 	 -88.7864 	 1.71457 	 -115.016
| 33> H 	 -89.305 	 1.69492 	 -114.1
| 34> H 	 -89.329 	 2.25106 	 -115.807
| 35> C 	 -87.5472 	 2.49089 	 -114.683
| 36> H 	 -87.8565 	 3.47281 	 -114.409
| 37> H 	 -86.8024 	 2.55328 	 -115.53
| 38> H 	 -87.1022 	 1.94969 	 -113.792
| 39> H 	 -82.3255 	 -0.282811 	 -116.856
| 40> H 	 -88.4997 	 -2.6559 	 -111.926
| 41> *
| 42>
| 43>                          ****END OF INPUT****

CARTESIAN COORDINATES (ANGSTROEM)
---------------------------------
  S    -84.008500   -0.375477  -115.010000
  C    -83.331500   -0.485921  -116.578000
  C    -84.218200   -0.955498  -117.488000
  C    -85.431200   -1.351290  -116.894000
  C    -85.543300   -1.067610  -115.517000
  H    -86.296500   -1.844130  -117.380000
  C    -83.812300   -1.236430  -118.929000
  H    -82.925300   -1.871960  -118.928000
  H    -83.480700   -0.287088  -119.387000
  C    -84.815100   -1.888000  -119.836000
  H    -84.277900   -2.316650  -120.667000
  H    -85.251600   -2.758960  -119.377000
  C    -85.865600   -0.806412  -120.350000
  H    -86.359000   -0.314367  -119.482000
  H    -85.427000   -0.035505  -121.015000
  H    -86.730400   -1.191570  -120.878000
  S    -86.475000   -2.389310  -113.307000
  C    -88.139900   -2.303860  -112.898000
  C    -88.885900   -1.409030  -113.669000
  C    -87.992700   -0.747355  -114.623000
  C    -86.698900   -1.288090  -114.662000
  H    -89.934000   -1.190580  -113.419000
  C    -88.552800    0.347033  -115.561000
  H    -89.466000   -0.033325  -115.885000
  H    -87.908200    0.508768  -116.426000
  C    -88.786400    1.714570  -115.016000
  H    -89.305000    1.694920  -114.100000
  H    -89.329000    2.251060  -115.807000
  C    -87.547200    2.490890  -114.683000
  H    -87.856500    3.472810  -114.409000
  H    -86.802400    2.553280  -115.530000
  H    -87.102200    1.949690  -113.792000
  H    -82.325500   -0.282811  -116.856000
  H    -88.499700   -2.655900  -111.926000

 Total Charge           Charge          ....    0
 Multiplicity           Mult            ....    1
 Number of Electrons    NEL             ....  134
 Basis Dimension        Dim             ....  322

ORBITAL ENERGIES
----------------

  NO   OCC          E(Eh)            E(eV)
   0   2.0000     -88.966364     -2420.8978
   1   2.0000     -88.964603     -2420.8499
   2   2.0000     -10.329958      -281.0925
   3   2.0000     -10.328754      -281.0597
   4   2.0000     -10.318980      -280.7937
   5   2.0000     -10.312916      -280.6287
   6   2.0000     -10.305246      -280.4200
   7   2.0000     -10.302095      -280.3342
   8   2.0000     -10.295915      -280.1661
   9   2.0000     -10.294461      -280.1265
  10   2.0000     -10.290990      -280.0321
  11   2.0000     -10.287999      -279.9507
  12   2.0000     -10.284085      -279.8442
  13   2.0000     -10.281220      -279.7662
  14   2.0000     -10.273943      -279.5682
  15   2.0000     -10.272555      -279.5304
  16   2.0000      -8.081330      -219.9042
  17   2.0000      -8.080028      -219.8687
  18   2.0000      -6.039759      -164.3502
  19   2.0000      -6.038409      -164.3135
  20   2.0000      -6.035642      -164.2382
  21   2.0000      -6.034407      -164.2045
  22   2.0000      -6.032322      -164.1478
  23   2.0000      -6.030900      -164.1091
  24   2.0000      -1.006810       -27.3967
  25   2.0000      -0.986517       -26.8445
  26   2.0000      -0.915901       -24.9229
  27   2.0000      -0.912096       -24.8194
  28   2.0000      -0.869820       -23.6690
  29   2.0000      -0.848527       -23.0896
  30   2.0000      -0.840372       -22.8677
  31   2.0000      -0.813520       -22.1370
  32   2.0000      -0.784484       -21.3469
  33   2.0000      -0.774022       -21.0622
  34   2.0000      -0.713096       -19.4043
  35   2.0000      -0.694227       -18.8909
  36   2.0000      -0.683525       -18.5997
  37   2.0000      -0.655696       -17.8424
  38   2.0000      -0.639382       -17.3985
  39   2.0000      -0.622000       -16.9255
  40   2.0000      -0.601532       -16.3685
  41   2.0000      -0.570981       -15.5372
  42   2.0000      -0.556620       -15.1464
  43   2.0000      -0.553129       -15.0514
  44   2.0000      -0.546612       -14.8741
  45   2.0000      -0.528397       -14.3784
  46   2.0000      -0.517159       -14.0726
  47   2.0000      -0.507618       -13.8130
  48   2.0000      -0.504658       -13.7324
  49   2.0000      -0.495481       -13.4827
  50   2.0000      -0.487343       -13.2613
  51   2.0000      -0.481312       -13.0972
  52   2.0000      -0.467835       -12.7304
  53   2.0000      -0.462926       -12.5969
  54   2.0000      -0.459899       -12.5145
  55   2.0000      -0.444987       -12.1087
  56   2.0000      -0.440201       -11.9785
  57   2.0000      -0.436233       -11.8705
  58   2.0000      -0.434656       -11.8276
  59   2.0000      -0.427449       -11.6315
  60   2.0000      -0.421198       -11.4614
  61   2.0000      -0.417169       -11.3517
  62   2.0000      -0.408740       -11.1224
  63   2.0000      -0.337054        -9.1717
  64   2.0000      -0.330019        -8.9803
  65   2.0000      -0.328936        -8.9508
  66   2.0000      -0.299164        -8.1407
  67   0.0000       0.031970         0.8699
  68   0.0000       0.064199         1.7470
  69   0.0000       0.116404         3.1675
  70   0.0000       0.123832         3.3696
  71   0.0000       0.130013         3.5378

MULLIKEN ATOMIC CHARGES
-----------------------
   0 S :    0.129371
   1 C :   -0.110056
   2 C :   -0.065244
   3 C :    0.015362
   4 C :   -0.166653
   5 H :    0.027260
   6 C :    0.041969
   7 H :    0.035354
   8 H :    0.030707
   9 C :   -0.039748
  10 H :    0.023052
  11 H :    0.026813
  12 C :   -0.083794
  13 H :    0.035054
  14 H :    0.042613
  15 H :    0.030041
  16 S :    0.111732
  17 C :   -0.091086
  18 C :   -0.051384
  19 C :   -0.052042
  20 C :   -0.183364
  21 H :    0.037643
  22 C :    0.116209
  23 H :    0.006440
  24 H :    0.015895
  25 C :   -0.059396
  26 H :    0.010747
  27 H :    0.028129
  28 C :   -0.067450
  29 H :    0.027146
  30 H :    0.038489
  31 H :    0.043794
  32 H :    0.030451
  33 H :    0.065948
Sum of atomic charges:   -0.0000000

LOEWDIN ATOMIC CHARGES
----------------------
   0 S :    0.425110
   1 C :   -0.200227
   2 C :   -0.073143
   3 C :   -0.063828
   4 C :   -0.206641
   5 H :    0.036801
   6 C :   -0.033825
   7 H :    0.033674
   8 H :    0.034457
   9 C :   -0.039475
  10 H :    0.026246
  11 H :    0.022924
  12 C :   -0.074025
  13 H :    0.027765
  14 H :    0.029396
  15 H :    0.022412
  16 S :    0.418441
  17 C :   -0.194003
  18 C :   -0.078414
  19 C :   -0.042397
  20 C :   -0.208513
  21 H :    0.038308
  22 C :   -0.026806
  23 H :    0.022414
  24 H :    0.030026
  25 C :   -0.041311
  26 H :    0.016639
  27 H :    0.026819
  28 C :   -0.064883
  29 H :    0.019714
  30 H :    0.027239
  31 H :    0.033398
  32 H :    0.025079
  33 H :    0.030630

  Mayer bond orders larger than 0.100000
B(  0-S ,  1-C ) :   1.1583 B(  0-S ,  4-C ) :   1.1603 B(  1-C ,  2-C ) :   1.5986
B(  1-C ,  4-C ) :   0.1049 B(  1-C , 32-H ) :   0.9739 B(  2-C ,  3-C ) :   1.2764
B(  2-C ,  6-C ) :   0.9974 B(  3-C ,  4-C ) :   1.5442 B(  3-C ,  5-H ) :   0.9861
B(  4-C , 20-C ) :   1.0455 B(  6-C ,  7-H ) :   0.9423 B(  6-C ,  8-H ) :   0.9355
B(  6-C ,  9-C ) :   1.0984 B(  9-C , 10-H ) :   0.9514 B(  9-C , 11-H ) :   0.9494
B(  9-C , 12-C ) :   1.0609 B( 12-C , 13-H ) :   0.9792 B( 12-C , 14-H ) :   0.9759
B( 12-C , 15-H ) :   0.9774 B( 16-S , 17-C ) :   1.1814 B( 16-S , 20-C ) :   1.1341
B( 17-C , 18-C ) :   1.6005 B( 17-C , 33-H ) :   0.9599 B( 18-C , 19-C ) :   1.2325
B( 18-C , 21-H ) :   0.9865 B( 19-C , 20-C ) :   1.5941 B( 19-C , 22-C ) :   1.0332
B( 22-C , 23-H ) :   0.9270 B( 22-C , 24-H ) :   0.9342 B( 22-C , 25-C ) :   1.0907
B( 25-C , 26-H ) :   0.9523 B( 25-C , 27-H ) :   0.9497 B( 25-C , 28-C ) :   1.0835
B( 28-C , 29-H ) :   0.9722 B( 28-C , 30-H ) :   0.9738 B( 28-C , 31-H ) :   0.9749

Dispersion correction           -0.014855154
FINAL SINGLE POINT ENERGY     -1339.881222889207

DIPOLE MOMENT
-------------
                                X             Y             Z
Electronic contribution:      8.32038     -11.11578      20.46399
Nuclear contribution   :     -8.58988      11.24374     -20.88647
                        -----------------------------------------
Total Dipole Moment    :     -0.26949       0.12796      -0.42248
                        -----------------------------------------
Magnitude (a.u.)       :      0.51719
Magnitude (Debye)      :      1.31460

Rotational constants in cm-1:     0.018205     0.008858     0.007864
Rotational constants in MHz :   545.777381   265.569163   235.758743

                             ****ORCA TERMINATED NORMALLY****
TOTAL RUN TIME: 0 days 0 hours 0 minutes 22 seconds 123 msec
