                         Program Version 4.2.1 -  RELEASE  -
|  1> ! wB97X-D3 SP def2-SVP
|  2> %pal
|  3> nprocs 24
|  4> end
|  5>
|  6> * xyz 0 1
|  7> S 	 -40.5358 	 -2.52124 	 13.927
|  8> C 	 -40.088 	 -2.63524 	 15.6299
|  9> C 	 -40.8789 	 -1.7623 	 16.4167
| 10> C 	 -41.6624 	 -0.992584 	 15.536
| 11> C 	 -41.6775 	 -1.31693 	 14.1886
| 12> H 	 -42.2972 	 -0.152105 	 15.7996
| 13> C 	 -40.8005 	 -1.47568 	 17.8247
| 14> H 	 -40.1119 	 -2.28338 	 18.1868
| 15> H 	 -41.827 	 -1.53696 	 18.1933
| 16> C 	 -40.2812 	 -0.121926 	 18.2351
| 17> H 	 -40.1229 	 -0.0955171 	 19.303
| 18> H 	 -39.2709 	 0.0701968 	 17.7375
| 19> C 	 -41.085 	 1.08326 	 17.7375
| 20> H 	 -40.8955 	 1.95133 	 18.367
| 21> H 	 -40.8309 	 1.33331 	 16.7304
| 22> H 	 -42.1494 	 0.973385 	 17.8225
| 23> S 	 -43.4674 	 -1.74377 	 12.1099
| 24> C 	 -44.2253 	 -0.405296 	 11.2587
| 25> C 	 -43.8339 	 0.774577 	 11.8156
| 26> C 	 -42.8884 	 0.647414 	 12.9065
| 27> C 	 -42.4775 	 -0.664676 	 13.1163
| 28> H 	 -44.2403 	 1.69832 	 11.3968
| 29> C 	 -42.3451 	 1.86309 	 13.6182
| 30> H 	 -42.1211 	 2.56223 	 12.8148
| 31> H 	 -41.3468 	 1.56193 	 14.1057
| 32> C 	 -43.3716 	 2.60729 	 14.5445
| 33> H 	 -43.6211 	 1.87735 	 15.3034
| 34> H 	 -44.1166 	 2.99476 	 13.8939
| 35> C 	 -42.6659 	 3.76653 	 15.345
| 36> H 	 -43.3606 	 4.46505 	 15.8405
| 37> H 	 -42.1434 	 4.42714 	 14.6396
| 38> H 	 -41.9558 	 3.37789 	 16.1479
| 39> H 	 -39.3562 	 -3.24054 	 16.1073
| 40> H 	 -44.9823 	 -0.647454 	 10.4751
| 41> *
| 42>
| 43>                          ****END OF INPUT****

CARTESIAN COORDINATES (ANGSTROEM)
---------------------------------
  S    -40.535800   -2.521240   13.927000
  C    -40.088000   -2.635240   15.629900
  C    -40.878900   -1.762300   16.416700
  C    -41.662400   -0.992584   15.536000
  C    -41.677500   -1.316930   14.188600
  H    -42.297200   -0.152105   15.799600
  C    -40.800500   -1.475680   17.824700
  H    -40.111900   -2.283380   18.186800
  H    -41.827000   -1.536960   18.193300
  C    -40.281200   -0.121926   18.235100
  H    -40.122900   -0.095517   19.303000
  H    -39.270900    0.070197   17.737500
  C    -41.085000    1.083260   17.737500
  H    -40.895500    1.951330   18.367000
  H    -40.830900    1.333310   16.730400
  H    -42.149400    0.973385   17.822500
  S    -43.467400   -1.743770   12.109900
  C    -44.225300   -0.405296   11.258700
  C    -43.833900    0.774577   11.815600
  C    -42.888400    0.647414   12.906500
  C    -42.477500   -0.664676   13.116300
  H    -44.240300    1.698320   11.396800
  C    -42.345100    1.863090   13.618200
  H    -42.121100    2.562230   12.814800
  H    -41.346800    1.561930   14.105700
  C    -43.371600    2.607290   14.544500
  H    -43.621100    1.877350   15.303400
  H    -44.116600    2.994760   13.893900
  C    -42.665900    3.766530   15.345000
  H    -43.360600    4.465050   15.840500
  H    -42.143400    4.427140   14.639600
  H    -41.955800    3.377890   16.147900
  H    -39.356200   -3.240540   16.107300
  H    -44.982300   -0.647454   10.475100

 Total Charge           Charge          ....    0
 Multiplicity           Mult            ....    1
 Number of Electrons    NEL             ....  134
 Basis Dimension        Dim             ....  322

ORBITAL ENERGIES
----------------

  NO   OCC          E(Eh)            E(eV)
   0   2.0000     -88.968846     -2420.9654
   1   2.0000     -88.959288     -2420.7053
   2   2.0000     -10.332706      -281.1672
   3   2.0000     -10.326129      -280.9883
   4   2.0000     -10.322545      -280.8907
   5   2.0000     -10.316075      -280.7147
   6   2.0000     -10.307706      -280.4869
   7   2.0000     -10.297840      -280.2185
   8   2.0000     -10.297703      -280.2147
   9   2.0000     -10.297584      -280.2115
  10   2.0000     -10.293563      -280.1021
  11   2.0000     -10.292897      -280.0840
  12   2.0000     -10.292569      -280.0750
  13   2.0000     -10.288804      -279.9726
  14   2.0000     -10.285896      -279.8935
  15   2.0000     -10.277511      -279.6653
  16   2.0000      -8.084092      -219.9793
  17   2.0000      -8.074131      -219.7083
  18   2.0000      -6.042460      -164.4237
  19   2.0000      -6.038374      -164.3125
  20   2.0000      -6.035096      -164.2233
  21   2.0000      -6.032671      -164.1573
  22   2.0000      -6.028609      -164.0468
  23   2.0000      -6.024849      -163.9445
  24   2.0000      -1.009713       -27.4757
  25   2.0000      -0.986103       -26.8332
  26   2.0000      -0.927269       -25.2323
  27   2.0000      -0.904639       -24.6165
  28   2.0000      -0.869708       -23.6660
  29   2.0000      -0.850127       -23.1331
  30   2.0000      -0.842969       -22.9384
  31   2.0000      -0.816837       -22.2273
  32   2.0000      -0.789258       -21.4768
  33   2.0000      -0.770619       -20.9696
  34   2.0000      -0.708443       -19.2777
  35   2.0000      -0.704195       -19.1621
  36   2.0000      -0.693772       -18.8785
  37   2.0000      -0.660327       -17.9684
  38   2.0000      -0.639241       -17.3946
  39   2.0000      -0.617917       -16.8144
  40   2.0000      -0.591894       -16.1063
  41   2.0000      -0.584325       -15.9003
  42   2.0000      -0.576837       -15.6965
  43   2.0000      -0.550677       -14.9847
  44   2.0000      -0.546434       -14.8692
  45   2.0000      -0.524450       -14.2710
  46   2.0000      -0.518625       -14.1125
  47   2.0000      -0.513974       -13.9859
  48   2.0000      -0.506981       -13.7956
  49   2.0000      -0.497782       -13.5453
  50   2.0000      -0.491322       -13.3696
  51   2.0000      -0.486641       -13.2422
  52   2.0000      -0.469251       -12.7690
  53   2.0000      -0.465966       -12.6796
  54   2.0000      -0.463680       -12.6174
  55   2.0000      -0.445175       -12.1138
  56   2.0000      -0.438220       -11.9246
  57   2.0000      -0.437326       -11.9002
  58   2.0000      -0.430296       -11.7089
  59   2.0000      -0.428715       -11.6659
  60   2.0000      -0.421824       -11.4784
  61   2.0000      -0.419052       -11.4030
  62   2.0000      -0.412729       -11.2309
  63   2.0000      -0.348147        -9.4736
  64   2.0000      -0.330235        -8.9861
  65   2.0000      -0.325186        -8.8488
  66   2.0000      -0.293936        -7.9984
  67   0.0000       0.032385         0.8812
  68   0.0000       0.072871         1.9829
  69   0.0000       0.116108         3.1595
  70   0.0000       0.120687         3.2841
  71   0.0000       0.123534         3.3615

MULLIKEN ATOMIC CHARGES
-----------------------
   0 S :    0.129174
   1 C :   -0.107249
   2 C :   -0.096388
   3 C :    0.000315
   4 C :   -0.140329
   5 H :   -0.017238
   6 C :    0.083676
   7 H :    0.025434
   8 H :    0.039241
   9 C :   -0.062365
  10 H :    0.035300
  11 H :    0.032608
  12 C :   -0.073367
  13 H :    0.032831
  14 H :    0.046142
  15 H :    0.024941
  16 S :    0.073383
  17 C :   -0.109406
  18 C :   -0.025125
  19 C :   -0.032099
  20 C :   -0.121465
  21 H :    0.023808
  22 C :   -0.015469
  23 H :    0.025273
  24 H :    0.053233
  25 C :   -0.037417
  26 H :    0.038853
  27 H :    0.033368
  28 C :   -0.081253
  29 H :    0.037262
  30 H :    0.026884
  31 H :    0.045199
  32 H :    0.030295
  33 H :    0.081951
Sum of atomic charges:   -0.0000000

LOEWDIN ATOMIC CHARGES
----------------------
   0 S :    0.443372
   1 C :   -0.196718
   2 C :   -0.063941
   3 C :   -0.069880
   4 C :   -0.225460
   5 H :    0.024524
   6 C :   -0.039711
   7 H :    0.039608
   8 H :    0.039035
   9 C :   -0.037503
  10 H :    0.024382
  11 H :    0.035219
  12 C :   -0.068377
  13 H :    0.029988
  14 H :    0.021033
  15 H :    0.017500
  16 S :    0.381093
  17 C :   -0.179924
  18 C :   -0.077515
  19 C :   -0.058614
  20 C :   -0.186569
  21 H :    0.033723
  22 C :   -0.041364
  23 H :    0.029037
  24 H :    0.038797
  25 C :   -0.027753
  26 H :    0.023268
  27 H :    0.022711
  28 C :   -0.074998
  29 H :    0.026443
  30 H :    0.022510
  31 H :    0.033777
  32 H :    0.021775
  33 H :    0.040532

  Mayer bond orders larger than 0.100000
B(  0-S ,  1-C ) :   1.1593 B(  0-S ,  4-C ) :   1.1745 B(  1-C ,  2-C ) :   1.5539
B(  1-C ,  4-C ) :   0.1035 B(  1-C , 32-H ) :   0.9687 B(  2-C ,  3-C ) :   1.2746
B(  2-C ,  6-C ) :   1.0439 B(  3-C ,  4-C ) :   1.5501 B(  3-C ,  5-H ) :   0.9887
B(  4-C , 20-C ) :   0.9977 B(  6-C ,  7-H ) :   0.9276 B(  6-C ,  8-H ) :   0.9241
B(  6-C ,  9-C ) :   1.0850 B(  9-C , 10-H ) :   0.9567 B(  9-C , 11-H ) :   0.9495
B(  9-C , 12-C ) :   1.0811 B( 12-C , 13-H ) :   0.9646 B( 12-C , 14-H ) :   0.9655
B( 12-C , 15-H ) :   0.9699 B( 16-S , 17-C ) :   1.1514 B( 16-S , 20-C ) :   1.1340
B( 17-C , 18-C ) :   1.6148 B( 17-C , 33-H ) :   0.9643 B( 18-C , 19-C ) :   1.2138
B( 18-C , 21-H ) :   0.9910 B( 19-C , 20-C ) :   1.6192 B( 19-C , 22-C ) :   1.0416
B( 22-C , 23-H ) :   0.9325 B( 22-C , 24-H ) :   0.9449 B( 22-C , 25-C ) :   1.0503
B( 25-C , 26-H ) :   0.9591 B( 25-C , 27-H ) :   0.9534 B( 25-C , 28-C ) :   1.0804
B( 28-C , 29-H ) :   0.9748 B( 28-C , 30-H ) :   0.9726 B( 28-C , 31-H ) :   0.9740

Dispersion correction           -0.015943575
FINAL SINGLE POINT ENERGY     -1339.873503275628

DIPOLE MOMENT
-------------
                                X             Y             Z
Electronic contribution:     -1.42302     -24.36083     -20.86423
Nuclear contribution   :      1.32210      25.04045      21.32629
                        -----------------------------------------
Total Dipole Moment    :     -0.10092       0.67962       0.46205
                        -----------------------------------------
Magnitude (a.u.)       :      0.82799
Magnitude (Debye)      :      2.10457

Rotational constants in cm-1:     0.016427     0.011400     0.007163
Rotational constants in MHz :   492.455712   341.773244   214.755585

                             ****ORCA TERMINATED NORMALLY****
TOTAL RUN TIME: 0 days 0 hours 0 minutes 23 seconds 240 msec
