                         Program Version 4.2.1 -  RELEASE  -
|  1> ! wB97X-D3 SP def2-SVP
|  2> %pal
|  3> nprocs 24
|  4> end
|  5>
|  6> * xyz 0 1
|  7> S 	 -121.425 	 27.8274 	 -115.456
|  8> C 	 -121.962 	 27.1051 	 -116.947
|  9> C 	 -121.806 	 28.0386 	 -117.943
| 10> C 	 -121.169 	 29.2474 	 -117.523
| 11> C 	 -120.848 	 29.2942 	 -116.128
| 12> H 	 -120.841 	 29.957 	 -118.28
| 13> C 	 -122.082 	 27.7833 	 -119.417
| 14> H 	 -122.012 	 26.6932 	 -119.601
| 15> H 	 -121.356 	 28.3418 	 -120.036
| 16> C 	 -123.477 	 28.2005 	 -119.963
| 17> H 	 -123.599 	 29.2006 	 -119.544
| 18> H 	 -123.473 	 28.2099 	 -121.048
| 19> C 	 -124.628 	 27.2549 	 -119.539
| 20> H 	 -124.628 	 26.3489 	 -120.12
| 21> H 	 -124.471 	 26.9312 	 -118.545
| 22> H 	 -125.587 	 27.8134 	 -119.642
| 23> S 	 -120.277 	 31.9507 	 -116.219
| 24> C 	 -118.86 	 32.5513 	 -115.37
| 25> C 	 -118.471 	 31.6501 	 -114.352
| 26> C 	 -119.15 	 30.3757 	 -114.482
| 27> C 	 -120.138 	 30.3514 	 -115.504
| 28> H 	 -117.828 	 31.9947 	 -113.499
| 29> C 	 -118.74 	 29.2196 	 -113.569
| 30> H 	 -118.129 	 28.5067 	 -114.254
| 31> H 	 -119.718 	 28.7727 	 -113.291
| 32> C 	 -117.783 	 29.4699 	 -112.328
| 33> H 	 -117.895 	 28.6513 	 -111.62
| 34> H 	 -118.067 	 30.4104 	 -111.86
| 35> C 	 -116.271 	 29.6409 	 -112.61
| 36> H 	 -115.85 	 29.0691 	 -113.427
| 37> H 	 -115.619 	 29.5811 	 -111.738
| 38> H 	 -116.093 	 30.6561 	 -113.071
| 39> H 	 -122.443 	 26.1439 	 -117.039
| 40> H 	 -118.649 	 33.5788 	 -115.312
| 41> *
| 42>
| 43>                          ****END OF INPUT****

CARTESIAN COORDINATES (ANGSTROEM)
---------------------------------
  S    -121.425000   27.827400  -115.456000
  C    -121.962000   27.105100  -116.947000
  C    -121.806000   28.038600  -117.943000
  C    -121.169000   29.247400  -117.523000
  C    -120.848000   29.294200  -116.128000
  H    -120.841000   29.957000  -118.280000
  C    -122.082000   27.783300  -119.417000
  H    -122.012000   26.693200  -119.601000
  H    -121.356000   28.341800  -120.036000
  C    -123.477000   28.200500  -119.963000
  H    -123.599000   29.200600  -119.544000
  H    -123.473000   28.209900  -121.048000
  C    -124.628000   27.254900  -119.539000
  H    -124.628000   26.348900  -120.120000
  H    -124.471000   26.931200  -118.545000
  H    -125.587000   27.813400  -119.642000
  S    -120.277000   31.950700  -116.219000
  C    -118.860000   32.551300  -115.370000
  C    -118.471000   31.650100  -114.352000
  C    -119.150000   30.375700  -114.482000
  C    -120.138000   30.351400  -115.504000
  H    -117.828000   31.994700  -113.499000
  C    -118.740000   29.219600  -113.569000
  H    -118.129000   28.506700  -114.254000
  H    -119.718000   28.772700  -113.291000
  C    -117.783000   29.469900  -112.328000
  H    -117.895000   28.651300  -111.620000
  H    -118.067000   30.410400  -111.860000
  C    -116.271000   29.640900  -112.610000
  H    -115.850000   29.069100  -113.427000
  H    -115.619000   29.581100  -111.738000
  H    -116.093000   30.656100  -113.071000
  H    -122.443000   26.143900  -117.039000
  H    -118.649000   33.578800  -115.312000

 Total Charge           Charge          ....    0
 Multiplicity           Mult            ....    1
 Number of Electrons    NEL             ....  134
 Basis Dimension        Dim             ....  322

ORBITAL ENERGIES
----------------

  NO   OCC          E(Eh)            E(eV)
   0   2.0000     -88.969597     -2420.9858
   1   2.0000     -88.969153     -2420.9737
   2   2.0000     -10.335649      -281.2473
   3   2.0000     -10.333035      -281.1762
   4   2.0000     -10.319898      -280.8187
   5   2.0000     -10.315223      -280.6915
   6   2.0000     -10.313306      -280.6393
   7   2.0000     -10.306687      -280.4592
   8   2.0000     -10.305653      -280.4311
   9   2.0000     -10.300094      -280.2798
  10   2.0000     -10.297145      -280.1996
  11   2.0000     -10.295741      -280.1614
  12   2.0000     -10.293221      -280.0928
  13   2.0000     -10.284547      -279.8568
  14   2.0000     -10.282725      -279.8072
  15   2.0000     -10.273540      -279.5572
  16   2.0000      -8.084035      -219.9778
  17   2.0000      -8.083677      -219.9680
  18   2.0000      -6.042563      -164.4265
  19   2.0000      -6.042268      -164.4185
  20   2.0000      -6.038268      -164.3096
  21   2.0000      -6.038232      -164.3087
  22   2.0000      -6.035046      -164.2219
  23   2.0000      -6.034385      -164.2040
  24   2.0000      -1.009126       -27.4597
  25   2.0000      -0.983213       -26.7546
  26   2.0000      -0.909131       -24.7387
  27   2.0000      -0.901471       -24.5303
  28   2.0000      -0.873707       -23.7748
  29   2.0000      -0.850107       -23.1326
  30   2.0000      -0.842822       -22.9343
  31   2.0000      -0.809328       -22.0229
  32   2.0000      -0.781911       -21.2769
  33   2.0000      -0.773385       -21.0449
  34   2.0000      -0.714338       -19.4381
  35   2.0000      -0.701587       -19.0912
  36   2.0000      -0.691253       -18.8100
  37   2.0000      -0.662334       -18.0230
  38   2.0000      -0.636775       -17.3275
  39   2.0000      -0.612397       -16.6642
  40   2.0000      -0.594167       -16.1681
  41   2.0000      -0.574355       -15.6290
  42   2.0000      -0.553356       -15.0576
  43   2.0000      -0.549256       -14.9460
  44   2.0000      -0.538654       -14.6575
  45   2.0000      -0.531765       -14.4701
  46   2.0000      -0.522414       -14.2156
  47   2.0000      -0.516896       -14.0654
  48   2.0000      -0.515024       -14.0145
  49   2.0000      -0.501303       -13.6412
  50   2.0000      -0.485347       -13.2070
  51   2.0000      -0.480874       -13.0852
  52   2.0000      -0.471823       -12.8389
  53   2.0000      -0.463947       -12.6246
  54   2.0000      -0.459394       -12.5007
  55   2.0000      -0.448569       -12.2062
  56   2.0000      -0.439826       -11.9683
  57   2.0000      -0.434086       -11.8121
  58   2.0000      -0.429836       -11.6964
  59   2.0000      -0.423319       -11.5191
  60   2.0000      -0.422056       -11.4847
  61   2.0000      -0.413212       -11.2441
  62   2.0000      -0.407801       -11.0968
  63   2.0000      -0.359138        -9.7726
  64   2.0000      -0.329950        -8.9784
  65   2.0000      -0.328211        -8.9311
  66   2.0000      -0.282050        -7.6750
  67   0.0000       0.011858         0.3227
  68   0.0000       0.077161         2.0997
  69   0.0000       0.105370         2.8673
  70   0.0000       0.116061         3.1582
  71   0.0000       0.130181         3.5424

MULLIKEN ATOMIC CHARGES
-----------------------
   0 S :    0.105359
   1 C :   -0.122858
   2 C :   -0.075965
   3 C :   -0.011918
   4 C :   -0.118920
   5 H :    0.022210
   6 C :    0.023944
   7 H :    0.022281
   8 H :    0.032012
   9 C :   -0.067504
  10 H :    0.027961
  11 H :    0.034298
  12 C :   -0.039857
  13 H :    0.024996
  14 H :    0.011707
  15 H :    0.047117
  16 S :    0.107851
  17 C :   -0.075428
  18 C :   -0.074644
  19 C :   -0.063388
  20 C :   -0.127696
  21 H :    0.056015
  22 C :    0.009677
  23 H :    0.061323
  24 H :    0.051292
  25 C :   -0.054818
  26 H :    0.041482
  27 H :    0.031087
  28 C :   -0.073067
  29 H :    0.027846
  30 H :    0.045992
  31 H :    0.017057
  32 H :    0.054661
  33 H :    0.049895
Sum of atomic charges:    0.0000000

LOEWDIN ATOMIC CHARGES
----------------------
   0 S :    0.435752
   1 C :   -0.204148
   2 C :   -0.068090
   3 C :   -0.076923
   4 C :   -0.207434
   5 H :    0.027148
   6 C :   -0.033324
   7 H :    0.028118
   8 H :    0.033375
   9 C :   -0.037898
  10 H :    0.022976
  11 H :    0.022776
  12 C :   -0.064403
  13 H :    0.021722
  14 H :    0.014752
  15 H :    0.034692
  16 S :    0.419731
  17 C :   -0.181884
  18 C :   -0.076098
  19 C :   -0.054870
  20 C :   -0.200010
  21 H :    0.042727
  22 C :   -0.043689
  23 H :    0.048194
  24 H :    0.030969
  25 C :   -0.039451
  26 H :    0.030152
  27 H :    0.023218
  28 C :   -0.076677
  29 H :    0.023385
  30 H :    0.029258
  31 H :    0.026352
  32 H :    0.031087
  33 H :    0.018516

  Mayer bond orders larger than 0.100000
B(  0-S ,  1-C ) :   1.1423 B(  0-S ,  4-C ) :   1.1703 B(  1-C ,  2-C ) :   1.5632
B(  1-C , 32-H ) :   0.9715 B(  2-C ,  3-C ) :   1.3117 B(  2-C ,  6-C ) :   1.0264
B(  3-C ,  4-C ) :   1.4702 B(  3-C ,  5-H ) :   0.9832 B(  4-C , 20-C ) :   1.1172
B(  6-C ,  7-H ) :   0.9483 B(  6-C ,  8-H ) :   0.9436 B(  6-C ,  9-C ) :   1.0651
B(  9-C , 10-H ) :   0.9568 B(  9-C , 11-H ) :   0.9594 B(  9-C , 12-C ) :   1.0758
B( 12-C , 13-H ) :   0.9741 B( 12-C , 14-H ) :   0.9781 B( 12-C , 15-H ) :   0.9749
B( 16-S , 17-C ) :   1.1694 B( 16-S , 20-C ) :   1.1413 B( 17-C , 18-C ) :   1.5801
B( 17-C , 20-C ) :   0.1001 B( 17-C , 33-H ) :   0.9647 B( 18-C , 19-C ) :   1.2831
B( 18-C , 21-H ) :   0.9650 B( 19-C , 20-C ) :   1.5301 B( 19-C , 22-C ) :   1.0190
B( 22-C , 23-H ) :   0.9305 B( 22-C , 24-H ) :   0.9417 B( 22-C , 25-C ) :   1.0686
B( 25-C , 26-H ) :   0.9579 B( 25-C , 27-H ) :   0.9571 B( 25-C , 28-C ) :   1.0645
B( 28-C , 29-H ) :   0.9737 B( 28-C , 30-H ) :   0.9751 B( 28-C , 31-H ) :   0.9726

Dispersion correction           -0.013836658
FINAL SINGLE POINT ENERGY     -1339.867232901363

DIPOLE MOMENT
-------------
                                X             Y             Z
Electronic contribution:     -2.40445       8.18235       2.79415
Nuclear contribution   :      2.61595      -8.25056      -2.77579
                        -----------------------------------------
Total Dipole Moment    :      0.21150      -0.06821       0.01836
                        -----------------------------------------
Magnitude (a.u.)       :      0.22299
Magnitude (Debye)      :      0.56679

Rotational constants in cm-1:     0.027416     0.006801     0.005762
Rotational constants in MHz :   821.923826   203.897471   172.752414

                             ****ORCA TERMINATED NORMALLY****
TOTAL RUN TIME: 0 days 0 hours 0 minutes 20 seconds 835 msec
