                         Program Version 4.2.1 -  RELEASE  -
|  1> ! wB97X-D3 SP def2-SVP
|  2> %pal
|  3> nprocs 24
|  4> end
|  5>
|  6> * xyz 0 1
|  7> S 	 -110.903 	 52.4716 	 -86.7896
|  8> C 	 -109.439 	 52.8692 	 -85.9428
|  9> C 	 -109.019 	 54.1351 	 -86.2513
| 10> C 	 -109.661 	 54.6062 	 -87.4094
| 11> C 	 -110.694 	 53.8277 	 -87.8612
| 12> H 	 -109.303 	 55.4976 	 -87.9514
| 13> C 	 -107.943 	 54.8465 	 -85.4557
| 14> H 	 -107.847 	 55.8101 	 -85.8926
| 15> H 	 -107.058 	 54.3035 	 -85.6413
| 16> C 	 -108.021 	 55.1918 	 -83.9414
| 17> H 	 -107.311 	 55.9782 	 -83.7501
| 18> H 	 -108.948 	 55.7119 	 -83.8047
| 19> C 	 -107.842 	 53.9783 	 -82.9904
| 20> H 	 -107.104 	 53.3414 	 -83.2885
| 21> H 	 -107.493 	 54.3514 	 -82.0085
| 22> H 	 -108.645 	 53.3412 	 -82.7203
| 23> S 	 -112.047 	 52.4092 	 -89.7904
| 24> C 	 -112.954 	 53.2025 	 -91.002
| 25> C 	 -112.64 	 54.5441 	 -91.0791
| 26> C 	 -111.827 	 54.9908 	 -89.9545
| 27> C 	 -111.494 	 53.9013 	 -89.0854
| 28> H 	 -113.12 	 55.0777 	 -91.9055
| 29> C 	 -111.251 	 56.3616 	 -89.8589
| 30> H 	 -111.022 	 56.7471 	 -88.8688
| 31> H 	 -111.969 	 57.1216 	 -90.2568
| 32> C 	 -109.921 	 56.4386 	 -90.6875
| 33> H 	 -110.094 	 55.8342 	 -91.6028
| 34> H 	 -109.119 	 55.8946 	 -90.2205
| 35> C 	 -109.546 	 57.8359 	 -91.1032
| 36> H 	 -109.255 	 58.5609 	 -90.3127
| 37> H 	 -110.376 	 58.383 	 -91.6148
| 38> H 	 -108.771 	 57.6769 	 -91.8881
| 39> H 	 -108.97 	 52.2663 	 -85.1456
| 40> H 	 -113.474 	 52.722 	 -91.7716
| 41> *
| 42>
| 43>                          ****END OF INPUT****

CARTESIAN COORDINATES (ANGSTROEM)
---------------------------------
  S    -110.903000   52.471600  -86.789600
  C    -109.439000   52.869200  -85.942800
  C    -109.019000   54.135100  -86.251300
  C    -109.661000   54.606200  -87.409400
  C    -110.694000   53.827700  -87.861200
  H    -109.303000   55.497600  -87.951400
  C    -107.943000   54.846500  -85.455700
  H    -107.847000   55.810100  -85.892600
  H    -107.058000   54.303500  -85.641300
  C    -108.021000   55.191800  -83.941400
  H    -107.311000   55.978200  -83.750100
  H    -108.948000   55.711900  -83.804700
  C    -107.842000   53.978300  -82.990400
  H    -107.104000   53.341400  -83.288500
  H    -107.493000   54.351400  -82.008500
  H    -108.645000   53.341200  -82.720300
  S    -112.047000   52.409200  -89.790400
  C    -112.954000   53.202500  -91.002000
  C    -112.640000   54.544100  -91.079100
  C    -111.827000   54.990800  -89.954500
  C    -111.494000   53.901300  -89.085400
  H    -113.120000   55.077700  -91.905500
  C    -111.251000   56.361600  -89.858900
  H    -111.022000   56.747100  -88.868800
  H    -111.969000   57.121600  -90.256800
  C    -109.921000   56.438600  -90.687500
  H    -110.094000   55.834200  -91.602800
  H    -109.119000   55.894600  -90.220500
  C    -109.546000   57.835900  -91.103200
  H    -109.255000   58.560900  -90.312700
  H    -110.376000   58.383000  -91.614800
  H    -108.771000   57.676900  -91.888100
  H    -108.970000   52.266300  -85.145600
  H    -113.474000   52.722000  -91.771600

 Total Charge           Charge          ....    0
 Multiplicity           Mult            ....    1
 Number of Electrons    NEL             ....  134
 Basis Dimension        Dim             ....  322

ORBITAL ENERGIES
----------------

  NO   OCC          E(Eh)            E(eV)
   0   2.0000     -88.964086     -2420.8358
   1   2.0000     -88.963983     -2420.8330
   2   2.0000     -10.330257      -281.1006
   3   2.0000     -10.328442      -281.0512
   4   2.0000     -10.310689      -280.5681
   5   2.0000     -10.309497      -280.5357
   6   2.0000     -10.308824      -280.5174
   7   2.0000     -10.297226      -280.2018
   8   2.0000     -10.295497      -280.1547
   9   2.0000     -10.293086      -280.0891
  10   2.0000     -10.292097      -280.0622
  11   2.0000     -10.290427      -280.0168
  12   2.0000     -10.286834      -279.9190
  13   2.0000     -10.285039      -279.8702
  14   2.0000     -10.284887      -279.8660
  15   2.0000     -10.272358      -279.5251
  16   2.0000      -8.079632      -219.8580
  17   2.0000      -8.079187      -219.8458
  18   2.0000      -6.038050      -164.3037
  19   2.0000      -6.037633      -164.2923
  20   2.0000      -6.033942      -164.1919
  21   2.0000      -6.033701      -164.1853
  22   2.0000      -6.030509      -164.0985
  23   2.0000      -6.029902      -164.0820
  24   2.0000      -1.010612       -27.5002
  25   2.0000      -0.987830       -26.8802
  26   2.0000      -0.911013       -24.7899
  27   2.0000      -0.909913       -24.7600
  28   2.0000      -0.869242       -23.6533
  29   2.0000      -0.852835       -23.2068
  30   2.0000      -0.845519       -23.0077
  31   2.0000      -0.816890       -22.2287
  32   2.0000      -0.790205       -21.5026
  33   2.0000      -0.771557       -20.9951
  34   2.0000      -0.716032       -19.4842
  35   2.0000      -0.702613       -19.1191
  36   2.0000      -0.695238       -18.9184
  37   2.0000      -0.659709       -17.9516
  38   2.0000      -0.633162       -17.2292
  39   2.0000      -0.624380       -16.9902
  40   2.0000      -0.598638       -16.2898
  41   2.0000      -0.569924       -15.5084
  42   2.0000      -0.557076       -15.1588
  43   2.0000      -0.551631       -15.0106
  44   2.0000      -0.537176       -14.6173
  45   2.0000      -0.528282       -14.3753
  46   2.0000      -0.518381       -14.1059
  47   2.0000      -0.512538       -13.9469
  48   2.0000      -0.510733       -13.8977
  49   2.0000      -0.498573       -13.5669
  50   2.0000      -0.486535       -13.2393
  51   2.0000      -0.485425       -13.2091
  52   2.0000      -0.480147       -13.0655
  53   2.0000      -0.463439       -12.6108
  54   2.0000      -0.461754       -12.5650
  55   2.0000      -0.455512       -12.3951
  56   2.0000      -0.446294       -12.1443
  57   2.0000      -0.440736       -11.9930
  58   2.0000      -0.432150       -11.7594
  59   2.0000      -0.423599       -11.5267
  60   2.0000      -0.421879       -11.4799
  61   2.0000      -0.415550       -11.3077
  62   2.0000      -0.408759       -11.1229
  63   2.0000      -0.355214        -9.6659
  64   2.0000      -0.329119        -8.9558
  65   2.0000      -0.325941        -8.8693
  66   2.0000      -0.281901        -7.6709
  67   0.0000       0.021663         0.5895
  68   0.0000       0.084514         2.2997
  69   0.0000       0.106646         2.9020
  70   0.0000       0.113928         3.1001
  71   0.0000       0.133272         3.6265

MULLIKEN ATOMIC CHARGES
-----------------------
   0 S :    0.110929
   1 C :   -0.139153
   2 C :   -0.086774
   3 C :   -0.012812
   4 C :   -0.107811
   5 H :    0.009284
   6 C :    0.071825
   7 H :    0.002503
   8 H :    0.028750
   9 C :   -0.028376
  10 H :    0.026364
  11 H :    0.022861
  12 C :   -0.028123
  13 H :    0.003215
  14 H :    0.024043
  15 H :    0.033275
  16 S :    0.110185
  17 C :   -0.070575
  18 C :   -0.053486
  19 C :   -0.029524
  20 C :   -0.132195
  21 H :    0.029315
  22 C :    0.038735
  23 H :    0.026063
  24 H :    0.023781
  25 C :   -0.078702
  26 H :    0.028212
  27 H :    0.030160
  28 C :   -0.058070
  29 H :    0.040162
  30 H :    0.029657
  31 H :    0.042371
  32 H :    0.055515
  33 H :    0.038396
Sum of atomic charges:   -0.0000000

LOEWDIN ATOMIC CHARGES
----------------------
   0 S :    0.411279
   1 C :   -0.199019
   2 C :   -0.067094
   3 C :   -0.072724
   4 C :   -0.191467
   5 H :    0.033046
   6 C :   -0.029181
   7 H :    0.025971
   8 H :    0.027370
   9 C :   -0.027067
  10 H :    0.027868
  11 H :    0.024832
  12 C :   -0.067399
  13 H :    0.010691
  14 H :    0.033406
  15 H :    0.023603
  16 S :    0.427123
  17 C :   -0.193887
  18 C :   -0.073145
  19 C :   -0.051269
  20 C :   -0.202775
  21 H :    0.036710
  22 C :   -0.039596
  23 H :    0.026074
  24 H :    0.033132
  25 C :   -0.042791
  26 H :    0.029875
  27 H :    0.020756
  28 C :   -0.075257
  29 H :    0.026838
  30 H :    0.027343
  31 H :    0.034391
  32 H :    0.032824
  33 H :    0.019539

  Mayer bond orders larger than 0.100000
B(  0-S ,  1-C ) :   1.1411 B(  0-S ,  4-C ) :   1.1509 B(  1-C ,  2-C ) :   1.5998
B(  1-C , 32-H ) :   0.9632 B(  2-C ,  3-C ) :   1.2727 B(  2-C ,  6-C ) :   1.0113
B(  3-C ,  4-C ) :   1.5547 B(  3-C ,  5-H ) :   0.9839 B(  4-C , 20-C ) :   1.0691
B(  6-C ,  7-H ) :   0.9344 B(  6-C ,  8-H ) :   0.9389 B(  6-C ,  9-C ) :   1.0826
B(  9-C , 10-H ) :   0.9563 B(  9-C , 11-H ) :   0.9543 B(  9-C , 12-C ) :   1.0677
B( 12-C , 13-H ) :   0.9759 B( 12-C , 14-H ) :   0.9704 B( 12-C , 15-H ) :   0.9760
B( 16-S , 17-C ) :   1.1653 B( 16-S , 20-C ) :   1.1579 B( 17-C , 18-C ) :   1.6038
B( 17-C , 33-H ) :   0.9713 B( 18-C , 19-C ) :   1.2395 B( 18-C , 21-H ) :   0.9894
B( 19-C , 20-C ) :   1.5367 B( 19-C , 22-C ) :   1.0795 B( 22-C , 23-H ) :   0.9309
B( 22-C , 24-H ) :   0.9347 B( 22-C , 25-C ) :   1.0455 B( 25-C , 26-H ) :   0.9541
B( 25-C , 27-H ) :   0.9506 B( 25-C , 28-C ) :   1.0786 B( 28-C , 29-H ) :   0.9732
B( 28-C , 30-H ) :   0.9729 B( 28-C , 31-H ) :   0.9728

Dispersion correction           -0.014103110
FINAL SINGLE POINT ENERGY     -1339.866494871946

DIPOLE MOMENT
-------------
                                X             Y             Z
Electronic contribution:    -16.61761     -20.78576      -6.48903
Nuclear contribution   :     17.06889      21.32059       6.43069
                        -----------------------------------------
Total Dipole Moment    :      0.45128       0.53483      -0.05834
                        -----------------------------------------
Magnitude (a.u.)       :      0.70221
Magnitude (Debye)      :      1.78488

Rotational constants in cm-1:     0.020470     0.008193     0.006062
Rotational constants in MHz :   613.662729   245.608109   181.724826

                             ****ORCA TERMINATED NORMALLY****
TOTAL RUN TIME: 0 days 0 hours 0 minutes 21 seconds 346 msec
