                         Program Version 4.2.1 -  RELEASE  -
|  1> ! wB97X-D3 SP def2-SVP
|  2> %pal
|  3> nprocs 24
|  4> end
|  5>
|  6> * xyz 0 1
|  7> S 	 -112.104 	 56.1958 	 -90.9889
|  8> C 	 -111.622 	 56.853 	 -89.4572
|  9> C 	 -112.248 	 56.1542 	 -88.4328
| 10> C 	 -113.153 	 55.124 	 -88.8524
| 11> C 	 -113.171 	 54.9952 	 -90.2186
| 12> H 	 -113.793 	 54.53 	 -88.1844
| 13> C 	 -111.758 	 56.2125 	 -86.9988
| 14> H 	 -112.663 	 56.2504 	 -86.3424
| 15> H 	 -111.274 	 57.2071 	 -87.0144
| 16> C 	 -110.804 	 55.0734 	 -86.529
| 17> H 	 -110.498 	 55.2508 	 -85.5339
| 18> H 	 -111.356 	 54.1822 	 -86.5614
| 19> C 	 -109.561 	 54.9123 	 -87.457
| 20> H 	 -108.959 	 55.8525 	 -87.4075
| 21> H 	 -108.931 	 54.064 	 -87.273
| 22> H 	 -109.885 	 54.7783 	 -88.4566
| 23> S 	 -115.398 	 54.85 	 -91.8162
| 24> C 	 -115.756 	 53.2722 	 -92.4339
| 25> C 	 -114.861 	 52.3206 	 -91.9773
| 26> C 	 -113.802 	 52.8529 	 -91.1761
| 27> C 	 -114.031 	 54.1874 	 -90.9921
| 28> H 	 -114.955 	 51.1992 	 -92.1505
| 29> C 	 -112.615 	 52.0897 	 -90.6493
| 30> H 	 -112.693 	 52.101 	 -89.5719
| 31> H 	 -111.671 	 52.5789 	 -90.9276
| 32> C 	 -112.442 	 50.6301 	 -90.9768
| 33> H 	 -112.644 	 50.5591 	 -92.0842
| 34> H 	 -113.357 	 50.1749 	 -90.5698
| 35> C 	 -111.167 	 50.0227 	 -90.4317
| 36> H 	 -111.376 	 49.8351 	 -89.3225
| 37> H 	 -110.313 	 50.6118 	 -90.4713
| 38> H 	 -111.14 	 49.0821 	 -90.9792
| 39> H 	 -110.893 	 57.624 	 -89.312
| 40> H 	 -116.592 	 52.9737 	 -93.054
| 41> *
| 42>
| 43>                          ****END OF INPUT****

CARTESIAN COORDINATES (ANGSTROEM)
---------------------------------
  S    -112.104000   56.195800  -90.988900
  C    -111.622000   56.853000  -89.457200
  C    -112.248000   56.154200  -88.432800
  C    -113.153000   55.124000  -88.852400
  C    -113.171000   54.995200  -90.218600
  H    -113.793000   54.530000  -88.184400
  C    -111.758000   56.212500  -86.998800
  H    -112.663000   56.250400  -86.342400
  H    -111.274000   57.207100  -87.014400
  C    -110.804000   55.073400  -86.529000
  H    -110.498000   55.250800  -85.533900
  H    -111.356000   54.182200  -86.561400
  C    -109.561000   54.912300  -87.457000
  H    -108.959000   55.852500  -87.407500
  H    -108.931000   54.064000  -87.273000
  H    -109.885000   54.778300  -88.456600
  S    -115.398000   54.850000  -91.816200
  C    -115.756000   53.272200  -92.433900
  C    -114.861000   52.320600  -91.977300
  C    -113.802000   52.852900  -91.176100
  C    -114.031000   54.187400  -90.992100
  H    -114.955000   51.199200  -92.150500
  C    -112.615000   52.089700  -90.649300
  H    -112.693000   52.101000  -89.571900
  H    -111.671000   52.578900  -90.927600
  C    -112.442000   50.630100  -90.976800
  H    -112.644000   50.559100  -92.084200
  H    -113.357000   50.174900  -90.569800
  C    -111.167000   50.022700  -90.431700
  H    -111.376000   49.835100  -89.322500
  H    -110.313000   50.611800  -90.471300
  H    -111.140000   49.082100  -90.979200
  H    -110.893000   57.624000  -89.312000
  H    -116.592000   52.973700  -93.054000

 Total Charge           Charge          ....    0
 Multiplicity           Mult            ....    1
 Number of Electrons    NEL             ....  134
 Basis Dimension        Dim             ....  322

ORBITAL ENERGIES
----------------

  NO   OCC          E(Eh)            E(eV)
   0   2.0000     -88.970128     -2421.0003
   1   2.0000     -88.963278     -2420.8139
   2   2.0000     -10.322981      -280.9026
   3   2.0000     -10.315727      -280.7052
   4   2.0000     -10.312765      -280.6246
   5   2.0000     -10.312735      -280.6238
   6   2.0000     -10.298279      -280.2304
   7   2.0000     -10.297018      -280.1961
   8   2.0000     -10.296344      -280.1778
   9   2.0000     -10.294172      -280.1187
  10   2.0000     -10.293319      -280.0954
  11   2.0000     -10.287429      -279.9352
  12   2.0000     -10.286094      -279.8988
  13   2.0000     -10.283100      -279.8174
  14   2.0000     -10.282743      -279.8077
  15   2.0000     -10.272339      -279.5246
  16   2.0000      -8.085279      -220.0116
  17   2.0000      -8.077822      -219.8087
  18   2.0000      -6.043689      -164.4571
  19   2.0000      -6.039797      -164.3512
  20   2.0000      -6.036329      -164.2569
  21   2.0000      -6.036045      -164.2491
  22   2.0000      -6.032258      -164.1461
  23   2.0000      -6.028707      -164.0495
  24   2.0000      -1.011974       -27.5372
  25   2.0000      -0.984200       -26.7814
  26   2.0000      -0.918532       -24.9945
  27   2.0000      -0.906213       -24.6593
  28   2.0000      -0.872750       -23.7487
  29   2.0000      -0.855668       -23.2839
  30   2.0000      -0.843464       -22.9518
  31   2.0000      -0.812367       -22.1056
  32   2.0000      -0.786421       -21.3996
  33   2.0000      -0.769286       -20.9333
  34   2.0000      -0.710559       -19.3353
  35   2.0000      -0.702188       -19.1075
  36   2.0000      -0.695955       -18.9379
  37   2.0000      -0.647221       -17.6118
  38   2.0000      -0.640684       -17.4339
  39   2.0000      -0.616289       -16.7701
  40   2.0000      -0.602063       -16.3830
  41   2.0000      -0.574193       -15.6246
  42   2.0000      -0.560407       -15.2495
  43   2.0000      -0.548331       -14.9209
  44   2.0000      -0.543101       -14.7785
  45   2.0000      -0.534756       -14.5515
  46   2.0000      -0.518359       -14.1053
  47   2.0000      -0.512552       -13.9472
  48   2.0000      -0.503741       -13.7075
  49   2.0000      -0.498275       -13.5588
  50   2.0000      -0.491685       -13.3794
  51   2.0000      -0.482085       -13.1182
  52   2.0000      -0.466216       -12.6864
  53   2.0000      -0.464575       -12.6417
  54   2.0000      -0.457551       -12.4506
  55   2.0000      -0.456278       -12.4159
  56   2.0000      -0.443639       -12.0720
  57   2.0000      -0.438728       -11.9384
  58   2.0000      -0.432322       -11.7641
  59   2.0000      -0.422624       -11.5002
  60   2.0000      -0.420530       -11.4432
  61   2.0000      -0.413005       -11.2384
  62   2.0000      -0.410714       -11.1761
  63   2.0000      -0.339572        -9.2402
  64   2.0000      -0.332900        -9.0587
  65   2.0000      -0.317957        -8.6521
  66   2.0000      -0.303932        -8.2704
  67   0.0000       0.041316         1.1243
  68   0.0000       0.058816         1.6005
  69   0.0000       0.121579         3.3083
  70   0.0000       0.123566         3.3624
  71   0.0000       0.127927         3.4811

MULLIKEN ATOMIC CHARGES
-----------------------
   0 S :    0.105679
   1 C :   -0.109819
   2 C :   -0.115567
   3 C :    0.048850
   4 C :   -0.201057
   5 H :    0.025472
   6 C :    0.024373
   7 H :    0.035351
   8 H :    0.018182
   9 C :   -0.001975
  10 H :    0.026664
  11 H :    0.012391
  12 C :   -0.060374
  13 H :    0.029366
  14 H :    0.029583
  15 H :    0.032878
  16 S :    0.150631
  17 C :   -0.082353
  18 C :   -0.073573
  19 C :   -0.039895
  20 C :   -0.180405
  21 H :    0.037677
  22 C :    0.103976
  23 H :    0.014096
  24 H :    0.034330
  25 C :   -0.139043
  26 H :    0.031452
  27 H :    0.024278
  28 C :    0.009140
  29 H :    0.038848
  30 H :    0.028754
  31 H :    0.046023
  32 H :    0.043907
  33 H :    0.052162
Sum of atomic charges:    0.0000000

LOEWDIN ATOMIC CHARGES
----------------------
   0 S :    0.394946
   1 C :   -0.198434
   2 C :   -0.072454
   3 C :   -0.057975
   4 C :   -0.180789
   5 H :    0.037906
   6 C :   -0.034745
   7 H :    0.032668
   8 H :    0.027765
   9 C :   -0.025913
  10 H :    0.020109
  11 H :    0.015558
  12 C :   -0.063115
  13 H :    0.027455
  14 H :    0.022575
  15 H :    0.020677
  16 S :    0.432556
  17 C :   -0.196905
  18 C :   -0.080403
  19 C :   -0.050200
  20 C :   -0.221852
  21 H :    0.039344
  22 C :   -0.037259
  23 H :    0.030295
  24 H :    0.033086
  25 C :   -0.053194
  26 H :    0.021810
  27 H :    0.022451
  28 C :   -0.054536
  29 H :    0.038963
  30 H :    0.016631
  31 H :    0.036341
  32 H :    0.025516
  33 H :    0.031121

  Mayer bond orders larger than 0.100000
B(  0-S ,  1-C ) :   1.1348 B(  0-S ,  4-C ) :   1.1362 B(  1-C ,  2-C ) :   1.6076
B(  1-C , 32-H ) :   0.9707 B(  2-C ,  3-C ) :   1.2252 B(  2-C ,  6-C ) :   1.0321
B(  3-C ,  4-C ) :   1.5998 B(  3-C ,  5-H ) :   0.9887 B(  4-C , 20-C ) :   1.0485
B(  6-C ,  7-H ) :   0.9387 B(  6-C ,  8-H ) :   0.9443 B(  6-C ,  9-C ) :   1.0594
B(  9-C , 10-H ) :   0.9580 B(  9-C , 11-H ) :   0.9531 B(  9-C , 12-C ) :   1.0728
B( 12-C , 13-H ) :   0.9782 B( 12-C , 14-H ) :   0.9753 B( 12-C , 15-H ) :   0.9743
B( 16-S , 17-C ) :   1.1503 B( 16-S , 20-C ) :   1.1503 B( 17-C , 18-C ) :   1.6122
B( 17-C , 33-H ) :   0.9629 B( 18-C , 19-C ) :   1.2675 B( 18-C , 21-H ) :   0.9680
B( 19-C , 20-C ) :   1.6043 B( 19-C , 22-C ) :   1.0341 B( 22-C , 23-H ) :   0.9160
B( 22-C , 24-H ) :   0.9201 B( 22-C , 25-C ) :   1.0838 B( 25-C , 26-H ) :   0.9536
B( 25-C , 27-H ) :   0.9475 B( 25-C , 28-C ) :   1.0656 B( 28-C , 29-H ) :   0.9699
B( 28-C , 30-H ) :   0.9785 B( 28-C , 31-H ) :   0.9710

Dispersion correction           -0.015016896
FINAL SINGLE POINT ENERGY     -1339.875875762104

DIPOLE MOMENT
-------------
                                X             Y             Z
Electronic contribution:    -17.34511      16.51647     -15.84584
Nuclear contribution   :     17.52163     -17.04318      16.23481
                        -----------------------------------------
Total Dipole Moment    :      0.17652      -0.52671       0.38897
                        -----------------------------------------
Magnitude (a.u.)       :      0.67815
Magnitude (Debye)      :      1.72371

Rotational constants in cm-1:     0.017090     0.010070     0.007214
Rotational constants in MHz :   512.350072   301.891664   216.263065

                             ****ORCA TERMINATED NORMALLY****
TOTAL RUN TIME: 0 days 0 hours 0 minutes 22 seconds 220 msec
