                         Program Version 4.2.1 -  RELEASE  -
|  1> ! wB97X-D3 SP def2-SVP
|  2> %pal
|  3> nprocs 24
|  4> end
|  5>
|  6> * xyz 0 1
|  7> S 	 -135.275 	 65.411 	 -66.3197
|  8> C 	 -135.902 	 66.7488 	 -67.3205
|  9> C 	 -136.357 	 67.8173 	 -66.5765
| 10> C 	 -136.172 	 67.6108 	 -65.1794
| 11> C 	 -135.734 	 66.3659 	 -64.8365
| 12> H 	 -136.485 	 68.361 	 -64.4437
| 13> C 	 -136.902 	 69.0593 	 -67.261
| 14> H 	 -137.312 	 68.8792 	 -68.2138
| 15> H 	 -135.997 	 69.6379 	 -67.4589
| 16> C 	 -137.874 	 70.0458 	 -66.5344
| 17> H 	 -137.432 	 70.4062 	 -65.5975
| 18> H 	 -137.986 	 70.8705 	 -67.2724
| 19> C 	 -139.375 	 69.5756 	 -66.413
| 20> H 	 -139.837 	 69.4574 	 -67.4074
| 21> H 	 -139.483 	 68.6586 	 -65.8145
| 22> H 	 -140.015 	 70.3568 	 -65.9421
| 23> S 	 -136.128 	 64.1423 	 -63.2914
| 24> C 	 -135.797 	 64.2009 	 -61.555
| 25> C 	 -135.064 	 65.3339 	 -61.2771
| 26> C 	 -134.985 	 66.277 	 -62.3636
| 27> C 	 -135.512 	 65.7899 	 -63.5321
| 28> H 	 -134.691 	 65.4074 	 -60.2788
| 29> C 	 -134.394 	 67.6604 	 -62.1049
| 30> H 	 -134.438 	 67.8635 	 -61.0155
| 31> H 	 -135.017 	 68.3491 	 -62.6218
| 32> C 	 -133.029 	 67.9289 	 -62.6553
| 33> H 	 -132.769 	 68.8953 	 -62.1635
| 34> H 	 -133.081 	 68.2523 	 -63.6891
| 35> C 	 -131.933 	 66.8204 	 -62.3421
| 36> H 	 -131.762 	 66.7775 	 -61.3218
| 37> H 	 -130.924 	 67.0292 	 -62.7252
| 38> H 	 -132.18 	 65.8259 	 -62.7326
| 39> H 	 -135.673 	 66.8869 	 -68.3436
| 40> H 	 -135.966 	 63.3509 	 -60.8466
| 41> *
| 42>
| 43>                          ****END OF INPUT****

CARTESIAN COORDINATES (ANGSTROEM)
---------------------------------
  S    -135.275000   65.411000  -66.319700
  C    -135.902000   66.748800  -67.320500
  C    -136.357000   67.817300  -66.576500
  C    -136.172000   67.610800  -65.179400
  C    -135.734000   66.365900  -64.836500
  H    -136.485000   68.361000  -64.443700
  C    -136.902000   69.059300  -67.261000
  H    -137.312000   68.879200  -68.213800
  H    -135.997000   69.637900  -67.458900
  C    -137.874000   70.045800  -66.534400
  H    -137.432000   70.406200  -65.597500
  H    -137.986000   70.870500  -67.272400
  C    -139.375000   69.575600  -66.413000
  H    -139.837000   69.457400  -67.407400
  H    -139.483000   68.658600  -65.814500
  H    -140.015000   70.356800  -65.942100
  S    -136.128000   64.142300  -63.291400
  C    -135.797000   64.200900  -61.555000
  C    -135.064000   65.333900  -61.277100
  C    -134.985000   66.277000  -62.363600
  C    -135.512000   65.789900  -63.532100
  H    -134.691000   65.407400  -60.278800
  C    -134.394000   67.660400  -62.104900
  H    -134.438000   67.863500  -61.015500
  H    -135.017000   68.349100  -62.621800
  C    -133.029000   67.928900  -62.655300
  H    -132.769000   68.895300  -62.163500
  H    -133.081000   68.252300  -63.689100
  C    -131.933000   66.820400  -62.342100
  H    -131.762000   66.777500  -61.321800
  H    -130.924000   67.029200  -62.725200
  H    -132.180000   65.825900  -62.732600
  H    -135.673000   66.886900  -68.343600
  H    -135.966000   63.350900  -60.846600

 Total Charge           Charge          ....    0
 Multiplicity           Mult            ....    1
 Number of Electrons    NEL             ....  134
 Basis Dimension        Dim             ....  322

ORBITAL ENERGIES
----------------

  NO   OCC          E(Eh)            E(eV)
   0   2.0000     -88.966140     -2420.8917
   1   2.0000     -88.961562     -2420.7672
   2   2.0000     -10.335709      -281.2489
   3   2.0000     -10.326697      -281.0037
   4   2.0000     -10.320924      -280.8466
   5   2.0000     -10.309189      -280.5273
   6   2.0000     -10.303634      -280.3761
   7   2.0000     -10.302594      -280.3478
   8   2.0000     -10.299397      -280.2608
   9   2.0000     -10.297693      -280.2145
  10   2.0000     -10.293647      -280.1044
  11   2.0000     -10.292697      -280.0785
  12   2.0000     -10.289378      -279.9882
  13   2.0000     -10.287499      -279.9371
  14   2.0000     -10.285150      -279.8732
  15   2.0000     -10.273108      -279.5455
  16   2.0000      -8.079292      -219.8487
  17   2.0000      -8.075858      -219.7553
  18   2.0000      -6.037988      -164.3020
  19   2.0000      -6.034511      -164.2074
  20   2.0000      -6.034198      -164.1989
  21   2.0000      -6.030466      -164.0973
  22   2.0000      -6.029776      -164.0786
  23   2.0000      -6.026434      -163.9876
  24   2.0000      -1.002122       -27.2691
  25   2.0000      -0.978252       -26.6196
  26   2.0000      -0.908377       -24.7182
  27   2.0000      -0.905615       -24.6430
  28   2.0000      -0.868871       -23.6432
  29   2.0000      -0.844494       -22.9798
  30   2.0000      -0.836855       -22.7720
  31   2.0000      -0.817959       -22.2578
  32   2.0000      -0.787513       -21.4293
  33   2.0000      -0.775762       -21.1096
  34   2.0000      -0.716044       -19.4845
  35   2.0000      -0.695547       -18.9268
  36   2.0000      -0.687841       -18.7171
  37   2.0000      -0.661350       -17.9963
  38   2.0000      -0.638699       -17.3799
  39   2.0000      -0.624976       -17.0065
  40   2.0000      -0.585960       -15.9448
  41   2.0000      -0.568925       -15.4812
  42   2.0000      -0.558543       -15.1987
  43   2.0000      -0.546254       -14.8643
  44   2.0000      -0.540201       -14.6996
  45   2.0000      -0.536174       -14.5900
  46   2.0000      -0.516589       -14.0571
  47   2.0000      -0.509414       -13.8619
  48   2.0000      -0.502308       -13.6685
  49   2.0000      -0.491882       -13.3848
  50   2.0000      -0.486837       -13.2475
  51   2.0000      -0.480511       -13.0754
  52   2.0000      -0.473123       -12.8743
  53   2.0000      -0.466046       -12.6818
  54   2.0000      -0.456191       -12.4136
  55   2.0000      -0.448746       -12.2110
  56   2.0000      -0.438210       -11.9243
  57   2.0000      -0.437471       -11.9042
  58   2.0000      -0.433031       -11.7834
  59   2.0000      -0.427331       -11.6283
  60   2.0000      -0.422293       -11.4912
  61   2.0000      -0.411437       -11.1958
  62   2.0000      -0.407133       -11.0787
  63   2.0000      -0.352740        -9.5985
  64   2.0000      -0.331781        -9.0282
  65   2.0000      -0.327597        -8.9144
  66   2.0000      -0.286973        -7.8089
  67   0.0000       0.026318         0.7162
  68   0.0000       0.062726         1.7069
  69   0.0000       0.105618         2.8740
  70   0.0000       0.119658         3.2561
  71   0.0000       0.131111         3.5677

MULLIKEN ATOMIC CHARGES
-----------------------
   0 S :    0.092053
   1 C :   -0.108607
   2 C :   -0.081605
   3 C :    0.002198
   4 C :   -0.119502
   5 H :    0.024034
   6 C :    0.060263
   7 H :    0.012532
   8 H :    0.041098
   9 C :   -0.089572
  10 H :    0.037608
  11 H :    0.034827
  12 C :   -0.076565
  13 H :    0.033552
  14 H :    0.048945
  15 H :    0.039567
  16 S :    0.088580
  17 C :   -0.114218
  18 C :   -0.035707
  19 C :   -0.049642
  20 C :   -0.144040
  21 H :    0.012133
  22 C :    0.108555
  23 H :    0.026995
  24 H :    0.003613
  25 C :   -0.075689
  26 H :    0.023600
  27 H :    0.032298
  28 C :   -0.033201
  29 H :    0.010493
  30 H :    0.027131
  31 H :    0.051513
  32 H :    0.038534
  33 H :    0.078226
Sum of atomic charges:    0.0000000

LOEWDIN ATOMIC CHARGES
----------------------
   0 S :    0.358644
   1 C :   -0.185534
   2 C :   -0.058071
   3 C :   -0.068180
   4 C :   -0.159314
   5 H :    0.034266
   6 C :   -0.032953
   7 H :    0.024858
   8 H :    0.040244
   9 C :   -0.041223
  10 H :    0.021258
  11 H :    0.033395
  12 C :   -0.074578
  13 H :    0.026975
  14 H :    0.026318
  15 H :    0.030059
  16 S :    0.382368
  17 C :   -0.184463
  18 C :   -0.071437
  19 C :   -0.054927
  20 C :   -0.191706
  21 H :    0.028129
  22 C :   -0.029733
  23 H :    0.033321
  24 H :    0.027634
  25 C :   -0.039141
  26 H :    0.029171
  27 H :    0.023365
  28 C :   -0.065083
  29 H :    0.013925
  30 H :    0.028969
  31 H :    0.030782
  32 H :    0.021043
  33 H :    0.041621

  Mayer bond orders larger than 0.100000
B(  0-S ,  1-C ) :   1.1113 B(  0-S ,  4-C ) :   1.1241 B(  1-C ,  2-C ) :   1.6535
B(  1-C ,  4-C ) :   0.1014 B(  1-C , 32-H ) :   0.9665 B(  2-C ,  3-C ) :   1.2298
B(  2-C ,  6-C ) :   1.0066 B(  3-C ,  4-C ) :   1.6102 B(  3-C ,  5-H ) :   0.9829
B(  4-C , 20-C ) :   1.0519 B(  6-C ,  7-H ) :   0.9449 B(  6-C ,  8-H ) :   0.9296
B(  6-C ,  9-C ) :   1.0848 B(  9-C , 10-H ) :   0.9548 B(  9-C , 11-H ) :   0.9541
B(  9-C , 12-C ) :   1.0671 B( 12-C , 13-H ) :   0.9746 B( 12-C , 14-H ) :   0.9797
B( 12-C , 15-H ) :   0.9757 B( 16-S , 17-C ) :   1.1412 B( 16-S , 20-C ) :   1.1221
B( 17-C , 18-C ) :   1.6318 B( 17-C , 33-H ) :   0.9608 B( 18-C , 19-C ) :   1.2060
B( 18-C , 21-H ) :   0.9941 B( 19-C , 20-C ) :   1.6148 B( 19-C , 22-C ) :   1.0384
B( 22-C , 23-H ) :   0.9362 B( 22-C , 24-H ) :   0.9233 B( 22-C , 25-C ) :   1.0859
B( 25-C , 26-H ) :   0.9532 B( 25-C , 27-H ) :   0.9577 B( 25-C , 28-C ) :   1.0632
B( 28-C , 29-H ) :   0.9760 B( 28-C , 30-H ) :   0.9759 B( 28-C , 31-H ) :   0.9751

Dispersion correction           -0.014561876
FINAL SINGLE POINT ENERGY     -1339.871940112005

DIPOLE MOMENT
-------------
                                X             Y             Z
Electronic contribution:     -0.63494     -23.07087      -1.38979
Nuclear contribution   :      0.73592      23.86775       1.58163
                        -----------------------------------------
Total Dipole Moment    :      0.10098       0.79688       0.19185
                        -----------------------------------------
Magnitude (a.u.)       :      0.82585
Magnitude (Debye)      :      2.09914

Rotational constants in cm-1:     0.018975     0.008258     0.007540
Rotational constants in MHz :   568.851054   247.556617   226.037016

                             ****ORCA TERMINATED NORMALLY****
TOTAL RUN TIME: 0 days 0 hours 0 minutes 20 seconds 597 msec
