                         Program Version 4.2.1 -  RELEASE  -
|  1> ! wB97X-D3 SP def2-SVP
|  2> %pal
|  3> nprocs 24
|  4> end
|  5>
|  6> * xyz 0 1
|  7> S 	 -42.9703 	 -3.28394 	 15.395
|  8> C 	 -44.407 	 -2.31667 	 15.0133
|  9> C 	 -44.6979 	 -2.4261 	 13.6651
| 10> C 	 -43.9251 	 -3.45392 	 13.0474
| 11> C 	 -42.9326 	 -4.033 	 13.8069
| 12> H 	 -44.0787 	 -3.84619 	 12.0023
| 13> C 	 -45.8602 	 -1.73644 	 12.8691
| 14> H 	 -46.7736 	 -2.19591 	 13.3031
| 15> H 	 -45.9137 	 -1.95902 	 11.8095
| 16> C 	 -46.1775 	 -0.28732 	 13.139
| 17> H 	 -46.4051 	 -0.127737 	 14.1867
| 18> H 	 -45.3989 	 0.430956 	 12.9496
| 19> C 	 -47.4178 	 0.202244 	 12.3817
| 20> H 	 -48.3296 	 -0.388039 	 12.432
| 21> H 	 -47.5809 	 1.22109 	 12.7105
| 22> H 	 -47.1652 	 0.224751 	 11.3305
| 23> S 	 -41.8004 	 -6.56664 	 14.2914
| 24> C 	 -40.9917 	 -7.35053 	 12.9534
| 25> C 	 -40.7409 	 -6.40681 	 11.8895
| 26> C 	 -41.2157 	 -5.095 	 12.2198
| 27> C 	 -41.9664 	 -5.05507 	 13.348
| 28> H 	 -40.1902 	 -6.7744 	 10.9938
| 29> C 	 -41.1675 	 -3.98134 	 11.2042
| 30> H 	 -40.1826 	 -3.65353 	 10.9783
| 31> H 	 -41.5231 	 -3.00434 	 11.5511
| 32> C 	 -41.7743 	 -4.32627 	 9.87202
| 33> H 	 -42.6556 	 -5.05911 	 9.89142
| 34> H 	 -40.8708 	 -4.78964 	 9.34326
| 35> C 	 -42.1395 	 -3.02058 	 9.20185
| 36> H 	 -41.3115 	 -2.36247 	 9.02297
| 37> H 	 -42.7445 	 -2.4667 	 9.87684
| 38> H 	 -42.6911 	 -3.25791 	 8.3237
| 39> H 	 -44.8664 	 -1.5487 	 15.5956
| 40> H 	 -40.6559 	 -8.37336 	 12.9819
| 41> *
| 42>
| 43>                          ****END OF INPUT****

CARTESIAN COORDINATES (ANGSTROEM)
---------------------------------
  S    -42.970300   -3.283940   15.395000
  C    -44.407000   -2.316670   15.013300
  C    -44.697900   -2.426100   13.665100
  C    -43.925100   -3.453920   13.047400
  C    -42.932600   -4.033000   13.806900
  H    -44.078700   -3.846190   12.002300
  C    -45.860200   -1.736440   12.869100
  H    -46.773600   -2.195910   13.303100
  H    -45.913700   -1.959020   11.809500
  C    -46.177500   -0.287320   13.139000
  H    -46.405100   -0.127737   14.186700
  H    -45.398900    0.430956   12.949600
  C    -47.417800    0.202244   12.381700
  H    -48.329600   -0.388039   12.432000
  H    -47.580900    1.221090   12.710500
  H    -47.165200    0.224751   11.330500
  S    -41.800400   -6.566640   14.291400
  C    -40.991700   -7.350530   12.953400
  C    -40.740900   -6.406810   11.889500
  C    -41.215700   -5.095000   12.219800
  C    -41.966400   -5.055070   13.348000
  H    -40.190200   -6.774400   10.993800
  C    -41.167500   -3.981340   11.204200
  H    -40.182600   -3.653530   10.978300
  H    -41.523100   -3.004340   11.551100
  C    -41.774300   -4.326270    9.872020
  H    -42.655600   -5.059110    9.891420
  H    -40.870800   -4.789640    9.343260
  C    -42.139500   -3.020580    9.201850
  H    -41.311500   -2.362470    9.022970
  H    -42.744500   -2.466700    9.876840
  H    -42.691100   -3.257910    8.323700
  H    -44.866400   -1.548700   15.595600
  H    -40.655900   -8.373360   12.981900

 Total Charge           Charge          ....    0
 Multiplicity           Mult            ....    1
 Number of Electrons    NEL             ....  134
 Basis Dimension        Dim             ....  322

ORBITAL ENERGIES
----------------

  NO   OCC          E(Eh)            E(eV)
   0   2.0000     -88.966550     -2420.9029
   1   2.0000     -88.966180     -2420.8928
   2   2.0000     -10.331110      -281.1238
   3   2.0000     -10.329156      -281.0706
   4   2.0000     -10.326068      -280.9866
   5   2.0000     -10.314615      -280.6750
   6   2.0000     -10.306166      -280.4450
   7   2.0000     -10.305545      -280.4281
   8   2.0000     -10.305144      -280.4172
   9   2.0000     -10.297756      -280.2162
  10   2.0000     -10.294847      -280.1370
  11   2.0000     -10.292961      -280.0857
  12   2.0000     -10.284824      -279.8643
  13   2.0000     -10.282719      -279.8070
  14   2.0000     -10.277770      -279.6723
  15   2.0000     -10.270719      -279.4805
  16   2.0000      -8.080512      -219.8819
  17   2.0000      -8.080423      -219.8795
  18   2.0000      -6.039140      -164.3333
  19   2.0000      -6.038931      -164.3277
  20   2.0000      -6.035121      -164.2240
  21   2.0000      -6.035003      -164.2208
  22   2.0000      -6.031211      -164.1176
  23   2.0000      -6.031177      -164.1167
  24   2.0000      -1.002497       -27.2793
  25   2.0000      -0.980907       -26.6918
  26   2.0000      -0.919877       -25.0311
  27   2.0000      -0.913751       -24.8644
  28   2.0000      -0.867138       -23.5960
  29   2.0000      -0.854227       -23.2447
  30   2.0000      -0.842590       -22.9280
  31   2.0000      -0.808657       -22.0047
  32   2.0000      -0.784082       -21.3360
  33   2.0000      -0.776576       -21.1317
  34   2.0000      -0.707508       -19.2523
  35   2.0000      -0.698141       -18.9974
  36   2.0000      -0.694217       -18.8906
  37   2.0000      -0.659339       -17.9415
  38   2.0000      -0.639332       -17.3971
  39   2.0000      -0.614941       -16.7334
  40   2.0000      -0.602794       -16.4029
  41   2.0000      -0.573533       -15.6066
  42   2.0000      -0.567811       -15.4509
  43   2.0000      -0.562716       -15.3123
  44   2.0000      -0.536112       -14.5884
  45   2.0000      -0.523563       -14.2469
  46   2.0000      -0.522249       -14.2111
  47   2.0000      -0.513959       -13.9855
  48   2.0000      -0.503924       -13.7125
  49   2.0000      -0.494207       -13.4481
  50   2.0000      -0.490688       -13.3523
  51   2.0000      -0.476952       -12.9785
  52   2.0000      -0.471380       -12.8269
  53   2.0000      -0.466242       -12.6871
  54   2.0000      -0.463189       -12.6040
  55   2.0000      -0.449558       -12.2331
  56   2.0000      -0.442655       -12.0453
  57   2.0000      -0.439535       -11.9604
  58   2.0000      -0.433265       -11.7898
  59   2.0000      -0.423583       -11.5263
  60   2.0000      -0.419256       -11.4085
  61   2.0000      -0.417926       -11.3724
  62   2.0000      -0.406414       -11.0591
  63   2.0000      -0.342395        -9.3171
  64   2.0000      -0.331369        -9.0170
  65   2.0000      -0.328088        -8.9277
  66   2.0000      -0.294480        -8.0132
  67   0.0000       0.029222         0.7952
  68   0.0000       0.062902         1.7117
  69   0.0000       0.110592         3.0094
  70   0.0000       0.121073         3.2946
  71   0.0000       0.128851         3.5062

MULLIKEN ATOMIC CHARGES
-----------------------
   0 S :    0.105403
   1 C :   -0.109387
   2 C :   -0.059491
   3 C :   -0.011960
   4 C :   -0.129259
   5 H :    0.027814
   6 C :    0.053442
   7 H :    0.042065
   8 H :    0.023538
   9 C :   -0.081763
  10 H :    0.019834
  11 H :    0.026103
  12 C :   -0.054208
  13 H :    0.032874
  14 H :    0.033981
  15 H :    0.024096
  16 S :    0.107784
  17 C :   -0.102790
  18 C :   -0.069763
  19 C :    0.025190
  20 C :   -0.165522
  21 H :    0.043637
  22 C :    0.055933
  23 H :    0.009331
  24 H :    0.018490
  25 C :   -0.142081
  26 H :    0.057295
  27 H :    0.041535
  28 C :    0.006698
  29 H :    0.023188
  30 H :    0.012108
  31 H :    0.029093
  32 H :    0.042937
  33 H :    0.063855
Sum of atomic charges:   -0.0000000

LOEWDIN ATOMIC CHARGES
----------------------
   0 S :    0.394737
   1 C :   -0.192511
   2 C :   -0.059977
   3 C :   -0.072916
   4 C :   -0.192026
   5 H :    0.038148
   6 C :   -0.034439
   7 H :    0.044932
   8 H :    0.027494
   9 C :   -0.043838
  10 H :    0.019719
  11 H :    0.020772
  12 C :   -0.061267
  13 H :    0.023571
  14 H :    0.028590
  15 H :    0.022356
  16 S :    0.391835
  17 C :   -0.179325
  18 C :   -0.074477
  19 C :   -0.050574
  20 C :   -0.186698
  21 H :    0.039799
  22 C :   -0.039622
  23 H :    0.029131
  24 H :    0.027212
  25 C :   -0.047824
  26 H :    0.031311
  27 H :    0.031748
  28 C :   -0.056409
  29 H :    0.025066
  30 H :    0.018886
  31 H :    0.023316
  32 H :    0.025646
  33 H :    0.027637

  Mayer bond orders larger than 0.100000
B(  0-S ,  1-C ) :   1.1306 B(  0-S ,  4-C ) :   1.1434 B(  1-C ,  2-C ) :   1.6177
B(  1-C , 32-H ) :   0.9675 B(  2-C ,  3-C ) :   1.2426 B(  2-C ,  6-C ) :   1.0024
B(  3-C ,  4-C ) :   1.5842 B(  3-C ,  5-H ) :   0.9865 B(  4-C , 20-C ) :   1.0302
B(  6-C ,  7-H ) :   0.9370 B(  6-C ,  8-H ) :   0.9588 B(  6-C ,  9-C ) :   1.0566
B(  9-C , 10-H ) :   0.9526 B(  9-C , 11-H ) :   0.9557 B(  9-C , 12-C ) :   1.0869
B( 12-C , 13-H ) :   0.9763 B( 12-C , 14-H ) :   0.9732 B( 12-C , 15-H ) :   0.9750
B( 16-S , 17-C ) :   1.1707 B( 16-S , 20-C ) :   1.1195 B( 17-C , 18-C ) :   1.5914
B( 17-C , 20-C ) :   0.1022 B( 17-C , 33-H ) :   0.9710 B( 18-C , 19-C ) :   1.2112
B( 18-C , 21-H ) :   0.9881 B( 19-C , 20-C ) :   1.6196 B( 19-C , 22-C ) :   1.0494
B( 22-C , 23-H ) :   0.9194 B( 22-C , 24-H ) :   0.9471 B( 22-C , 25-C ) :   1.0355
B( 25-C , 26-H ) :   0.9626 B( 25-C , 27-H ) :   0.9485 B( 25-C , 28-C ) :   1.0869
B( 28-C , 29-H ) :   0.9681 B( 28-C , 30-H ) :   0.9741 B( 28-C , 31-H ) :   0.9709

Dispersion correction           -0.014199617
FINAL SINGLE POINT ENERGY     -1339.861517216975

DIPOLE MOMENT
-------------
                                X             Y             Z
Electronic contribution:     13.08984     -19.26186      22.86438
Nuclear contribution   :    -13.27856      19.57306     -23.59966
                        -----------------------------------------
Total Dipole Moment    :     -0.18872       0.31120      -0.73528
                        -----------------------------------------
Magnitude (a.u.)       :      0.82043
Magnitude (Debye)      :      2.08537

Rotational constants in cm-1:     0.019366     0.008298     0.006222
Rotational constants in MHz :   580.581684   248.781798   186.524356

                             ****ORCA TERMINATED NORMALLY****
TOTAL RUN TIME: 0 days 0 hours 0 minutes 20 seconds 498 msec
