                         Program Version 4.2.1 -  RELEASE  -
|  1> ! wB97X-D3 SP def2-SVP
|  2> %pal
|  3> nprocs 24
|  4> end
|  5>
|  6> * xyz 0 1
|  7> S 	 -92.2925 	 0.313034 	 1.78543
|  8> C 	 -92.1605 	 0.0534616 	 3.5945
|  9> C 	 -91.9755 	 1.2407 	 4.28043
| 10> C 	 -91.9874 	 2.34287 	 3.35887
| 11> C 	 -92.2199 	 2.02261 	 2.05675
| 12> H 	 -91.9064 	 3.42939 	 3.67117
| 13> C 	 -91.5595 	 1.49921 	 5.74495
| 14> H 	 -92.1986 	 1.0378 	 6.51879
| 15> H 	 -91.6365 	 2.58095 	 5.85408
| 16> C 	 -90.0875 	 1.09083 	 6.11735
| 17> H 	 -89.8864 	 1.44447 	 7.19078
| 18> H 	 -90.0021 	 0.0444353 	 5.89008
| 19> C 	 -89.1312 	 1.83769 	 5.25418
| 20> H 	 -88.9801 	 2.84991 	 5.55598
| 21> H 	 -88.1862 	 1.34385 	 5.42666
| 22> H 	 -89.3301 	 1.68228 	 4.1929
| 23> S 	 -93.5796 	 3.11245 	 -0.0233519
| 24> C 	 -92.8798 	 4.41613 	 -0.905342
| 25> C 	 -91.5975 	 4.77936 	 -0.515766
| 26> C 	 -91.1545 	 3.9173 	 0.584089
| 27> C 	 -92.1735 	 2.98657 	 0.973083
| 28> H 	 -91.1025 	 5.60042 	 -0.992008
| 29> C 	 -89.7425 	 3.93961 	 1.10838
| 30> H 	 -89.678 	 3.27615 	 1.94499
| 31> H 	 -89.4424 	 4.93354 	 1.43526
| 32> C 	 -88.7135 	 3.65314 	 0.0173446
| 33> H 	 -88.6567 	 4.50977 	 -0.575276
| 34> H 	 -89.0606 	 2.75828 	 -0.46752
| 35> C 	 -87.3105 	 3.43912 	 0.454036
| 36> H 	 -86.8228 	 4.40885 	 0.760963
| 37> H 	 -86.676 	 2.97716 	 -0.298953
| 38> H 	 -87.3523 	 2.78519 	 1.34556
| 39> H 	 -92.0827 	 -1.01211 	 3.98724
| 40> H 	 -93.3737 	 4.79587 	 -1.83518
| 41> *
| 42>
| 43>                          ****END OF INPUT****

CARTESIAN COORDINATES (ANGSTROEM)
---------------------------------
  S    -92.292500    0.313034    1.785430
  C    -92.160500    0.053462    3.594500
  C    -91.975500    1.240700    4.280430
  C    -91.987400    2.342870    3.358870
  C    -92.219900    2.022610    2.056750
  H    -91.906400    3.429390    3.671170
  C    -91.559500    1.499210    5.744950
  H    -92.198600    1.037800    6.518790
  H    -91.636500    2.580950    5.854080
  C    -90.087500    1.090830    6.117350
  H    -89.886400    1.444470    7.190780
  H    -90.002100    0.044435    5.890080
  C    -89.131200    1.837690    5.254180
  H    -88.980100    2.849910    5.555980
  H    -88.186200    1.343850    5.426660
  H    -89.330100    1.682280    4.192900
  S    -93.579600    3.112450   -0.023352
  C    -92.879800    4.416130   -0.905342
  C    -91.597500    4.779360   -0.515766
  C    -91.154500    3.917300    0.584089
  C    -92.173500    2.986570    0.973083
  H    -91.102500    5.600420   -0.992008
  C    -89.742500    3.939610    1.108380
  H    -89.678000    3.276150    1.944990
  H    -89.442400    4.933540    1.435260
  C    -88.713500    3.653140    0.017345
  H    -88.656700    4.509770   -0.575276
  H    -89.060600    2.758280   -0.467520
  C    -87.310500    3.439120    0.454036
  H    -86.822800    4.408850    0.760963
  H    -86.676000    2.977160   -0.298953
  H    -87.352300    2.785190    1.345560
  H    -92.082700   -1.012110    3.987240
  H    -93.373700    4.795870   -1.835180

 Total Charge           Charge          ....    0
 Multiplicity           Mult            ....    1
 Number of Electrons    NEL             ....  134
 Basis Dimension        Dim             ....  322

ORBITAL ENERGIES
----------------

  NO   OCC          E(Eh)            E(eV)
   0   2.0000     -88.968111     -2420.9454
   1   2.0000     -88.965503     -2420.8744
   2   2.0000     -10.328103      -281.0420
   3   2.0000     -10.325567      -280.9730
   4   2.0000     -10.324751      -280.9508
   5   2.0000     -10.318266      -280.7743
   6   2.0000     -10.311425      -280.5881
   7   2.0000     -10.308476      -280.5079
   8   2.0000     -10.297621      -280.2125
   9   2.0000     -10.296900      -280.1929
  10   2.0000     -10.295716      -280.1607
  11   2.0000     -10.291770      -280.0533
  12   2.0000     -10.284770      -279.8628
  13   2.0000     -10.277508      -279.6652
  14   2.0000     -10.272099      -279.5180
  15   2.0000     -10.267752      -279.3997
  16   2.0000      -8.082148      -219.9264
  17   2.0000      -8.081212      -219.9010
  18   2.0000      -6.040700      -164.3758
  19   2.0000      -6.039536      -164.3441
  20   2.0000      -6.036955      -164.2739
  21   2.0000      -6.035506      -164.2345
  22   2.0000      -6.032689      -164.1578
  23   2.0000      -6.032197      -164.1444
  24   2.0000      -1.005187       -27.3525
  25   2.0000      -0.980068       -26.6690
  26   2.0000      -0.917547       -24.9677
  27   2.0000      -0.913368       -24.8540
  28   2.0000      -0.868649       -23.6371
  29   2.0000      -0.852920       -23.2091
  30   2.0000      -0.845098       -22.9963
  31   2.0000      -0.810239       -22.0477
  32   2.0000      -0.784920       -21.3588
  33   2.0000      -0.768815       -20.9205
  34   2.0000      -0.699845       -19.0438
  35   2.0000      -0.695982       -18.9386
  36   2.0000      -0.686046       -18.6683
  37   2.0000      -0.655870       -17.8471
  38   2.0000      -0.635090       -17.2817
  39   2.0000      -0.612803       -16.6752
  40   2.0000      -0.595127       -16.1942
  41   2.0000      -0.583361       -15.8741
  42   2.0000      -0.577971       -15.7274
  43   2.0000      -0.547533       -14.8991
  44   2.0000      -0.544529       -14.8174
  45   2.0000      -0.521130       -14.1807
  46   2.0000      -0.519171       -14.1274
  47   2.0000      -0.509501       -13.8642
  48   2.0000      -0.505760       -13.7624
  49   2.0000      -0.489337       -13.3155
  50   2.0000      -0.486980       -13.2514
  51   2.0000      -0.480888       -13.0856
  52   2.0000      -0.471841       -12.8395
  53   2.0000      -0.461219       -12.5504
  54   2.0000      -0.457049       -12.4369
  55   2.0000      -0.449777       -12.2391
  56   2.0000      -0.447467       -12.1762
  57   2.0000      -0.433159       -11.7869
  58   2.0000      -0.429445       -11.6858
  59   2.0000      -0.424466       -11.5503
  60   2.0000      -0.420822       -11.4511
  61   2.0000      -0.416334       -11.3290
  62   2.0000      -0.413792       -11.2599
  63   2.0000      -0.339079        -9.2268
  64   2.0000      -0.335366        -9.1258
  65   2.0000      -0.326187        -8.8760
  66   2.0000      -0.296701        -8.0736
  67   0.0000       0.034555         0.9403
  68   0.0000       0.065050         1.7701
  69   0.0000       0.101151         2.7524
  70   0.0000       0.117756         3.2043
  71   0.0000       0.124868         3.3978

MULLIKEN ATOMIC CHARGES
-----------------------
   0 S :    0.101498
   1 C :   -0.171939
   2 C :   -0.067264
   3 C :   -0.010411
   4 C :   -0.135528
   5 H :    0.040945
   6 C :    0.062942
   7 H :    0.040896
   8 H :    0.013249
   9 C :   -0.080159
  10 H :    0.047478
  11 H :    0.030264
  12 C :   -0.048867
  13 H :    0.026419
  14 H :    0.017586
  15 H :    0.054987
  16 S :    0.122210
  17 C :   -0.112821
  18 C :   -0.030751
  19 C :   -0.035906
  20 C :   -0.185342
  21 H :    0.019966
  22 C :    0.106436
  23 H :    0.008259
  24 H :    0.011693
  25 C :   -0.066840
  26 H :    0.015306
  27 H :    0.032037
  28 C :   -0.050415
  29 H :    0.028513
  30 H :    0.041691
  31 H :    0.023825
  32 H :    0.076957
  33 H :    0.073089
Sum of atomic charges:    0.0000000

LOEWDIN ATOMIC CHARGES
----------------------
   0 S :    0.378710
   1 C :   -0.181045
   2 C :   -0.065104
   3 C :   -0.069527
   4 C :   -0.208283
   5 H :    0.043441
   6 C :   -0.032395
   7 H :    0.032371
   8 H :    0.025970
   9 C :   -0.036321
  10 H :    0.037202
  11 H :    0.021505
  12 C :   -0.068526
  13 H :    0.020786
  14 H :    0.025847
  15 H :    0.027875
  16 S :    0.429800
  17 C :   -0.199078
  18 C :   -0.069021
  19 C :   -0.041893
  20 C :   -0.216971
  21 H :    0.031265
  22 C :   -0.029434
  23 H :    0.022415
  24 H :    0.028951
  25 C :   -0.038508
  26 H :    0.016072
  27 H :    0.024763
  28 C :   -0.065406
  29 H :    0.026820
  30 H :    0.028260
  31 H :    0.024735
  32 H :    0.039327
  33 H :    0.035398

  Mayer bond orders larger than 0.100000
B(  0-S ,  1-C ) :   1.1190 B(  0-S ,  4-C ) :   1.1452 B(  1-C ,  2-C ) :   1.6256
B(  1-C , 32-H ) :   0.9620 B(  2-C ,  3-C ) :   1.2181 B(  2-C ,  6-C ) :   1.0132
B(  3-C ,  4-C ) :   1.6120 B(  3-C ,  5-H ) :   0.9834 B(  4-C , 20-C ) :   1.0193
B(  6-C ,  7-H ) :   0.9436 B(  6-C ,  8-H ) :   0.9411 B(  6-C ,  9-C ) :   1.0666
B(  9-C , 10-H ) :   0.9542 B(  9-C , 11-H ) :   0.9570 B(  9-C , 12-C ) :   1.0917
B( 12-C , 13-H ) :   0.9748 B( 12-C , 14-H ) :   0.9661 B( 12-C , 15-H ) :   0.9690
B( 16-S , 17-C ) :   1.1739 B( 16-S , 20-C ) :   1.1557 B( 17-C , 18-C ) :   1.6070
B( 17-C , 33-H ) :   0.9586 B( 18-C , 19-C ) :   1.2207 B( 18-C , 21-H ) :   0.9964
B( 19-C , 20-C ) :   1.5739 B( 19-C , 22-C ) :   1.0689 B( 22-C , 23-H ) :   0.9300
B( 22-C , 24-H ) :   0.9222 B( 22-C , 25-C ) :   1.0681 B( 25-C , 26-H ) :   0.9504
B( 25-C , 27-H ) :   0.9554 B( 25-C , 28-C ) :   1.1016 B( 28-C , 29-H ) :   0.9717
B( 28-C , 30-H ) :   0.9724 B( 28-C , 31-H ) :   0.9728

Dispersion correction           -0.014979872
FINAL SINGLE POINT ENERGY     -1339.873619595682

DIPOLE MOMENT
-------------
                                X             Y             Z
Electronic contribution:    -25.63379      -5.27578     -13.13866
Nuclear contribution   :     26.22402       5.51729      13.40133
                        -----------------------------------------
Total Dipole Moment    :      0.59022       0.24151       0.26267
                        -----------------------------------------
Magnitude (a.u.)       :      0.68970
Magnitude (Debye)      :      1.75307

Rotational constants in cm-1:     0.017251     0.009908     0.007311
Rotational constants in MHz :   517.173729   297.021706   219.181655

                             ****ORCA TERMINATED NORMALLY****
TOTAL RUN TIME: 0 days 0 hours 0 minutes 22 seconds 317 msec
