                         Program Version 4.2.1 -  RELEASE  -
|  1> ! wB97X-D3 SP def2-SVP
|  2> %pal
|  3> nprocs 24
|  4> end
|  5>
|  6> * xyz 0 1
|  7> S 	 -89.0788 	 -7.7599 	 -116.533
|  8> C 	 -87.8465 	 -8.7858 	 -117.182
|  9> C 	 -88.1064 	 -8.95227 	 -118.541
| 10> C 	 -89.2197 	 -8.23428 	 -119.073
| 11> C 	 -89.8592 	 -7.55139 	 -118.071
| 12> H 	 -89.6037 	 -8.14209 	 -120.09
| 13> C 	 -87.3534 	 -9.87546 	 -119.425
| 14> H 	 -86.2887 	 -9.60356 	 -119.407
| 15> H 	 -87.643 	 -9.59246 	 -120.489
| 16> C 	 -87.4331 	 -11.325 	 -119.076
| 17> H 	 -87.3827 	 -11.274 	 -117.94
| 18> H 	 -88.4012 	 -11.7316 	 -119.375
| 19> C 	 -86.3238 	 -12.1353 	 -119.642
| 20> H 	 -85.4453 	 -12.1729 	 -119.05
| 21> H 	 -86.5329 	 -13.189 	 -119.518
| 22> H 	 -86.1795 	 -11.9687 	 -120.73
| 23> S 	 -91.1628 	 -5.48105 	 -119.325
| 24> C 	 -92.6239 	 -4.95782 	 -118.638
| 25> C 	 -93.2399 	 -5.95686 	 -117.926
| 26> C 	 -92.3039 	 -6.97348 	 -117.508
| 27> C 	 -91.0526 	 -6.75531 	 -118.085
| 28> H 	 -94.258 	 -5.84768 	 -117.643
| 29> C 	 -92.7188 	 -8.09312 	 -116.563
| 30> H 	 -93.7992 	 -7.98169 	 -116.347
| 31> H 	 -92.1673 	 -7.8896 	 -115.617
| 32> C 	 -92.5903 	 -9.46558 	 -117.149
| 33> H 	 -91.5565 	 -9.59082 	 -117.476
| 34> H 	 -93.2008 	 -9.65771 	 -118.034
| 35> C 	 -92.7382 	 -10.5692 	 -116.089
| 36> H 	 -91.9859 	 -10.4281 	 -115.291
| 37> H 	 -92.6395 	 -11.5392 	 -116.525
| 38> H 	 -93.6621 	 -10.3831 	 -115.676
| 39> H 	 -87.1133 	 -9.25666 	 -116.57
| 40> H 	 -93.1022 	 -4.00828 	 -118.763
| 41> *
| 42>
| 43>                          ****END OF INPUT****

CARTESIAN COORDINATES (ANGSTROEM)
---------------------------------
  S    -89.078800   -7.759900  -116.533000
  C    -87.846500   -8.785800  -117.182000
  C    -88.106400   -8.952270  -118.541000
  C    -89.219700   -8.234280  -119.073000
  C    -89.859200   -7.551390  -118.071000
  H    -89.603700   -8.142090  -120.090000
  C    -87.353400   -9.875460  -119.425000
  H    -86.288700   -9.603560  -119.407000
  H    -87.643000   -9.592460  -120.489000
  C    -87.433100  -11.325000  -119.076000
  H    -87.382700  -11.274000  -117.940000
  H    -88.401200  -11.731600  -119.375000
  C    -86.323800  -12.135300  -119.642000
  H    -85.445300  -12.172900  -119.050000
  H    -86.532900  -13.189000  -119.518000
  H    -86.179500  -11.968700  -120.730000
  S    -91.162800   -5.481050  -119.325000
  C    -92.623900   -4.957820  -118.638000
  C    -93.239900   -5.956860  -117.926000
  C    -92.303900   -6.973480  -117.508000
  C    -91.052600   -6.755310  -118.085000
  H    -94.258000   -5.847680  -117.643000
  C    -92.718800   -8.093120  -116.563000
  H    -93.799200   -7.981690  -116.347000
  H    -92.167300   -7.889600  -115.617000
  C    -92.590300   -9.465580  -117.149000
  H    -91.556500   -9.590820  -117.476000
  H    -93.200800   -9.657710  -118.034000
  C    -92.738200  -10.569200  -116.089000
  H    -91.985900  -10.428100  -115.291000
  H    -92.639500  -11.539200  -116.525000
  H    -93.662100  -10.383100  -115.676000
  H    -87.113300   -9.256660  -116.570000
  H    -93.102200   -4.008280  -118.763000

 Total Charge           Charge          ....    0
 Multiplicity           Mult            ....    1
 Number of Electrons    NEL             ....  134
 Basis Dimension        Dim             ....  322

ORBITAL ENERGIES
----------------

  NO   OCC          E(Eh)            E(eV)
   0   2.0000     -88.963460     -2420.8188
   1   2.0000     -88.963259     -2420.8134
   2   2.0000     -10.324067      -280.9321
   3   2.0000     -10.323353      -280.9127
   4   2.0000     -10.311550      -280.5916
   5   2.0000     -10.309249      -280.5289
   6   2.0000     -10.307184      -280.4727
   7   2.0000     -10.298619      -280.2397
   8   2.0000     -10.293564      -280.1021
   9   2.0000     -10.292019      -280.0601
  10   2.0000     -10.290025      -280.0058
  11   2.0000     -10.284327      -279.8508
  12   2.0000     -10.283990      -279.8416
  13   2.0000     -10.276103      -279.6270
  14   2.0000     -10.272367      -279.5253
  15   2.0000     -10.265882      -279.3488
  16   2.0000      -8.078961      -219.8397
  17   2.0000      -8.078350      -219.8231
  18   2.0000      -6.037330      -164.2841
  19   2.0000      -6.036802      -164.2697
  20   2.0000      -6.033726      -164.1860
  21   2.0000      -6.032638      -164.1564
  22   2.0000      -6.029473      -164.0703
  23   2.0000      -6.029338      -164.0666
  24   2.0000      -1.011062       -27.5124
  25   2.0000      -0.988465       -26.8975
  26   2.0000      -0.919855       -25.0305
  27   2.0000      -0.912585       -24.8327
  28   2.0000      -0.872371       -23.7384
  29   2.0000      -0.855010       -23.2660
  30   2.0000      -0.850063       -23.1314
  31   2.0000      -0.814989       -22.1770
  32   2.0000      -0.784884       -21.3578
  33   2.0000      -0.768284       -20.9061
  34   2.0000      -0.705663       -19.2021
  35   2.0000      -0.700160       -19.0523
  36   2.0000      -0.687741       -18.7144
  37   2.0000      -0.664399       -18.0792
  38   2.0000      -0.645466       -17.5640
  39   2.0000      -0.613374       -16.6908
  40   2.0000      -0.595569       -16.2063
  41   2.0000      -0.576293       -15.6817
  42   2.0000      -0.569101       -15.4860
  43   2.0000      -0.559276       -15.2187
  44   2.0000      -0.532522       -14.4907
  45   2.0000      -0.523855       -14.2548
  46   2.0000      -0.522063       -14.2060
  47   2.0000      -0.516305       -14.0494
  48   2.0000      -0.513098       -13.9621
  49   2.0000      -0.503657       -13.7052
  50   2.0000      -0.493362       -13.4251
  51   2.0000      -0.485357       -13.2072
  52   2.0000      -0.474732       -12.9181
  53   2.0000      -0.465199       -12.6587
  54   2.0000      -0.460726       -12.5370
  55   2.0000      -0.445027       -12.1098
  56   2.0000      -0.442863       -12.0509
  57   2.0000      -0.432688       -11.7740
  58   2.0000      -0.424673       -11.5559
  59   2.0000      -0.424088       -11.5400
  60   2.0000      -0.417718       -11.3667
  61   2.0000      -0.409280       -11.1371
  62   2.0000      -0.402756       -10.9595
  63   2.0000      -0.345373        -9.3981
  64   2.0000      -0.328628        -8.9424
  65   2.0000      -0.327715        -8.9176
  66   2.0000      -0.286841        -7.8053
  67   0.0000       0.031388         0.8541
  68   0.0000       0.059991         1.6324
  69   0.0000       0.099792         2.7155
  70   0.0000       0.123788         3.3684
  71   0.0000       0.138209         3.7609

MULLIKEN ATOMIC CHARGES
-----------------------
   0 S :    0.107779
   1 C :   -0.126923
   2 C :   -0.083926
   3 C :    0.029845
   4 C :   -0.185676
   5 H :    0.019422
   6 C :    0.048951
   7 H :    0.023192
   8 H :    0.019644
   9 C :   -0.067984
  10 H :    0.027189
  11 H :    0.028046
  12 C :   -0.017819
  13 H :    0.018971
  14 H :    0.014161
  15 H :    0.044730
  16 S :    0.110598
  17 C :   -0.073960
  18 C :   -0.033324
  19 C :   -0.021965
  20 C :   -0.155432
  21 H :    0.008424
  22 C :    0.067440
  23 H :    0.015613
  24 H :    0.048248
  25 C :   -0.104367
  26 H :    0.037630
  27 H :    0.032590
  28 C :    0.010113
  29 H :    0.028260
  30 H :    0.032634
  31 H :    0.001620
  32 H :    0.046248
  33 H :    0.050027
Sum of atomic charges:    0.0000000

LOEWDIN ATOMIC CHARGES
----------------------
   0 S :    0.425247
   1 C :   -0.211841
   2 C :   -0.058626
   3 C :   -0.075075
   4 C :   -0.191294
   5 H :    0.037018
   6 C :   -0.045593
   7 H :    0.031618
   8 H :    0.029967
   9 C :   -0.044513
  10 H :    0.031897
  11 H :    0.024413
  12 C :   -0.073142
  13 H :    0.024186
  14 H :    0.028734
  15 H :    0.032715
  16 S :    0.408588
  17 C :   -0.187261
  18 C :   -0.069713
  19 C :   -0.042356
  20 C :   -0.200995
  21 H :    0.025319
  22 C :   -0.036283
  23 H :    0.030743
  24 H :    0.039339
  25 C :   -0.044210
  26 H :    0.023720
  27 H :    0.025881
  28 C :   -0.050904
  29 H :    0.028789
  30 H :    0.023753
  31 H :    0.008752
  32 H :    0.023371
  33 H :    0.027756

  Mayer bond orders larger than 0.100000
B(  0-S ,  1-C ) :   1.1315 B(  0-S ,  4-C ) :   1.1825 B(  1-C ,  2-C ) :   1.5755
B(  1-C ,  4-C ) :   0.1010 B(  1-C , 32-H ) :   0.9803 B(  2-C ,  3-C ) :   1.2446
B(  2-C ,  6-C ) :   1.0334 B(  3-C ,  4-C ) :   1.5682 B(  3-C ,  5-H ) :   0.9939
B(  4-C , 20-C ) :   1.0312 B(  6-C ,  7-H ) :   0.9355 B(  6-C ,  8-H ) :   0.9326
B(  6-C ,  9-C ) :   1.0573 B(  9-C , 10-H ) :   0.9542 B(  9-C , 11-H ) :   0.9520
B(  9-C , 12-C ) :   1.0963 B( 12-C , 13-H ) :   0.9652 B( 12-C , 14-H ) :   0.9638
B( 12-C , 15-H ) :   0.9711 B( 16-S , 17-C ) :   1.1667 B( 16-S , 20-C ) :   1.1212
B( 17-C , 18-C ) :   1.6089 B( 17-C , 33-H ) :   0.9706 B( 18-C , 19-C ) :   1.2362
B( 18-C , 21-H ) :   0.9940 B( 19-C , 20-C ) :   1.5784 B( 19-C , 22-C ) :   1.0337
B( 22-C , 23-H ) :   0.9292 B( 22-C , 24-H ) :   0.9338 B( 22-C , 25-C ) :   1.0631
B( 25-C , 26-H ) :   0.9572 B( 25-C , 27-H ) :   0.9541 B( 25-C , 28-C ) :   1.0797
B( 28-C , 29-H ) :   0.9756 B( 28-C , 30-H ) :   0.9737 B( 28-C , 31-H ) :   0.9726

Dispersion correction           -0.014725504
FINAL SINGLE POINT ENERGY     -1339.860999070423

DIPOLE MOMENT
-------------
                                X             Y             Z
Electronic contribution:     -2.67055      25.79016      -0.04068
Nuclear contribution   :      2.44265     -26.20172       0.00040
                        -----------------------------------------
Total Dipole Moment    :     -0.22789      -0.41156      -0.04028
                        -----------------------------------------
Magnitude (a.u.)       :      0.47216
Magnitude (Debye)      :      1.20014

Rotational constants in cm-1:     0.020651     0.008396     0.007042
Rotational constants in MHz :   619.091700   251.697622   211.107692

                             ****ORCA TERMINATED NORMALLY****
TOTAL RUN TIME: 0 days 0 hours 0 minutes 21 seconds 73 msec
