                         Program Version 4.2.1 -  RELEASE  -
|  1> ! wB97X-D3 SP def2-SVP
|  2> %pal
|  3> nprocs 24
|  4> end
|  5>
|  6> * xyz 0 1
|  7> S 	 -117.716 	 55.9125 	 -39.4086
|  8> C 	 -117.034 	 54.9712 	 -40.7399
|  9> C 	 -116.07 	 55.7174 	 -41.4099
| 10> C 	 -115.919 	 57.0524 	 -40.9053
| 11> C 	 -116.726 	 57.3496 	 -39.8645
| 12> H 	 -115.184 	 57.8139 	 -41.1928
| 13> C 	 -115.041 	 55.0321 	 -42.4044
| 14> H 	 -115.368 	 55.2707 	 -43.3667
| 15> H 	 -115.139 	 54.0058 	 -42.2553
| 16> C 	 -113.49 	 55.3207 	 -42.1145
| 17> H 	 -112.831 	 54.9424 	 -42.8981
| 18> H 	 -113.224 	 56.418 	 -42.286
| 19> C 	 -113.096 	 55.0099 	 -40.6538
| 20> H 	 -112.067 	 55.1046 	 -40.5061
| 21> H 	 -113.7 	 55.5689 	 -40.0048
| 22> H 	 -113.337 	 53.9495 	 -40.5149
| 23> S 	 -117.839 	 59.817 	 -39.6103
| 24> C 	 -117.611 	 60.7438 	 -38.1601
| 25> C 	 -116.913 	 60.0673 	 -37.1904
| 26> C 	 -116.391 	 58.8469 	 -37.7434
| 27> C 	 -116.81 	 58.5802 	 -39.0489
| 28> H 	 -116.806 	 60.5146 	 -36.1555
| 29> C 	 -115.571 	 57.9251 	 -36.8288
| 30> H 	 -116.113 	 56.9227 	 -36.7898
| 31> H 	 -115.47 	 58.3402 	 -35.8728
| 32> C 	 -114.226 	 57.7502 	 -37.4775
| 33> H 	 -113.732 	 58.6778 	 -37.6521
| 34> H 	 -114.341 	 57.2548 	 -38.3957
| 35> C 	 -113.314 	 56.8158 	 -36.6878
| 36> H 	 -113.865 	 55.9298 	 -36.3523
| 37> H 	 -113.109 	 57.4337 	 -35.7444
| 38> H 	 -112.244 	 56.6748 	 -37.0745
| 39> H 	 -117.299 	 53.9023 	 -40.9134
| 40> H 	 -118.255 	 61.5701 	 -37.8603
| 41> *
| 42>
| 43>                          ****END OF INPUT****

CARTESIAN COORDINATES (ANGSTROEM)
---------------------------------
  S    -117.716000   55.912500  -39.408600
  C    -117.034000   54.971200  -40.739900
  C    -116.070000   55.717400  -41.409900
  C    -115.919000   57.052400  -40.905300
  C    -116.726000   57.349600  -39.864500
  H    -115.184000   57.813900  -41.192800
  C    -115.041000   55.032100  -42.404400
  H    -115.368000   55.270700  -43.366700
  H    -115.139000   54.005800  -42.255300
  C    -113.490000   55.320700  -42.114500
  H    -112.831000   54.942400  -42.898100
  H    -113.224000   56.418000  -42.286000
  C    -113.096000   55.009900  -40.653800
  H    -112.067000   55.104600  -40.506100
  H    -113.700000   55.568900  -40.004800
  H    -113.337000   53.949500  -40.514900
  S    -117.839000   59.817000  -39.610300
  C    -117.611000   60.743800  -38.160100
  C    -116.913000   60.067300  -37.190400
  C    -116.391000   58.846900  -37.743400
  C    -116.810000   58.580200  -39.048900
  H    -116.806000   60.514600  -36.155500
  C    -115.571000   57.925100  -36.828800
  H    -116.113000   56.922700  -36.789800
  H    -115.470000   58.340200  -35.872800
  C    -114.226000   57.750200  -37.477500
  H    -113.732000   58.677800  -37.652100
  H    -114.341000   57.254800  -38.395700
  C    -113.314000   56.815800  -36.687800
  H    -113.865000   55.929800  -36.352300
  H    -113.109000   57.433700  -35.744400
  H    -112.244000   56.674800  -37.074500
  H    -117.299000   53.902300  -40.913400
  H    -118.255000   61.570100  -37.860300

 Total Charge           Charge          ....    0
 Multiplicity           Mult            ....    1
 Number of Electrons    NEL             ....  134
 Basis Dimension        Dim             ....  322

ORBITAL ENERGIES
----------------

  NO   OCC          E(Eh)            E(eV)
   0   2.0000     -88.966905     -2420.9126
   1   2.0000     -88.964794     -2420.8551
   2   2.0000     -10.332946      -281.1738
   3   2.0000     -10.323787      -280.9245
   4   2.0000     -10.323122      -280.9064
   5   2.0000     -10.313632      -280.6482
   6   2.0000     -10.308703      -280.5141
   7   2.0000     -10.305574      -280.4289
   8   2.0000     -10.299004      -280.2501
   9   2.0000     -10.297455      -280.2080
  10   2.0000     -10.296758      -280.1890
  11   2.0000     -10.293320      -280.0955
  12   2.0000     -10.288704      -279.9699
  13   2.0000     -10.282074      -279.7895
  14   2.0000     -10.270530      -279.4753
  15   2.0000     -10.270343      -279.4702
  16   2.0000      -8.082583      -219.9383
  17   2.0000      -8.078492      -219.8269
  18   2.0000      -6.040934      -164.3822
  19   2.0000      -6.037111      -164.2781
  20   2.0000      -6.036920      -164.2730
  21   2.0000      -6.033480      -164.1793
  22   2.0000      -6.033137      -164.1700
  23   2.0000      -6.029193      -164.0627
  24   2.0000      -1.008440       -27.4411
  25   2.0000      -0.983106       -26.7517
  26   2.0000      -0.914280       -24.8788
  27   2.0000      -0.899971       -24.4895
  28   2.0000      -0.869569       -23.6622
  29   2.0000      -0.846759       -23.0415
  30   2.0000      -0.841526       -22.8991
  31   2.0000      -0.820280       -22.3210
  32   2.0000      -0.781199       -21.2575
  33   2.0000      -0.765580       -20.8325
  34   2.0000      -0.706878       -19.2351
  35   2.0000      -0.695950       -18.9378
  36   2.0000      -0.685840       -18.6627
  37   2.0000      -0.659467       -17.9450
  38   2.0000      -0.643007       -17.4971
  39   2.0000      -0.618608       -16.8332
  40   2.0000      -0.591144       -16.0858
  41   2.0000      -0.573704       -15.6113
  42   2.0000      -0.562325       -15.3016
  43   2.0000      -0.558327       -15.1928
  44   2.0000      -0.537995       -14.6396
  45   2.0000      -0.520153       -14.1541
  46   2.0000      -0.514260       -13.9937
  47   2.0000      -0.508680       -13.8419
  48   2.0000      -0.506773       -13.7900
  49   2.0000      -0.496828       -13.5194
  50   2.0000      -0.488409       -13.2903
  51   2.0000      -0.478502       -13.0207
  52   2.0000      -0.476151       -12.9567
  53   2.0000      -0.463829       -12.6214
  54   2.0000      -0.460933       -12.5426
  55   2.0000      -0.446628       -12.1534
  56   2.0000      -0.441852       -12.0234
  57   2.0000      -0.439034       -11.9467
  58   2.0000      -0.437114       -11.8945
  59   2.0000      -0.419013       -11.4019
  60   2.0000      -0.414630       -11.2827
  61   2.0000      -0.408713       -11.1217
  62   2.0000      -0.405260       -11.0277
  63   2.0000      -0.338528        -9.2118
  64   2.0000      -0.337517        -9.1843
  65   2.0000      -0.320290        -8.7155
  66   2.0000      -0.309444        -8.4204
  67   0.0000       0.041717         1.1352
  68   0.0000       0.053184         1.4472
  69   0.0000       0.107949         2.9374
  70   0.0000       0.120743         3.2856
  71   0.0000       0.134315         3.6549

MULLIKEN ATOMIC CHARGES
-----------------------
   0 S :    0.098640
   1 C :   -0.146622
   2 C :   -0.111953
   3 C :    0.047542
   4 C :   -0.168470
   5 H :    0.026971
   6 C :    0.129838
   7 H :    0.027822
   8 H :    0.005900
   9 C :   -0.132541
  10 H :    0.030901
  11 H :    0.023607
  12 C :    0.003365
  13 H :    0.027999
  14 H :    0.041404
  15 H :    0.019161
  16 S :    0.129272
  17 C :   -0.091986
  18 C :   -0.072089
  19 C :   -0.060790
  20 C :   -0.178423
  21 H :    0.051385
  22 C :    0.120049
  23 H :    0.039487
  24 H :   -0.002597
  25 C :   -0.061825
  26 H :    0.022392
  27 H :    0.014112
  28 C :   -0.068142
  29 H :    0.035662
  30 H :    0.015632
  31 H :    0.050297
  32 H :    0.073039
  33 H :    0.060959
Sum of atomic charges:   -0.0000000

LOEWDIN ATOMIC CHARGES
----------------------
   0 S :    0.371494
   1 C :   -0.194682
   2 C :   -0.065526
   3 C :   -0.062973
   4 C :   -0.177976
   5 H :    0.040983
   6 C :   -0.011859
   7 H :    0.023045
   8 H :    0.019177
   9 C :   -0.046948
  10 H :    0.024636
  11 H :    0.022685
  12 C :   -0.050458
  13 H :    0.020459
  14 H :    0.020383
  15 H :    0.026854
  16 S :    0.444184
  17 C :   -0.197189
  18 C :   -0.080392
  19 C :   -0.047864
  20 C :   -0.231904
  21 H :    0.047450
  22 C :   -0.020899
  23 H :    0.038307
  24 H :    0.017395
  25 C :   -0.041226
  26 H :    0.021771
  27 H :    0.014356
  28 C :   -0.077550
  29 H :    0.025004
  30 H :    0.024546
  31 H :    0.034494
  32 H :    0.038992
  33 H :    0.031230

  Mayer bond orders larger than 0.100000
B(  0-S ,  1-C ) :   1.1350 B(  0-S ,  4-C ) :   1.1266 B(  1-C ,  2-C ) :   1.6352
B(  1-C , 32-H ) :   0.9623 B(  2-C ,  3-C ) :   1.2078 B(  2-C ,  6-C ) :   0.9998
B(  3-C ,  4-C ) :   1.6346 B(  3-C ,  5-H ) :   0.9892 B(  4-C , 20-C ) :   1.0050
B(  6-C ,  7-H ) :   0.9406 B(  6-C ,  8-H ) :   0.9513 B(  6-C ,  9-C ) :   1.0580
B(  9-C , 10-H ) :   0.9596 B(  9-C , 11-H ) :   0.9539 B(  9-C , 12-C ) :   1.0638
B( 12-C , 13-H ) :   0.9724 B( 12-C , 14-H ) :   0.9738 B( 12-C , 15-H ) :   0.9721
B( 16-S , 17-C ) :   1.1781 B( 16-S , 20-C ) :   1.1663 B( 17-C , 18-C ) :   1.6075
B( 17-C , 33-H ) :   0.9581 B( 18-C , 19-C ) :   1.2651 B( 18-C , 21-H ) :   0.9801
B( 19-C , 20-C ) :   1.5743 B( 19-C , 22-C ) :   1.0415 B( 22-C , 23-H ) :   0.9231
B( 22-C , 24-H ) :   0.9347 B( 22-C , 25-C ) :   1.0724 B( 25-C , 26-H ) :   0.9474
B( 25-C , 27-H ) :   0.9528 B( 25-C , 28-C ) :   1.0912 B( 28-C , 29-H ) :   0.9690
B( 28-C , 30-H ) :   0.9730 B( 28-C , 31-H ) :   0.9714

Dispersion correction           -0.016259426
FINAL SINGLE POINT ENERGY     -1339.860567781754

DIPOLE MOMENT
-------------
                                X             Y             Z
Electronic contribution:    -25.23009      11.16494      -2.99043
Nuclear contribution   :     25.64858     -11.31158       3.10724
                        -----------------------------------------
Total Dipole Moment    :      0.41849      -0.14664       0.11681
                        -----------------------------------------
Magnitude (a.u.)       :      0.45856
Magnitude (Debye)      :      1.16557

Rotational constants in cm-1:     0.018816     0.009993     0.007981
Rotational constants in MHz :   564.089210   299.593347   239.254849

                             ****ORCA TERMINATED NORMALLY****
TOTAL RUN TIME: 0 days 0 hours 0 minutes 23 seconds 111 msec
