                         Program Version 4.2.1 -  RELEASE  -
|  1> ! wB97X-D3 SP def2-SVP
|  2> %pal
|  3> nprocs 24
|  4> end
|  5>
|  6> * xyz 0 1
|  7> S 	 -49.6679 	 9.69186 	 -17.224
|  8> C 	 -51.053 	 9.77615 	 -16.1457
|  9> C 	 -50.9554 	 10.9033 	 -15.3304
| 10> C 	 -49.6816 	 11.5816 	 -15.4314
| 11> C 	 -48.8725 	 11.0705 	 -16.4405
| 12> H 	 -49.3633 	 12.3589 	 -14.7861
| 13> C 	 -52.0285 	 11.3463 	 -14.3594
| 14> H 	 -52.9995 	 11.5409 	 -14.7817
| 15> H 	 -51.6424 	 12.2664 	 -13.9915
| 16> C 	 -52.3321 	 10.4132 	 -13.1778
| 17> H 	 -52.828 	 9.58875 	 -13.6111
| 18> H 	 -51.414 	 10.0958 	 -12.7426
| 19> C 	 -53.1003 	 11.2011 	 -12.1483
| 20> H 	 -54.1027 	 11.4469 	 -12.517
| 21> H 	 -53.2948 	 10.5661 	 -11.2879
| 22> H 	 -52.4631 	 11.9998 	 -11.8469
| 23> S 	 -46.126 	 10.9473 	 -16.3312
| 24> C 	 -45.1685 	 12.0165 	 -17.2997
| 25> C 	 -45.9609 	 12.7852 	 -18.0727
| 26> C 	 -47.3814 	 12.5979 	 -17.8702
| 27> C 	 -47.5665 	 11.6084 	 -16.932
| 28> H 	 -45.5596 	 13.5278 	 -18.7875
| 29> C 	 -48.4372 	 13.436 	 -18.5119
| 30> H 	 -47.9965 	 14.4224 	 -18.3329
| 31> H 	 -49.3183 	 13.4863 	 -17.8581
| 32> C 	 -48.6305 	 13.2057 	 -20.011
| 33> H 	 -48.8511 	 12.1592 	 -20.2688
| 34> H 	 -47.6886 	 13.3638 	 -20.4998
| 35> C 	 -49.7705 	 14.0352 	 -20.5385
| 36> H 	 -49.6109 	 15.1306 	 -20.611
| 37> H 	 -50.7519 	 13.8977 	 -20.1144
| 38> H 	 -49.9176 	 13.6777 	 -21.591
| 39> H 	 -51.8567 	 9.12429 	 -16.0722
| 40> H 	 -44.0518 	 12.0975 	 -17.3889
| 41> *
| 42>
| 43>                          ****END OF INPUT****

CARTESIAN COORDINATES (ANGSTROEM)
---------------------------------
  S    -49.667900    9.691860  -17.224000
  C    -51.053000    9.776150  -16.145700
  C    -50.955400   10.903300  -15.330400
  C    -49.681600   11.581600  -15.431400
  C    -48.872500   11.070500  -16.440500
  H    -49.363300   12.358900  -14.786100
  C    -52.028500   11.346300  -14.359400
  H    -52.999500   11.540900  -14.781700
  H    -51.642400   12.266400  -13.991500
  C    -52.332100   10.413200  -13.177800
  H    -52.828000    9.588750  -13.611100
  H    -51.414000   10.095800  -12.742600
  C    -53.100300   11.201100  -12.148300
  H    -54.102700   11.446900  -12.517000
  H    -53.294800   10.566100  -11.287900
  H    -52.463100   11.999800  -11.846900
  S    -46.126000   10.947300  -16.331200
  C    -45.168500   12.016500  -17.299700
  C    -45.960900   12.785200  -18.072700
  C    -47.381400   12.597900  -17.870200
  C    -47.566500   11.608400  -16.932000
  H    -45.559600   13.527800  -18.787500
  C    -48.437200   13.436000  -18.511900
  H    -47.996500   14.422400  -18.332900
  H    -49.318300   13.486300  -17.858100
  C    -48.630500   13.205700  -20.011000
  H    -48.851100   12.159200  -20.268800
  H    -47.688600   13.363800  -20.499800
  C    -49.770500   14.035200  -20.538500
  H    -49.610900   15.130600  -20.611000
  H    -50.751900   13.897700  -20.114400
  H    -49.917600   13.677700  -21.591000
  H    -51.856700    9.124290  -16.072200
  H    -44.051800   12.097500  -17.388900

 Total Charge           Charge          ....    0
 Multiplicity           Mult            ....    1
 Number of Electrons    NEL             ....  134
 Basis Dimension        Dim             ....  322

ORBITAL ENERGIES
----------------

  NO   OCC          E(Eh)            E(eV)
   0   2.0000     -88.965294     -2420.8687
   1   2.0000     -88.962711     -2420.7984
   2   2.0000     -10.331753      -281.1413
   3   2.0000     -10.319235      -280.8007
   4   2.0000     -10.314937      -280.6837
   5   2.0000     -10.309769      -280.5431
   6   2.0000     -10.299809      -280.2720
   7   2.0000     -10.297062      -280.1973
   8   2.0000     -10.294847      -280.1370
   9   2.0000     -10.290296      -280.0132
  10   2.0000     -10.286946      -279.9220
  11   2.0000     -10.285525      -279.8834
  12   2.0000     -10.282228      -279.7936
  13   2.0000     -10.277512      -279.6653
  14   2.0000     -10.275838      -279.6198
  15   2.0000     -10.275377      -279.6072
  16   2.0000      -8.079184      -219.8458
  17   2.0000      -8.078867      -219.8371
  18   2.0000      -6.037769      -164.2960
  19   2.0000      -6.037342      -164.2844
  20   2.0000      -6.033659      -164.1842
  21   2.0000      -6.033145      -164.1702
  22   2.0000      -6.030064      -164.0864
  23   2.0000      -6.029597      -164.0737
  24   2.0000      -1.008727       -27.4489
  25   2.0000      -0.981903       -26.7189
  26   2.0000      -0.917136       -24.9565
  27   2.0000      -0.912404       -24.8278
  28   2.0000      -0.867373       -23.6024
  29   2.0000      -0.852703       -23.2032
  30   2.0000      -0.847397       -23.0589
  31   2.0000      -0.816654       -22.2223
  32   2.0000      -0.779959       -21.2238
  33   2.0000      -0.768062       -20.9000
  34   2.0000      -0.706795       -19.2329
  35   2.0000      -0.704780       -19.1780
  36   2.0000      -0.693223       -18.8636
  37   2.0000      -0.655744       -17.8437
  38   2.0000      -0.643943       -17.5226
  39   2.0000      -0.618919       -16.8416
  40   2.0000      -0.595522       -16.2050
  41   2.0000      -0.580137       -15.7863
  42   2.0000      -0.567814       -15.4510
  43   2.0000      -0.556642       -15.1470
  44   2.0000      -0.531090       -14.4517
  45   2.0000      -0.519272       -14.1301
  46   2.0000      -0.514569       -14.0021
  47   2.0000      -0.511634       -13.9223
  48   2.0000      -0.507829       -13.8187
  49   2.0000      -0.496853       -13.5201
  50   2.0000      -0.496314       -13.5054
  51   2.0000      -0.479149       -13.0383
  52   2.0000      -0.470151       -12.7935
  53   2.0000      -0.465572       -12.6689
  54   2.0000      -0.459778       -12.5112
  55   2.0000      -0.448454       -12.2031
  56   2.0000      -0.447461       -12.1760
  57   2.0000      -0.438048       -11.9199
  58   2.0000      -0.431917       -11.7531
  59   2.0000      -0.424954       -11.5636
  60   2.0000      -0.421139       -11.4598
  61   2.0000      -0.416503       -11.3336
  62   2.0000      -0.409052       -11.1309
  63   2.0000      -0.334965        -9.1149
  64   2.0000      -0.329052        -8.9540
  65   2.0000      -0.316044        -8.6000
  66   2.0000      -0.311732        -8.4827
  67   0.0000       0.048487         1.3194
  68   0.0000       0.061467         1.6726
  69   0.0000       0.117744         3.2040
  70   0.0000       0.128463         3.4956
  71   0.0000       0.133678         3.6376

MULLIKEN ATOMIC CHARGES
-----------------------
   0 S :    0.114373
   1 C :   -0.087253
   2 C :   -0.099895
   3 C :    0.064962
   4 C :   -0.166979
   5 H :    0.004807
   6 C :    0.068529
   7 H :    0.023936
   8 H :   -0.007730
   9 C :   -0.052468
  10 H :    0.015919
  11 H :    0.019163
  12 C :   -0.023477
  13 H :    0.029082
  14 H :    0.028234
  15 H :    0.031465
  16 S :    0.126525
  17 C :   -0.100103
  18 C :   -0.050216
  19 C :   -0.024786
  20 C :   -0.210020
  21 H :    0.022577
  22 C :    0.086328
  23 H :    0.019763
  24 H :    0.025079
  25 C :   -0.041796
  26 H :    0.032450
  27 H :    0.019496
  28 C :   -0.053552
  29 H :    0.034358
  30 H :    0.034062
  31 H :    0.027842
  32 H :    0.018770
  33 H :    0.070553
Sum of atomic charges:    0.0000000

LOEWDIN ATOMIC CHARGES
----------------------
   0 S :    0.397783
   1 C :   -0.187132
   2 C :   -0.059241
   3 C :   -0.057324
   4 C :   -0.186511
   5 H :    0.027325
   6 C :   -0.029755
   7 H :    0.028500
   8 H :    0.019421
   9 C :   -0.030687
  10 H :    0.014509
  11 H :    0.019550
  12 C :   -0.056753
  13 H :    0.026383
  14 H :    0.026108
  15 H :    0.024649
  16 S :    0.433956
  17 C :   -0.203752
  18 C :   -0.078753
  19 C :   -0.054967
  20 C :   -0.228128
  21 H :    0.032757
  22 C :   -0.036279
  23 H :    0.035985
  24 H :    0.033748
  25 C :   -0.036725
  26 H :    0.030085
  27 H :    0.023840
  28 C :   -0.071410
  29 H :    0.025954
  30 H :    0.025187
  31 H :    0.031679
  32 H :    0.014713
  33 H :    0.045283

  Mayer bond orders larger than 0.100000
B(  0-S ,  1-C ) :   1.1355 B(  0-S ,  4-C ) :   1.1577 B(  1-C ,  2-C ) :   1.6039
B(  1-C , 32-H ) :   0.9805 B(  2-C ,  3-C ) :   1.2423 B(  2-C ,  6-C ) :   1.0242
B(  3-C ,  4-C ) :   1.5879 B(  3-C ,  5-H ) :   0.9954 B(  4-C , 20-C ) :   0.9834
B(  6-C ,  7-H ) :   0.9397 B(  6-C ,  8-H ) :   0.9406 B(  6-C ,  9-C ) :   1.0637
B(  9-C , 10-H ) :   0.9535 B(  9-C , 11-H ) :   0.9553 B(  9-C , 12-C ) :   1.0951
B( 12-C , 13-H ) :   0.9717 B( 12-C , 14-H ) :   0.9719 B( 12-C , 15-H ) :   0.9748
B( 16-S , 17-C ) :   1.1437 B( 16-S , 20-C ) :   1.1646 B( 17-C , 18-C ) :   1.6364
B( 17-C , 33-H ) :   0.9588 B( 18-C , 19-C ) :   1.2400 B( 18-C , 21-H ) :   0.9793
B( 19-C , 20-C ) :   1.6099 B( 19-C , 22-C ) :   1.0318 B( 22-C , 23-H ) :   0.9273
B( 22-C , 24-H ) :   0.9328 B( 22-C , 25-C ) :   1.0555 B( 25-C , 26-H ) :   0.9556
B( 25-C , 27-H ) :   0.9500 B( 25-C , 28-C ) :   1.0892 B( 28-C , 29-H ) :   0.9741
B( 28-C , 30-H ) :   0.9741 B( 28-C , 31-H ) :   0.9725

Dispersion correction           -0.013835709
FINAL SINGLE POINT ENERGY     -1339.881034249510

DIPOLE MOMENT
-------------
                                X             Y             Z
Electronic contribution:     19.43221     -12.65498      -2.10905
Nuclear contribution   :    -19.72825      13.10672       2.15922
                        -----------------------------------------
Total Dipole Moment    :     -0.29604       0.45173       0.05016
                        -----------------------------------------
Magnitude (a.u.)       :      0.54242
Magnitude (Debye)      :      1.37873

Rotational constants in cm-1:     0.019526     0.007505     0.006387
Rotational constants in MHz :   585.365193   224.980746   191.478322

                             ****ORCA TERMINATED NORMALLY****
TOTAL RUN TIME: 0 days 0 hours 0 minutes 21 seconds 331 msec
