                         Program Version 4.2.1 -  RELEASE  -
|  1> ! wB97X-D3 SP def2-SVP
|  2> %pal
|  3> nprocs 24
|  4> end
|  5>
|  6> * xyz 0 1
|  7> S 	 -76.0868 	 -0.724762 	 -59.6069
|  8> C 	 -77.16 	 0.557556 	 -59.1569
|  9> C 	 -78.491 	 0.194425 	 -59.1399
| 10> C 	 -78.6384 	 -1.21845 	 -59.2753
| 11> C 	 -77.4007 	 -1.87285 	 -59.4955
| 12> H 	 -79.5271 	 -1.83529 	 -59.2918
| 13> C 	 -79.6116 	 1.15397 	 -58.9588
| 14> H 	 -80.453 	 0.636187 	 -59.4079
| 15> H 	 -79.5523 	 2.06353 	 -59.6118
| 16> C 	 -79.9254 	 1.56462 	 -57.5292
| 17> H 	 -80.107 	 0.627844 	 -56.9115
| 18> H 	 -79.0254 	 2.04789 	 -57.1606
| 19> C 	 -81.2069 	 2.45962 	 -57.3455
| 20> H 	 -82.0555 	 1.93243 	 -57.9424
| 21> H 	 -81.4587 	 2.55333 	 -56.2586
| 22> H 	 -81.1067 	 3.45988 	 -57.7483
| 23> S 	 -76.5054 	 -3.80382 	 -61.2298
| 24> C 	 -76.6215 	 -5.50422 	 -60.8676
| 25> C 	 -77.2597 	 -5.56032 	 -59.6602
| 26> C 	 -77.7181 	 -4.41161 	 -59.0013
| 27> C 	 -77.2398 	 -3.28942 	 -59.7051
| 28> H 	 -77.4018 	 -6.54351 	 -59.2193
| 29> C 	 -78.3805 	 -4.33898 	 -57.6488
| 30> H 	 -79.3015 	 -4.82111 	 -57.9063
| 31> H 	 -78.4761 	 -3.29701 	 -57.4308
| 32> C 	 -77.6405 	 -5.11959 	 -56.5006
| 33> H 	 -77.8992 	 -6.17595 	 -56.4011
| 34> H 	 -77.8886 	 -4.59861 	 -55.5873
| 35> C 	 -76.1738 	 -4.73542 	 -56.3884
| 36> H 	 -76.1517 	 -3.68128 	 -56.1735
| 37> H 	 -75.5474 	 -4.9435 	 -57.2876
| 38> H 	 -75.696 	 -5.30195 	 -55.5999
| 39> H 	 -76.8516 	 1.55449 	 -59.0296
| 40> H 	 -76.2485 	 -6.31413 	 -61.3638
| 41> *
| 42>
| 43>                          ****END OF INPUT****

CARTESIAN COORDINATES (ANGSTROEM)
---------------------------------
  S    -76.086800   -0.724762  -59.606900
  C    -77.160000    0.557556  -59.156900
  C    -78.491000    0.194425  -59.139900
  C    -78.638400   -1.218450  -59.275300
  C    -77.400700   -1.872850  -59.495500
  H    -79.527100   -1.835290  -59.291800
  C    -79.611600    1.153970  -58.958800
  H    -80.453000    0.636187  -59.407900
  H    -79.552300    2.063530  -59.611800
  C    -79.925400    1.564620  -57.529200
  H    -80.107000    0.627844  -56.911500
  H    -79.025400    2.047890  -57.160600
  C    -81.206900    2.459620  -57.345500
  H    -82.055500    1.932430  -57.942400
  H    -81.458700    2.553330  -56.258600
  H    -81.106700    3.459880  -57.748300
  S    -76.505400   -3.803820  -61.229800
  C    -76.621500   -5.504220  -60.867600
  C    -77.259700   -5.560320  -59.660200
  C    -77.718100   -4.411610  -59.001300
  C    -77.239800   -3.289420  -59.705100
  H    -77.401800   -6.543510  -59.219300
  C    -78.380500   -4.338980  -57.648800
  H    -79.301500   -4.821110  -57.906300
  H    -78.476100   -3.297010  -57.430800
  C    -77.640500   -5.119590  -56.500600
  H    -77.899200   -6.175950  -56.401100
  H    -77.888600   -4.598610  -55.587300
  C    -76.173800   -4.735420  -56.388400
  H    -76.151700   -3.681280  -56.173500
  H    -75.547400   -4.943500  -57.287600
  H    -75.696000   -5.301950  -55.599900
  H    -76.851600    1.554490  -59.029600
  H    -76.248500   -6.314130  -61.363800

 Total Charge           Charge          ....    0
 Multiplicity           Mult            ....    1
 Number of Electrons    NEL             ....  134
 Basis Dimension        Dim             ....  322

ORBITAL ENERGIES
----------------

  NO   OCC          E(Eh)            E(eV)
   0   2.0000     -88.970813     -2421.0189
   1   2.0000     -88.959675     -2420.7158
   2   2.0000     -10.329993      -281.0934
   3   2.0000     -10.325235      -280.9639
   4   2.0000     -10.309606      -280.5387
   5   2.0000     -10.308469      -280.5077
   6   2.0000     -10.301457      -280.3169
   7   2.0000     -10.299541      -280.2648
   8   2.0000     -10.299046      -280.2513
   9   2.0000     -10.294258      -280.1210
  10   2.0000     -10.292888      -280.0837
  11   2.0000     -10.291995      -280.0594
  12   2.0000     -10.290296      -280.0132
  13   2.0000     -10.286489      -279.9096
  14   2.0000     -10.286089      -279.8987
  15   2.0000     -10.271975      -279.5146
  16   2.0000      -8.085672      -220.0223
  17   2.0000      -8.074340      -219.7140
  18   2.0000      -6.044070      -164.4675
  19   2.0000      -6.040140      -164.3606
  20   2.0000      -6.036564      -164.2633
  21   2.0000      -6.032868      -164.1627
  22   2.0000      -6.028747      -164.0506
  23   2.0000      -6.025177      -163.9534
  24   2.0000      -1.007555       -27.4170
  25   2.0000      -0.986281       -26.8381
  26   2.0000      -0.913282       -24.8517
  27   2.0000      -0.910513       -24.7763
  28   2.0000      -0.870340       -23.6832
  29   2.0000      -0.852838       -23.2069
  30   2.0000      -0.846276       -23.0283
  31   2.0000      -0.811998       -22.0956
  32   2.0000      -0.783085       -21.3088
  33   2.0000      -0.773290       -21.0423
  34   2.0000      -0.709182       -19.2978
  35   2.0000      -0.700555       -19.0631
  36   2.0000      -0.697065       -18.9681
  37   2.0000      -0.656967       -17.8770
  38   2.0000      -0.645063       -17.5530
  39   2.0000      -0.614979       -16.7344
  40   2.0000      -0.596454       -16.2303
  41   2.0000      -0.570946       -15.5362
  42   2.0000      -0.565297       -15.3825
  43   2.0000      -0.558260       -15.1910
  44   2.0000      -0.540731       -14.7140
  45   2.0000      -0.528541       -14.3823
  46   2.0000      -0.521443       -14.1892
  47   2.0000      -0.508803       -13.8452
  48   2.0000      -0.505589       -13.7578
  49   2.0000      -0.503188       -13.6925
  50   2.0000      -0.489770       -13.3273
  51   2.0000      -0.477417       -12.9912
  52   2.0000      -0.472748       -12.8641
  53   2.0000      -0.463654       -12.6167
  54   2.0000      -0.462417       -12.5830
  55   2.0000      -0.444948       -12.1077
  56   2.0000      -0.440954       -11.9990
  57   2.0000      -0.435781       -11.8582
  58   2.0000      -0.430822       -11.7233
  59   2.0000      -0.427976       -11.6458
  60   2.0000      -0.420869       -11.4524
  61   2.0000      -0.415870       -11.3164
  62   2.0000      -0.402123       -10.9423
  63   2.0000      -0.345403        -9.3989
  64   2.0000      -0.334860        -9.1120
  65   2.0000      -0.326529        -8.8853
  66   2.0000      -0.288516        -7.8509
  67   0.0000       0.027288         0.7426
  68   0.0000       0.069547         1.8925
  69   0.0000       0.114177         3.1069
  70   0.0000       0.129446         3.5224
  71   0.0000       0.131732         3.5846

MULLIKEN ATOMIC CHARGES
-----------------------
   0 S :    0.135783
   1 C :   -0.096486
   2 C :   -0.079380
   3 C :    0.037330
   4 C :   -0.184801
   5 H :    0.017384
   6 C :    0.060401
   7 H :    0.008587
   8 H :    0.033343
   9 C :   -0.079813
  10 H :    0.037490
  11 H :    0.026605
  12 C :   -0.076046
  13 H :    0.042689
  14 H :    0.051935
  15 H :    0.036702
  16 S :    0.090579
  17 C :   -0.037627
  18 C :   -0.055035
  19 C :   -0.053843
  20 C :   -0.178616
  21 H :    0.005200
  22 C :    0.126419
  23 H :    0.031981
  24 H :    0.017800
  25 C :   -0.075882
  26 H :    0.039682
  27 H :    0.026151
  28 C :   -0.057227
  29 H :    0.029853
  30 H :    0.041964
  31 H :    0.030476
  32 H :    0.026804
  33 H :    0.019598
Sum of atomic charges:   -0.0000000

LOEWDIN ATOMIC CHARGES
----------------------
   0 S :    0.426264
   1 C :   -0.190775
   2 C :   -0.064272
   3 C :   -0.054647
   4 C :   -0.203901
   5 H :    0.032646
   6 C :   -0.042754
   7 H :    0.027748
   8 H :    0.035488
   9 C :   -0.043502
  10 H :    0.031402
  11 H :    0.020248
  12 C :   -0.074264
  13 H :    0.035427
  14 H :    0.033248
  15 H :    0.020621
  16 S :    0.397009
  17 C :   -0.178708
  18 C :   -0.074490
  19 C :   -0.061034
  20 C :   -0.194923
  21 H :    0.025013
  22 C :   -0.022628
  23 H :    0.035303
  24 H :    0.028804
  25 C :   -0.044305
  26 H :    0.023283
  27 H :    0.032480
  28 C :   -0.062804
  29 H :    0.025166
  30 H :    0.024599
  31 H :    0.025034
  32 H :    0.016960
  33 H :    0.016261

  Mayer bond orders larger than 0.100000
B(  0-S ,  1-C ) :   1.1507 B(  0-S ,  4-C ) :   1.1640 B(  1-C ,  2-C ) :   1.5907
B(  1-C , 32-H ) :   0.9745 B(  2-C ,  3-C ) :   1.2521 B(  2-C ,  6-C ) :   1.0301
B(  3-C ,  4-C ) :   1.5352 B(  3-C ,  5-H ) :   0.9945 B(  4-C , 20-C ) :   1.0531
B(  6-C ,  7-H ) :   0.9297 B(  6-C ,  8-H ) :   0.9376 B(  6-C ,  9-C ) :   1.0623
B(  9-C , 10-H ) :   0.9556 B(  9-C , 11-H ) :   0.9564 B(  9-C , 12-C ) :   1.0705
B( 12-C , 13-H ) :   0.9742 B( 12-C , 14-H ) :   0.9758 B( 12-C , 15-H ) :   0.9760
B( 16-S , 17-C ) :   1.1368 B( 16-S , 20-C ) :   1.1620 B( 17-C , 18-C ) :   1.5923
B( 17-C , 20-C ) :   0.1101 B( 17-C , 33-H ) :   0.9845 B( 18-C , 19-C ) :   1.2610
B( 18-C , 21-H ) :   0.9829 B( 19-C , 20-C ) :   1.5397 B( 19-C , 22-C ) :   1.0320
B( 22-C , 23-H ) :   0.9234 B( 22-C , 24-H ) :   0.9294 B( 22-C , 25-C ) :   1.0809
B( 25-C , 26-H ) :   0.9581 B( 25-C , 27-H ) :   0.9607 B( 25-C , 28-C ) :   1.0572
B( 28-C , 29-H ) :   0.9816 B( 28-C , 30-H ) :   0.9700 B( 28-C , 31-H ) :   0.9741

Dispersion correction           -0.014430081
FINAL SINGLE POINT ENERGY     -1339.869532641665

DIPOLE MOMENT
-------------
                                X             Y             Z
Electronic contribution:     15.17360      -5.75425     -20.28984
Nuclear contribution   :    -15.61167       5.79345      20.75465
                        -----------------------------------------
Total Dipole Moment    :     -0.43808       0.03920       0.46481
                        -----------------------------------------
Magnitude (a.u.)       :      0.63992
Magnitude (Debye)      :      1.62655

Rotational constants in cm-1:     0.020884     0.007755     0.006611
Rotational constants in MHz :   626.089512   232.501355   198.197747

                             ****ORCA TERMINATED NORMALLY****
TOTAL RUN TIME: 0 days 0 hours 0 minutes 21 seconds 630 msec
