                         Program Version 4.2.1 -  RELEASE  -
|  1> ! wB97X-D3 SP def2-SVP
|  2> %pal
|  3> nprocs 24
|  4> end
|  5>
|  6> * xyz 0 1
|  7> S 	 -86.0927 	 -44.8334 	 -83.3679
|  8> C 	 -87.3551 	 -43.6554 	 -83.6198
|  9> C 	 -88.331 	 -43.7975 	 -82.5753
| 10> C 	 -88.0945 	 -44.874 	 -81.8061
| 11> C 	 -86.8588 	 -45.4625 	 -81.9605
| 12> H 	 -88.7387 	 -45.3417 	 -81.0912
| 13> C 	 -89.5559 	 -42.9311 	 -82.5148
| 14> H 	 -90.3609 	 -43.2788 	 -83.1086
| 15> H 	 -89.2395 	 -41.9824 	 -82.9496
| 16> C 	 -90.2474 	 -42.7112 	 -81.1032
| 17> H 	 -90.3511 	 -43.7325 	 -80.7126
| 18> H 	 -89.4889 	 -42.2459 	 -80.3825
| 19> C 	 -91.6169 	 -41.9966 	 -81.1135
| 20> H 	 -92.2634 	 -42.1721 	 -82.0041
| 21> H 	 -92.1818 	 -42.2502 	 -80.1773
| 22> H 	 -91.4968 	 -40.9027 	 -81.0213
| 23> S 	 -86.0039 	 -48.0377 	 -82.0931
| 24> C 	 -85.4049 	 -48.8008 	 -80.6313
| 25> C 	 -85.4761 	 -47.9409 	 -79.5782
| 26> C 	 -86.0113 	 -46.6499 	 -79.8727
| 27> C 	 -86.2812 	 -46.5705 	 -81.2331
| 28> H 	 -85.1307 	 -48.1958 	 -78.6257
| 29> C 	 -86.1567 	 -45.5747 	 -78.8125
| 30> H 	 -86.9066 	 -45.9479 	 -78.1126
| 31> H 	 -86.5199 	 -44.6224 	 -79.1782
| 32> C 	 -84.8707 	 -45.2454 	 -77.9774
| 33> H 	 -84.6849 	 -46.0817 	 -77.3021
| 34> H 	 -85.0743 	 -44.5233 	 -77.1668
| 35> C 	 -83.6749 	 -44.7161 	 -78.7597
| 36> H 	 -83.4176 	 -45.3286 	 -79.6204
| 37> H 	 -82.8667 	 -44.716 	 -78.0593
| 38> H 	 -83.7626 	 -43.7115 	 -79.1209
| 39> H 	 -87.4033 	 -42.8635 	 -84.3957
| 40> H 	 -84.9134 	 -49.7083 	 -80.5318
| 41> *
| 42>
| 43>                          ****END OF INPUT****

CARTESIAN COORDINATES (ANGSTROEM)
---------------------------------
  S    -86.092700  -44.833400  -83.367900
  C    -87.355100  -43.655400  -83.619800
  C    -88.331000  -43.797500  -82.575300
  C    -88.094500  -44.874000  -81.806100
  C    -86.858800  -45.462500  -81.960500
  H    -88.738700  -45.341700  -81.091200
  C    -89.555900  -42.931100  -82.514800
  H    -90.360900  -43.278800  -83.108600
  H    -89.239500  -41.982400  -82.949600
  C    -90.247400  -42.711200  -81.103200
  H    -90.351100  -43.732500  -80.712600
  H    -89.488900  -42.245900  -80.382500
  C    -91.616900  -41.996600  -81.113500
  H    -92.263400  -42.172100  -82.004100
  H    -92.181800  -42.250200  -80.177300
  H    -91.496800  -40.902700  -81.021300
  S    -86.003900  -48.037700  -82.093100
  C    -85.404900  -48.800800  -80.631300
  C    -85.476100  -47.940900  -79.578200
  C    -86.011300  -46.649900  -79.872700
  C    -86.281200  -46.570500  -81.233100
  H    -85.130700  -48.195800  -78.625700
  C    -86.156700  -45.574700  -78.812500
  H    -86.906600  -45.947900  -78.112600
  H    -86.519900  -44.622400  -79.178200
  C    -84.870700  -45.245400  -77.977400
  H    -84.684900  -46.081700  -77.302100
  H    -85.074300  -44.523300  -77.166800
  C    -83.674900  -44.716100  -78.759700
  H    -83.417600  -45.328600  -79.620400
  H    -82.866700  -44.716000  -78.059300
  H    -83.762600  -43.711500  -79.120900
  H    -87.403300  -42.863500  -84.395700
  H    -84.913400  -49.708300  -80.531800

 Total Charge           Charge          ....    0
 Multiplicity           Mult            ....    1
 Number of Electrons    NEL             ....  134
 Basis Dimension        Dim             ....  322

ORBITAL ENERGIES
----------------

  NO   OCC          E(Eh)            E(eV)
   0   2.0000     -88.968342     -2420.9517
   1   2.0000     -88.966070     -2420.8898
   2   2.0000     -10.321793      -280.8703
   3   2.0000     -10.319961      -280.8204
   4   2.0000     -10.317951      -280.7657
   5   2.0000     -10.309604      -280.5386
   6   2.0000     -10.301936      -280.3299
   7   2.0000     -10.297172      -280.2003
   8   2.0000     -10.296466      -280.1811
   9   2.0000     -10.292534      -280.0741
  10   2.0000     -10.289678      -279.9964
  11   2.0000     -10.288462      -279.9633
  12   2.0000     -10.288280      -279.9583
  13   2.0000     -10.285801      -279.8909
  14   2.0000     -10.281950      -279.7861
  15   2.0000     -10.269514      -279.4477
  16   2.0000      -8.083181      -219.9545
  17   2.0000      -8.081185      -219.9002
  18   2.0000      -6.041345      -164.3934
  19   2.0000      -6.039749      -164.3499
  20   2.0000      -6.037482      -164.2882
  21   2.0000      -6.035635      -164.2380
  22   2.0000      -6.034495      -164.2069
  23   2.0000      -6.031871      -164.1356
  24   2.0000      -1.013063       -27.5668
  25   2.0000      -0.988911       -26.9096
  26   2.0000      -0.906551       -24.6685
  27   2.0000      -0.904116       -24.6023
  28   2.0000      -0.868528       -23.6338
  29   2.0000      -0.852598       -23.2004
  30   2.0000      -0.847790       -23.0695
  31   2.0000      -0.816668       -22.2227
  32   2.0000      -0.785964       -21.3872
  33   2.0000      -0.770947       -20.9785
  34   2.0000      -0.711573       -19.3629
  35   2.0000      -0.699678       -19.0392
  36   2.0000      -0.689266       -18.7559
  37   2.0000      -0.659607       -17.9488
  38   2.0000      -0.644958       -17.5502
  39   2.0000      -0.622727       -16.9453
  40   2.0000      -0.598375       -16.2826
  41   2.0000      -0.571601       -15.5541
  42   2.0000      -0.554328       -15.0840
  43   2.0000      -0.552566       -15.0361
  44   2.0000      -0.537539       -14.6272
  45   2.0000      -0.521023       -14.1778
  46   2.0000      -0.517978       -14.0949
  47   2.0000      -0.505831       -13.7644
  48   2.0000      -0.501975       -13.6594
  49   2.0000      -0.497021       -13.5246
  50   2.0000      -0.494324       -13.4512
  51   2.0000      -0.481404       -13.0997
  52   2.0000      -0.476907       -12.9773
  53   2.0000      -0.468517       -12.7490
  54   2.0000      -0.458516       -12.4769
  55   2.0000      -0.451542       -12.2871
  56   2.0000      -0.446965       -12.1625
  57   2.0000      -0.438110       -11.9216
  58   2.0000      -0.433848       -11.8056
  59   2.0000      -0.426670       -11.6103
  60   2.0000      -0.420810       -11.4508
  61   2.0000      -0.411229       -11.1901
  62   2.0000      -0.405472       -11.0334
  63   2.0000      -0.343363        -9.3434
  64   2.0000      -0.333343        -9.0707
  65   2.0000      -0.327347        -8.9076
  66   2.0000      -0.291672        -7.9368
  67   0.0000       0.032871         0.8945
  68   0.0000       0.067606         1.8397
  69   0.0000       0.120199         3.2708
  70   0.0000       0.124957         3.4003
  71   0.0000       0.134538         3.6610

MULLIKEN ATOMIC CHARGES
-----------------------
   0 S :    0.128493
   1 C :   -0.138522
   2 C :   -0.072111
   3 C :    0.034353
   4 C :   -0.187234
   5 H :    0.006561
   6 C :    0.088801
   7 H :    0.029338
   8 H :    0.017542
   9 C :   -0.129063
  10 H :    0.032289
  11 H :    0.042072
  12 C :   -0.065150
  13 H :    0.044555
  14 H :    0.042577
  15 H :    0.038255
  16 S :    0.122527
  17 C :   -0.052842
  18 C :   -0.019244
  19 C :   -0.017635
  20 C :   -0.185716
  21 H :   -0.011484
  22 C :    0.090853
  23 H :    0.032276
  24 H :    0.025155
  25 C :   -0.105256
  26 H :    0.016322
  27 H :    0.021132
  28 C :   -0.010701
  29 H :    0.040714
  30 H :    0.022896
  31 H :    0.028739
  32 H :    0.060096
  33 H :    0.029414
Sum of atomic charges:   -0.0000000

LOEWDIN ATOMIC CHARGES
----------------------
   0 S :    0.437840
   1 C :   -0.213008
   2 C :   -0.066359
   3 C :   -0.066302
   4 C :   -0.207663
   5 H :    0.030968
   6 C :   -0.030682
   7 H :    0.026847
   8 H :    0.028029
   9 C :   -0.048988
  10 H :    0.020329
  11 H :    0.031545
  12 C :   -0.077437
  13 H :    0.030394
  14 H :    0.035147
  15 H :    0.028661
  16 S :    0.416569
  17 C :   -0.176137
  18 C :   -0.057544
  19 C :   -0.054314
  20 C :   -0.212696
  21 H :    0.019334
  22 C :   -0.029654
  23 H :    0.035927
  24 H :    0.028108
  25 C :   -0.047588
  26 H :    0.018833
  27 H :    0.028376
  28 C :   -0.060258
  29 H :    0.027552
  30 H :    0.025760
  31 H :    0.024855
  32 H :    0.034960
  33 H :    0.018595

  Mayer bond orders larger than 0.100000
B(  0-S ,  1-C ) :   1.1763 B(  0-S ,  4-C ) :   1.1878 B(  1-C ,  2-C ) :   1.5165
B(  1-C ,  4-C ) :   0.1275 B(  1-C , 32-H ) :   0.9678 B(  2-C ,  3-C ) :   1.3151
B(  2-C ,  6-C ) :   1.0253 B(  3-C ,  4-C ) :   1.5203 B(  3-C ,  5-H ) :   0.9972
B(  4-C , 20-C ) :   1.0159 B(  6-C ,  7-H ) :   0.9353 B(  6-C ,  8-H ) :   0.9382
B(  6-C ,  9-C ) :   1.0574 B(  9-C , 10-H ) :   0.9562 B(  9-C , 11-H ) :   0.9587
B(  9-C , 12-C ) :   1.0725 B( 12-C , 13-H ) :   0.9741 B( 12-C , 14-H ) :   0.9741
B( 12-C , 15-H ) :   0.9762 B( 16-S , 17-C ) :   1.1324 B( 16-S , 20-C ) :   1.1632
B( 17-C , 18-C ) :   1.6260 B( 17-C , 33-H ) :   0.9741 B( 18-C , 19-C ) :   1.2310
B( 18-C , 21-H ) :   0.9956 B( 19-C , 20-C ) :   1.5895 B( 19-C , 22-C ) :   1.0466
B( 22-C , 23-H ) :   0.9274 B( 22-C , 24-H ) :   0.9371 B( 22-C , 25-C ) :   1.0789
B( 25-C , 26-H ) :   0.9537 B( 25-C , 27-H ) :   0.9500 B( 25-C , 28-C ) :   1.0718
B( 28-C , 29-H ) :   0.9766 B( 28-C , 30-H ) :   0.9708 B( 28-C , 31-H ) :   0.9737

Dispersion correction           -0.014162949
FINAL SINGLE POINT ENERGY     -1339.876725105876

DIPOLE MOMENT
-------------
                                X             Y             Z
Electronic contribution:     10.01874     -17.54153     -17.61735
Nuclear contribution   :    -10.25467      17.80586      18.15457
                        -----------------------------------------
Total Dipole Moment    :     -0.23593       0.26433       0.53722
                        -----------------------------------------
Magnitude (a.u.)       :      0.64354
Magnitude (Debye)      :      1.63574

Rotational constants in cm-1:     0.018387     0.008245     0.007048
Rotational constants in MHz :   551.228308   247.176937   211.285635

                             ****ORCA TERMINATED NORMALLY****
TOTAL RUN TIME: 0 days 0 hours 0 minutes 20 seconds 338 msec
