                         Program Version 4.2.1 -  RELEASE  -
|  1> ! wB97X-D3 SP def2-SVP
|  2> %pal
|  3> nprocs 24
|  4> end
|  5>
|  6> * xyz 0 1
|  7> S 	 -105.174 	 63.187 	 -5.19355
|  8> C 	 -105.993 	 64.0602 	 -6.34994
|  9> C 	 -105.287 	 63.9984 	 -7.53521
| 10> C 	 -103.978 	 63.42 	 -7.47478
| 11> C 	 -103.818 	 62.8046 	 -6.28041
| 12> H 	 -103.289 	 63.4571 	 -8.31635
| 13> C 	 -105.723 	 64.8022 	 -8.72505
| 14> H 	 -106.763 	 64.5433 	 -8.96582
| 15> H 	 -105.317 	 64.3036 	 -9.6077
| 16> C 	 -105.516 	 66.283 	 -8.57553
| 17> H 	 -105.933 	 66.7335 	 -7.62012
| 18> H 	 -104.474 	 66.4863 	 -8.57335
| 19> C 	 -106.023 	 67.0901 	 -9.85246
| 20> H 	 -106.935 	 67.5817 	 -9.58623
| 21> H 	 -105.323 	 67.8705 	 -10.0792
| 22> H 	 -106.124 	 66.4537 	 -10.7003
| 23> S 	 -102.595 	 60.4001 	 -5.66549
| 24> C 	 -101.04 	 60.5438 	 -4.83791
| 25> C 	 -100.472 	 61.8278 	 -4.81036
| 26> C 	 -101.381 	 62.7658 	 -5.33205
| 27> C 	 -102.593 	 62.176 	 -5.7849
| 28> H 	 -99.4972 	 61.9614 	 -4.41097
| 29> C 	 -101.052 	 64.224 	 -5.41202
| 30> H 	 -101.792 	 64.8456 	 -4.93657
| 31> H 	 -101.133 	 64.5731 	 -6.46054
| 32> C 	 -99.6661 	 64.7129 	 -4.96125
| 33> H 	 -99.4806 	 65.7984 	 -5.28897
| 34> H 	 -98.8267 	 64.0431 	 -5.30684
| 35> C 	 -99.7286 	 64.8936 	 -3.41105
| 36> H 	 -99.7896 	 63.9465 	 -2.88872
| 37> H 	 -100.482 	 65.5606 	 -2.92717
| 38> H 	 -98.7087 	 65.2341 	 -3.02399
| 39> H 	 -106.855 	 64.7015 	 -6.31925
| 40> H 	 -100.513 	 59.7079 	 -4.43119
| 41> *
| 42>
| 43>                          ****END OF INPUT****

CARTESIAN COORDINATES (ANGSTROEM)
---------------------------------
  S    -105.174000   63.187000   -5.193550
  C    -105.993000   64.060200   -6.349940
  C    -105.287000   63.998400   -7.535210
  C    -103.978000   63.420000   -7.474780
  C    -103.818000   62.804600   -6.280410
  H    -103.289000   63.457100   -8.316350
  C    -105.723000   64.802200   -8.725050
  H    -106.763000   64.543300   -8.965820
  H    -105.317000   64.303600   -9.607700
  C    -105.516000   66.283000   -8.575530
  H    -105.933000   66.733500   -7.620120
  H    -104.474000   66.486300   -8.573350
  C    -106.023000   67.090100   -9.852460
  H    -106.935000   67.581700   -9.586230
  H    -105.323000   67.870500  -10.079200
  H    -106.124000   66.453700  -10.700300
  S    -102.595000   60.400100   -5.665490
  C    -101.040000   60.543800   -4.837910
  C    -100.472000   61.827800   -4.810360
  C    -101.381000   62.765800   -5.332050
  C    -102.593000   62.176000   -5.784900
  H    -99.497200   61.961400   -4.410970
  C    -101.052000   64.224000   -5.412020
  H    -101.792000   64.845600   -4.936570
  H    -101.133000   64.573100   -6.460540
  C    -99.666100   64.712900   -4.961250
  H    -99.480600   65.798400   -5.288970
  H    -98.826700   64.043100   -5.306840
  C    -99.728600   64.893600   -3.411050
  H    -99.789600   63.946500   -2.888720
  H    -100.482000   65.560600   -2.927170
  H    -98.708700   65.234100   -3.023990
  H    -106.855000   64.701500   -6.319250
  H    -100.513000   59.707900   -4.431190

 Total Charge           Charge          ....    0
 Multiplicity           Mult            ....    1
 Number of Electrons    NEL             ....  134
 Basis Dimension        Dim             ....  322

ORBITAL ENERGIES
----------------

  NO   OCC          E(Eh)            E(eV)
   0   2.0000     -88.969534     -2420.9841
   1   2.0000     -88.963529     -2420.8207
   2   2.0000     -10.325006      -280.9577
   3   2.0000     -10.323798      -280.9248
   4   2.0000     -10.317449      -280.7521
   5   2.0000     -10.307055      -280.4692
   6   2.0000     -10.304792      -280.4076
   7   2.0000     -10.302661      -280.3497
   8   2.0000     -10.292987      -280.0864
   9   2.0000     -10.292431      -280.0713
  10   2.0000     -10.288844      -279.9737
  11   2.0000     -10.288817      -279.9729
  12   2.0000     -10.288462      -279.9633
  13   2.0000     -10.283879      -279.8386
  14   2.0000     -10.282803      -279.8093
  15   2.0000     -10.273093      -279.5451
  16   2.0000      -8.083288      -219.9575
  17   2.0000      -8.079189      -219.8459
  18   2.0000      -6.041547      -164.3989
  19   2.0000      -6.038109      -164.3053
  20   2.0000      -6.037592      -164.2912
  21   2.0000      -6.034214      -164.1993
  22   2.0000      -6.033450      -164.1785
  23   2.0000      -6.030084      -164.0869
  24   2.0000      -1.007969       -27.4282
  25   2.0000      -0.982606       -26.7381
  26   2.0000      -0.909811       -24.7572
  27   2.0000      -0.907036       -24.6817
  28   2.0000      -0.869620       -23.6636
  29   2.0000      -0.848856       -23.0985
  30   2.0000      -0.845006       -22.9938
  31   2.0000      -0.815050       -22.1786
  32   2.0000      -0.779875       -21.2215
  33   2.0000      -0.763243       -20.7689
  34   2.0000      -0.704865       -19.1803
  35   2.0000      -0.703668       -19.1478
  36   2.0000      -0.693264       -18.8647
  37   2.0000      -0.656750       -17.8711
  38   2.0000      -0.642224       -17.4758
  39   2.0000      -0.620457       -16.8835
  40   2.0000      -0.601607       -16.3706
  41   2.0000      -0.572513       -15.5789
  42   2.0000      -0.554055       -15.0766
  43   2.0000      -0.542787       -14.7700
  44   2.0000      -0.534642       -14.5484
  45   2.0000      -0.531303       -14.4575
  46   2.0000      -0.518684       -14.1141
  47   2.0000      -0.508977       -13.8500
  48   2.0000      -0.504539       -13.7292
  49   2.0000      -0.493376       -13.4254
  50   2.0000      -0.491646       -13.3784
  51   2.0000      -0.474575       -12.9138
  52   2.0000      -0.468216       -12.7408
  53   2.0000      -0.465017       -12.6538
  54   2.0000      -0.460756       -12.5378
  55   2.0000      -0.451431       -12.2840
  56   2.0000      -0.447486       -12.1767
  57   2.0000      -0.443627       -12.0717
  58   2.0000      -0.438901       -11.9431
  59   2.0000      -0.419378       -11.4119
  60   2.0000      -0.408876       -11.1261
  61   2.0000      -0.407675       -11.0934
  62   2.0000      -0.406669       -11.0660
  63   2.0000      -0.341072        -9.2811
  64   2.0000      -0.335353        -9.1254
  65   2.0000      -0.314160        -8.5487
  66   2.0000      -0.296769        -8.0755
  67   0.0000       0.038839         1.0569
  68   0.0000       0.054606         1.4859
  69   0.0000       0.109070         2.9679
  70   0.0000       0.125323         3.4102
  71   0.0000       0.130218         3.5434

MULLIKEN ATOMIC CHARGES
-----------------------
   0 S :    0.129044
   1 C :   -0.088424
   2 C :   -0.139911
   3 C :    0.047108
   4 C :   -0.145796
   5 H :    0.021656
   6 C :    0.051235
   7 H :    0.015399
   8 H :    0.009011
   9 C :   -0.064169
  10 H :    0.038800
  11 H :    0.016202
  12 C :   -0.023244
  13 H :    0.030202
  14 H :    0.024804
  15 H :    0.028063
  16 S :    0.123602
  17 C :   -0.078678
  18 C :   -0.050957
  19 C :    0.027893
  20 C :   -0.206499
  21 H :    0.013773
  22 C :    0.076852
  23 H :    0.025896
  24 H :    0.031526
  25 C :   -0.101998
  26 H :    0.048435
  27 H :    0.051105
  28 C :   -0.096043
  29 H :    0.023955
  30 H :    0.049986
  31 H :    0.027158
  32 H :    0.041988
  33 H :    0.042028
Sum of atomic charges:   -0.0000000

LOEWDIN ATOMIC CHARGES
----------------------
   0 S :    0.433825
   1 C :   -0.220936
   2 C :   -0.073104
   3 C :   -0.051021
   4 C :   -0.198957
   5 H :    0.037747
   6 C :   -0.049935
   7 H :    0.028408
   8 H :    0.028976
   9 C :   -0.036858
  10 H :    0.030704
  11 H :    0.018372
  12 C :   -0.056979
  13 H :    0.022920
  14 H :    0.023396
  15 H :    0.020580
  16 S :    0.400281
  17 C :   -0.169863
  18 C :   -0.070293
  19 C :   -0.041813
  20 C :   -0.203462
  21 H :    0.029443
  22 C :   -0.041197
  23 H :    0.033827
  24 H :    0.036898
  25 C :   -0.046494
  26 H :    0.038937
  27 H :    0.031855
  28 C :   -0.084510
  29 H :    0.017695
  30 H :    0.032088
  31 H :    0.027062
  32 H :    0.033134
  33 H :    0.019272

  Mayer bond orders larger than 0.100000
B(  0-S ,  1-C ) :   1.1549 B(  0-S ,  4-C ) :   1.1497 B(  1-C ,  2-C ) :   1.5914
B(  1-C , 32-H ) :   0.9706 B(  2-C ,  3-C ) :   1.2549 B(  2-C ,  6-C ) :   1.0405
B(  3-C ,  4-C ) :   1.5676 B(  3-C ,  5-H ) :   0.9990 B(  4-C , 20-C ) :   1.0272
B(  6-C ,  7-H ) :   0.9346 B(  6-C ,  8-H ) :   0.9315 B(  6-C ,  9-C ) :   1.0598
B(  9-C , 10-H ) :   0.9610 B(  9-C , 11-H ) :   0.9607 B(  9-C , 12-C ) :   1.0595
B( 12-C , 13-H ) :   0.9791 B( 12-C , 14-H ) :   0.9806 B( 12-C , 15-H ) :   0.9790
B( 16-S , 17-C ) :   1.1709 B( 16-S , 20-C ) :   1.1471 B( 17-C , 18-C ) :   1.5939
B( 17-C , 20-C ) :   0.1114 B( 17-C , 33-H ) :   0.9633 B( 18-C , 19-C ) :   1.2588
B( 18-C , 21-H ) :   0.9881 B( 19-C , 20-C ) :   1.5760 B( 19-C , 22-C ) :   1.0333
B( 22-C , 23-H ) :   0.9192 B( 22-C , 24-H ) :   0.9269 B( 22-C , 25-C ) :   1.0822
B( 25-C , 26-H ) :   0.9549 B( 25-C , 27-H ) :   0.9498 B( 25-C , 28-C ) :   1.0626
B( 28-C , 29-H ) :   0.9772 B( 28-C , 30-H ) :   0.9753 B( 28-C , 31-H ) :   0.9735

Dispersion correction           -0.014192191
FINAL SINGLE POINT ENERGY     -1339.854940589189

DIPOLE MOMENT
-------------
                                X             Y             Z
Electronic contribution:     -6.18468     -24.75001       7.87449
Nuclear contribution   :      6.48723      25.32556      -8.13916
                        -----------------------------------------
Total Dipole Moment    :      0.30255       0.57555      -0.26467
                        -----------------------------------------
Magnitude (a.u.)       :      0.70203
Magnitude (Debye)      :      1.78442

Rotational constants in cm-1:     0.019687     0.007786     0.006418
Rotational constants in MHz :   590.213167   233.421530   192.397833

                             ****ORCA TERMINATED NORMALLY****
TOTAL RUN TIME: 0 days 0 hours 0 minutes 21 seconds 329 msec
