                         Program Version 4.2.1 -  RELEASE  -
|  1> ! wB97X-D3 SP def2-SVP
|  2> %pal
|  3> nprocs 24
|  4> end
|  5>
|  6> * xyz 0 1
|  7> S 	 -85.3505 	 -46.5888 	 -84.0314
|  8> C 	 -86.4773 	 -45.684 	 -85.0039
|  9> C 	 -87.7269 	 -45.5076 	 -84.3797
| 10> C 	 -87.6504 	 -45.9745 	 -83.0493
| 11> C 	 -86.4955 	 -46.6372 	 -82.739
| 12> H 	 -88.5311 	 -45.9512 	 -82.4262
| 13> C 	 -88.8586 	 -44.8322 	 -85.0597
| 14> H 	 -88.5087 	 -44.2749 	 -85.9768
| 15> H 	 -89.2909 	 -44.1189 	 -84.3625
| 16> C 	 -89.917 	 -45.7757 	 -85.5515
| 17> H 	 -90.3777 	 -46.2558 	 -84.7611
| 18> H 	 -90.7974 	 -45.1331 	 -85.9488
| 19> C 	 -89.5339 	 -46.5856 	 -86.7801
| 20> H 	 -88.7947 	 -47.377 	 -86.5878
| 21> H 	 -90.3848 	 -46.9503 	 -87.3613
| 22> H 	 -89.0158 	 -46.0011 	 -87.5886
| 23> S 	 -87.165 	 -48.6772 	 -81.0203
| 24> C 	 -86.3632 	 -48.7926 	 -79.4717
| 25> C 	 -85.1574 	 -48.144 	 -79.5494
| 26> C 	 -85.0404 	 -47.2736 	 -80.6578
| 27> C 	 -86.1757 	 -47.2959 	 -81.4687
| 28> H 	 -84.4946 	 -48.2176 	 -78.7289
| 29> C 	 -83.8041 	 -46.4052 	 -80.842
| 30> H 	 -83.6379 	 -46.0034 	 -79.96
| 31> H 	 -83.9712 	 -45.647 	 -81.5305
| 32> C 	 -82.5615 	 -47.1265 	 -81.3579
| 33> H 	 -82.8278 	 -47.8477 	 -82.1414
| 34> H 	 -82.1322 	 -47.7941 	 -80.5935
| 35> C 	 -81.455 	 -46.127 	 -81.7735
| 36> H 	 -80.4833 	 -46.5737 	 -81.8338
| 37> H 	 -81.3565 	 -45.4928 	 -80.9309
| 38> H 	 -81.685 	 -45.5082 	 -82.7027
| 39> H 	 -86.4922 	 -45.544 	 -86.0691
| 40> H 	 -86.6827 	 -49.4361 	 -78.647
| 41> *
| 42>
| 43>                          ****END OF INPUT****

CARTESIAN COORDINATES (ANGSTROEM)
---------------------------------
  S    -85.350500  -46.588800  -84.031400
  C    -86.477300  -45.684000  -85.003900
  C    -87.726900  -45.507600  -84.379700
  C    -87.650400  -45.974500  -83.049300
  C    -86.495500  -46.637200  -82.739000
  H    -88.531100  -45.951200  -82.426200
  C    -88.858600  -44.832200  -85.059700
  H    -88.508700  -44.274900  -85.976800
  H    -89.290900  -44.118900  -84.362500
  C    -89.917000  -45.775700  -85.551500
  H    -90.377700  -46.255800  -84.761100
  H    -90.797400  -45.133100  -85.948800
  C    -89.533900  -46.585600  -86.780100
  H    -88.794700  -47.377000  -86.587800
  H    -90.384800  -46.950300  -87.361300
  H    -89.015800  -46.001100  -87.588600
  S    -87.165000  -48.677200  -81.020300
  C    -86.363200  -48.792600  -79.471700
  C    -85.157400  -48.144000  -79.549400
  C    -85.040400  -47.273600  -80.657800
  C    -86.175700  -47.295900  -81.468700
  H    -84.494600  -48.217600  -78.728900
  C    -83.804100  -46.405200  -80.842000
  H    -83.637900  -46.003400  -79.960000
  H    -83.971200  -45.647000  -81.530500
  C    -82.561500  -47.126500  -81.357900
  H    -82.827800  -47.847700  -82.141400
  H    -82.132200  -47.794100  -80.593500
  C    -81.455000  -46.127000  -81.773500
  H    -80.483300  -46.573700  -81.833800
  H    -81.356500  -45.492800  -80.930900
  H    -81.685000  -45.508200  -82.702700
  H    -86.492200  -45.544000  -86.069100
  H    -86.682700  -49.436100  -78.647000

 Total Charge           Charge          ....    0
 Multiplicity           Mult            ....    1
 Number of Electrons    NEL             ....  134
 Basis Dimension        Dim             ....  322

ORBITAL ENERGIES
----------------

  NO   OCC          E(Eh)            E(eV)
   0   2.0000     -88.971160     -2421.0284
   1   2.0000     -88.960619     -2420.7415
   2   2.0000     -10.327192      -281.0172
   3   2.0000     -10.324476      -280.9433
   4   2.0000     -10.315328      -280.6943
   5   2.0000     -10.310418      -280.5607
   6   2.0000     -10.300750      -280.2977
   7   2.0000     -10.297359      -280.2054
   8   2.0000     -10.293326      -280.0956
   9   2.0000     -10.291203      -280.0379
  10   2.0000     -10.287448      -279.9357
  11   2.0000     -10.287090      -279.9260
  12   2.0000     -10.284658      -279.8598
  13   2.0000     -10.282205      -279.7930
  14   2.0000     -10.276664      -279.6422
  15   2.0000     -10.271927      -279.5134
  16   2.0000      -8.085682      -220.0226
  17   2.0000      -8.075555      -219.7470
  18   2.0000      -6.044070      -164.4675
  19   2.0000      -6.040161      -164.3611
  20   2.0000      -6.036668      -164.2661
  21   2.0000      -6.034069      -164.1954
  22   2.0000      -6.030243      -164.0912
  23   2.0000      -6.026084      -163.9781
  24   2.0000      -1.009636       -27.4736
  25   2.0000      -0.987756       -26.8782
  26   2.0000      -0.921025       -25.0624
  27   2.0000      -0.911115       -24.7927
  28   2.0000      -0.867163       -23.5967
  29   2.0000      -0.852754       -23.2046
  30   2.0000      -0.845718       -23.0132
  31   2.0000      -0.814404       -22.1610
  32   2.0000      -0.786652       -21.4059
  33   2.0000      -0.774119       -21.0648
  34   2.0000      -0.710101       -19.3228
  35   2.0000      -0.700532       -19.0624
  36   2.0000      -0.693125       -18.8609
  37   2.0000      -0.663939       -18.0667
  38   2.0000      -0.633267       -17.2321
  39   2.0000      -0.625241       -17.0137
  40   2.0000      -0.599879       -16.3235
  41   2.0000      -0.572388       -15.5755
  42   2.0000      -0.569355       -15.4929
  43   2.0000      -0.556210       -15.1352
  44   2.0000      -0.544954       -14.8289
  45   2.0000      -0.521701       -14.1962
  46   2.0000      -0.516685       -14.0597
  47   2.0000      -0.515465       -14.0265
  48   2.0000      -0.499760       -13.5992
  49   2.0000      -0.498351       -13.5608
  50   2.0000      -0.486330       -13.2337
  51   2.0000      -0.477657       -12.9977
  52   2.0000      -0.471531       -12.8310
  53   2.0000      -0.467245       -12.7144
  54   2.0000      -0.462436       -12.5835
  55   2.0000      -0.448189       -12.1958
  56   2.0000      -0.447972       -12.1899
  57   2.0000      -0.438115       -11.9217
  58   2.0000      -0.431948       -11.7539
  59   2.0000      -0.428927       -11.6717
  60   2.0000      -0.421898       -11.4804
  61   2.0000      -0.415935       -11.3182
  62   2.0000      -0.405899       -11.0451
  63   2.0000      -0.341330        -9.2881
  64   2.0000      -0.334720        -9.1082
  65   2.0000      -0.324841        -8.8394
  66   2.0000      -0.294320        -8.0089
  67   0.0000       0.027803         0.7566
  68   0.0000       0.068622         1.8673
  69   0.0000       0.106389         2.8950
  70   0.0000       0.116906         3.1812
  71   0.0000       0.125038         3.4025

MULLIKEN ATOMIC CHARGES
-----------------------
   0 S :    0.132991
   1 C :   -0.098553
   2 C :   -0.121229
   3 C :    0.041081
   4 C :   -0.155860
   5 H :    0.006124
   6 C :    0.058126
   7 H :    0.029774
   8 H :    0.031994
   9 C :   -0.052413
  10 H :    0.015206
  11 H :    0.029703
  12 C :   -0.066643
  13 H :    0.044038
  14 H :    0.038329
  15 H :    0.017702
  16 S :    0.098647
  17 C :   -0.099545
  18 C :   -0.021572
  19 C :   -0.052957
  20 C :   -0.148321
  21 H :    0.003405
  22 C :    0.181815
  23 H :   -0.018375
  24 H :   -0.003975
  25 C :   -0.100564
  26 H :    0.028635
  27 H :    0.020532
  28 C :   -0.033555
  29 H :    0.027130
  30 H :    0.012951
  31 H :    0.053357
  32 H :    0.038933
  33 H :    0.063090
Sum of atomic charges:    0.0000000

LOEWDIN ATOMIC CHARGES
----------------------
   0 S :    0.432278
   1 C :   -0.206283
   2 C :   -0.060157
   3 C :   -0.058848
   4 C :   -0.204246
   5 H :    0.030325
   6 C :   -0.033974
   7 H :    0.037523
   8 H :    0.034384
   9 C :   -0.041308
  10 H :    0.013334
  11 H :    0.034871
  12 C :   -0.075487
  13 H :    0.026068
  14 H :    0.029512
  15 H :    0.027972
  16 S :    0.399546
  17 C :   -0.182108
  18 C :   -0.068715
  19 C :   -0.051130
  20 C :   -0.195844
  21 H :    0.024586
  22 C :   -0.015531
  23 H :    0.009872
  24 H :    0.018296
  25 C :   -0.038177
  26 H :    0.020456
  27 H :    0.022532
  28 C :   -0.065315
  29 H :    0.023978
  30 H :    0.019915
  31 H :    0.035213
  32 H :    0.023478
  33 H :    0.032984

  Mayer bond orders larger than 0.100000
B(  0-S ,  1-C ) :   1.1484 B(  0-S ,  4-C ) :   1.1577 B(  1-C ,  2-C ) :   1.5965
B(  1-C , 32-H ) :   0.9568 B(  2-C ,  3-C ) :   1.2686 B(  2-C ,  6-C ) :   1.0299
B(  3-C ,  4-C ) :   1.5533 B(  3-C ,  5-H ) :   0.9939 B(  4-C , 20-C ) :   1.0270
B(  6-C ,  7-H ) :   0.9427 B(  6-C ,  8-H ) :   0.9341 B(  6-C ,  9-C ) :   1.0845
B(  9-C , 10-H ) :   0.9571 B(  9-C , 11-H ) :   0.9514 B(  9-C , 12-C ) :   1.0657
B( 12-C , 13-H ) :   0.9747 B( 12-C , 14-H ) :   0.9750 B( 12-C , 15-H ) :   0.9689
B( 16-S , 17-C ) :   1.1519 B( 16-S , 20-C ) :   1.1491 B( 17-C , 18-C ) :   1.5967
B( 17-C , 20-C ) :   0.1052 B( 17-C , 33-H ) :   0.9696 B( 18-C , 19-C ) :   1.2380
B( 18-C , 21-H ) :   0.9981 B( 19-C , 20-C ) :   1.5739 B( 19-C , 22-C ) :   1.0497
B( 22-C , 23-H ) :   0.9135 B( 22-C , 24-H ) :   0.9296 B( 22-C , 25-C ) :   1.0590
B( 25-C , 26-H ) :   0.9573 B( 25-C , 27-H ) :   0.9520 B( 25-C , 28-C ) :   1.0821
B( 28-C , 29-H ) :   0.9737 B( 28-C , 30-H ) :   0.9699 B( 28-C , 31-H ) :   0.9744

Dispersion correction           -0.014582002
FINAL SINGLE POINT ENERGY     -1339.861725678998

DIPOLE MOMENT
-------------
                                X             Y             Z
Electronic contribution:     -2.50356      -8.22825       9.17892
Nuclear contribution   :      2.44753       8.38637      -9.16743
                        -----------------------------------------
Total Dipole Moment    :     -0.05603       0.15812       0.01150
                        -----------------------------------------
Magnitude (a.u.)       :      0.16815
Magnitude (Debye)      :      0.42739

Rotational constants in cm-1:     0.021961     0.008224     0.006437
Rotational constants in MHz :   658.373909   246.538040   192.971781

                             ****ORCA TERMINATED NORMALLY****
TOTAL RUN TIME: 0 days 0 hours 0 minutes 21 seconds 315 msec
