                         Program Version 4.2.1 -  RELEASE  -
|  1> ! wB97X-D3 SP def2-SVP
|  2> %pal
|  3> nprocs 24
|  4> end
|  5>
|  6> * xyz 0 1
|  7> S 	 47.8851 	 -14.1078 	 -109.764
|  8> C 	 46.5513 	 -13.9465 	 -110.923
|  9> C 	 45.5504 	 -13.1698 	 -110.42
| 10> C 	 45.8562 	 -12.7061 	 -109.107
| 11> C 	 47.0868 	 -13.1131 	 -108.66
| 12> H 	 45.267 	 -12.0307 	 -108.507
| 13> C 	 44.291 	 -12.7696 	 -111.189
| 14> H 	 44.228 	 -13.512 	 -111.976
| 15> H 	 44.5938 	 -11.8973 	 -111.662
| 16> C 	 42.9895 	 -12.4512 	 -110.379
| 17> H 	 42.7048 	 -13.3158 	 -109.759
| 18> H 	 43.2134 	 -11.6953 	 -109.653
| 19> C 	 41.8415 	 -12.0257 	 -111.318
| 20> H 	 41.4965 	 -12.9561 	 -111.736
| 21> H 	 41.1347 	 -11.5891 	 -110.594
| 22> H 	 42.1505 	 -11.24 	 -112.116
| 23> S 	 48.0125 	 -14.3857 	 -106.388
| 24> C 	 48.5134 	 -13.4361 	 -104.999
| 25> C 	 48.4143 	 -12.0833 	 -105.247
| 26> C 	 47.8142 	 -11.8165 	 -106.527
| 27> C 	 47.6342 	 -12.9393 	 -107.258
| 28> H 	 48.7371 	 -11.2756 	 -104.571
| 29> C 	 47.6826 	 -10.3732 	 -106.986
| 30> H 	 46.9363 	 -9.9227 	 -106.302
| 31> H 	 47.2584 	 -10.285 	 -107.975
| 32> C 	 48.9534 	 -9.66532 	 -106.858
| 33> H 	 49.1262 	 -9.53935 	 -105.778
| 34> H 	 48.9171 	 -8.6618 	 -107.267
| 35> C 	 50.1014 	 -10.2203 	 -107.585
| 36> H 	 50.121 	 -10.1275 	 -108.65
| 37> H 	 50.2233 	 -11.242 	 -107.279
| 38> H 	 50.8857 	 -9.64093 	 -107.211
| 39> H 	 46.5903 	 -14.3586 	 -111.872
| 40> H 	 49.0115 	 -13.8509 	 -104.075
| 41> *
| 42>
| 43>                          ****END OF INPUT****

CARTESIAN COORDINATES (ANGSTROEM)
---------------------------------
  S     47.885100  -14.107800  -109.764000
  C     46.551300  -13.946500  -110.923000
  C     45.550400  -13.169800  -110.420000
  C     45.856200  -12.706100  -109.107000
  C     47.086800  -13.113100  -108.660000
  H     45.267000  -12.030700  -108.507000
  C     44.291000  -12.769600  -111.189000
  H     44.228000  -13.512000  -111.976000
  H     44.593800  -11.897300  -111.662000
  C     42.989500  -12.451200  -110.379000
  H     42.704800  -13.315800  -109.759000
  H     43.213400  -11.695300  -109.653000
  C     41.841500  -12.025700  -111.318000
  H     41.496500  -12.956100  -111.736000
  H     41.134700  -11.589100  -110.594000
  H     42.150500  -11.240000  -112.116000
  S     48.012500  -14.385700  -106.388000
  C     48.513400  -13.436100  -104.999000
  C     48.414300  -12.083300  -105.247000
  C     47.814200  -11.816500  -106.527000
  C     47.634200  -12.939300  -107.258000
  H     48.737100  -11.275600  -104.571000
  C     47.682600  -10.373200  -106.986000
  H     46.936300   -9.922700  -106.302000
  H     47.258400  -10.285000  -107.975000
  C     48.953400   -9.665320  -106.858000
  H     49.126200   -9.539350  -105.778000
  H     48.917100   -8.661800  -107.267000
  C     50.101400  -10.220300  -107.585000
  H     50.121000  -10.127500  -108.650000
  H     50.223300  -11.242000  -107.279000
  H     50.885700   -9.640930  -107.211000
  H     46.590300  -14.358600  -111.872000
  H     49.011500  -13.850900  -104.075000

 Total Charge           Charge          ....    0
 Multiplicity           Mult            ....    1
 Number of Electrons    NEL             ....  134
 Basis Dimension        Dim             ....  322

ORBITAL ENERGIES
----------------

  NO   OCC          E(Eh)            E(eV)
   0   2.0000     -88.964377     -2420.8438
   1   2.0000     -88.963471     -2420.8191
   2   2.0000     -10.324495      -280.9438
   3   2.0000     -10.322371      -280.8860
   4   2.0000     -10.321084      -280.8510
   5   2.0000     -10.304932      -280.4115
   6   2.0000     -10.298247      -280.2296
   7   2.0000     -10.295423      -280.1527
   8   2.0000     -10.295136      -280.1449
   9   2.0000     -10.290974      -280.0316
  10   2.0000     -10.289286      -279.9857
  11   2.0000     -10.287832      -279.9461
  12   2.0000     -10.287334      -279.9326
  13   2.0000     -10.283274      -279.8221
  14   2.0000     -10.273594      -279.5587
  15   2.0000     -10.256703      -279.0991
  16   2.0000      -8.079460      -219.8533
  17   2.0000      -8.079114      -219.8439
  18   2.0000      -6.038057      -164.3039
  19   2.0000      -6.037531      -164.2896
  20   2.0000      -6.033963      -164.1925
  21   2.0000      -6.033424      -164.1778
  22   2.0000      -6.030055      -164.0861
  23   2.0000      -6.030006      -164.0848
  24   2.0000      -1.010690       -27.5023
  25   2.0000      -0.988826       -26.9073
  26   2.0000      -0.925620       -25.1874
  27   2.0000      -0.910235       -24.7688
  28   2.0000      -0.867122       -23.5956
  29   2.0000      -0.852172       -23.1888
  30   2.0000      -0.844542       -22.9812
  31   2.0000      -0.816240       -22.2110
  32   2.0000      -0.788139       -21.4463
  33   2.0000      -0.776681       -21.1346
  34   2.0000      -0.707250       -19.2452
  35   2.0000      -0.691639       -18.8205
  36   2.0000      -0.687209       -18.6999
  37   2.0000      -0.657565       -17.8933
  38   2.0000      -0.644552       -17.5392
  39   2.0000      -0.617433       -16.8012
  40   2.0000      -0.599527       -16.3139
  41   2.0000      -0.570519       -15.5246
  42   2.0000      -0.564542       -15.3620
  43   2.0000      -0.562260       -15.2999
  44   2.0000      -0.549186       -14.9441
  45   2.0000      -0.527778       -14.3616
  46   2.0000      -0.517843       -14.0912
  47   2.0000      -0.511492       -13.9184
  48   2.0000      -0.503061       -13.6890
  49   2.0000      -0.499144       -13.5824
  50   2.0000      -0.493905       -13.4399
  51   2.0000      -0.476488       -12.9659
  52   2.0000      -0.469144       -12.7661
  53   2.0000      -0.465070       -12.6552
  54   2.0000      -0.461153       -12.5486
  55   2.0000      -0.450164       -12.2496
  56   2.0000      -0.444183       -12.0868
  57   2.0000      -0.437227       -11.8976
  58   2.0000      -0.436248       -11.8709
  59   2.0000      -0.428872       -11.6702
  60   2.0000      -0.420608       -11.4453
  61   2.0000      -0.414358       -11.2753
  62   2.0000      -0.401844       -10.9347
  63   2.0000      -0.343782        -9.3548
  64   2.0000      -0.332173        -9.0389
  65   2.0000      -0.327606        -8.9146
  66   2.0000      -0.298281        -8.1166
  67   0.0000       0.042648         1.1605
  68   0.0000       0.075006         2.0410
  69   0.0000       0.116672         3.1748
  70   0.0000       0.125266         3.4087
  71   0.0000       0.135585         3.6894

MULLIKEN ATOMIC CHARGES
-----------------------
   0 S :    0.106064
   1 C :   -0.124274
   2 C :   -0.072918
   3 C :    0.024249
   4 C :   -0.149297
   5 H :    0.004662
   6 C :    0.109160
   7 H :    0.012367
   8 H :    0.019765
   9 C :   -0.106222
  10 H :    0.038598
  11 H :    0.026850
  12 C :   -0.051578
  13 H :    0.042152
  14 H :    0.042634
  15 H :    0.052256
  16 S :    0.114040
  17 C :   -0.109002
  18 C :   -0.047427
  19 C :   -0.086384
  20 C :   -0.156512
  21 H :    0.030817
  22 C :    0.133499
  23 H :    0.027957
  24 H :    0.011679
  25 C :   -0.113898
  26 H :    0.020736
  27 H :    0.017609
  28 C :    0.018940
  29 H :    0.029558
  30 H :    0.031663
  31 H :    0.010410
  32 H :    0.015141
  33 H :    0.076707
Sum of atomic charges:    0.0000000

LOEWDIN ATOMIC CHARGES
----------------------
   0 S :    0.419577
   1 C :   -0.187336
   2 C :   -0.054175
   3 C :   -0.072694
   4 C :   -0.205738
   5 H :    0.027260
   6 C :   -0.026079
   7 H :    0.027872
   8 H :    0.026001
   9 C :   -0.039585
  10 H :    0.028542
  11 H :    0.016961
  12 C :   -0.065985
  13 H :    0.025731
  14 H :    0.031770
  15 H :    0.037268
  16 S :    0.407940
  17 C :   -0.192834
  18 C :   -0.073134
  19 C :   -0.064699
  20 C :   -0.204126
  21 H :    0.035499
  22 C :   -0.030843
  23 H :    0.035932
  24 H :    0.024771
  25 C :   -0.048909
  26 H :    0.022224
  27 H :    0.026333
  28 C :   -0.052529
  29 H :    0.024904
  30 H :    0.023443
  31 H :    0.023338
  32 H :    0.011306
  33 H :    0.041994

  Mayer bond orders larger than 0.100000
B(  0-S ,  1-C ) :   1.1240 B(  0-S ,  4-C ) :   1.1832 B(  1-C ,  2-C ) :   1.6195
B(  1-C , 32-H ) :   0.9826 B(  2-C ,  3-C ) :   1.2356 B(  2-C ,  6-C ) :   1.0009
B(  3-C ,  4-C ) :   1.5801 B(  3-C ,  5-H ) :   0.9972 B(  4-C , 20-C ) :   0.9675
B(  6-C ,  7-H ) :   0.9426 B(  6-C ,  8-H ) :   0.9281 B(  6-C ,  9-C ) :   1.0610
B(  9-C , 10-H ) :   0.9603 B(  9-C , 11-H ) :   0.9507 B(  9-C , 12-C ) :   1.0747
B( 12-C , 13-H ) :   0.9777 B( 12-C , 14-H ) :   0.9746 B( 12-C , 15-H ) :   0.9740
B( 16-S , 17-C ) :   1.1438 B( 16-S , 20-C ) :   1.1425 B( 17-C , 18-C ) :   1.6254
B( 17-C , 33-H ) :   0.9593 B( 18-C , 19-C ) :   1.2174 B( 18-C , 21-H ) :   0.9838
B( 19-C , 20-C ) :   1.6586 B( 19-C , 22-C ) :   1.0328 B( 22-C , 23-H ) :   0.9244
B( 22-C , 24-H ) :   0.9316 B( 22-C , 25-C ) :   1.0938 B( 25-C , 26-H ) :   0.9479
B( 25-C , 27-H ) :   0.9451 B( 25-C , 28-C ) :   1.0865 B( 28-C , 29-H ) :   0.9724
B( 28-C , 30-H ) :   0.9671 B( 28-C , 31-H ) :   0.9653

Dispersion correction           -0.014314306
FINAL SINGLE POINT ENERGY     -1339.874095170117

DIPOLE MOMENT
-------------
                                X             Y             Z
Electronic contribution:     11.71148     -19.11143       6.49563
Nuclear contribution   :    -12.00131      19.71552      -6.56489
                        -----------------------------------------
Total Dipole Moment    :     -0.28983       0.60409      -0.06925
                        -----------------------------------------
Magnitude (a.u.)       :      0.67359
Magnitude (Debye)      :      1.71213

Rotational constants in cm-1:     0.020649     0.007693     0.007003
Rotational constants in MHz :   619.040104   230.632349   209.957897

                             ****ORCA TERMINATED NORMALLY****
TOTAL RUN TIME: 0 days 0 hours 0 minutes 21 seconds 687 msec
