                         Program Version 4.2.1 -  RELEASE  -
|  1> ! wB97X-D3 SP def2-SVP
|  2> %pal
|  3> nprocs 24
|  4> end
|  5>
|  6> * xyz 0 1
|  7> S 	 -116.045 	 29.5421 	 -15.3469
|  8> C 	 -114.762 	 28.8996 	 -16.45
|  9> C 	 -114.619 	 29.8786 	 -17.463
| 10> C 	 -115.735 	 30.8219 	 -17.4929
| 11> C 	 -116.617 	 30.7553 	 -16.4614
| 12> H 	 -115.894 	 31.5488 	 -18.2574
| 13> C 	 -113.639 	 29.7627 	 -18.5428
| 14> H 	 -112.714 	 29.5106 	 -17.993
| 15> H 	 -113.477 	 30.783 	 -18.9108
| 16> C 	 -113.982 	 28.6714 	 -19.5672
| 17> H 	 -113.928 	 27.6603 	 -19.0588
| 18> H 	 -115.015 	 28.7603 	 -19.858
| 19> C 	 -113.045 	 28.6419 	 -20.8361
| 20> H 	 -112.329 	 27.7692 	 -20.8286
| 21> H 	 -113.662 	 28.4219 	 -21.7129
| 22> H 	 -112.45 	 29.5364 	 -21.0154
| 23> S 	 -119.164 	 30.7832 	 -15.4365
| 24> C 	 -120.193 	 32.1946 	 -15.6717
| 25> C 	 -119.55 	 33.1776 	 -16.4077
| 26> C 	 -118.198 	 32.8254 	 -16.7741
| 27> C 	 -117.828 	 31.5774 	 -16.2571
| 28> H 	 -120.106 	 34.0858 	 -16.6219
| 29> C 	 -117.355 	 33.9323 	 -17.3952
| 30> H 	 -118.009 	 34.6723 	 -17.6591
| 31> H 	 -116.916 	 33.6465 	 -18.3413
| 32> C 	 -116.355 	 34.5884 	 -16.3979
| 33> H 	 -115.441 	 33.9973 	 -16.4613
| 34> H 	 -116.799 	 34.6317 	 -15.3939
| 35> C 	 -115.814 	 36.0077 	 -16.7975
| 36> H 	 -116.548 	 36.7658 	 -16.5744
| 37> H 	 -115.615 	 36.0778 	 -17.8659
| 38> H 	 -114.932 	 36.2917 	 -16.2051
| 39> H 	 -114.028 	 28.1643 	 -16.1754
| 40> H 	 -121.265 	 32.2615 	 -15.5507
| 41> *
| 42>
| 43>                          ****END OF INPUT****

CARTESIAN COORDINATES (ANGSTROEM)
---------------------------------
  S    -116.045000   29.542100  -15.346900
  C    -114.762000   28.899600  -16.450000
  C    -114.619000   29.878600  -17.463000
  C    -115.735000   30.821900  -17.492900
  C    -116.617000   30.755300  -16.461400
  H    -115.894000   31.548800  -18.257400
  C    -113.639000   29.762700  -18.542800
  H    -112.714000   29.510600  -17.993000
  H    -113.477000   30.783000  -18.910800
  C    -113.982000   28.671400  -19.567200
  H    -113.928000   27.660300  -19.058800
  H    -115.015000   28.760300  -19.858000
  C    -113.045000   28.641900  -20.836100
  H    -112.329000   27.769200  -20.828600
  H    -113.662000   28.421900  -21.712900
  H    -112.450000   29.536400  -21.015400
  S    -119.164000   30.783200  -15.436500
  C    -120.193000   32.194600  -15.671700
  C    -119.550000   33.177600  -16.407700
  C    -118.198000   32.825400  -16.774100
  C    -117.828000   31.577400  -16.257100
  H    -120.106000   34.085800  -16.621900
  C    -117.355000   33.932300  -17.395200
  H    -118.009000   34.672300  -17.659100
  H    -116.916000   33.646500  -18.341300
  C    -116.355000   34.588400  -16.397900
  H    -115.441000   33.997300  -16.461300
  H    -116.799000   34.631700  -15.393900
  C    -115.814000   36.007700  -16.797500
  H    -116.548000   36.765800  -16.574400
  H    -115.615000   36.077800  -17.865900
  H    -114.932000   36.291700  -16.205100
  H    -114.028000   28.164300  -16.175400
  H    -121.265000   32.261500  -15.550700

 Total Charge           Charge          ....    0
 Multiplicity           Mult            ....    1
 Number of Electrons    NEL             ....  134
 Basis Dimension        Dim             ....  322

ORBITAL ENERGIES
----------------

  NO   OCC          E(Eh)            E(eV)
   0   2.0000     -88.970305     -2421.0051
   1   2.0000     -88.961359     -2420.7616
   2   2.0000     -10.335890      -281.2539
   3   2.0000     -10.331506      -281.1346
   4   2.0000     -10.319034      -280.7952
   5   2.0000     -10.318317      -280.7757
   6   2.0000     -10.310591      -280.5654
   7   2.0000     -10.304946      -280.4118
   8   2.0000     -10.297257      -280.2026
   9   2.0000     -10.294472      -280.1268
  10   2.0000     -10.290249      -280.0119
  11   2.0000     -10.289909      -280.0027
  12   2.0000     -10.288903      -279.9753
  13   2.0000     -10.288630      -279.9678
  14   2.0000     -10.284439      -279.8538
  15   2.0000     -10.279097      -279.7085
  16   2.0000      -8.084428      -219.9885
  17   2.0000      -8.075344      -219.7413
  18   2.0000      -6.042989      -164.4381
  19   2.0000      -6.038980      -164.3290
  20   2.0000      -6.035191      -164.2259
  21   2.0000      -6.034083      -164.1958
  22   2.0000      -6.029929      -164.0827
  23   2.0000      -6.025902      -163.9731
  24   2.0000      -1.003198       -27.2984
  25   2.0000      -0.979711       -26.6593
  26   2.0000      -0.912690       -24.8356
  27   2.0000      -0.906263       -24.6607
  28   2.0000      -0.864391       -23.5213
  29   2.0000      -0.849253       -23.1093
  30   2.0000      -0.838837       -22.8259
  31   2.0000      -0.817339       -22.2409
  32   2.0000      -0.782535       -21.2938
  33   2.0000      -0.770033       -20.9537
  34   2.0000      -0.707534       -19.2530
  35   2.0000      -0.706112       -19.2143
  36   2.0000      -0.692445       -18.8424
  37   2.0000      -0.663119       -18.0444
  38   2.0000      -0.639269       -17.3954
  39   2.0000      -0.619612       -16.8605
  40   2.0000      -0.593540       -16.1510
  41   2.0000      -0.565377       -15.3847
  42   2.0000      -0.564553       -15.3623
  43   2.0000      -0.551533       -15.0080
  44   2.0000      -0.528122       -14.3709
  45   2.0000      -0.521917       -14.2021
  46   2.0000      -0.520033       -14.1508
  47   2.0000      -0.519070       -14.1246
  48   2.0000      -0.507944       -13.8219
  49   2.0000      -0.495682       -13.4882
  50   2.0000      -0.493550       -13.4302
  51   2.0000      -0.487152       -13.2561
  52   2.0000      -0.464802       -12.6479
  53   2.0000      -0.459626       -12.5071
  54   2.0000      -0.452978       -12.3262
  55   2.0000      -0.447292       -12.1714
  56   2.0000      -0.445915       -12.1340
  57   2.0000      -0.444901       -12.1064
  58   2.0000      -0.436915       -11.8891
  59   2.0000      -0.427168       -11.6238
  60   2.0000      -0.413770       -11.2593
  61   2.0000      -0.412101       -11.2138
  62   2.0000      -0.406307       -11.0562
  63   2.0000      -0.356292        -9.6952
  64   2.0000      -0.334051        -9.0900
  65   2.0000      -0.322325        -8.7709
  66   2.0000      -0.288012        -7.8372
  67   0.0000       0.018780         0.5110
  68   0.0000       0.075424         2.0524
  69   0.0000       0.099959         2.7200
  70   0.0000       0.113714         3.0943
  71   0.0000       0.135989         3.7004

MULLIKEN ATOMIC CHARGES
-----------------------
   0 S :    0.081963
   1 C :   -0.119926
   2 C :   -0.120175
   3 C :    0.004594
   4 C :   -0.082450
   5 H :   -0.014407
   6 C :    0.061815
   7 H :    0.028270
   8 H :    0.024620
   9 C :   -0.069661
  10 H :    0.038341
  11 H :    0.033567
  12 C :   -0.059752
  13 H :    0.036968
  14 H :    0.034020
  15 H :    0.039104
  16 S :    0.110958
  17 C :   -0.081521
  18 C :   -0.058341
  19 C :   -0.067718
  20 C :   -0.130771
  21 H :    0.027414
  22 C :    0.120666
  23 H :   -0.019218
  24 H :    0.023642
  25 C :   -0.077616
  26 H :    0.039056
  27 H :    0.047367
  28 C :   -0.065198
  29 H :    0.024548
  30 H :    0.030390
  31 H :    0.042116
  32 H :    0.058945
  33 H :    0.058387
Sum of atomic charges:   -0.0000000

LOEWDIN ATOMIC CHARGES
----------------------
   0 S :    0.375291
   1 C :   -0.185458
   2 C :   -0.053799
   3 C :   -0.074952
   4 C :   -0.185993
   5 H :    0.022901
   6 C :   -0.044485
   7 H :    0.035668
   8 H :    0.030603
   9 C :   -0.036832
  10 H :    0.034108
  11 H :    0.023358
  12 C :   -0.075868
  13 H :    0.031218
  14 H :    0.028747
  15 H :    0.024591
  16 S :    0.408636
  17 C :   -0.186832
  18 C :   -0.069782
  19 C :   -0.052126
  20 C :   -0.188333
  21 H :    0.034211
  22 C :   -0.026023
  23 H :    0.015671
  24 H :    0.026408
  25 C :   -0.033497
  26 H :    0.026674
  27 H :    0.030546
  28 C :   -0.068890
  29 H :    0.018961
  30 H :    0.023650
  31 H :    0.030839
  32 H :    0.028512
  33 H :    0.032277

  Mayer bond orders larger than 0.100000
B(  0-S ,  1-C ) :   1.1129 B(  0-S ,  4-C ) :   1.1455 B(  1-C ,  2-C ) :   1.5843
B(  1-C , 32-H ) :   0.9733 B(  2-C ,  3-C ) :   1.2221 B(  2-C ,  6-C ) :   1.0531
B(  3-C ,  4-C ) :   1.5960 B(  3-C ,  5-H ) :   0.9964 B(  4-C , 20-C ) :   1.0467
B(  6-C ,  7-H ) :   0.9294 B(  6-C ,  8-H ) :   0.9387 B(  6-C ,  9-C ) :   1.0570
B(  9-C , 10-H ) :   0.9555 B(  9-C , 11-H ) :   0.9674 B(  9-C , 12-C ) :   1.0529
B( 12-C , 13-H ) :   0.9794 B( 12-C , 14-H ) :   0.9788 B( 12-C , 15-H ) :   0.9814
B( 16-S , 17-C ) :   1.1473 B( 16-S , 20-C ) :   1.1443 B( 17-C , 18-C ) :   1.6310
B( 17-C , 33-H ) :   0.9622 B( 18-C , 19-C ) :   1.2454 B( 18-C , 21-H ) :   0.9836
B( 19-C , 20-C ) :   1.5770 B( 19-C , 22-C ) :   1.0534 B( 22-C , 23-H ) :   0.9242
B( 22-C , 24-H ) :   0.9228 B( 22-C , 25-C ) :   1.0550 B( 25-C , 26-H ) :   0.9572
B( 25-C , 27-H ) :   0.9595 B( 25-C , 28-C ) :   1.0792 B( 28-C , 29-H ) :   0.9766
B( 28-C , 30-H ) :   0.9757 B( 28-C , 31-H ) :   0.9767

Dispersion correction           -0.013692452
FINAL SINGLE POINT ENERGY     -1339.866360991545

DIPOLE MOMENT
-------------
                                X             Y             Z
Electronic contribution:    -17.50128     -11.37369      18.88042
Nuclear contribution   :     17.70962      11.84958     -19.46840
                        -----------------------------------------
Total Dipole Moment    :      0.20834       0.47589      -0.58798
                        -----------------------------------------
Magnitude (a.u.)       :      0.78460
Magnitude (Debye)      :      1.99430

Rotational constants in cm-1:     0.017583     0.008089     0.006439
Rotational constants in MHz :   527.111866   242.488319   193.042547

                             ****ORCA TERMINATED NORMALLY****
TOTAL RUN TIME: 0 days 0 hours 0 minutes 20 seconds 14 msec
