                         Program Version 4.2.1 -  RELEASE  -
|  1> ! wB97X-D3 SP def2-SVP
|  2> %pal
|  3> nprocs 24
|  4> end
|  5>
|  6> * xyz 0 1
|  7> S 	 -126.617 	 13.2982 	 -11.3121
|  8> C 	 -124.959 	 13.2904 	 -10.6978
|  9> C 	 -124.259 	 12.143 	 -11.1146
| 10> C 	 -125.105 	 11.2886 	 -11.952
| 11> C 	 -126.4 	 11.7937 	 -12.0511
| 12> H 	 -124.778 	 10.3174 	 -12.4257
| 13> C 	 -122.856 	 11.7879 	 -10.6635
| 14> H 	 -122.353 	 11.7613 	 -11.6443
| 15> H 	 -122.851 	 10.7206 	 -10.3338
| 16> C 	 -122.143 	 12.729 	 -9.75782
| 17> H 	 -122.078 	 13.7408 	 -10.1031
| 18> H 	 -122.682 	 12.7522 	 -8.79504
| 19> C 	 -120.674 	 12.3836 	 -9.38642
| 20> H 	 -120.68 	 11.3119 	 -9.1602
| 21> H 	 -120.028 	 12.3372 	 -10.2448
| 22> H 	 -120.297 	 12.9973 	 -8.56129
| 23> S 	 -127.953 	 11.7326 	 -14.4391
| 24> C 	 -129.193 	 10.5214 	 -14.6399
| 25> C 	 -129.177 	 9.65768 	 -13.6079
| 26> C 	 -128.235 	 10.0177 	 -12.5164
| 27> C 	 -127.488 	 11.1673 	 -12.8098
| 28> H 	 -129.901 	 8.82873 	 -13.5684
| 29> C 	 -127.988 	 9.17688 	 -11.2784
| 30> H 	 -127.783 	 9.83785 	 -10.4006
| 31> H 	 -127.072 	 8.6033 	 -11.3577
| 32> C 	 -129.098 	 8.2076 	 -10.9008
| 33> H 	 -129.207 	 7.31641 	 -11.5942
| 34> H 	 -130.055 	 8.68495 	 -11.033
| 35> C 	 -128.929 	 7.53537 	 -9.55141
| 36> H 	 -127.979 	 7.07479 	 -9.53143
| 37> H 	 -129.759 	 6.78574 	 -9.48441
| 38> H 	 -129.04 	 8.2406 	 -8.75185
| 39> H 	 -124.602 	 13.9599 	 -9.87944
| 40> H 	 -129.669 	 10.4387 	 -15.6749
| 41> *
| 42>
| 43>                          ****END OF INPUT****

CARTESIAN COORDINATES (ANGSTROEM)
---------------------------------
  S    -126.617000   13.298200  -11.312100
  C    -124.959000   13.290400  -10.697800
  C    -124.259000   12.143000  -11.114600
  C    -125.105000   11.288600  -11.952000
  C    -126.400000   11.793700  -12.051100
  H    -124.778000   10.317400  -12.425700
  C    -122.856000   11.787900  -10.663500
  H    -122.353000   11.761300  -11.644300
  H    -122.851000   10.720600  -10.333800
  C    -122.143000   12.729000   -9.757820
  H    -122.078000   13.740800  -10.103100
  H    -122.682000   12.752200   -8.795040
  C    -120.674000   12.383600   -9.386420
  H    -120.680000   11.311900   -9.160200
  H    -120.028000   12.337200  -10.244800
  H    -120.297000   12.997300   -8.561290
  S    -127.953000   11.732600  -14.439100
  C    -129.193000   10.521400  -14.639900
  C    -129.177000    9.657680  -13.607900
  C    -128.235000   10.017700  -12.516400
  C    -127.488000   11.167300  -12.809800
  H    -129.901000    8.828730  -13.568400
  C    -127.988000    9.176880  -11.278400
  H    -127.783000    9.837850  -10.400600
  H    -127.072000    8.603300  -11.357700
  C    -129.098000    8.207600  -10.900800
  H    -129.207000    7.316410  -11.594200
  H    -130.055000    8.684950  -11.033000
  C    -128.929000    7.535370   -9.551410
  H    -127.979000    7.074790   -9.531430
  H    -129.759000    6.785740   -9.484410
  H    -129.040000    8.240600   -8.751850
  H    -124.602000   13.959900   -9.879440
  H    -129.669000   10.438700  -15.674900

 Total Charge           Charge          ....    0
 Multiplicity           Mult            ....    1
 Number of Electrons    NEL             ....  134
 Basis Dimension        Dim             ....  322

ORBITAL ENERGIES
----------------

  NO   OCC          E(Eh)            E(eV)
   0   2.0000     -88.967621     -2420.9320
   1   2.0000     -88.957440     -2420.6550
   2   2.0000     -10.328526      -281.0535
   3   2.0000     -10.327508      -281.0258
   4   2.0000     -10.321032      -280.8495
   5   2.0000     -10.317142      -280.7437
   6   2.0000     -10.310188      -280.5545
   7   2.0000     -10.309845      -280.5452
   8   2.0000     -10.304369      -280.3961
   9   2.0000     -10.299199      -280.2554
  10   2.0000     -10.298073      -280.2248
  11   2.0000     -10.291343      -280.0417
  12   2.0000     -10.288367      -279.9607
  13   2.0000     -10.283701      -279.8337
  14   2.0000     -10.281486      -279.7735
  15   2.0000     -10.275126      -279.6004
  16   2.0000      -8.082952      -219.9483
  17   2.0000      -8.072236      -219.6567
  18   2.0000      -6.041371      -164.3941
  19   2.0000      -6.037362      -164.2850
  20   2.0000      -6.033779      -164.1875
  21   2.0000      -6.030817      -164.1069
  22   2.0000      -6.026664      -163.9939
  23   2.0000      -6.022979      -163.8936
  24   2.0000      -1.003235       -27.2994
  25   2.0000      -0.979256       -26.6469
  26   2.0000      -0.918767       -25.0009
  27   2.0000      -0.909576       -24.7508
  28   2.0000      -0.868086       -23.6218
  29   2.0000      -0.851573       -23.1725
  30   2.0000      -0.841992       -22.9118
  31   2.0000      -0.811843       -22.0914
  32   2.0000      -0.784655       -21.3515
  33   2.0000      -0.769130       -20.9291
  34   2.0000      -0.712627       -19.3916
  35   2.0000      -0.698739       -19.0136
  36   2.0000      -0.688608       -18.7380
  37   2.0000      -0.642911       -17.4945
  38   2.0000      -0.635467       -17.2919
  39   2.0000      -0.611248       -16.6329
  40   2.0000      -0.598091       -16.2749
  41   2.0000      -0.573672       -15.6104
  42   2.0000      -0.566886       -15.4257
  43   2.0000      -0.565062       -15.3761
  44   2.0000      -0.534615       -14.5476
  45   2.0000      -0.529342       -14.4041
  46   2.0000      -0.517086       -14.0706
  47   2.0000      -0.514147       -13.9907
  48   2.0000      -0.499596       -13.5947
  49   2.0000      -0.494772       -13.4634
  50   2.0000      -0.489854       -13.3296
  51   2.0000      -0.480140       -13.0653
  52   2.0000      -0.473736       -12.8910
  53   2.0000      -0.463788       -12.6203
  54   2.0000      -0.456780       -12.4296
  55   2.0000      -0.451487       -12.2856
  56   2.0000      -0.446277       -12.1438
  57   2.0000      -0.443083       -12.0569
  58   2.0000      -0.429589       -11.6897
  59   2.0000      -0.421485       -11.4692
  60   2.0000      -0.419141       -11.4054
  61   2.0000      -0.412923       -11.2362
  62   2.0000      -0.410916       -11.1816
  63   2.0000      -0.335618        -9.1326
  64   2.0000      -0.326789        -8.8924
  65   2.0000      -0.320493        -8.7210
  66   2.0000      -0.306962        -8.3529
  67   0.0000       0.044268         1.2046
  68   0.0000       0.059009         1.6057
  69   0.0000       0.118057         3.2125
  70   0.0000       0.124097         3.3769
  71   0.0000       0.126039         3.4297

MULLIKEN ATOMIC CHARGES
-----------------------
   0 S :    0.133627
   1 C :   -0.151004
   2 C :   -0.121006
   3 C :    0.025464
   4 C :   -0.185195
   5 H :    0.039055
   6 C :    0.069949
   7 H :    0.035403
   8 H :    0.041234
   9 C :   -0.103150
  10 H :    0.034491
  11 H :    0.033797
  12 C :   -0.024810
  13 H :    0.012750
  14 H :    0.021763
  15 H :    0.050923
  16 S :    0.085579
  17 C :   -0.117484
  18 C :   -0.029548
  19 C :   -0.041422
  20 C :   -0.153975
  21 H :    0.032634
  22 C :    0.081751
  23 H :    0.037680
  24 H :    0.027779
  25 C :   -0.137576
  26 H :    0.027747
  27 H :    0.025135
  28 C :   -0.007512
  29 H :    0.024984
  30 H :    0.037045
  31 H :    0.028733
  32 H :    0.071478
  33 H :    0.093684
Sum of atomic charges:    0.0000000

LOEWDIN ATOMIC CHARGES
----------------------
   0 S :    0.433267
   1 C :   -0.216876
   2 C :   -0.055593
   3 C :   -0.066491
   4 C :   -0.216900
   5 H :    0.043004
   6 C :   -0.041107
   7 H :    0.040560
   8 H :    0.038843
   9 C :   -0.047972
  10 H :    0.023691
  11 H :    0.027003
  12 C :   -0.061977
  13 H :    0.024041
  14 H :    0.021233
  15 H :    0.032338
  16 S :    0.380778
  17 C :   -0.193197
  18 C :   -0.081779
  19 C :   -0.048586
  20 C :   -0.198091
  21 H :    0.035365
  22 C :   -0.038887
  23 H :    0.039640
  24 H :    0.031132
  25 C :   -0.052300
  26 H :    0.026099
  27 H :    0.018099
  28 C :   -0.054407
  29 H :    0.019737
  30 H :    0.034054
  31 H :    0.019790
  32 H :    0.036552
  33 H :    0.048937

  Mayer bond orders larger than 0.100000
B(  0-S ,  1-C ) :   1.1252 B(  0-S ,  4-C ) :   1.1839 B(  1-C ,  2-C ) :   1.6307
B(  1-C , 32-H ) :   0.9515 B(  2-C ,  3-C ) :   1.2351 B(  2-C ,  6-C ) :   1.0072
B(  3-C ,  4-C ) :   1.5742 B(  3-C ,  5-H ) :   0.9853 B(  4-C , 20-C ) :   1.0094
B(  6-C ,  7-H ) :   0.9251 B(  6-C ,  8-H ) :   0.9352 B(  6-C ,  9-C ) :   1.0929
B(  9-C , 10-H ) :   0.9477 B(  9-C , 11-H ) :   0.9481 B(  9-C , 12-C ) :   1.0862
B( 12-C , 13-H ) :   0.9713 B( 12-C , 14-H ) :   0.9739 B( 12-C , 15-H ) :   0.9736
B( 16-S , 17-C ) :   1.1509 B( 16-S , 20-C ) :   1.1332 B( 17-C , 18-C ) :   1.6260
B( 17-C , 33-H ) :   0.9537 B( 18-C , 19-C ) :   1.2162 B( 18-C , 21-H ) :   0.9845
B( 19-C , 20-C ) :   1.6215 B( 19-C , 22-C ) :   1.0514 B( 22-C , 23-H ) :   0.9299
B( 22-C , 24-H ) :   0.9240 B( 22-C , 25-C ) :   1.0720 B( 25-C , 26-H ) :   0.9467
B( 25-C , 27-H ) :   0.9587 B( 25-C , 28-C ) :   1.0845 B( 28-C , 29-H ) :   0.9728
B( 28-C , 30-H ) :   0.9737 B( 28-C , 31-H ) :   0.9751

Dispersion correction           -0.013406708
FINAL SINGLE POINT ENERGY     -1339.881853913496

DIPOLE MOMENT
-------------
                                X             Y             Z
Electronic contribution:    -13.50498      14.87549     -18.20058
Nuclear contribution   :     13.88784     -15.45933      18.53195
                        -----------------------------------------
Total Dipole Moment    :      0.38286      -0.58384       0.33138
                        -----------------------------------------
Magnitude (a.u.)       :      0.77283
Magnitude (Debye)      :      1.96437

Rotational constants in cm-1:     0.019387     0.007139     0.005837
Rotational constants in MHz :   581.210276   214.024937   174.992836

                             ****ORCA TERMINATED NORMALLY****
TOTAL RUN TIME: 0 days 0 hours 0 minutes 20 seconds 645 msec
