                         Program Version 4.2.1 -  RELEASE  -
|  1> ! wB97X-D3 SP def2-SVP
|  2> %pal
|  3> nprocs 24
|  4> end
|  5>
|  6> * xyz 0 1
|  7> S 	 -48.2945 	 10.9939 	 -20.9987
|  8> C 	 -47.4288 	 10.4871 	 -19.55
|  9> C 	 -48.1607 	 10.7014 	 -18.38
| 10> C 	 -49.4323 	 11.3165 	 -18.6876
| 11> C 	 -49.6581 	 11.4765 	 -20.0293
| 12> H 	 -50.2711 	 11.5258 	 -18.0737
| 13> C 	 -47.7996 	 10.1716 	 -17.0245
| 14> H 	 -47.4663 	 9.19556 	 -17.14
| 15> H 	 -48.647 	 10.1407 	 -16.2638
| 16> C 	 -46.7546 	 11.1018 	 -16.4143
| 17> H 	 -46.9985 	 12.1171 	 -16.1956
| 18> H 	 -46.3993 	 10.7305 	 -15.3839
| 19> C 	 -45.4858 	 11.11 	 -17.1137
| 20> H 	 -45.0908 	 10.1282 	 -17.2537
| 21> H 	 -45.6085 	 11.6336 	 -18.0561
| 22> H 	 -44.7957 	 11.6085 	 -16.4832
| 23> S 	 -52.4002 	 11.1356 	 -20.4331
| 24> C 	 -53.3093 	 12.4001 	 -21.2544
| 25> C 	 -52.4308 	 13.2957 	 -21.7727
| 26> C 	 -51.0981 	 13.1755 	 -21.33
| 27> C 	 -50.915 	 12.0207 	 -20.5999
| 28> H 	 -52.7815 	 14.1741 	 -22.3699
| 29> C 	 -49.9852 	 14.171 	 -21.797
| 30> H 	 -48.9854 	 13.8124 	 -21.6198
| 31> H 	 -49.9784 	 15.0684 	 -21.1215
| 32> C 	 -50.1319 	 14.6737 	 -23.2561
| 33> H 	 -51.0905 	 15.156 	 -23.3502
| 34> H 	 -50.0235 	 13.8234 	 -23.9162
| 35> C 	 -49.2291 	 15.7308 	 -23.7693
| 36> H 	 -49.3605 	 16.5231 	 -23.1361
| 37> H 	 -49.4701 	 16.0855 	 -24.7453
| 38> H 	 -48.1076 	 15.45 	 -23.6169
| 39> H 	 -46.5661 	 9.86457 	 -19.6336
| 40> H 	 -54.374 	 12.4891 	 -21.2131
| 41> *
| 42>
| 43>                          ****END OF INPUT****

CARTESIAN COORDINATES (ANGSTROEM)
---------------------------------
  S    -48.294500   10.993900  -20.998700
  C    -47.428800   10.487100  -19.550000
  C    -48.160700   10.701400  -18.380000
  C    -49.432300   11.316500  -18.687600
  C    -49.658100   11.476500  -20.029300
  H    -50.271100   11.525800  -18.073700
  C    -47.799600   10.171600  -17.024500
  H    -47.466300    9.195560  -17.140000
  H    -48.647000   10.140700  -16.263800
  C    -46.754600   11.101800  -16.414300
  H    -46.998500   12.117100  -16.195600
  H    -46.399300   10.730500  -15.383900
  C    -45.485800   11.110000  -17.113700
  H    -45.090800   10.128200  -17.253700
  H    -45.608500   11.633600  -18.056100
  H    -44.795700   11.608500  -16.483200
  S    -52.400200   11.135600  -20.433100
  C    -53.309300   12.400100  -21.254400
  C    -52.430800   13.295700  -21.772700
  C    -51.098100   13.175500  -21.330000
  C    -50.915000   12.020700  -20.599900
  H    -52.781500   14.174100  -22.369900
  C    -49.985200   14.171000  -21.797000
  H    -48.985400   13.812400  -21.619800
  H    -49.978400   15.068400  -21.121500
  C    -50.131900   14.673700  -23.256100
  H    -51.090500   15.156000  -23.350200
  H    -50.023500   13.823400  -23.916200
  C    -49.229100   15.730800  -23.769300
  H    -49.360500   16.523100  -23.136100
  H    -49.470100   16.085500  -24.745300
  H    -48.107600   15.450000  -23.616900
  H    -46.566100    9.864570  -19.633600
  H    -54.374000   12.489100  -21.213100

 Total Charge           Charge          ....    0
 Multiplicity           Mult            ....    1
 Number of Electrons    NEL             ....  134
 Basis Dimension        Dim             ....  322

ORBITAL ENERGIES
----------------

  NO   OCC          E(Eh)            E(eV)
   0   2.0000     -88.967956     -2420.9412
   1   2.0000     -88.964389     -2420.8441
   2   2.0000     -10.326197      -280.9901
   3   2.0000     -10.324966      -280.9566
   4   2.0000     -10.315551      -280.7004
   5   2.0000     -10.314763      -280.6790
   6   2.0000     -10.306870      -280.4642
   7   2.0000     -10.302036      -280.3327
   8   2.0000     -10.295799      -280.1629
   9   2.0000     -10.293233      -280.0931
  10   2.0000     -10.292255      -280.0665
  11   2.0000     -10.291519      -280.0465
  12   2.0000     -10.280197      -279.7384
  13   2.0000     -10.279621      -279.7227
  14   2.0000     -10.271571      -279.5037
  15   2.0000     -10.259623      -279.1785
  16   2.0000      -8.082340      -219.9317
  17   2.0000      -8.079282      -219.8484
  18   2.0000      -6.040837      -164.3795
  19   2.0000      -6.037799      -164.2969
  20   2.0000      -6.036890      -164.2721
  21   2.0000      -6.033752      -164.1867
  22   2.0000      -6.033152      -164.1704
  23   2.0000      -6.030036      -164.0856
  24   2.0000      -1.007514       -27.4158
  25   2.0000      -0.986330       -26.8394
  26   2.0000      -0.924735       -25.1633
  27   2.0000      -0.909295       -24.7432
  28   2.0000      -0.869342       -23.6560
  29   2.0000      -0.855280       -23.2734
  30   2.0000      -0.851025       -23.1576
  31   2.0000      -0.816373       -22.2146
  32   2.0000      -0.786416       -21.3995
  33   2.0000      -0.775636       -21.1061
  34   2.0000      -0.700768       -19.0689
  35   2.0000      -0.696077       -18.9412
  36   2.0000      -0.687834       -18.7169
  37   2.0000      -0.660221       -17.9655
  38   2.0000      -0.643318       -17.5056
  39   2.0000      -0.616344       -16.7716
  40   2.0000      -0.602807       -16.4032
  41   2.0000      -0.576862       -15.6972
  42   2.0000      -0.568780       -15.4773
  43   2.0000      -0.551652       -15.0112
  44   2.0000      -0.547703       -14.9038
  45   2.0000      -0.532869       -14.5001
  46   2.0000      -0.528535       -14.3822
  47   2.0000      -0.510498       -13.8914
  48   2.0000      -0.507185       -13.8012
  49   2.0000      -0.501982       -13.6596
  50   2.0000      -0.486904       -13.2493
  51   2.0000      -0.480543       -13.0763
  52   2.0000      -0.468161       -12.7393
  53   2.0000      -0.466948       -12.7063
  54   2.0000      -0.460460       -12.5298
  55   2.0000      -0.452850       -12.3227
  56   2.0000      -0.446418       -12.1476
  57   2.0000      -0.436338       -11.8734
  58   2.0000      -0.425256       -11.5718
  59   2.0000      -0.422978       -11.5098
  60   2.0000      -0.417802       -11.3690
  61   2.0000      -0.412823       -11.2335
  62   2.0000      -0.402461       -10.9515
  63   2.0000      -0.337690        -9.1890
  64   2.0000      -0.334753        -9.1091
  65   2.0000      -0.327116        -8.9013
  66   2.0000      -0.302385        -8.2283
  67   0.0000       0.037033         1.0077
  68   0.0000       0.064129         1.7450
  69   0.0000       0.109350         2.9756
  70   0.0000       0.120134         3.2690
  71   0.0000       0.125493         3.4148

MULLIKEN ATOMIC CHARGES
-----------------------
   0 S :    0.120421
   1 C :   -0.123936
   2 C :   -0.089920
   3 C :    0.049615
   4 C :   -0.174143
   5 H :    0.001637
   6 C :    0.114655
   7 H :    0.017538
   8 H :    0.041006
   9 C :   -0.100469
  10 H :    0.023663
  11 H :    0.018378
  12 C :   -0.019303
  13 H :    0.009760
  14 H :    0.040389
  15 H :    0.017177
  16 S :    0.107712
  17 C :   -0.096682
  18 C :   -0.041306
  19 C :   -0.008953
  20 C :   -0.180119
  21 H :    0.033110
  22 C :    0.078729
  23 H :    0.009953
  24 H :    0.027231
  25 C :   -0.092520
  26 H :    0.022130
  27 H :    0.036272
  28 C :   -0.010959
  29 H :   -0.004452
  30 H :    0.034981
  31 H :    0.034092
  32 H :    0.048354
  33 H :    0.055956
Sum of atomic charges:   -0.0000000

LOEWDIN ATOMIC CHARGES
----------------------
   0 S :    0.409609
   1 C :   -0.191690
   2 C :   -0.052952
   3 C :   -0.055010
   4 C :   -0.195346
   5 H :    0.027786
   6 C :   -0.024946
   7 H :    0.023883
   8 H :    0.042210
   9 C :   -0.044603
  10 H :    0.022494
  11 H :    0.026972
  12 C :   -0.061957
  13 H :    0.016598
  14 H :    0.022250
  15 H :    0.022774
  16 S :    0.406255
  17 C :   -0.180117
  18 C :   -0.074179
  19 C :   -0.060762
  20 C :   -0.202720
  21 H :    0.037105
  22 C :   -0.029722
  23 H :    0.018117
  24 H :    0.034859
  25 C :   -0.043031
  26 H :    0.021520
  27 H :    0.023801
  28 C :   -0.058901
  29 H :    0.009991
  30 H :    0.026587
  31 H :    0.033113
  32 H :    0.021624
  33 H :    0.028387

  Mayer bond orders larger than 0.100000
B(  0-S ,  1-C ) :   1.1394 B(  0-S ,  4-C ) :   1.1476 B(  1-C ,  2-C ) :   1.6095
B(  1-C , 32-H ) :   0.9667 B(  2-C ,  3-C ) :   1.2184 B(  2-C ,  6-C ) :   1.0124
B(  3-C ,  4-C ) :   1.6158 B(  3-C ,  5-H ) :   0.9973 B(  4-C , 20-C ) :   0.9972
B(  6-C ,  7-H ) :   0.9422 B(  6-C ,  8-H ) :   0.9465 B(  6-C ,  9-C ) :   1.0618
B(  9-C , 10-H ) :   0.9550 B(  9-C , 11-H ) :   0.9544 B(  9-C , 12-C ) :   1.1036
B( 12-C , 13-H ) :   0.9697 B( 12-C , 14-H ) :   0.9610 B( 12-C , 15-H ) :   0.9672
B( 16-S , 17-C ) :   1.1469 B( 16-S , 20-C ) :   1.1568 B( 17-C , 18-C ) :   1.6018
B( 17-C , 33-H ) :   0.9720 B( 18-C , 19-C ) :   1.2660 B( 18-C , 21-H ) :   0.9752
B( 19-C , 20-C ) :   1.5978 B( 19-C , 22-C ) :   1.0301 B( 22-C , 23-H ) :   0.9350
B( 22-C , 24-H ) :   0.9279 B( 22-C , 25-C ) :   1.0672 B( 25-C , 26-H ) :   0.9458
B( 25-C , 27-H ) :   0.9587 B( 25-C , 28-C ) :   1.0968 B( 28-C , 29-H ) :   0.9679
B( 28-C , 30-H ) :   0.9707 B( 28-C , 31-H ) :   0.9705

Dispersion correction           -0.013987072
FINAL SINGLE POINT ENERGY     -1339.859524052703

DIPOLE MOMENT
-------------
                                X             Y             Z
Electronic contribution:    -15.71332     -12.50240      -4.02828
Nuclear contribution   :     15.79101      12.76475       4.28849
                        -----------------------------------------
Total Dipole Moment    :      0.07769       0.26235       0.26021
                        -----------------------------------------
Magnitude (a.u.)       :      0.37759
Magnitude (Debye)      :      0.95976

Rotational constants in cm-1:     0.020475     0.007823     0.006303
Rotational constants in MHz :   613.812789   234.523563   188.966997

                             ****ORCA TERMINATED NORMALLY****
TOTAL RUN TIME: 0 days 0 hours 0 minutes 21 seconds 132 msec
