                         Program Version 4.2.1 -  RELEASE  -
|  1> ! wB97X-D3 SP def2-SVP
|  2> %pal
|  3> nprocs 24
|  4> end
|  5>
|  6> * xyz 0 1
|  7> S 	 -117.146 	 17.1889 	 -112.803
|  8> C 	 -118.885 	 17.3069 	 -112.712
|  9> C 	 -119.41 	 16.9074 	 -113.915
| 10> C 	 -118.425 	 16.3188 	 -114.809
| 11> C 	 -117.16 	 16.2487 	 -114.292
| 12> H 	 -118.622 	 15.8533 	 -115.794
| 13> C 	 -120.886 	 16.7903 	 -114.173
| 14> H 	 -121.284 	 16.5648 	 -113.183
| 15> H 	 -120.97 	 15.8423 	 -114.647
| 16> C 	 -121.604 	 17.9092 	 -114.846
| 17> H 	 -122.589 	 17.5468 	 -114.983
| 18> H 	 -121.621 	 18.7305 	 -114.065
| 19> C 	 -120.974 	 18.4345 	 -116.107
| 20> H 	 -119.955 	 18.8241 	 -116.002
| 21> H 	 -120.895 	 17.791 	 -117.006
| 22> H 	 -121.569 	 19.3208 	 -116.323
| 23> S 	 -114.97 	 14.6767 	 -113.856
| 24> C 	 -113.839 	 14.4077 	 -115.157
| 25> C 	 -114.139 	 15.1864 	 -116.242
| 26> C 	 -115.45 	 15.7546 	 -116.13
| 27> C 	 -115.991 	 15.6674 	 -114.886
| 28> H 	 -113.548 	 15.1687 	 -117.164
| 29> C 	 -116.091 	 16.5225 	 -117.248
| 30> H 	 -115.254 	 16.949 	 -117.81
| 31> H 	 -116.547 	 17.374 	 -116.737
| 32> C 	 -116.996 	 15.6759 	 -118.215
| 33> H 	 -117.736 	 15.1355 	 -117.585
| 34> H 	 -116.421 	 14.8758 	 -118.658
| 35> C 	 -117.637 	 16.6242 	 -119.182
| 36> H 	 -117.118 	 16.8667 	 -120.067
| 37> H 	 -118.034 	 17.4831 	 -118.61
| 38> H 	 -118.527 	 16.0587 	 -119.421
| 39> H 	 -119.492 	 17.6752 	 -111.89
| 40> H 	 -112.883 	 13.9696 	 -115.078
| 41> *
| 42>
| 43>                          ****END OF INPUT****

CARTESIAN COORDINATES (ANGSTROEM)
---------------------------------
  S    -117.146000   17.188900  -112.803000
  C    -118.885000   17.306900  -112.712000
  C    -119.410000   16.907400  -113.915000
  C    -118.425000   16.318800  -114.809000
  C    -117.160000   16.248700  -114.292000
  H    -118.622000   15.853300  -115.794000
  C    -120.886000   16.790300  -114.173000
  H    -121.284000   16.564800  -113.183000
  H    -120.970000   15.842300  -114.647000
  C    -121.604000   17.909200  -114.846000
  H    -122.589000   17.546800  -114.983000
  H    -121.621000   18.730500  -114.065000
  C    -120.974000   18.434500  -116.107000
  H    -119.955000   18.824100  -116.002000
  H    -120.895000   17.791000  -117.006000
  H    -121.569000   19.320800  -116.323000
  S    -114.970000   14.676700  -113.856000
  C    -113.839000   14.407700  -115.157000
  C    -114.139000   15.186400  -116.242000
  C    -115.450000   15.754600  -116.130000
  C    -115.991000   15.667400  -114.886000
  H    -113.548000   15.168700  -117.164000
  C    -116.091000   16.522500  -117.248000
  H    -115.254000   16.949000  -117.810000
  H    -116.547000   17.374000  -116.737000
  C    -116.996000   15.675900  -118.215000
  H    -117.736000   15.135500  -117.585000
  H    -116.421000   14.875800  -118.658000
  C    -117.637000   16.624200  -119.182000
  H    -117.118000   16.866700  -120.067000
  H    -118.034000   17.483100  -118.610000
  H    -118.527000   16.058700  -119.421000
  H    -119.492000   17.675200  -111.890000
  H    -112.883000   13.969600  -115.078000

 Total Charge           Charge          ....    0
 Multiplicity           Mult            ....    1
 Number of Electrons    NEL             ....  134
 Basis Dimension        Dim             ....  322

ORBITAL ENERGIES
----------------

  NO   OCC          E(Eh)            E(eV)
   0   2.0000     -88.962161     -2420.7835
   1   2.0000     -88.960784     -2420.7460
   2   2.0000     -10.327086      -281.0143
   3   2.0000     -10.320661      -280.8395
   4   2.0000     -10.313545      -280.6458
   5   2.0000     -10.312491      -280.6171
   6   2.0000     -10.297490      -280.2090
   7   2.0000     -10.296599      -280.1847
   8   2.0000     -10.294552      -280.1290
   9   2.0000     -10.293088      -280.0892
  10   2.0000     -10.291538      -280.0470
  11   2.0000     -10.286843      -279.9192
  12   2.0000     -10.286762      -279.9170
  13   2.0000     -10.279836      -279.7286
  14   2.0000     -10.278370      -279.6887
  15   2.0000     -10.274914      -279.5946
  16   2.0000      -8.077199      -219.7918
  17   2.0000      -8.075602      -219.7483
  18   2.0000      -6.035735      -164.2407
  19   2.0000      -6.034276      -164.2010
  20   2.0000      -6.031646      -164.1294
  21   2.0000      -6.030123      -164.0880
  22   2.0000      -6.027903      -164.0276
  23   2.0000      -6.026125      -163.9792
  24   2.0000      -1.009807       -27.4782
  25   2.0000      -0.986270       -26.8378
  26   2.0000      -0.919066       -25.0090
  27   2.0000      -0.912071       -24.8187
  28   2.0000      -0.875654       -23.8278
  29   2.0000      -0.856942       -23.3186
  30   2.0000      -0.842554       -22.9271
  31   2.0000      -0.819806       -22.3081
  32   2.0000      -0.784043       -21.3349
  33   2.0000      -0.771759       -21.0006
  34   2.0000      -0.708695       -19.2846
  35   2.0000      -0.703492       -19.1430
  36   2.0000      -0.700241       -19.0545
  37   2.0000      -0.666323       -18.1316
  38   2.0000      -0.637909       -17.3584
  39   2.0000      -0.611385       -16.6366
  40   2.0000      -0.590977       -16.0813
  41   2.0000      -0.577188       -15.7061
  42   2.0000      -0.569422       -15.4948
  43   2.0000      -0.548626       -14.9289
  44   2.0000      -0.547552       -14.8996
  45   2.0000      -0.526609       -14.3298
  46   2.0000      -0.519564       -14.1381
  47   2.0000      -0.517868       -14.0919
  48   2.0000      -0.516604       -14.0575
  49   2.0000      -0.506815       -13.7911
  50   2.0000      -0.491929       -13.3861
  51   2.0000      -0.480859       -13.0848
  52   2.0000      -0.472701       -12.8629
  53   2.0000      -0.463906       -12.6235
  54   2.0000      -0.458639       -12.4802
  55   2.0000      -0.452905       -12.3242
  56   2.0000      -0.442101       -12.0302
  57   2.0000      -0.435045       -11.8382
  58   2.0000      -0.432817       -11.7775
  59   2.0000      -0.422451       -11.4955
  60   2.0000      -0.418175       -11.3791
  61   2.0000      -0.407888       -11.0992
  62   2.0000      -0.406992       -11.0748
  63   2.0000      -0.350030        -9.5248
  64   2.0000      -0.329191        -8.9577
  65   2.0000      -0.323787        -8.8107
  66   2.0000      -0.295691        -8.0462
  67   0.0000       0.028831         0.7845
  68   0.0000       0.074111         2.0167
  69   0.0000       0.116413         3.1678
  70   0.0000       0.120990         3.2923
  71   0.0000       0.125941         3.4270

MULLIKEN ATOMIC CHARGES
-----------------------
   0 S :    0.102720
   1 C :   -0.117167
   2 C :   -0.108187
   3 C :    0.008675
   4 C :   -0.126618
   5 H :    0.005373
   6 C :    0.060049
   7 H :    0.012184
   8 H :    0.010381
   9 C :   -0.016215
  10 H :    0.025515
  11 H :    0.028804
  12 C :   -0.062450
  13 H :    0.038286
  14 H :    0.036544
  15 H :    0.032072
  16 S :    0.105551
  17 C :   -0.059373
  18 C :   -0.039911
  19 C :   -0.059995
  20 C :   -0.160233
  21 H :    0.027103
  22 C :    0.029166
  23 H :    0.014452
  24 H :    0.038275
  25 C :   -0.076362
  26 H :    0.027289
  27 H :    0.024256
  28 C :    0.011406
  29 H :    0.041333
  30 H :    0.030332
  31 H :    0.019507
  32 H :    0.052360
  33 H :    0.044877
Sum of atomic charges:    0.0000000

LOEWDIN ATOMIC CHARGES
----------------------
   0 S :    0.392671
   1 C :   -0.198189
   2 C :   -0.065023
   3 C :   -0.070380
   4 C :   -0.188913
   5 H :    0.031244
   6 C :   -0.039704
   7 H :    0.031815
   8 H :    0.024344
   9 C :   -0.037740
  10 H :    0.023490
  11 H :    0.033577
  12 C :   -0.072957
  13 H :    0.028730
  14 H :    0.026508
  15 H :    0.030693
  16 S :    0.404341
  17 C :   -0.176197
  18 C :   -0.072107
  19 C :   -0.055416
  20 C :   -0.202333
  21 H :    0.034718
  22 C :   -0.037568
  23 H :    0.028983
  24 H :    0.032020
  25 C :   -0.033385
  26 H :    0.021738
  27 H :    0.024425
  28 C :   -0.060934
  29 H :    0.022423
  30 H :    0.032183
  31 H :    0.029571
  32 H :    0.033977
  33 H :    0.023393

  Mayer bond orders larger than 0.100000
B(  0-S ,  1-C ) :   1.1211 B(  0-S ,  4-C ) :   1.1377 B(  1-C ,  2-C ) :   1.6267
B(  1-C , 32-H ) :   0.9678 B(  2-C ,  3-C ) :   1.2110 B(  2-C ,  6-C ) :   1.0057
B(  3-C ,  4-C ) :   1.5855 B(  3-C ,  5-H ) :   0.9920 B(  4-C , 20-C ) :   1.0632
B(  6-C ,  7-H ) :   0.9423 B(  6-C ,  8-H ) :   0.9390 B(  6-C ,  9-C ) :   1.0742
B(  9-C , 10-H ) :   0.9494 B(  9-C , 11-H ) :   0.9492 B(  9-C , 12-C ) :   1.0887
B( 12-C , 13-H ) :   0.9664 B( 12-C , 14-H ) :   0.9744 B( 12-C , 15-H ) :   0.9712
B( 16-S , 17-C ) :   1.1559 B( 16-S , 20-C ) :   1.1184 B( 17-C , 18-C ) :   1.6259
B( 17-C , 33-H ) :   0.9647 B( 18-C , 19-C ) :   1.2411 B( 18-C , 21-H ) :   0.9806
B( 19-C , 20-C ) :   1.6112 B( 19-C , 22-C ) :   1.0439 B( 22-C , 23-H ) :   0.9319
B( 22-C , 24-H ) :   0.9355 B( 22-C , 25-C ) :   1.0507 B( 25-C , 26-H ) :   0.9585
B( 25-C , 27-H ) :   0.9474 B( 25-C , 28-C ) :   1.0754 B( 28-C , 29-H ) :   0.9761
B( 28-C , 30-H ) :   0.9688 B( 28-C , 31-H ) :   0.9710

Dispersion correction           -0.015221509
FINAL SINGLE POINT ENERGY     -1339.872126428574

DIPOLE MOMENT
-------------
                                X             Y             Z
Electronic contribution:     19.65985      -7.80872      22.03682
Nuclear contribution   :    -20.01420       7.86056     -22.68791
                        -----------------------------------------
Total Dipole Moment    :     -0.35435       0.05184      -0.65109
                        -----------------------------------------
Magnitude (a.u.)       :      0.74308
Magnitude (Debye)      :      1.88876

Rotational constants in cm-1:     0.018359     0.010127     0.006978
Rotational constants in MHz :   550.401411   303.589247   209.208829

                             ****ORCA TERMINATED NORMALLY****
TOTAL RUN TIME: 0 days 0 hours 0 minutes 22 seconds 637 msec
