                         Program Version 4.2.1 -  RELEASE  -
|  1> ! wB97X-D3 SP def2-SVP
|  2> %pal
|  3> nprocs 24
|  4> end
|  5>
|  6> * xyz 0 1
|  7> S 	 -69.1958 	 16.9728 	 -70.5732
|  8> C 	 -69.2633 	 15.6041 	 -69.406
|  9> C 	 -68.8836 	 16.0236 	 -68.1376
| 10> C 	 -68.5433 	 17.3766 	 -68.0711
| 11> C 	 -68.4974 	 18.0246 	 -69.3161
| 12> H 	 -68.3158 	 17.9506 	 -67.1975
| 13> C 	 -69.1038 	 15.1323 	 -66.9339
| 14> H 	 -69.9177 	 14.4749 	 -67.2179
| 15> H 	 -69.502 	 15.7257 	 -66.0965
| 16> C 	 -67.8548 	 14.4057 	 -66.315
| 17> H 	 -68.261 	 13.6733 	 -65.6781
| 18> H 	 -67.2518 	 13.8965 	 -67.1059
| 19> C 	 -66.9703 	 15.487 	 -65.6605
| 20> H 	 -67.6122 	 16.0815 	 -64.9537
| 21> H 	 -66.0984 	 15.1598 	 -65.0644
| 22> H 	 -66.6129 	 16.2187 	 -66.4536
| 23> S 	 -66.4314 	 19.7695 	 -69.9426
| 24> C 	 -66.711 	 21.4986 	 -69.9697
| 25> C 	 -68.0255 	 21.7595 	 -69.6456
| 26> C 	 -68.8257 	 20.5576 	 -69.4906
| 27> C 	 -68.1135 	 19.4202 	 -69.5898
| 28> H 	 -68.3357 	 22.7793 	 -69.5539
| 29> C 	 -70.3219 	 20.6218 	 -69.1349
| 30> H 	 -70.6158 	 19.5845 	 -69.0201
| 31> H 	 -70.756 	 21.2585 	 -69.9531
| 32> C 	 -70.6157 	 21.2719 	 -67.7632
| 33> H 	 -71.6496 	 21.2347 	 -67.4462
| 34> H 	 -70.3849 	 22.2805 	 -67.6596
| 35> C 	 -69.8565 	 20.5203 	 -66.6729
| 36> H 	 -68.8455 	 20.9049 	 -66.6774
| 37> H 	 -69.7528 	 19.4829 	 -66.9002
| 38> H 	 -70.3401 	 20.4977 	 -65.7033
| 39> H 	 -69.4295 	 14.5536 	 -69.6804
| 40> H 	 -65.8366 	 22.1019 	 -69.8847
| 41> *
| 42>
| 43>                          ****END OF INPUT****

CARTESIAN COORDINATES (ANGSTROEM)
---------------------------------
  S    -69.195800   16.972800  -70.573200
  C    -69.263300   15.604100  -69.406000
  C    -68.883600   16.023600  -68.137600
  C    -68.543300   17.376600  -68.071100
  C    -68.497400   18.024600  -69.316100
  H    -68.315800   17.950600  -67.197500
  C    -69.103800   15.132300  -66.933900
  H    -69.917700   14.474900  -67.217900
  H    -69.502000   15.725700  -66.096500
  C    -67.854800   14.405700  -66.315000
  H    -68.261000   13.673300  -65.678100
  H    -67.251800   13.896500  -67.105900
  C    -66.970300   15.487000  -65.660500
  H    -67.612200   16.081500  -64.953700
  H    -66.098400   15.159800  -65.064400
  H    -66.612900   16.218700  -66.453600
  S    -66.431400   19.769500  -69.942600
  C    -66.711000   21.498600  -69.969700
  C    -68.025500   21.759500  -69.645600
  C    -68.825700   20.557600  -69.490600
  C    -68.113500   19.420200  -69.589800
  H    -68.335700   22.779300  -69.553900
  C    -70.321900   20.621800  -69.134900
  H    -70.615800   19.584500  -69.020100
  H    -70.756000   21.258500  -69.953100
  C    -70.615700   21.271900  -67.763200
  H    -71.649600   21.234700  -67.446200
  H    -70.384900   22.280500  -67.659600
  C    -69.856500   20.520300  -66.672900
  H    -68.845500   20.904900  -66.677400
  H    -69.752800   19.482900  -66.900200
  H    -70.340100   20.497700  -65.703300
  H    -69.429500   14.553600  -69.680400
  H    -65.836600   22.101900  -69.884700

 Total Charge           Charge          ....    0
 Multiplicity           Mult            ....    1
 Number of Electrons    NEL             ....  134
 Basis Dimension        Dim             ....  322

ORBITAL ENERGIES
----------------

  NO   OCC          E(Eh)            E(eV)
   0   2.0000     -88.969556     -2420.9847
   1   2.0000     -88.958909     -2420.6950
   2   2.0000     -10.335570      -281.2451
   3   2.0000     -10.323309      -280.9115
   4   2.0000     -10.321173      -280.8534
   5   2.0000     -10.318402      -280.7780
   6   2.0000     -10.302991      -280.3586
   7   2.0000     -10.300928      -280.3025
   8   2.0000     -10.297554      -280.2107
   9   2.0000     -10.296217      -280.1743
  10   2.0000     -10.296127      -280.1718
  11   2.0000     -10.293915      -280.1117
  12   2.0000     -10.290742      -280.0253
  13   2.0000     -10.287880      -279.9475
  14   2.0000     -10.278011      -279.6789
  15   2.0000     -10.266049      -279.3534
  16   2.0000      -8.082688      -219.9411
  17   2.0000      -8.074322      -219.7135
  18   2.0000      -6.041201      -164.3894
  19   2.0000      -6.037369      -164.2852
  20   2.0000      -6.033591      -164.1824
  21   2.0000      -6.032814      -164.1612
  22   2.0000      -6.028717      -164.0497
  23   2.0000      -6.025053      -163.9500
  24   2.0000      -1.004783       -27.3415
  25   2.0000      -0.982220       -26.7276
  26   2.0000      -0.910755       -24.7829
  27   2.0000      -0.908419       -24.7193
  28   2.0000      -0.867901       -23.6168
  29   2.0000      -0.845534       -23.0081
  30   2.0000      -0.844090       -22.9689
  31   2.0000      -0.816083       -22.2067
  32   2.0000      -0.778873       -21.1942
  33   2.0000      -0.768796       -20.9200
  34   2.0000      -0.708315       -19.2742
  35   2.0000      -0.702462       -19.1150
  36   2.0000      -0.699307       -19.0291
  37   2.0000      -0.663614       -18.0579
  38   2.0000      -0.641931       -17.4678
  39   2.0000      -0.615708       -16.7543
  40   2.0000      -0.597186       -16.2502
  41   2.0000      -0.575365       -15.6565
  42   2.0000      -0.557697       -15.1757
  43   2.0000      -0.551940       -15.0190
  44   2.0000      -0.548368       -14.9219
  45   2.0000      -0.535466       -14.5708
  46   2.0000      -0.522354       -14.2140
  47   2.0000      -0.507431       -13.8079
  48   2.0000      -0.500296       -13.6137
  49   2.0000      -0.494062       -13.4441
  50   2.0000      -0.488014       -13.2795
  51   2.0000      -0.474680       -12.9167
  52   2.0000      -0.466905       -12.7051
  53   2.0000      -0.460598       -12.5335
  54   2.0000      -0.457579       -12.4514
  55   2.0000      -0.443419       -12.0660
  56   2.0000      -0.440435       -11.9848
  57   2.0000      -0.436538       -11.8788
  58   2.0000      -0.434240       -11.8163
  59   2.0000      -0.428288       -11.6543
  60   2.0000      -0.425837       -11.5876
  61   2.0000      -0.420669       -11.4470
  62   2.0000      -0.405780       -11.0418
  63   2.0000      -0.337224        -9.1763
  64   2.0000      -0.328175        -8.9301
  65   2.0000      -0.324253        -8.8234
  66   2.0000      -0.312604        -8.5064
  67   0.0000       0.036748         1.0000
  68   0.0000       0.051297         1.3959
  69   0.0000       0.102087         2.7779
  70   0.0000       0.123615         3.3637
  71   0.0000       0.126822         3.4510

MULLIKEN ATOMIC CHARGES
-----------------------
   0 S :    0.112166
   1 C :   -0.135433
   2 C :   -0.062967
   3 C :    0.070226
   4 C :   -0.211446
   5 H :    0.019029
   6 C :    0.013461
   7 H :    0.024210
   8 H :    0.026940
   9 C :   -0.020792
  10 H :    0.027874
  11 H :    0.036813
  12 C :   -0.104696
  13 H :    0.024520
  14 H :    0.047099
  15 H :    0.056998
  16 S :    0.089172
  17 C :   -0.089630
  18 C :   -0.029042
  19 C :   -0.041965
  20 C :   -0.180580
  21 H :    0.018636
  22 C :    0.095468
  23 H :    0.037645
  24 H :    0.048644
  25 C :   -0.049878
  26 H :    0.025740
  27 H :    0.011582
  28 C :   -0.046232
  29 H :    0.036551
  30 H :   -0.007576
  31 H :    0.030379
  32 H :    0.062300
  33 H :    0.064784
Sum of atomic charges:    0.0000000

LOEWDIN ATOMIC CHARGES
----------------------
   0 S :    0.383229
   1 C :   -0.182246
   2 C :   -0.069115
   3 C :   -0.056751
   4 C :   -0.185209
   5 H :    0.029049
   6 C :   -0.030066
   7 H :    0.028458
   8 H :    0.031701
   9 C :   -0.034349
  10 H :    0.017533
  11 H :    0.028249
  12 C :   -0.077687
  13 H :    0.023228
  14 H :    0.027131
  15 H :    0.036614
  16 S :    0.396498
  17 C :   -0.172886
  18 C :   -0.069027
  19 C :   -0.056046
  20 C :   -0.209406
  21 H :    0.028919
  22 C :   -0.021287
  23 H :    0.031815
  24 H :    0.040814
  25 C :   -0.038361
  26 H :    0.025249
  27 H :    0.011977
  28 C :   -0.065261
  29 H :    0.026577
  30 H :    0.015865
  31 H :    0.025328
  32 H :    0.034209
  33 H :    0.025255

  Mayer bond orders larger than 0.100000
B(  0-S ,  1-C ) :   1.1409 B(  0-S ,  4-C ) :   1.1531 B(  1-C ,  2-C ) :   1.5998
B(  1-C ,  4-C ) :   0.1140 B(  1-C , 32-H ) :   0.9634 B(  2-C ,  3-C ) :   1.2557
B(  2-C ,  6-C ) :   1.0113 B(  3-C ,  4-C ) :   1.5710 B(  3-C ,  5-H ) :   0.9811
B(  4-C , 20-C ) :   0.9982 B(  6-C ,  7-H ) :   0.9474 B(  6-C ,  8-H ) :   0.9488
B(  6-C ,  9-C ) :   1.0537 B(  9-C , 10-H ) :   0.9585 B(  9-C , 11-H ) :   0.9579
B(  9-C , 12-C ) :   1.0624 B( 12-C , 13-H ) :   0.9755 B( 12-C , 14-H ) :   0.9745
B( 12-C , 15-H ) :   0.9711 B( 16-S , 17-C ) :   1.1611 B( 16-S , 20-C ) :   1.1364
B( 17-C , 18-C ) :   1.6139 B( 17-C , 33-H ) :   0.9696 B( 18-C , 19-C ) :   1.2035
B( 18-C , 21-H ) :   0.9977 B( 19-C , 20-C ) :   1.6480 B( 19-C , 22-C ) :   1.0309
B( 22-C , 23-H ) :   0.9316 B( 22-C , 24-H ) :   0.9348 B( 22-C , 25-C ) :   1.0771
B( 25-C , 26-H ) :   0.9603 B( 25-C , 27-H ) :   0.9583 B( 25-C , 28-C ) :   1.0685
B( 28-C , 29-H ) :   0.9719 B( 28-C , 30-H ) :   0.9713 B( 28-C , 31-H ) :   0.9697

Dispersion correction           -0.016042652
FINAL SINGLE POINT ENERGY     -1339.873774967989

DIPOLE MOMENT
-------------
                                X             Y             Z
Electronic contribution:      6.35437       2.92330     -22.77068
Nuclear contribution   :     -6.58365      -2.86548      23.40612
                        -----------------------------------------
Total Dipole Moment    :     -0.22928       0.05782       0.63544
                        -----------------------------------------
Magnitude (a.u.)       :      0.67801
Magnitude (Debye)      :      1.72337

Rotational constants in cm-1:     0.019348     0.008708     0.008204
Rotational constants in MHz :   580.039571   261.048234   245.956220

                             ****ORCA TERMINATED NORMALLY****
TOTAL RUN TIME: 0 days 0 hours 0 minutes 22 seconds 962 msec
