                         Program Version 4.2.1 -  RELEASE  -
|  1> ! wB97X-D3 SP def2-SVP
|  2> %pal
|  3> nprocs 24
|  4> end
|  5>
|  6> * xyz 0 1
|  7> S 	 -104.98 	 63.9819 	 -96.976
|  8> C 	 -106.514 	 63.8373 	 -97.6838
|  9> C 	 -107.157 	 62.7283 	 -97.1812
| 10> C 	 -106.283 	 62.0176 	 -96.3496
| 11> C 	 -105.085 	 62.5737 	 -95.9992
| 12> H 	 -106.579 	 61.0707 	 -95.8814
| 13> C 	 -108.686 	 62.4172 	 -97.3842
| 14> H 	 -109.164 	 63.3801 	 -97.456
| 15> H 	 -108.969 	 61.9078 	 -96.429
| 16> C 	 -109.012 	 61.5519 	 -98.5911
| 17> H 	 -110.104 	 61.537 	 -98.7021
| 18> H 	 -108.698 	 62.2218 	 -99.4145
| 19> C 	 -108.473 	 60.16 	 -98.5471
| 20> H 	 -107.425 	 60.0687 	 -98.6756
| 21> H 	 -108.871 	 59.772 	 -97.5295
| 22> H 	 -108.935 	 59.5243 	 -99.2489
| 23> S 	 -102.66 	 61.2838 	 -96.056
| 24> C 	 -101.88 	 60.9487 	 -94.4964
| 25> C 	 -102.742 	 61.2587 	 -93.4219
| 26> C 	 -104.009 	 61.8202 	 -93.8315
| 27> C 	 -104.034 	 62.0782 	 -95.1895
| 28> H 	 -102.446 	 60.9589 	 -92.3941
| 29> C 	 -105.102 	 62.314 	 -92.8986
| 30> H 	 -105.709 	 63.1438 	 -93.2319
| 31> H 	 -104.566 	 62.861 	 -92.0647
| 32> C 	 -105.968 	 61.1814 	 -92.4216
| 33> H 	 -105.327 	 60.4368 	 -92.0268
| 34> H 	 -106.49 	 60.7403 	 -93.1848
| 35> C 	 -106.97 	 61.6874 	 -91.4482
| 36> H 	 -107.649 	 60.9382 	 -91.101
| 37> H 	 -107.579 	 62.3783 	 -91.9387
| 38> H 	 -106.485 	 62.2719 	 -90.659
| 39> H 	 -107.04 	 64.6754 	 -98.1759
| 40> H 	 -100.977 	 60.4187 	 -94.3422
| 41> *
| 42>
| 43>                          ****END OF INPUT****

CARTESIAN COORDINATES (ANGSTROEM)
---------------------------------
  S    -104.980000   63.981900  -96.976000
  C    -106.514000   63.837300  -97.683800
  C    -107.157000   62.728300  -97.181200
  C    -106.283000   62.017600  -96.349600
  C    -105.085000   62.573700  -95.999200
  H    -106.579000   61.070700  -95.881400
  C    -108.686000   62.417200  -97.384200
  H    -109.164000   63.380100  -97.456000
  H    -108.969000   61.907800  -96.429000
  C    -109.012000   61.551900  -98.591100
  H    -110.104000   61.537000  -98.702100
  H    -108.698000   62.221800  -99.414500
  C    -108.473000   60.160000  -98.547100
  H    -107.425000   60.068700  -98.675600
  H    -108.871000   59.772000  -97.529500
  H    -108.935000   59.524300  -99.248900
  S    -102.660000   61.283800  -96.056000
  C    -101.880000   60.948700  -94.496400
  C    -102.742000   61.258700  -93.421900
  C    -104.009000   61.820200  -93.831500
  C    -104.034000   62.078200  -95.189500
  H    -102.446000   60.958900  -92.394100
  C    -105.102000   62.314000  -92.898600
  H    -105.709000   63.143800  -93.231900
  H    -104.566000   62.861000  -92.064700
  C    -105.968000   61.181400  -92.421600
  H    -105.327000   60.436800  -92.026800
  H    -106.490000   60.740300  -93.184800
  C    -106.970000   61.687400  -91.448200
  H    -107.649000   60.938200  -91.101000
  H    -107.579000   62.378300  -91.938700
  H    -106.485000   62.271900  -90.659000
  H    -107.040000   64.675400  -98.175900
  H    -100.977000   60.418700  -94.342200

 Total Charge           Charge          ....    0
 Multiplicity           Mult            ....    1
 Number of Electrons    NEL             ....  134
 Basis Dimension        Dim             ....  322

ORBITAL ENERGIES
----------------

  NO   OCC          E(Eh)            E(eV)
   0   2.0000     -88.965938     -2420.8863
   1   2.0000     -88.960201     -2420.7301
   2   2.0000     -10.326308      -280.9931
   3   2.0000     -10.321871      -280.8724
   4   2.0000     -10.319835      -280.8170
   5   2.0000     -10.310227      -280.5555
   6   2.0000     -10.308583      -280.5108
   7   2.0000     -10.303357      -280.3686
   8   2.0000     -10.297014      -280.1960
   9   2.0000     -10.296809      -280.1904
  10   2.0000     -10.291538      -280.0470
  11   2.0000     -10.288131      -279.9543
  12   2.0000     -10.285787      -279.8905
  13   2.0000     -10.277472      -279.6642
  14   2.0000     -10.270095      -279.4635
  15   2.0000     -10.266596      -279.3683
  16   2.0000      -8.079381      -219.8511
  17   2.0000      -8.076663      -219.7772
  18   2.0000      -6.037962      -164.3013
  19   2.0000      -6.034894      -164.2178
  20   2.0000      -6.034213      -164.1993
  21   2.0000      -6.030707      -164.1039
  22   2.0000      -6.029986      -164.0843
  23   2.0000      -6.027786      -164.0244
  24   2.0000      -1.014996       -27.6194
  25   2.0000      -0.981539       -26.7090
  26   2.0000      -0.920655       -25.0523
  27   2.0000      -0.914086       -24.8736
  28   2.0000      -0.874699       -23.8018
  29   2.0000      -0.853023       -23.2119
  30   2.0000      -0.845049       -22.9950
  31   2.0000      -0.813008       -22.1231
  32   2.0000      -0.786603       -21.4046
  33   2.0000      -0.773900       -21.0589
  34   2.0000      -0.710075       -19.3221
  35   2.0000      -0.702646       -19.1200
  36   2.0000      -0.696550       -18.9541
  37   2.0000      -0.659673       -17.9506
  38   2.0000      -0.641929       -17.4678
  39   2.0000      -0.617291       -16.7973
  40   2.0000      -0.599182       -16.3046
  41   2.0000      -0.573752       -15.6126
  42   2.0000      -0.572102       -15.5677
  43   2.0000      -0.553400       -15.0588
  44   2.0000      -0.550799       -14.9880
  45   2.0000      -0.531986       -14.4761
  46   2.0000      -0.520298       -14.1580
  47   2.0000      -0.513908       -13.9841
  48   2.0000      -0.501259       -13.6400
  49   2.0000      -0.500084       -13.6080
  50   2.0000      -0.493523       -13.4294
  51   2.0000      -0.474666       -12.9163
  52   2.0000      -0.468093       -12.7375
  53   2.0000      -0.466136       -12.6842
  54   2.0000      -0.454233       -12.3603
  55   2.0000      -0.451900       -12.2968
  56   2.0000      -0.446440       -12.1482
  57   2.0000      -0.444550       -12.0968
  58   2.0000      -0.430702       -11.7200
  59   2.0000      -0.429606       -11.6902
  60   2.0000      -0.420891       -11.4530
  61   2.0000      -0.408671       -11.1205
  62   2.0000      -0.405273       -11.0280
  63   2.0000      -0.337573        -9.1858
  64   2.0000      -0.331469        -9.0197
  65   2.0000      -0.325008        -8.8439
  66   2.0000      -0.304271        -8.2796
  67   0.0000       0.036585         0.9955
  68   0.0000       0.055054         1.4981
  69   0.0000       0.109059         2.9677
  70   0.0000       0.118815         3.2331
  71   0.0000       0.127327         3.4647

MULLIKEN ATOMIC CHARGES
-----------------------
   0 S :    0.115187
   1 C :   -0.128101
   2 C :   -0.117709
   3 C :    0.030701
   4 C :   -0.181355
   5 H :    0.004807
   6 C :    0.056573
   7 H :    0.023190
   8 H :    0.026276
   9 C :   -0.060586
  10 H :    0.028235
  11 H :    0.020587
  12 C :   -0.019983
  13 H :    0.046858
  14 H :    0.026738
  15 H :    0.024077
  16 S :    0.103994
  17 C :   -0.076650
  18 C :   -0.049489
  19 C :    0.011633
  20 C :   -0.157849
  21 H :    0.033060
  22 C :    0.006297
  23 H :    0.024388
  24 H :    0.030465
  25 C :   -0.012962
  26 H :    0.013391
  27 H :    0.000704
  28 C :    0.015710
  29 H :    0.027621
  30 H :    0.001231
  31 H :    0.020553
  32 H :    0.064090
  33 H :    0.048319
Sum of atomic charges:   -0.0000000

LOEWDIN ATOMIC CHARGES
----------------------
   0 S :    0.446041
   1 C :   -0.219650
   2 C :   -0.075018
   3 C :   -0.067064
   4 C :   -0.222359
   5 H :    0.026856
   6 C :   -0.023180
   7 H :    0.028769
   8 H :    0.028087
   9 C :   -0.049064
  10 H :    0.025589
  11 H :    0.024387
  12 C :   -0.059940
  13 H :    0.025026
  14 H :    0.036777
  15 H :    0.021963
  16 S :    0.375986
  17 C :   -0.170770
  18 C :   -0.072817
  19 C :   -0.043039
  20 C :   -0.184358
  21 H :    0.036273
  22 C :   -0.030855
  23 H :    0.029095
  24 H :    0.037176
  25 C :   -0.030568
  26 H :    0.019196
  27 H :    0.014326
  28 C :   -0.054160
  29 H :    0.024037
  30 H :    0.017583
  31 H :    0.026007
  32 H :    0.036223
  33 H :    0.023448

  Mayer bond orders larger than 0.100000
B(  0-S ,  1-C ) :   1.1864 B(  0-S ,  4-C ) :   1.1631 B(  1-C ,  2-C ) :   1.5662
B(  1-C ,  4-C ) :   0.1069 B(  1-C , 32-H ) :   0.9595 B(  2-C ,  3-C ) :   1.3013
B(  2-C ,  6-C ) :   0.9903 B(  3-C ,  4-C ) :   1.5480 B(  3-C ,  5-H ) :   0.9926
B(  4-C , 20-C ) :   1.0427 B(  6-C ,  7-H ) :   0.9421 B(  6-C ,  8-H ) :   0.9455
B(  6-C ,  9-C ) :   1.0831 B(  9-C , 10-H ) :   0.9531 B(  9-C , 11-H ) :   0.9480
B(  9-C , 12-C ) :   1.0769 B( 12-C , 13-H ) :   0.9741 B( 12-C , 14-H ) :   0.9694
B( 12-C , 15-H ) :   0.9709 B( 16-S , 17-C ) :   1.1450 B( 16-S , 20-C ) :   1.1227
B( 17-C , 18-C ) :   1.6280 B( 17-C , 20-C ) :   0.1043 B( 17-C , 33-H ) :   0.9707
B( 18-C , 19-C ) :   1.2175 B( 18-C , 21-H ) :   0.9802 B( 19-C , 20-C ) :   1.6209
B( 19-C , 22-C ) :   1.0314 B( 22-C , 23-H ) :   0.9422 B( 22-C , 24-H ) :   0.9422
B( 22-C , 25-C ) :   1.0569 B( 25-C , 26-H ) :   0.9539 B( 25-C , 27-H ) :   0.9446
B( 25-C , 28-C ) :   1.0972 B( 28-C , 29-H ) :   0.9694 B( 28-C , 30-H ) :   0.9652
B( 28-C , 31-H ) :   0.9701

Dispersion correction           -0.014433212
FINAL SINGLE POINT ENERGY     -1339.863636302372

DIPOLE MOMENT
-------------
                                X             Y             Z
Electronic contribution:     23.64182       8.07312      -8.52625
Nuclear contribution   :    -24.27104      -8.31050       8.87689
                        -----------------------------------------
Total Dipole Moment    :     -0.62921      -0.23738       0.35065
                        -----------------------------------------
Magnitude (a.u.)       :      0.75843
Magnitude (Debye)      :      1.92777

Rotational constants in cm-1:     0.017190     0.009036     0.007375
Rotational constants in MHz :   515.348979   270.877495   221.090729

                             ****ORCA TERMINATED NORMALLY****
TOTAL RUN TIME: 0 days 0 hours 0 minutes 20 seconds 760 msec
