                         Program Version 4.2.1 -  RELEASE  -
|  1> ! wB97X-D3 SP def2-SVP
|  2> %pal
|  3> nprocs 24
|  4> end
|  5>
|  6> * xyz 0 1
|  7> S 	 -100.355 	 3.21449 	 -106.924
|  8> C 	 -100.949 	 4.12757 	 -105.551
|  9> C 	 -99.9438 	 4.70087 	 -104.767
| 10> C 	 -98.7064 	 4.49713 	 -105.383
| 11> C 	 -98.696 	 3.60982 	 -106.445
| 12> H 	 -97.8045 	 4.97058 	 -104.992
| 13> C 	 -100.142 	 5.49439 	 -103.41
| 14> H 	 -100.579 	 4.77575 	 -102.745
| 15> H 	 -100.824 	 6.32388 	 -103.521
| 16> C 	 -98.9576 	 6.01751 	 -102.624
| 17> H 	 -98.4673 	 5.12593 	 -102.373
| 18> H 	 -98.4027 	 6.69918 	 -103.192
| 19> C 	 -99.363 	 6.72925 	 -101.273
| 20> H 	 -99.9167 	 5.98791 	 -100.71
| 21> H 	 -98.4451 	 7.23243 	 -100.766
| 22> H 	 -99.9766 	 7.58251 	 -101.542
| 23> S 	 -97.6503 	 2.8859 	 -108.943
| 24> C 	 -95.9628 	 2.41713 	 -108.973
| 25> C 	 -95.3527 	 2.43423 	 -107.76
| 26> C 	 -96.2859 	 2.75242 	 -106.693
| 27> C 	 -97.5343 	 3.12497 	 -107.163
| 28> H 	 -94.343 	 2.09517 	 -107.707
| 29> C 	 -95.8423 	 2.56937 	 -105.282
| 30> H 	 -95.6427 	 1.51659 	 -105.056
| 31> H 	 -96.638 	 2.93086 	 -104.581
| 32> C 	 -94.6406 	 3.34782 	 -104.883
| 33> H 	 -94.7735 	 4.39634 	 -104.874
| 34> H 	 -93.8267 	 3.0871 	 -105.633
| 35> C 	 -94.1454 	 2.93692 	 -103.462
| 36> H 	 -93.9433 	 1.836 	 -103.45
| 37> H 	 -94.9185 	 3.02482 	 -102.699
| 38> H 	 -93.2997 	 3.38058 	 -103.026
| 39> H 	 -101.945 	 4.03971 	 -105.129
| 40> H 	 -95.4549 	 2.01789 	 -109.854
| 41> *
| 42>
| 43>                          ****END OF INPUT****

CARTESIAN COORDINATES (ANGSTROEM)
---------------------------------
  S    -100.355000    3.214490  -106.924000
  C    -100.949000    4.127570  -105.551000
  C    -99.943800    4.700870  -104.767000
  C    -98.706400    4.497130  -105.383000
  C    -98.696000    3.609820  -106.445000
  H    -97.804500    4.970580  -104.992000
  C    -100.142000    5.494390  -103.410000
  H    -100.579000    4.775750  -102.745000
  H    -100.824000    6.323880  -103.521000
  C    -98.957600    6.017510  -102.624000
  H    -98.467300    5.125930  -102.373000
  H    -98.402700    6.699180  -103.192000
  C    -99.363000    6.729250  -101.273000
  H    -99.916700    5.987910  -100.710000
  H    -98.445100    7.232430  -100.766000
  H    -99.976600    7.582510  -101.542000
  S    -97.650300    2.885900  -108.943000
  C    -95.962800    2.417130  -108.973000
  C    -95.352700    2.434230  -107.760000
  C    -96.285900    2.752420  -106.693000
  C    -97.534300    3.124970  -107.163000
  H    -94.343000    2.095170  -107.707000
  C    -95.842300    2.569370  -105.282000
  H    -95.642700    1.516590  -105.056000
  H    -96.638000    2.930860  -104.581000
  C    -94.640600    3.347820  -104.883000
  H    -94.773500    4.396340  -104.874000
  H    -93.826700    3.087100  -105.633000
  C    -94.145400    2.936920  -103.462000
  H    -93.943300    1.836000  -103.450000
  H    -94.918500    3.024820  -102.699000
  H    -93.299700    3.380580  -103.026000
  H    -101.945000    4.039710  -105.129000
  H    -95.454900    2.017890  -109.854000

 Total Charge           Charge          ....    0
 Multiplicity           Mult            ....    1
 Number of Electrons    NEL             ....  134
 Basis Dimension        Dim             ....  322

ORBITAL ENERGIES
----------------

  NO   OCC          E(Eh)            E(eV)
   0   2.0000     -88.971884     -2421.0480
   1   2.0000     -88.964722     -2420.8532
   2   2.0000     -10.331111      -281.1238
   3   2.0000     -10.330479      -281.1066
   4   2.0000     -10.316827      -280.7351
   5   2.0000     -10.314426      -280.6698
   6   2.0000     -10.305250      -280.4201
   7   2.0000     -10.305218      -280.4192
   8   2.0000     -10.295447      -280.1534
   9   2.0000     -10.292715      -280.0790
  10   2.0000     -10.292237      -280.0660
  11   2.0000     -10.291743      -280.0526
  12   2.0000     -10.289453      -279.9902
  13   2.0000     -10.288262      -279.9578
  14   2.0000     -10.282721      -279.8071
  15   2.0000     -10.277909      -279.6761
  16   2.0000      -8.085884      -220.0281
  17   2.0000      -8.079015      -219.8412
  18   2.0000      -6.044402      -164.4765
  19   2.0000      -6.040580      -164.3725
  20   2.0000      -6.037670      -164.2934
  21   2.0000      -6.036612      -164.2646
  22   2.0000      -6.033800      -164.1880
  23   2.0000      -6.029446      -164.0696
  24   2.0000      -1.004298       -27.3283
  25   2.0000      -0.982141       -26.7254
  26   2.0000      -0.916562       -24.9409
  27   2.0000      -0.913955       -24.8700
  28   2.0000      -0.870860       -23.6973
  29   2.0000      -0.852799       -23.2058
  30   2.0000      -0.844215       -22.9723
  31   2.0000      -0.812869       -22.1193
  32   2.0000      -0.784351       -21.3433
  33   2.0000      -0.773325       -21.0432
  34   2.0000      -0.713047       -19.4030
  35   2.0000      -0.698966       -19.0198
  36   2.0000      -0.691420       -18.8145
  37   2.0000      -0.659120       -17.9356
  38   2.0000      -0.636946       -17.3322
  39   2.0000      -0.624042       -16.9811
  40   2.0000      -0.601309       -16.3624
  41   2.0000      -0.592002       -16.1092
  42   2.0000      -0.571701       -15.5568
  43   2.0000      -0.563549       -15.3349
  44   2.0000      -0.527607       -14.3569
  45   2.0000      -0.521375       -14.1873
  46   2.0000      -0.512449       -13.9445
  47   2.0000      -0.507290       -13.8041
  48   2.0000      -0.500400       -13.6166
  49   2.0000      -0.493957       -13.4413
  50   2.0000      -0.488831       -13.3018
  51   2.0000      -0.480822       -13.0838
  52   2.0000      -0.468066       -12.7367
  53   2.0000      -0.464421       -12.6375
  54   2.0000      -0.461292       -12.5524
  55   2.0000      -0.458473       -12.4757
  56   2.0000      -0.448542       -12.2055
  57   2.0000      -0.445594       -12.1252
  58   2.0000      -0.436403       -11.8751
  59   2.0000      -0.428423       -11.6580
  60   2.0000      -0.422801       -11.5050
  61   2.0000      -0.414211       -11.2712
  62   2.0000      -0.412072       -11.2130
  63   2.0000      -0.353963        -9.6318
  64   2.0000      -0.338008        -9.1977
  65   2.0000      -0.330651        -8.9975
  66   2.0000      -0.283427        -7.7124
  67   0.0000       0.021248         0.5782
  68   0.0000       0.075060         2.0425
  69   0.0000       0.096955         2.6383
  70   0.0000       0.120332         3.2744
  71   0.0000       0.128100         3.4858

MULLIKEN ATOMIC CHARGES
-----------------------
   0 S :    0.118538
   1 C :   -0.119819
   2 C :   -0.090965
   3 C :    0.004566
   4 C :   -0.140146
   5 H :    0.017009
   6 C :    0.051730
   7 H :    0.023804
   8 H :    0.031844
   9 C :   -0.072026
  10 H :    0.022936
  11 H :    0.030325
  12 C :   -0.069151
  13 H :    0.039788
  14 H :    0.057126
  15 H :    0.031042
  16 S :    0.090060
  17 C :   -0.088687
  18 C :   -0.026809
  19 C :   -0.021462
  20 C :   -0.127514
  21 H :    0.017431
  22 C :    0.051273
  23 H :    0.037087
  24 H :    0.022811
  25 C :   -0.089665
  26 H :    0.028145
  27 H :    0.034477
  28 C :   -0.035364
  29 H :    0.019674
  30 H :    0.017793
  31 H :    0.026652
  32 H :    0.047965
  33 H :    0.059532
Sum of atomic charges:    0.0000000

LOEWDIN ATOMIC CHARGES
----------------------
   0 S :    0.402858
   1 C :   -0.200431
   2 C :   -0.059248
   3 C :   -0.066373
   4 C :   -0.184838
   5 H :    0.031549
   6 C :   -0.027005
   7 H :    0.029993
   8 H :    0.026925
   9 C :   -0.036439
  10 H :    0.017509
  11 H :    0.014265
  12 C :   -0.062545
  13 H :    0.024347
  14 H :    0.042489
  15 H :    0.022095
  16 S :    0.370536
  17 C :   -0.174904
  18 C :   -0.070242
  19 C :   -0.050488
  20 C :   -0.179555
  21 H :    0.030177
  22 C :   -0.037610
  23 H :    0.035479
  24 H :    0.032904
  25 C :   -0.036728
  26 H :    0.017954
  27 H :    0.026843
  28 C :   -0.068070
  29 H :    0.027656
  30 H :    0.022700
  31 H :    0.018166
  32 H :    0.027610
  33 H :    0.032421

  Mayer bond orders larger than 0.100000
B(  0-S ,  1-C ) :   1.1455 B(  0-S ,  4-C ) :   1.1433 B(  1-C ,  2-C ) :   1.6172
B(  1-C ,  4-C ) :   0.1078 B(  1-C , 32-H ) :   0.9629 B(  2-C ,  3-C ) :   1.2943
B(  2-C ,  6-C ) :   0.9815 B(  3-C ,  4-C ) :   1.5408 B(  3-C ,  5-H ) :   0.9795
B(  4-C , 20-C ) :   1.0801 B(  6-C ,  7-H ) :   0.9413 B(  6-C ,  8-H ) :   0.9473
B(  6-C ,  9-C ) :   1.0824 B(  9-C , 10-H ) :   0.9562 B(  9-C , 11-H ) :   0.9513
B(  9-C , 12-C ) :   1.0802 B( 12-C , 13-H ) :   0.9766 B( 12-C , 14-H ) :   0.9729
B( 12-C , 15-H ) :   0.9764 B( 16-S , 17-C ) :   1.1360 B( 16-S , 20-C ) :   1.1007
B( 17-C , 18-C ) :   1.6717 B( 17-C , 33-H ) :   0.9593 B( 18-C , 19-C ) :   1.1799
B( 18-C , 21-H ) :   0.9886 B( 19-C , 20-C ) :   1.6323 B( 19-C , 22-C ) :   1.0501
B( 22-C , 23-H ) :   0.9352 B( 22-C , 24-H ) :   0.9270 B( 22-C , 25-C ) :   1.0593
B( 25-C , 26-H ) :   0.9559 B( 25-C , 27-H ) :   0.9537 B( 25-C , 28-C ) :   1.0761
B( 28-C , 29-H ) :   0.9722 B( 28-C , 30-H ) :   0.9728 B( 28-C , 31-H ) :   0.9770

Dispersion correction           -0.013547353
FINAL SINGLE POINT ENERGY     -1339.867454224360

DIPOLE MOMENT
-------------
                                X             Y             Z
Electronic contribution:    -12.47389      -9.45728     -30.85103
Nuclear contribution   :     12.83804       9.52166      31.57077
                        -----------------------------------------
Total Dipole Moment    :      0.36414       0.06438       0.71974
                        -----------------------------------------
Magnitude (a.u.)       :      0.80918
Magnitude (Debye)      :      2.05676

Rotational constants in cm-1:     0.015953     0.009478     0.006241
Rotational constants in MHz :   478.261729   284.151858   187.087735

                             ****ORCA TERMINATED NORMALLY****
TOTAL RUN TIME: 0 days 0 hours 0 minutes 21 seconds 439 msec
