                         Program Version 4.2.1 -  RELEASE  -
|  1> ! wB97X-D3 SP def2-SVP
|  2> %pal
|  3> nprocs 24
|  4> end
|  5>
|  6> * xyz 0 1
|  7> S 	 -58.425 	 6.94684 	 -15.1311
|  8> C 	 -57.5711 	 5.63311 	 -15.8343
|  9> C 	 -58.3573 	 4.89963 	 -16.716
| 10> C 	 -59.6543 	 5.48157 	 -16.9406
| 11> C 	 -59.8748 	 6.57764 	 -16.1381
| 12> H 	 -60.3908 	 5.14816 	 -17.7179
| 13> C 	 -57.9582 	 3.5959 	 -17.3373
| 14> H 	 -56.9807 	 3.73446 	 -17.8562
| 15> H 	 -58.6606 	 3.48485 	 -18.1486
| 16> C 	 -57.8859 	 2.35335 	 -16.4674
| 17> H 	 -56.9702 	 2.3057 	 -15.9641
| 18> H 	 -58.7047 	 2.43339 	 -15.7908
| 19> C 	 -58.1013 	 1.07385 	 -17.232
| 20> H 	 -59.0329 	 1.05425 	 -17.6549
| 21> H 	 -57.4576 	 1.0648 	 -18.0502
| 22> H 	 -57.9216 	 0.201411 	 -16.4763
| 23> S 	 -61.8517 	 7.14105 	 -14.2665
| 24> C 	 -63.3009 	 7.88757 	 -14.741
| 25> C 	 -63.2855 	 8.27166 	 -16.1166
| 26> C 	 -62.0754 	 7.81778 	 -16.8222
| 27> C 	 -61.1648 	 7.2555 	 -15.9321
| 28> H 	 -64.1833 	 8.64056 	 -16.5974
| 29> C 	 -61.9349 	 8.14465 	 -18.2822
| 30> H 	 -60.8858 	 8.04043 	 -18.5615
| 31> H 	 -62.1584 	 9.14271 	 -18.3873
| 32> C 	 -62.8617 	 7.41515 	 -19.2244
| 33> H 	 -63.0099 	 7.83938 	 -20.2627
| 34> H 	 -63.8793 	 7.4794 	 -18.7759
| 35> C 	 -62.5359 	 5.90943 	 -19.402
| 36> H 	 -61.5918 	 5.70787 	 -19.9188
| 37> H 	 -63.3479 	 5.62273 	 -20.0768
| 38> H 	 -62.5209 	 5.47934 	 -18.4181
| 39> H 	 -56.6 	 5.34203 	 -15.554
| 40> H 	 -64.0878 	 8.05542 	 -14.0892
| 41> *
| 42>
| 43>                          ****END OF INPUT****

CARTESIAN COORDINATES (ANGSTROEM)
---------------------------------
  S    -58.425000    6.946840  -15.131100
  C    -57.571100    5.633110  -15.834300
  C    -58.357300    4.899630  -16.716000
  C    -59.654300    5.481570  -16.940600
  C    -59.874800    6.577640  -16.138100
  H    -60.390800    5.148160  -17.717900
  C    -57.958200    3.595900  -17.337300
  H    -56.980700    3.734460  -17.856200
  H    -58.660600    3.484850  -18.148600
  C    -57.885900    2.353350  -16.467400
  H    -56.970200    2.305700  -15.964100
  H    -58.704700    2.433390  -15.790800
  C    -58.101300    1.073850  -17.232000
  H    -59.032900    1.054250  -17.654900
  H    -57.457600    1.064800  -18.050200
  H    -57.921600    0.201411  -16.476300
  S    -61.851700    7.141050  -14.266500
  C    -63.300900    7.887570  -14.741000
  C    -63.285500    8.271660  -16.116600
  C    -62.075400    7.817780  -16.822200
  C    -61.164800    7.255500  -15.932100
  H    -64.183300    8.640560  -16.597400
  C    -61.934900    8.144650  -18.282200
  H    -60.885800    8.040430  -18.561500
  H    -62.158400    9.142710  -18.387300
  C    -62.861700    7.415150  -19.224400
  H    -63.009900    7.839380  -20.262700
  H    -63.879300    7.479400  -18.775900
  C    -62.535900    5.909430  -19.402000
  H    -61.591800    5.707870  -19.918800
  H    -63.347900    5.622730  -20.076800
  H    -62.520900    5.479340  -18.418100
  H    -56.600000    5.342030  -15.554000
  H    -64.087800    8.055420  -14.089200

 Total Charge           Charge          ....    0
 Multiplicity           Mult            ....    1
 Number of Electrons    NEL             ....  134
 Basis Dimension        Dim             ....  322

ORBITAL ENERGIES
----------------

  NO   OCC          E(Eh)            E(eV)
   0   2.0000     -88.967096     -2420.9177
   1   2.0000     -88.965825     -2420.8832
   2   2.0000     -10.332475      -281.1609
   3   2.0000     -10.331942      -281.1464
   4   2.0000     -10.316713      -280.7320
   5   2.0000     -10.310007      -280.5495
   6   2.0000     -10.309197      -280.5275
   7   2.0000     -10.299592      -280.2661
   8   2.0000     -10.299508      -280.2639
   9   2.0000     -10.298836      -280.2456
  10   2.0000     -10.292989      -280.0865
  11   2.0000     -10.286725      -279.9160
  12   2.0000     -10.283799      -279.8364
  13   2.0000     -10.278234      -279.6850
  14   2.0000     -10.273846      -279.5656
  15   2.0000     -10.271213      -279.4939
  16   2.0000      -8.081509      -219.9090
  17   2.0000      -8.080761      -219.8887
  18   2.0000      -6.040068      -164.3586
  19   2.0000      -6.039235      -164.3359
  20   2.0000      -6.036013      -164.2483
  21   2.0000      -6.035176      -164.2255
  22   2.0000      -6.032285      -164.1468
  23   2.0000      -6.031606      -164.1283
  24   2.0000      -1.000410       -27.2225
  25   2.0000      -0.980013       -26.6675
  26   2.0000      -0.916731       -24.9455
  27   2.0000      -0.915669       -24.9166
  28   2.0000      -0.868048       -23.6208
  29   2.0000      -0.854442       -23.2505
  30   2.0000      -0.848370       -23.0853
  31   2.0000      -0.810267       -22.0485
  32   2.0000      -0.788433       -21.4543
  33   2.0000      -0.769592       -20.9417
  34   2.0000      -0.707276       -19.2460
  35   2.0000      -0.702739       -19.1225
  36   2.0000      -0.693111       -18.8605
  37   2.0000      -0.659464       -17.9449
  38   2.0000      -0.642715       -17.4892
  39   2.0000      -0.616050       -16.7636
  40   2.0000      -0.599078       -16.3017
  41   2.0000      -0.574109       -15.6223
  42   2.0000      -0.564743       -15.3675
  43   2.0000      -0.561822       -15.2880
  44   2.0000      -0.541846       -14.7444
  45   2.0000      -0.525962       -14.3122
  46   2.0000      -0.519769       -14.1436
  47   2.0000      -0.516015       -14.0415
  48   2.0000      -0.508879       -13.8473
  49   2.0000      -0.500642       -13.6232
  50   2.0000      -0.493197       -13.4206
  51   2.0000      -0.475355       -12.9351
  52   2.0000      -0.473159       -12.8753
  53   2.0000      -0.464389       -12.6367
  54   2.0000      -0.458437       -12.4747
  55   2.0000      -0.450172       -12.2498
  56   2.0000      -0.449412       -12.2291
  57   2.0000      -0.435717       -11.8565
  58   2.0000      -0.432211       -11.7611
  59   2.0000      -0.422511       -11.4971
  60   2.0000      -0.420825       -11.4512
  61   2.0000      -0.417262       -11.3543
  62   2.0000      -0.412309       -11.2195
  63   2.0000      -0.347619        -9.4592
  64   2.0000      -0.331689        -9.0257
  65   2.0000      -0.323478        -8.8023
  66   2.0000      -0.291793        -7.9401
  67   0.0000       0.033500         0.9116
  68   0.0000       0.060297         1.6408
  69   0.0000       0.109427         2.9777
  70   0.0000       0.118875         3.2348
  71   0.0000       0.126718         3.4482

MULLIKEN ATOMIC CHARGES
-----------------------
   0 S :    0.111391
   1 C :   -0.085155
   2 C :   -0.121201
   3 C :    0.036386
   4 C :   -0.164648
   5 H :    0.019326
   6 C :    0.048585
   7 H :    0.030997
   8 H :   -0.000035
   9 C :   -0.012966
  10 H :    0.016713
  11 H :    0.021589
  12 C :   -0.023704
  13 H :    0.010007
  14 H :    0.009812
  15 H :    0.051351
  16 S :    0.112390
  17 C :   -0.071339
  18 C :   -0.046282
  19 C :   -0.062318
  20 C :   -0.157793
  21 H :    0.026697
  22 C :    0.147083
  23 H :    0.022867
  24 H :    0.010693
  25 C :   -0.131618
  26 H :    0.038163
  27 H :    0.025497
  28 C :   -0.062709
  29 H :    0.038532
  30 H :    0.038863
  31 H :    0.057238
  32 H :    0.027027
  33 H :    0.038561
Sum of atomic charges:    0.0000000

LOEWDIN ATOMIC CHARGES
----------------------
   0 S :    0.399229
   1 C :   -0.196144
   2 C :   -0.065906
   3 C :   -0.061606
   4 C :   -0.184696
   5 H :    0.042188
   6 C :   -0.038015
   7 H :    0.034784
   8 H :    0.023660
   9 C :   -0.032571
  10 H :    0.016729
  11 H :    0.022631
  12 C :   -0.051518
  13 H :    0.011798
  14 H :    0.014059
  15 H :    0.042340
  16 S :    0.410569
  17 C :   -0.186555
  18 C :   -0.074067
  19 C :   -0.048524
  20 C :   -0.188045
  21 H :    0.027484
  22 C :   -0.030315
  23 H :    0.031702
  24 H :    0.027022
  25 C :   -0.043669
  26 H :    0.029158
  27 H :    0.024545
  28 C :   -0.066900
  29 H :    0.022673
  30 H :    0.031974
  31 H :    0.022499
  32 H :    0.018560
  33 H :    0.014928

  Mayer bond orders larger than 0.100000
B(  0-S ,  1-C ) :   1.1403 B(  0-S ,  4-C ) :   1.1447 B(  1-C ,  2-C ) :   1.6060
B(  1-C , 32-H ) :   0.9759 B(  2-C ,  3-C ) :   1.2462 B(  2-C ,  6-C ) :   1.0345
B(  3-C ,  4-C ) :   1.5840 B(  3-C ,  5-H ) :   0.9748 B(  4-C , 20-C ) :   1.0219
B(  6-C ,  7-H ) :   0.9276 B(  6-C ,  8-H ) :   0.9410 B(  6-C ,  9-C ) :   1.0612
B(  9-C , 10-H ) :   0.9510 B(  9-C , 11-H ) :   0.9572 B(  9-C , 12-C ) :   1.0928
B( 12-C , 13-H ) :   0.9739 B( 12-C , 14-H ) :   0.9722 B( 12-C , 15-H ) :   0.9731
B( 16-S , 17-C ) :   1.1789 B( 16-S , 20-C ) :   1.1304 B( 17-C , 18-C ) :   1.5943
B( 17-C , 33-H ) :   0.9768 B( 18-C , 19-C ) :   1.2208 B( 18-C , 21-H ) :   0.9828
B( 19-C , 20-C ) :   1.6132 B( 19-C , 22-C ) :   1.0448 B( 22-C , 23-H ) :   0.9368
B( 22-C , 24-H ) :   0.9232 B( 22-C , 25-C ) :   1.0629 B( 25-C , 26-H ) :   0.9579
B( 25-C , 27-H ) :   0.9557 B( 25-C , 28-C ) :   1.0725 B( 28-C , 29-H ) :   0.9737
B( 28-C , 30-H ) :   0.9704 B( 28-C , 31-H ) :   0.9682

Dispersion correction           -0.014444190
FINAL SINGLE POINT ENERGY     -1339.866799028373

DIPOLE MOMENT
-------------
                                X             Y             Z
Electronic contribution:      1.17674      17.90711      20.90703
Nuclear contribution   :     -1.39689     -18.19188     -21.41334
                        -----------------------------------------
Total Dipole Moment    :     -0.22015      -0.28477      -0.50630
                        -----------------------------------------
Magnitude (a.u.)       :      0.62121
Magnitude (Debye)      :      1.57899

Rotational constants in cm-1:     0.018557     0.008420     0.006880
Rotational constants in MHz :   556.320594   252.426259   206.270114

                             ****ORCA TERMINATED NORMALLY****
TOTAL RUN TIME: 0 days 0 hours 0 minutes 21 seconds 776 msec
