                         Program Version 4.2.1 -  RELEASE  -
|  1> ! wB97X-D3 SP def2-SVP
|  2> %pal
|  3> nprocs 24
|  4> end
|  5>
|  6> * xyz 0 1
|  7> S 	 -83.9311 	 -42.1258 	 -89.9492
|  8> C 	 -82.6414 	 -40.9814 	 -90.0911
|  9> C 	 -81.4032 	 -41.5005 	 -89.7227
| 10> C 	 -81.4904 	 -42.8718 	 -89.3237
| 11> C 	 -82.7617 	 -43.34 	 -89.5093
| 12> H 	 -80.7191 	 -43.5347 	 -88.9686
| 13> C 	 -80.0778 	 -40.6375 	 -89.7532
| 14> H 	 -80.0322 	 -40.0923 	 -90.7092
| 15> H 	 -79.2146 	 -41.2538 	 -89.7553
| 16> C 	 -80.0048 	 -39.5468 	 -88.6504
| 17> H 	 -80.9353 	 -38.9947 	 -88.6376
| 18> H 	 -80.0592 	 -40.1524 	 -87.7306
| 19> C 	 -78.6297 	 -38.8113 	 -88.6982
| 20> H 	 -78.4913 	 -38.3364 	 -89.6027
| 21> H 	 -78.7933 	 -38.1133 	 -87.8656
| 22> H 	 -77.7549 	 -39.464 	 -88.4701
| 23> S 	 -84.7924 	 -44.8481 	 -88.4392
| 24> C 	 -84.7664 	 -46.5778 	 -88.6416
| 25> C 	 -83.8187 	 -47.0256 	 -89.5065
| 26> C 	 -82.964 	 -45.9645 	 -89.9366
| 27> C 	 -83.2564 	 -44.7128 	 -89.2917
| 28> H 	 -83.8734 	 -48.0788 	 -89.8682
| 29> C 	 -81.7136 	 -46.111 	 -90.8522
| 30> H 	 -81.2476 	 -47.0917 	 -90.5887
| 31> H 	 -80.9701 	 -45.4185 	 -90.5743
| 32> C 	 -81.9326 	 -46.0151 	 -92.4026
| 33> H 	 -80.9948 	 -45.7422 	 -92.8931
| 34> H 	 -82.5498 	 -45.127 	 -92.626
| 35> C 	 -82.4822 	 -47.3272 	 -93.0423
| 36> H 	 -83.5992 	 -47.1375 	 -93.2251
| 37> H 	 -82.193 	 -48.278 	 -92.6342
| 38> H 	 -82.1145 	 -47.3147 	 -94.0074
| 39> H 	 -82.7641 	 -39.9103 	 -90.2918
| 40> H 	 -85.5969 	 -47.1948 	 -88.333
| 41> *
| 42>
| 43>                          ****END OF INPUT****

CARTESIAN COORDINATES (ANGSTROEM)
---------------------------------
  S    -83.931100  -42.125800  -89.949200
  C    -82.641400  -40.981400  -90.091100
  C    -81.403200  -41.500500  -89.722700
  C    -81.490400  -42.871800  -89.323700
  C    -82.761700  -43.340000  -89.509300
  H    -80.719100  -43.534700  -88.968600
  C    -80.077800  -40.637500  -89.753200
  H    -80.032200  -40.092300  -90.709200
  H    -79.214600  -41.253800  -89.755300
  C    -80.004800  -39.546800  -88.650400
  H    -80.935300  -38.994700  -88.637600
  H    -80.059200  -40.152400  -87.730600
  C    -78.629700  -38.811300  -88.698200
  H    -78.491300  -38.336400  -89.602700
  H    -78.793300  -38.113300  -87.865600
  H    -77.754900  -39.464000  -88.470100
  S    -84.792400  -44.848100  -88.439200
  C    -84.766400  -46.577800  -88.641600
  C    -83.818700  -47.025600  -89.506500
  C    -82.964000  -45.964500  -89.936600
  C    -83.256400  -44.712800  -89.291700
  H    -83.873400  -48.078800  -89.868200
  C    -81.713600  -46.111000  -90.852200
  H    -81.247600  -47.091700  -90.588700
  H    -80.970100  -45.418500  -90.574300
  C    -81.932600  -46.015100  -92.402600
  H    -80.994800  -45.742200  -92.893100
  H    -82.549800  -45.127000  -92.626000
  C    -82.482200  -47.327200  -93.042300
  H    -83.599200  -47.137500  -93.225100
  H    -82.193000  -48.278000  -92.634200
  H    -82.114500  -47.314700  -94.007400
  H    -82.764100  -39.910300  -90.291800
  H    -85.596900  -47.194800  -88.333000

 Total Charge           Charge          ....    0
 Multiplicity           Mult            ....    1
 Number of Electrons    NEL             ....  134
 Basis Dimension        Dim             ....  322

ORBITAL ENERGIES
----------------

  NO   OCC          E(Eh)            E(eV)
   0   2.0000     -88.968404     -2420.9534
   1   2.0000     -88.963903     -2420.8309
   2   2.0000     -10.328164      -281.0436
   3   2.0000     -10.327085      -281.0143
   4   2.0000     -10.312267      -280.6111
   5   2.0000     -10.311354      -280.5862
   6   2.0000     -10.310786      -280.5707
   7   2.0000     -10.304688      -280.4048
   8   2.0000     -10.296043      -280.1696
   9   2.0000     -10.293328      -280.0957
  10   2.0000     -10.291203      -280.0379
  11   2.0000     -10.290697      -280.0241
  12   2.0000     -10.288319      -279.9594
  13   2.0000     -10.287817      -279.9457
  14   2.0000     -10.280886      -279.7571
  15   2.0000     -10.274812      -279.5918
  16   2.0000      -8.083552      -219.9646
  17   2.0000      -8.078769      -219.8345
  18   2.0000      -6.041986      -164.4108
  19   2.0000      -6.038108      -164.3053
  20   2.0000      -6.037149      -164.2792
  21   2.0000      -6.034258      -164.2005
  22   2.0000      -6.033393      -164.1770
  23   2.0000      -6.029527      -164.0718
  24   2.0000      -1.006397       -27.3854
  25   2.0000      -0.982151       -26.7257
  26   2.0000      -0.904579       -24.6148
  27   2.0000      -0.895698       -24.3732
  28   2.0000      -0.866199       -23.5705
  29   2.0000      -0.851963       -23.1831
  30   2.0000      -0.842325       -22.9208
  31   2.0000      -0.814098       -22.1527
  32   2.0000      -0.782438       -21.2912
  33   2.0000      -0.767649       -20.8888
  34   2.0000      -0.702773       -19.1234
  35   2.0000      -0.701468       -19.0879
  36   2.0000      -0.687573       -18.7098
  37   2.0000      -0.655394       -17.8342
  38   2.0000      -0.639910       -17.4128
  39   2.0000      -0.617423       -16.8009
  40   2.0000      -0.590659       -16.0726
  41   2.0000      -0.567439       -15.4408
  42   2.0000      -0.556283       -15.1372
  43   2.0000      -0.541255       -14.7283
  44   2.0000      -0.534673       -14.5492
  45   2.0000      -0.525379       -14.2963
  46   2.0000      -0.516165       -14.0456
  47   2.0000      -0.506221       -13.7750
  48   2.0000      -0.502292       -13.6681
  49   2.0000      -0.494935       -13.4679
  50   2.0000      -0.488742       -13.2994
  51   2.0000      -0.473702       -12.8901
  52   2.0000      -0.471763       -12.8373
  53   2.0000      -0.470025       -12.7900
  54   2.0000      -0.462609       -12.5882
  55   2.0000      -0.456506       -12.4222
  56   2.0000      -0.444986       -12.1087
  57   2.0000      -0.438748       -11.9389
  58   2.0000      -0.436680       -11.8827
  59   2.0000      -0.418594       -11.3905
  60   2.0000      -0.415381       -11.3031
  61   2.0000      -0.412055       -11.2126
  62   2.0000      -0.405849       -11.0437
  63   2.0000      -0.346152        -9.4193
  64   2.0000      -0.333738        -9.0815
  65   2.0000      -0.328365        -8.9353
  66   2.0000      -0.287676        -7.8281
  67   0.0000       0.029599         0.8054
  68   0.0000       0.066071         1.7979
  69   0.0000       0.104821         2.8523
  70   0.0000       0.125278         3.4090
  71   0.0000       0.136776         3.7219

MULLIKEN ATOMIC CHARGES
-----------------------
   0 S :    0.123786
   1 C :   -0.125261
   2 C :   -0.085911
   3 C :    0.027529
   4 C :   -0.145782
   5 H :    0.018652
   6 C :    0.067091
   7 H :    0.024766
   8 H :    0.006139
   9 C :   -0.104770
  10 H :    0.029353
  11 H :    0.026716
  12 C :   -0.016740
  13 H :    0.023015
  14 H :    0.041667
  15 H :    0.044281
  16 S :    0.088867
  17 C :   -0.084712
  18 C :   -0.041727
  19 C :   -0.023510
  20 C :   -0.168520
  21 H :    0.040776
  22 C :    0.063738
  23 H :    0.025553
  24 H :    0.001841
  25 C :   -0.084857
  26 H :    0.024754
  27 H :    0.036602
  28 C :   -0.028797
  29 H :    0.047590
  30 H :    0.034604
  31 H :    0.008554
  32 H :    0.051094
  33 H :    0.053619
Sum of atomic charges:   -0.0000000

LOEWDIN ATOMIC CHARGES
----------------------
   0 S :    0.416559
   1 C :   -0.212850
   2 C :   -0.056857
   3 C :   -0.064375
   4 C :   -0.192023
   5 H :    0.034364
   6 C :   -0.030432
   7 H :    0.027949
   8 H :    0.018852
   9 C :   -0.041525
  10 H :    0.021185
  11 H :    0.025610
  12 C :   -0.056950
  13 H :    0.011969
  14 H :    0.034407
  15 H :    0.034150
  16 S :    0.398606
  17 C :   -0.185406
  18 C :   -0.079496
  19 C :   -0.047288
  20 C :   -0.200763
  21 H :    0.044553
  22 C :   -0.031607
  23 H :    0.031136
  24 H :    0.020448
  25 C :   -0.038579
  26 H :    0.021930
  27 H :    0.030489
  28 C :   -0.071262
  29 H :    0.041311
  30 H :    0.022773
  31 H :    0.017185
  32 H :    0.029293
  33 H :    0.026647

  Mayer bond orders larger than 0.100000
B(  0-S ,  1-C ) :   1.1351 B(  0-S ,  4-C ) :   1.1562 B(  1-C ,  2-C ) :   1.6246
B(  1-C , 32-H ) :   0.9639 B(  2-C ,  3-C ) :   1.2313 B(  2-C ,  6-C ) :   1.0067
B(  3-C ,  4-C ) :   1.5910 B(  3-C ,  5-H ) :   0.9961 B(  4-C , 20-C ) :   1.0352
B(  6-C ,  7-H ) :   0.9460 B(  6-C ,  8-H ) :   0.9487 B(  6-C ,  9-C ) :   1.0536
B(  9-C , 10-H ) :   0.9628 B(  9-C , 11-H ) :   0.9568 B(  9-C , 12-C ) :   1.0609
B( 12-C , 13-H ) :   0.9792 B( 12-C , 14-H ) :   0.9760 B( 12-C , 15-H ) :   0.9742
B( 16-S , 17-C ) :   1.1611 B( 16-S , 20-C ) :   1.1418 B( 17-C , 18-C ) :   1.6150
B( 17-C , 20-C ) :   0.1003 B( 17-C , 33-H ) :   0.9627 B( 18-C , 19-C ) :   1.2546
B( 18-C , 21-H ) :   0.9837 B( 19-C , 20-C ) :   1.5629 B( 19-C , 22-C ) :   1.0240
B( 22-C , 23-H ) :   0.9475 B( 22-C , 24-H ) :   0.9402 B( 22-C , 25-C ) :   1.0658
B( 25-C , 26-H ) :   0.9641 B( 25-C , 27-H ) :   0.9575 B( 25-C , 28-C ) :   1.0632
B( 28-C , 29-H ) :   0.9770 B( 28-C , 30-H ) :   0.9784 B( 28-C , 31-H ) :   0.9730

Dispersion correction           -0.013833604
FINAL SINGLE POINT ENERGY     -1339.861811320274

DIPOLE MOMENT
-------------
                                X             Y             Z
Electronic contribution:    -22.04682      -3.47653       9.59331
Nuclear contribution   :     22.53808       3.43532      -9.88831
                        -----------------------------------------
Total Dipole Moment    :      0.49126      -0.04121      -0.29500
                        -----------------------------------------
Magnitude (a.u.)       :      0.57451
Magnitude (Debye)      :      1.46028

Rotational constants in cm-1:     0.021574     0.007232     0.006150
Rotational constants in MHz :   646.772919   216.812441   184.373600

                             ****ORCA TERMINATED NORMALLY****
TOTAL RUN TIME: 0 days 0 hours 0 minutes 22 seconds 201 msec
