                         Program Version 4.2.1 -  RELEASE  -
|  1> ! wB97X-D3 SP def2-SVP
|  2> %pal
|  3> nprocs 24
|  4> end
|  5>
|  6> * xyz 0 1
|  7> S 	 -43.17 	 21.7771 	 29.1155
|  8> C 	 -41.722 	 20.7841 	 28.8806
|  9> C 	 -40.6426 	 21.1461 	 29.7047
| 10> C 	 -41.1087 	 22.0067 	 30.7354
| 11> C 	 -42.3866 	 22.4986 	 30.5642
| 12> H 	 -40.6277 	 22.4016 	 31.6454
| 13> C 	 -39.2644 	 20.7007 	 29.4254
| 14> H 	 -38.6086 	 21.4936 	 29.0229
| 15> H 	 -39.3282 	 19.9306 	 28.591
| 16> C 	 -38.5086 	 20.0831 	 30.5417
| 17> H 	 -38.1278 	 20.9969 	 31.1815
| 18> H 	 -39.1193 	 19.3876 	 31.13
| 19> C 	 -37.3596 	 19.2697 	 29.9231
| 20> H 	 -36.5216 	 19.7326 	 29.3442
| 21> H 	 -36.891 	 18.7767 	 30.7898
| 22> H 	 -37.7055 	 18.3961 	 29.2636
| 23> S 	 -42.7048 	 23.3355 	 33.116
| 24> C 	 -44.08 	 24.3649 	 33.6438
| 25> C 	 -44.8412 	 24.5727 	 32.5334
| 26> C 	 -44.229 	 24.2013 	 31.2839
| 27> C 	 -43.0907 	 23.4428 	 31.3943
| 28> H 	 -45.7736 	 25.1308 	 32.5724
| 29> C 	 -44.891 	 24.5484 	 29.9271
| 30> H 	 -45.7905 	 23.8866 	 29.8557
| 31> H 	 -44.1303 	 24.2172 	 29.2167
| 32> C 	 -45.2001 	 26.041 	 29.6694
| 33> H 	 -45.9756 	 26.4389 	 30.3173
| 34> H 	 -45.6266 	 26.0037 	 28.6444
| 35> C 	 -43.9953 	 26.9786 	 29.5958
| 36> H 	 -43.4535 	 26.7945 	 30.6044
| 37> H 	 -44.2969 	 28.0507 	 29.5484
| 38> H 	 -43.2895 	 26.7902 	 28.7243
| 39> H 	 -41.7052 	 20.0688 	 28.0191
| 40> H 	 -44.4191 	 24.728 	 34.6321
| 41> *
| 42>
| 43>                          ****END OF INPUT****

CARTESIAN COORDINATES (ANGSTROEM)
---------------------------------
  S    -43.170000   21.777100   29.115500
  C    -41.722000   20.784100   28.880600
  C    -40.642600   21.146100   29.704700
  C    -41.108700   22.006700   30.735400
  C    -42.386600   22.498600   30.564200
  H    -40.627700   22.401600   31.645400
  C    -39.264400   20.700700   29.425400
  H    -38.608600   21.493600   29.022900
  H    -39.328200   19.930600   28.591000
  C    -38.508600   20.083100   30.541700
  H    -38.127800   20.996900   31.181500
  H    -39.119300   19.387600   31.130000
  C    -37.359600   19.269700   29.923100
  H    -36.521600   19.732600   29.344200
  H    -36.891000   18.776700   30.789800
  H    -37.705500   18.396100   29.263600
  S    -42.704800   23.335500   33.116000
  C    -44.080000   24.364900   33.643800
  C    -44.841200   24.572700   32.533400
  C    -44.229000   24.201300   31.283900
  C    -43.090700   23.442800   31.394300
  H    -45.773600   25.130800   32.572400
  C    -44.891000   24.548400   29.927100
  H    -45.790500   23.886600   29.855700
  H    -44.130300   24.217200   29.216700
  C    -45.200100   26.041000   29.669400
  H    -45.975600   26.438900   30.317300
  H    -45.626600   26.003700   28.644400
  C    -43.995300   26.978600   29.595800
  H    -43.453500   26.794500   30.604400
  H    -44.296900   28.050700   29.548400
  H    -43.289500   26.790200   28.724300
  H    -41.705200   20.068800   28.019100
  H    -44.419100   24.728000   34.632100

 Total Charge           Charge          ....    0
 Multiplicity           Mult            ....    1
 Number of Electrons    NEL             ....  134
 Basis Dimension        Dim             ....  322

ORBITAL ENERGIES
----------------

  NO   OCC          E(Eh)            E(eV)
   0   2.0000     -88.968969     -2420.9687
   1   2.0000     -88.960850     -2420.7478
   2   2.0000     -10.334809      -281.2244
   3   2.0000     -10.327856      -281.0353
   4   2.0000     -10.323612      -280.9198
   5   2.0000     -10.322103      -280.8787
   6   2.0000     -10.307025      -280.4684
   7   2.0000     -10.301337      -280.3136
   8   2.0000     -10.299421      -280.2615
   9   2.0000     -10.296557      -280.1836
  10   2.0000     -10.295378      -280.1515
  11   2.0000     -10.293216      -280.0926
  12   2.0000     -10.292448      -280.0717
  13   2.0000     -10.288778      -279.9719
  14   2.0000     -10.288688      -279.9694
  15   2.0000     -10.287570      -279.9390
  16   2.0000      -8.082311      -219.9309
  17   2.0000      -8.074795      -219.7263
  18   2.0000      -6.040810      -164.3788
  19   2.0000      -6.037155      -164.2793
  20   2.0000      -6.033704      -164.1854
  21   2.0000      -6.033012      -164.1666
  22   2.0000      -6.029402      -164.0684
  23   2.0000      -6.025156      -163.9528
  24   2.0000      -1.004943       -27.3459
  25   2.0000      -0.980288       -26.6750
  26   2.0000      -0.920806       -25.0564
  27   2.0000      -0.902103       -24.5475
  28   2.0000      -0.874471       -23.7956
  29   2.0000      -0.851311       -23.1654
  30   2.0000      -0.837052       -22.7773
  31   2.0000      -0.815859       -22.2006
  32   2.0000      -0.777086       -21.1456
  33   2.0000      -0.766932       -20.8693
  34   2.0000      -0.709730       -19.3127
  35   2.0000      -0.693221       -18.8635
  36   2.0000      -0.682851       -18.5813
  37   2.0000      -0.666823       -18.1452
  38   2.0000      -0.633957       -17.2508
  39   2.0000      -0.617438       -16.8013
  40   2.0000      -0.587771       -15.9941
  41   2.0000      -0.580576       -15.7983
  42   2.0000      -0.560866       -15.2619
  43   2.0000      -0.551547       -15.0084
  44   2.0000      -0.535823       -14.5805
  45   2.0000      -0.527329       -14.3493
  46   2.0000      -0.521181       -14.1821
  47   2.0000      -0.507413       -13.8074
  48   2.0000      -0.505784       -13.7631
  49   2.0000      -0.496029       -13.4976
  50   2.0000      -0.486028       -13.2255
  51   2.0000      -0.473926       -12.8962
  52   2.0000      -0.468186       -12.7400
  53   2.0000      -0.461671       -12.5627
  54   2.0000      -0.454162       -12.3584
  55   2.0000      -0.444775       -12.1030
  56   2.0000      -0.443298       -12.0627
  57   2.0000      -0.440234       -11.9794
  58   2.0000      -0.428659       -11.6644
  59   2.0000      -0.423662       -11.5284
  60   2.0000      -0.420634       -11.4460
  61   2.0000      -0.412953       -11.2370
  62   2.0000      -0.393470       -10.7069
  63   2.0000      -0.361316        -9.8319
  64   2.0000      -0.332623        -9.0511
  65   2.0000      -0.325294        -8.8517
  66   2.0000      -0.282451        -7.6859
  67   0.0000       0.017957         0.4886
  68   0.0000       0.073109         1.9894
  69   0.0000       0.105174         2.8619
  70   0.0000       0.111117         3.0236
  71   0.0000       0.125299         3.4096

MULLIKEN ATOMIC CHARGES
-----------------------
   0 S :    0.095419
   1 C :   -0.144342
   2 C :   -0.030856
   3 C :   -0.007576
   4 C :   -0.128115
   5 H :    0.030187
   6 C :    0.045405
   7 H :    0.048440
   8 H :    0.016243
   9 C :   -0.097892
  10 H :    0.055331
  11 H :    0.041969
  12 C :   -0.100857
  13 H :    0.047053
  14 H :    0.033631
  15 H :    0.044206
  16 S :    0.053367
  17 C :   -0.079677
  18 C :   -0.025545
  19 C :   -0.141838
  20 C :   -0.081679
  21 H :    0.021248
  22 C :    0.047298
  23 H :    0.053586
  24 H :    0.021420
  25 C :   -0.067894
  26 H :    0.032365
  27 H :    0.032220
  28 C :   -0.103490
  29 H :    0.055882
  30 H :    0.045716
  31 H :    0.050339
  32 H :    0.068326
  33 H :    0.070113
Sum of atomic charges:    0.0000000

LOEWDIN ATOMIC CHARGES
----------------------
   0 S :    0.384226
   1 C :   -0.189909
   2 C :   -0.060827
   3 C :   -0.066582
   4 C :   -0.172876
   5 H :    0.032815
   6 C :   -0.045292
   7 H :    0.040068
   8 H :    0.033334
   9 C :   -0.047899
  10 H :    0.039340
  11 H :    0.029239
  12 C :   -0.082049
  13 H :    0.029897
  14 H :    0.027391
  15 H :    0.033203
  16 S :    0.374870
  17 C :   -0.175072
  18 C :   -0.073237
  19 C :   -0.073689
  20 C :   -0.185896
  21 H :    0.030215
  22 C :   -0.037947
  23 H :    0.039410
  24 H :    0.018158
  25 C :   -0.048912
  26 H :    0.021308
  27 H :    0.029768
  28 C :   -0.080271
  29 H :    0.037124
  30 H :    0.029956
  31 H :    0.032807
  32 H :    0.032862
  33 H :    0.044469

  Mayer bond orders larger than 0.100000
B(  0-S ,  1-C ) :   1.1378 B(  0-S ,  4-C ) :   1.1147 B(  1-C ,  2-C ) :   1.6064
B(  1-C , 32-H ) :   0.9589 B(  2-C ,  3-C ) :   1.2058 B(  2-C ,  6-C ) :   1.0386
B(  3-C ,  4-C ) :   1.5855 B(  3-C ,  5-H ) :   0.9817 B(  4-C , 20-C ) :   1.0921
B(  6-C ,  7-H ) :   0.9293 B(  6-C ,  8-H ) :   0.9413 B(  6-C ,  9-C ) :   1.0614
B(  9-C , 10-H ) :   0.9454 B(  9-C , 11-H ) :   0.9575 B(  9-C , 12-C ) :   1.0810
B( 12-C , 13-H ) :   0.9742 B( 12-C , 14-H ) :   0.9745 B( 12-C , 15-H ) :   0.9711
B( 16-S , 17-C ) :   1.1218 B( 16-S , 20-C ) :   1.1044 B( 17-C , 18-C ) :   1.6371
B( 17-C , 33-H ) :   0.9641 B( 18-C , 19-C ) :   1.2320 B( 18-C , 21-H ) :   0.9836
B( 19-C , 20-C ) :   1.6072 B( 19-C , 22-C ) :   1.0200 B( 22-C , 23-H ) :   0.9380
B( 22-C , 24-H ) :   0.9325 B( 22-C , 25-C ) :   1.0702 B( 25-C , 26-H ) :   0.9583
B( 25-C , 27-H ) :   0.9519 B( 25-C , 28-C ) :   1.0723 B( 28-C , 29-H ) :   0.9732
B( 28-C , 30-H ) :   0.9732 B( 28-C , 31-H ) :   0.9728

Dispersion correction           -0.013742134
FINAL SINGLE POINT ENERGY     -1339.861674878053

DIPOLE MOMENT
-------------
                                X             Y             Z
Electronic contribution:    -10.71575      -2.29814       8.28396
Nuclear contribution   :     10.78568       2.36200      -8.48596
                        -----------------------------------------
Total Dipole Moment    :      0.06994       0.06387      -0.20200
                        -----------------------------------------
Magnitude (a.u.)       :      0.22310
Magnitude (Debye)      :      0.56707

Rotational constants in cm-1:     0.024074     0.007134     0.006171
Rotational constants in MHz :   721.728367   213.863804   184.999914

                             ****ORCA TERMINATED NORMALLY****
TOTAL RUN TIME: 0 days 0 hours 0 minutes 20 seconds 55 msec
