                         Program Version 4.2.1 -  RELEASE  -
|  1> ! wB97X-D3 SP def2-SVP
|  2> %pal
|  3> nprocs 24
|  4> end
|  5>
|  6> * xyz 0 1
|  7> S 	 -111.953 	 55.6844 	 -92.8408
|  8> C 	 -110.63 	 55.8606 	 -93.9597
|  9> C 	 -109.449 	 55.634 	 -93.3118
| 10> C 	 -109.622 	 55.2766 	 -91.9682
| 11> C 	 -110.856 	 55.2904 	 -91.497
| 12> H 	 -108.817 	 55.0549 	 -91.2988
| 13> C 	 -108.123 	 55.3746 	 -94.0121
| 14> H 	 -108.341 	 54.8766 	 -94.9225
| 15> H 	 -107.572 	 54.6501 	 -93.467
| 16> C 	 -107.123 	 56.4558 	 -94.305
| 17> H 	 -107.424 	 57.0323 	 -95.2323
| 18> H 	 -106.994 	 57.2032 	 -93.4594
| 19> C 	 -105.733 	 55.7626 	 -94.5823
| 20> H 	 -105.377 	 55.2317 	 -93.7045
| 21> H 	 -105.787 	 55.0809 	 -95.5002
| 22> H 	 -104.916 	 56.4768 	 -94.7725
| 23> S 	 -112.893 	 55.794 	 -89.7787
| 24> C 	 -112.984 	 54.9798 	 -88.3017
| 25> C 	 -111.789 	 54.444 	 -87.9072
| 26> C 	 -110.872 	 54.3751 	 -89.016
| 27> C 	 -111.389 	 55.0229 	 -90.1637
| 28> H 	 -111.683 	 53.9699 	 -86.9506
| 29> C 	 -109.486 	 53.7467 	 -88.8896
| 30> H 	 -109.293 	 53.6622 	 -87.7724
| 31> H 	 -108.76 	 54.4423 	 -89.2922
| 32> C 	 -109.256 	 52.3775 	 -89.4673
| 33> H 	 -109.638 	 52.5678 	 -90.4882
| 34> H 	 -109.786 	 51.5567 	 -88.9524
| 35> C 	 -107.766 	 51.967 	 -89.4645
| 36> H 	 -107.301 	 52.2024 	 -88.4945
| 37> H 	 -107.258 	 52.4738 	 -90.2033
| 38> H 	 -107.721 	 50.8835 	 -89.6299
| 39> H 	 -110.777 	 55.7666 	 -95.0279
| 40> H 	 -113.814 	 55.2157 	 -87.6647
| 41> *
| 42>
| 43>                          ****END OF INPUT****

CARTESIAN COORDINATES (ANGSTROEM)
---------------------------------
  S    -111.953000   55.684400  -92.840800
  C    -110.630000   55.860600  -93.959700
  C    -109.449000   55.634000  -93.311800
  C    -109.622000   55.276600  -91.968200
  C    -110.856000   55.290400  -91.497000
  H    -108.817000   55.054900  -91.298800
  C    -108.123000   55.374600  -94.012100
  H    -108.341000   54.876600  -94.922500
  H    -107.572000   54.650100  -93.467000
  C    -107.123000   56.455800  -94.305000
  H    -107.424000   57.032300  -95.232300
  H    -106.994000   57.203200  -93.459400
  C    -105.733000   55.762600  -94.582300
  H    -105.377000   55.231700  -93.704500
  H    -105.787000   55.080900  -95.500200
  H    -104.916000   56.476800  -94.772500
  S    -112.893000   55.794000  -89.778700
  C    -112.984000   54.979800  -88.301700
  C    -111.789000   54.444000  -87.907200
  C    -110.872000   54.375100  -89.016000
  C    -111.389000   55.022900  -90.163700
  H    -111.683000   53.969900  -86.950600
  C    -109.486000   53.746700  -88.889600
  H    -109.293000   53.662200  -87.772400
  H    -108.760000   54.442300  -89.292200
  C    -109.256000   52.377500  -89.467300
  H    -109.638000   52.567800  -90.488200
  H    -109.786000   51.556700  -88.952400
  C    -107.766000   51.967000  -89.464500
  H    -107.301000   52.202400  -88.494500
  H    -107.258000   52.473800  -90.203300
  H    -107.721000   50.883500  -89.629900
  H    -110.777000   55.766600  -95.027900
  H    -113.814000   55.215700  -87.664700

 Total Charge           Charge          ....    0
 Multiplicity           Mult            ....    1
 Number of Electrons    NEL             ....  134
 Basis Dimension        Dim             ....  322

ORBITAL ENERGIES
----------------

  NO   OCC          E(Eh)            E(eV)
   0   2.0000     -88.964969     -2420.8599
   1   2.0000     -88.961407     -2420.7630
   2   2.0000     -10.329150      -281.0705
   3   2.0000     -10.328150      -281.0433
   4   2.0000     -10.312536      -280.6184
   5   2.0000     -10.310611      -280.5660
   6   2.0000     -10.309189      -280.5273
   7   2.0000     -10.297461      -280.2082
   8   2.0000     -10.296957      -280.1944
   9   2.0000     -10.295636      -280.1585
  10   2.0000     -10.295017      -280.1417
  11   2.0000     -10.288332      -279.9598
  12   2.0000     -10.286539      -279.9110
  13   2.0000     -10.284100      -279.8446
  14   2.0000     -10.283500      -279.8283
  15   2.0000     -10.276062      -279.6259
  16   2.0000      -8.081496      -219.9087
  17   2.0000      -8.076347      -219.7686
  18   2.0000      -6.039753      -164.3500
  19   2.0000      -6.035825      -164.2431
  20   2.0000      -6.035000      -164.2207
  21   2.0000      -6.032338      -164.1483
  22   2.0000      -6.030803      -164.1065
  23   2.0000      -6.026938      -164.0013
  24   2.0000      -1.015820       -27.6419
  25   2.0000      -0.994225       -27.0542
  26   2.0000      -0.914750       -24.8916
  27   2.0000      -0.913683       -24.8626
  28   2.0000      -0.874226       -23.7889
  29   2.0000      -0.856873       -23.3167
  30   2.0000      -0.846059       -23.0224
  31   2.0000      -0.819856       -22.3094
  32   2.0000      -0.784740       -21.3539
  33   2.0000      -0.771309       -20.9884
  34   2.0000      -0.706422       -19.2227
  35   2.0000      -0.698772       -19.0146
  36   2.0000      -0.690140       -18.7797
  37   2.0000      -0.669068       -18.2063
  38   2.0000      -0.643666       -17.5150
  39   2.0000      -0.629441       -17.1280
  40   2.0000      -0.600763       -16.3476
  41   2.0000      -0.575318       -15.6552
  42   2.0000      -0.571643       -15.5552
  43   2.0000      -0.560436       -15.2502
  44   2.0000      -0.531044       -14.4504
  45   2.0000      -0.524661       -14.2768
  46   2.0000      -0.518821       -14.1178
  47   2.0000      -0.509509       -13.8644
  48   2.0000      -0.502763       -13.6809
  49   2.0000      -0.500175       -13.6104
  50   2.0000      -0.495108       -13.4726
  51   2.0000      -0.488487       -13.2924
  52   2.0000      -0.473245       -12.8777
  53   2.0000      -0.468277       -12.7425
  54   2.0000      -0.460326       -12.5261
  55   2.0000      -0.452263       -12.3067
  56   2.0000      -0.448076       -12.1928
  57   2.0000      -0.439213       -11.9516
  58   2.0000      -0.433845       -11.8055
  59   2.0000      -0.423233       -11.5168
  60   2.0000      -0.419705       -11.4208
  61   2.0000      -0.415573       -11.3083
  62   2.0000      -0.407027       -11.0758
  63   2.0000      -0.364569        -9.9204
  64   2.0000      -0.334512        -9.1025
  65   2.0000      -0.330721        -8.9994
  66   2.0000      -0.286420        -7.7939
  67   0.0000       0.021746         0.5917
  68   0.0000       0.079217         2.1556
  69   0.0000       0.098472         2.6796
  70   0.0000       0.107374         2.9218
  71   0.0000       0.140530         3.8240

MULLIKEN ATOMIC CHARGES
-----------------------
   0 S :    0.082180
   1 C :   -0.114188
   2 C :   -0.035395
   3 C :   -0.024906
   4 C :   -0.075287
   5 H :   -0.017241
   6 C :    0.068998
   7 H :    0.011772
   8 H :   -0.000510
   9 C :   -0.084761
  10 H :    0.040828
  11 H :    0.043193
  12 C :   -0.098188
  13 H :    0.036237
  14 H :    0.046277
  15 H :    0.036045
  16 S :    0.109159
  17 C :   -0.080543
  18 C :   -0.020734
  19 C :   -0.057245
  20 C :   -0.122365
  21 H :    0.018658
  22 C :    0.007130
  23 H :    0.020201
  24 H :    0.035780
  25 C :   -0.076747
  26 H :    0.035054
  27 H :    0.036440
  28 C :   -0.014408
  29 H :    0.028756
  30 H :    0.013037
  31 H :    0.039256
  32 H :    0.059162
  33 H :    0.054352
Sum of atomic charges:    0.0000000

LOEWDIN ATOMIC CHARGES
----------------------
   0 S :    0.384352
   1 C :   -0.190792
   2 C :   -0.062838
   3 C :   -0.073795
   4 C :   -0.173763
   5 H :    0.025944
   6 C :   -0.033491
   7 H :    0.028387
   8 H :    0.023957
   9 C :   -0.043899
  10 H :    0.028344
  11 H :    0.029717
  12 C :   -0.075055
  13 H :    0.022114
  14 H :    0.032829
  15 H :    0.026311
  16 S :    0.440053
  17 C :   -0.197143
  18 C :   -0.067602
  19 C :   -0.053840
  20 C :   -0.200757
  21 H :    0.031700
  22 C :   -0.039892
  23 H :    0.032637
  24 H :    0.025711
  25 C :   -0.043192
  26 H :    0.028143
  27 H :    0.027571
  28 C :   -0.056123
  29 H :    0.026608
  30 H :    0.011488
  31 H :    0.031142
  32 H :    0.031622
  33 H :    0.023550

  Mayer bond orders larger than 0.100000
B(  0-S ,  1-C ) :   1.1343 B(  0-S ,  4-C ) :   1.1274 B(  1-C ,  2-C ) :   1.6197
B(  1-C , 32-H ) :   0.9654 B(  2-C ,  3-C ) :   1.2456 B(  2-C ,  6-C ) :   1.0061
B(  3-C ,  4-C ) :   1.6033 B(  3-C ,  5-H ) :   1.0004 B(  4-C , 20-C ) :   1.0544
B(  6-C ,  7-H ) :   0.9365 B(  6-C ,  8-H ) :   0.9509 B(  6-C ,  9-C ) :   1.0574
B(  9-C , 10-H ) :   0.9550 B(  9-C , 11-H ) :   0.9580 B(  9-C , 12-C ) :   1.0702
B( 12-C , 13-H ) :   0.9747 B( 12-C , 14-H ) :   0.9756 B( 12-C , 15-H ) :   0.9752
B( 16-S , 17-C ) :   1.1809 B( 16-S , 20-C ) :   1.1630 B( 17-C , 18-C ) :   1.5825
B( 17-C , 33-H ) :   0.9673 B( 18-C , 19-C ) :   1.2708 B( 18-C , 21-H ) :   0.9925
B( 19-C , 20-C ) :   1.5552 B( 19-C , 22-C ) :   1.0389 B( 22-C , 23-H ) :   0.9247
B( 22-C , 24-H ) :   0.9397 B( 22-C , 25-C ) :   1.0676 B( 25-C , 26-H ) :   0.9560
B( 25-C , 27-H ) :   0.9561 B( 25-C , 28-C ) :   1.0769 B( 28-C , 29-H ) :   0.9726
B( 28-C , 30-H ) :   0.9753 B( 28-C , 31-H ) :   0.9759

Dispersion correction           -0.013683464
FINAL SINGLE POINT ENERGY     -1339.871539884324

DIPOLE MOMENT
-------------
                                X             Y             Z
Electronic contribution:    -31.01442      10.27014       4.18863
Nuclear contribution   :     31.62553     -10.60034      -4.03875
                        -----------------------------------------
Total Dipole Moment    :      0.61111      -0.33019       0.14989
                        -----------------------------------------
Magnitude (a.u.)       :      0.71060
Magnitude (Debye)      :      1.80620

Rotational constants in cm-1:     0.017964     0.008868     0.006352
Rotational constants in MHz :   538.548037   265.862766   190.420803

                             ****ORCA TERMINATED NORMALLY****
TOTAL RUN TIME: 0 days 0 hours 0 minutes 21 seconds 593 msec
