                         Program Version 4.2.1 -  RELEASE  -
|  1> ! wB97X-D3 SP def2-SVP
|  2> %pal
|  3> nprocs 24
|  4> end
|  5>
|  6> * xyz 0 1
|  7> S 	 -106.039 	 34.96 	 -14.5636
|  8> C 	 -106.902 	 35.629 	 -15.9481
|  9> C 	 -108.192 	 35.961 	 -15.4974
| 10> C 	 -108.456 	 35.6248 	 -14.1101
| 11> C 	 -107.412 	 34.9555 	 -13.4998
| 12> H 	 -109.277 	 35.9733 	 -13.5521
| 13> C 	 -109.314 	 36.6363 	 -16.279
| 14> H 	 -108.951 	 37.0652 	 -17.3237
| 15> H 	 -109.645 	 37.4628 	 -15.6879
| 16> C 	 -110.464 	 35.6318 	 -16.7057
| 17> H 	 -110.187 	 34.9063 	 -17.4723
| 18> H 	 -110.696 	 35.0574 	 -15.8198
| 19> C 	 -111.764 	 36.2962 	 -17.2081
| 20> H 	 -112.042 	 37.095 	 -16.5143
| 21> H 	 -111.56 	 36.6782 	 -18.2135
| 22> H 	 -112.603 	 35.5859 	 -17.2311
| 23> S 	 -106.619 	 35.5499 	 -11.0094
| 24> C 	 -106.733 	 34.3314 	 -9.72039
| 25> C 	 -107.122 	 33.0849 	 -10.1475
| 26> C 	 -107.458 	 33.1359 	 -11.5576
| 27> C 	 -107.365 	 34.4237 	 -12.1324
| 28> H 	 -107.121 	 32.2772 	 -9.47402
| 29> C 	 -107.833 	 31.9169 	 -12.3599
| 30> H 	 -108.659 	 32.1876 	 -12.9492
| 31> H 	 -108.341 	 31.2088 	 -11.7018
| 32> C 	 -106.667 	 31.3098 	 -13.2775
| 33> H 	 -106.074 	 30.4703 	 -12.8323
| 34> H 	 -105.909 	 32.1468 	 -13.3855
| 35> C 	 -106.956 	 30.9497 	 -14.7698
| 36> H 	 -106.078 	 30.5925 	 -15.3754
| 37> H 	 -107.472 	 31.7154 	 -15.2944
| 38> H 	 -107.659 	 30.0867 	 -14.9102
| 39> H 	 -106.486 	 35.8096 	 -16.9329
| 40> H 	 -106.328 	 34.4682 	 -8.72703
| 41> *
| 42>
| 43>                          ****END OF INPUT****

CARTESIAN COORDINATES (ANGSTROEM)
---------------------------------
  S    -106.039000   34.960000  -14.563600
  C    -106.902000   35.629000  -15.948100
  C    -108.192000   35.961000  -15.497400
  C    -108.456000   35.624800  -14.110100
  C    -107.412000   34.955500  -13.499800
  H    -109.277000   35.973300  -13.552100
  C    -109.314000   36.636300  -16.279000
  H    -108.951000   37.065200  -17.323700
  H    -109.645000   37.462800  -15.687900
  C    -110.464000   35.631800  -16.705700
  H    -110.187000   34.906300  -17.472300
  H    -110.696000   35.057400  -15.819800
  C    -111.764000   36.296200  -17.208100
  H    -112.042000   37.095000  -16.514300
  H    -111.560000   36.678200  -18.213500
  H    -112.603000   35.585900  -17.231100
  S    -106.619000   35.549900  -11.009400
  C    -106.733000   34.331400   -9.720390
  C    -107.122000   33.084900  -10.147500
  C    -107.458000   33.135900  -11.557600
  C    -107.365000   34.423700  -12.132400
  H    -107.121000   32.277200   -9.474020
  C    -107.833000   31.916900  -12.359900
  H    -108.659000   32.187600  -12.949200
  H    -108.341000   31.208800  -11.701800
  C    -106.667000   31.309800  -13.277500
  H    -106.074000   30.470300  -12.832300
  H    -105.909000   32.146800  -13.385500
  C    -106.956000   30.949700  -14.769800
  H    -106.078000   30.592500  -15.375400
  H    -107.472000   31.715400  -15.294400
  H    -107.659000   30.086700  -14.910200
  H    -106.486000   35.809600  -16.932900
  H    -106.328000   34.468200   -8.727030

 Total Charge           Charge          ....    0
 Multiplicity           Mult            ....    1
 Number of Electrons    NEL             ....  134
 Basis Dimension        Dim             ....  322

ORBITAL ENERGIES
----------------

  NO   OCC          E(Eh)            E(eV)
   0   2.0000     -88.966468     -2420.9007
   1   2.0000     -88.966190     -2420.8931
   2   2.0000     -10.331921      -281.1459
   3   2.0000     -10.329065      -281.0681
   4   2.0000     -10.322136      -280.8796
   5   2.0000     -10.319492      -280.8076
   6   2.0000     -10.312514      -280.6178
   7   2.0000     -10.308106      -280.4978
   8   2.0000     -10.303647      -280.3765
   9   2.0000     -10.296707      -280.1877
  10   2.0000     -10.296076      -280.1705
  11   2.0000     -10.293925      -280.1119
  12   2.0000     -10.290575      -280.0208
  13   2.0000     -10.287032      -279.9244
  14   2.0000     -10.280263      -279.7402
  15   2.0000     -10.277390      -279.6620
  16   2.0000      -8.080765      -219.8888
  17   2.0000      -8.080509      -219.8818
  18   2.0000      -6.039304      -164.3378
  19   2.0000      -6.039079      -164.3317
  20   2.0000      -6.035340      -164.2300
  21   2.0000      -6.034903      -164.2180
  22   2.0000      -6.031510      -164.1257
  23   2.0000      -6.031362      -164.1217
  24   2.0000      -1.004070       -27.3221
  25   2.0000      -0.980156       -26.6714
  26   2.0000      -0.903058       -24.5735
  27   2.0000      -0.893923       -24.3249
  28   2.0000      -0.870632       -23.6911
  29   2.0000      -0.845805       -23.0155
  30   2.0000      -0.841342       -22.8941
  31   2.0000      -0.818001       -22.2589
  32   2.0000      -0.777809       -21.1653
  33   2.0000      -0.765160       -20.8211
  34   2.0000      -0.704390       -19.1674
  35   2.0000      -0.695645       -18.9295
  36   2.0000      -0.692450       -18.8425
  37   2.0000      -0.663814       -18.0633
  38   2.0000      -0.646664       -17.5966
  39   2.0000      -0.618636       -16.8339
  40   2.0000      -0.591445       -16.0940
  41   2.0000      -0.568450       -15.4683
  42   2.0000      -0.560219       -15.2443
  43   2.0000      -0.548164       -14.9163
  44   2.0000      -0.524717       -14.2783
  45   2.0000      -0.519672       -14.1410
  46   2.0000      -0.517939       -14.0938
  47   2.0000      -0.506780       -13.7902
  48   2.0000      -0.503783       -13.7086
  49   2.0000      -0.498668       -13.5695
  50   2.0000      -0.495909       -13.4944
  51   2.0000      -0.479308       -13.0426
  52   2.0000      -0.468845       -12.7579
  53   2.0000      -0.460773       -12.5383
  54   2.0000      -0.457084       -12.4379
  55   2.0000      -0.446408       -12.1474
  56   2.0000      -0.443952       -12.0806
  57   2.0000      -0.436013       -11.8645
  58   2.0000      -0.429061       -11.6754
  59   2.0000      -0.423894       -11.5347
  60   2.0000      -0.416876       -11.3438
  61   2.0000      -0.410122       -11.1600
  62   2.0000      -0.402501       -10.9526
  63   2.0000      -0.337876        -9.1941
  64   2.0000      -0.327868        -8.9217
  65   2.0000      -0.318311        -8.6617
  66   2.0000      -0.312320        -8.4987
  67   0.0000       0.040603         1.1049
  68   0.0000       0.046516         1.2658
  69   0.0000       0.109887         2.9902
  70   0.0000       0.113803         3.0967
  71   0.0000       0.126169         3.4332

MULLIKEN ATOMIC CHARGES
-----------------------
   0 S :    0.114897
   1 C :   -0.119431
   2 C :   -0.083228
   3 C :    0.056115
   4 C :   -0.149973
   5 H :    0.006053
   6 C :    0.024543
   7 H :    0.033796
   8 H :    0.033259
   9 C :   -0.088058
  10 H :    0.034572
  11 H :    0.021476
  12 C :   -0.047421
  13 H :    0.029162
  14 H :    0.034861
  15 H :    0.039851
  16 S :    0.104945
  17 C :   -0.084066
  18 C :   -0.009505
  19 C :   -0.064617
  20 C :   -0.172697
  21 H :    0.006891
  22 C :    0.127928
  23 H :    0.010956
  24 H :    0.016801
  25 C :   -0.088696
  26 H :    0.041420
  27 H :    0.040842
  28 C :   -0.075273
  29 H :    0.042608
  30 H :    0.031087
  31 H :    0.020418
  32 H :    0.056308
  33 H :    0.054175
Sum of atomic charges:   -0.0000000

LOEWDIN ATOMIC CHARGES
----------------------
   0 S :    0.415076
   1 C :   -0.196267
   2 C :   -0.062553
   3 C :   -0.056685
   4 C :   -0.207517
   5 H :    0.026479
   6 C :   -0.035467
   7 H :    0.036565
   8 H :    0.027130
   9 C :   -0.042563
  10 H :    0.025819
  11 H :    0.016877
  12 C :   -0.065485
  13 H :    0.023246
  14 H :    0.024540
  15 H :    0.028903
  16 S :    0.399170
  17 C :   -0.168669
  18 C :   -0.063238
  19 C :   -0.041914
  20 C :   -0.206070
  21 H :    0.028717
  22 C :   -0.034381
  23 H :    0.029338
  24 H :    0.031417
  25 C :   -0.045960
  26 H :    0.028589
  27 H :    0.026622
  28 C :   -0.077397
  29 H :    0.034713
  30 H :    0.018395
  31 H :    0.021866
  32 H :    0.033979
  33 H :    0.026722

  Mayer bond orders larger than 0.100000
B(  0-S ,  1-C ) :   1.1346 B(  0-S ,  4-C ) :   1.1625 B(  1-C ,  2-C ) :   1.5943
B(  1-C , 32-H ) :   0.9760 B(  2-C ,  3-C ) :   1.2357 B(  2-C ,  6-C ) :   1.0319
B(  3-C ,  4-C ) :   1.5771 B(  3-C ,  5-H ) :   0.9976 B(  4-C , 20-C ) :   1.0077
B(  6-C ,  7-H ) :   0.9490 B(  6-C ,  8-H ) :   0.9440 B(  6-C ,  9-C ) :   1.0470
B(  9-C , 10-H ) :   0.9589 B(  9-C , 11-H ) :   0.9613 B(  9-C , 12-C ) :   1.0798
B( 12-C , 13-H ) :   0.9769 B( 12-C , 14-H ) :   0.9770 B( 12-C , 15-H ) :   0.9746
B( 16-S , 17-C ) :   1.1550 B( 16-S , 20-C ) :   1.1444 B( 17-C , 18-C ) :   1.6279
B( 17-C , 33-H ) :   0.9625 B( 18-C , 19-C ) :   1.2230 B( 18-C , 21-H ) :   1.0018
B( 19-C , 20-C ) :   1.5999 B( 19-C , 22-C ) :   1.0566 B( 22-C , 23-H ) :   0.9326
B( 22-C , 24-H ) :   0.9323 B( 22-C , 25-C ) :   1.0103 B( 25-C , 26-H ) :   0.9605
B( 25-C , 27-H ) :   0.9639 B( 25-C , 28-C ) :   1.0725 B( 28-C , 29-H ) :   0.9748
B( 28-C , 30-H ) :   0.9759 B( 28-C , 31-H ) :   0.9756

Dispersion correction           -0.014714667
FINAL SINGLE POINT ENERGY     -1339.863112706420

DIPOLE MOMENT
-------------
                                X             Y             Z
Electronic contribution:     16.12087       9.49532      17.36383
Nuclear contribution   :    -16.43375      -9.67360     -17.46959
                        -----------------------------------------
Total Dipole Moment    :     -0.31288      -0.17828      -0.10575
                        -----------------------------------------
Magnitude (a.u.)       :      0.37531
Magnitude (Debye)      :      0.95397

Rotational constants in cm-1:     0.019016     0.008214     0.007295
Rotational constants in MHz :   570.093094   246.235553   218.705105

                             ****ORCA TERMINATED NORMALLY****
TOTAL RUN TIME: 0 days 0 hours 0 minutes 21 seconds 493 msec
