                         Program Version 4.2.1 -  RELEASE  -
|  1> ! wB97X-D3 SP def2-SVP
|  2> %pal
|  3> nprocs 24
|  4> end
|  5>
|  6> * xyz 0 1
|  7> S 	 -138.039 	 66.6846 	 -58.6039
|  8> C 	 -137.657 	 65.3345 	 -59.7001
|  9> C 	 -137.458 	 64.135 	 -59.0205
| 10> C 	 -137.837 	 64.2644 	 -57.6417
| 11> C 	 -138.305 	 65.5439 	 -57.2883
| 12> H 	 -137.821 	 63.5321 	 -56.8448
| 13> C 	 -136.963 	 62.8792 	 -59.6449
| 14> H 	 -136.088 	 62.3993 	 -59.0951
| 15> H 	 -136.533 	 63.0855 	 -60.5773
| 16> C 	 -138.105 	 61.8743 	 -59.887
| 17> H 	 -138.979 	 62.497 	 -60.0565
| 18> H 	 -137.98 	 61.2462 	 -60.7291
| 19> C 	 -138.473 	 61.0268 	 -58.6218
| 20> H 	 -137.584 	 60.5288 	 -58.1853
| 21> H 	 -139.051 	 61.6927 	 -57.886
| 22> H 	 -139.23 	 60.2389 	 -58.9063
| 23> S 	 -140.411 	 65.7347 	 -55.5434
| 24> C 	 -140.245 	 66.5681 	 -54.0659
| 25> C 	 -138.973 	 66.9572 	 -53.8677
| 26> C 	 -138.089 	 66.7216 	 -54.9457
| 27> C 	 -138.74 	 65.9671 	 -55.9574
| 28> H 	 -138.656 	 67.4806 	 -52.9997
| 29> C 	 -136.662 	 67.2118 	 -54.9882
| 30> H 	 -136.583 	 68.2855 	 -54.7624
| 31> H 	 -136.45 	 67.0449 	 -56.0221
| 32> C 	 -135.732 	 66.4915 	 -53.9317
| 33> H 	 -135.756 	 65.4312 	 -54.2126
| 34> H 	 -135.931 	 66.543 	 -52.847
| 35> C 	 -134.261 	 67.0226 	 -54.0905
| 36> H 	 -134.121 	 67.469 	 -55.0996
| 37> H 	 -133.487 	 66.263 	 -53.9687
| 38> H 	 -133.999 	 67.9188 	 -53.4347
| 39> H 	 -137.262 	 65.4702 	 -60.6304
| 40> H 	 -140.896 	 66.4742 	 -53.249
| 41> *
| 42>
| 43>                          ****END OF INPUT****

CARTESIAN COORDINATES (ANGSTROEM)
---------------------------------
  S    -138.039000   66.684600  -58.603900
  C    -137.657000   65.334500  -59.700100
  C    -137.458000   64.135000  -59.020500
  C    -137.837000   64.264400  -57.641700
  C    -138.305000   65.543900  -57.288300
  H    -137.821000   63.532100  -56.844800
  C    -136.963000   62.879200  -59.644900
  H    -136.088000   62.399300  -59.095100
  H    -136.533000   63.085500  -60.577300
  C    -138.105000   61.874300  -59.887000
  H    -138.979000   62.497000  -60.056500
  H    -137.980000   61.246200  -60.729100
  C    -138.473000   61.026800  -58.621800
  H    -137.584000   60.528800  -58.185300
  H    -139.051000   61.692700  -57.886000
  H    -139.230000   60.238900  -58.906300
  S    -140.411000   65.734700  -55.543400
  C    -140.245000   66.568100  -54.065900
  C    -138.973000   66.957200  -53.867700
  C    -138.089000   66.721600  -54.945700
  C    -138.740000   65.967100  -55.957400
  H    -138.656000   67.480600  -52.999700
  C    -136.662000   67.211800  -54.988200
  H    -136.583000   68.285500  -54.762400
  H    -136.450000   67.044900  -56.022100
  C    -135.732000   66.491500  -53.931700
  H    -135.756000   65.431200  -54.212600
  H    -135.931000   66.543000  -52.847000
  C    -134.261000   67.022600  -54.090500
  H    -134.121000   67.469000  -55.099600
  H    -133.487000   66.263000  -53.968700
  H    -133.999000   67.918800  -53.434700
  H    -137.262000   65.470200  -60.630400
  H    -140.896000   66.474200  -53.249000

 Total Charge           Charge          ....    0
 Multiplicity           Mult            ....    1
 Number of Electrons    NEL             ....  134
 Basis Dimension        Dim             ....  322

ORBITAL ENERGIES
----------------

  NO   OCC          E(Eh)            E(eV)
   0   2.0000     -88.969450     -2420.9818
   1   2.0000     -88.963178     -2420.8111
   2   2.0000     -10.332500      -281.1616
   3   2.0000     -10.325886      -280.9816
   4   2.0000     -10.311943      -280.6022
   5   2.0000     -10.306084      -280.4428
   6   2.0000     -10.304535      -280.4007
   7   2.0000     -10.301344      -280.3138
   8   2.0000     -10.299040      -280.2511
   9   2.0000     -10.295025      -280.1419
  10   2.0000     -10.293573      -280.1024
  11   2.0000     -10.292809      -280.0816
  12   2.0000     -10.288648      -279.9683
  13   2.0000     -10.283719      -279.8342
  14   2.0000     -10.283677      -279.8331
  15   2.0000     -10.282619      -279.8043
  16   2.0000      -8.083111      -219.9526
  17   2.0000      -8.079055      -219.8423
  18   2.0000      -6.041617      -164.4008
  19   2.0000      -6.037867      -164.2987
  20   2.0000      -6.037457      -164.2875
  21   2.0000      -6.033832      -164.1889
  22   2.0000      -6.033258      -164.1733
  23   2.0000      -6.030001      -164.0847
  24   2.0000      -1.007875       -27.4257
  25   2.0000      -0.984837       -26.7988
  26   2.0000      -0.913498       -24.8576
  27   2.0000      -0.903091       -24.5744
  28   2.0000      -0.868792       -23.6410
  29   2.0000      -0.846708       -23.0401
  30   2.0000      -0.841267       -22.8920
  31   2.0000      -0.816701       -22.2236
  32   2.0000      -0.781332       -21.2611
  33   2.0000      -0.767574       -20.8868
  34   2.0000      -0.705975       -19.2106
  35   2.0000      -0.700072       -19.0499
  36   2.0000      -0.697100       -18.9690
  37   2.0000      -0.660489       -17.9728
  38   2.0000      -0.646520       -17.5927
  39   2.0000      -0.618145       -16.8206
  40   2.0000      -0.597440       -16.2572
  41   2.0000      -0.576616       -15.6905
  42   2.0000      -0.559046       -15.2124
  43   2.0000      -0.545296       -14.8383
  44   2.0000      -0.541629       -14.7385
  45   2.0000      -0.525875       -14.3098
  46   2.0000      -0.513923       -13.9846
  47   2.0000      -0.508484       -13.8365
  48   2.0000      -0.502919       -13.6851
  49   2.0000      -0.495343       -13.4790
  50   2.0000      -0.490030       -13.3344
  51   2.0000      -0.480037       -13.0625
  52   2.0000      -0.470484       -12.8025
  53   2.0000      -0.463631       -12.6161
  54   2.0000      -0.455642       -12.3986
  55   2.0000      -0.443500       -12.0683
  56   2.0000      -0.439598       -11.9621
  57   2.0000      -0.436045       -11.8654
  58   2.0000      -0.432793       -11.7769
  59   2.0000      -0.427013       -11.6196
  60   2.0000      -0.423159       -11.5147
  61   2.0000      -0.418093       -11.3769
  62   2.0000      -0.413287       -11.2461
  63   2.0000      -0.335027        -9.1165
  64   2.0000      -0.331418        -9.0184
  65   2.0000      -0.320653        -8.7254
  66   2.0000      -0.309549        -8.4232
  67   0.0000       0.036367         0.9896
  68   0.0000       0.054979         1.4961
  69   0.0000       0.101242         2.7549
  70   0.0000       0.122567         3.3352
  71   0.0000       0.135433         3.6853

MULLIKEN ATOMIC CHARGES
-----------------------
   0 S :    0.115964
   1 C :   -0.068574
   2 C :   -0.106489
   3 C :    0.052060
   4 C :   -0.187545
   5 H :    0.016459
   6 C :    0.090454
   7 H :    0.042845
   8 H :   -0.004580
   9 C :   -0.058144
  10 H :    0.033156
  11 H :    0.026967
  12 C :   -0.109847
  13 H :    0.042251
  14 H :    0.052831
  15 H :    0.042382
  16 S :    0.118579
  17 C :   -0.050529
  18 C :   -0.033025
  19 C :   -0.040617
  20 C :   -0.203634
  21 H :    0.000248
  22 C :    0.096042
  23 H :    0.036006
  24 H :    0.019912
  25 C :   -0.090695
  26 H :    0.035910
  27 H :    0.048714
  28 C :   -0.086523
  29 H :    0.028594
  30 H :    0.040858
  31 H :    0.040439
  32 H :    0.015499
  33 H :    0.044032
Sum of atomic charges:    0.0000000

LOEWDIN ATOMIC CHARGES
----------------------
   0 S :    0.395606
   1 C :   -0.174354
   2 C :   -0.053808
   3 C :   -0.053522
   4 C :   -0.199247
   5 H :    0.031232
   6 C :   -0.033493
   7 H :    0.039265
   8 H :    0.021852
   9 C :   -0.036194
  10 H :    0.029131
  11 H :    0.017270
  12 C :   -0.078974
  13 H :    0.023359
  14 H :    0.034167
  15 H :    0.031048
  16 S :    0.437014
  17 C :   -0.195564
  18 C :   -0.068140
  19 C :   -0.052125
  20 C :   -0.217789
  21 H :    0.025169
  22 C :   -0.028260
  23 H :    0.033911
  24 H :    0.025847
  25 C :   -0.040535
  26 H :    0.026759
  27 H :    0.029682
  28 C :   -0.080348
  29 H :    0.026003
  30 H :    0.025022
  31 H :    0.030120
  32 H :    0.006776
  33 H :    0.023118

  Mayer bond orders larger than 0.100000
B(  0-S ,  1-C ) :   1.1379 B(  0-S ,  4-C ) :   1.1428 B(  1-C ,  2-C ) :   1.6147
B(  1-C , 32-H ) :   0.9689 B(  2-C ,  3-C ) :   1.2228 B(  2-C ,  6-C ) :   1.0487
B(  3-C ,  4-C ) :   1.5865 B(  3-C ,  5-H ) :   0.9887 B(  4-C , 20-C ) :   1.0194
B(  6-C ,  7-H ) :   0.9436 B(  6-C ,  8-H ) :   0.9255 B(  6-C ,  9-C ) :   1.0521
B(  9-C , 10-H ) :   0.9553 B(  9-C , 11-H ) :   0.9616 B(  9-C , 12-C ) :   1.0745
B( 12-C , 13-H ) :   0.9769 B( 12-C , 14-H ) :   0.9715 B( 12-C , 15-H ) :   0.9730
B( 16-S , 17-C ) :   1.1661 B( 16-S , 20-C ) :   1.1729 B( 17-C , 18-C ) :   1.5970
B( 17-C , 33-H ) :   0.9631 B( 18-C , 19-C ) :   1.2734 B( 18-C , 21-H ) :   0.9924
B( 19-C , 20-C ) :   1.5521 B( 19-C , 22-C ) :   1.0456 B( 22-C , 23-H ) :   0.9367
B( 22-C , 24-H ) :   0.9238 B( 22-C , 25-C ) :   1.0523 B( 25-C , 26-H ) :   0.9585
B( 25-C , 27-H ) :   0.9646 B( 25-C , 28-C ) :   1.0623 B( 28-C , 29-H ) :   0.9758
B( 28-C , 30-H ) :   0.9780 B( 28-C , 31-H ) :   0.9769

Dispersion correction           -0.014323458
FINAL SINGLE POINT ENERGY     -1339.866887551436

DIPOLE MOMENT
-------------
                                X             Y             Z
Electronic contribution:    -16.54238      12.17037      -2.35360
Nuclear contribution   :     17.03082     -12.46539       2.46354
                        -----------------------------------------
Total Dipole Moment    :      0.48844      -0.29502       0.10993
                        -----------------------------------------
Magnitude (a.u.)       :      0.58112
Magnitude (Debye)      :      1.47709

Rotational constants in cm-1:     0.017624     0.008320     0.007238
Rotational constants in MHz :   528.342284   249.417484   216.986830

                             ****ORCA TERMINATED NORMALLY****
TOTAL RUN TIME: 0 days 0 hours 0 minutes 21 seconds 303 msec
