                         Program Version 4.2.1 -  RELEASE  -
|  1> ! wB97X-D3 SP def2-SVP
|  2> %pal
|  3> nprocs 24
|  4> end
|  5>
|  6> * xyz 0 1
|  7> S 	 -67.8812 	 -42.2694 	 -91.5427
|  8> C 	 -66.3922 	 -41.7699 	 -92.2909
|  9> C 	 -66.0963 	 -42.5018 	 -93.4043
| 10> C 	 -66.9909 	 -43.6096 	 -93.5408
| 11> C 	 -68.1108 	 -43.5508 	 -92.7022
| 12> H 	 -66.919 	 -44.4244 	 -94.2307
| 13> C 	 -64.923 	 -42.2555 	 -94.2686
| 14> H 	 -64.544 	 -41.2791 	 -94.0758
| 15> H 	 -65.2825 	 -42.2699 	 -95.3135
| 16> C 	 -63.7025 	 -43.1809 	 -94.0659
| 17> H 	 -62.8775 	 -42.9998 	 -94.8167
| 18> H 	 -63.2557 	 -42.8471 	 -93.1814
| 19> C 	 -64.0252 	 -44.6833 	 -94.0752
| 20> H 	 -63.1365 	 -45.192 	 -94.3414
| 21> H 	 -64.2775 	 -44.9621 	 -93.0448
| 22> H 	 -64.8056 	 -44.9381 	 -94.8169
| 23> S 	 -69.4763 	 -45.1816 	 -90.9732
| 24> C 	 -70.6101 	 -46.3887 	 -91.5951
| 25> C 	 -70.8842 	 -46.0859 	 -92.9501
| 26> C 	 -70.1091 	 -45.0096 	 -93.4694
| 27> C 	 -69.1855 	 -44.5469 	 -92.5937
| 28> H 	 -71.6081 	 -46.5495 	 -93.5171
| 29> C 	 -70.2587 	 -44.5732 	 -94.9579
| 30> H 	 -69.8499 	 -43.5125 	 -95.0668
| 31> H 	 -71.3456 	 -44.6059 	 -95.1938
| 32> C 	 -69.4971 	 -45.443 	 -95.9511
| 33> H 	 -70.0283 	 -46.4505 	 -96.0093
| 34> H 	 -68.5863 	 -45.6941 	 -95.4395
| 35> C 	 -69.4631 	 -44.8129 	 -97.3347
| 36> H 	 -70.3906 	 -44.537 	 -97.7513
| 37> H 	 -69.1602 	 -45.6031 	 -97.9433
| 38> H 	 -68.7952 	 -43.9766 	 -97.5873
| 39> H 	 -65.7398 	 -40.9846 	 -91.9006
| 40> H 	 -70.9483 	 -47.2047 	 -91.0076
| 41> *
| 42>
| 43>                          ****END OF INPUT****

CARTESIAN COORDINATES (ANGSTROEM)
---------------------------------
  S    -67.881200  -42.269400  -91.542700
  C    -66.392200  -41.769900  -92.290900
  C    -66.096300  -42.501800  -93.404300
  C    -66.990900  -43.609600  -93.540800
  C    -68.110800  -43.550800  -92.702200
  H    -66.919000  -44.424400  -94.230700
  C    -64.923000  -42.255500  -94.268600
  H    -64.544000  -41.279100  -94.075800
  H    -65.282500  -42.269900  -95.313500
  C    -63.702500  -43.180900  -94.065900
  H    -62.877500  -42.999800  -94.816700
  H    -63.255700  -42.847100  -93.181400
  C    -64.025200  -44.683300  -94.075200
  H    -63.136500  -45.192000  -94.341400
  H    -64.277500  -44.962100  -93.044800
  H    -64.805600  -44.938100  -94.816900
  S    -69.476300  -45.181600  -90.973200
  C    -70.610100  -46.388700  -91.595100
  C    -70.884200  -46.085900  -92.950100
  C    -70.109100  -45.009600  -93.469400
  C    -69.185500  -44.546900  -92.593700
  H    -71.608100  -46.549500  -93.517100
  C    -70.258700  -44.573200  -94.957900
  H    -69.849900  -43.512500  -95.066800
  H    -71.345600  -44.605900  -95.193800
  C    -69.497100  -45.443000  -95.951100
  H    -70.028300  -46.450500  -96.009300
  H    -68.586300  -45.694100  -95.439500
  C    -69.463100  -44.812900  -97.334700
  H    -70.390600  -44.537000  -97.751300
  H    -69.160200  -45.603100  -97.943300
  H    -68.795200  -43.976600  -97.587300
  H    -65.739800  -40.984600  -91.900600
  H    -70.948300  -47.204700  -91.007600

 Total Charge           Charge          ....    0
 Multiplicity           Mult            ....    1
 Number of Electrons    NEL             ....  134
 Basis Dimension        Dim             ....  322

ORBITAL ENERGIES
----------------

  NO   OCC          E(Eh)            E(eV)
   0   2.0000     -88.964856     -2420.8568
   1   2.0000     -88.962438     -2420.7910
   2   2.0000     -10.329577      -281.0821
   3   2.0000     -10.325305      -280.9658
   4   2.0000     -10.322915      -280.9008
   5   2.0000     -10.311588      -280.5926
   6   2.0000     -10.300483      -280.2904
   7   2.0000     -10.296814      -280.1906
   8   2.0000     -10.296675      -280.1868
   9   2.0000     -10.293572      -280.1023
  10   2.0000     -10.293357      -280.0965
  11   2.0000     -10.290839      -280.0280
  12   2.0000     -10.287651      -279.9412
  13   2.0000     -10.284769      -279.8628
  14   2.0000     -10.275206      -279.6026
  15   2.0000     -10.272285      -279.5231
  16   2.0000      -8.079867      -219.8644
  17   2.0000      -8.077003      -219.7864
  18   2.0000      -6.038321      -164.3111
  19   2.0000      -6.035513      -164.2347
  20   2.0000      -6.034327      -164.2024
  21   2.0000      -6.031579      -164.1276
  22   2.0000      -6.030685      -164.1033
  23   2.0000      -6.027719      -164.0226
  24   2.0000      -1.006531       -27.3891
  25   2.0000      -0.984399       -26.7869
  26   2.0000      -0.914243       -24.8778
  27   2.0000      -0.908393       -24.7186
  28   2.0000      -0.867183       -23.5972
  29   2.0000      -0.852137       -23.1878
  30   2.0000      -0.843358       -22.9489
  31   2.0000      -0.815418       -22.1887
  32   2.0000      -0.785478       -21.3739
  33   2.0000      -0.776548       -21.1309
  34   2.0000      -0.703304       -19.1379
  35   2.0000      -0.701797       -19.0969
  36   2.0000      -0.694459       -18.8972
  37   2.0000      -0.672823       -18.3084
  38   2.0000      -0.642313       -17.4782
  39   2.0000      -0.613128       -16.6841
  40   2.0000      -0.595774       -16.2118
  41   2.0000      -0.571839       -15.5605
  42   2.0000      -0.563955       -15.3460
  43   2.0000      -0.546494       -14.8708
  44   2.0000      -0.542624       -14.7656
  45   2.0000      -0.526499       -14.3268
  46   2.0000      -0.521017       -14.1776
  47   2.0000      -0.516430       -14.0528
  48   2.0000      -0.509867       -13.8742
  49   2.0000      -0.497471       -13.5369
  50   2.0000      -0.493073       -13.4172
  51   2.0000      -0.480968       -13.0878
  52   2.0000      -0.478283       -13.0148
  53   2.0000      -0.468496       -12.7484
  54   2.0000      -0.459406       -12.5011
  55   2.0000      -0.447356       -12.1732
  56   2.0000      -0.440611       -11.9896
  57   2.0000      -0.435412       -11.8482
  58   2.0000      -0.430071       -11.7028
  59   2.0000      -0.426251       -11.5989
  60   2.0000      -0.417513       -11.3611
  61   2.0000      -0.413864       -11.2618
  62   2.0000      -0.411866       -11.2074
  63   2.0000      -0.343722        -9.3531
  64   2.0000      -0.329981        -8.9792
  65   2.0000      -0.328261        -8.9324
  66   2.0000      -0.293056        -7.9745
  67   0.0000       0.031325         0.8524
  68   0.0000       0.065125         1.7721
  69   0.0000       0.108439         2.9508
  70   0.0000       0.118831         3.2336
  71   0.0000       0.131802         3.5865

MULLIKEN ATOMIC CHARGES
-----------------------
   0 S :    0.110622
   1 C :   -0.132253
   2 C :   -0.076166
   3 C :    0.023112
   4 C :   -0.141467
   5 H :   -0.006104
   6 C :    0.088692
   7 H :    0.004373
   8 H :    0.035555
   9 C :   -0.078433
  10 H :    0.030535
  11 H :    0.008317
  12 C :   -0.036559
  13 H :    0.022951
  14 H :    0.048938
  15 H :    0.036818
  16 S :    0.093442
  17 C :   -0.083069
  18 C :    0.004593
  19 C :   -0.034025
  20 C :   -0.168846
  21 H :   -0.013013
  22 C :    0.026126
  23 H :    0.045882
  24 H :    0.031752
  25 C :   -0.075274
  26 H :    0.026883
  27 H :    0.024654
  28 C :    0.008597
  29 H :    0.014105
  30 H :    0.012584
  31 H :    0.038677
  32 H :    0.051284
  33 H :    0.056717
Sum of atomic charges:   -0.0000000

LOEWDIN ATOMIC CHARGES
----------------------
   0 S :    0.407844
   1 C :   -0.198277
   2 C :   -0.067181
   3 C :   -0.057295
   4 C :   -0.196193
   5 H :    0.022525
   6 C :   -0.031004
   7 H :    0.026128
   8 H :    0.033975
   9 C :   -0.037473
  10 H :    0.027878
  11 H :    0.014255
  12 C :   -0.063709
  13 H :    0.021260
  14 H :    0.032712
  15 H :    0.026324
  16 S :    0.388936
  17 C :   -0.167333
  18 C :   -0.057692
  19 C :   -0.060020
  20 C :   -0.192235
  21 H :    0.015735
  22 C :   -0.033890
  23 H :    0.037746
  24 H :    0.030567
  25 C :   -0.041941
  26 H :    0.030587
  27 H :    0.019471
  28 C :   -0.063971
  29 H :    0.022700
  30 H :    0.023375
  31 H :    0.030981
  32 H :    0.031549
  33 H :    0.023666

  Mayer bond orders larger than 0.100000
B(  0-S ,  1-C ) :   1.1406 B(  0-S ,  4-C ) :   1.1520 B(  1-C ,  2-C ) :   1.6115
B(  1-C , 32-H ) :   0.9632 B(  2-C ,  3-C ) :   1.2289 B(  2-C ,  6-C ) :   1.0389
B(  3-C ,  4-C ) :   1.5767 B(  3-C ,  5-H ) :   0.9950 B(  4-C , 20-C ) :   1.0296
B(  6-C ,  7-H ) :   0.9355 B(  6-C ,  8-H ) :   0.9354 B(  6-C ,  9-C ) :   1.0707
B(  9-C , 10-H ) :   0.9594 B(  9-C , 11-H ) :   0.9554 B(  9-C , 12-C ) :   1.0801
B( 12-C , 13-H ) :   0.9715 B( 12-C , 14-H ) :   0.9716 B( 12-C , 15-H ) :   0.9745
B( 16-S , 17-C ) :   1.1561 B( 16-S , 20-C ) :   1.1320 B( 17-C , 18-C ) :   1.5740
B( 17-C , 20-C ) :   0.1052 B( 17-C , 33-H ) :   0.9791 B( 18-C , 19-C ) :   1.2412
B( 18-C , 21-H ) :   1.0013 B( 19-C , 20-C ) :   1.6193 B( 19-C , 22-C ) :   1.0442
B( 22-C , 23-H ) :   0.9381 B( 22-C , 24-H ) :   0.9339 B( 22-C , 25-C ) :   1.0651
B( 25-C , 26-H ) :   0.9491 B( 25-C , 27-H ) :   0.9553 B( 25-C , 28-C ) :   1.0726
B( 28-C , 29-H ) :   0.9689 B( 28-C , 30-H ) :   0.9687 B( 28-C , 31-H ) :   0.9744

Dispersion correction           -0.014717182
FINAL SINGLE POINT ENERGY     -1339.871535700929

DIPOLE MOMENT
-------------
                                X             Y             Z
Electronic contribution:    -12.12176       4.27806      25.12835
Nuclear contribution   :     12.38689      -4.50139     -25.75758
                        -----------------------------------------
Total Dipole Moment    :      0.26513      -0.22333      -0.62923
                        -----------------------------------------
Magnitude (a.u.)       :      0.71840
Magnitude (Debye)      :      1.82603

Rotational constants in cm-1:     0.016661     0.009840     0.007435
Rotational constants in MHz :   499.488076   295.001015   222.884550

                             ****ORCA TERMINATED NORMALLY****
TOTAL RUN TIME: 0 days 0 hours 0 minutes 22 seconds 335 msec
