                         Program Version 4.2.1 -  RELEASE  -
|  1> ! wB97X-D3 SP def2-SVP
|  2> %pal
|  3> nprocs 24
|  4> end
|  5>
|  6> * xyz 0 1
|  7> S 	 -109.104 	 62.8696 	 -4.85048
|  8> C 	 -107.772 	 64.0109 	 -5.05961
|  9> C 	 -108.193 	 65.3044 	 -5.15044
| 10> C 	 -109.617 	 65.3634 	 -5.1499
| 11> C 	 -110.289 	 64.1474 	 -4.97703
| 12> H 	 -110.125 	 66.3327 	 -5.33823
| 13> C 	 -107.24 	 66.5225 	 -5.26529
| 14> H 	 -106.277 	 66.2021 	 -4.839
| 15> H 	 -107.708 	 67.2829 	 -4.67243
| 16> C 	 -106.955 	 66.9879 	 -6.69322
| 17> H 	 -106.701 	 66.1755 	 -7.2864
| 18> H 	 -107.916 	 67.4539 	 -7.04459
| 19> C 	 -105.821 	 68.0261 	 -6.644
| 20> H 	 -105.99 	 68.9015 	 -5.99245
| 21> H 	 -104.91 	 67.5716 	 -6.33283
| 22> H 	 -105.546 	 68.3651 	 -7.65387
| 23> S 	 -112.386 	 62.9134 	 -6.21242
| 24> C 	 -114.032 	 63.3723 	 -5.79543
| 25> C 	 -114.023 	 64.267 	 -4.76769
| 26> C 	 -112.687 	 64.6861 	 -4.32856
| 27> C 	 -111.748 	 63.8945 	 -4.92678
| 28> H 	 -114.9 	 64.7859 	 -4.48957
| 29> C 	 -112.483 	 65.8354 	 -3.30699
| 30> H 	 -112.773 	 66.8186 	 -3.78771
| 31> H 	 -111.418 	 66.1325 	 -3.07042
| 32> C 	 -113.219 	 65.7438 	 -1.92049
| 33> H 	 -114.35 	 65.7515 	 -2.14535
| 34> H 	 -113.132 	 66.6137 	 -1.27557
| 35> C 	 -112.82 	 64.5084 	 -1.09848
| 36> H 	 -113.329 	 64.4414 	 -0.154879
| 37> H 	 -111.815 	 64.3915 	 -0.717744
| 38> H 	 -113.099 	 63.6305 	 -1.64861
| 39> H 	 -106.752 	 63.6773 	 -5.00978
| 40> H 	 -114.998 	 63.0591 	 -6.31685
| 41> *
| 42>
| 43>                          ****END OF INPUT****

CARTESIAN COORDINATES (ANGSTROEM)
---------------------------------
  S    -109.104000   62.869600   -4.850480
  C    -107.772000   64.010900   -5.059610
  C    -108.193000   65.304400   -5.150440
  C    -109.617000   65.363400   -5.149900
  C    -110.289000   64.147400   -4.977030
  H    -110.125000   66.332700   -5.338230
  C    -107.240000   66.522500   -5.265290
  H    -106.277000   66.202100   -4.839000
  H    -107.708000   67.282900   -4.672430
  C    -106.955000   66.987900   -6.693220
  H    -106.701000   66.175500   -7.286400
  H    -107.916000   67.453900   -7.044590
  C    -105.821000   68.026100   -6.644000
  H    -105.990000   68.901500   -5.992450
  H    -104.910000   67.571600   -6.332830
  H    -105.546000   68.365100   -7.653870
  S    -112.386000   62.913400   -6.212420
  C    -114.032000   63.372300   -5.795430
  C    -114.023000   64.267000   -4.767690
  C    -112.687000   64.686100   -4.328560
  C    -111.748000   63.894500   -4.926780
  H    -114.900000   64.785900   -4.489570
  C    -112.483000   65.835400   -3.306990
  H    -112.773000   66.818600   -3.787710
  H    -111.418000   66.132500   -3.070420
  C    -113.219000   65.743800   -1.920490
  H    -114.350000   65.751500   -2.145350
  H    -113.132000   66.613700   -1.275570
  C    -112.820000   64.508400   -1.098480
  H    -113.329000   64.441400   -0.154879
  H    -111.815000   64.391500   -0.717744
  H    -113.099000   63.630500   -1.648610
  H    -106.752000   63.677300   -5.009780
  H    -114.998000   63.059100   -6.316850

 Total Charge           Charge          ....    0
 Multiplicity           Mult            ....    1
 Number of Electrons    NEL             ....  134
 Basis Dimension        Dim             ....  322

ORBITAL ENERGIES
----------------

  NO   OCC          E(Eh)            E(eV)
   0   2.0000     -88.965717     -2420.8802
   1   2.0000     -88.963066     -2420.8081
   2   2.0000     -10.330870      -281.1173
   3   2.0000     -10.326723      -281.0044
   4   2.0000     -10.324542      -280.9451
   5   2.0000     -10.311312      -280.5851
   6   2.0000     -10.310098      -280.5520
   7   2.0000     -10.306509      -280.4544
   8   2.0000     -10.297666      -280.2137
   9   2.0000     -10.296895      -280.1928
  10   2.0000     -10.295962      -280.1674
  11   2.0000     -10.293827      -280.1093
  12   2.0000     -10.293542      -280.1015
  13   2.0000     -10.286619      -279.9131
  14   2.0000     -10.279356      -279.7155
  15   2.0000     -10.267311      -279.3877
  16   2.0000      -8.080715      -219.8874
  17   2.0000      -8.077722      -219.8060
  18   2.0000      -6.039419      -164.3410
  19   2.0000      -6.036231      -164.2542
  20   2.0000      -6.035242      -164.2273
  21   2.0000      -6.032167      -164.1436
  22   2.0000      -6.031165      -164.1164
  23   2.0000      -6.028585      -164.0461
  24   2.0000      -1.005816       -27.3696
  25   2.0000      -0.983090       -26.7512
  26   2.0000      -0.912746       -24.8371
  27   2.0000      -0.897559       -24.4238
  28   2.0000      -0.869070       -23.6486
  29   2.0000      -0.847131       -23.0516
  30   2.0000      -0.841652       -22.9025
  31   2.0000      -0.810995       -22.0683
  32   2.0000      -0.782868       -21.3029
  33   2.0000      -0.774443       -21.0737
  34   2.0000      -0.706121       -19.2145
  35   2.0000      -0.699878       -19.0446
  36   2.0000      -0.690237       -18.7823
  37   2.0000      -0.658819       -17.9274
  38   2.0000      -0.636495       -17.3199
  39   2.0000      -0.619786       -16.8652
  40   2.0000      -0.595018       -16.1913
  41   2.0000      -0.576784       -15.6951
  42   2.0000      -0.558359       -15.1937
  43   2.0000      -0.549353       -14.9487
  44   2.0000      -0.533537       -14.5183
  45   2.0000      -0.521095       -14.1797
  46   2.0000      -0.509383       -13.8610
  47   2.0000      -0.507842       -13.8191
  48   2.0000      -0.499117       -13.5817
  49   2.0000      -0.497852       -13.5472
  50   2.0000      -0.486917       -13.2497
  51   2.0000      -0.477910       -13.0046
  52   2.0000      -0.470864       -12.8129
  53   2.0000      -0.463962       -12.6251
  54   2.0000      -0.459085       -12.4923
  55   2.0000      -0.445637       -12.1264
  56   2.0000      -0.443831       -12.0773
  57   2.0000      -0.441413       -12.0115
  58   2.0000      -0.432895       -11.7797
  59   2.0000      -0.425196       -11.5702
  60   2.0000      -0.422046       -11.4845
  61   2.0000      -0.416225       -11.3260
  62   2.0000      -0.406025       -11.0485
  63   2.0000      -0.347549        -9.4573
  64   2.0000      -0.331532        -9.0215
  65   2.0000      -0.327102        -8.9009
  66   2.0000      -0.298163        -8.1134
  67   0.0000       0.036049         0.9809
  68   0.0000       0.071572         1.9476
  69   0.0000       0.112042         3.0488
  70   0.0000       0.115364         3.1392
  71   0.0000       0.132730         3.6118

MULLIKEN ATOMIC CHARGES
-----------------------
   0 S :    0.100346
   1 C :   -0.131639
   2 C :   -0.091808
   3 C :    0.020694
   4 C :   -0.162137
   5 H :    0.018732
   6 C :    0.059147
   7 H :    0.018280
   8 H :    0.025529
   9 C :   -0.036205
  10 H :    0.019841
  11 H :    0.034045
  12 C :   -0.039185
  13 H :    0.037323
  14 H :    0.015599
  15 H :    0.030008
  16 S :    0.107090
  17 C :   -0.112484
  18 C :   -0.010936
  19 C :   -0.034950
  20 C :   -0.117949
  21 H :    0.007140
  22 C :    0.014243
  23 H :    0.039734
  24 H :    0.038946
  25 C :   -0.086915
  26 H :    0.032854
  27 H :    0.028826
  28 C :   -0.033372
  29 H :    0.016901
  30 H :    0.029406
  31 H :    0.035975
  32 H :    0.041104
  33 H :    0.085817
Sum of atomic charges:    0.0000000

LOEWDIN ATOMIC CHARGES
----------------------
   0 S :    0.396981
   1 C :   -0.188156
   2 C :   -0.068323
   3 C :   -0.069434
   4 C :   -0.196373
   5 H :    0.032636
   6 C :   -0.022440
   7 H :    0.029142
   8 H :    0.027110
   9 C :   -0.030853
  10 H :    0.017225
  11 H :    0.029312
  12 C :   -0.066154
  13 H :    0.028914
  14 H :    0.019135
  15 H :    0.027432
  16 S :    0.406445
  17 C :   -0.190699
  18 C :   -0.067774
  19 C :   -0.049755
  20 C :   -0.203449
  21 H :    0.023276
  22 C :   -0.044166
  23 H :    0.038051
  24 H :    0.036415
  25 C :   -0.044848
  26 H :    0.028088
  27 H :    0.023753
  28 C :   -0.071516
  29 H :    0.024436
  30 H :    0.027056
  31 H :    0.025558
  32 H :    0.022397
  33 H :    0.050579

  Mayer bond orders larger than 0.100000
B(  0-S ,  1-C ) :   1.1402 B(  0-S ,  4-C ) :   1.1594 B(  1-C ,  2-C ) :   1.6142
B(  1-C , 32-H ) :   0.9704 B(  2-C ,  3-C ) :   1.2654 B(  2-C ,  6-C ) :   1.0088
B(  3-C ,  4-C ) :   1.5642 B(  3-C ,  5-H ) :   0.9851 B(  4-C , 20-C ) :   0.9981
B(  6-C ,  7-H ) :   0.9452 B(  6-C ,  8-H ) :   0.9390 B(  6-C ,  9-C ) :   1.0691
B(  9-C , 10-H ) :   0.9550 B(  9-C , 11-H ) :   0.9541 B(  9-C , 12-C ) :   1.0853
B( 12-C , 13-H ) :   0.9749 B( 12-C , 14-H ) :   0.9724 B( 12-C , 15-H ) :   0.9730
B( 16-S , 17-C ) :   1.1352 B( 16-S , 20-C ) :   1.1450 B( 17-C , 18-C ) :   1.6519
B( 17-C , 33-H ) :   0.9565 B( 18-C , 19-C ) :   1.2036 B( 18-C , 21-H ) :   0.9899
B( 19-C , 20-C ) :   1.6389 B( 19-C , 22-C ) :   1.0284 B( 22-C , 23-H ) :   0.9370
B( 22-C , 24-H ) :   0.9438 B( 22-C , 25-C ) :   1.0653 B( 25-C , 26-H ) :   0.9546
B( 25-C , 27-H ) :   0.9571 B( 25-C , 28-C ) :   1.0736 B( 28-C , 29-H ) :   0.9706
B( 28-C , 30-H ) :   0.9745 B( 28-C , 31-H ) :   0.9750

Dispersion correction           -0.013954563
FINAL SINGLE POINT ENERGY     -1339.879349493069

DIPOLE MOMENT
-------------
                                X             Y             Z
Electronic contribution:     -7.29940     -21.61190      -8.90156
Nuclear contribution   :      7.30863      22.36125       8.99257
                        -----------------------------------------
Total Dipole Moment    :      0.00923       0.74935       0.09101
                        -----------------------------------------
Magnitude (a.u.)       :      0.75492
Magnitude (Debye)      :      1.91885

Rotational constants in cm-1:     0.019702     0.007427     0.006602
Rotational constants in MHz :   590.650384   222.653228   197.923762

                             ****ORCA TERMINATED NORMALLY****
TOTAL RUN TIME: 0 days 0 hours 0 minutes 21 seconds 89 msec
