                         Program Version 4.2.1 -  RELEASE  -
|  1> ! wB97X-D3 SP def2-SVP
|  2> %pal
|  3> nprocs 24
|  4> end
|  5>
|  6> * xyz 0 1
|  7> S 	 40.8283 	 -17.9249 	 -113.279
|  8> C 	 41.2362 	 -16.9528 	 -111.886
|  9> C 	 41.1479 	 -17.6869 	 -110.742
| 10> C 	 40.8916 	 -19.0386 	 -111.015
| 11> C 	 40.6459 	 -19.3562 	 -112.347
| 12> H 	 40.923 	 -19.8519 	 -110.305
| 13> C 	 41.169 	 -17.0405 	 -109.36
| 14> H 	 40.2191 	 -16.5155 	 -109.015
| 15> H 	 41.7908 	 -16.0828 	 -109.451
| 16> C 	 41.955 	 -17.6917 	 -108.223
| 17> H 	 41.5747 	 -18.6181 	 -107.95
| 18> H 	 43.002 	 -17.7243 	 -108.373
| 19> C 	 41.6896 	 -16.9532 	 -106.898
| 20> H 	 40.6762 	 -17.1201 	 -106.434
| 21> H 	 42.4884 	 -17.2643 	 -106.174
| 22> H 	 41.9494 	 -15.8588 	 -106.989
| 23> S 	 41.0025 	 -21.1429 	 -114.407
| 24> C 	 39.9469 	 -22.5406 	 -114.477
| 25> C 	 39.4158 	 -22.7697 	 -113.223
| 26> C 	 39.756 	 -21.7286 	 -112.255
| 27> C 	 40.3519 	 -20.6697 	 -112.89
| 28> H 	 38.8073 	 -23.6914 	 -113.081
| 29> C 	 39.1771 	 -21.7926 	 -110.909
| 30> H 	 38.1194 	 -22.1956 	 -110.934
| 31> H 	 38.974 	 -20.7435 	 -110.638
| 32> C 	 40.0179 	 -22.3878 	 -109.801
| 33> H 	 41.0502 	 -22.1753 	 -109.92
| 34> H 	 39.9342 	 -23.4494 	 -109.958
| 35> C 	 39.6043 	 -21.9771 	 -108.383
| 36> H 	 40.3336 	 -22.1026 	 -107.561
| 37> H 	 38.6905 	 -22.4954 	 -108.099
| 38> H 	 39.2988 	 -20.9412 	 -108.257
| 39> H 	 41.2879 	 -15.9046 	 -111.837
| 40> H 	 39.8408 	 -23.2302 	 -115.322
| 41> *
| 42>
| 43>                          ****END OF INPUT****

CARTESIAN COORDINATES (ANGSTROEM)
---------------------------------
  S     40.828300  -17.924900  -113.279000
  C     41.236200  -16.952800  -111.886000
  C     41.147900  -17.686900  -110.742000
  C     40.891600  -19.038600  -111.015000
  C     40.645900  -19.356200  -112.347000
  H     40.923000  -19.851900  -110.305000
  C     41.169000  -17.040500  -109.360000
  H     40.219100  -16.515500  -109.015000
  H     41.790800  -16.082800  -109.451000
  C     41.955000  -17.691700  -108.223000
  H     41.574700  -18.618100  -107.950000
  H     43.002000  -17.724300  -108.373000
  C     41.689600  -16.953200  -106.898000
  H     40.676200  -17.120100  -106.434000
  H     42.488400  -17.264300  -106.174000
  H     41.949400  -15.858800  -106.989000
  S     41.002500  -21.142900  -114.407000
  C     39.946900  -22.540600  -114.477000
  C     39.415800  -22.769700  -113.223000
  C     39.756000  -21.728600  -112.255000
  C     40.351900  -20.669700  -112.890000
  H     38.807300  -23.691400  -113.081000
  C     39.177100  -21.792600  -110.909000
  H     38.119400  -22.195600  -110.934000
  H     38.974000  -20.743500  -110.638000
  C     40.017900  -22.387800  -109.801000
  H     41.050200  -22.175300  -109.920000
  H     39.934200  -23.449400  -109.958000
  C     39.604300  -21.977100  -108.383000
  H     40.333600  -22.102600  -107.561000
  H     38.690500  -22.495400  -108.099000
  H     39.298800  -20.941200  -108.257000
  H     41.287900  -15.904600  -111.837000
  H     39.840800  -23.230200  -115.322000

 Total Charge           Charge          ....    0
 Multiplicity           Mult            ....    1
 Number of Electrons    NEL             ....  134
 Basis Dimension        Dim             ....  322

ORBITAL ENERGIES
----------------

  NO   OCC          E(Eh)            E(eV)
   0   2.0000     -88.968436     -2420.9542
   1   2.0000     -88.963232     -2420.8126
   2   2.0000     -10.328464      -281.0518
   3   2.0000     -10.326139      -280.9885
   4   2.0000     -10.317049      -280.7412
   5   2.0000     -10.308672      -280.5132
   6   2.0000     -10.303251      -280.3657
   7   2.0000     -10.301676      -280.3228
   8   2.0000     -10.299267      -280.2573
   9   2.0000     -10.298063      -280.2245
  10   2.0000     -10.290588      -280.0211
  11   2.0000     -10.289695      -279.9968
  12   2.0000     -10.289497      -279.9914
  13   2.0000     -10.285131      -279.8727
  14   2.0000     -10.281595      -279.7764
  15   2.0000     -10.281439      -279.7722
  16   2.0000      -8.083491      -219.9630
  17   2.0000      -8.078782      -219.8348
  18   2.0000      -6.041972      -164.4104
  19   2.0000      -6.037842      -164.2980
  20   2.0000      -6.037330      -164.2841
  21   2.0000      -6.034355      -164.2031
  22   2.0000      -6.033374      -164.1765
  23   2.0000      -6.029247      -164.0641
  24   2.0000      -1.015685       -27.6382
  25   2.0000      -0.991690       -26.9853
  26   2.0000      -0.916619       -24.9425
  27   2.0000      -0.913837       -24.8668
  28   2.0000      -0.875704       -23.8291
  29   2.0000      -0.855600       -23.2821
  30   2.0000      -0.846259       -23.0279
  31   2.0000      -0.817432       -22.2435
  32   2.0000      -0.781292       -21.2600
  33   2.0000      -0.772047       -21.0085
  34   2.0000      -0.715062       -19.4578
  35   2.0000      -0.703647       -19.1472
  36   2.0000      -0.693690       -18.8763
  37   2.0000      -0.663029       -18.0419
  38   2.0000      -0.640845       -17.4383
  39   2.0000      -0.623947       -16.9785
  40   2.0000      -0.598129       -16.2759
  41   2.0000      -0.576023       -15.6744
  42   2.0000      -0.572102       -15.5677
  43   2.0000      -0.565010       -15.3747
  44   2.0000      -0.528879       -14.3915
  45   2.0000      -0.526249       -14.3200
  46   2.0000      -0.512772       -13.9532
  47   2.0000      -0.511902       -13.9296
  48   2.0000      -0.508135       -13.8271
  49   2.0000      -0.502558       -13.6753
  50   2.0000      -0.495091       -13.4721
  51   2.0000      -0.481692       -13.1075
  52   2.0000      -0.473762       -12.8917
  53   2.0000      -0.465016       -12.6537
  54   2.0000      -0.461868       -12.5681
  55   2.0000      -0.446299       -12.1444
  56   2.0000      -0.442232       -12.0337
  57   2.0000      -0.439582       -11.9616
  58   2.0000      -0.436003       -11.8643
  59   2.0000      -0.426187       -11.5971
  60   2.0000      -0.419837       -11.4243
  61   2.0000      -0.410779       -11.1779
  62   2.0000      -0.409714       -11.1489
  63   2.0000      -0.355911        -9.6848
  64   2.0000      -0.333504        -9.0751
  65   2.0000      -0.326346        -8.8803
  66   2.0000      -0.289227        -7.8703
  67   0.0000       0.020864         0.5677
  68   0.0000       0.082718         2.2509
  69   0.0000       0.107558         2.9268
  70   0.0000       0.119313         3.2467
  71   0.0000       0.126569         3.4441

MULLIKEN ATOMIC CHARGES
-----------------------
   0 S :    0.119850
   1 C :   -0.090886
   2 C :   -0.034107
   3 C :    0.021363
   4 C :   -0.151972
   5 H :   -0.015064
   6 C :   -0.012579
   7 H :    0.057069
   8 H :    0.018893
   9 C :   -0.015967
  10 H :    0.016632
  11 H :    0.033895
  12 C :   -0.124839
  13 H :    0.057438
  14 H :    0.035605
  15 H :    0.027970
  16 S :    0.106327
  17 C :   -0.099165
  18 C :   -0.048279
  19 C :   -0.023648
  20 C :   -0.110818
  21 H :    0.034825
  22 C :   -0.010426
  23 H :    0.036992
  24 H :    0.018554
  25 C :   -0.026130
  26 H :    0.030028
  27 H :    0.024921
  28 C :   -0.053318
  29 H :    0.040915
  30 H :    0.025095
  31 H :    0.021309
  32 H :    0.027473
  33 H :    0.062045
Sum of atomic charges:   -0.0000000

LOEWDIN ATOMIC CHARGES
----------------------
   0 S :    0.427939
   1 C :   -0.186886
   2 C :   -0.069174
   3 C :   -0.065032
   4 C :   -0.201321
   5 H :    0.026986
   6 C :   -0.046497
   7 H :    0.042861
   8 H :    0.037878
   9 C :   -0.036565
  10 H :    0.013442
  11 H :    0.024555
  12 C :   -0.074861
  13 H :    0.031557
  14 H :    0.030468
  15 H :    0.023073
  16 S :    0.406029
  17 C :   -0.190059
  18 C :   -0.070288
  19 C :   -0.058535
  20 C :   -0.197423
  21 H :    0.038345
  22 C :   -0.045514
  23 H :    0.037660
  24 H :    0.029566
  25 C :   -0.039134
  26 H :    0.020670
  27 H :    0.026733
  28 C :   -0.071593
  29 H :    0.031036
  30 H :    0.026389
  31 H :    0.022933
  32 H :    0.020806
  33 H :    0.033957

  Mayer bond orders larger than 0.100000
B(  0-S ,  1-C ) :   1.1426 B(  0-S ,  4-C ) :   1.1626 B(  1-C ,  2-C ) :   1.6022
B(  1-C , 32-H ) :   0.9697 B(  2-C ,  3-C ) :   1.2712 B(  2-C ,  6-C ) :   1.0074
B(  3-C ,  4-C ) :   1.5326 B(  3-C ,  5-H ) :   0.9945 B(  4-C , 20-C ) :   1.0693
B(  6-C ,  7-H ) :   0.9469 B(  6-C ,  8-H ) :   0.9381 B(  6-C ,  9-C ) :   1.0588
B(  9-C , 10-H ) :   0.9511 B(  9-C , 11-H ) :   0.9595 B(  9-C , 12-C ) :   1.0790
B( 12-C , 13-H ) :   0.9770 B( 12-C , 14-H ) :   0.9726 B( 12-C , 15-H ) :   0.9715
B( 16-S , 17-C ) :   1.1273 B( 16-S , 20-C ) :   1.1414 B( 17-C , 18-C ) :   1.6362
B( 17-C , 33-H ) :   0.9690 B( 18-C , 19-C ) :   1.2032 B( 18-C , 21-H ) :   0.9860
B( 19-C , 20-C ) :   1.5871 B( 19-C , 22-C ) :   1.0625 B( 22-C , 23-H ) :   0.9360
B( 22-C , 24-H ) :   0.9344 B( 22-C , 25-C ) :   1.0435 B( 25-C , 26-H ) :   0.9569
B( 25-C , 27-H ) :   0.9487 B( 25-C , 28-C ) :   1.0728 B( 28-C , 29-H ) :   0.9774
B( 28-C , 30-H ) :   0.9729 B( 28-C , 31-H ) :   0.9737

Dispersion correction           -0.014264285
FINAL SINGLE POINT ENERGY     -1339.860115895512

DIPOLE MOMENT
-------------
                                X             Y             Z
Electronic contribution:      1.68000      -0.47895     -34.53986
Nuclear contribution   :     -1.85275       0.33534      35.24408
                        -----------------------------------------
Total Dipole Moment    :     -0.17275      -0.14361       0.70423
                        -----------------------------------------
Magnitude (a.u.)       :      0.73919
Magnitude (Debye)      :      1.87888

Rotational constants in cm-1:     0.018700     0.009392     0.006523
Rotational constants in MHz :   560.603863   281.573675   195.559886

                             ****ORCA TERMINATED NORMALLY****
TOTAL RUN TIME: 0 days 0 hours 0 minutes 22 seconds 342 msec
