                         Program Version 4.2.1 -  RELEASE  -
|  1> ! wB97X-D3 SP def2-SVP
|  2> %pal
|  3> nprocs 24
|  4> end
|  5>
|  6> * xyz 0 1
|  7> S 	 -102.174 	 2.1378 	 -122.625
|  8> C 	 -103.339 	 1.47347 	 -121.526
|  9> C 	 -103.002 	 0.178885 	 -121.185
| 10> C 	 -101.754 	 -0.195063 	 -121.754
| 11> C 	 -101.129 	 0.760962 	 -122.491
| 12> H 	 -101.339 	 -1.25489 	 -121.68
| 13> C 	 -103.895 	 -0.739075 	 -120.376
| 14> H 	 -104.284 	 -1.5071 	 -121.008
| 15> H 	 -104.767 	 -0.231199 	 -120.085
| 16> C 	 -103.241 	 -1.30415 	 -119.102
| 17> H 	 -102.417 	 -1.99232 	 -119.285
| 18> H 	 -102.98 	 -0.443938 	 -118.494
| 19> C 	 -104.337 	 -2.12329 	 -118.423
| 20> H 	 -105.173 	 -1.44041 	 -118.292
| 21> H 	 -104.652 	 -3.06853 	 -118.911
| 22> H 	 -104.038 	 -2.50466 	 -117.403
| 23> S 	 -99.8281 	 0.690283 	 -124.901
| 24> C 	 -98.2444 	 0.0034895 	 -125.044
| 25> C 	 -97.7543 	 -0.407237 	 -123.817
| 26> C 	 -98.6301 	 -0.0807232 	 -122.727
| 27> C 	 -99.8511 	 0.495234 	 -123.128
| 28> H 	 -96.6803 	 -0.708576 	 -123.767
| 29> C 	 -98.2394 	 -0.423449 	 -121.375
| 30> H 	 -97.4074 	 -1.12134 	 -121.433
| 31> H 	 -99.0406 	 -1.08465 	 -120.978
| 32> C 	 -97.94 	 0.754742 	 -120.386
| 33> H 	 -97.524 	 0.271585 	 -119.462
| 34> H 	 -98.8069 	 1.28407 	 -120.087
| 35> C 	 -96.8159 	 1.76917 	 -120.844
| 36> H 	 -97.2878 	 2.51534 	 -121.491
| 37> H 	 -96.0062 	 1.40223 	 -121.473
| 38> H 	 -96.3276 	 2.26087 	 -119.941
| 39> H 	 -104.205 	 2.01551 	 -121.129
| 40> H 	 -97.7291 	 -0.114452 	 -126.038
| 41> *
| 42>
| 43>                          ****END OF INPUT****

CARTESIAN COORDINATES (ANGSTROEM)
---------------------------------
  S    -102.174000    2.137800  -122.625000
  C    -103.339000    1.473470  -121.526000
  C    -103.002000    0.178885  -121.185000
  C    -101.754000   -0.195063  -121.754000
  C    -101.129000    0.760962  -122.491000
  H    -101.339000   -1.254890  -121.680000
  C    -103.895000   -0.739075  -120.376000
  H    -104.284000   -1.507100  -121.008000
  H    -104.767000   -0.231199  -120.085000
  C    -103.241000   -1.304150  -119.102000
  H    -102.417000   -1.992320  -119.285000
  H    -102.980000   -0.443938  -118.494000
  C    -104.337000   -2.123290  -118.423000
  H    -105.173000   -1.440410  -118.292000
  H    -104.652000   -3.068530  -118.911000
  H    -104.038000   -2.504660  -117.403000
  S    -99.828100    0.690283  -124.901000
  C    -98.244400    0.003489  -125.044000
  C    -97.754300   -0.407237  -123.817000
  C    -98.630100   -0.080723  -122.727000
  C    -99.851100    0.495234  -123.128000
  H    -96.680300   -0.708576  -123.767000
  C    -98.239400   -0.423449  -121.375000
  H    -97.407400   -1.121340  -121.433000
  H    -99.040600   -1.084650  -120.978000
  C    -97.940000    0.754742  -120.386000
  H    -97.524000    0.271585  -119.462000
  H    -98.806900    1.284070  -120.087000
  C    -96.815900    1.769170  -120.844000
  H    -97.287800    2.515340  -121.491000
  H    -96.006200    1.402230  -121.473000
  H    -96.327600    2.260870  -119.941000
  H    -104.205000    2.015510  -121.129000
  H    -97.729100   -0.114452  -126.038000

 Total Charge           Charge          ....    0
 Multiplicity           Mult            ....    1
 Number of Electrons    NEL             ....  134
 Basis Dimension        Dim             ....  322

ORBITAL ENERGIES
----------------

  NO   OCC          E(Eh)            E(eV)
   0   2.0000     -88.967593     -2420.9313
   1   2.0000     -88.961883     -2420.7759
   2   2.0000     -10.329655      -281.0842
   3   2.0000     -10.327055      -281.0135
   4   2.0000     -10.320795      -280.8431
   5   2.0000     -10.314800      -280.6800
   6   2.0000     -10.303450      -280.3711
   7   2.0000     -10.298260      -280.2299
   8   2.0000     -10.295993      -280.1682
   9   2.0000     -10.293820      -280.1091
  10   2.0000     -10.289919      -280.0029
  11   2.0000     -10.288398      -279.9615
  12   2.0000     -10.288253      -279.9576
  13   2.0000     -10.286167      -279.9008
  14   2.0000     -10.283066      -279.8164
  15   2.0000     -10.280106      -279.7359
  16   2.0000      -8.082719      -219.9420
  17   2.0000      -8.076725      -219.7789
  18   2.0000      -6.041254      -164.3909
  19   2.0000      -6.037129      -164.2786
  20   2.0000      -6.035169      -164.2253
  21   2.0000      -6.033462      -164.1788
  22   2.0000      -6.031107      -164.1148
  23   2.0000      -6.027661      -164.0210
  24   2.0000      -1.009767       -27.4772
  25   2.0000      -0.985397       -26.8140
  26   2.0000      -0.917885       -24.9769
  27   2.0000      -0.904347       -24.6085
  28   2.0000      -0.872374       -23.7385
  29   2.0000      -0.849226       -23.1086
  30   2.0000      -0.841822       -22.9071
  31   2.0000      -0.812265       -22.1029
  32   2.0000      -0.779161       -21.2021
  33   2.0000      -0.768478       -20.9114
  34   2.0000      -0.711962       -19.3735
  35   2.0000      -0.701119       -19.0784
  36   2.0000      -0.687614       -18.7109
  37   2.0000      -0.659629       -17.9494
  38   2.0000      -0.639224       -17.3942
  39   2.0000      -0.621456       -16.9107
  40   2.0000      -0.587470       -15.9859
  41   2.0000      -0.576633       -15.6910
  42   2.0000      -0.567329       -15.4378
  43   2.0000      -0.545615       -14.8470
  44   2.0000      -0.539131       -14.6705
  45   2.0000      -0.521634       -14.1944
  46   2.0000      -0.518845       -14.1185
  47   2.0000      -0.507243       -13.8028
  48   2.0000      -0.500157       -13.6100
  49   2.0000      -0.496761       -13.5176
  50   2.0000      -0.488671       -13.2974
  51   2.0000      -0.482215       -13.1217
  52   2.0000      -0.471123       -12.8199
  53   2.0000      -0.466362       -12.6903
  54   2.0000      -0.455350       -12.3907
  55   2.0000      -0.449212       -12.2237
  56   2.0000      -0.436233       -11.8705
  57   2.0000      -0.435168       -11.8415
  58   2.0000      -0.431981       -11.7548
  59   2.0000      -0.430953       -11.7268
  60   2.0000      -0.419146       -11.4055
  61   2.0000      -0.415856       -11.3160
  62   2.0000      -0.410856       -11.1800
  63   2.0000      -0.348819        -9.4918
  64   2.0000      -0.330305        -8.9881
  65   2.0000      -0.327138        -8.9019
  66   2.0000      -0.290979        -7.9179
  67   0.0000       0.029995         0.8162
  68   0.0000       0.069975         1.9041
  69   0.0000       0.113970         3.1013
  70   0.0000       0.123497         3.3605
  71   0.0000       0.131276         3.5722

MULLIKEN ATOMIC CHARGES
-----------------------
   0 S :    0.120857
   1 C :   -0.136148
   2 C :   -0.079404
   3 C :   -0.009827
   4 C :   -0.130440
   5 H :    0.042596
   6 C :    0.092905
   7 H :    0.028379
   8 H :   -0.012406
   9 C :   -0.063711
  10 H :    0.036566
  11 H :    0.038903
  12 C :   -0.072438
  13 H :    0.024323
  14 H :    0.039270
  15 H :    0.032595
  16 S :    0.090843
  17 C :   -0.115158
  18 C :   -0.055391
  19 C :   -0.050089
  20 C :   -0.149397
  21 H :    0.042319
  22 C :    0.066848
  23 H :    0.009022
  24 H :    0.025821
  25 C :   -0.051583
  26 H :    0.031576
  27 H :    0.038313
  28 C :   -0.090328
  29 H :    0.043792
  30 H :    0.027744
  31 H :    0.046847
  32 H :    0.056711
  33 H :    0.080091
Sum of atomic charges:    0.0000000

LOEWDIN ATOMIC CHARGES
----------------------
   0 S :    0.417780
   1 C :   -0.204203
   2 C :   -0.066427
   3 C :   -0.068261
   4 C :   -0.212406
   5 H :    0.042360
   6 C :   -0.026115
   7 H :    0.031181
   8 H :    0.020800
   9 C :   -0.034214
  10 H :    0.023589
  11 H :    0.029183
  12 C :   -0.071576
  13 H :    0.021107
  14 H :    0.027940
  15 H :    0.027156
  16 S :    0.398873
  17 C :   -0.194639
  18 C :   -0.087364
  19 C :   -0.058669
  20 C :   -0.185540
  21 H :    0.041615
  22 C :   -0.040762
  23 H :    0.029580
  24 H :    0.036659
  25 C :   -0.030346
  26 H :    0.028387
  27 H :    0.021643
  28 C :   -0.077682
  29 H :    0.028038
  30 H :    0.021981
  31 H :    0.034711
  32 H :    0.034069
  33 H :    0.041552

  Mayer bond orders larger than 0.100000
B(  0-S ,  1-C ) :   1.1396 B(  0-S ,  4-C ) :   1.1479 B(  1-C ,  2-C ) :   1.5994
B(  1-C , 32-H ) :   0.9656 B(  2-C ,  3-C ) :   1.2602 B(  2-C ,  6-C ) :   1.0277
B(  3-C ,  4-C ) :   1.5652 B(  3-C ,  5-H ) :   0.9797 B(  4-C , 20-C ) :   1.0464
B(  6-C ,  7-H ) :   0.9344 B(  6-C ,  8-H ) :   0.9356 B(  6-C ,  9-C ) :   1.0615
B(  9-C , 10-H ) :   0.9547 B(  9-C , 11-H ) :   0.9551 B(  9-C , 12-C ) :   1.0870
B( 12-C , 13-H ) :   0.9734 B( 12-C , 14-H ) :   0.9747 B( 12-C , 15-H ) :   0.9728
B( 16-S , 17-C ) :   1.1766 B( 16-S , 20-C ) :   1.1331 B( 17-C , 18-C ) :   1.5952
B( 17-C , 20-C ) :   0.1027 B( 17-C , 33-H ) :   0.9587 B( 18-C , 19-C ) :   1.2524
B( 18-C , 21-H ) :   0.9795 B( 19-C , 20-C ) :   1.5704 B( 19-C , 22-C ) :   1.0648
B( 22-C , 23-H ) :   0.9291 B( 22-C , 24-H ) :   0.9248 B( 22-C , 25-C ) :   1.0663
B( 25-C , 26-H ) :   0.9615 B( 25-C , 27-H ) :   0.9613 B( 25-C , 28-C ) :   1.0561
B( 28-C , 29-H ) :   0.9761 B( 28-C , 30-H ) :   0.9800 B( 28-C , 31-H ) :   0.9780

Dispersion correction           -0.014337692
FINAL SINGLE POINT ENERGY     -1339.880331636318

DIPOLE MOMENT
-------------
                                X             Y             Z
Electronic contribution:     -1.66976      10.81917     -24.32975
Nuclear contribution   :      1.68513     -11.28778      24.79792
                        -----------------------------------------
Total Dipole Moment    :      0.01537      -0.46862       0.46817
                        -----------------------------------------
Magnitude (a.u.)       :      0.66259
Magnitude (Debye)      :      1.68417

Rotational constants in cm-1:     0.019065     0.008267     0.007030
Rotational constants in MHz :   571.557835   247.829970   210.756381

                             ****ORCA TERMINATED NORMALLY****
TOTAL RUN TIME: 0 days 0 hours 0 minutes 21 seconds 646 msec
