                         Program Version 4.2.1 -  RELEASE  -
|  1> ! wB97X-D3 SP def2-SVP
|  2> %pal
|  3> nprocs 24
|  4> end
|  5>
|  6> * xyz 0 1
|  7> S 	 -129.852 	 28.6047 	 -14.7449
|  8> C 	 -129.456 	 27.1813 	 -15.6552
|  9> C 	 -129.795 	 27.4039 	 -17.0003
| 10> C 	 -130.533 	 28.6212 	 -17.2037
| 11> C 	 -130.62 	 29.3998 	 -16.1162
| 12> H 	 -130.878 	 29.0936 	 -18.1827
| 13> C 	 -129.473 	 26.4306 	 -18.1182
| 14> H 	 -130.446 	 25.9786 	 -18.425
| 15> H 	 -128.86 	 25.6212 	 -17.7027
| 16> C 	 -128.855 	 26.8784 	 -19.3567
| 17> H 	 -128.617 	 25.9732 	 -19.9173
| 18> H 	 -129.615 	 27.3828 	 -19.9401
| 19> C 	 -127.53 	 27.7447 	 -19.2119
| 20> H 	 -127.564 	 28.5332 	 -18.4798
| 21> H 	 -126.776 	 27.0624 	 -18.7889
| 22> H 	 -127.199 	 27.9557 	 -20.2225
| 23> S 	 -130.465 	 31.8642 	 -15.0991
| 24> C 	 -131.686 	 33.1237 	 -15.4486
| 25> C 	 -132.603 	 32.6222 	 -16.3177
| 26> C 	 -132.469 	 31.2387 	 -16.5208
| 27> C 	 -131.33 	 30.642 	 -15.9878
| 28> H 	 -133.385 	 33.2222 	 -16.748
| 29> C 	 -133.527 	 30.5878 	 -17.3836
| 30> H 	 -134.494 	 31.1015 	 -17.2517
| 31> H 	 -133.752 	 29.6145 	 -17.1524
| 32> C 	 -133.303 	 30.5571 	 -18.9228
| 33> H 	 -132.283 	 30.1983 	 -19.1231
| 34> H 	 -133.41 	 31.5884 	 -19.3979
| 35> C 	 -134.263 	 29.6566 	 -19.5868
| 36> H 	 -134.103 	 29.5432 	 -20.6792
| 37> H 	 -135.397 	 29.6295 	 -19.4119
| 38> H 	 -133.849 	 28.6685 	 -19.3172
| 39> H 	 -128.966 	 26.3481 	 -15.2307
| 40> H 	 -131.642 	 34.1352 	 -15.0538
| 41> *
| 42>
| 43>                          ****END OF INPUT****

CARTESIAN COORDINATES (ANGSTROEM)
---------------------------------
  S    -129.852000   28.604700  -14.744900
  C    -129.456000   27.181300  -15.655200
  C    -129.795000   27.403900  -17.000300
  C    -130.533000   28.621200  -17.203700
  C    -130.620000   29.399800  -16.116200
  H    -130.878000   29.093600  -18.182700
  C    -129.473000   26.430600  -18.118200
  H    -130.446000   25.978600  -18.425000
  H    -128.860000   25.621200  -17.702700
  C    -128.855000   26.878400  -19.356700
  H    -128.617000   25.973200  -19.917300
  H    -129.615000   27.382800  -19.940100
  C    -127.530000   27.744700  -19.211900
  H    -127.564000   28.533200  -18.479800
  H    -126.776000   27.062400  -18.788900
  H    -127.199000   27.955700  -20.222500
  S    -130.465000   31.864200  -15.099100
  C    -131.686000   33.123700  -15.448600
  C    -132.603000   32.622200  -16.317700
  C    -132.469000   31.238700  -16.520800
  C    -131.330000   30.642000  -15.987800
  H    -133.385000   33.222200  -16.748000
  C    -133.527000   30.587800  -17.383600
  H    -134.494000   31.101500  -17.251700
  H    -133.752000   29.614500  -17.152400
  C    -133.303000   30.557100  -18.922800
  H    -132.283000   30.198300  -19.123100
  H    -133.410000   31.588400  -19.397900
  C    -134.263000   29.656600  -19.586800
  H    -134.103000   29.543200  -20.679200
  H    -135.397000   29.629500  -19.411900
  H    -133.849000   28.668500  -19.317200
  H    -128.966000   26.348100  -15.230700
  H    -131.642000   34.135200  -15.053800

 Total Charge           Charge          ....    0
 Multiplicity           Mult            ....    1
 Number of Electrons    NEL             ....  134
 Basis Dimension        Dim             ....  322

ORBITAL ENERGIES
----------------

  NO   OCC          E(Eh)            E(eV)
   0   2.0000     -88.964820     -2420.8558
   1   2.0000     -88.961968     -2420.7782
   2   2.0000     -10.328782      -281.0604
   3   2.0000     -10.328572      -281.0547
   4   2.0000     -10.319909      -280.8190
   5   2.0000     -10.316819      -280.7349
   6   2.0000     -10.307509      -280.4816
   7   2.0000     -10.303234      -280.3653
   8   2.0000     -10.298122      -280.2261
   9   2.0000     -10.293005      -280.0869
  10   2.0000     -10.291314      -280.0409
  11   2.0000     -10.288678      -279.9691
  12   2.0000     -10.284739      -279.8620
  13   2.0000     -10.284536      -279.8565
  14   2.0000     -10.284377      -279.8521
  15   2.0000     -10.277911      -279.6762
  16   2.0000      -8.079881      -219.8647
  17   2.0000      -8.076731      -219.7790
  18   2.0000      -6.038468      -164.3151
  19   2.0000      -6.035367      -164.2307
  20   2.0000      -6.034281      -164.2011
  21   2.0000      -6.031100      -164.1146
  22   2.0000      -6.030574      -164.1003
  23   2.0000      -6.027471      -164.0158
  24   2.0000      -1.012552       -27.5529
  25   2.0000      -0.987957       -26.8837
  26   2.0000      -0.918495       -24.9935
  27   2.0000      -0.914183       -24.8762
  28   2.0000      -0.878508       -23.9054
  29   2.0000      -0.854916       -23.2635
  30   2.0000      -0.842287       -22.9198
  31   2.0000      -0.820835       -22.3361
  32   2.0000      -0.783889       -21.3307
  33   2.0000      -0.772739       -21.0273
  34   2.0000      -0.710760       -19.3408
  35   2.0000      -0.698565       -19.0089
  36   2.0000      -0.691693       -18.8219
  37   2.0000      -0.667156       -18.1542
  38   2.0000      -0.644682       -17.5427
  39   2.0000      -0.621474       -16.9112
  40   2.0000      -0.604599       -16.4520
  41   2.0000      -0.570478       -15.5235
  42   2.0000      -0.564488       -15.3605
  43   2.0000      -0.554733       -15.0950
  44   2.0000      -0.546115       -14.8606
  45   2.0000      -0.525735       -14.3060
  46   2.0000      -0.521097       -14.1798
  47   2.0000      -0.516168       -14.0456
  48   2.0000      -0.509224       -13.8567
  49   2.0000      -0.507603       -13.8126
  50   2.0000      -0.493517       -13.4293
  51   2.0000      -0.480275       -13.0689
  52   2.0000      -0.474325       -12.9070
  53   2.0000      -0.464276       -12.6336
  54   2.0000      -0.458589       -12.4788
  55   2.0000      -0.455264       -12.3884
  56   2.0000      -0.448351       -12.2003
  57   2.0000      -0.432764       -11.7761
  58   2.0000      -0.426028       -11.5928
  59   2.0000      -0.418423       -11.3859
  60   2.0000      -0.414535       -11.2801
  61   2.0000      -0.411496       -11.1974
  62   2.0000      -0.407546       -11.0899
  63   2.0000      -0.358842        -9.7646
  64   2.0000      -0.332926        -9.0594
  65   2.0000      -0.326530        -8.8853
  66   2.0000      -0.291118        -7.9217
  67   0.0000       0.025125         0.6837
  68   0.0000       0.073273         1.9939
  69   0.0000       0.105280         2.8648
  70   0.0000       0.116073         3.1585
  71   0.0000       0.127780         3.4771

MULLIKEN ATOMIC CHARGES
-----------------------
   0 S :    0.107902
   1 C :   -0.111344
   2 C :   -0.095975
   3 C :   -0.018380
   4 C :   -0.105600
   5 H :    0.031746
   6 C :    0.070093
   7 H :    0.037975
   8 H :    0.009876
   9 C :   -0.081155
  10 H :    0.030241
  11 H :    0.020984
  12 C :   -0.041625
  13 H :    0.049798
  14 H :    0.018449
  15 H :    0.038724
  16 S :    0.075267
  17 C :   -0.089380
  18 C :   -0.013888
  19 C :   -0.040121
  20 C :   -0.116912
  21 H :    0.018685
  22 C :    0.079256
  23 H :    0.016670
  24 H :   -0.006425
  25 C :   -0.068881
  26 H :    0.022962
  27 H :    0.032405
  28 C :   -0.084359
  29 H :    0.033002
  30 H :    0.058341
  31 H :    0.015331
  32 H :    0.042566
  33 H :    0.063775
Sum of atomic charges:   -0.0000000

LOEWDIN ATOMIC CHARGES
----------------------
   0 S :    0.403986
   1 C :   -0.191836
   2 C :   -0.060913
   3 C :   -0.075491
   4 C :   -0.192487
   5 H :    0.043755
   6 C :   -0.041728
   7 H :    0.040360
   8 H :    0.027014
   9 C :   -0.045105
  10 H :    0.030836
  11 H :    0.017046
  12 C :   -0.063389
  13 H :    0.026322
  14 H :    0.026491
  15 H :    0.027508
  16 S :    0.392678
  17 C :   -0.167599
  18 C :   -0.066086
  19 C :   -0.060525
  20 C :   -0.191900
  21 H :    0.033728
  22 C :   -0.027335
  23 H :    0.033969
  24 H :    0.016052
  25 C :   -0.042679
  26 H :    0.020697
  27 H :    0.024285
  28 C :   -0.088272
  29 H :    0.030971
  30 H :    0.036888
  31 H :    0.027191
  32 H :    0.023106
  33 H :    0.032458

  Mayer bond orders larger than 0.100000
B(  0-S ,  1-C ) :   1.1402 B(  0-S ,  4-C ) :   1.1376 B(  1-C ,  2-C ) :   1.5916
B(  1-C , 32-H ) :   0.9787 B(  2-C ,  3-C ) :   1.2146 B(  2-C ,  6-C ) :   1.0320
B(  3-C ,  4-C ) :   1.6172 B(  3-C ,  5-H ) :   0.9775 B(  4-C , 20-C ) :   1.0336
B(  6-C ,  7-H ) :   0.9288 B(  6-C ,  8-H ) :   0.9397 B(  6-C ,  9-C ) :   1.0958
B(  9-C , 10-H ) :   0.9500 B(  9-C , 11-H ) :   0.9499 B(  9-C , 12-C ) :   1.0665
B( 12-C , 13-H ) :   0.9771 B( 12-C , 14-H ) :   0.9738 B( 12-C , 15-H ) :   0.9759
B( 16-S , 17-C ) :   1.1475 B( 16-S , 20-C ) :   1.1342 B( 17-C , 18-C ) :   1.5875
B( 17-C , 20-C ) :   0.1050 B( 17-C , 33-H ) :   0.9705 B( 18-C , 19-C ) :   1.2592
B( 18-C , 21-H ) :   0.9936 B( 19-C , 20-C ) :   1.5819 B( 19-C , 22-C ) :   1.0536
B( 22-C , 23-H ) :   0.9304 B( 22-C , 24-H ) :   0.9387 B( 22-C , 25-C ) :   1.0569
B( 25-C , 26-H ) :   0.9503 B( 25-C , 27-H ) :   0.9497 B( 25-C , 28-C ) :   1.0799
B( 28-C , 29-H ) :   0.9665 B( 28-C , 30-H ) :   0.9742 B( 28-C , 31-H ) :   0.9665

Dispersion correction           -0.014507836
FINAL SINGLE POINT ENERGY     -1339.863996650204

DIPOLE MOMENT
-------------
                                X             Y             Z
Electronic contribution:      5.10292      10.39939      26.31155
Nuclear contribution   :     -5.32683     -10.60970     -26.95829
                        -----------------------------------------
Total Dipole Moment    :     -0.22391      -0.21031      -0.64674
                        -----------------------------------------
Magnitude (a.u.)       :      0.71599
Magnitude (Debye)      :      1.81989

Rotational constants in cm-1:     0.016733     0.009892     0.007300
Rotational constants in MHz :   501.656431   296.540414   218.853913

                             ****ORCA TERMINATED NORMALLY****
TOTAL RUN TIME: 0 days 0 hours 0 minutes 21 seconds 14 msec
