                         Program Version 4.2.1 -  RELEASE  -
|  1> ! wB97X-D3 SP def2-SVP
|  2> %pal
|  3> nprocs 24
|  4> end
|  5>
|  6> * xyz 0 1
|  7> S 	 -137.998 	 4.05816 	 2.69141
|  8> C 	 -138.255 	 4.00729 	 4.45898
|  9> C 	 -138.199 	 5.25986 	 4.9786
| 10> C 	 -138.299 	 6.28591 	 4.01329
| 11> C 	 -138.199 	 5.77242 	 2.69822
| 12> H 	 -138.267 	 7.359 	 4.10054
| 13> C 	 -138.289 	 5.59319 	 6.43872
| 14> H 	 -137.292 	 5.7853 	 6.74728
| 15> H 	 -138.555 	 4.70041 	 7.04446
| 16> C 	 -139.169 	 6.78423 	 6.85049
| 17> H 	 -138.943 	 6.83117 	 7.92753
| 18> H 	 -138.943 	 7.76778 	 6.37132
| 19> C 	 -140.675 	 6.50518 	 6.72531
| 20> H 	 -140.912 	 5.58699 	 7.19162
| 21> H 	 -141.222 	 7.3301 	 7.17047
| 22> H 	 -141.161 	 6.40825 	 5.75145
| 23> S 	 -137.061 	 5.88739 	 0.239479
| 24> C 	 -137.194 	 7.24531 	 -0.793201
| 25> C 	 -137.852 	 8.27716 	 -0.119584
| 26> C 	 -138.327 	 7.92277 	 1.20081
| 27> C 	 -138.048 	 6.58185 	 1.53264
| 28> H 	 -138.027 	 9.23556 	 -0.594878
| 29> C 	 -139.286 	 8.91662 	 1.99379
| 30> H 	 -139.207 	 9.91098 	 1.54656
| 31> H 	 -138.793 	 9.04286 	 2.97224
| 32> C 	 -140.698 	 8.32836 	 2.1633
| 33> H 	 -140.607 	 7.38374 	 2.71801
| 34> H 	 -141.133 	 8.00286 	 1.24451
| 35> C 	 -141.702 	 9.20833 	 2.91313
| 36> H 	 -141.731 	 9.04911 	 3.99215
| 37> H 	 -142.667 	 9.05513 	 2.49413
| 38> H 	 -141.508 	 10.2741 	 2.66601
| 39> H 	 -138.306 	 3.0022 	 4.97238
| 40> H 	 -136.559 	 7.35196 	 -1.64881
| 41> *
| 42>
| 43>                          ****END OF INPUT****

CARTESIAN COORDINATES (ANGSTROEM)
---------------------------------
  S    -137.998000    4.058160    2.691410
  C    -138.255000    4.007290    4.458980
  C    -138.199000    5.259860    4.978600
  C    -138.299000    6.285910    4.013290
  C    -138.199000    5.772420    2.698220
  H    -138.267000    7.359000    4.100540
  C    -138.289000    5.593190    6.438720
  H    -137.292000    5.785300    6.747280
  H    -138.555000    4.700410    7.044460
  C    -139.169000    6.784230    6.850490
  H    -138.943000    6.831170    7.927530
  H    -138.943000    7.767780    6.371320
  C    -140.675000    6.505180    6.725310
  H    -140.912000    5.586990    7.191620
  H    -141.222000    7.330100    7.170470
  H    -141.161000    6.408250    5.751450
  S    -137.061000    5.887390    0.239479
  C    -137.194000    7.245310   -0.793201
  C    -137.852000    8.277160   -0.119584
  C    -138.327000    7.922770    1.200810
  C    -138.048000    6.581850    1.532640
  H    -138.027000    9.235560   -0.594878
  C    -139.286000    8.916620    1.993790
  H    -139.207000    9.910980    1.546560
  H    -138.793000    9.042860    2.972240
  C    -140.698000    8.328360    2.163300
  H    -140.607000    7.383740    2.718010
  H    -141.133000    8.002860    1.244510
  C    -141.702000    9.208330    2.913130
  H    -141.731000    9.049110    3.992150
  H    -142.667000    9.055130    2.494130
  H    -141.508000   10.274100    2.666010
  H    -138.306000    3.002200    4.972380
  H    -136.559000    7.351960   -1.648810

 Total Charge           Charge          ....    0
 Multiplicity           Mult            ....    1
 Number of Electrons    NEL             ....  134
 Basis Dimension        Dim             ....  322

ORBITAL ENERGIES
----------------

  NO   OCC          E(Eh)            E(eV)
   0   2.0000     -88.966113     -2420.8910
   1   2.0000     -88.963007     -2420.8065
   2   2.0000     -10.330329      -281.1025
   3   2.0000     -10.330010      -281.0939
   4   2.0000     -10.317230      -280.7461
   5   2.0000     -10.314707      -280.6774
   6   2.0000     -10.311051      -280.5780
   7   2.0000     -10.301811      -280.3265
   8   2.0000     -10.299897      -280.2745
   9   2.0000     -10.297295      -280.2036
  10   2.0000     -10.294959      -280.1401
  11   2.0000     -10.293014      -280.0871
  12   2.0000     -10.290765      -280.0259
  13   2.0000     -10.281843      -279.7832
  14   2.0000     -10.275291      -279.6049
  15   2.0000     -10.272489      -279.5286
  16   2.0000      -8.080811      -219.8901
  17   2.0000      -8.078374      -219.8237
  18   2.0000      -6.039319      -164.3382
  19   2.0000      -6.036815      -164.2701
  20   2.0000      -6.035473      -164.2336
  21   2.0000      -6.032629      -164.1562
  22   2.0000      -6.031432      -164.1236
  23   2.0000      -6.029332      -164.0665
  24   2.0000      -1.008759       -27.4497
  25   2.0000      -0.983290       -26.7567
  26   2.0000      -0.914999       -24.8984
  27   2.0000      -0.903541       -24.5866
  28   2.0000      -0.872238       -23.7348
  29   2.0000      -0.851490       -23.1702
  30   2.0000      -0.841718       -22.9043
  31   2.0000      -0.811288       -22.0763
  32   2.0000      -0.785510       -21.3748
  33   2.0000      -0.775836       -21.1116
  34   2.0000      -0.711263       -19.3544
  35   2.0000      -0.700415       -19.0593
  36   2.0000      -0.691263       -18.8102
  37   2.0000      -0.664185       -18.0734
  38   2.0000      -0.636463       -17.3190
  39   2.0000      -0.623285       -16.9605
  40   2.0000      -0.591798       -16.1036
  41   2.0000      -0.563729       -15.3399
  42   2.0000      -0.561253       -15.2725
  43   2.0000      -0.556981       -15.1562
  44   2.0000      -0.532837       -14.4992
  45   2.0000      -0.521896       -14.2015
  46   2.0000      -0.520116       -14.1531
  47   2.0000      -0.517493       -14.0817
  48   2.0000      -0.502721       -13.6797
  49   2.0000      -0.498071       -13.5532
  50   2.0000      -0.496335       -13.5060
  51   2.0000      -0.489545       -13.3212
  52   2.0000      -0.475749       -12.9458
  53   2.0000      -0.463445       -12.6110
  54   2.0000      -0.455528       -12.3955
  55   2.0000      -0.447258       -12.1705
  56   2.0000      -0.440260       -11.9801
  57   2.0000      -0.437597       -11.9076
  58   2.0000      -0.434802       -11.8316
  59   2.0000      -0.428982       -11.6732
  60   2.0000      -0.415534       -11.3072
  61   2.0000      -0.414388       -11.2761
  62   2.0000      -0.408273       -11.1097
  63   2.0000      -0.360362        -9.8059
  64   2.0000      -0.334043        -9.0898
  65   2.0000      -0.328004        -8.9254
  66   2.0000      -0.278326        -7.5736
  67   0.0000       0.015843         0.4311
  68   0.0000       0.079678         2.1682
  69   0.0000       0.102389         2.7861
  70   0.0000       0.119129         3.2417
  71   0.0000       0.129416         3.5216

MULLIKEN ATOMIC CHARGES
-----------------------
   0 S :    0.098498
   1 C :   -0.168019
   2 C :   -0.030609
   3 C :   -0.003082
   4 C :   -0.108540
   5 H :   -0.004113
   6 C :    0.069031
   7 H :    0.027769
   8 H :    0.019604
   9 C :   -0.084949
  10 H :    0.034570
  11 H :    0.040647
  12 C :   -0.039241
  13 H :    0.013918
  14 H :    0.030202
  15 H :    0.036023
  16 S :    0.085929
  17 C :   -0.078490
  18 C :   -0.047829
  19 C :   -0.062815
  20 C :   -0.147186
  21 H :    0.020298
  22 C :    0.065439
  23 H :    0.018497
  24 H :    0.026282
  25 C :   -0.066599
  26 H :    0.035648
  27 H :    0.025857
  28 C :   -0.032491
  29 H :    0.042677
  30 H :    0.022552
  31 H :    0.024091
  32 H :    0.073131
  33 H :    0.063301
Sum of atomic charges:   -0.0000000

LOEWDIN ATOMIC CHARGES
----------------------
   0 S :    0.396184
   1 C :   -0.196997
   2 C :   -0.063220
   3 C :   -0.066011
   4 C :   -0.192506
   5 H :    0.027486
   6 C :   -0.032882
   7 H :    0.031133
   8 H :    0.033530
   9 C :   -0.040037
  10 H :    0.032543
  11 H :    0.027056
  12 C :   -0.068583
  13 H :    0.018636
  14 H :    0.026528
  15 H :    0.027163
  16 S :    0.414464
  17 C :   -0.200456
  18 C :   -0.073758
  19 C :   -0.057380
  20 C :   -0.190225
  21 H :    0.029702
  22 C :   -0.026212
  23 H :    0.026984
  24 H :    0.026820
  25 C :   -0.044206
  26 H :    0.030384
  27 H :    0.023267
  28 C :   -0.066075
  29 H :    0.026080
  30 H :    0.024372
  31 H :    0.026980
  32 H :    0.040517
  33 H :    0.028719

  Mayer bond orders larger than 0.100000
B(  0-S ,  1-C ) :   1.1100 B(  0-S ,  4-C ) :   1.1645 B(  1-C ,  2-C ) :   1.6025
B(  1-C , 32-H ) :   0.9661 B(  2-C ,  3-C ) :   1.2459 B(  2-C ,  6-C ) :   1.0203
B(  3-C ,  4-C ) :   1.5243 B(  3-C ,  5-H ) :   0.9915 B(  4-C , 20-C ) :   1.1155
B(  6-C ,  7-H ) :   0.9200 B(  6-C ,  8-H ) :   0.9440 B(  6-C ,  9-C ) :   1.0866
B(  9-C , 10-H ) :   0.9500 B(  9-C , 11-H ) :   0.9497 B(  9-C , 12-C ) :   1.0757
B( 12-C , 13-H ) :   0.9725 B( 12-C , 14-H ) :   0.9746 B( 12-C , 15-H ) :   0.9745
B( 16-S , 17-C ) :   1.1735 B( 16-S , 20-C ) :   1.1475 B( 17-C , 18-C ) :   1.5664
B( 17-C , 20-C ) :   0.1038 B( 17-C , 33-H ) :   0.9698 B( 18-C , 19-C ) :   1.2855
B( 18-C , 21-H ) :   0.9889 B( 19-C , 20-C ) :   1.5402 B( 19-C , 22-C ) :   1.0273
B( 22-C , 23-H ) :   0.9361 B( 22-C , 24-H ) :   0.9352 B( 22-C , 25-C ) :   1.0594
B( 25-C , 26-H ) :   0.9485 B( 25-C , 27-H ) :   0.9597 B( 25-C , 28-C ) :   1.0808
B( 28-C , 29-H ) :   0.9763 B( 28-C , 30-H ) :   0.9746 B( 28-C , 31-H ) :   0.9750

Dispersion correction           -0.015169999
FINAL SINGLE POINT ENERGY     -1339.877490561288

DIPOLE MOMENT
-------------
                                X             Y             Z
Electronic contribution:     18.03789     -16.48217     -20.00948
Nuclear contribution   :    -18.18103      16.94261      20.48430
                        -----------------------------------------
Total Dipole Moment    :     -0.14314       0.46044       0.47481
                        -----------------------------------------
Magnitude (a.u.)       :      0.67672
Magnitude (Debye)      :      1.72008

Rotational constants in cm-1:     0.017699     0.010580     0.007263
Rotational constants in MHz :   530.614104   317.182875   217.731697

                             ****ORCA TERMINATED NORMALLY****
TOTAL RUN TIME: 0 days 0 hours 0 minutes 21 seconds 714 msec
