                         Program Version 4.2.1 -  RELEASE  -
|  1> ! wB97X-D3 SP def2-SVP
|  2> %pal
|  3> nprocs 24
|  4> end
|  5>
|  6> * xyz 0 1
|  7> S 	 -48.9083 	 13.2688 	 18.8249
|  8> C 	 -50.1932 	 13.3741 	 20.0429
|  9> C 	 -49.7675 	 13.9879 	 21.1823
| 10> C 	 -48.4887 	 14.6068 	 21.0149
| 11> C 	 -47.8924 	 14.4305 	 19.7615
| 12> H 	 -48.0876 	 15.2674 	 21.7537
| 13> C 	 -50.6767 	 14.1326 	 22.4214
| 14> H 	 -50.1432 	 14.1423 	 23.3522
| 15> H 	 -51.3046 	 13.2098 	 22.4198
| 16> C 	 -51.597 	 15.4058 	 22.4144
| 17> H 	 -51.9912 	 15.4911 	 21.4284
| 18> H 	 -52.4117 	 15.1775 	 23.083
| 19> C 	 -50.8631 	 16.701 	 22.9239
| 20> H 	 -51.563 	 17.543 	 22.6583
| 21> H 	 -50.6766 	 16.6226 	 24.0406
| 22> H 	 -49.8794 	 16.8715 	 22.5404
| 23> S 	 -45.3297 	 13.8427 	 19.0816
| 24> C 	 -44.1962 	 15.1167 	 18.8015
| 25> C 	 -44.8181 	 16.3119 	 19.1006
| 26> C 	 -46.1714 	 16.2775 	 19.3695
| 27> C 	 -46.6552 	 14.9805 	 19.2894
| 28> H 	 -44.3016 	 17.2593 	 18.9746
| 29> C 	 -46.9063 	 17.5108 	 19.836
| 30> H 	 -47.9604 	 17.2864 	 19.8848
| 31> H 	 -46.8926 	 18.1933 	 19.0427
| 32> C 	 -46.5117 	 17.9711 	 21.2648
| 33> H 	 -45.7213 	 17.3332 	 21.6037
| 34> H 	 -47.4165 	 17.8972 	 21.971
| 35> C 	 -45.9979 	 19.4258 	 21.1908
| 36> H 	 -45.6077 	 19.6931 	 22.1523
| 37> H 	 -46.7883 	 20.1905 	 20.9814
| 38> H 	 -45.1393 	 19.4918 	 20.5122
| 39> H 	 -51.1843 	 12.9198 	 19.8701
| 40> H 	 -43.1694 	 15.0864 	 18.5022
| 41> *
| 42>
| 43>                          ****END OF INPUT****

CARTESIAN COORDINATES (ANGSTROEM)
---------------------------------
  S    -48.908300   13.268800   18.824900
  C    -50.193200   13.374100   20.042900
  C    -49.767500   13.987900   21.182300
  C    -48.488700   14.606800   21.014900
  C    -47.892400   14.430500   19.761500
  H    -48.087600   15.267400   21.753700
  C    -50.676700   14.132600   22.421400
  H    -50.143200   14.142300   23.352200
  H    -51.304600   13.209800   22.419800
  C    -51.597000   15.405800   22.414400
  H    -51.991200   15.491100   21.428400
  H    -52.411700   15.177500   23.083000
  C    -50.863100   16.701000   22.923900
  H    -51.563000   17.543000   22.658300
  H    -50.676600   16.622600   24.040600
  H    -49.879400   16.871500   22.540400
  S    -45.329700   13.842700   19.081600
  C    -44.196200   15.116700   18.801500
  C    -44.818100   16.311900   19.100600
  C    -46.171400   16.277500   19.369500
  C    -46.655200   14.980500   19.289400
  H    -44.301600   17.259300   18.974600
  C    -46.906300   17.510800   19.836000
  H    -47.960400   17.286400   19.884800
  H    -46.892600   18.193300   19.042700
  C    -46.511700   17.971100   21.264800
  H    -45.721300   17.333200   21.603700
  H    -47.416500   17.897200   21.971000
  C    -45.997900   19.425800   21.190800
  H    -45.607700   19.693100   22.152300
  H    -46.788300   20.190500   20.981400
  H    -45.139300   19.491800   20.512200
  H    -51.184300   12.919800   19.870100
  H    -43.169400   15.086400   18.502200

 Total Charge           Charge          ....    0
 Multiplicity           Mult            ....    1
 Number of Electrons    NEL             ....  134
 Basis Dimension        Dim             ....  322

ORBITAL ENERGIES
----------------

  NO   OCC          E(Eh)            E(eV)
   0   2.0000     -88.964712     -2420.8529
   1   2.0000     -88.962803     -2420.8009
   2   2.0000     -10.331842      -281.1437
   3   2.0000     -10.322290      -280.8838
   4   2.0000     -10.316570      -280.7282
   5   2.0000     -10.314808      -280.6802
   6   2.0000     -10.300574      -280.2929
   7   2.0000     -10.296288      -280.1762
   8   2.0000     -10.296271      -280.1758
   9   2.0000     -10.296221      -280.1744
  10   2.0000     -10.296120      -280.1717
  11   2.0000     -10.290614      -280.0219
  12   2.0000     -10.289412      -279.9891
  13   2.0000     -10.285304      -279.8773
  14   2.0000     -10.282871      -279.8111
  15   2.0000     -10.282195      -279.7927
  16   2.0000      -8.079692      -219.8596
  17   2.0000      -8.076612      -219.7758
  18   2.0000      -6.038215      -164.3082
  19   2.0000      -6.035224      -164.2268
  20   2.0000      -6.034119      -164.1967
  21   2.0000      -6.031286      -164.1196
  22   2.0000      -6.030447      -164.0968
  23   2.0000      -6.027278      -164.0106
  24   2.0000      -1.007880       -27.4258
  25   2.0000      -0.981473       -26.7072
  26   2.0000      -0.911150       -24.7936
  27   2.0000      -0.903866       -24.5954
  28   2.0000      -0.869579       -23.6625
  29   2.0000      -0.852174       -23.1888
  30   2.0000      -0.839259       -22.8374
  31   2.0000      -0.811507       -22.0822
  32   2.0000      -0.784521       -21.3479
  33   2.0000      -0.771150       -20.9841
  34   2.0000      -0.707931       -19.2638
  35   2.0000      -0.702320       -19.1111
  36   2.0000      -0.700211       -19.0537
  37   2.0000      -0.662411       -18.0251
  38   2.0000      -0.638500       -17.3745
  39   2.0000      -0.617422       -16.8009
  40   2.0000      -0.601783       -16.3754
  41   2.0000      -0.573689       -15.6109
  42   2.0000      -0.553209       -15.0536
  43   2.0000      -0.541475       -14.7343
  44   2.0000      -0.535602       -14.5745
  45   2.0000      -0.531599       -14.4656
  46   2.0000      -0.522386       -14.2149
  47   2.0000      -0.516097       -14.0437
  48   2.0000      -0.507266       -13.8034
  49   2.0000      -0.500039       -13.6068
  50   2.0000      -0.488874       -13.3029
  51   2.0000      -0.482226       -13.1220
  52   2.0000      -0.470234       -12.7957
  53   2.0000      -0.468413       -12.7462
  54   2.0000      -0.459230       -12.4963
  55   2.0000      -0.445792       -12.1306
  56   2.0000      -0.440228       -11.9792
  57   2.0000      -0.438309       -11.9270
  58   2.0000      -0.430907       -11.7256
  59   2.0000      -0.426907       -11.6167
  60   2.0000      -0.423402       -11.5214
  61   2.0000      -0.419837       -11.4243
  62   2.0000      -0.408354       -11.1119
  63   2.0000      -0.342231        -9.3126
  64   2.0000      -0.331290        -9.0149
  65   2.0000      -0.328783        -8.9466
  66   2.0000      -0.293541        -7.9877
  67   0.0000       0.028200         0.7674
  68   0.0000       0.061372         1.6700
  69   0.0000       0.112110         3.0507
  70   0.0000       0.121709         3.3119
  71   0.0000       0.122881         3.3438

MULLIKEN ATOMIC CHARGES
-----------------------
   0 S :    0.097020
   1 C :   -0.144458
   2 C :   -0.073171
   3 C :    0.058839
   4 C :   -0.169704
   5 H :   -0.005292
   6 C :    0.038389
   7 H :    0.018767
   8 H :    0.030957
   9 C :   -0.037955
  10 H :    0.023049
  11 H :    0.032283
  12 C :   -0.079645
  13 H :    0.053505
  14 H :    0.039272
  15 H :    0.023172
  16 S :    0.111620
  17 C :   -0.069632
  18 C :   -0.062149
  19 C :   -0.057141
  20 C :   -0.144365
  21 H :    0.012711
  22 C :    0.112668
  23 H :    0.012363
  24 H :    0.020376
  25 C :   -0.095676
  26 H :    0.044647
  27 H :    0.054169
  28 C :   -0.054139
  29 H :    0.018566
  30 H :    0.046320
  31 H :    0.033983
  32 H :    0.060663
  33 H :    0.049988
Sum of atomic charges:   -0.0000000

LOEWDIN ATOMIC CHARGES
----------------------
   0 S :    0.368097
   1 C :   -0.183714
   2 C :   -0.069454
   3 C :   -0.052031
   4 C :   -0.181725
   5 H :    0.024162
   6 C :   -0.029786
   7 H :    0.023989
   8 H :    0.034021
   9 C :   -0.032006
  10 H :    0.018372
  11 H :    0.024327
  12 C :   -0.071184
  13 H :    0.036686
  14 H :    0.032167
  15 H :    0.014690
  16 S :    0.419836
  17 C :   -0.189151
  18 C :   -0.078312
  19 C :   -0.056120
  20 C :   -0.202122
  21 H :    0.027993
  22 C :   -0.029380
  23 H :    0.031436
  24 H :    0.025433
  25 C :   -0.035359
  26 H :    0.023705
  27 H :    0.032148
  28 C :   -0.065477
  29 H :    0.018925
  30 H :    0.031378
  31 H :    0.024595
  32 H :    0.033025
  33 H :    0.030838

  Mayer bond orders larger than 0.100000
B(  0-S ,  1-C ) :   1.1357 B(  0-S ,  4-C ) :   1.1271 B(  1-C ,  2-C ) :   1.6241
B(  1-C , 32-H ) :   0.9648 B(  2-C ,  3-C ) :   1.2337 B(  2-C ,  6-C ) :   1.0256
B(  3-C ,  4-C ) :   1.5697 B(  3-C ,  5-H ) :   0.9977 B(  4-C , 20-C ) :   1.0422
B(  6-C ,  7-H ) :   0.9453 B(  6-C ,  8-H ) :   0.9438 B(  6-C ,  9-C ) :   1.0606
B(  9-C , 10-H ) :   0.9597 B(  9-C , 11-H ) :   0.9573 B(  9-C , 12-C ) :   1.0665
B( 12-C , 13-H ) :   0.9741 B( 12-C , 14-H ) :   0.9738 B( 12-C , 15-H ) :   0.9800
B( 16-S , 17-C ) :   1.1612 B( 16-S , 20-C ) :   1.1596 B( 17-C , 18-C ) :   1.5755
B( 17-C , 20-C ) :   0.1082 B( 17-C , 33-H ) :   0.9717 B( 18-C , 19-C ) :   1.2830
B( 18-C , 21-H ) :   0.9846 B( 19-C , 20-C ) :   1.5627 B( 19-C , 22-C ) :   1.0594
B( 22-C , 23-H ) :   0.9214 B( 22-C , 24-H ) :   0.9382 B( 22-C , 25-C ) :   1.0224
B( 25-C , 26-H ) :   0.9659 B( 25-C , 27-H ) :   0.9553 B( 25-C , 28-C ) :   1.0771
B( 28-C , 29-H ) :   0.9715 B( 28-C , 30-H ) :   0.9759 B( 28-C , 31-H ) :   0.9765

Dispersion correction           -0.015247948
FINAL SINGLE POINT ENERGY     -1339.872347447751

DIPOLE MOMENT
-------------
                                X             Y             Z
Electronic contribution:     10.10459     -23.27275     -18.63310
Nuclear contribution   :    -10.29854      23.87827      19.17999
                        -----------------------------------------
Total Dipole Moment    :     -0.19395       0.60552       0.54689
                        -----------------------------------------
Magnitude (a.u.)       :      0.83867
Magnitude (Debye)      :      2.13172

Rotational constants in cm-1:     0.016703     0.010316     0.006845
Rotational constants in MHz :   500.743077   309.260948   205.215175

                             ****ORCA TERMINATED NORMALLY****
TOTAL RUN TIME: 0 days 0 hours 0 minutes 22 seconds 400 msec
