                         Program Version 4.2.1 -  RELEASE  -
|  1> ! wB97X-D3 SP def2-SVP
|  2> %pal
|  3> nprocs 24
|  4> end
|  5>
|  6> * xyz 0 1
|  7> S 	 -21.1962 	 -30.7143 	 -99.7116
|  8> C 	 -20.2324 	 -29.5809 	 -100.688
|  9> C 	 -20.068 	 -30.1012 	 -101.983
| 10> C 	 -20.494 	 -31.4935 	 -102.099
| 11> C 	 -20.9827 	 -32.0363 	 -100.928
| 12> H 	 -20.4141 	 -32.0579 	 -103.012
| 13> C 	 -19.4265 	 -29.339 	 -103.12
| 14> H 	 -18.8042 	 -29.9696 	 -103.764
| 15> H 	 -18.6451 	 -28.7208 	 -102.627
| 16> C 	 -20.3234 	 -28.3762 	 -103.929
| 17> H 	 -19.7486 	 -28.13 	 -104.83
| 18> H 	 -21.2417 	 -28.8672 	 -104.206
| 19> C 	 -20.9382 	 -27.1338 	 -103.31
| 20> H 	 -21.7716 	 -26.8333 	 -104.019
| 21> H 	 -21.4265 	 -27.3204 	 -102.335
| 22> H 	 -20.1968 	 -26.3056 	 -103.176
| 23> S 	 -20.5524 	 -34.4338 	 -99.6252
| 24> C 	 -21.5817 	 -35.7724 	 -99.9279
| 25> C 	 -22.6411 	 -35.4159 	 -100.684
| 26> C 	 -22.556 	 -34.0788 	 -101.245
| 27> C 	 -21.4952 	 -33.3805 	 -100.709
| 28> H 	 -23.4952 	 -36.1028 	 -100.786
| 29> C 	 -23.689 	 -33.5495 	 -102.064
| 30> H 	 -23.8893 	 -34.4258 	 -102.69
| 31> H 	 -23.2423 	 -32.7175 	 -102.734
| 32> C 	 -24.9287 	 -33.0563 	 -101.386
| 33> H 	 -25.3915 	 -33.7515 	 -100.727
| 34> H 	 -25.7528 	 -33.1204 	 -102.086
| 35> C 	 -24.6623 	 -31.6501 	 -100.837
| 36> H 	 -24.1062 	 -30.9923 	 -101.565
| 37> H 	 -23.9386 	 -31.7116 	 -99.9557
| 38> H 	 -25.627 	 -31.2369 	 -100.639
| 39> H 	 -20.1624 	 -28.5723 	 -100.464
| 40> H 	 -21.4036 	 -36.6779 	 -99.4117
| 41> *
| 42>
| 43>                          ****END OF INPUT****

CARTESIAN COORDINATES (ANGSTROEM)
---------------------------------
  S    -21.196200  -30.714300  -99.711600
  C    -20.232400  -29.580900  -100.688000
  C    -20.068000  -30.101200  -101.983000
  C    -20.494000  -31.493500  -102.099000
  C    -20.982700  -32.036300  -100.928000
  H    -20.414100  -32.057900  -103.012000
  C    -19.426500  -29.339000  -103.120000
  H    -18.804200  -29.969600  -103.764000
  H    -18.645100  -28.720800  -102.627000
  C    -20.323400  -28.376200  -103.929000
  H    -19.748600  -28.130000  -104.830000
  H    -21.241700  -28.867200  -104.206000
  C    -20.938200  -27.133800  -103.310000
  H    -21.771600  -26.833300  -104.019000
  H    -21.426500  -27.320400  -102.335000
  H    -20.196800  -26.305600  -103.176000
  S    -20.552400  -34.433800  -99.625200
  C    -21.581700  -35.772400  -99.927900
  C    -22.641100  -35.415900  -100.684000
  C    -22.556000  -34.078800  -101.245000
  C    -21.495200  -33.380500  -100.709000
  H    -23.495200  -36.102800  -100.786000
  C    -23.689000  -33.549500  -102.064000
  H    -23.889300  -34.425800  -102.690000
  H    -23.242300  -32.717500  -102.734000
  C    -24.928700  -33.056300  -101.386000
  H    -25.391500  -33.751500  -100.727000
  H    -25.752800  -33.120400  -102.086000
  C    -24.662300  -31.650100  -100.837000
  H    -24.106200  -30.992300  -101.565000
  H    -23.938600  -31.711600  -99.955700
  H    -25.627000  -31.236900  -100.639000
  H    -20.162400  -28.572300  -100.464000
  H    -21.403600  -36.677900  -99.411700

 Total Charge           Charge          ....    0
 Multiplicity           Mult            ....    1
 Number of Electrons    NEL             ....  134
 Basis Dimension        Dim             ....  322

ORBITAL ENERGIES
----------------

  NO   OCC          E(Eh)            E(eV)
   0   2.0000     -88.964929     -2420.8588
   1   2.0000     -88.958665     -2420.6883
   2   2.0000     -10.335144      -281.2336
   3   2.0000     -10.326464      -280.9974
   4   2.0000     -10.315656      -280.7033
   5   2.0000     -10.311615      -280.5933
   6   2.0000     -10.308077      -280.4970
   7   2.0000     -10.304333      -280.3952
   8   2.0000     -10.298947      -280.2486
   9   2.0000     -10.295709      -280.1605
  10   2.0000     -10.292868      -280.0832
  11   2.0000     -10.292197      -280.0649
  12   2.0000     -10.287721      -279.9431
  13   2.0000     -10.287172      -279.9282
  14   2.0000     -10.280553      -279.7481
  15   2.0000     -10.279039      -279.7069
  16   2.0000      -8.078113      -219.8166
  17   2.0000      -8.074283      -219.7124
  18   2.0000      -6.036851      -164.2711
  19   2.0000      -6.032879      -164.1630
  20   2.0000      -6.032819      -164.1614
  21   2.0000      -6.028661      -164.0482
  22   2.0000      -6.028615      -164.0469
  23   2.0000      -6.024992      -163.9484
  24   2.0000      -1.003084       -27.2953
  25   2.0000      -0.978160       -26.6171
  26   2.0000      -0.914840       -24.8941
  27   2.0000      -0.909036       -24.7361
  28   2.0000      -0.869909       -23.6714
  29   2.0000      -0.848574       -23.0909
  30   2.0000      -0.843497       -22.9527
  31   2.0000      -0.815467       -22.1900
  32   2.0000      -0.781530       -21.2665
  33   2.0000      -0.770703       -20.9719
  34   2.0000      -0.712812       -19.3966
  35   2.0000      -0.699350       -19.0303
  36   2.0000      -0.692419       -18.8417
  37   2.0000      -0.659150       -17.9364
  38   2.0000      -0.643684       -17.5155
  39   2.0000      -0.617731       -16.8093
  40   2.0000      -0.598540       -16.2871
  41   2.0000      -0.572893       -15.5892
  42   2.0000      -0.562045       -15.2940
  43   2.0000      -0.543281       -14.7834
  44   2.0000      -0.542510       -14.7624
  45   2.0000      -0.525790       -14.3075
  46   2.0000      -0.520847       -14.1730
  47   2.0000      -0.515610       -14.0305
  48   2.0000      -0.501866       -13.6565
  49   2.0000      -0.499609       -13.5950
  50   2.0000      -0.491535       -13.3753
  51   2.0000      -0.478061       -13.0087
  52   2.0000      -0.469874       -12.7859
  53   2.0000      -0.460916       -12.5422
  54   2.0000      -0.458013       -12.4632
  55   2.0000      -0.449970       -12.2443
  56   2.0000      -0.442891       -12.0517
  57   2.0000      -0.436453       -11.8765
  58   2.0000      -0.429122       -11.6770
  59   2.0000      -0.420699       -11.4478
  60   2.0000      -0.415742       -11.3129
  61   2.0000      -0.410189       -11.1618
  62   2.0000      -0.401175       -10.9165
  63   2.0000      -0.339306        -9.2330
  64   2.0000      -0.327597        -8.9144
  65   2.0000      -0.324070        -8.8184
  66   2.0000      -0.304411        -8.2834
  67   0.0000       0.033087         0.9004
  68   0.0000       0.057841         1.5739
  69   0.0000       0.103214         2.8086
  70   0.0000       0.119493         3.2516
  71   0.0000       0.124840         3.3971

MULLIKEN ATOMIC CHARGES
-----------------------
   0 S :    0.086011
   1 C :   -0.076022
   2 C :   -0.119825
   3 C :    0.063553
   4 C :   -0.151851
   5 H :    0.014320
   6 C :    0.052231
   7 H :    0.027285
   8 H :    0.025878
   9 C :   -0.057705
  10 H :    0.034987
  11 H :    0.020776
  12 C :   -0.089583
  13 H :    0.046301
  14 H :    0.038876
  15 H :    0.038284
  16 S :    0.098190
  17 C :   -0.072405
  18 C :   -0.046387
  19 C :   -0.015720
  20 C :   -0.184323
  21 H :    0.027005
  22 C :    0.020106
  23 H :    0.021178
  24 H :    0.036971
  25 C :   -0.003273
  26 H :    0.005200
  27 H :    0.010164
  28 C :   -0.051936
  29 H :    0.037150
  30 H :    0.050012
  31 H :    0.032093
  32 H :    0.034040
  33 H :    0.048417
Sum of atomic charges:   -0.0000000

LOEWDIN ATOMIC CHARGES
----------------------
   0 S :    0.374087
   1 C :   -0.177674
   2 C :   -0.057434
   3 C :   -0.053903
   4 C :   -0.176026
   5 H :    0.031798
   6 C :   -0.041807
   7 H :    0.032559
   8 H :    0.036079
   9 C :   -0.046515
  10 H :    0.028606
  11 H :    0.023534
  12 C :   -0.072983
  13 H :    0.037590
  14 H :    0.025620
  15 H :    0.023471
  16 S :    0.402197
  17 C :   -0.178888
  18 C :   -0.077942
  19 C :   -0.051508
  20 C :   -0.200246
  21 H :    0.034507
  22 C :   -0.039622
  23 H :    0.031160
  24 H :    0.039827
  25 C :   -0.045972
  26 H :    0.022296
  27 H :    0.025468
  28 C :   -0.064759
  29 H :    0.030069
  30 H :    0.029277
  31 H :    0.021319
  32 H :    0.013110
  33 H :    0.022705

  Mayer bond orders larger than 0.100000
B(  0-S ,  1-C ) :   1.1246 B(  0-S ,  4-C ) :   1.1333 B(  1-C ,  2-C ) :   1.6164
B(  1-C , 32-H ) :   0.9729 B(  2-C ,  3-C ) :   1.2208 B(  2-C ,  6-C ) :   1.0210
B(  3-C ,  4-C ) :   1.5979 B(  3-C ,  5-H ) :   0.9975 B(  4-C , 20-C ) :   1.0283
B(  6-C ,  7-H ) :   0.9463 B(  6-C ,  8-H ) :   0.9426 B(  6-C ,  9-C ) :   1.0599
B(  9-C , 10-H ) :   0.9542 B(  9-C , 11-H ) :   0.9604 B(  9-C , 12-C ) :   1.0771
B( 12-C , 13-H ) :   0.9754 B( 12-C , 14-H ) :   0.9696 B( 12-C , 15-H ) :   0.9745
B( 16-S , 17-C ) :   1.1618 B( 16-S , 20-C ) :   1.1303 B( 17-C , 18-C ) :   1.6213
B( 17-C , 33-H ) :   0.9731 B( 18-C , 19-C ) :   1.2048 B( 18-C , 21-H ) :   0.9864
B( 19-C , 20-C ) :   1.6163 B( 19-C , 22-C ) :   1.0513 B( 22-C , 23-H ) :   0.9186
B( 22-C , 24-H ) :   0.9346 B( 22-C , 25-C ) :   1.0897 B( 25-C , 26-H ) :   0.9428
B( 25-C , 27-H ) :   0.9435 B( 25-C , 28-C ) :   1.0620 B( 28-C , 29-H ) :   0.9757
B( 28-C , 30-H ) :   0.9713 B( 28-C , 31-H ) :   0.9719

Dispersion correction           -0.015592254
FINAL SINGLE POINT ENERGY     -1339.867805971978

DIPOLE MOMENT
-------------
                                X             Y             Z
Electronic contribution:     10.58651     -16.11049      16.35245
Nuclear contribution   :    -10.96473      16.14761     -16.92611
                        -----------------------------------------
Total Dipole Moment    :     -0.37822       0.03712      -0.57366
                        -----------------------------------------
Magnitude (a.u.)       :      0.68812
Magnitude (Debye)      :      1.74907

Rotational constants in cm-1:     0.022482     0.008254     0.007210
Rotational constants in MHz :   673.988276   247.459942   216.160926

                             ****ORCA TERMINATED NORMALLY****
TOTAL RUN TIME: 0 days 0 hours 0 minutes 22 seconds 237 msec
