                         Program Version 4.2.1 -  RELEASE  -
|  1> ! wB97X-D3 SP def2-SVP
|  2> %pal
|  3> nprocs 24
|  4> end
|  5>
|  6> * xyz 0 1
|  7> S 	 -37.3577 	 -0.700589 	 -6.84927
|  8> C 	 -36.6539 	 -1.2922 	 -5.38058
|  9> C 	 -35.8278 	 -2.38634 	 -5.63072
| 10> C 	 -35.6559 	 -2.60006 	 -7.01678
| 11> C 	 -36.5215 	 -1.88037 	 -7.77685
| 12> H 	 -34.9371 	 -3.24048 	 -7.47247
| 13> C 	 -35.125 	 -3.24269 	 -4.5988
| 14> H 	 -35.3693 	 -4.29345 	 -4.77845
| 15> H 	 -35.6099 	 -2.96616 	 -3.66426
| 16> C 	 -33.6133 	 -2.93514 	 -4.48728
| 17> H 	 -33.0577 	 -2.88024 	 -5.43729
| 18> H 	 -33.4937 	 -1.91323 	 -4.09184
| 19> C 	 -32.8403 	 -3.82534 	 -3.52143
| 20> H 	 -31.8173 	 -3.50287 	 -3.34171
| 21> H 	 -33.3351 	 -3.68814 	 -2.55856
| 22> H 	 -32.9223 	 -4.85556 	 -3.76455
| 23> S 	 -36.1905 	 -0.411298 	 -10.0838
| 24> C 	 -36.3619 	 -1.23328 	 -11.5748
| 25> C 	 -36.8814 	 -2.49197 	 -11.4
| 26> C 	 -36.9689 	 -2.93817 	 -10.0702
| 27> C 	 -36.6926 	 -1.89402 	 -9.19395
| 28> H 	 -36.9955 	 -2.98761 	 -12.3012
| 29> C 	 -37.2992 	 -4.37806 	 -9.6273
| 30> H 	 -36.5424 	 -4.71975 	 -8.89347
| 31> H 	 -37.3013 	 -4.96287 	 -10.562
| 32> C 	 -38.6761 	 -4.51815 	 -8.97319
| 33> H 	 -39.4891 	 -4.12107 	 -9.60667
| 34> H 	 -38.6662 	 -3.81648 	 -8.13413
| 35> C 	 -38.989 	 -5.95257 	 -8.53978
| 36> H 	 -39.9045 	 -5.83105 	 -7.99545
| 37> H 	 -38.2792 	 -6.48731 	 -7.94521
| 38> H 	 -39.1836 	 -6.55169 	 -9.40606
| 39> H 	 -36.8601 	 -0.980366 	 -4.41242
| 40> H 	 -36.0979 	 -0.765212 	 -12.5118
| 41> *
| 42>
| 43>                          ****END OF INPUT****

CARTESIAN COORDINATES (ANGSTROEM)
---------------------------------
  S    -37.357700   -0.700589   -6.849270
  C    -36.653900   -1.292200   -5.380580
  C    -35.827800   -2.386340   -5.630720
  C    -35.655900   -2.600060   -7.016780
  C    -36.521500   -1.880370   -7.776850
  H    -34.937100   -3.240480   -7.472470
  C    -35.125000   -3.242690   -4.598800
  H    -35.369300   -4.293450   -4.778450
  H    -35.609900   -2.966160   -3.664260
  C    -33.613300   -2.935140   -4.487280
  H    -33.057700   -2.880240   -5.437290
  H    -33.493700   -1.913230   -4.091840
  C    -32.840300   -3.825340   -3.521430
  H    -31.817300   -3.502870   -3.341710
  H    -33.335100   -3.688140   -2.558560
  H    -32.922300   -4.855560   -3.764550
  S    -36.190500   -0.411298  -10.083800
  C    -36.361900   -1.233280  -11.574800
  C    -36.881400   -2.491970  -11.400000
  C    -36.968900   -2.938170  -10.070200
  C    -36.692600   -1.894020   -9.193950
  H    -36.995500   -2.987610  -12.301200
  C    -37.299200   -4.378060   -9.627300
  H    -36.542400   -4.719750   -8.893470
  H    -37.301300   -4.962870  -10.562000
  C    -38.676100   -4.518150   -8.973190
  H    -39.489100   -4.121070   -9.606670
  H    -38.666200   -3.816480   -8.134130
  C    -38.989000   -5.952570   -8.539780
  H    -39.904500   -5.831050   -7.995450
  H    -38.279200   -6.487310   -7.945210
  H    -39.183600   -6.551690   -9.406060
  H    -36.860100   -0.980366   -4.412420
  H    -36.097900   -0.765212  -12.511800

 Total Charge           Charge          ....    0
 Multiplicity           Mult            ....    1
 Number of Electrons    NEL             ....  134
 Basis Dimension        Dim             ....  322

ORBITAL ENERGIES
----------------

  NO   OCC          E(Eh)            E(eV)
   0   2.0000     -88.964124     -2420.8369
   1   2.0000     -88.961787     -2420.7733
   2   2.0000     -10.321849      -280.8718
   3   2.0000     -10.319137      -280.7980
   4   2.0000     -10.312249      -280.6106
   5   2.0000     -10.306846      -280.4635
   6   2.0000     -10.304393      -280.3968
   7   2.0000     -10.297493      -280.2090
   8   2.0000     -10.295091      -280.1437
   9   2.0000     -10.294950      -280.1398
  10   2.0000     -10.288261      -279.9578
  11   2.0000     -10.284827      -279.8644
  12   2.0000     -10.284556      -279.8570
  13   2.0000     -10.282677      -279.8059
  14   2.0000     -10.273708      -279.5618
  15   2.0000     -10.270268      -279.4682
  16   2.0000      -8.079734      -219.8607
  17   2.0000      -8.076845      -219.7821
  18   2.0000      -6.038147      -164.3063
  19   2.0000      -6.035196      -164.2260
  20   2.0000      -6.034071      -164.1954
  21   2.0000      -6.031297      -164.1199
  22   2.0000      -6.030590      -164.1007
  23   2.0000      -6.027767      -164.0239
  24   2.0000      -1.012107       -27.5408
  25   2.0000      -0.987118       -26.8608
  26   2.0000      -0.912219       -24.8227
  27   2.0000      -0.907378       -24.6910
  28   2.0000      -0.871780       -23.7223
  29   2.0000      -0.854922       -23.2636
  30   2.0000      -0.849059       -23.1041
  31   2.0000      -0.815640       -22.1947
  32   2.0000      -0.786164       -21.3926
  33   2.0000      -0.772028       -21.0080
  34   2.0000      -0.709779       -19.3141
  35   2.0000      -0.698795       -19.0152
  36   2.0000      -0.691088       -18.8055
  37   2.0000      -0.661274       -17.9942
  38   2.0000      -0.645815       -17.5735
  39   2.0000      -0.623795       -16.9743
  40   2.0000      -0.595876       -16.2146
  41   2.0000      -0.571411       -15.5489
  42   2.0000      -0.564920       -15.3722
  43   2.0000      -0.556593       -15.1457
  44   2.0000      -0.531589       -14.4653
  45   2.0000      -0.526411       -14.3244
  46   2.0000      -0.517466       -14.0810
  47   2.0000      -0.514121       -13.9899
  48   2.0000      -0.502891       -13.6844
  49   2.0000      -0.501205       -13.6385
  50   2.0000      -0.499132       -13.5821
  51   2.0000      -0.485519       -13.2116
  52   2.0000      -0.474896       -12.9226
  53   2.0000      -0.461191       -12.5496
  54   2.0000      -0.456717       -12.4279
  55   2.0000      -0.453317       -12.3354
  56   2.0000      -0.440782       -11.9943
  57   2.0000      -0.439049       -11.9471
  58   2.0000      -0.435154       -11.8411
  59   2.0000      -0.424379       -11.5479
  60   2.0000      -0.420005       -11.4289
  61   2.0000      -0.415784       -11.3141
  62   2.0000      -0.413586       -11.2543
  63   2.0000      -0.341215        -9.2849
  64   2.0000      -0.332716        -9.0536
  65   2.0000      -0.327926        -8.9233
  66   2.0000      -0.292057        -7.9473
  67   0.0000       0.036782         1.0009
  68   0.0000       0.063936         1.7398
  69   0.0000       0.117406         3.1948
  70   0.0000       0.123181         3.3519
  71   0.0000       0.133893         3.6434

MULLIKEN ATOMIC CHARGES
-----------------------
   0 S :    0.119009
   1 C :   -0.081318
   2 C :   -0.116812
   3 C :    0.044489
   4 C :   -0.174273
   5 H :    0.006453
   6 C :    0.096492
   7 H :    0.035774
   8 H :    0.009498
   9 C :   -0.103447
  10 H :    0.033885
  11 H :    0.024808
  12 C :   -0.016046
  13 H :    0.037477
  14 H :    0.014983
  15 H :    0.025886
  16 S :    0.106449
  17 C :   -0.102461
  18 C :   -0.021763
  19 C :   -0.005635
  20 C :   -0.169979
  21 H :   -0.012742
  22 C :    0.097700
  23 H :    0.032079
  24 H :    0.018077
  25 C :   -0.111391
  26 H :    0.030662
  27 H :    0.033589
  28 C :   -0.000706
  29 H :    0.030348
  30 H :    0.026396
  31 H :    0.022691
  32 H :    0.012918
  33 H :    0.056911
Sum of atomic charges:   -0.0000000

LOEWDIN ATOMIC CHARGES
----------------------
   0 S :    0.426364
   1 C :   -0.197208
   2 C :   -0.057953
   3 C :   -0.060461
   4 C :   -0.206161
   5 H :    0.028007
   6 C :   -0.027896
   7 H :    0.031651
   8 H :    0.029422
   9 C :   -0.044688
  10 H :    0.022840
  11 H :    0.028339
  12 C :   -0.063708
  13 H :    0.028653
  14 H :    0.024419
  15 H :    0.017919
  16 S :    0.400527
  17 C :   -0.187232
  18 C :   -0.073904
  19 C :   -0.046772
  20 C :   -0.193054
  21 H :    0.020151
  22 C :   -0.027961
  23 H :    0.034617
  24 H :    0.029364
  25 C :   -0.041860
  26 H :    0.028181
  27 H :    0.023448
  28 C :   -0.059224
  29 H :    0.029249
  30 H :    0.021248
  31 H :    0.022635
  32 H :    0.012624
  33 H :    0.028422

  Mayer bond orders larger than 0.100000
B(  0-S ,  1-C ) :   1.1366 B(  0-S ,  4-C ) :   1.1602 B(  1-C ,  2-C ) :   1.6112
B(  1-C , 32-H ) :   0.9744 B(  2-C ,  3-C ) :   1.2340 B(  2-C ,  6-C ) :   1.0259
B(  3-C ,  4-C ) :   1.5885 B(  3-C ,  5-H ) :   0.9968 B(  4-C , 20-C ) :   1.0259
B(  6-C ,  7-H ) :   0.9434 B(  6-C ,  8-H ) :   0.9320 B(  6-C ,  9-C ) :   1.0520
B(  9-C , 10-H ) :   0.9633 B(  9-C , 11-H ) :   0.9521 B(  9-C , 12-C ) :   1.0853
B( 12-C , 13-H ) :   0.9732 B( 12-C , 14-H ) :   0.9716 B( 12-C , 15-H ) :   0.9762
B( 16-S , 17-C ) :   1.1713 B( 16-S , 20-C ) :   1.1423 B( 17-C , 18-C ) :   1.6012
B( 17-C , 20-C ) :   0.1082 B( 17-C , 33-H ) :   0.9673 B( 18-C , 19-C ) :   1.2320
B( 18-C , 21-H ) :   1.0043 B( 19-C , 20-C ) :   1.5859 B( 19-C , 22-C ) :   1.0378
B( 22-C , 23-H ) :   0.9293 B( 22-C , 24-H ) :   0.9305 B( 22-C , 25-C ) :   1.0736
B( 25-C , 26-H ) :   0.9511 B( 25-C , 27-H ) :   0.9573 B( 25-C , 28-C ) :   1.0813
B( 28-C , 29-H ) :   0.9723 B( 28-C , 30-H ) :   0.9751 B( 28-C , 31-H ) :   0.9732

Dispersion correction           -0.014170424
FINAL SINGLE POINT ENERGY     -1339.886278785595

DIPOLE MOMENT
-------------
                                X             Y             Z
Electronic contribution:     -4.87577      23.13845     -13.45920
Nuclear contribution   :      5.07462     -23.69837      13.54441
                        -----------------------------------------
Total Dipole Moment    :      0.19884      -0.55993       0.08521
                        -----------------------------------------
Magnitude (a.u.)       :      0.60026
Magnitude (Debye)      :      1.52575

Rotational constants in cm-1:     0.017571     0.008458     0.007089
Rotational constants in MHz :   526.754971   253.563721   212.512787

                             ****ORCA TERMINATED NORMALLY****
TOTAL RUN TIME: 0 days 0 hours 0 minutes 20 seconds 300 msec
