                         Program Version 4.2.1 -  RELEASE  -
|  1> ! wB97X-D3 SP def2-SVP
|  2> %pal
|  3> nprocs 24
|  4> end
|  5>
|  6> * xyz 0 1
|  7> S 	 -135.891 	 8.4338 	 -12.7938
|  8> C 	 -135.576 	 9.8986 	 -13.7285
|  9> C 	 -134.91 	 10.8571 	 -12.9822
| 10> C 	 -134.472 	 10.2821 	 -11.7381
| 11> C 	 -134.793 	 8.96805 	 -11.524
| 12> H 	 -134.017 	 10.7982 	 -10.8914
| 13> C 	 -134.428 	 12.217 	 -13.453
| 14> H 	 -134.638 	 12.4189 	 -14.5246
| 15> H 	 -133.259 	 12.1932 	 -13.3698
| 16> C 	 -134.958 	 13.4139 	 -12.7049
| 17> H 	 -134.717 	 14.304 	 -13.3326
| 18> H 	 -136.054 	 13.3105 	 -12.6312
| 19> C 	 -134.353 	 13.7859 	 -11.3293
| 20> H 	 -134.73 	 14.7177 	 -10.93
| 21> H 	 -134.459 	 12.9409 	 -10.5261
| 22> H 	 -133.308 	 14.0777 	 -11.4554
| 23> S 	 -135.94 	 7.26987 	 -9.72977
| 24> C 	 -135.122 	 6.79536 	 -8.26492
| 25> C 	 -133.834 	 7.14894 	 -8.35935
| 26> C 	 -133.462 	 8.03531 	 -9.40944
| 27> C 	 -134.495 	 8.1312 	 -10.342
| 28> H 	 -133.264 	 6.91164 	 -7.46671
| 29> C 	 -132.035 	 8.74831 	 -9.59898
| 30> H 	 -131.981 	 8.97727 	 -10.6455
| 31> H 	 -131.284 	 8.0114 	 -9.34557
| 32> C 	 -131.871 	 10.0795 	 -8.88181
| 33> H 	 -132.515 	 10.751 	 -9.31701
| 34> H 	 -130.842 	 10.4201 	 -8.85904
| 35> C 	 -132.389 	 10.0473 	 -7.44523
| 36> H 	 -133.454 	 9.81396 	 -7.31308
| 37> H 	 -132.342 	 11.0633 	 -7.04072
| 38> H 	 -131.816 	 9.34855 	 -6.82205
| 39> H 	 -136.052 	 10.1427 	 -14.6228
| 40> H 	 -135.573 	 6.32495 	 -7.3872
| 41> *
| 42>
| 43>                          ****END OF INPUT****

CARTESIAN COORDINATES (ANGSTROEM)
---------------------------------
  S    -135.891000    8.433800  -12.793800
  C    -135.576000    9.898600  -13.728500
  C    -134.910000   10.857100  -12.982200
  C    -134.472000   10.282100  -11.738100
  C    -134.793000    8.968050  -11.524000
  H    -134.017000   10.798200  -10.891400
  C    -134.428000   12.217000  -13.453000
  H    -134.638000   12.418900  -14.524600
  H    -133.259000   12.193200  -13.369800
  C    -134.958000   13.413900  -12.704900
  H    -134.717000   14.304000  -13.332600
  H    -136.054000   13.310500  -12.631200
  C    -134.353000   13.785900  -11.329300
  H    -134.730000   14.717700  -10.930000
  H    -134.459000   12.940900  -10.526100
  H    -133.308000   14.077700  -11.455400
  S    -135.940000    7.269870   -9.729770
  C    -135.122000    6.795360   -8.264920
  C    -133.834000    7.148940   -8.359350
  C    -133.462000    8.035310   -9.409440
  C    -134.495000    8.131200  -10.342000
  H    -133.264000    6.911640   -7.466710
  C    -132.035000    8.748310   -9.598980
  H    -131.981000    8.977270  -10.645500
  H    -131.284000    8.011400   -9.345570
  C    -131.871000   10.079500   -8.881810
  H    -132.515000   10.751000   -9.317010
  H    -130.842000   10.420100   -8.859040
  C    -132.389000   10.047300   -7.445230
  H    -133.454000    9.813960   -7.313080
  H    -132.342000   11.063300   -7.040720
  H    -131.816000    9.348550   -6.822050
  H    -136.052000   10.142700  -14.622800
  H    -135.573000    6.324950   -7.387200

 Total Charge           Charge          ....    0
 Multiplicity           Mult            ....    1
 Number of Electrons    NEL             ....  134
 Basis Dimension        Dim             ....  322

ORBITAL ENERGIES
----------------

  NO   OCC          E(Eh)            E(eV)
   0   2.0000     -88.965745     -2420.8810
   1   2.0000     -88.960883     -2420.7487
   2   2.0000     -10.334454      -281.2148
   3   2.0000     -10.333056      -281.1767
   4   2.0000     -10.315630      -280.7026
   5   2.0000     -10.313423      -280.6425
   6   2.0000     -10.313067      -280.6328
   7   2.0000     -10.305483      -280.4265
   8   2.0000     -10.304654      -280.4039
   9   2.0000     -10.295848      -280.1643
  10   2.0000     -10.293805      -280.1087
  11   2.0000     -10.293114      -280.0899
  12   2.0000     -10.290241      -280.0117
  13   2.0000     -10.288491      -279.9641
  14   2.0000     -10.281181      -279.7652
  15   2.0000     -10.274804      -279.5916
  16   2.0000      -8.080146      -219.8719
  17   2.0000      -8.075686      -219.7506
  18   2.0000      -6.038774      -164.3234
  19   2.0000      -6.034877      -164.2173
  20   2.0000      -6.034243      -164.2001
  21   2.0000      -6.030615      -164.1014
  22   2.0000      -6.030213      -164.0904
  23   2.0000      -6.026333      -163.9849
  24   2.0000      -1.006039       -27.3757
  25   2.0000      -0.984851       -26.7992
  26   2.0000      -0.912283       -24.8245
  27   2.0000      -0.911047       -24.7908
  28   2.0000      -0.871491       -23.7145
  29   2.0000      -0.847505       -23.0618
  30   2.0000      -0.839182       -22.8353
  31   2.0000      -0.819062       -22.2878
  32   2.0000      -0.786498       -21.4017
  33   2.0000      -0.778727       -21.1902
  34   2.0000      -0.708506       -19.2794
  35   2.0000      -0.695587       -18.9279
  36   2.0000      -0.692860       -18.8537
  37   2.0000      -0.658097       -17.9077
  38   2.0000      -0.641737       -17.4626
  39   2.0000      -0.619022       -16.8445
  40   2.0000      -0.591621       -16.0988
  41   2.0000      -0.574607       -15.6358
  42   2.0000      -0.569849       -15.5064
  43   2.0000      -0.544195       -14.8083
  44   2.0000      -0.541739       -14.7415
  45   2.0000      -0.537454       -14.6249
  46   2.0000      -0.518655       -14.1133
  47   2.0000      -0.507808       -13.8182
  48   2.0000      -0.505181       -13.7467
  49   2.0000      -0.497480       -13.5371
  50   2.0000      -0.494789       -13.4639
  51   2.0000      -0.487176       -13.2567
  52   2.0000      -0.478078       -13.0092
  53   2.0000      -0.464133       -12.6297
  54   2.0000      -0.457389       -12.4462
  55   2.0000      -0.441757       -12.0208
  56   2.0000      -0.437943       -11.9170
  57   2.0000      -0.433899       -11.8070
  58   2.0000      -0.430661       -11.7189
  59   2.0000      -0.422929       -11.5085
  60   2.0000      -0.420502       -11.4424
  61   2.0000      -0.416557       -11.3351
  62   2.0000      -0.411580       -11.1997
  63   2.0000      -0.356596        -9.7035
  64   2.0000      -0.332374        -9.0443
  65   2.0000      -0.327776        -8.9192
  66   2.0000      -0.291704        -7.9377
  67   0.0000       0.026478         0.7205
  68   0.0000       0.068325         1.8592
  69   0.0000       0.105270         2.8646
  70   0.0000       0.114936         3.1276
  71   0.0000       0.126763         3.4494

MULLIKEN ATOMIC CHARGES
-----------------------
   0 S :    0.097379
   1 C :   -0.089090
   2 C :   -0.055750
   3 C :    0.006646
   4 C :   -0.114616
   5 H :   -0.010191
   6 C :    0.019920
   7 H :    0.031451
   8 H :    0.050980
   9 C :   -0.083620
  10 H :    0.033965
  11 H :    0.040181
  12 C :   -0.071052
  13 H :    0.030273
  14 H :    0.052645
  15 H :    0.024844
  16 S :    0.072893
  17 C :   -0.099991
  18 C :   -0.024140
  19 C :   -0.089422
  20 C :   -0.127697
  21 H :    0.017155
  22 C :    0.094210
  23 H :    0.026464
  24 H :    0.032632
  25 C :   -0.009797
  26 H :    0.000728
  27 H :    0.038965
  28 C :   -0.090369
  29 H :    0.044626
  30 H :    0.028084
  31 H :    0.028351
  32 H :    0.026668
  33 H :    0.066676
Sum of atomic charges:    0.0000000

LOEWDIN ATOMIC CHARGES
----------------------
   0 S :    0.387531
   1 C :   -0.177828
   2 C :   -0.061591
   3 C :   -0.071150
   4 C :   -0.185402
   5 H :    0.026486
   6 C :   -0.040489
   7 H :    0.035484
   8 H :    0.043566
   9 C :   -0.049388
  10 H :    0.031471
  11 H :    0.027966
  12 C :   -0.077451
  13 H :    0.026105
  14 H :    0.032398
  15 H :    0.024184
  16 S :    0.380134
  17 C :   -0.182965
  18 C :   -0.080869
  19 C :   -0.053098
  20 C :   -0.176731
  21 H :    0.031426
  22 C :   -0.016934
  23 H :    0.029793
  24 H :    0.029743
  25 C :   -0.032655
  26 H :    0.010764
  27 H :    0.030535
  28 C :   -0.069169
  29 H :    0.028039
  30 H :    0.025482
  31 H :    0.019751
  32 H :    0.016107
  33 H :    0.038756

  Mayer bond orders larger than 0.100000
B(  0-S ,  1-C ) :   1.1301 B(  0-S ,  4-C ) :   1.1315 B(  1-C ,  2-C ) :   1.6299
B(  1-C , 32-H ) :   0.9699 B(  2-C ,  3-C ) :   1.2099 B(  2-C ,  6-C ) :   1.0250
B(  3-C ,  4-C ) :   1.6124 B(  3-C ,  5-H ) :   0.9872 B(  4-C , 20-C ) :   1.0292
B(  6-C ,  7-H ) :   0.9426 B(  6-C ,  8-H ) :   0.9447 B(  6-C ,  9-C ) :   1.0650
B(  9-C , 10-H ) :   0.9539 B(  9-C , 11-H ) :   0.9527 B(  9-C , 12-C ) :   1.0839
B( 12-C , 13-H ) :   0.9699 B( 12-C , 14-H ) :   0.9705 B( 12-C , 15-H ) :   0.9710
B( 16-S , 17-C ) :   1.1396 B( 16-S , 20-C ) :   1.1326 B( 17-C , 18-C ) :   1.6478
B( 17-C , 33-H ) :   0.9647 B( 18-C , 19-C ) :   1.2167 B( 18-C , 21-H ) :   0.9832
B( 19-C , 20-C ) :   1.6234 B( 19-C , 22-C ) :   1.0103 B( 22-C , 23-H ) :   0.9387
B( 22-C , 24-H ) :   0.9435 B( 22-C , 25-C ) :   1.0777 B( 25-C , 26-H ) :   0.9442
B( 25-C , 27-H ) :   0.9514 B( 25-C , 28-C ) :   1.0964 B( 28-C , 29-H ) :   0.9652
B( 28-C , 30-H ) :   0.9731 B( 28-C , 31-H ) :   0.9777

Dispersion correction           -0.015142227
FINAL SINGLE POINT ENERGY     -1339.865533328488

DIPOLE MOMENT
-------------
                                X             Y             Z
Electronic contribution:    -15.22907     -24.35955      -7.46834
Nuclear contribution   :     15.62653      25.05054       7.74884
                        -----------------------------------------
Total Dipole Moment    :      0.39746       0.69099       0.28050
                        -----------------------------------------
Magnitude (a.u.)       :      0.84506
Magnitude (Debye)      :      2.14797

Rotational constants in cm-1:     0.017550     0.010143     0.007194
Rotational constants in MHz :   526.146884   304.067900   215.662754

                             ****ORCA TERMINATED NORMALLY****
TOTAL RUN TIME: 0 days 0 hours 0 minutes 22 seconds 462 msec
