                         Program Version 4.2.1 -  RELEASE  -
|  1> ! wB97X-D3 SP def2-SVP
|  2> %pal
|  3> nprocs 24
|  4> end
|  5>
|  6> * xyz 0 1
|  7> S 	 -124.252 	 65.831 	 -40.8044
|  8> C 	 -124.904 	 67.3614 	 -41.3225
|  9> C 	 -123.98 	 68.1818 	 -41.9396
| 10> C 	 -122.879 	 67.3589 	 -42.3801
| 11> C 	 -122.884 	 66.0313 	 -41.8408
| 12> H 	 -122.032 	 67.7014 	 -42.9259
| 13> C 	 -124.194 	 69.6401 	 -42.2957
| 14> H 	 -124.042 	 70.1289 	 -41.295
| 15> H 	 -125.169 	 69.7329 	 -42.6846
| 16> C 	 -123.257 	 70.2621 	 -43.3873
| 17> H 	 -122.26 	 70.245 	 -42.8389
| 18> H 	 -123.176 	 69.6016 	 -44.2299
| 19> C 	 -123.557 	 71.7083 	 -43.8804
| 20> H 	 -122.709 	 72.0962 	 -44.403
| 21> H 	 -124.398 	 71.8001 	 -44.601
| 22> H 	 -123.84 	 72.3927 	 -43.0546
| 23> S 	 -121.09 	 64.1715 	 -40.7848
| 24> C 	 -120.056 	 63.3012 	 -41.8429
| 25> C 	 -120.291 	 63.641 	 -43.1543
| 26> C 	 -121.172 	 64.7525 	 -43.3113
| 27> C 	 -121.862 	 65.0069 	 -42.0998
| 28> H 	 -119.726 	 63.1346 	 -43.9678
| 29> C 	 -121.491 	 65.2456 	 -44.7294
| 30> H 	 -122.276 	 66.01 	 -44.8047
| 31> H 	 -121.865 	 64.4161 	 -45.4263
| 32> C 	 -120.305 	 65.8301 	 -45.4467
| 33> H 	 -120.641 	 66.0848 	 -46.489
| 34> H 	 -119.55 	 65.1308 	 -45.7819
| 35> C 	 -119.54 	 66.9717 	 -44.707
| 36> H 	 -119.17 	 66.6278 	 -43.7639
| 37> H 	 -120.172 	 67.8765 	 -44.4504
| 38> H 	 -118.595 	 67.2673 	 -45.2081
| 39> H 	 -125.874 	 67.7485 	 -41.0021
| 40> H 	 -119.47 	 62.4475 	 -41.4078
| 41> *
| 42>
| 43>                          ****END OF INPUT****

CARTESIAN COORDINATES (ANGSTROEM)
---------------------------------
  S    -124.252000   65.831000  -40.804400
  C    -124.904000   67.361400  -41.322500
  C    -123.980000   68.181800  -41.939600
  C    -122.879000   67.358900  -42.380100
  C    -122.884000   66.031300  -41.840800
  H    -122.032000   67.701400  -42.925900
  C    -124.194000   69.640100  -42.295700
  H    -124.042000   70.128900  -41.295000
  H    -125.169000   69.732900  -42.684600
  C    -123.257000   70.262100  -43.387300
  H    -122.260000   70.245000  -42.838900
  H    -123.176000   69.601600  -44.229900
  C    -123.557000   71.708300  -43.880400
  H    -122.709000   72.096200  -44.403000
  H    -124.398000   71.800100  -44.601000
  H    -123.840000   72.392700  -43.054600
  S    -121.090000   64.171500  -40.784800
  C    -120.056000   63.301200  -41.842900
  C    -120.291000   63.641000  -43.154300
  C    -121.172000   64.752500  -43.311300
  C    -121.862000   65.006900  -42.099800
  H    -119.726000   63.134600  -43.967800
  C    -121.491000   65.245600  -44.729400
  H    -122.276000   66.010000  -44.804700
  H    -121.865000   64.416100  -45.426300
  C    -120.305000   65.830100  -45.446700
  H    -120.641000   66.084800  -46.489000
  H    -119.550000   65.130800  -45.781900
  C    -119.540000   66.971700  -44.707000
  H    -119.170000   66.627800  -43.763900
  H    -120.172000   67.876500  -44.450400
  H    -118.595000   67.267300  -45.208100
  H    -125.874000   67.748500  -41.002100
  H    -119.470000   62.447500  -41.407800

 Total Charge           Charge          ....    0
 Multiplicity           Mult            ....    1
 Number of Electrons    NEL             ....  134
 Basis Dimension        Dim             ....  322

ORBITAL ENERGIES
----------------

  NO   OCC          E(Eh)            E(eV)
   0   2.0000     -88.969184     -2420.9746
   1   2.0000     -88.964218     -2420.8394
   2   2.0000     -10.331228      -281.1270
   3   2.0000     -10.330846      -281.1166
   4   2.0000     -10.317561      -280.7551
   5   2.0000     -10.311688      -280.5953
   6   2.0000     -10.307160      -280.4721
   7   2.0000     -10.303963      -280.3851
   8   2.0000     -10.298003      -280.2229
   9   2.0000     -10.297584      -280.2115
  10   2.0000     -10.297553      -280.2107
  11   2.0000     -10.296386      -280.1789
  12   2.0000     -10.295159      -280.1455
  13   2.0000     -10.288175      -279.9555
  14   2.0000     -10.286771      -279.9173
  15   2.0000     -10.281300      -279.7684
  16   2.0000      -8.084066      -219.9786
  17   2.0000      -8.080064      -219.8697
  18   2.0000      -6.042531      -164.4256
  19   2.0000      -6.038575      -164.3180
  20   2.0000      -6.038426      -164.3139
  21   2.0000      -6.034863      -164.2170
  22   2.0000      -6.034354      -164.2031
  23   2.0000      -6.030985      -164.1115
  24   2.0000      -1.006579       -27.3904
  25   2.0000      -0.986247       -26.8371
  26   2.0000      -0.909131       -24.7387
  27   2.0000      -0.907688       -24.6995
  28   2.0000      -0.866371       -23.5752
  29   2.0000      -0.846966       -23.0471
  30   2.0000      -0.842678       -22.9304
  31   2.0000      -0.807926       -21.9848
  32   2.0000      -0.785653       -21.3787
  33   2.0000      -0.776009       -21.1163
  34   2.0000      -0.712509       -19.3884
  35   2.0000      -0.696048       -18.9404
  36   2.0000      -0.685728       -18.6596
  37   2.0000      -0.652041       -17.7429
  38   2.0000      -0.633294       -17.2328
  39   2.0000      -0.619729       -16.8637
  40   2.0000      -0.599665       -16.3177
  41   2.0000      -0.573450       -15.6044
  42   2.0000      -0.562158       -15.2971
  43   2.0000      -0.550275       -14.9738
  44   2.0000      -0.530851       -14.4452
  45   2.0000      -0.523998       -14.2587
  46   2.0000      -0.511327       -13.9139
  47   2.0000      -0.506771       -13.7899
  48   2.0000      -0.500087       -13.6080
  49   2.0000      -0.494449       -13.4546
  50   2.0000      -0.488101       -13.2819
  51   2.0000      -0.483695       -13.1620
  52   2.0000      -0.471502       -12.8302
  53   2.0000      -0.466030       -12.6813
  54   2.0000      -0.460945       -12.5429
  55   2.0000      -0.451554       -12.2874
  56   2.0000      -0.443650       -12.0723
  57   2.0000      -0.439797       -11.9675
  58   2.0000      -0.438165       -11.9231
  59   2.0000      -0.427038       -11.6203
  60   2.0000      -0.421303       -11.4642
  61   2.0000      -0.411859       -11.2072
  62   2.0000      -0.402633       -10.9562
  63   2.0000      -0.348486        -9.4828
  64   2.0000      -0.330556        -8.9949
  65   2.0000      -0.330371        -8.9899
  66   2.0000      -0.283778        -7.7220
  67   0.0000       0.026325         0.7163
  68   0.0000       0.072031         1.9601
  69   0.0000       0.114205         3.1077
  70   0.0000       0.115416         3.1406
  71   0.0000       0.129016         3.5107

MULLIKEN ATOMIC CHARGES
-----------------------
   0 S :    0.127895
   1 C :   -0.135081
   2 C :   -0.097114
   3 C :    0.017955
   4 C :   -0.138598
   5 H :   -0.017022
   6 C :    0.076307
   7 H :    0.057692
   8 H :    0.027234
   9 C :   -0.126465
  10 H :    0.042384
  11 H :    0.036543
  12 C :   -0.035952
  13 H :    0.036105
  14 H :    0.034989
  15 H :    0.035137
  16 S :    0.104359
  17 C :   -0.120329
  18 C :   -0.032197
  19 C :   -0.040988
  20 C :   -0.133614
  21 H :    0.037494
  22 C :    0.040817
  23 H :    0.031681
  24 H :    0.048322
  25 C :   -0.092031
  26 H :    0.022088
  27 H :    0.017000
  28 C :   -0.067751
  29 H :    0.033526
  30 H :    0.047137
  31 H :    0.035318
  32 H :    0.044645
  33 H :    0.082513
Sum of atomic charges:    0.0000000

LOEWDIN ATOMIC CHARGES
----------------------
   0 S :    0.423677
   1 C :   -0.204735
   2 C :   -0.059728
   3 C :   -0.061852
   4 C :   -0.203829
   5 H :    0.018996
   6 C :   -0.032118
   7 H :    0.046175
   8 H :    0.025432
   9 C :   -0.045069
  10 H :    0.031221
  11 H :    0.020860
  12 C :   -0.068171
  13 H :    0.026763
  14 H :    0.027951
  15 H :    0.029517
  16 S :    0.420820
  17 C :   -0.207269
  18 C :   -0.072129
  19 C :   -0.060872
  20 C :   -0.201087
  21 H :    0.039095
  22 C :   -0.037638
  23 H :    0.030770
  24 H :    0.045111
  25 C :   -0.053054
  26 H :    0.028126
  27 H :    0.018889
  28 C :   -0.073967
  29 H :    0.023472
  30 H :    0.027260
  31 H :    0.031333
  32 H :    0.026304
  33 H :    0.039747

  Mayer bond orders larger than 0.100000
B(  0-S ,  1-C ) :   1.1518 B(  0-S ,  4-C ) :   1.1622 B(  1-C ,  2-C ) :   1.6021
B(  1-C ,  4-C ) :   0.1003 B(  1-C , 32-H ) :   0.9671 B(  2-C ,  3-C ) :   1.2655
B(  2-C ,  6-C ) :   1.0015 B(  3-C ,  4-C ) :   1.5265 B(  3-C ,  5-H ) :   0.9898
B(  4-C , 20-C ) :   1.0487 B(  6-C ,  7-H ) :   0.9284 B(  6-C ,  8-H ) :   0.9465
B(  6-C ,  9-C ) :   1.0823 B(  9-C , 10-H ) :   0.9517 B(  9-C , 11-H ) :   0.9566
B(  9-C , 12-C ) :   1.0779 B( 12-C , 13-H ) :   0.9736 B( 12-C , 14-H ) :   0.9747
B( 12-C , 15-H ) :   0.9754 B( 16-S , 17-C ) :   1.1640 B( 16-S , 20-C ) :   1.1643
B( 17-C , 18-C ) :   1.5890 B( 17-C , 20-C ) :   0.1007 B( 17-C , 33-H ) :   0.9611
B( 18-C , 19-C ) :   1.2463 B( 18-C , 21-H ) :   0.9856 B( 19-C , 20-C ) :   1.5575
B( 19-C , 22-C ) :   1.0411 B( 22-C , 23-H ) :   0.9426 B( 22-C , 24-H ) :   0.9400
B( 22-C , 25-C ) :   1.0727 B( 25-C , 26-H ) :   0.9527 B( 25-C , 27-H ) :   0.9520
B( 25-C , 28-C ) :   1.0675 B( 28-C , 29-H ) :   0.9696 B( 28-C , 30-H ) :   0.9700
B( 28-C , 31-H ) :   0.9716

Dispersion correction           -0.014809275
FINAL SINGLE POINT ENERGY     -1339.871880004647

DIPOLE MOMENT
-------------
                                X             Y             Z
Electronic contribution:     -5.60653     -23.08561      21.35056
Nuclear contribution   :      5.74587      23.48525     -21.83604
                        -----------------------------------------
Total Dipole Moment    :      0.13934       0.39964      -0.48549
                        -----------------------------------------
Magnitude (a.u.)       :      0.64407
Magnitude (Debye)      :      1.63709

Rotational constants in cm-1:     0.017830     0.009367     0.006679
Rotational constants in MHz :   534.535779   280.822704   200.224056

                             ****ORCA TERMINATED NORMALLY****
TOTAL RUN TIME: 0 days 0 hours 0 minutes 21 seconds 962 msec
