                         Program Version 4.2.1 -  RELEASE  -
|  1> ! wB97X-D3 SP def2-SVP
|  2> %pal
|  3> nprocs 24
|  4> end
|  5>
|  6> * xyz 0 1
|  7> S 	 15.3246 	 -14.0783 	 -121.455
|  8> C 	 13.8643 	 -13.1944 	 -121.68
|  9> C 	 13.4163 	 -13.2545 	 -122.932
| 10> C 	 14.2781 	 -14.0341 	 -123.724
| 11> C 	 15.2644 	 -14.6929 	 -123.03
| 12> H 	 14.2153 	 -14.2975 	 -124.787
| 13> C 	 12.2906 	 -12.3458 	 -123.486
| 14> H 	 12.1657 	 -12.6191 	 -124.553
| 15> H 	 12.7399 	 -11.3466 	 -123.407
| 16> C 	 11.0257 	 -12.5364 	 -122.657
| 17> H 	 10.8208 	 -13.6108 	 -122.441
| 18> H 	 11.1729 	 -12.0499 	 -121.626
| 19> C 	 9.74007 	 -11.9181 	 -123.175
| 20> H 	 9.25122 	 -12.4327 	 -123.997
| 21> H 	 8.99569 	 -11.9933 	 -122.385
| 22> H 	 9.80187 	 -10.8993 	 -123.512
| 23> S 	 17.8639 	 -15.9311 	 -122.637
| 24> C 	 18.101 	 -17.4961 	 -123.479
| 25> C 	 17.0822 	 -17.8244 	 -124.26
| 26> C 	 15.9367 	 -16.8773 	 -124.3
| 27> C 	 16.2097 	 -15.7778 	 -123.431
| 28> H 	 17.2183 	 -18.7494 	 -124.821
| 29> C 	 14.6809 	 -17.2371 	 -124.972
| 30> H 	 15.0395 	 -17.857 	 -125.876
| 31> H 	 14.1224 	 -16.3026 	 -125.417
| 32> C 	 13.6021 	 -17.8744 	 -124.192
| 33> H 	 12.705 	 -17.848 	 -124.763
| 34> H 	 13.3961 	 -17.221 	 -123.309
| 35> C 	 13.9417 	 -19.2405 	 -123.673
| 36> H 	 14.0411 	 -19.9456 	 -124.528
| 37> H 	 13.0998 	 -19.7148 	 -123.101
| 38> H 	 14.8762 	 -19.1081 	 -123.069
| 39> H 	 13.4035 	 -12.5435 	 -120.991
| 40> H 	 18.9428 	 -18.1097 	 -123.263
| 41> *
| 42>
| 43>                          ****END OF INPUT****

CARTESIAN COORDINATES (ANGSTROEM)
---------------------------------
  S     15.324600  -14.078300  -121.455000
  C     13.864300  -13.194400  -121.680000
  C     13.416300  -13.254500  -122.932000
  C     14.278100  -14.034100  -123.724000
  C     15.264400  -14.692900  -123.030000
  H     14.215300  -14.297500  -124.787000
  C     12.290600  -12.345800  -123.486000
  H     12.165700  -12.619100  -124.553000
  H     12.739900  -11.346600  -123.407000
  C     11.025700  -12.536400  -122.657000
  H     10.820800  -13.610800  -122.441000
  H     11.172900  -12.049900  -121.626000
  C      9.740070  -11.918100  -123.175000
  H      9.251220  -12.432700  -123.997000
  H      8.995690  -11.993300  -122.385000
  H      9.801870  -10.899300  -123.512000
  S     17.863900  -15.931100  -122.637000
  C     18.101000  -17.496100  -123.479000
  C     17.082200  -17.824400  -124.260000
  C     15.936700  -16.877300  -124.300000
  C     16.209700  -15.777800  -123.431000
  H     17.218300  -18.749400  -124.821000
  C     14.680900  -17.237100  -124.972000
  H     15.039500  -17.857000  -125.876000
  H     14.122400  -16.302600  -125.417000
  C     13.602100  -17.874400  -124.192000
  H     12.705000  -17.848000  -124.763000
  H     13.396100  -17.221000  -123.309000
  C     13.941700  -19.240500  -123.673000
  H     14.041100  -19.945600  -124.528000
  H     13.099800  -19.714800  -123.101000
  H     14.876200  -19.108100  -123.069000
  H     13.403500  -12.543500  -120.991000
  H     18.942800  -18.109700  -123.263000

 Total Charge           Charge          ....    0
 Multiplicity           Mult            ....    1
 Number of Electrons    NEL             ....  134
 Basis Dimension        Dim             ....  322

ORBITAL ENERGIES
----------------

  NO   OCC          E(Eh)            E(eV)
   0   2.0000     -88.965720     -2420.8803
   1   2.0000     -88.962660     -2420.7971
   2   2.0000     -10.343797      -281.4690
   3   2.0000     -10.325727      -280.9773
   4   2.0000     -10.316328      -280.7215
   5   2.0000     -10.314408      -280.6693
   6   2.0000     -10.301126      -280.3079
   7   2.0000     -10.299931      -280.2754
   8   2.0000     -10.299353      -280.2596
   9   2.0000     -10.297179      -280.2005
  10   2.0000     -10.296519      -280.1825
  11   2.0000     -10.292757      -280.0802
  12   2.0000     -10.289435      -279.9898
  13   2.0000     -10.279456      -279.7182
  14   2.0000     -10.278920      -279.7036
  15   2.0000     -10.275668      -279.6151
  16   2.0000      -8.079190      -219.8459
  17   2.0000      -8.078765      -219.8344
  18   2.0000      -6.037626      -164.2921
  19   2.0000      -6.037494      -164.2886
  20   2.0000      -6.033698      -164.1853
  21   2.0000      -6.033525      -164.1806
  22   2.0000      -6.029964      -164.0837
  23   2.0000      -6.029080      -164.0596
  24   2.0000      -1.015125       -27.6229
  25   2.0000      -0.979154       -26.6441
  26   2.0000      -0.919244       -25.0139
  27   2.0000      -0.913777       -24.8651
  28   2.0000      -0.871153       -23.7053
  29   2.0000      -0.851719       -23.1765
  30   2.0000      -0.841310       -22.8932
  31   2.0000      -0.820353       -22.3229
  32   2.0000      -0.787434       -21.4272
  33   2.0000      -0.773102       -21.0372
  34   2.0000      -0.712571       -19.3900
  35   2.0000      -0.700565       -19.0633
  36   2.0000      -0.682474       -18.5711
  37   2.0000      -0.658314       -17.9136
  38   2.0000      -0.640946       -17.4410
  39   2.0000      -0.614301       -16.7160
  40   2.0000      -0.592160       -16.1135
  41   2.0000      -0.570128       -15.5140
  42   2.0000      -0.562495       -15.3063
  43   2.0000      -0.560626       -15.2554
  44   2.0000      -0.547568       -14.9001
  45   2.0000      -0.530681       -14.4406
  46   2.0000      -0.519653       -14.1405
  47   2.0000      -0.510101       -13.8805
  48   2.0000      -0.503421       -13.6988
  49   2.0000      -0.495554       -13.4847
  50   2.0000      -0.490639       -13.3510
  51   2.0000      -0.482173       -13.1206
  52   2.0000      -0.473802       -12.8928
  53   2.0000      -0.470759       -12.8100
  54   2.0000      -0.456706       -12.4276
  55   2.0000      -0.445032       -12.1099
  56   2.0000      -0.442333       -12.0365
  57   2.0000      -0.440063       -11.9747
  58   2.0000      -0.428680       -11.6650
  59   2.0000      -0.421328       -11.4649
  60   2.0000      -0.415703       -11.3119
  61   2.0000      -0.412181       -11.2160
  62   2.0000      -0.407348       -11.0845
  63   2.0000      -0.357109        -9.7174
  64   2.0000      -0.334396        -9.0994
  65   2.0000      -0.328936        -8.9508
  66   2.0000      -0.289034        -7.8650
  67   0.0000       0.021944         0.5971
  68   0.0000       0.080445         2.1890
  69   0.0000       0.098688         2.6854
  70   0.0000       0.120714         3.2848
  71   0.0000       0.129649         3.5279

MULLIKEN ATOMIC CHARGES
-----------------------
   0 S :    0.113622
   1 C :   -0.103530
   2 C :   -0.086193
   3 C :   -0.006189
   4 C :   -0.155872
   5 H :    0.010425
   6 C :    0.093823
   7 H :    0.027835
   8 H :    0.052995
   9 C :   -0.138776
  10 H :    0.045316
  11 H :    0.038360
  12 C :   -0.017564
  13 H :    0.023249
  14 H :    0.026364
  15 H :    0.025023
  16 S :    0.072669
  17 C :   -0.079358
  18 C :   -0.026043
  19 C :   -0.040694
  20 C :   -0.114050
  21 H :    0.026275
  22 C :   -0.011849
  23 H :    0.038843
  24 H :    0.038131
  25 C :   -0.030155
  26 H :    0.019181
  27 H :    0.038341
  28 C :   -0.076460
  29 H :    0.022705
  30 H :    0.040050
  31 H :    0.060894
  32 H :    0.021551
  33 H :    0.051080
Sum of atomic charges:    0.0000000

LOEWDIN ATOMIC CHARGES
----------------------
   0 S :    0.439426
   1 C :   -0.198749
   2 C :   -0.068756
   3 C :   -0.077844
   4 C :   -0.207319
   5 H :    0.029657
   6 C :   -0.026174
   7 H :    0.031350
   8 H :    0.039262
   9 C :   -0.051160
  10 H :    0.032901
  11 H :    0.031607
  12 C :   -0.069840
  13 H :    0.022426
  14 H :    0.028460
  15 H :    0.022220
  16 S :    0.333863
  17 C :   -0.158993
  18 C :   -0.073271
  19 C :   -0.054537
  20 C :   -0.162022
  21 H :    0.036949
  22 C :   -0.050161
  23 H :    0.039516
  24 H :    0.043191
  25 C :   -0.047836
  26 H :    0.020010
  27 H :    0.034566
  28 C :   -0.074864
  29 H :    0.023174
  30 H :    0.030798
  31 H :    0.036243
  32 H :    0.018853
  33 H :    0.027053

  Mayer bond orders larger than 0.100000
B(  0-S ,  1-C ) :   1.1453 B(  0-S ,  4-C ) :   1.1724 B(  1-C ,  2-C ) :   1.6205
B(  1-C , 32-H ) :   0.9737 B(  2-C ,  3-C ) :   1.2536 B(  2-C ,  6-C ) :   0.9988
B(  3-C ,  4-C ) :   1.5628 B(  3-C ,  5-H ) :   0.9931 B(  4-C , 20-C ) :   1.0453
B(  6-C ,  7-H ) :   0.9465 B(  6-C ,  8-H ) :   0.9396 B(  6-C ,  9-C ) :   1.0580
B(  9-C , 10-H ) :   0.9612 B(  9-C , 11-H ) :   0.9493 B(  9-C , 12-C ) :   1.0932
B( 12-C , 13-H ) :   0.9729 B( 12-C , 14-H ) :   0.9723 B( 12-C , 15-H ) :   0.9709
B( 16-S , 17-C ) :   1.1015 B( 16-S , 20-C ) :   1.1141 B( 17-C , 18-C ) :   1.7067
B( 17-C , 33-H ) :   0.9653 B( 18-C , 19-C ) :   1.1658 B( 18-C , 21-H ) :   0.9803
B( 19-C , 20-C ) :   1.6201 B( 19-C , 22-C ) :   1.0585 B( 22-C , 23-H ) :   0.9266
B( 22-C , 24-H ) :   0.9257 B( 22-C , 25-C ) :   1.0799 B( 25-C , 26-H ) :   0.9487
B( 25-C , 27-H ) :   0.9448 B( 25-C , 28-C ) :   1.0845 B( 28-C , 29-H ) :   0.9716
B( 28-C , 30-H ) :   0.9713 B( 28-C , 31-H ) :   0.9707

Dispersion correction           -0.014412668
FINAL SINGLE POINT ENERGY     -1339.866299893238

DIPOLE MOMENT
-------------
                                X             Y             Z
Electronic contribution:     27.42430       2.14333       8.49202
Nuclear contribution   :    -28.02090      -2.29289      -8.83423
                        -----------------------------------------
Total Dipole Moment    :     -0.59660      -0.14956      -0.34221
                        -----------------------------------------
Magnitude (a.u.)       :      0.70385
Magnitude (Debye)      :      1.78905

Rotational constants in cm-1:     0.022147     0.007944     0.006374
Rotational constants in MHz :   663.956638   238.143320   191.098571

                             ****ORCA TERMINATED NORMALLY****
TOTAL RUN TIME: 0 days 0 hours 0 minutes 23 seconds 93 msec
