                         Program Version 4.2.1 -  RELEASE  -
|  1> ! wB97X-D3 SP def2-SVP
|  2> %pal
|  3> nprocs 24
|  4> end
|  5>
|  6> * xyz 0 1
|  7> S 	 -53.8711 	 5.1796 	 -31.7283
|  8> C 	 -53.5577 	 3.66937 	 -30.9367
|  9> C 	 -53.6069 	 2.54975 	 -31.7779
| 10> C 	 -53.6893 	 3.03778 	 -33.1604
| 11> C 	 -53.8569 	 4.41591 	 -33.3004
| 12> H 	 -53.7248 	 2.38551 	 -34.0493
| 13> C 	 -53.4408 	 1.06387 	 -31.3728
| 14> H 	 -54.0182 	 0.440898 	 -32.0309
| 15> H 	 -53.9104 	 0.905946 	 -30.402
| 16> C 	 -52.0134 	 0.525393 	 -31.3674
| 17> H 	 -52.0207 	 -0.542872 	 -31.5872
| 18> H 	 -51.5314 	 0.90979 	 -32.3061
| 19> C 	 -51.0942 	 0.771376 	 -30.1662
| 20> H 	 -50.1617 	 0.330992 	 -30.2352
| 21> H 	 -51.0254 	 1.82731 	 -30.0195
| 22> H 	 -51.5967 	 0.317872 	 -29.3061
| 23> S 	 -55.4652 	 6.09085 	 -34.7833
| 24> C 	 -54.9413 	 6.55151 	 -36.4301
| 25> C 	 -53.8707 	 5.80694 	 -36.7767
| 26> C 	 -53.311 	 4.94642 	 -35.7734
| 27> C 	 -53.9465 	 5.18663 	 -34.5483
| 28> H 	 -53.5301 	 5.87435 	 -37.7824
| 29> C 	 -52.0761 	 4.08085 	 -36.042
| 30> H 	 -51.8183 	 4.07929 	 -37.1067
| 31> H 	 -52.3361 	 3.02653 	 -35.8026
| 32> C 	 -50.7462 	 4.45704 	 -35.2535
| 33> H 	 -50.9194 	 4.79056 	 -34.2437
| 34> H 	 -50.3128 	 5.30128 	 -35.7563
| 35> C 	 -49.811 	 3.23209 	 -35.2979
| 36> H 	 -50.1925 	 2.26558 	 -34.8925
| 37> H 	 -48.8977 	 3.23875 	 -34.603
| 38> H 	 -49.4563 	 3.1536 	 -36.3025
| 39> H 	 -53.386 	 3.71173 	 -29.8721
| 40> H 	 -55.5704 	 7.07303 	 -37.1154
| 41> *
| 42>
| 43>                          ****END OF INPUT****

CARTESIAN COORDINATES (ANGSTROEM)
---------------------------------
  S    -53.871100    5.179600  -31.728300
  C    -53.557700    3.669370  -30.936700
  C    -53.606900    2.549750  -31.777900
  C    -53.689300    3.037780  -33.160400
  C    -53.856900    4.415910  -33.300400
  H    -53.724800    2.385510  -34.049300
  C    -53.440800    1.063870  -31.372800
  H    -54.018200    0.440898  -32.030900
  H    -53.910400    0.905946  -30.402000
  C    -52.013400    0.525393  -31.367400
  H    -52.020700   -0.542872  -31.587200
  H    -51.531400    0.909790  -32.306100
  C    -51.094200    0.771376  -30.166200
  H    -50.161700    0.330992  -30.235200
  H    -51.025400    1.827310  -30.019500
  H    -51.596700    0.317872  -29.306100
  S    -55.465200    6.090850  -34.783300
  C    -54.941300    6.551510  -36.430100
  C    -53.870700    5.806940  -36.776700
  C    -53.311000    4.946420  -35.773400
  C    -53.946500    5.186630  -34.548300
  H    -53.530100    5.874350  -37.782400
  C    -52.076100    4.080850  -36.042000
  H    -51.818300    4.079290  -37.106700
  H    -52.336100    3.026530  -35.802600
  C    -50.746200    4.457040  -35.253500
  H    -50.919400    4.790560  -34.243700
  H    -50.312800    5.301280  -35.756300
  C    -49.811000    3.232090  -35.297900
  H    -50.192500    2.265580  -34.892500
  H    -48.897700    3.238750  -34.603000
  H    -49.456300    3.153600  -36.302500
  H    -53.386000    3.711730  -29.872100
  H    -55.570400    7.073030  -37.115400

 Total Charge           Charge          ....    0
 Multiplicity           Mult            ....    1
 Number of Electrons    NEL             ....  134
 Basis Dimension        Dim             ....  322

ORBITAL ENERGIES
----------------

  NO   OCC          E(Eh)            E(eV)
   0   2.0000     -88.966101     -2420.8907
   1   2.0000     -88.962325     -2420.7879
   2   2.0000     -10.331072      -281.1228
   3   2.0000     -10.329937      -281.0919
   4   2.0000     -10.317119      -280.7431
   5   2.0000     -10.314489      -280.6715
   6   2.0000     -10.312314      -280.6123
   7   2.0000     -10.308370      -280.5050
   8   2.0000     -10.301603      -280.3209
   9   2.0000     -10.300600      -280.2936
  10   2.0000     -10.297731      -280.2155
  11   2.0000     -10.290133      -280.0088
  12   2.0000     -10.288685      -279.9693
  13   2.0000     -10.287681      -279.9420
  14   2.0000     -10.283418      -279.8260
  15   2.0000     -10.271925      -279.5133
  16   2.0000      -8.081312      -219.9037
  17   2.0000      -8.076296      -219.7672
  18   2.0000      -6.039773      -164.3506
  19   2.0000      -6.035705      -164.2399
  20   2.0000      -6.034895      -164.2178
  21   2.0000      -6.032153      -164.1432
  22   2.0000      -6.031109      -164.1148
  23   2.0000      -6.026788      -163.9972
  24   2.0000      -1.001440       -27.2506
  25   2.0000      -0.979389       -26.6505
  26   2.0000      -0.910103       -24.7652
  27   2.0000      -0.900013       -24.4906
  28   2.0000      -0.868083       -23.6217
  29   2.0000      -0.848399       -23.0861
  30   2.0000      -0.843253       -22.9461
  31   2.0000      -0.812488       -22.1089
  32   2.0000      -0.787924       -21.4405
  33   2.0000      -0.769205       -20.9311
  34   2.0000      -0.709070       -19.2948
  35   2.0000      -0.699451       -19.0330
  36   2.0000      -0.690276       -18.7834
  37   2.0000      -0.660707       -17.9787
  38   2.0000      -0.643319       -17.5056
  39   2.0000      -0.616588       -16.7782
  40   2.0000      -0.594621       -16.1805
  41   2.0000      -0.570169       -15.5151
  42   2.0000      -0.565160       -15.3788
  43   2.0000      -0.551098       -14.9961
  44   2.0000      -0.538954       -14.6657
  45   2.0000      -0.521235       -14.1835
  46   2.0000      -0.513479       -13.9725
  47   2.0000      -0.509864       -13.8741
  48   2.0000      -0.502814       -13.6823
  49   2.0000      -0.490872       -13.3573
  50   2.0000      -0.489194       -13.3116
  51   2.0000      -0.481858       -13.1120
  52   2.0000      -0.476141       -12.9565
  53   2.0000      -0.467839       -12.7305
  54   2.0000      -0.459289       -12.4979
  55   2.0000      -0.446386       -12.1468
  56   2.0000      -0.442272       -12.0348
  57   2.0000      -0.438372       -11.9287
  58   2.0000      -0.429261       -11.6808
  59   2.0000      -0.424355       -11.5473
  60   2.0000      -0.421912       -11.4808
  61   2.0000      -0.415658       -11.3106
  62   2.0000      -0.411886       -11.2080
  63   2.0000      -0.348779        -9.4908
  64   2.0000      -0.331115        -9.0101
  65   2.0000      -0.326960        -8.8970
  66   2.0000      -0.292394        -7.9564
  67   0.0000       0.026091         0.7100
  68   0.0000       0.065738         1.7888
  69   0.0000       0.103138         2.8065
  70   0.0000       0.119017         3.2386
  71   0.0000       0.123357         3.3567

MULLIKEN ATOMIC CHARGES
-----------------------
   0 S :    0.115922
   1 C :   -0.138621
   2 C :   -0.081953
   3 C :    0.002591
   4 C :   -0.163517
   5 H :    0.025152
   6 C :    0.095560
   7 H :    0.020363
   8 H :    0.022245
   9 C :   -0.105672
  10 H :    0.022052
  11 H :    0.022114
  12 C :    0.007890
  13 H :    0.024739
  14 H :    0.028002
  15 H :    0.020805
  16 S :    0.077403
  17 C :   -0.070811
  18 C :   -0.027998
  19 C :   -0.021606
  20 C :   -0.125800
  21 H :    0.005155
  22 C :    0.039836
  23 H :    0.022541
  24 H :    0.027036
  25 C :   -0.031149
  26 H :    0.040115
  27 H :    0.029850
  28 C :   -0.088797
  29 H :    0.036177
  30 H :    0.034440
  31 H :    0.031849
  32 H :    0.052956
  33 H :    0.051130
Sum of atomic charges:   -0.0000000

LOEWDIN ATOMIC CHARGES
----------------------
   0 S :    0.415021
   1 C :   -0.196672
   2 C :   -0.059284
   3 C :   -0.062480
   4 C :   -0.206631
   5 H :    0.032527
   6 C :   -0.028285
   7 H :    0.033077
   8 H :    0.030663
   9 C :   -0.047292
  10 H :    0.022082
  11 H :    0.025229
  12 C :   -0.053844
  13 H :    0.018948
  14 H :    0.023023
  15 H :    0.026076
  16 S :    0.372145
  17 C :   -0.168524
  18 C :   -0.066613
  19 C :   -0.053939
  20 C :   -0.184667
  21 H :    0.026520
  22 C :   -0.029916
  23 H :    0.030315
  24 H :    0.029914
  25 C :   -0.028734
  26 H :    0.023938
  27 H :    0.024251
  28 C :   -0.077609
  29 H :    0.027660
  30 H :    0.033417
  31 H :    0.020681
  32 H :    0.022503
  33 H :    0.026501

  Mayer bond orders larger than 0.100000
B(  0-S ,  1-C ) :   1.1650 B(  0-S ,  4-C ) :   1.1437 B(  1-C ,  2-C ) :   1.5900
B(  1-C , 32-H ) :   0.9709 B(  2-C ,  3-C ) :   1.2363 B(  2-C ,  6-C ) :   1.0309
B(  3-C ,  4-C ) :   1.5909 B(  3-C ,  5-H ) :   0.9836 B(  4-C , 20-C ) :   1.0196
B(  6-C ,  7-H ) :   0.9338 B(  6-C ,  8-H ) :   0.9426 B(  6-C ,  9-C ) :   1.0669
B(  9-C , 10-H ) :   0.9550 B(  9-C , 11-H ) :   0.9522 B(  9-C , 12-C ) :   1.0830
B( 12-C , 13-H ) :   0.9719 B( 12-C , 14-H ) :   0.9753 B( 12-C , 15-H ) :   0.9727
B( 16-S , 17-C ) :   1.1252 B( 16-S , 20-C ) :   1.1471 B( 17-C , 18-C ) :   1.6370
B( 17-C , 33-H ) :   0.9697 B( 18-C , 19-C ) :   1.2297 B( 18-C , 21-H ) :   0.9913
B( 19-C , 20-C ) :   1.5913 B( 19-C , 22-C ) :   1.0410 B( 22-C , 23-H ) :   0.9394
B( 22-C , 24-H ) :   0.9394 B( 22-C , 25-C ) :   1.0420 B( 25-C , 26-H ) :   0.9647
B( 25-C , 27-H ) :   0.9581 B( 25-C , 28-C ) :   1.0694 B( 28-C , 29-H ) :   0.9754
B( 28-C , 30-H ) :   0.9731 B( 28-C , 31-H ) :   0.9773

Dispersion correction           -0.014780265
FINAL SINGLE POINT ENERGY     -1339.875926382490

DIPOLE MOMENT
-------------
                                X             Y             Z
Electronic contribution:    -22.31445      21.82598      -1.40733
Nuclear contribution   :     22.69262     -22.47754       1.15965
                        -----------------------------------------
Total Dipole Moment    :      0.37817      -0.65156      -0.24768
                        -----------------------------------------
Magnitude (a.u.)       :      0.79303
Magnitude (Debye)      :      2.01571

Rotational constants in cm-1:     0.019615     0.008967     0.006903
Rotational constants in MHz :   588.044367   268.815280   206.935398

                             ****ORCA TERMINATED NORMALLY****
TOTAL RUN TIME: 0 days 0 hours 0 minutes 22 seconds 15 msec
