                         Program Version 4.2.1 -  RELEASE  -
|  1> ! wB97X-D3 SP def2-SVP
|  2> %pal
|  3> nprocs 24
|  4> end
|  5>
|  6> * xyz 0 1
|  7> S 	 -64.4801 	 12.6394 	 -74.2112
|  8> C 	 -63.5302 	 11.3299 	 -73.5284
|  9> C 	 -64.1609 	 10.1104 	 -73.6499
| 10> C 	 -65.3953 	 10.1989 	 -74.3257
| 11> C 	 -65.7263 	 11.481 	 -74.6625
| 12> H 	 -66.0409 	 9.34646 	 -74.5634
| 13> C 	 -63.538 	 8.83254 	 -73.3007
| 14> H 	 -64.2587 	 8.21773 	 -72.7578
| 15> H 	 -62.8857 	 9.09637 	 -72.4828
| 16> C 	 -62.7089 	 8.15332 	 -74.3973
| 17> H 	 -62.3124 	 7.2468 	 -74.0049
| 18> H 	 -63.403 	 7.79761 	 -75.1466
| 19> C 	 -61.6624 	 8.93371 	 -75.1069
| 20> H 	 -62.1087 	 9.87209 	 -75.5047
| 21> H 	 -60.8876 	 9.23703 	 -74.3634
| 22> H 	 -61.3133 	 8.29256 	 -75.9392
| 23> S 	 -67.6989 	 13.3398 	 -74.6885
| 24> C 	 -68.9547 	 13.2615 	 -75.946
| 25> C 	 -68.7608 	 12.1116 	 -76.7081
| 26> C 	 -67.6065 	 11.3272 	 -76.3992
| 27> C 	 -66.9452 	 11.8949 	 -75.3307
| 28> H 	 -69.4852 	 12.0094 	 -77.5109
| 29> C 	 -67.3491 	 10.1328 	 -77.2015
| 30> H 	 -66.3892 	 9.65363 	 -76.9612
| 31> H 	 -67.232 	 10.4519 	 -78.2576
| 32> C 	 -68.3975 	 9.02021 	 -77.0192
| 33> H 	 -68.2292 	 8.34259 	 -77.8416
| 34> H 	 -69.3545 	 9.45246 	 -77.2247
| 35> C 	 -68.3105 	 8.13307 	 -75.8116
| 36> H 	 -68.687 	 8.63098 	 -74.9348
| 37> H 	 -67.3362 	 7.6947 	 -75.6787
| 38> H 	 -68.9716 	 7.30723 	 -75.9347
| 39> H 	 -62.4903 	 11.4737 	 -73.2101
| 40> H 	 -69.7309 	 13.9485 	 -76.2411
| 41> *
| 42>
| 43>                          ****END OF INPUT****

CARTESIAN COORDINATES (ANGSTROEM)
---------------------------------
  S    -64.480100   12.639400  -74.211200
  C    -63.530200   11.329900  -73.528400
  C    -64.160900   10.110400  -73.649900
  C    -65.395300   10.198900  -74.325700
  C    -65.726300   11.481000  -74.662500
  H    -66.040900    9.346460  -74.563400
  C    -63.538000    8.832540  -73.300700
  H    -64.258700    8.217730  -72.757800
  H    -62.885700    9.096370  -72.482800
  C    -62.708900    8.153320  -74.397300
  H    -62.312400    7.246800  -74.004900
  H    -63.403000    7.797610  -75.146600
  C    -61.662400    8.933710  -75.106900
  H    -62.108700    9.872090  -75.504700
  H    -60.887600    9.237030  -74.363400
  H    -61.313300    8.292560  -75.939200
  S    -67.698900   13.339800  -74.688500
  C    -68.954700   13.261500  -75.946000
  C    -68.760800   12.111600  -76.708100
  C    -67.606500   11.327200  -76.399200
  C    -66.945200   11.894900  -75.330700
  H    -69.485200   12.009400  -77.510900
  C    -67.349100   10.132800  -77.201500
  H    -66.389200    9.653630  -76.961200
  H    -67.232000   10.451900  -78.257600
  C    -68.397500    9.020210  -77.019200
  H    -68.229200    8.342590  -77.841600
  H    -69.354500    9.452460  -77.224700
  C    -68.310500    8.133070  -75.811600
  H    -68.687000    8.630980  -74.934800
  H    -67.336200    7.694700  -75.678700
  H    -68.971600    7.307230  -75.934700
  H    -62.490300   11.473700  -73.210100
  H    -69.730900   13.948500  -76.241100

 Total Charge           Charge          ....    0
 Multiplicity           Mult            ....    1
 Number of Electrons    NEL             ....  134
 Basis Dimension        Dim             ....  322

ORBITAL ENERGIES
----------------

  NO   OCC          E(Eh)            E(eV)
   0   2.0000     -88.966477     -2420.9009
   1   2.0000     -88.965336     -2420.8699
   2   2.0000     -10.325419      -280.9689
   3   2.0000     -10.324760      -280.9510
   4   2.0000     -10.315705      -280.7046
   5   2.0000     -10.312169      -280.6084
   6   2.0000     -10.298787      -280.2443
   7   2.0000     -10.292606      -280.0761
   8   2.0000     -10.291219      -280.0383
   9   2.0000     -10.291062      -280.0340
  10   2.0000     -10.288559      -279.9659
  11   2.0000     -10.283905      -279.8393
  12   2.0000     -10.282581      -279.8032
  13   2.0000     -10.280631      -279.7502
  14   2.0000     -10.279503      -279.7195
  15   2.0000     -10.274852      -279.5929
  16   2.0000      -8.080956      -219.8940
  17   2.0000      -8.079429      -219.8524
  18   2.0000      -6.039459      -164.3420
  19   2.0000      -6.038116      -164.3055
  20   2.0000      -6.035553      -164.2357
  21   2.0000      -6.033988      -164.1932
  22   2.0000      -6.031684      -164.1305
  23   2.0000      -6.030075      -164.0867
  24   2.0000      -1.007601       -27.4182
  25   2.0000      -0.983390       -26.7594
  26   2.0000      -0.919840       -25.0301
  27   2.0000      -0.915705       -24.9176
  28   2.0000      -0.868580       -23.6353
  29   2.0000      -0.857808       -23.3421
  30   2.0000      -0.850785       -23.1510
  31   2.0000      -0.816417       -22.2158
  32   2.0000      -0.786888       -21.4123
  33   2.0000      -0.775237       -21.0953
  34   2.0000      -0.712169       -19.3791
  35   2.0000      -0.698820       -19.0159
  36   2.0000      -0.694057       -18.8862
  37   2.0000      -0.657832       -17.9005
  38   2.0000      -0.637607       -17.3502
  39   2.0000      -0.623448       -16.9649
  40   2.0000      -0.600059       -16.3284
  41   2.0000      -0.569386       -15.4938
  42   2.0000      -0.558351       -15.1935
  43   2.0000      -0.552585       -15.0366
  44   2.0000      -0.545532       -14.8447
  45   2.0000      -0.543908       -14.8005
  46   2.0000      -0.523137       -14.2353
  47   2.0000      -0.514958       -14.0127
  48   2.0000      -0.499220       -13.5845
  49   2.0000      -0.496577       -13.5125
  50   2.0000      -0.491256       -13.3678
  51   2.0000      -0.477270       -12.9872
  52   2.0000      -0.474657       -12.9161
  53   2.0000      -0.468015       -12.7353
  54   2.0000      -0.457188       -12.4407
  55   2.0000      -0.450627       -12.2622
  56   2.0000      -0.443943       -12.0803
  57   2.0000      -0.442091       -12.0299
  58   2.0000      -0.436010       -11.8644
  59   2.0000      -0.424804       -11.5595
  60   2.0000      -0.420723       -11.4484
  61   2.0000      -0.412200       -11.2165
  62   2.0000      -0.409670       -11.1477
  63   2.0000      -0.348729        -9.4894
  64   2.0000      -0.332327        -9.0431
  65   2.0000      -0.329490        -8.9659
  66   2.0000      -0.286934        -7.8079
  67   0.0000       0.029590         0.8052
  68   0.0000       0.075095         2.0434
  69   0.0000       0.107463         2.9242
  70   0.0000       0.123661         3.3650
  71   0.0000       0.125450         3.4137

MULLIKEN ATOMIC CHARGES
-----------------------
   0 S :    0.112889
   1 C :   -0.141778
   2 C :   -0.101444
   3 C :    0.023407
   4 C :   -0.135590
   5 H :   -0.007783
   6 C :    0.083026
   7 H :    0.024250
   8 H :    0.003327
   9 C :   -0.032597
  10 H :    0.018359
  11 H :    0.009490
  12 C :   -0.064798
  13 H :    0.051567
  14 H :    0.032999
  15 H :    0.047363
  16 S :    0.105353
  17 C :   -0.090241
  18 C :   -0.069379
  19 C :    0.004575
  20 C :   -0.156239
  21 H :    0.018697
  22 C :    0.054214
  23 H :    0.008389
  24 H :    0.040647
  25 C :   -0.066803
  26 H :    0.015799
  27 H :    0.018882
  28 C :   -0.007883
  29 H :    0.038771
  30 H :    0.034577
  31 H :    0.022415
  32 H :    0.054433
  33 H :    0.051105
Sum of atomic charges:   -0.0000000

LOEWDIN ATOMIC CHARGES
----------------------
   0 S :    0.397403
   1 C :   -0.198247
   2 C :   -0.067771
   3 C :   -0.063610
   4 C :   -0.185190
   5 H :    0.033924
   6 C :   -0.039375
   7 H :    0.034735
   8 H :    0.028027
   9 C :   -0.040556
  10 H :    0.020526
  11 H :    0.019652
  12 C :   -0.066698
  13 H :    0.030997
  14 H :    0.026272
  15 H :    0.035369
  16 S :    0.390553
  17 C :   -0.186123
  18 C :   -0.067287
  19 C :   -0.064371
  20 C :   -0.189731
  21 H :    0.029454
  22 C :   -0.035847
  23 H :    0.027270
  24 H :    0.040768
  25 C :   -0.034362
  26 H :    0.024205
  27 H :    0.018811
  28 C :   -0.059417
  29 H :    0.027148
  30 H :    0.023646
  31 H :    0.028386
  32 H :    0.029717
  33 H :    0.031721

  Mayer bond orders larger than 0.100000
B(  0-S ,  1-C ) :   1.1276 B(  0-S ,  4-C ) :   1.1487 B(  1-C ,  2-C ) :   1.6007
B(  1-C , 32-H ) :   0.9655 B(  2-C ,  3-C ) :   1.2407 B(  2-C ,  6-C ) :   1.0390
B(  3-C ,  4-C ) :   1.5691 B(  3-C ,  5-H ) :   0.9934 B(  4-C , 20-C ) :   1.0435
B(  6-C ,  7-H ) :   0.9310 B(  6-C ,  8-H ) :   0.9270 B(  6-C ,  9-C ) :   1.0608
B(  9-C , 10-H ) :   0.9506 B(  9-C , 11-H ) :   0.9512 B(  9-C , 12-C ) :   1.0889
B( 12-C , 13-H ) :   0.9679 B( 12-C , 14-H ) :   0.9734 B( 12-C , 15-H ) :   0.9687
B( 16-S , 17-C ) :   1.1209 B( 16-S , 20-C ) :   1.1374 B( 17-C , 18-C ) :   1.6584
B( 17-C , 33-H ) :   0.9663 B( 18-C , 19-C ) :   1.1972 B( 18-C , 21-H ) :   0.9819
B( 19-C , 20-C ) :   1.5993 B( 19-C , 22-C ) :   1.0625 B( 22-C , 23-H ) :   0.9266
B( 22-C , 24-H ) :   0.9268 B( 22-C , 25-C ) :   1.0758 B( 25-C , 26-H ) :   0.9499
B( 25-C , 27-H ) :   0.9549 B( 25-C , 28-C ) :   1.0934 B( 28-C , 29-H ) :   0.9701
B( 28-C , 30-H ) :   0.9600 B( 28-C , 31-H ) :   0.9643

Dispersion correction           -0.015314657
FINAL SINGLE POINT ENERGY     -1339.886564200143

DIPOLE MOMENT
-------------
                                X             Y             Z
Electronic contribution:     -5.65528      26.65836       6.72420
Nuclear contribution   :      5.61275     -27.41080      -7.11735
                        -----------------------------------------
Total Dipole Moment    :     -0.04253      -0.75244      -0.39315
                        -----------------------------------------
Magnitude (a.u.)       :      0.85003
Magnitude (Debye)      :      2.16060

Rotational constants in cm-1:     0.019668     0.009747     0.007179
Rotational constants in MHz :   589.641197   292.204448   215.219449

                             ****ORCA TERMINATED NORMALLY****
TOTAL RUN TIME: 0 days 0 hours 0 minutes 21 seconds 608 msec
