                         Program Version 4.2.1 -  RELEASE  -
|  1> ! wB97X-D3 SP def2-SVP
|  2> %pal
|  3> nprocs 24
|  4> end
|  5>
|  6> * xyz 0 1
|  7> S 	 -109.596 	 27.3578 	 -113.513
|  8> C 	 -108.238 	 26.5963 	 -112.758
|  9> C 	 -108.22 	 25.2584 	 -112.994
| 10> C 	 -109.23 	 24.8814 	 -113.98
| 11> C 	 -110.043 	 25.9656 	 -114.43
| 12> H 	 -109.433 	 23.858 	 -114.376
| 13> C 	 -107.053 	 24.3072 	 -112.52
| 14> H 	 -106.442 	 24.8406 	 -111.807
| 15> H 	 -106.338 	 24.031 	 -113.303
| 16> C 	 -107.421 	 22.9037 	 -111.936
| 17> H 	 -108.189 	 22.4958 	 -112.597
| 18> H 	 -106.647 	 22.081 	 -111.835
| 19> C 	 -108.171 	 23.0299 	 -110.571
| 20> H 	 -107.537 	 23.5008 	 -109.853
| 21> H 	 -109.143 	 23.5689 	 -110.607
| 22> H 	 -108.313 	 22.0658 	 -110.106
| 23> S 	 -112.848 	 26.1529 	 -114.844
| 24> C 	 -113.424 	 26.0632 	 -116.48
| 25> C 	 -112.35 	 25.9218 	 -117.374
| 26> C 	 -111.092 	 25.8771 	 -116.746
| 27> C 	 -111.194 	 25.8478 	 -115.327
| 28> H 	 -112.547 	 26.0063 	 -118.423
| 29> C 	 -109.784 	 26.1037 	 -117.493
| 30> H 	 -109.893 	 25.2294 	 -118.086
| 31> H 	 -108.895 	 25.999 	 -116.897
| 32> C 	 -109.82 	 27.2816 	 -118.513
| 33> H 	 -110.54 	 27.1437 	 -119.339
| 34> H 	 -108.84 	 27.131 	 -118.955
| 35> C 	 -110.063 	 28.7321 	 -117.9
| 36> H 	 -109.121 	 29.0649 	 -117.43
| 37> H 	 -110.769 	 28.6471 	 -117.179
| 38> H 	 -110.436 	 29.4478 	 -118.657
| 39> H 	 -107.489 	 27.1729 	 -112.159
| 40> H 	 -114.48 	 26.033 	 -116.846
| 41> *
| 42>
| 43>                          ****END OF INPUT****

CARTESIAN COORDINATES (ANGSTROEM)
---------------------------------
  S    -109.596000   27.357800  -113.513000
  C    -108.238000   26.596300  -112.758000
  C    -108.220000   25.258400  -112.994000
  C    -109.230000   24.881400  -113.980000
  C    -110.043000   25.965600  -114.430000
  H    -109.433000   23.858000  -114.376000
  C    -107.053000   24.307200  -112.520000
  H    -106.442000   24.840600  -111.807000
  H    -106.338000   24.031000  -113.303000
  C    -107.421000   22.903700  -111.936000
  H    -108.189000   22.495800  -112.597000
  H    -106.647000   22.081000  -111.835000
  C    -108.171000   23.029900  -110.571000
  H    -107.537000   23.500800  -109.853000
  H    -109.143000   23.568900  -110.607000
  H    -108.313000   22.065800  -110.106000
  S    -112.848000   26.152900  -114.844000
  C    -113.424000   26.063200  -116.480000
  C    -112.350000   25.921800  -117.374000
  C    -111.092000   25.877100  -116.746000
  C    -111.194000   25.847800  -115.327000
  H    -112.547000   26.006300  -118.423000
  C    -109.784000   26.103700  -117.493000
  H    -109.893000   25.229400  -118.086000
  H    -108.895000   25.999000  -116.897000
  C    -109.820000   27.281600  -118.513000
  H    -110.540000   27.143700  -119.339000
  H    -108.840000   27.131000  -118.955000
  C    -110.063000   28.732100  -117.900000
  H    -109.121000   29.064900  -117.430000
  H    -110.769000   28.647100  -117.179000
  H    -110.436000   29.447800  -118.657000
  H    -107.489000   27.172900  -112.159000
  H    -114.480000   26.033000  -116.846000

 Total Charge           Charge          ....    0
 Multiplicity           Mult            ....    1
 Number of Electrons    NEL             ....  134
 Basis Dimension        Dim             ....  322

ORBITAL ENERGIES
----------------

  NO   OCC          E(Eh)            E(eV)
   0   2.0000     -88.970568     -2421.0122
   1   2.0000     -88.966163     -2420.8924
   2   2.0000     -10.331877      -281.1447
   3   2.0000     -10.325799      -280.9793
   4   2.0000     -10.324315      -280.9389
   5   2.0000     -10.318295      -280.7751
   6   2.0000     -10.310087      -280.5517
   7   2.0000     -10.304372      -280.3962
   8   2.0000     -10.303870      -280.3825
   9   2.0000     -10.299556      -280.2652
  10   2.0000     -10.294010      -280.1143
  11   2.0000     -10.292737      -280.0796
  12   2.0000     -10.292213      -280.0653
  13   2.0000     -10.287427      -279.9351
  14   2.0000     -10.271892      -279.5124
  15   2.0000     -10.270521      -279.4751
  16   2.0000      -8.084907      -220.0015
  17   2.0000      -8.081580      -219.9110
  18   2.0000      -6.043384      -164.4488
  19   2.0000      -6.040024      -164.3574
  20   2.0000      -6.039380      -164.3399
  21   2.0000      -6.035834      -164.2434
  22   2.0000      -6.035815      -164.2429
  23   2.0000      -6.032511      -164.1530
  24   2.0000      -1.005408       -27.3585
  25   2.0000      -0.985521       -26.8174
  26   2.0000      -0.904976       -24.6257
  27   2.0000      -0.900422       -24.5017
  28   2.0000      -0.867321       -23.6010
  29   2.0000      -0.843781       -22.9605
  30   2.0000      -0.838538       -22.8178
  31   2.0000      -0.810061       -22.0429
  32   2.0000      -0.784692       -21.3526
  33   2.0000      -0.774483       -21.0747
  34   2.0000      -0.707856       -19.2617
  35   2.0000      -0.697361       -18.9762
  36   2.0000      -0.688105       -18.7243
  37   2.0000      -0.651381       -17.7250
  38   2.0000      -0.640322       -17.4240
  39   2.0000      -0.614427       -16.7194
  40   2.0000      -0.593420       -16.1478
  41   2.0000      -0.567897       -15.4533
  42   2.0000      -0.548083       -14.9141
  43   2.0000      -0.542215       -14.7544
  44   2.0000      -0.536101       -14.5881
  45   2.0000      -0.533859       -14.5271
  46   2.0000      -0.523803       -14.2534
  47   2.0000      -0.506494       -13.7824
  48   2.0000      -0.503506       -13.7011
  49   2.0000      -0.489280       -13.3140
  50   2.0000      -0.483575       -13.1588
  51   2.0000      -0.479265       -13.0415
  52   2.0000      -0.472517       -12.8578
  53   2.0000      -0.468359       -12.7447
  54   2.0000      -0.459258       -12.4971
  55   2.0000      -0.445753       -12.1296
  56   2.0000      -0.444562       -12.0971
  57   2.0000      -0.438689       -11.9373
  58   2.0000      -0.424261       -11.5447
  59   2.0000      -0.421890       -11.4802
  60   2.0000      -0.419057       -11.4031
  61   2.0000      -0.414318       -11.2742
  62   2.0000      -0.410418       -11.1680
  63   2.0000      -0.336264        -9.1502
  64   2.0000      -0.331813        -9.0291
  65   2.0000      -0.326489        -8.8842
  66   2.0000      -0.298188        -8.1141
  67   0.0000       0.037835         1.0295
  68   0.0000       0.054170         1.4740
  69   0.0000       0.116171         3.1612
  70   0.0000       0.118599         3.2272
  71   0.0000       0.133561         3.6344

MULLIKEN ATOMIC CHARGES
-----------------------
   0 S :    0.119981
   1 C :   -0.153705
   2 C :   -0.042459
   3 C :    0.004222
   4 C :   -0.182956
   5 H :    0.035237
   6 C :    0.066804
   7 H :    0.010354
   8 H :    0.043684
   9 C :   -0.111400
  10 H :    0.030134
  11 H :    0.047402
  12 C :   -0.063232
  13 H :    0.012915
  14 H :    0.052748
  15 H :    0.022132
  16 S :    0.127084
  17 C :   -0.118870
  18 C :   -0.035329
  19 C :   -0.072219
  20 C :   -0.160744
  21 H :    0.012680
  22 C :    0.100958
  23 H :    0.024143
  24 H :    0.037535
  25 C :   -0.097452
  26 H :    0.029753
  27 H :    0.031288
  28 C :   -0.013892
  29 H :    0.037306
  30 H :    0.017301
  31 H :    0.039814
  32 H :    0.071448
  33 H :    0.077333
Sum of atomic charges:    0.0000000

LOEWDIN ATOMIC CHARGES
----------------------
   0 S :    0.423697
   1 C :   -0.203708
   2 C :   -0.068303
   3 C :   -0.064862
   4 C :   -0.210086
   5 H :    0.036442
   6 C :   -0.028372
   7 H :    0.022076
   8 H :    0.035251
   9 C :   -0.049435
  10 H :    0.022557
  11 H :    0.034515
  12 C :   -0.072542
  13 H :    0.015623
  14 H :    0.032217
  15 H :    0.022012
  16 S :    0.422020
  17 C :   -0.196925
  18 C :   -0.078090
  19 C :   -0.046364
  20 C :   -0.225239
  21 H :    0.027816
  22 C :   -0.028990
  23 H :    0.036771
  24 H :    0.030760
  25 C :   -0.035986
  26 H :    0.022658
  27 H :    0.025440
  28 C :   -0.056855
  29 H :    0.030674
  30 H :    0.009856
  31 H :    0.031118
  32 H :    0.040859
  33 H :    0.043396

  Mayer bond orders larger than 0.100000
B(  0-S ,  1-C ) :   1.1548 B(  0-S ,  4-C ) :   1.1592 B(  1-C ,  2-C ) :   1.6092
B(  1-C , 32-H ) :   0.9603 B(  2-C ,  3-C ) :   1.2352 B(  2-C ,  6-C ) :   1.0097
B(  3-C ,  4-C ) :   1.5652 B(  3-C ,  5-H ) :   0.9858 B(  4-C , 20-C ) :   1.0449
B(  6-C ,  7-H ) :   0.9506 B(  6-C ,  8-H ) :   0.9488 B(  6-C ,  9-C ) :   1.0514
B(  9-C , 10-H ) :   0.9589 B(  9-C , 11-H ) :   0.9613 B(  9-C , 12-C ) :   1.0724
B( 12-C , 13-H ) :   0.9766 B( 12-C , 14-H ) :   0.9768 B( 12-C , 15-H ) :   0.9749
B( 16-S , 17-C ) :   1.1815 B( 16-S , 20-C ) :   1.1456 B( 17-C , 18-C ) :   1.5718
B( 17-C , 20-C ) :   0.1058 B( 17-C , 33-H ) :   0.9597 B( 18-C , 19-C ) :   1.2876
B( 18-C , 21-H ) :   0.9916 B( 19-C , 20-C ) :   1.5389 B( 19-C , 22-C ) :   1.0163
B( 22-C , 23-H ) :   0.9214 B( 22-C , 24-H ) :   0.9401 B( 22-C , 25-C ) :   1.0748
B( 25-C , 26-H ) :   0.9558 B( 25-C , 27-H ) :   0.9588 B( 25-C , 28-C ) :   1.0535
B( 28-C , 29-H ) :   0.9774 B( 28-C , 30-H ) :   0.9797 B( 28-C , 31-H ) :   0.9778

Dispersion correction           -0.014854125
FINAL SINGLE POINT ENERGY     -1339.857319124296

DIPOLE MOMENT
-------------
                                X             Y             Z
Electronic contribution:    -14.87178       7.32424       2.65912
Nuclear contribution   :     15.20216      -7.50528      -3.03216
                        -----------------------------------------
Total Dipole Moment    :      0.33038      -0.18104      -0.37304
                        -----------------------------------------
Magnitude (a.u.)       :      0.53017
Magnitude (Debye)      :      1.34760

Rotational constants in cm-1:     0.022503     0.007599     0.006931
Rotational constants in MHz :   674.616673   227.823448   207.796459

                             ****ORCA TERMINATED NORMALLY****
TOTAL RUN TIME: 0 days 0 hours 0 minutes 21 seconds 538 msec
