                         Program Version 4.2.1 -  RELEASE  -
|  1> ! wB97X-D3 SP def2-SVP
|  2> %pal
|  3> nprocs 24
|  4> end
|  5>
|  6> * xyz 0 1
|  7> S 	 -62.4969 	 7.68272 	 -13.7829
|  8> C 	 -61.5924 	 6.73369 	 -12.5851
|  9> C 	 -60.3709 	 6.34361 	 -13.1308
| 10> C 	 -60.1565 	 6.91525 	 -14.3945
| 11> C 	 -61.1411 	 7.70847 	 -14.8714
| 12> H 	 -59.1899 	 6.79732 	 -14.9418
| 13> C 	 -59.3761 	 5.35986 	 -12.4889
| 14> H 	 -59.3009 	 4.42531 	 -13.0584
| 15> H 	 -59.86 	 5.04419 	 -11.5716
| 16> C 	 -57.9811 	 5.82777 	 -12.157
| 17> H 	 -57.5389 	 6.31699 	 -13.0794
| 18> H 	 -57.9733 	 6.71799 	 -11.5192
| 19> C 	 -57.1273 	 4.73018 	 -11.4747
| 20> H 	 -57.7175 	 4.19572 	 -10.7024
| 21> H 	 -56.6912 	 3.97161 	 -12.1447
| 22> H 	 -56.312 	 5.33572 	 -11.0213
| 23> S 	 -61.3506 	 10.2296 	 -15.8839
| 24> C 	 -60.9154 	 10.605 	 -17.5256
| 25> C 	 -60.713 	 9.43242 	 -18.1862
| 26> C 	 -60.8386 	 8.2357 	 -17.3785
| 27> C 	 -61.097 	 8.5137 	 -16.0739
| 28> H 	 -60.5676 	 9.45834 	 -19.2919
| 29> C 	 -60.84 	 6.91326 	 -18.0509
| 30> H 	 -61.0501 	 6.09738 	 -17.2913
| 31> H 	 -59.8223 	 6.71017 	 -18.3173
| 32> C 	 -61.6355 	 6.81853 	 -19.3924
| 33> H 	 -61.4944 	 5.80115 	 -19.6551
| 34> H 	 -61.1343 	 7.37325 	 -20.2219
| 35> C 	 -63.1186 	 7.20984 	 -19.2858
| 36> H 	 -63.3282 	 8.33949 	 -19.4093
| 37> H 	 -63.5382 	 6.90717 	 -18.3332
| 38> H 	 -63.8224 	 6.79105 	 -20.024
| 39> H 	 -61.8924 	 6.4891 	 -11.6066
| 40> H 	 -60.6867 	 11.6152 	 -17.8506
| 41> *
| 42>
| 43>                          ****END OF INPUT****

CARTESIAN COORDINATES (ANGSTROEM)
---------------------------------
  S    -62.496900    7.682720  -13.782900
  C    -61.592400    6.733690  -12.585100
  C    -60.370900    6.343610  -13.130800
  C    -60.156500    6.915250  -14.394500
  C    -61.141100    7.708470  -14.871400
  H    -59.189900    6.797320  -14.941800
  C    -59.376100    5.359860  -12.488900
  H    -59.300900    4.425310  -13.058400
  H    -59.860000    5.044190  -11.571600
  C    -57.981100    5.827770  -12.157000
  H    -57.538900    6.316990  -13.079400
  H    -57.973300    6.717990  -11.519200
  C    -57.127300    4.730180  -11.474700
  H    -57.717500    4.195720  -10.702400
  H    -56.691200    3.971610  -12.144700
  H    -56.312000    5.335720  -11.021300
  S    -61.350600   10.229600  -15.883900
  C    -60.915400   10.605000  -17.525600
  C    -60.713000    9.432420  -18.186200
  C    -60.838600    8.235700  -17.378500
  C    -61.097000    8.513700  -16.073900
  H    -60.567600    9.458340  -19.291900
  C    -60.840000    6.913260  -18.050900
  H    -61.050100    6.097380  -17.291300
  H    -59.822300    6.710170  -18.317300
  C    -61.635500    6.818530  -19.392400
  H    -61.494400    5.801150  -19.655100
  H    -61.134300    7.373250  -20.221900
  C    -63.118600    7.209840  -19.285800
  H    -63.328200    8.339490  -19.409300
  H    -63.538200    6.907170  -18.333200
  H    -63.822400    6.791050  -20.024000
  H    -61.892400    6.489100  -11.606600
  H    -60.686700   11.615200  -17.850600

 Total Charge           Charge          ....    0
 Multiplicity           Mult            ....    1
 Number of Electrons    NEL             ....  134
 Basis Dimension        Dim             ....  322

ORBITAL ENERGIES
----------------

  NO   OCC          E(Eh)            E(eV)
   0   2.0000     -88.966250     -2420.8947
   1   2.0000     -88.956173     -2420.6205
   2   2.0000     -10.325711      -280.9769
   3   2.0000     -10.322146      -280.8799
   4   2.0000     -10.316120      -280.7159
   5   2.0000     -10.315050      -280.6868
   6   2.0000     -10.300465      -280.2899
   7   2.0000     -10.299188      -280.2551
   8   2.0000     -10.294003      -280.1141
   9   2.0000     -10.292293      -280.0675
  10   2.0000     -10.292190      -280.0647
  11   2.0000     -10.291648      -280.0500
  12   2.0000     -10.290815      -280.0273
  13   2.0000     -10.289610      -279.9945
  14   2.0000     -10.288048      -279.9520
  15   2.0000     -10.280956      -279.7590
  16   2.0000      -8.080734      -219.8879
  17   2.0000      -8.071959      -219.6492
  18   2.0000      -6.039317      -164.3382
  19   2.0000      -6.035245      -164.2274
  20   2.0000      -6.031451      -164.1241
  21   2.0000      -6.030531      -164.0991
  22   2.0000      -6.026261      -163.9829
  23   2.0000      -6.022616      -163.8837
  24   2.0000      -1.011186       -27.5158
  25   2.0000      -0.987616       -26.8744
  26   2.0000      -0.911149       -24.7936
  27   2.0000      -0.907264       -24.6879
  28   2.0000      -0.872714       -23.7478
  29   2.0000      -0.848024       -23.0759
  30   2.0000      -0.839643       -22.8479
  31   2.0000      -0.816683       -22.2231
  32   2.0000      -0.781193       -21.2573
  33   2.0000      -0.774353       -21.0712
  34   2.0000      -0.711245       -19.3539
  35   2.0000      -0.700070       -19.0499
  36   2.0000      -0.695889       -18.9361
  37   2.0000      -0.657145       -17.8818
  38   2.0000      -0.643359       -17.5067
  39   2.0000      -0.620743       -16.8913
  40   2.0000      -0.598158       -16.2767
  41   2.0000      -0.569707       -15.5025
  42   2.0000      -0.554728       -15.0949
  43   2.0000      -0.551658       -15.0114
  44   2.0000      -0.532022       -14.4770
  45   2.0000      -0.527408       -14.3515
  46   2.0000      -0.520693       -14.1688
  47   2.0000      -0.512466       -13.9449
  48   2.0000      -0.508558       -13.8386
  49   2.0000      -0.494045       -13.4437
  50   2.0000      -0.491039       -13.3619
  51   2.0000      -0.476768       -12.9735
  52   2.0000      -0.468491       -12.7483
  53   2.0000      -0.464335       -12.6352
  54   2.0000      -0.459696       -12.5090
  55   2.0000      -0.447767       -12.1843
  56   2.0000      -0.443895       -12.0790
  57   2.0000      -0.438364       -11.9285
  58   2.0000      -0.430415       -11.7122
  59   2.0000      -0.425606       -11.5813
  60   2.0000      -0.419246       -11.4083
  61   2.0000      -0.409570       -11.1450
  62   2.0000      -0.407512       -11.0890
  63   2.0000      -0.346894        -9.4395
  64   2.0000      -0.332278        -9.0418
  65   2.0000      -0.321706        -8.7541
  66   2.0000      -0.297990        -8.1087
  67   0.0000       0.035949         0.9782
  68   0.0000       0.069218         1.8835
  69   0.0000       0.113265         3.0821
  70   0.0000       0.128791         3.5046
  71   0.0000       0.134699         3.6653

MULLIKEN ATOMIC CHARGES
-----------------------
   0 S :    0.112475
   1 C :   -0.105194
   2 C :   -0.085757
   3 C :    0.016494
   4 C :   -0.148115
   5 H :    0.025513
   6 C :    0.080737
   7 H :    0.036968
   8 H :   -0.001269
   9 C :   -0.102063
  10 H :    0.029490
  11 H :    0.026235
  12 C :   -0.057469
  13 H :    0.038587
  14 H :    0.044617
  15 H :    0.044088
  16 S :    0.088245
  17 C :   -0.091344
  18 C :   -0.053137
  19 C :   -0.021007
  20 C :   -0.162343
  21 H :    0.032328
  22 C :    0.056606
  23 H :    0.037161
  24 H :    0.020389
  25 C :   -0.056570
  26 H :    0.022673
  27 H :    0.033448
  28 C :   -0.067472
  29 H :    0.045012
  30 H :    0.032271
  31 H :    0.034118
  32 H :    0.028151
  33 H :    0.066137
Sum of atomic charges:   -0.0000000

LOEWDIN ATOMIC CHARGES
----------------------
   0 S :    0.401210
   1 C :   -0.180664
   2 C :   -0.061782
   3 C :   -0.071002
   4 C :   -0.198260
   5 H :    0.038224
   6 C :   -0.035561
   7 H :    0.034584
   8 H :    0.024356
   9 C :   -0.052740
  10 H :    0.027241
  11 H :    0.024487
  12 C :   -0.067159
  13 H :    0.028984
  14 H :    0.027134
  15 H :    0.035137
  16 S :    0.401151
  17 C :   -0.183282
  18 C :   -0.076709
  19 C :   -0.061657
  20 C :   -0.199590
  21 H :    0.036239
  22 C :   -0.035719
  23 H :    0.038083
  24 H :    0.031359
  25 C :   -0.038777
  26 H :    0.023562
  27 H :    0.027405
  28 C :   -0.079328
  29 H :    0.036793
  30 H :    0.025453
  31 H :    0.027370
  32 H :    0.019351
  33 H :    0.034109

  Mayer bond orders larger than 0.100000
B(  0-S ,  1-C ) :   1.1310 B(  0-S ,  4-C ) :   1.1487 B(  1-C ,  2-C ) :   1.6068
B(  1-C , 32-H ) :   0.9735 B(  2-C ,  3-C ) :   1.2529 B(  2-C ,  6-C ) :   1.0195
B(  3-C ,  4-C ) :   1.5902 B(  3-C ,  5-H ) :   0.9890 B(  4-C , 20-C ) :   1.0180
B(  6-C ,  7-H ) :   0.9421 B(  6-C ,  8-H ) :   0.9319 B(  6-C ,  9-C ) :   1.0638
B(  9-C , 10-H ) :   0.9518 B(  9-C , 11-H ) :   0.9567 B(  9-C , 12-C ) :   1.0659
B( 12-C , 13-H ) :   0.9745 B( 12-C , 14-H ) :   0.9763 B( 12-C , 15-H ) :   0.9773
B( 16-S , 17-C ) :   1.1524 B( 16-S , 20-C ) :   1.1310 B( 17-C , 18-C ) :   1.6168
B( 17-C , 33-H ) :   0.9699 B( 18-C , 19-C ) :   1.2128 B( 18-C , 21-H ) :   0.9818
B( 19-C , 20-C ) :   1.6185 B( 19-C , 22-C ) :   1.0555 B( 22-C , 23-H ) :   0.9348
B( 22-C , 24-H ) :   0.9173 B( 22-C , 25-C ) :   1.0831 B( 25-C , 26-H ) :   0.9515
B( 25-C , 27-H ) :   0.9491 B( 25-C , 28-C ) :   1.0652 B( 28-C , 29-H ) :   0.9718
B( 28-C , 30-H ) :   0.9774 B( 28-C , 31-H ) :   0.9765

Dispersion correction           -0.014068261
FINAL SINGLE POINT ENERGY     -1339.882074381653

DIPOLE MOMENT
-------------
                                X             Y             Z
Electronic contribution:    -11.81953      17.44152       3.57030
Nuclear contribution   :     12.30213     -17.87108      -3.81981
                        -----------------------------------------
Total Dipole Moment    :      0.48260      -0.42956      -0.24951
                        -----------------------------------------
Magnitude (a.u.)       :      0.69259
Magnitude (Debye)      :      1.76042

Rotational constants in cm-1:     0.021414     0.007109     0.006664
Rotational constants in MHz :   641.974530   213.125680   199.789773

                             ****ORCA TERMINATED NORMALLY****
TOTAL RUN TIME: 0 days 0 hours 0 minutes 21 seconds 127 msec
