                         Program Version 4.2.1 -  RELEASE  -
|  1> ! wB97X-D3 SP def2-SVP
|  2> %pal
|  3> nprocs 24
|  4> end
|  5>
|  6> * xyz 0 1
|  7> S 	 -45.6534 	 -51.5916 	 -73.8038
|  8> C 	 -44.7115 	 -50.0742 	 -73.8744
|  9> C 	 -43.9869 	 -49.8496 	 -72.7058
| 10> C 	 -44.2351 	 -50.9073 	 -71.7903
| 11> C 	 -45.1403 	 -51.8969 	 -72.1848
| 12> H 	 -43.7971 	 -50.8503 	 -70.8097
| 13> C 	 -42.948 	 -48.6988 	 -72.4512
| 14> H 	 -42.8768 	 -48.4052 	 -71.3766
| 15> H 	 -43.2496 	 -47.7849 	 -72.9271
| 16> C 	 -41.4764 	 -49.1064 	 -72.7782
| 17> H 	 -41.0528 	 -49.7055 	 -71.9445
| 18> H 	 -41.4681 	 -49.5699 	 -73.7644
| 19> C 	 -40.5856 	 -47.8592 	 -72.6733
| 20> H 	 -39.5774 	 -48.0251 	 -72.9797
| 21> H 	 -41.0196 	 -47.1781 	 -73.326
| 22> H 	 -40.4861 	 -47.4386 	 -71.68
| 23> S 	 -46.1815 	 -54.3758 	 -72.373
| 24> C 	 -46.5095 	 -55.286 	 -70.8836
| 25> C 	 -46.1147 	 -54.6342 	 -69.7234
| 26> C 	 -45.556 	 -53.3779 	 -69.9922
| 27> C 	 -45.6032 	 -53.0318 	 -71.3858
| 28> H 	 -46.3145 	 -55.0468 	 -68.7838
| 29> C 	 -45.0793 	 -52.4929 	 -68.837
| 30> H 	 -45.5881 	 -51.5594 	 -68.9541
| 31> H 	 -44.0558 	 -52.4432 	 -69.0881
| 32> C 	 -45.2254 	 -52.9686 	 -67.3862
| 33> H 	 -44.951 	 -54.0311 	 -67.2534
| 34> H 	 -46.3127 	 -52.9094 	 -67.22
| 35> C 	 -44.3634 	 -52.1303 	 -66.5279
| 36> H 	 -43.343 	 -52.4864 	 -66.5864
| 37> H 	 -44.7158 	 -52.3648 	 -65.4318
| 38> H 	 -44.4508 	 -51.1044 	 -66.8525
| 39> H 	 -44.5343 	 -49.5007 	 -74.7882
| 40> H 	 -46.9939 	 -56.2262 	 -70.8911
| 41> *
| 42>
| 43>                          ****END OF INPUT****

CARTESIAN COORDINATES (ANGSTROEM)
---------------------------------
  S    -45.653400  -51.591600  -73.803800
  C    -44.711500  -50.074200  -73.874400
  C    -43.986900  -49.849600  -72.705800
  C    -44.235100  -50.907300  -71.790300
  C    -45.140300  -51.896900  -72.184800
  H    -43.797100  -50.850300  -70.809700
  C    -42.948000  -48.698800  -72.451200
  H    -42.876800  -48.405200  -71.376600
  H    -43.249600  -47.784900  -72.927100
  C    -41.476400  -49.106400  -72.778200
  H    -41.052800  -49.705500  -71.944500
  H    -41.468100  -49.569900  -73.764400
  C    -40.585600  -47.859200  -72.673300
  H    -39.577400  -48.025100  -72.979700
  H    -41.019600  -47.178100  -73.326000
  H    -40.486100  -47.438600  -71.680000
  S    -46.181500  -54.375800  -72.373000
  C    -46.509500  -55.286000  -70.883600
  C    -46.114700  -54.634200  -69.723400
  C    -45.556000  -53.377900  -69.992200
  C    -45.603200  -53.031800  -71.385800
  H    -46.314500  -55.046800  -68.783800
  C    -45.079300  -52.492900  -68.837000
  H    -45.588100  -51.559400  -68.954100
  H    -44.055800  -52.443200  -69.088100
  C    -45.225400  -52.968600  -67.386200
  H    -44.951000  -54.031100  -67.253400
  H    -46.312700  -52.909400  -67.220000
  C    -44.363400  -52.130300  -66.527900
  H    -43.343000  -52.486400  -66.586400
  H    -44.715800  -52.364800  -65.431800
  H    -44.450800  -51.104400  -66.852500
  H    -44.534300  -49.500700  -74.788200
  H    -46.993900  -56.226200  -70.891100

 Total Charge           Charge          ....    0
 Multiplicity           Mult            ....    1
 Number of Electrons    NEL             ....  134
 Basis Dimension        Dim             ....  322

ORBITAL ENERGIES
----------------

  NO   OCC          E(Eh)            E(eV)
   0   2.0000     -88.968275     -2420.9498
   1   2.0000     -88.968009     -2420.9426
   2   2.0000     -10.332190      -281.1532
   3   2.0000     -10.331003      -281.1209
   4   2.0000     -10.316641      -280.7301
   5   2.0000     -10.315945      -280.7111
   6   2.0000     -10.308064      -280.4967
   7   2.0000     -10.304849      -280.4092
   8   2.0000     -10.300600      -280.2936
   9   2.0000     -10.290916      -280.0301
  10   2.0000     -10.289597      -279.9942
  11   2.0000     -10.288789      -279.9722
  12   2.0000     -10.288605      -279.9672
  13   2.0000     -10.287166      -279.9280
  14   2.0000     -10.286400      -279.9072
  15   2.0000     -10.270291      -279.4688
  16   2.0000      -8.082595      -219.9386
  17   2.0000      -8.082111      -219.9254
  18   2.0000      -6.041209      -164.3896
  19   2.0000      -6.040544      -164.3716
  20   2.0000      -6.037195      -164.2804
  21   2.0000      -6.036808      -164.2699
  22   2.0000      -6.033236      -164.1727
  23   2.0000      -6.032920      -164.1641
  24   2.0000      -1.002573       -27.2814
  25   2.0000      -0.978403       -26.6237
  26   2.0000      -0.921273       -25.0691
  27   2.0000      -0.909133       -24.7388
  28   2.0000      -0.870519       -23.6880
  29   2.0000      -0.856029       -23.2937
  30   2.0000      -0.844046       -22.9677
  31   2.0000      -0.810100       -22.0439
  32   2.0000      -0.783043       -21.3077
  33   2.0000      -0.769844       -20.9485
  34   2.0000      -0.707420       -19.2499
  35   2.0000      -0.698632       -19.0107
  36   2.0000      -0.696666       -18.9573
  37   2.0000      -0.657624       -17.8949
  38   2.0000      -0.634175       -17.2568
  39   2.0000      -0.622016       -16.9259
  40   2.0000      -0.600614       -16.3435
  41   2.0000      -0.582059       -15.8386
  42   2.0000      -0.577003       -15.7011
  43   2.0000      -0.563181       -15.3249
  44   2.0000      -0.533927       -14.5289
  45   2.0000      -0.525854       -14.3092
  46   2.0000      -0.517147       -14.0723
  47   2.0000      -0.510071       -13.8797
  48   2.0000      -0.501085       -13.6352
  49   2.0000      -0.496765       -13.5177
  50   2.0000      -0.493375       -13.4254
  51   2.0000      -0.480158       -13.0658
  52   2.0000      -0.477056       -12.9814
  53   2.0000      -0.460086       -12.5196
  54   2.0000      -0.457584       -12.4515
  55   2.0000      -0.456239       -12.4149
  56   2.0000      -0.450451       -12.2574
  57   2.0000      -0.436025       -11.8648
  58   2.0000      -0.429934       -11.6991
  59   2.0000      -0.426684       -11.6107
  60   2.0000      -0.422478       -11.4962
  61   2.0000      -0.415703       -11.3119
  62   2.0000      -0.411453       -11.1962
  63   2.0000      -0.355774        -9.6811
  64   2.0000      -0.336274        -9.1505
  65   2.0000      -0.330768        -9.0007
  66   2.0000      -0.275073        -7.4851
  67   0.0000       0.016702         0.4545
  68   0.0000       0.078868         2.1461
  69   0.0000       0.094359         2.5676
  70   0.0000       0.125041         3.4025
  71   0.0000       0.137880         3.7519

MULLIKEN ATOMIC CHARGES
-----------------------
   0 S :    0.102438
   1 C :   -0.133787
   2 C :   -0.062986
   3 C :   -0.013654
   4 C :   -0.096530
   5 H :   -0.010222
   6 C :    0.034962
   7 H :    0.023179
   8 H :    0.023040
   9 C :   -0.083971
  10 H :    0.041418
  11 H :    0.042882
  12 C :   -0.018137
  13 H :    0.027143
  14 H :    0.009421
  15 H :    0.027947
  16 S :    0.089258
  17 C :   -0.065684
  18 C :   -0.024362
  19 C :   -0.054952
  20 C :   -0.133276
  21 H :    0.000897
  22 C :    0.026308
  23 H :    0.046958
  24 H :    0.037680
  25 C :   -0.084751
  26 H :    0.032801
  27 H :    0.035341
  28 C :   -0.036239
  29 H :    0.037769
  30 H :    0.047749
  31 H :    0.039198
  32 H :    0.052341
  33 H :    0.039820
Sum of atomic charges:   -0.0000000

LOEWDIN ATOMIC CHARGES
----------------------
   0 S :    0.398710
   1 C :   -0.195464
   2 C :   -0.057833
   3 C :   -0.074118
   4 C :   -0.200850
   5 H :    0.022902
   6 C :   -0.030323
   7 H :    0.033864
   8 H :    0.024072
   9 C :   -0.035393
  10 H :    0.030496
  11 H :    0.025191
  12 C :   -0.059637
  13 H :    0.023671
  14 H :    0.013011
  15 H :    0.025339
  16 S :    0.392683
  17 C :   -0.166131
  18 C :   -0.066590
  19 C :   -0.046327
  20 C :   -0.191657
  21 H :    0.025121
  22 C :   -0.032605
  23 H :    0.034374
  24 H :    0.027218
  25 C :   -0.049307
  26 H :    0.024590
  27 H :    0.025566
  28 C :   -0.061601
  29 H :    0.026892
  30 H :    0.041605
  31 H :    0.025025
  32 H :    0.029434
  33 H :    0.018071

  Mayer bond orders larger than 0.100000
B(  0-S ,  1-C ) :   1.1295 B(  0-S ,  4-C ) :   1.1487 B(  1-C ,  2-C ) :   1.6050
B(  1-C , 32-H ) :   0.9645 B(  2-C ,  3-C ) :   1.2793 B(  2-C ,  6-C ) :   1.0181
B(  3-C ,  4-C ) :   1.5333 B(  3-C ,  5-H ) :   0.9934 B(  4-C , 20-C ) :   1.0852
B(  6-C ,  7-H ) :   0.9427 B(  6-C ,  8-H ) :   0.9514 B(  6-C ,  9-C ) :   1.0536
B(  9-C , 10-H ) :   0.9591 B(  9-C , 11-H ) :   0.9606 B(  9-C , 12-C ) :   1.0762
B( 12-C , 13-H ) :   0.9722 B( 12-C , 14-H ) :   0.9755 B( 12-C , 15-H ) :   0.9746
B( 16-S , 17-C ) :   1.1608 B( 16-S , 20-C ) :   1.1407 B( 17-C , 18-C ) :   1.5776
B( 17-C , 20-C ) :   0.1115 B( 17-C , 33-H ) :   0.9672 B( 18-C , 19-C ) :   1.2840
B( 18-C , 21-H ) :   0.9936 B( 19-C , 20-C ) :   1.5554 B( 19-C , 22-C ) :   1.0005
B( 22-C , 23-H ) :   0.9337 B( 22-C , 24-H ) :   0.9257 B( 22-C , 25-C ) :   1.0865
B( 25-C , 26-H ) :   0.9457 B( 25-C , 27-H ) :   0.9499 B( 25-C , 28-C ) :   1.0814
B( 28-C , 29-H ) :   0.9734 B( 28-C , 30-H ) :   0.9691 B( 28-C , 31-H ) :   0.9717

Dispersion correction           -0.013050885
FINAL SINGLE POINT ENERGY     -1339.861003723774

DIPOLE MOMENT
-------------
                                X             Y             Z
Electronic contribution:    -18.68066     -16.32990     -19.45243
Nuclear contribution   :     19.11980      16.56655      20.08352
                        -----------------------------------------
Total Dipole Moment    :      0.43914       0.23666       0.63108
                        -----------------------------------------
Magnitude (a.u.)       :      0.80443
Magnitude (Debye)      :      2.04470

Rotational constants in cm-1:     0.016539     0.008335     0.005852
Rotational constants in MHz :   495.819159   249.890221   175.449520

                             ****ORCA TERMINATED NORMALLY****
TOTAL RUN TIME: 0 days 0 hours 0 minutes 20 seconds 896 msec
