                         Program Version 4.2.1 -  RELEASE  -
|  1> ! wB97X-D3 SP def2-SVP
|  2> %pal
|  3> nprocs 24
|  4> end
|  5>
|  6> * xyz 0 1
|  7> S 	 -111.359 	 55.1439 	 -90.1205
|  8> C 	 -110.632 	 55.4141 	 -88.5502
|  9> C 	 -111.223 	 54.5423 	 -87.6398
| 10> C 	 -111.917 	 53.4555 	 -88.2988
| 11> C 	 -112.012 	 53.6197 	 -89.6355
| 12> H 	 -112.285 	 52.5824 	 -87.7717
| 13> C 	 -111.001 	 54.4847 	 -86.1244
| 14> H 	 -111.851 	 54.8853 	 -85.586
| 15> H 	 -110.338 	 55.2747 	 -85.7892
| 16> C 	 -110.342 	 53.2439 	 -85.5469
| 17> H 	 -110.163 	 53.4844 	 -84.4539
| 18> H 	 -111.053 	 52.5197 	 -85.5484
| 19> C 	 -109.103 	 52.7681 	 -86.3488
| 20> H 	 -108.503 	 53.6365 	 -86.528
| 21> H 	 -108.448 	 52.1232 	 -85.7293
| 22> H 	 -109.298 	 52.346 	 -87.3379
| 23> S 	 -113.794 	 53.4075 	 -91.7596
| 24> C 	 -114.058 	 51.9385 	 -92.5588
| 25> C 	 -113.189 	 50.995 	 -91.9963
| 26> C 	 -112.429 	 51.4215 	 -90.8775
| 27> C 	 -112.7 	 52.749 	 -90.5676
| 28> H 	 -113.146 	 49.9985 	 -92.2192
| 29> C 	 -111.461 	 50.4941 	 -90.1151
| 30> H 	 -111.621 	 49.4814 	 -90.4209
| 31> H 	 -111.853 	 50.6099 	 -89.1095
| 32> C 	 -109.892 	 50.8663 	 -90.1635
| 33> H 	 -109.399 	 50.4254 	 -89.3206
| 34> H 	 -109.837 	 51.9517 	 -90.1104
| 35> C 	 -109.234 	 50.5438 	 -91.5586
| 36> H 	 -108.203 	 50.8076 	 -91.563
| 37> H 	 -109.832 	 50.9973 	 -92.3562
| 38> H 	 -109.256 	 49.4417 	 -91.676
| 39> H 	 -110.046 	 56.2699 	 -88.2647
| 40> H 	 -114.705 	 51.6768 	 -93.3747
| 41> *
| 42>
| 43>                          ****END OF INPUT****

CARTESIAN COORDINATES (ANGSTROEM)
---------------------------------
  S    -111.359000   55.143900  -90.120500
  C    -110.632000   55.414100  -88.550200
  C    -111.223000   54.542300  -87.639800
  C    -111.917000   53.455500  -88.298800
  C    -112.012000   53.619700  -89.635500
  H    -112.285000   52.582400  -87.771700
  C    -111.001000   54.484700  -86.124400
  H    -111.851000   54.885300  -85.586000
  H    -110.338000   55.274700  -85.789200
  C    -110.342000   53.243900  -85.546900
  H    -110.163000   53.484400  -84.453900
  H    -111.053000   52.519700  -85.548400
  C    -109.103000   52.768100  -86.348800
  H    -108.503000   53.636500  -86.528000
  H    -108.448000   52.123200  -85.729300
  H    -109.298000   52.346000  -87.337900
  S    -113.794000   53.407500  -91.759600
  C    -114.058000   51.938500  -92.558800
  C    -113.189000   50.995000  -91.996300
  C    -112.429000   51.421500  -90.877500
  C    -112.700000   52.749000  -90.567600
  H    -113.146000   49.998500  -92.219200
  C    -111.461000   50.494100  -90.115100
  H    -111.621000   49.481400  -90.420900
  H    -111.853000   50.609900  -89.109500
  C    -109.892000   50.866300  -90.163500
  H    -109.399000   50.425400  -89.320600
  H    -109.837000   51.951700  -90.110400
  C    -109.234000   50.543800  -91.558600
  H    -108.203000   50.807600  -91.563000
  H    -109.832000   50.997300  -92.356200
  H    -109.256000   49.441700  -91.676000
  H    -110.046000   56.269900  -88.264700
  H    -114.705000   51.676800  -93.374700

 Total Charge           Charge          ....    0
 Multiplicity           Mult            ....    1
 Number of Electrons    NEL             ....  134
 Basis Dimension        Dim             ....  322

ORBITAL ENERGIES
----------------

  NO   OCC          E(Eh)            E(eV)
   0   2.0000     -88.968289     -2420.9502
   1   2.0000     -88.964793     -2420.8551
   2   2.0000     -10.326097      -280.9874
   3   2.0000     -10.323567      -280.9185
   4   2.0000     -10.316778      -280.7338
   5   2.0000     -10.315692      -280.7043
   6   2.0000     -10.305281      -280.4210
   7   2.0000     -10.300657      -280.2951
   8   2.0000     -10.295731      -280.1611
   9   2.0000     -10.291339      -280.0416
  10   2.0000     -10.289612      -279.9946
  11   2.0000     -10.288426      -279.9623
  12   2.0000     -10.285239      -279.8756
  13   2.0000     -10.284779      -279.8631
  14   2.0000     -10.278425      -279.6902
  15   2.0000     -10.277087      -279.6538
  16   2.0000      -8.083654      -219.9674
  17   2.0000      -8.080014      -219.8683
  18   2.0000      -6.042111      -164.4142
  19   2.0000      -6.038600      -164.3187
  20   2.0000      -6.037820      -164.2974
  21   2.0000      -6.034685      -164.2121
  22   2.0000      -6.034503      -164.2072
  23   2.0000      -6.030592      -164.1007
  24   2.0000      -1.013574       -27.5807
  25   2.0000      -0.989957       -26.9381
  26   2.0000      -0.913685       -24.8626
  27   2.0000      -0.899138       -24.4668
  28   2.0000      -0.870400       -23.6848
  29   2.0000      -0.848983       -23.1020
  30   2.0000      -0.841122       -22.8881
  31   2.0000      -0.814422       -22.1615
  32   2.0000      -0.785801       -21.3827
  33   2.0000      -0.775787       -21.1102
  34   2.0000      -0.712001       -19.3745
  35   2.0000      -0.701819       -19.0975
  36   2.0000      -0.692395       -18.8410
  37   2.0000      -0.666392       -18.1334
  38   2.0000      -0.643389       -17.5075
  39   2.0000      -0.627227       -17.0677
  40   2.0000      -0.592244       -16.1158
  41   2.0000      -0.568778       -15.4772
  42   2.0000      -0.553217       -15.0538
  43   2.0000      -0.550880       -14.9902
  44   2.0000      -0.545002       -14.8303
  45   2.0000      -0.537853       -14.6357
  46   2.0000      -0.516880       -14.0650
  47   2.0000      -0.509248       -13.8573
  48   2.0000      -0.505288       -13.7496
  49   2.0000      -0.500475       -13.6186
  50   2.0000      -0.487403       -13.2629
  51   2.0000      -0.480807       -13.0834
  52   2.0000      -0.471016       -12.8170
  53   2.0000      -0.465172       -12.6580
  54   2.0000      -0.460925       -12.5424
  55   2.0000      -0.453485       -12.3399
  56   2.0000      -0.441852       -12.0234
  57   2.0000      -0.440639       -11.9904
  58   2.0000      -0.432224       -11.7614
  59   2.0000      -0.423097       -11.5131
  60   2.0000      -0.418848       -11.3974
  61   2.0000      -0.415294       -11.3007
  62   2.0000      -0.406753       -11.0683
  63   2.0000      -0.351190        -9.5564
  64   2.0000      -0.330572        -8.9953
  65   2.0000      -0.328979        -8.9520
  66   2.0000      -0.292389        -7.9563
  67   0.0000       0.032446         0.8829
  68   0.0000       0.064282         1.7492
  69   0.0000       0.114712         3.1215
  70   0.0000       0.121624         3.3096
  71   0.0000       0.134346         3.6557

MULLIKEN ATOMIC CHARGES
-----------------------
   0 S :    0.107803
   1 C :   -0.109221
   2 C :   -0.090768
   3 C :    0.002177
   4 C :   -0.124857
   5 H :    0.017536
   6 C :    0.051680
   7 H :    0.031687
   8 H :   -0.003204
   9 C :   -0.052260
  10 H :    0.037826
  11 H :    0.005447
  12 C :   -0.035821
  13 H :    0.012999
  14 H :    0.038091
  15 H :    0.044524
  16 S :    0.120993
  17 C :   -0.069909
  18 C :   -0.009411
  19 C :   -0.081343
  20 C :   -0.166479
  21 H :   -0.026259
  22 C :    0.091002
  23 H :    0.010345
  24 H :    0.025994
  25 C :   -0.088785
  26 H :    0.040361
  27 H :    0.053249
  28 C :   -0.047067
  29 H :    0.036611
  30 H :    0.049229
  31 H :    0.022294
  32 H :    0.047555
  33 H :    0.057979
Sum of atomic charges:    0.0000000

LOEWDIN ATOMIC CHARGES
----------------------
   0 S :    0.407442
   1 C :   -0.195856
   2 C :   -0.054527
   3 C :   -0.066296
   4 C :   -0.195163
   5 H :    0.031333
   6 C :   -0.044854
   7 H :    0.035068
   8 H :    0.026105
   9 C :   -0.035434
  10 H :    0.036352
  11 H :    0.002677
  12 C :   -0.064071
  13 H :    0.021742
  14 H :    0.030865
  15 H :    0.030248
  16 S :    0.440714
  17 C :   -0.205219
  18 C :   -0.068714
  19 C :   -0.056199
  20 C :   -0.207771
  21 H :    0.010807
  22 C :   -0.024405
  23 H :    0.022447
  24 H :    0.031507
  25 C :   -0.031316
  26 H :    0.019580
  27 H :    0.026084
  28 C :   -0.062092
  29 H :    0.022457
  30 H :    0.030957
  31 H :    0.022584
  32 H :    0.027853
  33 H :    0.035097

  Mayer bond orders larger than 0.100000
B(  0-S ,  1-C ) :   1.1275 B(  0-S ,  4-C ) :   1.1371 B(  1-C ,  2-C ) :   1.6187
B(  1-C , 32-H ) :   0.9690 B(  2-C ,  3-C ) :   1.2154 B(  2-C ,  6-C ) :   1.0321
B(  3-C ,  4-C ) :   1.5917 B(  3-C ,  5-H ) :   0.9980 B(  4-C , 20-C ) :   1.0429
B(  6-C ,  7-H ) :   0.9327 B(  6-C ,  8-H ) :   0.9359 B(  6-C ,  9-C ) :   1.0667
B(  9-C , 10-H ) :   0.9538 B(  9-C , 11-H ) :   0.9558 B(  9-C , 12-C ) :   1.0702
B( 12-C , 13-H ) :   0.9748 B( 12-C , 14-H ) :   0.9735 B( 12-C , 15-H ) :   0.9668
B( 16-S , 17-C ) :   1.1800 B( 16-S , 20-C ) :   1.1564 B( 17-C , 18-C ) :   1.5346
B( 17-C , 20-C ) :   0.1067 B( 17-C , 33-H ) :   0.9736 B( 18-C , 19-C ) :   1.3161
B( 18-C , 21-H ) :   0.9946 B( 19-C , 20-C ) :   1.5493 B( 19-C , 22-C ) :   1.0202
B( 22-C , 23-H ) :   0.9382 B( 22-C , 24-H ) :   0.9364 B( 22-C , 25-C ) :   1.0514
B( 25-C , 26-H ) :   0.9557 B( 25-C , 27-H ) :   0.9584 B( 25-C , 28-C ) :   1.0645
B( 28-C , 29-H ) :   0.9759 B( 28-C , 30-H ) :   0.9776 B( 28-C , 31-H ) :   0.9775

Dispersion correction           -0.016272441
FINAL SINGLE POINT ENERGY     -1339.867059130944

DIPOLE MOMENT
-------------
                                X             Y             Z
Electronic contribution:    -17.95160      14.26362     -15.44467
Nuclear contribution   :     18.18180     -14.64188      15.89967
                        -----------------------------------------
Total Dipole Moment    :      0.23021      -0.37827       0.45500
                        -----------------------------------------
Magnitude (a.u.)       :      0.63491
Magnitude (Debye)      :      1.61380

Rotational constants in cm-1:     0.019720     0.009936     0.007886
Rotational constants in MHz :   591.199240   297.885583   236.423021

                             ****ORCA TERMINATED NORMALLY****
TOTAL RUN TIME: 0 days 0 hours 0 minutes 23 seconds 89 msec
