                         Program Version 4.2.1 -  RELEASE  -
|  1> ! wB97X-D3 SP def2-SVP
|  2> %pal
|  3> nprocs 24
|  4> end
|  5>
|  6> * xyz 0 1
|  7> S 	 -88.9287 	 -31.207 	 -60.8368
|  8> C 	 -87.9513 	 -30.0735 	 -61.7121
|  9> C 	 -87.7765 	 -28.8358 	 -61.0996
| 10> C 	 -88.4126 	 -28.8409 	 -59.811
| 11> C 	 -89.0904 	 -30.0365 	 -59.5178
| 12> H 	 -88.3743 	 -27.9932 	 -59.1111
| 13> C 	 -86.9885 	 -27.6276 	 -61.6655
| 14> H 	 -86.3834 	 -28.0164 	 -62.5196
| 15> H 	 -86.2575 	 -27.259 	 -60.9691
| 16> C 	 -87.8964 	 -26.5475 	 -62.2894
| 17> H 	 -87.4169 	 -25.977 	 -63.0736
| 18> H 	 -88.7805 	 -26.9848 	 -62.7843
| 19> C 	 -88.4598 	 -25.5668 	 -61.2473
| 20> H 	 -87.6102 	 -25.1596 	 -60.6508
| 21> H 	 -88.8555 	 -24.6786 	 -61.768
| 22> H 	 -89.2249 	 -25.9707 	 -60.5665
| 23> S 	 -89.7333 	 -31.9505 	 -57.5664
| 24> C 	 -90.8869 	 -31.5095 	 -56.2502
| 25> C 	 -91.4234 	 -30.3479 	 -56.5267
| 26> C 	 -90.9294 	 -29.6662 	 -57.6892
| 27> C 	 -89.8781 	 -30.3308 	 -58.3098
| 28> H 	 -92.2437 	 -29.9798 	 -55.9443
| 29> C 	 -91.6118 	 -28.3233 	 -58.1855
| 30> H 	 -91.0155 	 -27.9503 	 -58.9754
| 31> H 	 -91.6399 	 -27.6111 	 -57.424
| 32> C 	 -92.944 	 -28.5635 	 -58.8666
| 33> H 	 -93.3403 	 -27.6093 	 -59.1747
| 34> H 	 -93.7283 	 -28.9332 	 -58.1066
| 35> C 	 -92.8237 	 -29.597 	 -59.9957
| 36> H 	 -91.9655 	 -29.4065 	 -60.6121
| 37> H 	 -93.7472 	 -29.5987 	 -60.62
| 38> H 	 -92.6838 	 -30.6449 	 -59.5641
| 39> H 	 -87.5378 	 -30.2061 	 -62.6645
| 40> H 	 -91.2564 	 -32.0456 	 -55.4586
| 41> *
| 42>
| 43>                          ****END OF INPUT****

CARTESIAN COORDINATES (ANGSTROEM)
---------------------------------
  S    -88.928700  -31.207000  -60.836800
  C    -87.951300  -30.073500  -61.712100
  C    -87.776500  -28.835800  -61.099600
  C    -88.412600  -28.840900  -59.811000
  C    -89.090400  -30.036500  -59.517800
  H    -88.374300  -27.993200  -59.111100
  C    -86.988500  -27.627600  -61.665500
  H    -86.383400  -28.016400  -62.519600
  H    -86.257500  -27.259000  -60.969100
  C    -87.896400  -26.547500  -62.289400
  H    -87.416900  -25.977000  -63.073600
  H    -88.780500  -26.984800  -62.784300
  C    -88.459800  -25.566800  -61.247300
  H    -87.610200  -25.159600  -60.650800
  H    -88.855500  -24.678600  -61.768000
  H    -89.224900  -25.970700  -60.566500
  S    -89.733300  -31.950500  -57.566400
  C    -90.886900  -31.509500  -56.250200
  C    -91.423400  -30.347900  -56.526700
  C    -90.929400  -29.666200  -57.689200
  C    -89.878100  -30.330800  -58.309800
  H    -92.243700  -29.979800  -55.944300
  C    -91.611800  -28.323300  -58.185500
  H    -91.015500  -27.950300  -58.975400
  H    -91.639900  -27.611100  -57.424000
  C    -92.944000  -28.563500  -58.866600
  H    -93.340300  -27.609300  -59.174700
  H    -93.728300  -28.933200  -58.106600
  C    -92.823700  -29.597000  -59.995700
  H    -91.965500  -29.406500  -60.612100
  H    -93.747200  -29.598700  -60.620000
  H    -92.683800  -30.644900  -59.564100
  H    -87.537800  -30.206100  -62.664500
  H    -91.256400  -32.045600  -55.458600

 Total Charge           Charge          ....    0
 Multiplicity           Mult            ....    1
 Number of Electrons    NEL             ....  134
 Basis Dimension        Dim             ....  322

ORBITAL ENERGIES
----------------

  NO   OCC          E(Eh)            E(eV)
   0   2.0000     -88.974236     -2421.1121
   1   2.0000     -88.961223     -2420.7580
   2   2.0000     -10.336562      -281.2722
   3   2.0000     -10.332889      -281.1722
   4   2.0000     -10.312320      -280.6125
   5   2.0000     -10.309382      -280.5326
   6   2.0000     -10.305960      -280.4394
   7   2.0000     -10.305913      -280.4382
   8   2.0000     -10.300992      -280.3042
   9   2.0000     -10.300689      -280.2960
  10   2.0000     -10.290242      -280.0117
  11   2.0000     -10.287792      -279.9450
  12   2.0000     -10.285334      -279.8782
  13   2.0000     -10.284857      -279.8652
  14   2.0000     -10.282637      -279.8048
  15   2.0000     -10.276712      -279.6435
  16   2.0000      -8.088353      -220.0953
  17   2.0000      -8.074861      -219.7281
  18   2.0000      -6.046820      -164.5423
  19   2.0000      -6.043000      -164.4384
  20   2.0000      -6.039147      -164.3335
  21   2.0000      -6.033703      -164.1854
  22   2.0000      -6.029711      -164.0768
  23   2.0000      -6.025119      -163.9518
  24   2.0000      -1.001944       -27.2643
  25   2.0000      -0.982048       -26.7229
  26   2.0000      -0.909636       -24.7525
  27   2.0000      -0.906590       -24.6696
  28   2.0000      -0.872504       -23.7420
  29   2.0000      -0.848603       -23.0916
  30   2.0000      -0.832992       -22.6669
  31   2.0000      -0.817844       -22.2547
  32   2.0000      -0.782894       -21.3036
  33   2.0000      -0.773985       -21.0612
  34   2.0000      -0.709345       -19.3023
  35   2.0000      -0.699960       -19.0469
  36   2.0000      -0.689833       -18.7713
  37   2.0000      -0.657035       -17.8788
  38   2.0000      -0.641061       -17.4442
  39   2.0000      -0.618377       -16.8269
  40   2.0000      -0.595900       -16.2153
  41   2.0000      -0.575244       -15.6532
  42   2.0000      -0.559027       -15.2119
  43   2.0000      -0.548882       -14.9358
  44   2.0000      -0.543670       -14.7940
  45   2.0000      -0.530922       -14.4471
  46   2.0000      -0.514209       -13.9923
  47   2.0000      -0.510863       -13.9013
  48   2.0000      -0.500744       -13.6259
  49   2.0000      -0.497305       -13.5324
  50   2.0000      -0.489872       -13.3301
  51   2.0000      -0.479352       -13.0438
  52   2.0000      -0.466359       -12.6903
  53   2.0000      -0.464415       -12.6374
  54   2.0000      -0.458959       -12.4889
  55   2.0000      -0.446215       -12.1421
  56   2.0000      -0.441115       -12.0033
  57   2.0000      -0.436424       -11.8757
  58   2.0000      -0.436199       -11.8696
  59   2.0000      -0.423352       -11.5200
  60   2.0000      -0.421980       -11.4827
  61   2.0000      -0.417243       -11.3538
  62   2.0000      -0.404205       -10.9990
  63   2.0000      -0.353816        -9.6278
  64   2.0000      -0.336703        -9.1622
  65   2.0000      -0.327853        -8.9213
  66   2.0000      -0.292401        -7.9566
  67   0.0000       0.026522         0.7217
  68   0.0000       0.070862         1.9283
  69   0.0000       0.104211         2.8357
  70   0.0000       0.122784         3.3411
  71   0.0000       0.129997         3.5374

MULLIKEN ATOMIC CHARGES
-----------------------
   0 S :    0.132368
   1 C :   -0.084058
   2 C :   -0.112268
   3 C :    0.029152
   4 C :   -0.160538
   5 H :    0.025029
   6 C :    0.067927
   7 H :    0.021677
   8 H :    0.037575
   9 C :   -0.060290
  10 H :    0.030444
  11 H :    0.034302
  12 C :   -0.085630
  13 H :    0.026139
  14 H :    0.034651
  15 H :    0.048891
  16 S :    0.067144
  17 C :   -0.026441
  18 C :   -0.022123
  19 C :   -0.077307
  20 C :   -0.152527
  21 H :    0.011185
  22 C :    0.137965
  23 H :    0.001296
  24 H :    0.015601
  25 C :   -0.096128
  26 H :    0.026349
  27 H :    0.029499
  28 C :   -0.067155
  29 H :    0.032223
  30 H :    0.040379
  31 H :    0.057003
  32 H :    0.019263
  33 H :    0.018406
Sum of atomic charges:    0.0000000

LOEWDIN ATOMIC CHARGES
----------------------
   0 S :    0.413595
   1 C :   -0.193837
   2 C :   -0.059409
   3 C :   -0.059791
   4 C :   -0.191163
   5 H :    0.034673
   6 C :   -0.028561
   7 H :    0.035455
   8 H :    0.029275
   9 C :   -0.042266
  10 H :    0.023603
  11 H :    0.030203
  12 C :   -0.074496
  13 H :    0.024251
  14 H :    0.028256
  15 H :    0.024773
  16 S :    0.351565
  17 C :   -0.148847
  18 C :   -0.069953
  19 C :   -0.051016
  20 C :   -0.183932
  21 H :    0.030057
  22 C :   -0.019470
  23 H :    0.022363
  24 H :    0.019762
  25 C :   -0.044090
  26 H :    0.019857
  27 H :    0.024827
  28 C :   -0.068877
  29 H :    0.020019
  30 H :    0.029292
  31 H :    0.037937
  32 H :    0.016284
  33 H :    0.019659

  Mayer bond orders larger than 0.100000
B(  0-S ,  1-C ) :   1.1416 B(  0-S ,  4-C ) :   1.1456 B(  1-C ,  2-C ) :   1.6297
B(  1-C , 32-H ) :   0.9630 B(  2-C ,  3-C ) :   1.2481 B(  2-C ,  6-C ) :   1.0201
B(  3-C ,  4-C ) :   1.5676 B(  3-C ,  5-H ) :   0.9870 B(  4-C , 20-C ) :   1.0503
B(  6-C ,  7-H ) :   0.9378 B(  6-C ,  8-H ) :   0.9508 B(  6-C ,  9-C ) :   1.0564
B(  9-C , 10-H ) :   0.9598 B(  9-C , 11-H ) :   0.9535 B(  9-C , 12-C ) :   1.0806
B( 12-C , 13-H ) :   0.9755 B( 12-C , 14-H ) :   0.9726 B( 12-C , 15-H ) :   0.9754
B( 16-S , 17-C ) :   1.1038 B( 16-S , 20-C ) :   1.1100 B( 17-C , 18-C ) :   1.6786
B( 17-C , 33-H ) :   0.9727 B( 18-C , 19-C ) :   1.2093 B( 18-C , 21-H ) :   0.9877
B( 19-C , 20-C ) :   1.6257 B( 19-C , 22-C ) :   1.0258 B( 22-C , 23-H ) :   0.9301
B( 22-C , 24-H ) :   0.9382 B( 22-C , 25-C ) :   1.0775 B( 25-C , 26-H ) :   0.9577
B( 25-C , 27-H ) :   0.9545 B( 25-C , 28-C ) :   1.0662 B( 28-C , 29-H ) :   0.9773
B( 28-C , 30-H ) :   0.9740 B( 28-C , 31-H ) :   0.9686

Dispersion correction           -0.015889103
FINAL SINGLE POINT ENERGY     -1339.878732590892

DIPOLE MOMENT
-------------
                                X             Y             Z
Electronic contribution:      6.87940     -24.33025       8.81050
Nuclear contribution   :     -7.07888      25.05941      -8.99167
                        -----------------------------------------
Total Dipole Moment    :     -0.19948       0.72916      -0.18116
                        -----------------------------------------
Magnitude (a.u.)       :      0.77736
Magnitude (Debye)      :      1.97590

Rotational constants in cm-1:     0.020136     0.009267     0.007595
Rotational constants in MHz :   603.674361   277.819276   227.701513

                             ****ORCA TERMINATED NORMALLY****
TOTAL RUN TIME: 0 days 0 hours 0 minutes 22 seconds 648 msec
