                         Program Version 4.2.1 -  RELEASE  -
|  1> ! wB97X-D3 SP def2-SVP
|  2> %pal
|  3> nprocs 24
|  4> end
|  5>
|  6> * xyz 0 1
|  7> S 	 -92.6584 	 -25.9575 	 -67.7215
|  8> C 	 -94.4133 	 -26.1117 	 -67.8011
|  9> C 	 -94.9142 	 -26.4621 	 -66.5426
| 10> C 	 -93.9528 	 -26.7499 	 -65.6395
| 11> C 	 -92.6406 	 -26.5079 	 -66.0868
| 12> H 	 -94.0637 	 -27.1141 	 -64.571
| 13> C 	 -96.3406 	 -26.7221 	 -66.196
| 14> H 	 -96.4374 	 -27.1037 	 -65.1952
| 15> H 	 -96.73 	 -27.3302 	 -67.0023
| 16> C 	 -97.3574 	 -25.5606 	 -66.4025
| 17> H 	 -97.5271 	 -25.2426 	 -67.4169
| 18> H 	 -98.3329 	 -25.8837 	 -66.0564
| 19> C 	 -96.9204 	 -24.3487 	 -65.5327
| 20> H 	 -97.643 	 -23.5776 	 -65.8243
| 21> H 	 -96.918 	 -24.5506 	 -64.4793
| 22> H 	 -96.0203 	 -24.0792 	 -66.0778
| 23> S 	 -90.4617 	 -28.1277 	 -65.6488
| 24> C 	 -89.2102 	 -27.6717 	 -64.5533
| 25> C 	 -89.551 	 -26.4978 	 -63.8734
| 26> C 	 -90.8508 	 -26.0202 	 -64.2539
| 27> C 	 -91.3919 	 -26.6586 	 -65.38
| 28> H 	 -88.8691 	 -26.2044 	 -63.0466
| 29> C 	 -91.3759 	 -24.8627 	 -63.5322
| 30> H 	 -92.1558 	 -24.2557 	 -64.117
| 31> H 	 -90.5233 	 -24.2191 	 -63.351
| 32> C 	 -91.9715 	 -25.1643 	 -62.1008
| 33> H 	 -91.1142 	 -25.5026 	 -61.398
| 34> H 	 -92.6694 	 -25.9819 	 -61.9684
| 35> C 	 -92.4606 	 -23.876 	 -61.5723
| 36> H 	 -93.33 	 -23.4615 	 -62.126
| 37> H 	 -91.6946 	 -23.0825 	 -61.5411
| 38> H 	 -92.8835 	 -23.9787 	 -60.5834
| 39> H 	 -95.0493 	 -25.8947 	 -68.6447
| 40> H 	 -88.2669 	 -28.1925 	 -64.4313
| 41> *
| 42>
| 43>                          ****END OF INPUT****

CARTESIAN COORDINATES (ANGSTROEM)
---------------------------------
  S    -92.658400  -25.957500  -67.721500
  C    -94.413300  -26.111700  -67.801100
  C    -94.914200  -26.462100  -66.542600
  C    -93.952800  -26.749900  -65.639500
  C    -92.640600  -26.507900  -66.086800
  H    -94.063700  -27.114100  -64.571000
  C    -96.340600  -26.722100  -66.196000
  H    -96.437400  -27.103700  -65.195200
  H    -96.730000  -27.330200  -67.002300
  C    -97.357400  -25.560600  -66.402500
  H    -97.527100  -25.242600  -67.416900
  H    -98.332900  -25.883700  -66.056400
  C    -96.920400  -24.348700  -65.532700
  H    -97.643000  -23.577600  -65.824300
  H    -96.918000  -24.550600  -64.479300
  H    -96.020300  -24.079200  -66.077800
  S    -90.461700  -28.127700  -65.648800
  C    -89.210200  -27.671700  -64.553300
  C    -89.551000  -26.497800  -63.873400
  C    -90.850800  -26.020200  -64.253900
  C    -91.391900  -26.658600  -65.380000
  H    -88.869100  -26.204400  -63.046600
  C    -91.375900  -24.862700  -63.532200
  H    -92.155800  -24.255700  -64.117000
  H    -90.523300  -24.219100  -63.351000
  C    -91.971500  -25.164300  -62.100800
  H    -91.114200  -25.502600  -61.398000
  H    -92.669400  -25.981900  -61.968400
  C    -92.460600  -23.876000  -61.572300
  H    -93.330000  -23.461500  -62.126000
  H    -91.694600  -23.082500  -61.541100
  H    -92.883500  -23.978700  -60.583400
  H    -95.049300  -25.894700  -68.644700
  H    -88.266900  -28.192500  -64.431300

 Total Charge           Charge          ....    0
 Multiplicity           Mult            ....    1
 Number of Electrons    NEL             ....  134
 Basis Dimension        Dim             ....  322

ORBITAL ENERGIES
----------------

  NO   OCC          E(Eh)            E(eV)
   0   2.0000     -88.971105     -2421.0269
   1   2.0000     -88.961162     -2420.7563
   2   2.0000     -10.325621      -280.9744
   3   2.0000     -10.323592      -280.9192
   4   2.0000     -10.317092      -280.7424
   5   2.0000     -10.314918      -280.6832
   6   2.0000     -10.303457      -280.3713
   7   2.0000     -10.295737      -280.1612
   8   2.0000     -10.294055      -280.1155
   9   2.0000     -10.292672      -280.0778
  10   2.0000     -10.292404      -280.0706
  11   2.0000     -10.292368      -280.0696
  12   2.0000     -10.286738      -279.9164
  13   2.0000     -10.284388      -279.8524
  14   2.0000     -10.275455      -279.6094
  15   2.0000     -10.271085      -279.4904
  16   2.0000      -8.085463      -220.0166
  17   2.0000      -8.076322      -219.7679
  18   2.0000      -6.043726      -164.4581
  19   2.0000      -6.039843      -164.3525
  20   2.0000      -6.036685      -164.2666
  21   2.0000      -6.034737      -164.2135
  22   2.0000      -6.030712      -164.1040
  23   2.0000      -6.027201      -164.0085
  24   2.0000      -1.008810       -27.4511
  25   2.0000      -0.986774       -26.8515
  26   2.0000      -0.915752       -24.9189
  27   2.0000      -0.911960       -24.8157
  28   2.0000      -0.867563       -23.6076
  29   2.0000      -0.855584       -23.2816
  30   2.0000      -0.851379       -23.1672
  31   2.0000      -0.808738       -22.0069
  32   2.0000      -0.782189       -21.2845
  33   2.0000      -0.765747       -20.8370
  34   2.0000      -0.706109       -19.2142
  35   2.0000      -0.700409       -19.0591
  36   2.0000      -0.693282       -18.8652
  37   2.0000      -0.657693       -17.8967
  38   2.0000      -0.638255       -17.3678
  39   2.0000      -0.614162       -16.7122
  40   2.0000      -0.595548       -16.2057
  41   2.0000      -0.580383       -15.7930
  42   2.0000      -0.562315       -15.3014
  43   2.0000      -0.551574       -15.0091
  44   2.0000      -0.545645       -14.8478
  45   2.0000      -0.522131       -14.2079
  46   2.0000      -0.519084       -14.1250
  47   2.0000      -0.515155       -14.0181
  48   2.0000      -0.510660       -13.8958
  49   2.0000      -0.497581       -13.5399
  50   2.0000      -0.485502       -13.2112
  51   2.0000      -0.479261       -13.0413
  52   2.0000      -0.474107       -12.9011
  53   2.0000      -0.463096       -12.6015
  54   2.0000      -0.459626       -12.5071
  55   2.0000      -0.450106       -12.2480
  56   2.0000      -0.446668       -12.1544
  57   2.0000      -0.435081       -11.8392
  58   2.0000      -0.431406       -11.7392
  59   2.0000      -0.421728       -11.4758
  60   2.0000      -0.419036       -11.4025
  61   2.0000      -0.408228       -11.1084
  62   2.0000      -0.405153       -11.0248
  63   2.0000      -0.337757        -9.1908
  64   2.0000      -0.325677        -8.8621
  65   2.0000      -0.318400        -8.6641
  66   2.0000      -0.301635        -8.2079
  67   0.0000       0.032172         0.8754
  68   0.0000       0.056557         1.5390
  69   0.0000       0.114406         3.1132
  70   0.0000       0.119992         3.2651
  71   0.0000       0.130213         3.5433

MULLIKEN ATOMIC CHARGES
-----------------------
   0 S :    0.140157
   1 C :   -0.124651
   2 C :   -0.072568
   3 C :    0.016437
   4 C :   -0.205711
   5 H :    0.031699
   6 C :    0.105072
   7 H :    0.022747
   8 H :    0.033351
   9 C :   -0.114304
  10 H :    0.022973
  11 H :    0.019715
  12 C :   -0.043151
  13 H :    0.025284
  14 H :    0.042535
  15 H :    0.042824
  16 S :    0.108597
  17 C :   -0.099716
  18 C :   -0.056504
  19 C :    0.020176
  20 C :   -0.154761
  21 H :    0.039666
  22 C :    0.003546
  23 H :    0.046290
  24 H :    0.027134
  25 C :   -0.087233
  26 H :    0.029895
  27 H :    0.031242
  28 C :   -0.035592
  29 H :    0.028946
  30 H :    0.029956
  31 H :    0.023036
  32 H :    0.041448
  33 H :    0.061464
Sum of atomic charges:   -0.0000000

LOEWDIN ATOMIC CHARGES
----------------------
   0 S :    0.439657
   1 C :   -0.202302
   2 C :   -0.072193
   3 C :   -0.067053
   4 C :   -0.214018
   5 H :    0.044016
   6 C :   -0.028124
   7 H :    0.029100
   8 H :    0.039897
   9 C :   -0.036056
  10 H :    0.017870
  11 H :    0.018124
  12 C :   -0.066744
  13 H :    0.025239
  14 H :    0.022608
  15 H :    0.029108
  16 S :    0.415560
  17 C :   -0.190326
  18 C :   -0.082863
  19 C :   -0.052162
  20 C :   -0.215577
  21 H :    0.040202
  22 C :   -0.037684
  23 H :    0.039149
  24 H :    0.033560
  25 C :   -0.042873
  26 H :    0.030706
  27 H :    0.021272
  28 C :   -0.071630
  29 H :    0.026702
  30 H :    0.026901
  31 H :    0.023111
  32 H :    0.025784
  33 H :    0.031041

  Mayer bond orders larger than 0.100000
B(  0-S ,  1-C ) :   1.1634 B(  0-S ,  4-C ) :   1.1969 B(  1-C ,  2-C ) :   1.5239
B(  1-C ,  4-C ) :   0.1265 B(  1-C , 32-H ) :   0.9730 B(  2-C ,  3-C ) :   1.3065
B(  2-C ,  6-C ) :   1.0269 B(  3-C ,  4-C ) :   1.5165 B(  3-C ,  5-H ) :   0.9903
B(  4-C , 20-C ) :   1.0243 B(  6-C ,  7-H ) :   0.9463 B(  6-C ,  8-H ) :   0.9305
B(  6-C ,  9-C ) :   1.0652 B(  9-C , 10-H ) :   0.9597 B(  9-C , 11-H ) :   0.9567
B(  9-C , 12-C ) :   1.0703 B( 12-C , 13-H ) :   0.9750 B( 12-C , 14-H ) :   0.9788
B( 12-C , 15-H ) :   0.9735 B( 16-S , 17-C ) :   1.1826 B( 16-S , 20-C ) :   1.1390
B( 17-C , 18-C ) :   1.5903 B( 17-C , 20-C ) :   0.1036 B( 17-C , 33-H ) :   0.9660
B( 18-C , 19-C ) :   1.2384 B( 18-C , 21-H ) :   0.9846 B( 19-C , 20-C ) :   1.5659
B( 19-C , 22-C ) :   1.0686 B( 22-C , 23-H ) :   0.9453 B( 22-C , 24-H ) :   0.9312
B( 22-C , 25-C ) :   1.0427 B( 25-C , 26-H ) :   0.9479 B( 25-C , 27-H ) :   0.9580
B( 25-C , 28-C ) :   1.0970 B( 28-C , 29-H ) :   0.9697 B( 28-C , 30-H ) :   0.9692
B( 28-C , 31-H ) :   0.9682

Dispersion correction           -0.014330594
FINAL SINGLE POINT ENERGY     -1339.858736678311

DIPOLE MOMENT
-------------
                                X             Y             Z
Electronic contribution:     18.95926     -14.49305     -17.04468
Nuclear contribution   :    -19.32351      14.66414      17.52158
                        -----------------------------------------
Total Dipole Moment    :     -0.36425       0.17109       0.47690
                        -----------------------------------------
Magnitude (a.u.)       :      0.62400
Magnitude (Debye)      :      1.58609

Rotational constants in cm-1:     0.018011     0.009312     0.006834
Rotational constants in MHz :   539.946862   279.179450   204.882867

                             ****ORCA TERMINATED NORMALLY****
TOTAL RUN TIME: 0 days 0 hours 0 minutes 21 seconds 824 msec
