                         Program Version 4.2.1 -  RELEASE  -
|  1> ! wB97X-D3 SP def2-SVP
|  2> %pal
|  3> nprocs 24
|  4> end
|  5>
|  6> * xyz 0 1
|  7> S 	 -60.6171 	 10.7863 	 21.8508
|  8> C 	 -59.2368 	 11.8533 	 21.6346
|  9> C 	 -58.0866 	 11.3506 	 22.2221
| 10> C 	 -58.3124 	 10.1041 	 22.8796
| 11> C 	 -59.6451 	 9.68275 	 22.8264
| 12> H 	 -57.6342 	 9.52491 	 23.4828
| 13> C 	 -56.7004 	 11.8907 	 21.8557
| 14> H 	 -56.8943 	 12.8461 	 21.4551
| 15> H 	 -56.2503 	 11.2932 	 21.0848
| 16> C 	 -55.816 	 12.1243 	 23.1162
| 17> H 	 -55.0394 	 12.8145 	 22.8027
| 18> H 	 -56.2714 	 12.7176 	 23.9536
| 19> C 	 -55.33 	 10.8095 	 23.8031
| 20> H 	 -54.2026 	 10.6907 	 23.9468
| 21> H 	 -55.8483 	 10.7822 	 24.7658
| 22> H 	 -55.5693 	 9.9624 	 23.2095
| 23> S 	 -61.3846 	 8.7781 	 24.686
| 24> C 	 -61.4429 	 7.07678 	 24.9535
| 25> C 	 -60.611 	 6.36174 	 24.1072
| 26> C 	 -59.9469 	 7.18034 	 23.1483
| 27> C 	 -60.2304 	 8.52391 	 23.3945
| 28> H 	 -60.5186 	 5.29591 	 24.2426
| 29> C 	 -59.1122 	 6.56487 	 22.1
| 30> H 	 -58.591 	 5.79091 	 22.5349
| 31> H 	 -58.3486 	 7.27348 	 21.8135
| 32> C 	 -59.8569 	 6.06747 	 20.7951
| 33> H 	 -60.3564 	 5.18691 	 21.1964
| 34> H 	 -59.1223 	 5.67729 	 20.0706
| 35> C 	 -60.6818 	 7.18287 	 20.1395
| 36> H 	 -60.1326 	 8.14946 	 20.1081
| 37> H 	 -61.4973 	 7.42242 	 20.7811
| 38> H 	 -60.9907 	 6.86403 	 19.0982
| 39> H 	 -59.3323 	 12.7067 	 20.9923
| 40> H 	 -62.0687 	 6.56359 	 25.6525
| 41> *
| 42>
| 43>                          ****END OF INPUT****

CARTESIAN COORDINATES (ANGSTROEM)
---------------------------------
  S    -60.617100   10.786300   21.850800
  C    -59.236800   11.853300   21.634600
  C    -58.086600   11.350600   22.222100
  C    -58.312400   10.104100   22.879600
  C    -59.645100    9.682750   22.826400
  H    -57.634200    9.524910   23.482800
  C    -56.700400   11.890700   21.855700
  H    -56.894300   12.846100   21.455100
  H    -56.250300   11.293200   21.084800
  C    -55.816000   12.124300   23.116200
  H    -55.039400   12.814500   22.802700
  H    -56.271400   12.717600   23.953600
  C    -55.330000   10.809500   23.803100
  H    -54.202600   10.690700   23.946800
  H    -55.848300   10.782200   24.765800
  H    -55.569300    9.962400   23.209500
  S    -61.384600    8.778100   24.686000
  C    -61.442900    7.076780   24.953500
  C    -60.611000    6.361740   24.107200
  C    -59.946900    7.180340   23.148300
  C    -60.230400    8.523910   23.394500
  H    -60.518600    5.295910   24.242600
  C    -59.112200    6.564870   22.100000
  H    -58.591000    5.790910   22.534900
  H    -58.348600    7.273480   21.813500
  C    -59.856900    6.067470   20.795100
  H    -60.356400    5.186910   21.196400
  H    -59.122300    5.677290   20.070600
  C    -60.681800    7.182870   20.139500
  H    -60.132600    8.149460   20.108100
  H    -61.497300    7.422420   20.781100
  H    -60.990700    6.864030   19.098200
  H    -59.332300   12.706700   20.992300
  H    -62.068700    6.563590   25.652500

 Total Charge           Charge          ....    0
 Multiplicity           Mult            ....    1
 Number of Electrons    NEL             ....  134
 Basis Dimension        Dim             ....  322

ORBITAL ENERGIES
----------------

  NO   OCC          E(Eh)            E(eV)
   0   2.0000     -88.967711     -2420.9345
   1   2.0000     -88.963651     -2420.8240
   2   2.0000     -10.325182      -280.9625
   3   2.0000     -10.320303      -280.8297
   4   2.0000     -10.312630      -280.6209
   5   2.0000     -10.312358      -280.6135
   6   2.0000     -10.301032      -280.3053
   7   2.0000     -10.300863      -280.3007
   8   2.0000     -10.293393      -280.0975
   9   2.0000     -10.291123      -280.0357
  10   2.0000     -10.290222      -280.0112
  11   2.0000     -10.289844      -280.0009
  12   2.0000     -10.287710      -279.9428
  13   2.0000     -10.280903      -279.7576
  14   2.0000     -10.279818      -279.7281
  15   2.0000     -10.275257      -279.6040
  16   2.0000      -8.082856      -219.9457
  17   2.0000      -8.078081      -219.8158
  18   2.0000      -6.041196      -164.3893
  19   2.0000      -6.037335      -164.2842
  20   2.0000      -6.036450      -164.2602
  21   2.0000      -6.033730      -164.1861
  22   2.0000      -6.032574      -164.1547
  23   2.0000      -6.029068      -164.0593
  24   2.0000      -1.007574       -27.4175
  25   2.0000      -0.981594       -26.7105
  26   2.0000      -0.908646       -24.7255
  27   2.0000      -0.907372       -24.6908
  28   2.0000      -0.869309       -23.6551
  29   2.0000      -0.848660       -23.0932
  30   2.0000      -0.839674       -22.8487
  31   2.0000      -0.814107       -22.1530
  32   2.0000      -0.787253       -21.4222
  33   2.0000      -0.770368       -20.9628
  34   2.0000      -0.708187       -19.2708
  35   2.0000      -0.698445       -19.0057
  36   2.0000      -0.692865       -18.8538
  37   2.0000      -0.660836       -17.9823
  38   2.0000      -0.646881       -17.6025
  39   2.0000      -0.616636       -16.7795
  40   2.0000      -0.593265       -16.1436
  41   2.0000      -0.567974       -15.4553
  42   2.0000      -0.550544       -14.9811
  43   2.0000      -0.549140       -14.9429
  44   2.0000      -0.539969       -14.6933
  45   2.0000      -0.528080       -14.3698
  46   2.0000      -0.523297       -14.2396
  47   2.0000      -0.508572       -13.8389
  48   2.0000      -0.502239       -13.6666
  49   2.0000      -0.498105       -13.5541
  50   2.0000      -0.492137       -13.3917
  51   2.0000      -0.482795       -13.1375
  52   2.0000      -0.468064       -12.7367
  53   2.0000      -0.461751       -12.5649
  54   2.0000      -0.458100       -12.4655
  55   2.0000      -0.449651       -12.2356
  56   2.0000      -0.439230       -11.9521
  57   2.0000      -0.434389       -11.8203
  58   2.0000      -0.431867       -11.7517
  59   2.0000      -0.429997       -11.7008
  60   2.0000      -0.425885       -11.5889
  61   2.0000      -0.410116       -11.1598
  62   2.0000      -0.404779       -11.0146
  63   2.0000      -0.338173        -9.2022
  64   2.0000      -0.329921        -8.9776
  65   2.0000      -0.326092        -8.8734
  66   2.0000      -0.295586        -8.0433
  67   0.0000       0.035298         0.9605
  68   0.0000       0.060857         1.6560
  69   0.0000       0.111598         3.0367
  70   0.0000       0.119170         3.2428
  71   0.0000       0.129489         3.5236

MULLIKEN ATOMIC CHARGES
-----------------------
   0 S :    0.103804
   1 C :   -0.130108
   2 C :   -0.074948
   3 C :    0.057250
   4 C :   -0.198903
   5 H :    0.008702
   6 C :    0.091142
   7 H :    0.002174
   8 H :    0.051363
   9 C :   -0.102646
  10 H :    0.027248
  11 H :    0.038140
  12 C :   -0.075168
  13 H :    0.044820
  14 H :    0.048783
  15 H :    0.033261
  16 S :    0.134771
  17 C :   -0.075504
  18 C :   -0.054957
  19 C :   -0.019019
  20 C :   -0.191336
  21 H :    0.014997
  22 C :    0.106627
  23 H :   -0.000207
  24 H :    0.009297
  25 C :   -0.067035
  26 H :    0.025001
  27 H :    0.032477
  28 C :   -0.052168
  29 H :    0.037452
  30 H :    0.037180
  31 H :    0.047245
  32 H :    0.046684
  33 H :    0.043580
Sum of atomic charges:    0.0000000

LOEWDIN ATOMIC CHARGES
----------------------
   0 S :    0.396169
   1 C :   -0.190890
   2 C :   -0.062728
   3 C :   -0.060027
   4 C :   -0.191912
   5 H :    0.031054
   6 C :   -0.018833
   7 H :    0.024390
   8 H :    0.033709
   9 C :   -0.047534
  10 H :    0.021237
  11 H :    0.033249
  12 C :   -0.074691
  13 H :    0.035735
  14 H :    0.030794
  15 H :    0.015234
  16 S :    0.426299
  17 C :   -0.190418
  18 C :   -0.070683
  19 C :   -0.047348
  20 C :   -0.213386
  21 H :    0.029664
  22 C :   -0.029339
  23 H :    0.020046
  24 H :    0.026274
  25 C :   -0.033789
  26 H :    0.020775
  27 H :    0.025079
  28 C :   -0.069642
  29 H :    0.028845
  30 H :    0.022293
  31 H :    0.033703
  32 H :    0.022097
  33 H :    0.024577

  Mayer bond orders larger than 0.100000
B(  0-S ,  1-C ) :   1.1399 B(  0-S ,  4-C ) :   1.1530 B(  1-C ,  2-C ) :   1.6116
B(  1-C ,  4-C ) :   0.1010 B(  1-C , 32-H ) :   0.9722 B(  2-C ,  3-C ) :   1.2291
B(  2-C ,  6-C ) :   1.0219 B(  3-C ,  4-C ) :   1.5865 B(  3-C ,  5-H ) :   0.9885
B(  4-C , 20-C ) :   1.0455 B(  6-C ,  7-H ) :   0.9318 B(  6-C ,  8-H ) :   0.9469
B(  6-C ,  9-C ) :   1.0718 B(  9-C , 10-H ) :   0.9633 B(  9-C , 11-H ) :   0.9666
B(  9-C , 12-C ) :   1.0467 B( 12-C , 13-H ) :   0.9704 B( 12-C , 14-H ) :   0.9820
B( 12-C , 15-H ) :   0.9743 B( 16-S , 17-C ) :   1.1586 B( 16-S , 20-C ) :   1.1521
B( 17-C , 18-C ) :   1.6130 B( 17-C , 20-C ) :   0.1006 B( 17-C , 33-H ) :   0.9675
B( 18-C , 19-C ) :   1.2336 B( 18-C , 21-H ) :   0.9902 B( 19-C , 20-C ) :   1.5645
B( 19-C , 22-C ) :   1.0591 B( 22-C , 23-H ) :   0.9258 B( 22-C , 24-H ) :   0.9201
B( 22-C , 25-C ) :   1.0638 B( 25-C , 26-H ) :   0.9597 B( 25-C , 27-H ) :   0.9580
B( 25-C , 28-C ) :   1.0648 B( 28-C , 29-H ) :   0.9725 B( 28-C , 30-H ) :   0.9722
B( 28-C , 31-H ) :   0.9738

Dispersion correction           -0.015701237
FINAL SINGLE POINT ENERGY     -1339.874943962402

DIPOLE MOMENT
-------------
                                X             Y             Z
Electronic contribution:    -19.00348       4.19196       8.12992
Nuclear contribution   :     19.54260      -4.42105      -8.26573
                        -----------------------------------------
Total Dipole Moment    :      0.53912      -0.22908      -0.13581
                        -----------------------------------------
Magnitude (a.u.)       :      0.60131
Magnitude (Debye)      :      1.52842

Rotational constants in cm-1:     0.019129     0.008744     0.008482
Rotational constants in MHz :   573.471813   262.136259   254.278325

                             ****ORCA TERMINATED NORMALLY****
TOTAL RUN TIME: 0 days 0 hours 0 minutes 21 seconds 451 msec
