                         Program Version 4.2.1 -  RELEASE  -
|  1> ! wB97X-D3 SP def2-SVP
|  2> %pal
|  3> nprocs 24
|  4> end
|  5>
|  6> * xyz 0 1
|  7> S 	 46.2061 	 -13.3723 	 -107.567
|  8> C 	 46.7398 	 -13.7888 	 -109.183
|  9> C 	 45.6793 	 -13.8187 	 -110.079
| 10> C 	 44.4485 	 -13.6471 	 -109.346
| 11> C 	 44.5833 	 -13.4792 	 -107.991
| 12> H 	 43.4083 	 -13.5495 	 -109.722
| 13> C 	 45.7045 	 -13.8345 	 -111.571
| 14> H 	 46.6344 	 -13.4237 	 -112.053
| 15> H 	 44.934 	 -13.1317 	 -111.823
| 16> C 	 45.4961 	 -15.2437 	 -112.166
| 17> H 	 46.3254 	 -15.8311 	 -111.784
| 18> H 	 44.6121 	 -15.8051 	 -111.777
| 19> C 	 45.6922 	 -15.284 	 -113.713
| 20> H 	 45.6563 	 -16.2733 	 -113.993
| 21> H 	 44.9542 	 -14.8219 	 -114.451
| 22> H 	 46.7186 	 -14.9764 	 -113.973
| 23> S 	 42.5021 	 -14.8824 	 -106.595
| 24> C 	 41.77 	 -14.1388 	 -105.21
| 25> C 	 42.3701 	 -12.923 	 -104.926
| 26> C 	 43.3219 	 -12.4867 	 -105.885
| 27> C 	 43.5564 	 -13.4585 	 -106.894
| 28> H 	 42.0104 	 -12.4409 	 -104.037
| 29> C 	 43.8864 	 -11.1094 	 -105.845
| 30> H 	 44.3814 	 -11.116 	 -106.814
| 31> H 	 44.7166 	 -11.1539 	 -105.118
| 32> C 	 42.8489 	 -9.92245 	 -105.781
| 33> H 	 43.505 	 -9.00778 	 -105.934
| 34> H 	 42.236 	 -9.73515 	 -104.887
| 35> C 	 41.9855 	 -9.82765 	 -107.051
| 36> H 	 41.2553 	 -9.04824 	 -106.879
| 37> H 	 41.5529 	 -10.7373 	 -107.221
| 38> H 	 42.5741 	 -9.48001 	 -107.86
| 39> H 	 47.757 	 -14.0221 	 -109.429
| 40> H 	 41.1613 	 -14.7384 	 -104.575
| 41> *
| 42>
| 43>                          ****END OF INPUT****

CARTESIAN COORDINATES (ANGSTROEM)
---------------------------------
  S     46.206100  -13.372300  -107.567000
  C     46.739800  -13.788800  -109.183000
  C     45.679300  -13.818700  -110.079000
  C     44.448500  -13.647100  -109.346000
  C     44.583300  -13.479200  -107.991000
  H     43.408300  -13.549500  -109.722000
  C     45.704500  -13.834500  -111.571000
  H     46.634400  -13.423700  -112.053000
  H     44.934000  -13.131700  -111.823000
  C     45.496100  -15.243700  -112.166000
  H     46.325400  -15.831100  -111.784000
  H     44.612100  -15.805100  -111.777000
  C     45.692200  -15.284000  -113.713000
  H     45.656300  -16.273300  -113.993000
  H     44.954200  -14.821900  -114.451000
  H     46.718600  -14.976400  -113.973000
  S     42.502100  -14.882400  -106.595000
  C     41.770000  -14.138800  -105.210000
  C     42.370100  -12.923000  -104.926000
  C     43.321900  -12.486700  -105.885000
  C     43.556400  -13.458500  -106.894000
  H     42.010400  -12.440900  -104.037000
  C     43.886400  -11.109400  -105.845000
  H     44.381400  -11.116000  -106.814000
  H     44.716600  -11.153900  -105.118000
  C     42.848900   -9.922450  -105.781000
  H     43.505000   -9.007780  -105.934000
  H     42.236000   -9.735150  -104.887000
  C     41.985500   -9.827650  -107.051000
  H     41.255300   -9.048240  -106.879000
  H     41.552900  -10.737300  -107.221000
  H     42.574100   -9.480010  -107.860000
  H     47.757000  -14.022100  -109.429000
  H     41.161300  -14.738400  -104.575000

 Total Charge           Charge          ....    0
 Multiplicity           Mult            ....    1
 Number of Electrons    NEL             ....  134
 Basis Dimension        Dim             ....  322

ORBITAL ENERGIES
----------------

  NO   OCC          E(Eh)            E(eV)
   0   2.0000     -88.964549     -2420.8485
   1   2.0000     -88.963764     -2420.8271
   2   2.0000     -10.334252      -281.2093
   3   2.0000     -10.325885      -280.9816
   4   2.0000     -10.314391      -280.6688
   5   2.0000     -10.314005      -280.6583
   6   2.0000     -10.304304      -280.3944
   7   2.0000     -10.303145      -280.3628
   8   2.0000     -10.294413      -280.1252
   9   2.0000     -10.294401      -280.1249
  10   2.0000     -10.294351      -280.1235
  11   2.0000     -10.293443      -280.0988
  12   2.0000     -10.292238      -280.0660
  13   2.0000     -10.290351      -280.0147
  14   2.0000     -10.280348      -279.7425
  15   2.0000     -10.262682      -279.2618
  16   2.0000      -8.080526      -219.8823
  17   2.0000      -8.078046      -219.8148
  18   2.0000      -6.038904      -164.3269
  19   2.0000      -6.036465      -164.2606
  20   2.0000      -6.034780      -164.2147
  21   2.0000      -6.032521      -164.1532
  22   2.0000      -6.031416      -164.1232
  23   2.0000      -6.029022      -164.0580
  24   2.0000      -1.008421       -27.4405
  25   2.0000      -0.983314       -26.7573
  26   2.0000      -0.912917       -24.8417
  27   2.0000      -0.906157       -24.6578
  28   2.0000      -0.865083       -23.5401
  29   2.0000      -0.850279       -23.1373
  30   2.0000      -0.846206       -23.0264
  31   2.0000      -0.812758       -22.1163
  32   2.0000      -0.786126       -21.3916
  33   2.0000      -0.772720       -21.0268
  34   2.0000      -0.705512       -19.1980
  35   2.0000      -0.702017       -19.1029
  36   2.0000      -0.692649       -18.8479
  37   2.0000      -0.656656       -17.8685
  38   2.0000      -0.640626       -17.4323
  39   2.0000      -0.616276       -16.7697
  40   2.0000      -0.594174       -16.1683
  41   2.0000      -0.569426       -15.4949
  42   2.0000      -0.556529       -15.1439
  43   2.0000      -0.555188       -15.1074
  44   2.0000      -0.543990       -14.8027
  45   2.0000      -0.529486       -14.4080
  46   2.0000      -0.520351       -14.1595
  47   2.0000      -0.511395       -13.9158
  48   2.0000      -0.505579       -13.7575
  49   2.0000      -0.496809       -13.5189
  50   2.0000      -0.486159       -13.2290
  51   2.0000      -0.471854       -12.8398
  52   2.0000      -0.467753       -12.7282
  53   2.0000      -0.458797       -12.4845
  54   2.0000      -0.457464       -12.4482
  55   2.0000      -0.448870       -12.2144
  56   2.0000      -0.441593       -12.0164
  57   2.0000      -0.439626       -11.9628
  58   2.0000      -0.433078       -11.7846
  59   2.0000      -0.428359       -11.6562
  60   2.0000      -0.425314       -11.5734
  61   2.0000      -0.415488       -11.3060
  62   2.0000      -0.405978       -11.0472
  63   2.0000      -0.339666        -9.2428
  64   2.0000      -0.330569        -8.9952
  65   2.0000      -0.327030        -8.8989
  66   2.0000      -0.295813        -8.0495
  67   0.0000       0.036248         0.9864
  68   0.0000       0.062801         1.7089
  69   0.0000       0.101736         2.7684
  70   0.0000       0.126317         3.4373
  71   0.0000       0.134597         3.6626

MULLIKEN ATOMIC CHARGES
-----------------------
   0 S :    0.123335
   1 C :   -0.127921
   2 C :   -0.068160
   3 C :    0.006878
   4 C :   -0.187888
   5 H :    0.023431
   6 C :    0.070604
   7 H :    0.028088
   8 H :    0.028843
   9 C :   -0.090218
  10 H :    0.023626
  11 H :    0.042756
  12 C :   -0.034001
  13 H :    0.009944
  14 H :    0.045093
  15 H :    0.026882
  16 S :    0.102141
  17 C :   -0.097121
  18 C :   -0.024244
  19 C :   -0.074265
  20 C :   -0.141019
  21 H :    0.015190
  22 C :    0.095314
  23 H :    0.013251
  24 H :    0.047882
  25 C :   -0.109726
  26 H :    0.034786
  27 H :    0.045917
  28 C :   -0.002125
  29 H :    0.025302
  30 H :    0.027663
  31 H :    0.022305
  32 H :    0.042150
  33 H :    0.055306
Sum of atomic charges:    0.0000000

LOEWDIN ATOMIC CHARGES
----------------------
   0 S :    0.439164
   1 C :   -0.193435
   2 C :   -0.060413
   3 C :   -0.072594
   4 C :   -0.222611
   5 H :    0.037900
   6 C :   -0.034192
   7 H :    0.036052
   8 H :    0.031156
   9 C :   -0.039750
  10 H :    0.027102
  11 H :    0.029810
  12 C :   -0.072257
  13 H :    0.015259
  14 H :    0.033383
  15 H :    0.027163
  16 S :    0.396896
  17 C :   -0.183142
  18 C :   -0.072068
  19 C :   -0.062261
  20 C :   -0.197192
  21 H :    0.030272
  22 C :   -0.040244
  23 H :    0.029865
  24 H :    0.038599
  25 C :   -0.041136
  26 H :    0.034407
  27 H :    0.024253
  28 C :   -0.048189
  29 H :    0.027901
  30 H :    0.011761
  31 H :    0.021882
  32 H :    0.023682
  33 H :    0.022975

  Mayer bond orders larger than 0.100000
B(  0-S ,  1-C ) :   1.1541 B(  0-S ,  4-C ) :   1.1688 B(  1-C ,  2-C ) :   1.5899
B(  1-C , 32-H ) :   0.9756 B(  2-C ,  3-C ) :   1.2308 B(  2-C ,  6-C ) :   1.0200
B(  3-C ,  4-C ) :   1.5936 B(  3-C ,  5-H ) :   0.9898 B(  4-C , 20-C ) :   0.9973
B(  6-C ,  7-H ) :   0.9466 B(  6-C ,  8-H ) :   0.9398 B(  6-C ,  9-C ) :   1.0520
B(  9-C , 10-H ) :   0.9523 B(  9-C , 11-H ) :   0.9607 B(  9-C , 12-C ) :   1.0767
B( 12-C , 13-H ) :   0.9721 B( 12-C , 14-H ) :   0.9763 B( 12-C , 15-H ) :   0.9710
B( 16-S , 17-C ) :   1.1695 B( 16-S , 20-C ) :   1.1476 B( 17-C , 18-C ) :   1.5896
B( 17-C , 20-C ) :   0.1032 B( 17-C , 33-H ) :   0.9691 B( 18-C , 19-C ) :   1.2410
B( 18-C , 21-H ) :   0.9977 B( 19-C , 20-C ) :   1.5582 B( 19-C , 22-C ) :   1.0401
B( 22-C , 23-H ) :   0.9252 B( 22-C , 24-H ) :   0.9288 B( 22-C , 25-C ) :   1.0548
B( 25-C , 26-H ) :   0.9603 B( 25-C , 27-H ) :   0.9655 B( 25-C , 28-C ) :   1.0661
B( 28-C , 29-H ) :   0.9726 B( 28-C , 30-H ) :   0.9802 B( 28-C , 31-H ) :   0.9773

Dispersion correction           -0.014162372
FINAL SINGLE POINT ENERGY     -1339.860432358482

DIPOLE MOMENT
-------------
                                X             Y             Z
Electronic contribution:      1.16270      -9.59956      16.80583
Nuclear contribution   :     -1.14448       9.79772     -17.02939
                        -----------------------------------------
Total Dipole Moment    :      0.01822       0.19816      -0.22356
                        -----------------------------------------
Magnitude (a.u.)       :      0.29930
Magnitude (Debye)      :      0.76076

Rotational constants in cm-1:     0.022358     0.006993     0.006493
Rotational constants in MHz :   670.268714   209.635119   194.667608

                             ****ORCA TERMINATED NORMALLY****
TOTAL RUN TIME: 0 days 0 hours 0 minutes 20 seconds 979 msec
