                         Program Version 4.2.1 -  RELEASE  -
|  1> ! wB97X-D3 SP def2-SVP
|  2> %pal
|  3> nprocs 24
|  4> end
|  5>
|  6> * xyz 0 1
|  7> S 	 -103.169 	 -0.779074 	 -107.699
|  8> C 	 -102.602 	 -2.09998 	 -108.637
|  9> C 	 -102.861 	 -3.29199 	 -108.072
| 10> C 	 -103.675 	 -3.13251 	 -106.957
| 11> C 	 -103.939 	 -1.83643 	 -106.609
| 12> H 	 -104.038 	 -3.91858 	 -106.361
| 13> C 	 -102.252 	 -4.61417 	 -108.564
| 14> H 	 -101.398 	 -4.82141 	 -107.91
| 15> H 	 -101.738 	 -4.3585 	 -109.405
| 16> C 	 -103.088 	 -5.89355 	 -108.837
| 17> H 	 -103.832 	 -6.07335 	 -108.078
| 18> H 	 -103.734 	 -5.78344 	 -109.685
| 19> C 	 -102.21 	 -7.16798 	 -108.92
| 20> H 	 -101.431 	 -7.01313 	 -109.718
| 21> H 	 -101.651 	 -7.28923 	 -107.987
| 22> H 	 -102.765 	 -8.11009 	 -109.158
| 23> S 	 -104.227 	 -0.309664 	 -104.355
| 24> C 	 -105.734 	 -0.337652 	 -103.439
| 25> C 	 -106.525 	 -1.39149 	 -103.82
| 26> C 	 -106.084 	 -2.00303 	 -105.037
| 27> C 	 -104.937 	 -1.3969 	 -105.6
| 28> H 	 -107.322 	 -1.74191 	 -103.18
| 29> C 	 -106.838 	 -3.16852 	 -105.743
| 30> H 	 -106.532 	 -4.1485 	 -105.319
| 31> H 	 -106.354 	 -3.27712 	 -106.778
| 32> C 	 -108.392 	 -3.11794 	 -105.768
| 33> H 	 -108.715 	 -2.04106 	 -105.991
| 34> H 	 -108.776 	 -3.38893 	 -104.768
| 35> C 	 -109.029 	 -3.98322 	 -106.828
| 36> H 	 -108.792 	 -3.57634 	 -107.813
| 37> H 	 -110.12 	 -3.8448 	 -106.821
| 38> H 	 -108.781 	 -4.99603 	 -106.762
| 39> H 	 -102.056 	 -2.06472 	 -109.567
| 40> H 	 -105.794 	 0.237476 	 -102.511
| 41> *
| 42>
| 43>                          ****END OF INPUT****

CARTESIAN COORDINATES (ANGSTROEM)
---------------------------------
  S    -103.169000   -0.779074  -107.699000
  C    -102.602000   -2.099980  -108.637000
  C    -102.861000   -3.291990  -108.072000
  C    -103.675000   -3.132510  -106.957000
  C    -103.939000   -1.836430  -106.609000
  H    -104.038000   -3.918580  -106.361000
  C    -102.252000   -4.614170  -108.564000
  H    -101.398000   -4.821410  -107.910000
  H    -101.738000   -4.358500  -109.405000
  C    -103.088000   -5.893550  -108.837000
  H    -103.832000   -6.073350  -108.078000
  H    -103.734000   -5.783440  -109.685000
  C    -102.210000   -7.167980  -108.920000
  H    -101.431000   -7.013130  -109.718000
  H    -101.651000   -7.289230  -107.987000
  H    -102.765000   -8.110090  -109.158000
  S    -104.227000   -0.309664  -104.355000
  C    -105.734000   -0.337652  -103.439000
  C    -106.525000   -1.391490  -103.820000
  C    -106.084000   -2.003030  -105.037000
  C    -104.937000   -1.396900  -105.600000
  H    -107.322000   -1.741910  -103.180000
  C    -106.838000   -3.168520  -105.743000
  H    -106.532000   -4.148500  -105.319000
  H    -106.354000   -3.277120  -106.778000
  C    -108.392000   -3.117940  -105.768000
  H    -108.715000   -2.041060  -105.991000
  H    -108.776000   -3.388930  -104.768000
  C    -109.029000   -3.983220  -106.828000
  H    -108.792000   -3.576340  -107.813000
  H    -110.120000   -3.844800  -106.821000
  H    -108.781000   -4.996030  -106.762000
  H    -102.056000   -2.064720  -109.567000
  H    -105.794000    0.237476  -102.511000

 Total Charge           Charge          ....    0
 Multiplicity           Mult            ....    1
 Number of Electrons    NEL             ....  134
 Basis Dimension        Dim             ....  322

ORBITAL ENERGIES
----------------

  NO   OCC          E(Eh)            E(eV)
   0   2.0000     -88.966670     -2420.9062
   1   2.0000     -88.959292     -2420.7054
   2   2.0000     -10.332441      -281.1600
   3   2.0000     -10.324124      -280.9337
   4   2.0000     -10.319502      -280.8079
   5   2.0000     -10.312941      -280.6294
   6   2.0000     -10.306020      -280.4411
   7   2.0000     -10.301407      -280.3155
   8   2.0000     -10.296273      -280.1758
   9   2.0000     -10.294066      -280.1158
  10   2.0000     -10.293433      -280.0986
  11   2.0000     -10.290314      -280.0137
  12   2.0000     -10.289396      -279.9887
  13   2.0000     -10.289373      -279.9881
  14   2.0000     -10.282782      -279.8087
  15   2.0000     -10.274204      -279.5753
  16   2.0000      -8.082825      -219.9449
  17   2.0000      -8.073687      -219.6962
  18   2.0000      -6.041153      -164.3881
  19   2.0000      -6.037123      -164.2785
  20   2.0000      -6.033689      -164.1850
  21   2.0000      -6.032163      -164.1435
  22   2.0000      -6.028512      -164.0442
  23   2.0000      -6.024225      -163.9275
  24   2.0000      -1.016148       -27.6508
  25   2.0000      -0.983533       -26.7633
  26   2.0000      -0.910845       -24.7854
  27   2.0000      -0.901549       -24.5324
  28   2.0000      -0.870875       -23.6977
  29   2.0000      -0.854449       -23.2507
  30   2.0000      -0.845253       -23.0005
  31   2.0000      -0.816981       -22.2312
  32   2.0000      -0.783589       -21.3226
  33   2.0000      -0.770910       -20.9775
  34   2.0000      -0.713545       -19.4166
  35   2.0000      -0.697193       -18.9716
  36   2.0000      -0.693773       -18.8785
  37   2.0000      -0.654343       -17.8056
  38   2.0000      -0.643429       -17.5086
  39   2.0000      -0.626622       -17.0513
  40   2.0000      -0.594804       -16.1854
  41   2.0000      -0.572430       -15.5766
  42   2.0000      -0.563319       -15.3287
  43   2.0000      -0.556373       -15.1397
  44   2.0000      -0.531544       -14.4641
  45   2.0000      -0.524552       -14.2738
  46   2.0000      -0.518634       -14.1127
  47   2.0000      -0.501989       -13.6598
  48   2.0000      -0.501633       -13.6501
  49   2.0000      -0.497824       -13.5465
  50   2.0000      -0.490157       -13.3378
  51   2.0000      -0.489152       -13.3105
  52   2.0000      -0.470540       -12.8040
  53   2.0000      -0.466035       -12.6815
  54   2.0000      -0.455546       -12.3960
  55   2.0000      -0.450037       -12.2461
  56   2.0000      -0.445643       -12.1266
  57   2.0000      -0.443768       -12.0755
  58   2.0000      -0.428193       -11.6517
  59   2.0000      -0.426903       -11.6166
  60   2.0000      -0.423758       -11.5310
  61   2.0000      -0.418316       -11.3830
  62   2.0000      -0.411741       -11.2040
  63   2.0000      -0.347387        -9.4529
  64   2.0000      -0.336118        -9.1462
  65   2.0000      -0.324836        -8.8393
  66   2.0000      -0.293563        -7.9883
  67   0.0000       0.027253         0.7416
  68   0.0000       0.071225         1.9381
  69   0.0000       0.101711         2.7677
  70   0.0000       0.127093         3.4584
  71   0.0000       0.137629         3.7451

MULLIKEN ATOMIC CHARGES
-----------------------
   0 S :    0.135117
   1 C :   -0.124439
   2 C :   -0.085418
   3 C :    0.010685
   4 C :   -0.133318
   5 H :   -0.013223
   6 C :    0.122961
   7 H :    0.033320
   8 H :   -0.026832
   9 C :   -0.037592
  10 H :    0.018586
  11 H :    0.023996
  12 C :   -0.090058
  13 H :    0.034326
  14 H :    0.037564
  15 H :    0.049437
  16 S :    0.065402
  17 C :   -0.088557
  18 C :   -0.021681
  19 C :   -0.050944
  20 C :   -0.116439
  21 H :    0.024643
  22 C :    0.005692
  23 H :    0.035189
  24 H :    0.041228
  25 C :   -0.093018
  26 H :    0.044922
  27 H :    0.033747
  28 C :   -0.024272
  29 H :    0.027404
  30 H :    0.032199
  31 H :    0.025811
  32 H :    0.036247
  33 H :    0.067314
Sum of atomic charges:   -0.0000000

LOEWDIN ATOMIC CHARGES
----------------------
   0 S :    0.444188
   1 C :   -0.202015
   2 C :   -0.067634
   3 C :   -0.059909
   4 C :   -0.217762
   5 H :    0.022108
   6 C :   -0.023776
   7 H :    0.038841
   8 H :    0.015675
   9 C :   -0.039946
  10 H :    0.019662
  11 H :    0.022453
  12 C :   -0.069443
  13 H :    0.027239
  14 H :    0.025318
  15 H :    0.032510
  16 S :    0.372587
  17 C :   -0.172527
  18 C :   -0.073682
  19 C :   -0.050760
  20 C :   -0.180466
  21 H :    0.034763
  22 C :   -0.046654
  23 H :    0.030584
  24 H :    0.038572
  25 C :   -0.047834
  26 H :    0.034215
  27 H :    0.022157
  28 C :   -0.061900
  29 H :    0.028112
  30 H :    0.031628
  31 H :    0.015330
  32 H :    0.028013
  33 H :    0.030350

  Mayer bond orders larger than 0.100000
B(  0-S ,  1-C ) :   1.1553 B(  0-S ,  4-C ) :   1.1636 B(  1-C ,  2-C ) :   1.6136
B(  1-C , 32-H ) :   0.9596 B(  2-C ,  3-C ) :   1.2646 B(  2-C ,  6-C ) :   1.0115
B(  3-C ,  4-C ) :   1.5541 B(  3-C ,  5-H ) :   1.0122 B(  4-C , 20-C ) :   0.9941
B(  6-C ,  7-H ) :   0.9385 B(  6-C ,  8-H ) :   0.9206 B(  6-C ,  9-C ) :   1.0431
B(  9-C , 10-H ) :   0.9599 B(  9-C , 11-H ) :   0.9559 B(  9-C , 12-C ) :   1.0723
B( 12-C , 13-H ) :   0.9782 B( 12-C , 14-H ) :   0.9770 B( 12-C , 15-H ) :   0.9743
B( 16-S , 17-C ) :   1.1601 B( 16-S , 20-C ) :   1.1326 B( 17-C , 18-C ) :   1.5976
B( 17-C , 20-C ) :   0.1036 B( 17-C , 33-H ) :   0.9656 B( 18-C , 19-C ) :   1.2420
B( 18-C , 21-H ) :   0.9959 B( 19-C , 20-C ) :   1.6043 B( 19-C , 22-C ) :   1.0296
B( 22-C , 23-H ) :   0.9287 B( 22-C , 24-H ) :   0.9443 B( 22-C , 25-C ) :   1.0470
B( 25-C , 26-H ) :   0.9609 B( 25-C , 27-H ) :   0.9484 B( 25-C , 28-C ) :   1.0972
B( 28-C , 29-H ) :   0.9716 B( 28-C , 30-H ) :   0.9709 B( 28-C , 31-H ) :   0.9755

Dispersion correction           -0.013411381
FINAL SINGLE POINT ENERGY     -1339.867101292090

DIPOLE MOMENT
-------------
                                X             Y             Z
Electronic contribution:     10.29454      28.09361       9.95398
Nuclear contribution   :    -10.49921     -28.89733      -9.99878
                        -----------------------------------------
Total Dipole Moment    :     -0.20467      -0.80372      -0.04479
                        -----------------------------------------
Magnitude (a.u.)       :      0.83058
Magnitude (Debye)      :      2.11118

Rotational constants in cm-1:     0.015874     0.008641     0.006340
Rotational constants in MHz :   475.904801   259.065222   190.078984

                             ****ORCA TERMINATED NORMALLY****
TOTAL RUN TIME: 0 days 0 hours 0 minutes 20 seconds 921 msec
