                         Program Version 4.2.1 -  RELEASE  -
|  1> ! wB97X-D3 SP def2-SVP
|  2> %pal
|  3> nprocs 24
|  4> end
|  5>
|  6> * xyz 0 1
|  7> S 	 -127.435 	 69.2776 	 -62.1655
|  8> C 	 -126.847 	 70.5927 	 -61.1984
|  9> C 	 -127.608 	 71.726 	 -61.2785
| 10> C 	 -128.74 	 71.4715 	 -62.1481
| 11> C 	 -128.68 	 70.2791 	 -62.8081
| 12> H 	 -129.47 	 72.2532 	 -62.3912
| 13> C 	 -127.337 	 73.0694 	 -60.6805
| 14> H 	 -126.313 	 72.9258 	 -60.2987
| 15> H 	 -128.01 	 73.1003 	 -59.7904
| 16> C 	 -127.266 	 74.338 	 -61.5737
| 17> H 	 -128.263 	 74.7969 	 -61.7667
| 18> H 	 -126.751 	 75.0444 	 -60.9323
| 19> C 	 -126.598 	 74.0834 	 -63.0143
| 20> H 	 -127.215 	 73.5573 	 -63.6072
| 21> H 	 -126.399 	 74.9975 	 -63.5748
| 22> H 	 -125.668 	 73.4945 	 -62.8656
| 23> S 	 -130.735 	 68.6411 	 -63.2576
| 24> C 	 -131.448 	 68.3463 	 -64.7909
| 25> C 	 -130.997 	 69.3365 	 -65.6296
| 26> C 	 -129.865 	 70.1109 	 -65.1187
| 27> C 	 -129.599 	 69.7486 	 -63.8192
| 28> H 	 -131.366 	 69.4566 	 -66.6046
| 29> C 	 -129.131 	 71.2019 	 -65.8885
| 30> H 	 -128.78 	 71.8594 	 -65.1254
| 31> H 	 -129.799 	 71.6723 	 -66.5489
| 32> C 	 -127.873 	 70.6099 	 -66.6648
| 33> H 	 -127.63 	 71.3976 	 -67.3323
| 34> H 	 -128.1 	 69.7369 	 -67.2467
| 35> C 	 -126.688 	 70.3366 	 -65.7609
| 36> H 	 -126.316 	 71.208 	 -65.2025
| 37> H 	 -125.917 	 70.021 	 -66.4464
| 38> H 	 -126.911 	 69.5681 	 -65.0468
| 39> H 	 -125.849 	 70.5947 	 -60.8471
| 40> H 	 -132.275 	 67.6844 	 -65.0224
| 41> *
| 42>
| 43>                          ****END OF INPUT****

CARTESIAN COORDINATES (ANGSTROEM)
---------------------------------
  S    -127.435000   69.277600  -62.165500
  C    -126.847000   70.592700  -61.198400
  C    -127.608000   71.726000  -61.278500
  C    -128.740000   71.471500  -62.148100
  C    -128.680000   70.279100  -62.808100
  H    -129.470000   72.253200  -62.391200
  C    -127.337000   73.069400  -60.680500
  H    -126.313000   72.925800  -60.298700
  H    -128.010000   73.100300  -59.790400
  C    -127.266000   74.338000  -61.573700
  H    -128.263000   74.796900  -61.766700
  H    -126.751000   75.044400  -60.932300
  C    -126.598000   74.083400  -63.014300
  H    -127.215000   73.557300  -63.607200
  H    -126.399000   74.997500  -63.574800
  H    -125.668000   73.494500  -62.865600
  S    -130.735000   68.641100  -63.257600
  C    -131.448000   68.346300  -64.790900
  C    -130.997000   69.336500  -65.629600
  C    -129.865000   70.110900  -65.118700
  C    -129.599000   69.748600  -63.819200
  H    -131.366000   69.456600  -66.604600
  C    -129.131000   71.201900  -65.888500
  H    -128.780000   71.859400  -65.125400
  H    -129.799000   71.672300  -66.548900
  C    -127.873000   70.609900  -66.664800
  H    -127.630000   71.397600  -67.332300
  H    -128.100000   69.736900  -67.246700
  C    -126.688000   70.336600  -65.760900
  H    -126.316000   71.208000  -65.202500
  H    -125.917000   70.021000  -66.446400
  H    -126.911000   69.568100  -65.046800
  H    -125.849000   70.594700  -60.847100
  H    -132.275000   67.684400  -65.022400

 Total Charge           Charge          ....    0
 Multiplicity           Mult            ....    1
 Number of Electrons    NEL             ....  134
 Basis Dimension        Dim             ....  322

ORBITAL ENERGIES
----------------

  NO   OCC          E(Eh)            E(eV)
   0   2.0000     -88.964255     -2420.8405
   1   2.0000     -88.957276     -2420.6505
   2   2.0000     -10.325549      -280.9725
   3   2.0000     -10.315637      -280.7027
   4   2.0000     -10.311868      -280.6002
   5   2.0000     -10.307048      -280.4690
   6   2.0000     -10.300751      -280.2977
   7   2.0000     -10.299930      -280.2753
   8   2.0000     -10.299529      -280.2644
   9   2.0000     -10.299305      -280.2583
  10   2.0000     -10.293467      -280.0995
  11   2.0000     -10.288369      -279.9607
  12   2.0000     -10.285478      -279.8821
  13   2.0000     -10.279983      -279.7326
  14   2.0000     -10.279032      -279.7067
  15   2.0000     -10.266092      -279.3546
  16   2.0000      -8.079705      -219.8599
  17   2.0000      -8.074082      -219.7069
  18   2.0000      -6.038129      -164.3058
  19   2.0000      -6.034152      -164.1976
  20   2.0000      -6.032533      -164.1536
  21   2.0000      -6.030454      -164.0970
  22   2.0000      -6.028201      -164.0357
  23   2.0000      -6.024853      -163.9446
  24   2.0000      -1.015306       -27.6279
  25   2.0000      -0.991449       -26.9787
  26   2.0000      -0.910617       -24.7792
  27   2.0000      -0.904876       -24.6229
  28   2.0000      -0.869589       -23.6627
  29   2.0000      -0.846948       -23.0466
  30   2.0000      -0.842594       -22.9282
  31   2.0000      -0.818091       -22.2614
  32   2.0000      -0.787443       -21.4274
  33   2.0000      -0.774146       -21.0656
  34   2.0000      -0.713811       -19.4238
  35   2.0000      -0.699184       -19.0258
  36   2.0000      -0.693195       -18.8628
  37   2.0000      -0.661199       -17.9921
  38   2.0000      -0.640726       -17.4350
  39   2.0000      -0.621071       -16.9002
  40   2.0000      -0.593250       -16.1432
  41   2.0000      -0.564450       -15.3595
  42   2.0000      -0.559359       -15.2209
  43   2.0000      -0.551644       -15.0110
  44   2.0000      -0.543981       -14.8025
  45   2.0000      -0.535621       -14.5750
  46   2.0000      -0.520914       -14.1748
  47   2.0000      -0.509118       -13.8538
  48   2.0000      -0.501524       -13.6472
  49   2.0000      -0.498938       -13.5768
  50   2.0000      -0.497546       -13.5389
  51   2.0000      -0.478727       -13.0268
  52   2.0000      -0.475815       -12.9476
  53   2.0000      -0.464537       -12.6407
  54   2.0000      -0.456587       -12.4244
  55   2.0000      -0.449968       -12.2442
  56   2.0000      -0.442416       -12.0387
  57   2.0000      -0.438544       -11.9334
  58   2.0000      -0.434070       -11.8116
  59   2.0000      -0.425346       -11.5743
  60   2.0000      -0.422026       -11.4839
  61   2.0000      -0.417276       -11.3547
  62   2.0000      -0.410480       -11.1697
  63   2.0000      -0.337832        -9.1929
  64   2.0000      -0.328189        -8.9305
  65   2.0000      -0.320126        -8.7111
  66   2.0000      -0.306550        -8.3417
  67   0.0000       0.047235         1.2853
  68   0.0000       0.063712         1.7337
  69   0.0000       0.115748         3.1497
  70   0.0000       0.124694         3.3931
  71   0.0000       0.127391         3.4665

MULLIKEN ATOMIC CHARGES
-----------------------
   0 S :    0.118984
   1 C :   -0.101874
   2 C :   -0.144283
   3 C :    0.057189
   4 C :   -0.188403
   5 H :    0.017428
   6 C :    0.061035
   7 H :    0.014473
   8 H :    0.059969
   9 C :   -0.083504
  10 H :    0.035211
  11 H :    0.038689
  12 C :   -0.015836
  13 H :    0.008056
  14 H :    0.037955
  15 H :    0.037200
  16 S :    0.116121
  17 C :   -0.081607
  18 C :   -0.030877
  19 C :   -0.067064
  20 C :   -0.167577
  21 H :   -0.005347
  22 C :    0.123308
  23 H :    0.010765
  24 H :    0.009601
  25 C :   -0.055210
  26 H :    0.017119
  27 H :    0.027576
  28 C :   -0.032869
  29 H :    0.029245
  30 H :    0.028559
  31 H :    0.028607
  32 H :    0.036183
  33 H :    0.061178
Sum of atomic charges:    0.0000000

LOEWDIN ATOMIC CHARGES
----------------------
   0 S :    0.427193
   1 C :   -0.199342
   2 C :   -0.065387
   3 C :   -0.060082
   4 C :   -0.205129
   5 H :    0.032813
   6 C :   -0.040511
   7 H :    0.032590
   8 H :    0.045777
   9 C :   -0.037485
  10 H :    0.024272
  11 H :    0.026666
  12 C :   -0.053418
  13 H :    0.005720
  14 H :    0.030539
  15 H :    0.031047
  16 S :    0.445848
  17 C :   -0.200025
  18 C :   -0.068121
  19 C :   -0.055869
  20 C :   -0.232242
  21 H :    0.017778
  22 C :   -0.019766
  23 H :    0.025746
  24 H :    0.022093
  25 C :   -0.027303
  26 H :    0.017068
  27 H :    0.022422
  28 C :   -0.062709
  29 H :    0.025861
  30 H :    0.026837
  31 H :    0.014325
  32 H :    0.018348
  33 H :    0.034446

  Mayer bond orders larger than 0.100000
B(  0-S ,  1-C ) :   1.1391 B(  0-S ,  4-C ) :   1.1619 B(  1-C ,  2-C ) :   1.6477
B(  1-C , 32-H ) :   0.9584 B(  2-C ,  3-C ) :   1.2108 B(  2-C ,  6-C ) :   1.0203
B(  3-C ,  4-C ) :   1.6146 B(  3-C ,  5-H ) :   0.9918 B(  4-C , 20-C ) :   0.9678
B(  6-C ,  7-H ) :   0.9373 B(  6-C ,  8-H ) :   0.9332 B(  6-C ,  9-C ) :   1.0551
B(  9-C , 10-H ) :   0.9559 B(  9-C , 11-H ) :   0.9618 B(  9-C , 12-C ) :   1.0679
B( 12-C , 13-H ) :   0.9729 B( 12-C , 14-H ) :   0.9723 B( 12-C , 15-H ) :   0.9772
B( 16-S , 17-C ) :   1.1579 B( 16-S , 20-C ) :   1.1856 B( 17-C , 18-C ) :   1.5906
B( 17-C , 33-H ) :   0.9716 B( 18-C , 19-C ) :   1.2488 B( 18-C , 21-H ) :   0.9949
B( 19-C , 20-C ) :   1.5949 B( 19-C , 22-C ) :   1.0424 B( 22-C , 23-H ) :   0.9301
B( 22-C , 24-H ) :   0.9299 B( 22-C , 25-C ) :   1.0691 B( 25-C , 26-H ) :   0.9554
B( 25-C , 27-H ) :   0.9584 B( 25-C , 28-C ) :   1.0870 B( 28-C , 29-H ) :   0.9727
B( 28-C , 30-H ) :   0.9691 B( 28-C , 31-H ) :   0.9709

Dispersion correction           -0.016865980
FINAL SINGLE POINT ENERGY     -1339.873292033465

DIPOLE MOMENT
-------------
                                X             Y             Z
Electronic contribution:    -12.60869     -20.58376       8.70576
Nuclear contribution   :     12.71136      21.27963      -8.99279
                        -----------------------------------------
Total Dipole Moment    :      0.10268       0.69587      -0.28703
                        -----------------------------------------
Magnitude (a.u.)       :      0.75971
Magnitude (Debye)      :      1.93104

Rotational constants in cm-1:     0.020184     0.009967     0.008447
Rotational constants in MHz :   605.097977   298.797997   253.246110

                             ****ORCA TERMINATED NORMALLY****
TOTAL RUN TIME: 0 days 0 hours 0 minutes 23 seconds 650 msec
