                         Program Version 4.2.1 -  RELEASE  -
|  1> ! wB97X-D3 SP def2-SVP
|  2> %pal
|  3> nprocs 24
|  4> end
|  5>
|  6> * xyz 0 1
|  7> S 	 -104.327 	 50.4651 	 -96.8119
|  8> C 	 -104.078 	 51.123 	 -95.2274
|  9> C 	 -105.185 	 51.0346 	 -94.4176
| 10> C 	 -106.272 	 50.3497 	 -95.0642
| 11> C 	 -105.876 	 49.8583 	 -96.333
| 12> H 	 -107.241 	 50.229 	 -94.5805
| 13> C 	 -105.256 	 51.5853 	 -92.9036
| 14> H 	 -106.27 	 51.8357 	 -92.7173
| 15> H 	 -104.705 	 52.5092 	 -92.9583
| 16> C 	 -104.685 	 50.5538 	 -91.9123
| 17> H 	 -104.807 	 51.1098 	 -90.9994
| 18> H 	 -105.225 	 49.6345 	 -91.9985
| 19> C 	 -103.139 	 50.3527 	 -92.0183
| 20> H 	 -102.78 	 49.9541 	 -92.9869
| 21> H 	 -102.684 	 51.3264 	 -91.8787
| 22> H 	 -102.746 	 49.6403 	 -91.2261
| 23> S 	 -106.213 	 47.3317 	 -97.2994
| 24> C 	 -107.463 	 46.9641 	 -98.4572
| 25> C 	 -108.053 	 48.1036 	 -98.8991
| 26> C 	 -107.61 	 49.32 	 -98.23
| 27> C 	 -106.683 	 49.0176 	 -97.2161
| 28> H 	 -108.736 	 48.1234 	 -99.7514
| 29> C 	 -108.248 	 50.6741 	 -98.4462
| 30> H 	 -108.059 	 51.3662 	 -97.6344
| 31> H 	 -109.376 	 50.5572 	 -98.4825
| 32> C 	 -107.851 	 51.2143 	 -99.8474
| 33> H 	 -108.647 	 51.0214 	 -100.628
| 34> H 	 -106.89 	 50.8196 	 -100.136
| 35> C 	 -107.756 	 52.7444 	 -99.8461
| 36> H 	 -108.667 	 53.0901 	 -99.5112
| 37> H 	 -107.587 	 53.0163 	 -100.884
| 38> H 	 -107.033 	 53.2543 	 -99.1559
| 39> H 	 -103.173 	 51.5484 	 -94.8542
| 40> H 	 -107.727 	 45.9854 	 -98.7781
| 41> *
| 42>
| 43>                          ****END OF INPUT****

CARTESIAN COORDINATES (ANGSTROEM)
---------------------------------
  S    -104.327000   50.465100  -96.811900
  C    -104.078000   51.123000  -95.227400
  C    -105.185000   51.034600  -94.417600
  C    -106.272000   50.349700  -95.064200
  C    -105.876000   49.858300  -96.333000
  H    -107.241000   50.229000  -94.580500
  C    -105.256000   51.585300  -92.903600
  H    -106.270000   51.835700  -92.717300
  H    -104.705000   52.509200  -92.958300
  C    -104.685000   50.553800  -91.912300
  H    -104.807000   51.109800  -90.999400
  H    -105.225000   49.634500  -91.998500
  C    -103.139000   50.352700  -92.018300
  H    -102.780000   49.954100  -92.986900
  H    -102.684000   51.326400  -91.878700
  H    -102.746000   49.640300  -91.226100
  S    -106.213000   47.331700  -97.299400
  C    -107.463000   46.964100  -98.457200
  C    -108.053000   48.103600  -98.899100
  C    -107.610000   49.320000  -98.230000
  C    -106.683000   49.017600  -97.216100
  H    -108.736000   48.123400  -99.751400
  C    -108.248000   50.674100  -98.446200
  H    -108.059000   51.366200  -97.634400
  H    -109.376000   50.557200  -98.482500
  C    -107.851000   51.214300  -99.847400
  H    -108.647000   51.021400  -100.628000
  H    -106.890000   50.819600  -100.136000
  C    -107.756000   52.744400  -99.846100
  H    -108.667000   53.090100  -99.511200
  H    -107.587000   53.016300  -100.884000
  H    -107.033000   53.254300  -99.155900
  H    -103.173000   51.548400  -94.854200
  H    -107.727000   45.985400  -98.778100

 Total Charge           Charge          ....    0
 Multiplicity           Mult            ....    1
 Number of Electrons    NEL             ....  134
 Basis Dimension        Dim             ....  322

ORBITAL ENERGIES
----------------

  NO   OCC          E(Eh)            E(eV)
   0   2.0000     -88.968680     -2420.9609
   1   2.0000     -88.958835     -2420.6930
   2   2.0000     -10.329036      -281.0674
   3   2.0000     -10.323115      -280.9062
   4   2.0000     -10.312668      -280.6220
   5   2.0000     -10.306658      -280.4584
   6   2.0000     -10.305323      -280.4221
   7   2.0000     -10.298937      -280.2483
   8   2.0000     -10.297844      -280.2186
   9   2.0000     -10.295336      -280.1503
  10   2.0000     -10.293394      -280.0975
  11   2.0000     -10.292582      -280.0754
  12   2.0000     -10.287842      -279.9464
  13   2.0000     -10.286774      -279.9174
  14   2.0000     -10.284047      -279.8431
  15   2.0000     -10.269543      -279.4485
  16   2.0000      -8.083662      -219.9676
  17   2.0000      -8.074058      -219.7063
  18   2.0000      -6.042046      -164.4124
  19   2.0000      -6.038153      -164.3065
  20   2.0000      -6.034529      -164.2079
  21   2.0000      -6.032594      -164.1552
  22   2.0000      -6.028510      -164.0441
  23   2.0000      -6.024738      -163.9415
  24   2.0000      -1.003289       -27.3009
  25   2.0000      -0.981440       -26.7063
  26   2.0000      -0.906403       -24.6645
  27   2.0000      -0.906131       -24.6571
  28   2.0000      -0.865253       -23.5447
  29   2.0000      -0.846119       -23.0241
  30   2.0000      -0.843212       -22.9450
  31   2.0000      -0.808021       -21.9874
  32   2.0000      -0.782931       -21.3046
  33   2.0000      -0.769080       -20.9277
  34   2.0000      -0.703387       -19.1401
  35   2.0000      -0.693411       -18.8687
  36   2.0000      -0.692013       -18.8306
  37   2.0000      -0.654406       -17.8073
  38   2.0000      -0.637329       -17.3426
  39   2.0000      -0.615617       -16.7518
  40   2.0000      -0.597570       -16.2607
  41   2.0000      -0.570164       -15.5149
  42   2.0000      -0.561567       -15.2810
  43   2.0000      -0.553982       -15.0746
  44   2.0000      -0.534722       -14.5505
  45   2.0000      -0.529016       -14.3953
  46   2.0000      -0.520690       -14.1687
  47   2.0000      -0.511343       -13.9143
  48   2.0000      -0.497593       -13.5402
  49   2.0000      -0.490525       -13.3479
  50   2.0000      -0.481681       -13.1072
  51   2.0000      -0.477795       -13.0015
  52   2.0000      -0.469102       -12.7649
  53   2.0000      -0.460486       -12.5305
  54   2.0000      -0.460049       -12.5186
  55   2.0000      -0.451273       -12.2798
  56   2.0000      -0.439504       -11.9595
  57   2.0000      -0.437257       -11.8984
  58   2.0000      -0.436062       -11.8658
  59   2.0000      -0.433225       -11.7887
  60   2.0000      -0.418839       -11.3972
  61   2.0000      -0.411481       -11.1970
  62   2.0000      -0.405445       -11.0327
  63   2.0000      -0.335021        -9.1164
  64   2.0000      -0.325899        -8.8682
  65   2.0000      -0.316975        -8.6253
  66   2.0000      -0.307110        -8.3569
  67   0.0000       0.047057         1.2805
  68   0.0000       0.054209         1.4751
  69   0.0000       0.112719         3.0672
  70   0.0000       0.123113         3.3501
  71   0.0000       0.128291         3.4910

MULLIKEN ATOMIC CHARGES
-----------------------
   0 S :    0.144103
   1 C :   -0.117723
   2 C :   -0.132442
   3 C :    0.044815
   4 C :   -0.179877
   5 H :    0.017666
   6 C :    0.080653
   7 H :    0.016061
   8 H :    0.022065
   9 C :   -0.026346
  10 H :    0.032037
  11 H :    0.039840
  12 C :   -0.094089
  13 H :    0.046391
  14 H :    0.023898
  15 H :    0.048348
  16 S :    0.099519
  17 C :   -0.070204
  18 C :   -0.024704
  19 C :   -0.025266
  20 C :   -0.194386
  21 H :    0.021188
  22 C :    0.062048
  23 H :    0.030685
  24 H :    0.038915
  25 C :   -0.099945
  26 H :    0.040967
  27 H :    0.039410
  28 C :   -0.040213
  29 H :    0.004769
  30 H :    0.031512
  31 H :    0.041736
  32 H :    0.031915
  33 H :    0.046656
Sum of atomic charges:    0.0000000

LOEWDIN ATOMIC CHARGES
----------------------
   0 S :    0.429258
   1 C :   -0.209025
   2 C :   -0.063575
   3 C :   -0.059137
   4 C :   -0.212185
   5 H :    0.033390
   6 C :   -0.016856
   7 H :    0.023258
   8 H :    0.026391
   9 C :   -0.031694
  10 H :    0.026828
  11 H :    0.024601
  12 C :   -0.071770
  13 H :    0.024916
  14 H :    0.020685
  15 H :    0.034611
  16 S :    0.403146
  17 C :   -0.178548
  18 C :   -0.072617
  19 C :   -0.049875
  20 C :   -0.210222
  21 H :    0.031561
  22 C :   -0.035407
  23 H :    0.029147
  24 H :    0.040119
  25 C :   -0.038091
  26 H :    0.032162
  27 H :    0.020353
  28 C :   -0.062381
  29 H :    0.009824
  30 H :    0.025645
  31 H :    0.029610
  32 H :    0.020348
  33 H :    0.025528

  Mayer bond orders larger than 0.100000
B(  0-S ,  1-C ) :   1.1403 B(  0-S ,  4-C ) :   1.1765 B(  1-C ,  2-C ) :   1.6265
B(  1-C , 32-H ) :   0.9627 B(  2-C ,  3-C ) :   1.2685 B(  2-C ,  6-C ) :   0.9935
B(  3-C ,  4-C ) :   1.5485 B(  3-C ,  5-H ) :   0.9940 B(  4-C , 20-C ) :   1.0164
B(  6-C ,  7-H ) :   0.9450 B(  6-C ,  8-H ) :   0.9446 B(  6-C ,  9-C ) :   1.0651
B(  9-C , 10-H ) :   0.9556 B(  9-C , 11-H ) :   0.9584 B(  9-C , 12-C ) :   1.0749
B( 12-C , 13-H ) :   0.9731 B( 12-C , 14-H ) :   0.9758 B( 12-C , 15-H ) :   0.9745
B( 16-S , 17-C ) :   1.1488 B( 16-S , 20-C ) :   1.1452 B( 17-C , 18-C ) :   1.6234
B( 17-C , 33-H ) :   0.9731 B( 18-C , 19-C ) :   1.2236 B( 18-C , 21-H ) :   0.9856
B( 19-C , 20-C ) :   1.5974 B( 19-C , 22-C ) :   1.0604 B( 22-C , 23-H ) :   0.9480
B( 22-C , 24-H ) :   0.9353 B( 22-C , 25-C ) :   1.0288 B( 25-C , 26-H ) :   0.9530
B( 25-C , 27-H ) :   0.9687 B( 25-C , 28-C ) :   1.0843 B( 28-C , 29-H ) :   0.9704
B( 28-C , 30-H ) :   0.9758 B( 28-C , 31-H ) :   0.9774

Dispersion correction           -0.014360166
FINAL SINGLE POINT ENERGY     -1339.873172743576

DIPOLE MOMENT
-------------
                                X             Y             Z
Electronic contribution:      3.28446     -15.19275      -7.31498
Nuclear contribution   :     -3.62306      15.54857       7.48865
                        -----------------------------------------
Total Dipole Moment    :     -0.33860       0.35583       0.17367
                        -----------------------------------------
Magnitude (a.u.)       :      0.52098
Magnitude (Debye)      :      1.32424

Rotational constants in cm-1:     0.021177     0.007903     0.006610
Rotational constants in MHz :   634.877181   236.917073   198.168060

                             ****ORCA TERMINATED NORMALLY****
TOTAL RUN TIME: 0 days 0 hours 0 minutes 21 seconds 264 msec
