                         Program Version 4.2.1 -  RELEASE  -
|  1> ! wB97X-D3 SP def2-SVP
|  2> %pal
|  3> nprocs 24
|  4> end
|  5>
|  6> * xyz 0 1
|  7> S 	 -45.662 	 -3.48336 	 -11.6539
|  8> C 	 -46.9077 	 -3.22075 	 -10.4933
|  9> C 	 -47.6914 	 -2.12231 	 -10.8791
| 10> C 	 -47.342 	 -1.66652 	 -12.183
| 11> C 	 -46.3577 	 -2.40003 	 -12.8267
| 12> H 	 -47.8538 	 -0.87777 	 -12.6806
| 13> C 	 -48.7961 	 -1.52187 	 -10.0985
| 14> H 	 -49.0418 	 -0.509486 	 -10.3811
| 15> H 	 -48.493 	 -1.59865 	 -9.03904
| 16> C 	 -50.0582 	 -2.31842 	 -10.1076
| 17> H 	 -49.8869 	 -3.21672 	 -9.50986
| 18> H 	 -50.6536 	 -1.73464 	 -9.43748
| 19> C 	 -50.6496 	 -2.48669 	 -11.5624
| 20> H 	 -49.9428 	 -2.94989 	 -12.3328
| 21> H 	 -51.5316 	 -3.09383 	 -11.5016
| 22> H 	 -51.0919 	 -1.55347 	 -11.9758
| 23> S 	 -44.0102 	 -2.54437 	 -14.1711
| 24> C 	 -43.8782 	 -2.13205 	 -15.8476
| 25> C 	 -45.0988 	 -1.77025 	 -16.3476
| 26> C 	 -46.1047 	 -1.60675 	 -15.3885
| 27> C 	 -45.7026 	 -2.17562 	 -14.1574
| 28> H 	 -45.2614 	 -1.53698 	 -17.3892
| 29> C 	 -47.5119 	 -1.18662 	 -15.7862
| 30> H 	 -48.0917 	 -1.67066 	 -15.0473
| 31> H 	 -47.6968 	 -1.67438 	 -16.7135
| 32> C 	 -47.7729 	 0.361326 	 -15.8649
| 33> H 	 -47.6579 	 0.753354 	 -14.8563
| 34> H 	 -48.7999 	 0.513705 	 -16.1597
| 35> C 	 -46.6948 	 1.06004 	 -16.7009
| 36> H 	 -46.9306 	 2.14098 	 -16.9856
| 37> H 	 -46.6032 	 0.539019 	 -17.689
| 38> H 	 -45.7288 	 1.00388 	 -16.1991
| 39> H 	 -46.9409 	 -3.78577 	 -9.56643
| 40> H 	 -42.9869 	 -2.40844 	 -16.4268
| 41> *
| 42>
| 43>                          ****END OF INPUT****

CARTESIAN COORDINATES (ANGSTROEM)
---------------------------------
  S    -45.662000   -3.483360  -11.653900
  C    -46.907700   -3.220750  -10.493300
  C    -47.691400   -2.122310  -10.879100
  C    -47.342000   -1.666520  -12.183000
  C    -46.357700   -2.400030  -12.826700
  H    -47.853800   -0.877770  -12.680600
  C    -48.796100   -1.521870  -10.098500
  H    -49.041800   -0.509486  -10.381100
  H    -48.493000   -1.598650   -9.039040
  C    -50.058200   -2.318420  -10.107600
  H    -49.886900   -3.216720   -9.509860
  H    -50.653600   -1.734640   -9.437480
  C    -50.649600   -2.486690  -11.562400
  H    -49.942800   -2.949890  -12.332800
  H    -51.531600   -3.093830  -11.501600
  H    -51.091900   -1.553470  -11.975800
  S    -44.010200   -2.544370  -14.171100
  C    -43.878200   -2.132050  -15.847600
  C    -45.098800   -1.770250  -16.347600
  C    -46.104700   -1.606750  -15.388500
  C    -45.702600   -2.175620  -14.157400
  H    -45.261400   -1.536980  -17.389200
  C    -47.511900   -1.186620  -15.786200
  H    -48.091700   -1.670660  -15.047300
  H    -47.696800   -1.674380  -16.713500
  C    -47.772900    0.361326  -15.864900
  H    -47.657900    0.753354  -14.856300
  H    -48.799900    0.513705  -16.159700
  C    -46.694800    1.060040  -16.700900
  H    -46.930600    2.140980  -16.985600
  H    -46.603200    0.539019  -17.689000
  H    -45.728800    1.003880  -16.199100
  H    -46.940900   -3.785770   -9.566430
  H    -42.986900   -2.408440  -16.426800

 Total Charge           Charge          ....    0
 Multiplicity           Mult            ....    1
 Number of Electrons    NEL             ....  134
 Basis Dimension        Dim             ....  322

ORBITAL ENERGIES
----------------

  NO   OCC          E(Eh)            E(eV)
   0   2.0000     -88.964663     -2420.8515
   1   2.0000     -88.964263     -2420.8407
   2   2.0000     -10.332581      -281.1638
   3   2.0000     -10.332526      -281.1623
   4   2.0000     -10.314964      -280.6844
   5   2.0000     -10.313455      -280.6434
   6   2.0000     -10.301575      -280.3201
   7   2.0000     -10.299610      -280.2666
   8   2.0000     -10.290774      -280.0262
   9   2.0000     -10.290439      -280.0171
  10   2.0000     -10.288810      -279.9728
  11   2.0000     -10.287914      -279.9484
  12   2.0000     -10.286069      -279.8982
  13   2.0000     -10.285335      -279.8782
  14   2.0000     -10.285302      -279.8773
  15   2.0000     -10.285233      -279.8754
  16   2.0000      -8.080038      -219.8690
  17   2.0000      -8.079868      -219.8644
  18   2.0000      -6.038537      -164.3169
  19   2.0000      -6.038250      -164.3091
  20   2.0000      -6.034397      -164.2043
  21   2.0000      -6.034268      -164.2008
  22   2.0000      -6.030834      -164.1073
  23   2.0000      -6.030701      -164.1037
  24   2.0000      -1.010736       -27.5035
  25   2.0000      -0.990112       -26.9423
  26   2.0000      -0.920685       -25.0531
  27   2.0000      -0.909535       -24.7497
  28   2.0000      -0.865566       -23.5533
  29   2.0000      -0.850627       -23.1467
  30   2.0000      -0.841448       -22.8970
  31   2.0000      -0.813878       -22.1468
  32   2.0000      -0.784802       -21.3556
  33   2.0000      -0.773408       -21.0455
  34   2.0000      -0.706105       -19.2141
  35   2.0000      -0.705581       -19.1998
  36   2.0000      -0.689404       -18.7596
  37   2.0000      -0.665630       -18.1127
  38   2.0000      -0.641080       -17.4447
  39   2.0000      -0.616022       -16.7628
  40   2.0000      -0.592354       -16.1188
  41   2.0000      -0.578323       -15.7370
  42   2.0000      -0.561038       -15.2666
  43   2.0000      -0.552148       -15.0247
  44   2.0000      -0.546092       -14.8599
  45   2.0000      -0.534142       -14.5347
  46   2.0000      -0.511077       -13.9071
  47   2.0000      -0.507415       -13.8075
  48   2.0000      -0.500063       -13.6074
  49   2.0000      -0.497973       -13.5505
  50   2.0000      -0.487607       -13.2685
  51   2.0000      -0.484989       -13.1972
  52   2.0000      -0.477025       -12.9805
  53   2.0000      -0.465290       -12.6612
  54   2.0000      -0.461101       -12.5472
  55   2.0000      -0.448401       -12.2016
  56   2.0000      -0.436223       -11.8702
  57   2.0000      -0.434657       -11.8276
  58   2.0000      -0.432966       -11.7816
  59   2.0000      -0.428328       -11.6554
  60   2.0000      -0.424218       -11.5436
  61   2.0000      -0.420632       -11.4460
  62   2.0000      -0.412438       -11.2230
  63   2.0000      -0.355785        -9.6814
  64   2.0000      -0.334695        -9.1075
  65   2.0000      -0.324584        -8.8324
  66   2.0000      -0.283115        -7.7039
  67   0.0000       0.021458         0.5839
  68   0.0000       0.076619         2.0849
  69   0.0000       0.108790         2.9603
  70   0.0000       0.119864         3.2617
  71   0.0000       0.135077         3.6756

MULLIKEN ATOMIC CHARGES
-----------------------
   0 S :    0.098904
   1 C :   -0.127929
   2 C :   -0.081639
   3 C :    0.017885
   4 C :   -0.112798
   5 H :   -0.009797
   6 C :    0.061790
   7 H :    0.021468
   8 H :    0.023595
   9 C :   -0.043959
  10 H :    0.021309
  11 H :    0.016744
  12 C :   -0.076984
  13 H :    0.071422
  14 H :    0.027529
  15 H :    0.029384
  16 S :    0.093614
  17 C :   -0.094137
  18 C :   -0.024568
  19 C :   -0.094891
  20 C :   -0.133275
  21 H :    0.015264
  22 C :    0.077288
  23 H :    0.010234
  24 H :    0.022684
  25 C :   -0.031848
  26 H :    0.029168
  27 H :    0.034982
  28 C :   -0.099103
  29 H :    0.047772
  30 H :    0.027119
  31 H :    0.060163
  32 H :    0.054364
  33 H :    0.068246
Sum of atomic charges:   -0.0000000

LOEWDIN ATOMIC CHARGES
----------------------
   0 S :    0.418956
   1 C :   -0.206340
   2 C :   -0.061467
   3 C :   -0.067003
   4 C :   -0.196302
   5 H :    0.022416
   6 C :   -0.036278
   7 H :    0.027575
   8 H :    0.036661
   9 C :   -0.036091
  10 H :    0.022320
  11 H :    0.022260
  12 C :   -0.077179
  13 H :    0.039986
  14 H :    0.022638
  15 H :    0.028717
  16 S :    0.419520
  17 C :   -0.199680
  18 C :   -0.068967
  19 C :   -0.064481
  20 C :   -0.193293
  21 H :    0.029521
  22 C :   -0.022777
  23 H :    0.024097
  24 H :    0.027069
  25 C :   -0.034292
  26 H :    0.023675
  27 H :    0.023169
  28 C :   -0.074511
  29 H :    0.033687
  30 H :    0.022613
  31 H :    0.030971
  32 H :    0.029165
  33 H :    0.033644

  Mayer bond orders larger than 0.100000
B(  0-S ,  1-C ) :   1.1575 B(  0-S ,  4-C ) :   1.1706 B(  1-C ,  2-C ) :   1.5493
B(  1-C ,  4-C ) :   0.1042 B(  1-C , 32-H ) :   0.9744 B(  2-C ,  3-C ) :   1.2750
B(  2-C ,  6-C ) :   1.0403 B(  3-C ,  4-C ) :   1.5228 B(  3-C ,  5-H ) :   1.0028
B(  4-C , 20-C ) :   1.0346 B(  6-C ,  7-H ) :   0.9432 B(  6-C ,  8-H ) :   0.9311
B(  6-C ,  9-C ) :   1.0879 B(  9-C , 10-H ) :   0.9565 B(  9-C , 11-H ) :   0.9549
B(  9-C , 12-C ) :   1.0580 B( 12-C , 13-H ) :   0.9724 B( 12-C , 14-H ) :   0.9745
B( 12-C , 15-H ) :   0.9728 B( 16-S , 17-C ) :   1.1561 B( 16-S , 20-C ) :   1.1738
B( 17-C , 18-C ) :   1.5863 B( 17-C , 20-C ) :   0.1056 B( 17-C , 33-H ) :   0.9649
B( 18-C , 19-C ) :   1.2712 B( 18-C , 21-H ) :   0.9852 B( 19-C , 20-C ) :   1.5592
B( 19-C , 22-C ) :   1.0212 B( 22-C , 23-H ) :   0.9372 B( 22-C , 24-H ) :   0.9437
B( 22-C , 25-C ) :   1.0610 B( 25-C , 26-H ) :   0.9537 B( 25-C , 27-H ) :   0.9595
B( 25-C , 28-C ) :   1.0781 B( 28-C , 29-H ) :   0.9724 B( 28-C , 30-H ) :   0.9759
B( 28-C , 31-H ) :   0.9658

Dispersion correction           -0.014925477
FINAL SINGLE POINT ENERGY     -1339.876909672657

DIPOLE MOMENT
-------------
                                X             Y             Z
Electronic contribution:     23.49980     -12.74395       3.89675
Nuclear contribution   :    -24.08482      13.02443      -3.95187
                        -----------------------------------------
Total Dipole Moment    :     -0.58502       0.28048      -0.05512
                        -----------------------------------------
Magnitude (a.u.)       :      0.65112
Magnitude (Debye)      :      1.65502

Rotational constants in cm-1:     0.019688     0.009285     0.006746
Rotational constants in MHz :   590.235340   278.359694   202.248457

                             ****ORCA TERMINATED NORMALLY****
TOTAL RUN TIME: 0 days 0 hours 0 minutes 22 seconds 309 msec
