                         Program Version 4.2.1 -  RELEASE  -
|  1> ! wB97X-D3 SP def2-SVP
|  2> %pal
|  3> nprocs 24
|  4> end
|  5>
|  6> * xyz 0 1
|  7> S 	 -62.9683 	 13.0248 	 -106.589
|  8> C 	 -64.4867 	 13.8973 	 -106.52
|  9> C 	 -64.5561 	 14.7062 	 -105.397
| 10> C 	 -63.4119 	 14.4612 	 -104.498
| 11> C 	 -62.4634 	 13.6091 	 -105.051
| 12> H 	 -63.1427 	 15.0699 	 -103.701
| 13> C 	 -65.6616 	 15.6676 	 -105.043
| 14> H 	 -66.1853 	 15.1911 	 -104.26
| 15> H 	 -66.3974 	 15.7452 	 -105.867
| 16> C 	 -65.232 	 17.1364 	 -104.805
| 17> H 	 -64.5927 	 17.1308 	 -103.887
| 18> H 	 -64.5296 	 17.6028 	 -105.575
| 19> C 	 -66.3965 	 18.0733 	 -104.465
| 20> H 	 -66.9555 	 17.8729 	 -103.543
| 21> H 	 -65.9197 	 19.0365 	 -104.373
| 22> H 	 -67.1279 	 18.2344 	 -105.163
| 23> S 	 -60.7724 	 11.8169 	 -103.855
| 24> C 	 -59.1215 	 12.3231 	 -103.44
| 25> C 	 -58.9574 	 13.6526 	 -103.781
| 26> C 	 -60.0634 	 14.2157 	 -104.453
| 27> C 	 -61.1476 	 13.3341 	 -104.606
| 28> H 	 -57.9656 	 14.0664 	 -103.611
| 29> C 	 -60.1271 	 15.6021 	 -105.012
| 30> H 	 -60.9785 	 15.7254 	 -105.767
| 31> H 	 -59.1982 	 15.6242 	 -105.688
| 32> C 	 -60.2259 	 16.727 	 -103.942
| 33> H 	 -59.4494 	 16.5867 	 -103.245
| 34> H 	 -61.1545 	 16.6756 	 -103.247
| 35> C 	 -60.1372 	 18.1228 	 -104.69
| 36> H 	 -59.3853 	 18.1493 	 -105.534
| 37> H 	 -59.8164 	 18.8854 	 -104.006
| 38> H 	 -61.1369 	 18.5025 	 -105.108
| 39> H 	 -65.2123 	 14.045 	 -107.299
| 40> H 	 -58.3358 	 11.8001 	 -102.937
| 41> *
| 42>
| 43>                          ****END OF INPUT****

CARTESIAN COORDINATES (ANGSTROEM)
---------------------------------
  S    -62.968300   13.024800  -106.589000
  C    -64.486700   13.897300  -106.520000
  C    -64.556100   14.706200  -105.397000
  C    -63.411900   14.461200  -104.498000
  C    -62.463400   13.609100  -105.051000
  H    -63.142700   15.069900  -103.701000
  C    -65.661600   15.667600  -105.043000
  H    -66.185300   15.191100  -104.260000
  H    -66.397400   15.745200  -105.867000
  C    -65.232000   17.136400  -104.805000
  H    -64.592700   17.130800  -103.887000
  H    -64.529600   17.602800  -105.575000
  C    -66.396500   18.073300  -104.465000
  H    -66.955500   17.872900  -103.543000
  H    -65.919700   19.036500  -104.373000
  H    -67.127900   18.234400  -105.163000
  S    -60.772400   11.816900  -103.855000
  C    -59.121500   12.323100  -103.440000
  C    -58.957400   13.652600  -103.781000
  C    -60.063400   14.215700  -104.453000
  C    -61.147600   13.334100  -104.606000
  H    -57.965600   14.066400  -103.611000
  C    -60.127100   15.602100  -105.012000
  H    -60.978500   15.725400  -105.767000
  H    -59.198200   15.624200  -105.688000
  C    -60.225900   16.727000  -103.942000
  H    -59.449400   16.586700  -103.245000
  H    -61.154500   16.675600  -103.247000
  C    -60.137200   18.122800  -104.690000
  H    -59.385300   18.149300  -105.534000
  H    -59.816400   18.885400  -104.006000
  H    -61.136900   18.502500  -105.108000
  H    -65.212300   14.045000  -107.299000
  H    -58.335800   11.800100  -102.937000

 Total Charge           Charge          ....    0
 Multiplicity           Mult            ....    1
 Number of Electrons    NEL             ....  134
 Basis Dimension        Dim             ....  322

ORBITAL ENERGIES
----------------

  NO   OCC          E(Eh)            E(eV)
   0   2.0000     -88.964862     -2420.8570
   1   2.0000     -88.964303     -2420.8418
   2   2.0000     -10.324485      -280.9435
   3   2.0000     -10.319878      -280.8182
   4   2.0000     -10.318311      -280.7755
   5   2.0000     -10.311891      -280.6008
   6   2.0000     -10.303921      -280.3840
   7   2.0000     -10.300962      -280.3034
   8   2.0000     -10.300366      -280.2872
   9   2.0000     -10.298772      -280.2438
  10   2.0000     -10.298472      -280.2357
  11   2.0000     -10.293383      -280.0972
  12   2.0000     -10.292626      -280.0766
  13   2.0000     -10.292175      -280.0643
  14   2.0000     -10.289912      -280.0027
  15   2.0000     -10.273422      -279.5540
  16   2.0000      -8.079463      -219.8534
  17   2.0000      -8.079258      -219.8478
  18   2.0000      -6.037968      -164.3015
  19   2.0000      -6.037738      -164.2952
  20   2.0000      -6.033824      -164.1887
  21   2.0000      -6.033659      -164.1842
  22   2.0000      -6.030266      -164.0919
  23   2.0000      -6.030204      -164.0902
  24   2.0000      -1.008072       -27.4310
  25   2.0000      -0.981600       -26.7107
  26   2.0000      -0.911877       -24.8134
  27   2.0000      -0.900440       -24.5022
  28   2.0000      -0.874729       -23.8026
  29   2.0000      -0.847961       -23.0742
  30   2.0000      -0.843422       -22.9507
  31   2.0000      -0.816510       -22.2184
  32   2.0000      -0.784903       -21.3583
  33   2.0000      -0.764065       -20.7913
  34   2.0000      -0.714034       -19.4298
  35   2.0000      -0.702072       -19.1044
  36   2.0000      -0.697582       -18.9822
  37   2.0000      -0.656781       -17.8719
  38   2.0000      -0.643405       -17.5080
  39   2.0000      -0.619174       -16.8486
  40   2.0000      -0.592043       -16.1103
  41   2.0000      -0.571386       -15.5482
  42   2.0000      -0.560625       -15.2554
  43   2.0000      -0.547593       -14.9008
  44   2.0000      -0.533786       -14.5251
  45   2.0000      -0.522853       -14.2276
  46   2.0000      -0.515836       -14.0366
  47   2.0000      -0.510099       -13.8805
  48   2.0000      -0.508395       -13.8341
  49   2.0000      -0.500339       -13.6149
  50   2.0000      -0.494607       -13.4589
  51   2.0000      -0.474564       -12.9136
  52   2.0000      -0.471803       -12.8384
  53   2.0000      -0.464652       -12.6438
  54   2.0000      -0.456183       -12.4134
  55   2.0000      -0.448885       -12.2148
  56   2.0000      -0.445408       -12.1202
  57   2.0000      -0.442214       -12.0333
  58   2.0000      -0.440816       -11.9952
  59   2.0000      -0.423863       -11.5339
  60   2.0000      -0.423178       -11.5153
  61   2.0000      -0.407594       -11.0912
  62   2.0000      -0.402195       -10.9443
  63   2.0000      -0.338350        -9.2070
  64   2.0000      -0.327790        -8.9196
  65   2.0000      -0.322414        -8.7733
  66   2.0000      -0.304438        -8.2842
  67   0.0000       0.039843         1.0842
  68   0.0000       0.058639         1.5957
  69   0.0000       0.117099         3.1864
  70   0.0000       0.120566         3.2808
  71   0.0000       0.127035         3.4568

MULLIKEN ATOMIC CHARGES
-----------------------
   0 S :    0.119557
   1 C :   -0.092939
   2 C :   -0.128128
   3 C :    0.093196
   4 C :   -0.189339
   5 H :   -0.016214
   6 C :    0.085804
   7 H :    0.036390
   8 H :    0.013100
   9 C :   -0.127140
  10 H :    0.030519
  11 H :    0.050949
  12 C :   -0.011299
  13 H :    0.032263
  14 H :    0.023739
  15 H :    0.010529
  16 S :    0.116009
  17 C :   -0.088912
  18 C :   -0.048885
  19 C :    0.004982
  20 C :   -0.158965
  21 H :    0.021613
  22 C :   -0.004637
  23 H :    0.048792
  24 H :    0.047092
  25 C :   -0.060022
  26 H :    0.017026
  27 H :    0.044811
  28 C :   -0.077267
  29 H :    0.040809
  30 H :    0.029423
  31 H :    0.047844
  32 H :    0.039650
  33 H :    0.049648
Sum of atomic charges:   -0.0000000

LOEWDIN ATOMIC CHARGES
----------------------
   0 S :    0.421333
   1 C :   -0.202627
   2 C :   -0.055038
   3 C :   -0.050454
   4 C :   -0.205036
   5 H :    0.016479
   6 C :   -0.035273
   7 H :    0.032169
   8 H :    0.029453
   9 C :   -0.044590
  10 H :    0.025096
  11 H :    0.036399
  12 C :   -0.063462
  13 H :    0.029611
  14 H :    0.030537
  15 H :    0.010304
  16 S :    0.411586
  17 C :   -0.176987
  18 C :   -0.076044
  19 C :   -0.058526
  20 C :   -0.220508
  21 H :    0.033951
  22 C :   -0.044786
  23 H :    0.038405
  24 H :    0.041922
  25 C :   -0.038973
  26 H :    0.014040
  27 H :    0.035572
  28 C :   -0.075997
  29 H :    0.030729
  30 H :    0.020228
  31 H :    0.033576
  32 H :    0.027157
  33 H :    0.029753

  Mayer bond orders larger than 0.100000
B(  0-S ,  1-C ) :   1.1274 B(  0-S ,  4-C ) :   1.1649 B(  1-C ,  2-C ) :   1.6428
B(  1-C , 32-H ) :   0.9640 B(  2-C ,  3-C ) :   1.2123 B(  2-C ,  6-C ) :   1.0295
B(  3-C ,  4-C ) :   1.5920 B(  3-C ,  5-H ) :   0.9994 B(  4-C , 20-C ) :   1.0196
B(  6-C ,  7-H ) :   0.9382 B(  6-C ,  8-H ) :   0.9438 B(  6-C ,  9-C ) :   1.0482
B(  9-C , 10-H ) :   0.9535 B(  9-C , 11-H ) :   0.9597 B(  9-C , 12-C ) :   1.0831
B( 12-C , 13-H ) :   0.9733 B( 12-C , 14-H ) :   0.9708 B( 12-C , 15-H ) :   0.9755
B( 16-S , 17-C ) :   1.1598 B( 16-S , 20-C ) :   1.1487 B( 17-C , 18-C ) :   1.6032
B( 17-C , 20-C ) :   0.1068 B( 17-C , 33-H ) :   0.9687 B( 18-C , 19-C ) :   1.2530
B( 18-C , 21-H ) :   0.9895 B( 19-C , 20-C ) :   1.5678 B( 19-C , 22-C ) :   1.0394
B( 22-C , 23-H ) :   0.9380 B( 22-C , 24-H ) :   0.9398 B( 22-C , 25-C ) :   1.0459
B( 25-C , 26-H ) :   0.9605 B( 25-C , 27-H ) :   0.9530 B( 25-C , 28-C ) :   1.0627
B( 28-C , 29-H ) :   0.9765 B( 28-C , 30-H ) :   0.9763 B( 28-C , 31-H ) :   0.9773

Dispersion correction           -0.014848199
FINAL SINGLE POINT ENERGY     -1339.865059697000

DIPOLE MOMENT
-------------
                                X             Y             Z
Electronic contribution:      7.38144     -31.76079      -3.58579
Nuclear contribution   :     -7.34265      32.61224       3.75852
                        -----------------------------------------
Total Dipole Moment    :      0.03879       0.85145       0.17273
                        -----------------------------------------
Magnitude (a.u.)       :      0.86966
Magnitude (Debye)      :      2.21049

Rotational constants in cm-1:     0.017791     0.009261     0.006918
Rotational constants in MHz :   533.367327   277.631787   207.408401

                             ****ORCA TERMINATED NORMALLY****
TOTAL RUN TIME: 0 days 0 hours 0 minutes 22 seconds 54 msec
