                         Program Version 4.2.1 -  RELEASE  -
|  1> ! wB97X-D3 SP def2-SVP
|  2> %pal
|  3> nprocs 24
|  4> end
|  5>
|  6> * xyz 0 1
|  7> S 	 -35.0958 	 -47.9555 	 -76.6691
|  8> C 	 -33.515 	 -48.6544 	 -76.6605
|  9> C 	 -32.7708 	 -48.1618 	 -75.6241
| 10> C 	 -33.3688 	 -47.0203 	 -75.0173
| 11> C 	 -34.5983 	 -46.6691 	 -75.5235
| 12> H 	 -32.9647 	 -46.3773 	 -74.2067
| 13> C 	 -31.2865 	 -48.4901 	 -75.4069
| 14> H 	 -31.1138 	 -49.5481 	 -75.5421
| 15> H 	 -30.928 	 -48.3039 	 -74.4124
| 16> C 	 -30.2369 	 -47.9709 	 -76.4969
| 17> H 	 -29.3656 	 -48.6143 	 -76.5742
| 18> H 	 -30.6444 	 -48.1069 	 -77.4728
| 19> C 	 -29.763 	 -46.4751 	 -76.3043
| 20> H 	 -30.5035 	 -45.7385 	 -76.6632
| 21> H 	 -29.5655 	 -46.3226 	 -75.246
| 22> H 	 -28.8384 	 -46.3737 	 -76.8012
| 23> S 	 -37.1074 	 -46.3475 	 -74.4342
| 24> C 	 -37.5324 	 -44.7464 	 -73.8448
| 25> C 	 -36.6123 	 -43.7837 	 -74.1734
| 26> C 	 -35.4084 	 -44.355 	 -74.6852
| 27> C 	 -35.5445 	 -45.6965 	 -75.0294
| 28> H 	 -36.9156 	 -42.7734 	 -73.9326
| 29> C 	 -34.1748 	 -43.5417 	 -74.9647
| 30> H 	 -33.4128 	 -43.9615 	 -74.3307
| 31> H 	 -34.1303 	 -42.5742 	 -74.3883
| 32> C 	 -33.7427 	 -43.4553 	 -76.4317
| 33> H 	 -34.5719 	 -42.8488 	 -76.8438
| 34> H 	 -33.7406 	 -44.4632 	 -76.9269
| 35> C 	 -32.402 	 -42.7142 	 -76.7397
| 36> H 	 -32.3525 	 -41.6711 	 -76.2775
| 37> H 	 -32.1709 	 -42.7008 	 -77.8008
| 38> H 	 -31.5577 	 -43.319 	 -76.3638
| 39> H 	 -33.2081 	 -49.4415 	 -77.2971
| 40> H 	 -38.4459 	 -44.5418 	 -73.4164
| 41> *
| 42>
| 43>                          ****END OF INPUT****

CARTESIAN COORDINATES (ANGSTROEM)
---------------------------------
  S    -35.095800  -47.955500  -76.669100
  C    -33.515000  -48.654400  -76.660500
  C    -32.770800  -48.161800  -75.624100
  C    -33.368800  -47.020300  -75.017300
  C    -34.598300  -46.669100  -75.523500
  H    -32.964700  -46.377300  -74.206700
  C    -31.286500  -48.490100  -75.406900
  H    -31.113800  -49.548100  -75.542100
  H    -30.928000  -48.303900  -74.412400
  C    -30.236900  -47.970900  -76.496900
  H    -29.365600  -48.614300  -76.574200
  H    -30.644400  -48.106900  -77.472800
  C    -29.763000  -46.475100  -76.304300
  H    -30.503500  -45.738500  -76.663200
  H    -29.565500  -46.322600  -75.246000
  H    -28.838400  -46.373700  -76.801200
  S    -37.107400  -46.347500  -74.434200
  C    -37.532400  -44.746400  -73.844800
  C    -36.612300  -43.783700  -74.173400
  C    -35.408400  -44.355000  -74.685200
  C    -35.544500  -45.696500  -75.029400
  H    -36.915600  -42.773400  -73.932600
  C    -34.174800  -43.541700  -74.964700
  H    -33.412800  -43.961500  -74.330700
  H    -34.130300  -42.574200  -74.388300
  C    -33.742700  -43.455300  -76.431700
  H    -34.571900  -42.848800  -76.843800
  H    -33.740600  -44.463200  -76.926900
  C    -32.402000  -42.714200  -76.739700
  H    -32.352500  -41.671100  -76.277500
  H    -32.170900  -42.700800  -77.800800
  H    -31.557700  -43.319000  -76.363800
  H    -33.208100  -49.441500  -77.297100
  H    -38.445900  -44.541800  -73.416400

 Total Charge           Charge          ....    0
 Multiplicity           Mult            ....    1
 Number of Electrons    NEL             ....  134
 Basis Dimension        Dim             ....  322

ORBITAL ENERGIES
----------------

  NO   OCC          E(Eh)            E(eV)
   0   2.0000     -88.964987     -2420.8604
   1   2.0000     -88.964743     -2420.8537
   2   2.0000     -10.330580      -281.1094
   3   2.0000     -10.328850      -281.0623
   4   2.0000     -10.312803      -280.6256
   5   2.0000     -10.311100      -280.5793
   6   2.0000     -10.307558      -280.4829
   7   2.0000     -10.302518      -280.3458
   8   2.0000     -10.297065      -280.1974
   9   2.0000     -10.294245      -280.1207
  10   2.0000     -10.293652      -280.1045
  11   2.0000     -10.291821      -280.0547
  12   2.0000     -10.291249      -280.0391
  13   2.0000     -10.289882      -280.0019
  14   2.0000     -10.285549      -279.8840
  15   2.0000     -10.276315      -279.6328
  16   2.0000      -8.079446      -219.8529
  17   2.0000      -8.079080      -219.8429
  18   2.0000      -6.037927      -164.3003
  19   2.0000      -6.037593      -164.2912
  20   2.0000      -6.034069      -164.1954
  21   2.0000      -6.033778      -164.1875
  22   2.0000      -6.030108      -164.0876
  23   2.0000      -6.029766      -164.0783
  24   2.0000      -1.006254       -27.3816
  25   2.0000      -0.983908       -26.7735
  26   2.0000      -0.904350       -24.6086
  27   2.0000      -0.900367       -24.5002
  28   2.0000      -0.870859       -23.6973
  29   2.0000      -0.847927       -23.0733
  30   2.0000      -0.842329       -22.9209
  31   2.0000      -0.817182       -22.2366
  32   2.0000      -0.783268       -21.3138
  33   2.0000      -0.772411       -21.0184
  34   2.0000      -0.710717       -19.3396
  35   2.0000      -0.705156       -19.1883
  36   2.0000      -0.693000       -18.8575
  37   2.0000      -0.664027       -18.0691
  38   2.0000      -0.645710       -17.5707
  39   2.0000      -0.614937       -16.7333
  40   2.0000      -0.596368       -16.2280
  41   2.0000      -0.571781       -15.5590
  42   2.0000      -0.558189       -15.1891
  43   2.0000      -0.542413       -14.7598
  44   2.0000      -0.536195       -14.5906
  45   2.0000      -0.522870       -14.2280
  46   2.0000      -0.512636       -13.9495
  47   2.0000      -0.509138       -13.8544
  48   2.0000      -0.503495       -13.7008
  49   2.0000      -0.502499       -13.6737
  50   2.0000      -0.494377       -13.4527
  51   2.0000      -0.477896       -13.0042
  52   2.0000      -0.475875       -12.9492
  53   2.0000      -0.469225       -12.7683
  54   2.0000      -0.454566       -12.3694
  55   2.0000      -0.443408       -12.0658
  56   2.0000      -0.439619       -11.9626
  57   2.0000      -0.436846       -11.8872
  58   2.0000      -0.432615       -11.7721
  59   2.0000      -0.425328       -11.5738
  60   2.0000      -0.421655       -11.4738
  61   2.0000      -0.415447       -11.3049
  62   2.0000      -0.404555       -11.0085
  63   2.0000      -0.351637        -9.5685
  64   2.0000      -0.331804        -9.0288
  65   2.0000      -0.327743        -8.9183
  66   2.0000      -0.289800        -7.8859
  67   0.0000       0.027309         0.7431
  68   0.0000       0.057913         1.5759
  69   0.0000       0.110984         3.0200
  70   0.0000       0.122989         3.3467
  71   0.0000       0.124920         3.3992

MULLIKEN ATOMIC CHARGES
-----------------------
   0 S :    0.097107
   1 C :   -0.104284
   2 C :   -0.040261
   3 C :    0.023045
   4 C :   -0.173573
   5 H :    0.028348
   6 C :    0.054426
   7 H :    0.016977
   8 H :    0.020721
   9 C :   -0.079674
  10 H :    0.023345
  11 H :    0.012496
  12 C :   -0.043476
  13 H :    0.053203
  14 H :    0.021950
  15 H :    0.024119
  16 S :    0.096699
  17 C :   -0.070406
  18 C :   -0.023968
  19 C :   -0.035945
  20 C :   -0.133796
  21 H :    0.020317
  22 C :    0.070706
  23 H :    0.002792
  24 H :    0.013526
  25 C :   -0.084873
  26 H :    0.036341
  27 H :    0.061272
  28 C :   -0.066907
  29 H :    0.045545
  30 H :    0.038129
  31 H :    0.029499
  32 H :    0.040111
  33 H :    0.026488
Sum of atomic charges:   -0.0000000

LOEWDIN ATOMIC CHARGES
----------------------
   0 S :    0.392202
   1 C :   -0.183308
   2 C :   -0.068849
   3 C :   -0.059749
   4 C :   -0.185940
   5 H :    0.038590
   6 C :   -0.030570
   7 H :    0.030645
   8 H :    0.024473
   9 C :   -0.033704
  10 H :    0.022345
  11 H :    0.017352
  12 C :   -0.064635
  13 H :    0.029231
  14 H :    0.022177
  15 H :    0.019968
  16 S :    0.383286
  17 C :   -0.163275
  18 C :   -0.067484
  19 C :   -0.050614
  20 C :   -0.184978
  21 H :    0.035914
  22 C :   -0.049069
  23 H :    0.024869
  24 H :    0.037006
  25 C :   -0.043782
  26 H :    0.028488
  27 H :    0.035591
  28 C :   -0.075195
  29 H :    0.033060
  30 H :    0.027775
  31 H :    0.024086
  32 H :    0.023473
  33 H :    0.010621

  Mayer bond orders larger than 0.100000
B(  0-S ,  1-C ) :   1.1472 B(  0-S ,  4-C ) :   1.1249 B(  1-C ,  2-C ) :   1.5976
B(  1-C ,  4-C ) :   0.1013 B(  1-C , 32-H ) :   0.9761 B(  2-C ,  3-C ) :   1.2287
B(  2-C ,  6-C ) :   1.0423 B(  3-C ,  4-C ) :   1.5873 B(  3-C ,  5-H ) :   0.9880
B(  4-C , 20-C ) :   1.0588 B(  6-C ,  7-H ) :   0.9360 B(  6-C ,  8-H ) :   0.9513
B(  6-C ,  9-C ) :   1.0583 B(  9-C , 10-H ) :   0.9621 B(  9-C , 11-H ) :   0.9540
B(  9-C , 12-C ) :   1.0716 B( 12-C , 13-H ) :   0.9769 B( 12-C , 14-H ) :   0.9791
B( 12-C , 15-H ) :   0.9746 B( 16-S , 17-C ) :   1.1505 B( 16-S , 20-C ) :   1.1242
B( 17-C , 18-C ) :   1.6368 B( 17-C , 20-C ) :   0.1017 B( 17-C , 33-H ) :   0.9724
B( 18-C , 19-C ) :   1.2058 B( 18-C , 21-H ) :   0.9948 B( 19-C , 20-C ) :   1.6110
B( 19-C , 22-C ) :   1.0504 B( 22-C , 23-H ) :   0.9156 B( 22-C , 24-H ) :   0.9277
B( 22-C , 25-C ) :   1.0439 B( 25-C , 26-H ) :   0.9563 B( 25-C , 27-H ) :   0.9528
B( 25-C , 28-C ) :   1.0820 B( 28-C , 29-H ) :   0.9723 B( 28-C , 30-H ) :   0.9743
B( 28-C , 31-H ) :   0.9720

Dispersion correction           -0.015273952
FINAL SINGLE POINT ENERGY     -1339.865657018388

DIPOLE MOMENT
-------------
                                X             Y             Z
Electronic contribution:    -28.50714     -11.92331       4.75249
Nuclear contribution   :     29.10434      12.18233      -4.63756
                        -----------------------------------------
Total Dipole Moment    :      0.59721       0.25902       0.11492
                        -----------------------------------------
Magnitude (a.u.)       :      0.66103
Magnitude (Debye)      :      1.68020

Rotational constants in cm-1:     0.018475     0.009892     0.007204
Rotational constants in MHz :   553.864446   296.556698   215.957554

                             ****ORCA TERMINATED NORMALLY****
TOTAL RUN TIME: 0 days 0 hours 0 minutes 22 seconds 495 msec
