                         Program Version 4.2.1 -  RELEASE  -
|  1> ! wB97X-D3 SP def2-SVP
|  2> %pal
|  3> nprocs 24
|  4> end
|  5>
|  6> * xyz 0 1
|  7> S 	 -89.7739 	 -5.80917 	 -112.013
|  8> C 	 -88.5139 	 -6.19149 	 -113.131
|  9> C 	 -89.0034 	 -6.15931 	 -114.427
| 10> C 	 -90.4634 	 -6.02883 	 -114.436
| 11> C 	 -91.0222 	 -5.66613 	 -113.229
| 12> H 	 -91.0649 	 -6.1122 	 -115.365
| 13> C 	 -88.0944 	 -6.54661 	 -115.65
| 14> H 	 -87.9983 	 -7.59962 	 -115.588
| 15> H 	 -87.1666 	 -5.97507 	 -115.571
| 16> C 	 -88.7556 	 -6.27013 	 -117.015
| 17> H 	 -89.6306 	 -6.882 	 -116.993
| 18> H 	 -89.0286 	 -5.25025 	 -117.078
| 19> C 	 -87.8598 	 -6.63527 	 -118.17
| 20> H 	 -88.5429 	 -6.5548 	 -119.017
| 21> H 	 -87.1182 	 -5.87054 	 -118.209
| 22> H 	 -87.3994 	 -7.62314 	 -118.096
| 23> S 	 -93.0349 	 -6.6068 	 -111.582
| 24> C 	 -94.6333 	 -6.0897 	 -111.86
| 25> C 	 -94.7173 	 -5.13528 	 -112.846
| 26> C 	 -93.4254 	 -4.83347 	 -113.453
| 27> C 	 -92.4167 	 -5.58948 	 -112.887
| 28> H 	 -95.6413 	 -4.67238 	 -113.091
| 29> C 	 -93.3637 	 -3.80375 	 -114.568
| 30> H 	 -92.3552 	 -3.45643 	 -114.607
| 31> H 	 -93.9521 	 -3.0199 	 -114.304
| 32> C 	 -93.7378 	 -4.22488 	 -116.022
| 33> H 	 -92.9451 	 -4.97635 	 -116.337
| 34> H 	 -93.5364 	 -3.34905 	 -116.591
| 35> C 	 -95.1238 	 -4.84049 	 -116.185
| 36> H 	 -95.9502 	 -4.15793 	 -115.894
| 37> H 	 -95.2696 	 -5.70367 	 -115.625
| 38> H 	 -95.139 	 -5.10118 	 -117.242
| 39> H 	 -87.4884 	 -6.28291 	 -112.853
| 40> H 	 -95.4989 	 -6.50963 	 -111.317
| 41> *
| 42>
| 43>                          ****END OF INPUT****

CARTESIAN COORDINATES (ANGSTROEM)
---------------------------------
  S    -89.773900   -5.809170  -112.013000
  C    -88.513900   -6.191490  -113.131000
  C    -89.003400   -6.159310  -114.427000
  C    -90.463400   -6.028830  -114.436000
  C    -91.022200   -5.666130  -113.229000
  H    -91.064900   -6.112200  -115.365000
  C    -88.094400   -6.546610  -115.650000
  H    -87.998300   -7.599620  -115.588000
  H    -87.166600   -5.975070  -115.571000
  C    -88.755600   -6.270130  -117.015000
  H    -89.630600   -6.882000  -116.993000
  H    -89.028600   -5.250250  -117.078000
  C    -87.859800   -6.635270  -118.170000
  H    -88.542900   -6.554800  -119.017000
  H    -87.118200   -5.870540  -118.209000
  H    -87.399400   -7.623140  -118.096000
  S    -93.034900   -6.606800  -111.582000
  C    -94.633300   -6.089700  -111.860000
  C    -94.717300   -5.135280  -112.846000
  C    -93.425400   -4.833470  -113.453000
  C    -92.416700   -5.589480  -112.887000
  H    -95.641300   -4.672380  -113.091000
  C    -93.363700   -3.803750  -114.568000
  H    -92.355200   -3.456430  -114.607000
  H    -93.952100   -3.019900  -114.304000
  C    -93.737800   -4.224880  -116.022000
  H    -92.945100   -4.976350  -116.337000
  H    -93.536400   -3.349050  -116.591000
  C    -95.123800   -4.840490  -116.185000
  H    -95.950200   -4.157930  -115.894000
  H    -95.269600   -5.703670  -115.625000
  H    -95.139000   -5.101180  -117.242000
  H    -87.488400   -6.282910  -112.853000
  H    -95.498900   -6.509630  -111.317000

 Total Charge           Charge          ....    0
 Multiplicity           Mult            ....    1
 Number of Electrons    NEL             ....  134
 Basis Dimension        Dim             ....  322

ORBITAL ENERGIES
----------------

  NO   OCC          E(Eh)            E(eV)
   0   2.0000     -88.963824     -2420.8287
   1   2.0000     -88.960934     -2420.7501
   2   2.0000     -10.326875      -281.0086
   3   2.0000     -10.324929      -280.9556
   4   2.0000     -10.315222      -280.6915
   5   2.0000     -10.310238      -280.5558
   6   2.0000     -10.304284      -280.3938
   7   2.0000     -10.303519      -280.3730
   8   2.0000     -10.299088      -280.2524
   9   2.0000     -10.291217      -280.0383
  10   2.0000     -10.290390      -280.0157
  11   2.0000     -10.290089      -280.0076
  12   2.0000     -10.279638      -279.7232
  13   2.0000     -10.277594      -279.6676
  14   2.0000     -10.275938      -279.6225
  15   2.0000     -10.274823      -279.5921
  16   2.0000      -8.079324      -219.8496
  17   2.0000      -8.076266      -219.7664
  18   2.0000      -6.037846      -164.2982
  19   2.0000      -6.034864      -164.2170
  20   2.0000      -6.033691      -164.1851
  21   2.0000      -6.030503      -164.0983
  22   2.0000      -6.030052      -164.0861
  23   2.0000      -6.027084      -164.0053
  24   2.0000      -1.007320       -27.4106
  25   2.0000      -0.983852       -26.7720
  26   2.0000      -0.914379       -24.8815
  27   2.0000      -0.909644       -24.7527
  28   2.0000      -0.874364       -23.7927
  29   2.0000      -0.850378       -23.1400
  30   2.0000      -0.840862       -22.8810
  31   2.0000      -0.815167       -22.1818
  32   2.0000      -0.789589       -21.4858
  33   2.0000      -0.773431       -21.0461
  34   2.0000      -0.712295       -19.3825
  35   2.0000      -0.698651       -19.0113
  36   2.0000      -0.684617       -18.6294
  37   2.0000      -0.661731       -18.0066
  38   2.0000      -0.639963       -17.4143
  39   2.0000      -0.613625       -16.6976
  40   2.0000      -0.592466       -16.1218
  41   2.0000      -0.585745       -15.9389
  42   2.0000      -0.564609       -15.3638
  43   2.0000      -0.555384       -15.1128
  44   2.0000      -0.544307       -14.8113
  45   2.0000      -0.529026       -14.3955
  46   2.0000      -0.520525       -14.1642
  47   2.0000      -0.509965       -13.8768
  48   2.0000      -0.507021       -13.7967
  49   2.0000      -0.496752       -13.5173
  50   2.0000      -0.496044       -13.4980
  51   2.0000      -0.488564       -13.2945
  52   2.0000      -0.478683       -13.0256
  53   2.0000      -0.469117       -12.7653
  54   2.0000      -0.461057       -12.5460
  55   2.0000      -0.448859       -12.2141
  56   2.0000      -0.439918       -11.9708
  57   2.0000      -0.437662       -11.9094
  58   2.0000      -0.429814       -11.6958
  59   2.0000      -0.425374       -11.5750
  60   2.0000      -0.420226       -11.4349
  61   2.0000      -0.418046       -11.3756
  62   2.0000      -0.405825       -11.0431
  63   2.0000      -0.351191        -9.5564
  64   2.0000      -0.328644        -8.9429
  65   2.0000      -0.324795        -8.8381
  66   2.0000      -0.292616        -7.9625
  67   0.0000       0.033490         0.9113
  68   0.0000       0.073393         1.9971
  69   0.0000       0.120455         3.2777
  70   0.0000       0.123767         3.3679
  71   0.0000       0.131426         3.5763

MULLIKEN ATOMIC CHARGES
-----------------------
   0 S :    0.095099
   1 C :   -0.111936
   2 C :   -0.105759
   3 C :   -0.004120
   4 C :   -0.140614
   5 H :    0.026754
   6 C :    0.060733
   7 H :    0.037657
   8 H :    0.032885
   9 C :   -0.120589
  10 H :    0.026681
  11 H :    0.024233
  12 C :    0.006738
  13 H :    0.033169
  14 H :    0.023699
  15 H :    0.034199
  16 S :    0.118801
  17 C :   -0.099337
  18 C :   -0.026635
  19 C :   -0.061370
  20 C :   -0.151350
  21 H :    0.003872
  22 C :    0.123458
  23 H :    0.014865
  24 H :   -0.001790
  25 C :   -0.080126
  26 H :    0.024862
  27 H :    0.028842
  28 C :   -0.029955
  29 H :    0.033059
  30 H :    0.031801
  31 H :    0.037098
  32 H :    0.045876
  33 H :    0.069203
Sum of atomic charges:   -0.0000000

LOEWDIN ATOMIC CHARGES
----------------------
   0 S :    0.409538
   1 C :   -0.198699
   2 C :   -0.064990
   3 C :   -0.067833
   4 C :   -0.199218
   5 H :    0.031685
   6 C :   -0.023490
   7 H :    0.029058
   8 H :    0.029402
   9 C :   -0.040668
  10 H :    0.016943
  11 H :    0.018994
  12 C :   -0.054702
  13 H :    0.030692
  14 H :    0.021646
  15 H :    0.026309
  16 S :    0.416625
  17 C :   -0.200249
  18 C :   -0.072256
  19 C :   -0.046904
  20 C :   -0.199148
  21 H :    0.023904
  22 C :   -0.024100
  23 H :    0.029500
  24 H :    0.015981
  25 C :   -0.032188
  26 H :    0.025973
  27 H :    0.021487
  28 C :   -0.063209
  29 H :    0.027744
  30 H :    0.018245
  31 H :    0.031807
  32 H :    0.025431
  33 H :    0.036691

  Mayer bond orders larger than 0.100000
B(  0-S ,  1-C ) :   1.1509 B(  0-S ,  4-C ) :   1.1440 B(  1-C ,  2-C ) :   1.6051
B(  1-C , 32-H ) :   0.9756 B(  2-C ,  3-C ) :   1.2482 B(  2-C ,  6-C ) :   1.0073
B(  3-C ,  4-C ) :   1.5719 B(  3-C ,  5-H ) :   0.9781 B(  4-C , 20-C ) :   1.0508
B(  6-C ,  7-H ) :   0.9427 B(  6-C ,  8-H ) :   0.9457 B(  6-C ,  9-C ) :   1.0869
B(  9-C , 10-H ) :   0.9457 B(  9-C , 11-H ) :   0.9594 B(  9-C , 12-C ) :   1.0880
B( 12-C , 13-H ) :   0.9720 B( 12-C , 14-H ) :   0.9738 B( 12-C , 15-H ) :   0.9730
B( 16-S , 17-C ) :   1.1638 B( 16-S , 20-C ) :   1.1310 B( 17-C , 18-C ) :   1.6078
B( 17-C , 33-H ) :   0.9622 B( 18-C , 19-C ) :   1.2223 B( 18-C , 21-H ) :   0.9962
B( 19-C , 20-C ) :   1.6138 B( 19-C , 22-C ) :   1.0491 B( 22-C , 23-H ) :   0.9212
B( 22-C , 24-H ) :   0.9281 B( 22-C , 25-C ) :   1.0801 B( 25-C , 26-H ) :   0.9510
B( 25-C , 27-H ) :   0.9536 B( 25-C , 28-C ) :   1.0804 B( 28-C , 29-H ) :   0.9737
B( 28-C , 30-H ) :   0.9695 B( 28-C , 31-H ) :   0.9712

Dispersion correction           -0.014232581
FINAL SINGLE POINT ENERGY     -1339.880327949685

DIPOLE MOMENT
-------------
                                X             Y             Z
Electronic contribution:     -0.87680      -3.75760      30.21335
Nuclear contribution   :      0.79720       3.82650     -30.91922
                        -----------------------------------------
Total Dipole Moment    :     -0.07960       0.06890      -0.70587
                        -----------------------------------------
Magnitude (a.u.)       :      0.71368
Magnitude (Debye)      :      1.81403

Rotational constants in cm-1:     0.017661     0.009114     0.006483
Rotational constants in MHz :   529.463381   273.239176   194.366493

                             ****ORCA TERMINATED NORMALLY****
TOTAL RUN TIME: 0 days 0 hours 0 minutes 20 seconds 535 msec
