                         Program Version 4.2.1 -  RELEASE  -
|  1> ! wB97X-D3 SP def2-SVP
|  2> %pal
|  3> nprocs 24
|  4> end
|  5>
|  6> * xyz 0 1
|  7> S 	 -79.7847 	 -26.895 	 -54.4099
|  8> C 	 -78.8026 	 -27.4914 	 -53.1294
|  9> C 	 -79.5299 	 -27.3858 	 -51.9269
| 10> C 	 -80.9184 	 -27.0508 	 -52.0981
| 11> C 	 -81.2393 	 -26.8582 	 -53.4307
| 12> H 	 -81.6535 	 -27.0093 	 -51.3321
| 13> C 	 -78.8192 	 -27.7838 	 -50.6087
| 14> H 	 -78.4613 	 -26.89 	 -50.1461
| 15> H 	 -77.8879 	 -28.321 	 -50.7417
| 16> C 	 -79.7989 	 -28.5429 	 -49.6108
| 17> H 	 -80.6071 	 -27.8161 	 -49.3387
| 18> H 	 -80.313 	 -29.3583 	 -50.2038
| 19> C 	 -79.1483 	 -28.9529 	 -48.2901
| 20> H 	 -79.7427 	 -29.7786 	 -47.8709
| 21> H 	 -78.1222 	 -29.3494 	 -48.3848
| 22> H 	 -79.0746 	 -28.1243 	 -47.5459
| 23> S 	 -82.7343 	 -24.7049 	 -54.4618
| 24> C 	 -84.3904 	 -24.977 	 -55.0013
| 25> C 	 -84.8314 	 -26.2287 	 -54.6337
| 26> C 	 -83.7549 	 -26.9816 	 -54.0399
| 27> C 	 -82.5033 	 -26.3568 	 -53.9483
| 28> H 	 -85.9166 	 -26.4342 	 -54.734
| 29> C 	 -83.9787 	 -28.4524 	 -53.6009
| 30> H 	 -84.9648 	 -28.5386 	 -53.225
| 31> H 	 -83.3375 	 -28.6395 	 -52.7536
| 32> C 	 -83.8606 	 -29.4251 	 -54.8386
| 33> H 	 -84.6759 	 -29.391 	 -55.4818
| 34> H 	 -83.9249 	 -30.4407 	 -54.4423
| 35> C 	 -82.5754 	 -29.3767 	 -55.665
| 36> H 	 -81.745 	 -29.5973 	 -55.0488
| 37> H 	 -82.3526 	 -28.4002 	 -56.1508
| 38> H 	 -82.6108 	 -30.2371 	 -56.3538
| 39> H 	 -77.7627 	 -27.758 	 -53.2904
| 40> H 	 -84.9873 	 -24.1328 	 -55.2871
| 41> *
| 42>
| 43>                          ****END OF INPUT****

CARTESIAN COORDINATES (ANGSTROEM)
---------------------------------
  S    -79.784700  -26.895000  -54.409900
  C    -78.802600  -27.491400  -53.129400
  C    -79.529900  -27.385800  -51.926900
  C    -80.918400  -27.050800  -52.098100
  C    -81.239300  -26.858200  -53.430700
  H    -81.653500  -27.009300  -51.332100
  C    -78.819200  -27.783800  -50.608700
  H    -78.461300  -26.890000  -50.146100
  H    -77.887900  -28.321000  -50.741700
  C    -79.798900  -28.542900  -49.610800
  H    -80.607100  -27.816100  -49.338700
  H    -80.313000  -29.358300  -50.203800
  C    -79.148300  -28.952900  -48.290100
  H    -79.742700  -29.778600  -47.870900
  H    -78.122200  -29.349400  -48.384800
  H    -79.074600  -28.124300  -47.545900
  S    -82.734300  -24.704900  -54.461800
  C    -84.390400  -24.977000  -55.001300
  C    -84.831400  -26.228700  -54.633700
  C    -83.754900  -26.981600  -54.039900
  C    -82.503300  -26.356800  -53.948300
  H    -85.916600  -26.434200  -54.734000
  C    -83.978700  -28.452400  -53.600900
  H    -84.964800  -28.538600  -53.225000
  H    -83.337500  -28.639500  -52.753600
  C    -83.860600  -29.425100  -54.838600
  H    -84.675900  -29.391000  -55.481800
  H    -83.924900  -30.440700  -54.442300
  C    -82.575400  -29.376700  -55.665000
  H    -81.745000  -29.597300  -55.048800
  H    -82.352600  -28.400200  -56.150800
  H    -82.610800  -30.237100  -56.353800
  H    -77.762700  -27.758000  -53.290400
  H    -84.987300  -24.132800  -55.287100

 Total Charge           Charge          ....    0
 Multiplicity           Mult            ....    1
 Number of Electrons    NEL             ....  134
 Basis Dimension        Dim             ....  322

ORBITAL ENERGIES
----------------

  NO   OCC          E(Eh)            E(eV)
   0   2.0000     -88.965720     -2420.8803
   1   2.0000     -88.961225     -2420.7580
   2   2.0000     -10.331804      -281.1427
   3   2.0000     -10.325885      -280.9816
   4   2.0000     -10.317101      -280.7426
   5   2.0000     -10.316499      -280.7262
   6   2.0000     -10.308657      -280.5128
   7   2.0000     -10.305250      -280.4201
   8   2.0000     -10.299573      -280.2656
   9   2.0000     -10.298985      -280.2496
  10   2.0000     -10.297856      -280.2189
  11   2.0000     -10.293126      -280.0902
  12   2.0000     -10.285841      -279.8920
  13   2.0000     -10.285500      -279.8827
  14   2.0000     -10.277331      -279.6604
  15   2.0000     -10.265556      -279.3400
  16   2.0000      -8.080757      -219.8886
  17   2.0000      -8.075999      -219.7591
  18   2.0000      -6.039148      -164.3336
  19   2.0000      -6.035083      -164.2229
  20   2.0000      -6.034486      -164.2067
  21   2.0000      -6.031748      -164.1322
  22   2.0000      -6.030445      -164.0968
  23   2.0000      -6.026827      -163.9983
  24   2.0000      -1.005700       -27.3665
  25   2.0000      -0.983169       -26.7534
  26   2.0000      -0.901946       -24.5432
  27   2.0000      -0.896989       -24.4083
  28   2.0000      -0.871327       -23.7100
  29   2.0000      -0.847167       -23.0526
  30   2.0000      -0.839046       -22.8316
  31   2.0000      -0.818521       -22.2731
  32   2.0000      -0.780120       -21.2281
  33   2.0000      -0.766250       -20.8507
  34   2.0000      -0.709126       -19.2963
  35   2.0000      -0.694530       -18.8991
  36   2.0000      -0.688028       -18.7222
  37   2.0000      -0.653888       -17.7932
  38   2.0000      -0.649855       -17.6835
  39   2.0000      -0.620337       -16.8802
  40   2.0000      -0.589256       -16.0345
  41   2.0000      -0.568510       -15.4699
  42   2.0000      -0.557918       -15.1817
  43   2.0000      -0.542460       -14.7611
  44   2.0000      -0.538408       -14.6508
  45   2.0000      -0.523258       -14.2386
  46   2.0000      -0.515578       -14.0296
  47   2.0000      -0.512898       -13.9567
  48   2.0000      -0.503750       -13.7077
  49   2.0000      -0.498994       -13.5783
  50   2.0000      -0.493545       -13.4300
  51   2.0000      -0.477844       -13.0028
  52   2.0000      -0.472037       -12.8448
  53   2.0000      -0.464971       -12.6525
  54   2.0000      -0.457175       -12.4404
  55   2.0000      -0.452583       -12.3154
  56   2.0000      -0.440693       -11.9919
  57   2.0000      -0.430709       -11.7202
  58   2.0000      -0.427411       -11.6304
  59   2.0000      -0.420646       -11.4464
  60   2.0000      -0.420060       -11.4304
  61   2.0000      -0.408452       -11.1145
  62   2.0000      -0.403747       -10.9865
  63   2.0000      -0.344247        -9.3674
  64   2.0000      -0.327653        -8.9159
  65   2.0000      -0.324169        -8.8211
  66   2.0000      -0.299171        -8.1409
  67   0.0000       0.036540         0.9943
  68   0.0000       0.056092         1.5263
  69   0.0000       0.116672         3.1748
  70   0.0000       0.122731         3.3397
  71   0.0000       0.133803         3.6410

MULLIKEN ATOMIC CHARGES
-----------------------
   0 S :    0.119081
   1 C :   -0.131082
   2 C :   -0.086776
   3 C :    0.065883
   4 C :   -0.181104
   5 H :    0.007664
   6 C :    0.083026
   7 H :    0.024367
   8 H :    0.016505
   9 C :   -0.140586
  10 H :    0.042242
  11 H :    0.051001
  12 C :   -0.050711
  13 H :    0.039880
  14 H :    0.030824
  15 H :    0.042685
  16 S :    0.098618
  17 C :   -0.105051
  18 C :   -0.029972
  19 C :   -0.089236
  20 C :   -0.143852
  21 H :    0.040702
  22 C :    0.126341
  23 H :    0.004868
  24 H :    0.015373
  25 C :   -0.053215
  26 H :    0.011249
  27 H :    0.017299
  28 C :   -0.045041
  29 H :    0.017754
  30 H :    0.051262
  31 H :    0.028058
  32 H :    0.061413
  33 H :    0.060531
Sum of atomic charges:    0.0000000

LOEWDIN ATOMIC CHARGES
----------------------
   0 S :    0.427156
   1 C :   -0.206456
   2 C :   -0.059080
   3 C :   -0.052024
   4 C :   -0.194567
   5 H :    0.028206
   6 C :   -0.031507
   7 H :    0.027152
   8 H :    0.025997
   9 C :   -0.051181
  10 H :    0.027750
  11 H :    0.030364
  12 C :   -0.074659
  13 H :    0.031784
  14 H :    0.024534
  15 H :    0.031057
  16 S :    0.400171
  17 C :   -0.175420
  18 C :   -0.078912
  19 C :   -0.051750
  20 C :   -0.216051
  21 H :    0.043286
  22 C :   -0.024342
  23 H :    0.023781
  24 H :    0.024994
  25 C :   -0.032753
  26 H :    0.012939
  27 H :    0.024912
  28 C :   -0.067087
  29 H :    0.016804
  30 H :    0.028351
  31 H :    0.029473
  32 H :    0.031470
  33 H :    0.025609

  Mayer bond orders larger than 0.100000
B(  0-S ,  1-C ) :   1.1595 B(  0-S ,  4-C ) :   1.1674 B(  1-C ,  2-C ) :   1.5661
B(  1-C ,  4-C ) :   0.1055 B(  1-C , 32-H ) :   0.9763 B(  2-C ,  3-C ) :   1.2584
B(  2-C ,  6-C ) :   1.0150 B(  3-C ,  4-C ) :   1.5501 B(  3-C ,  5-H ) :   0.9981
B(  4-C , 20-C ) :   1.0351 B(  6-C ,  7-H ) :   0.9323 B(  6-C ,  8-H ) :   0.9507
B(  6-C ,  9-C ) :   1.0553 B(  9-C , 10-H ) :   0.9492 B(  9-C , 11-H ) :   0.9663
B(  9-C , 12-C ) :   1.0742 B( 12-C , 13-H ) :   0.9734 B( 12-C , 14-H ) :   0.9767
B( 12-C , 15-H ) :   0.9749 B( 16-S , 17-C ) :   1.1702 B( 16-S , 20-C ) :   1.1370
B( 17-C , 18-C ) :   1.5935 B( 17-C , 33-H ) :   0.9668 B( 18-C , 19-C ) :   1.2428
B( 18-C , 21-H ) :   0.9892 B( 19-C , 20-C ) :   1.5876 B( 19-C , 22-C ) :   1.0449
B( 22-C , 23-H ) :   0.9307 B( 22-C , 24-H ) :   0.9354 B( 22-C , 25-C ) :   1.0634
B( 25-C , 26-H ) :   0.9588 B( 25-C , 27-H ) :   0.9535 B( 25-C , 28-C ) :   1.0850
B( 28-C , 29-H ) :   0.9731 B( 28-C , 30-H ) :   0.9722 B( 28-C , 31-H ) :   0.9707

Dispersion correction           -0.015204616
FINAL SINGLE POINT ENERGY     -1339.878688387039

DIPOLE MOMENT
-------------
                                X             Y             Z
Electronic contribution:     -0.63126      19.64430     -14.91391
Nuclear contribution   :      0.50079     -19.97161      15.47647
                        -----------------------------------------
Total Dipole Moment    :     -0.13047      -0.32731       0.56256
                        -----------------------------------------
Magnitude (a.u.)       :      0.66380
Magnitude (Debye)      :      1.68724

Rotational constants in cm-1:     0.020267     0.007941     0.007457
Rotational constants in MHz :   607.599660   238.068005   223.546457

                             ****ORCA TERMINATED NORMALLY****
TOTAL RUN TIME: 0 days 0 hours 0 minutes 20 seconds 905 msec
