                         Program Version 4.2.1 -  RELEASE  -
|  1> ! wB97X-D3 SP def2-SVP
|  2> %pal
|  3> nprocs 24
|  4> end
|  5>
|  6> * xyz 0 1
|  7> S 	 21.2644 	 0.179604 	 -114.403
|  8> C 	 19.798 	 1.24966 	 -114.487
|  9> C 	 20.071 	 2.51899 	 -114.001
| 10> C 	 21.4459 	 2.61489 	 -113.606
| 11> C 	 22.201 	 1.50528 	 -113.777
| 12> H 	 21.8725 	 3.51341 	 -113.061
| 13> C 	 19.2054 	 3.76083 	 -114.143
| 14> H 	 18.4217 	 3.60659 	 -114.889
| 15> H 	 19.9106 	 4.52752 	 -114.467
| 16> C 	 18.5865 	 4.27946 	 -112.862
| 17> H 	 17.9742 	 3.59054 	 -112.333
| 18> H 	 19.3138 	 4.54387 	 -112.169
| 19> C 	 17.7647 	 5.50189 	 -113.168
| 20> H 	 17.8536 	 6.18713 	 -112.319
| 21> H 	 18.1817 	 6.03334 	 -114.005
| 22> H 	 16.7641 	 5.152 	 -113.247
| 23> S 	 24.9933 	 1.99728 	 -113.731
| 24> C 	 25.9105 	 1.07471 	 -112.629
| 25> C 	 25.2336 	 0.390969 	 -111.756
| 26> C 	 23.8017 	 0.418096 	 -112.009
| 27> C 	 23.4854 	 1.18179 	 -113.165
| 28> H 	 25.7234 	 -0.201315 	 -111.056
| 29> C 	 22.8107 	 -0.310395 	 -111.102
| 30> H 	 23.3599 	 -1.13224 	 -110.692
| 31> H 	 22.023 	 -0.795008 	 -111.786
| 32> C 	 22.2191 	 0.539858 	 -109.851
| 33> H 	 21.7945 	 1.34843 	 -110.453
| 34> H 	 22.9852 	 0.78868 	 -109.12
| 35> C 	 21.1194 	 -0.137292 	 -109.029
| 36> H 	 20.8478 	 0.572237 	 -108.204
| 37> H 	 21.3494 	 -1.13768 	 -108.655
| 38> H 	 20.2406 	 -0.290456 	 -109.722
| 39> H 	 18.9016 	 0.880675 	 -114.943
| 40> H 	 26.9784 	 1.15689 	 -112.608
| 41> *
| 42>
| 43>                          ****END OF INPUT****

CARTESIAN COORDINATES (ANGSTROEM)
---------------------------------
  S     21.264400    0.179604  -114.403000
  C     19.798000    1.249660  -114.487000
  C     20.071000    2.518990  -114.001000
  C     21.445900    2.614890  -113.606000
  C     22.201000    1.505280  -113.777000
  H     21.872500    3.513410  -113.061000
  C     19.205400    3.760830  -114.143000
  H     18.421700    3.606590  -114.889000
  H     19.910600    4.527520  -114.467000
  C     18.586500    4.279460  -112.862000
  H     17.974200    3.590540  -112.333000
  H     19.313800    4.543870  -112.169000
  C     17.764700    5.501890  -113.168000
  H     17.853600    6.187130  -112.319000
  H     18.181700    6.033340  -114.005000
  H     16.764100    5.152000  -113.247000
  S     24.993300    1.997280  -113.731000
  C     25.910500    1.074710  -112.629000
  C     25.233600    0.390969  -111.756000
  C     23.801700    0.418096  -112.009000
  C     23.485400    1.181790  -113.165000
  H     25.723400   -0.201315  -111.056000
  C     22.810700   -0.310395  -111.102000
  H     23.359900   -1.132240  -110.692000
  H     22.023000   -0.795008  -111.786000
  C     22.219100    0.539858  -109.851000
  H     21.794500    1.348430  -110.453000
  H     22.985200    0.788680  -109.120000
  C     21.119400   -0.137292  -109.029000
  H     20.847800    0.572237  -108.204000
  H     21.349400   -1.137680  -108.655000
  H     20.240600   -0.290456  -109.722000
  H     18.901600    0.880675  -114.943000
  H     26.978400    1.156890  -112.608000

 Total Charge           Charge          ....    0
 Multiplicity           Mult            ....    1
 Number of Electrons    NEL             ....  134
 Basis Dimension        Dim             ....  322

ORBITAL ENERGIES
----------------

  NO   OCC          E(Eh)            E(eV)
   0   2.0000     -88.964860     -2420.8569
   1   2.0000     -88.959242     -2420.7040
   2   2.0000     -10.329556      -281.0815
   3   2.0000     -10.326286      -280.9925
   4   2.0000     -10.320543      -280.8362
   5   2.0000     -10.308570      -280.5104
   6   2.0000     -10.305138      -280.4170
   7   2.0000     -10.303869      -280.3825
   8   2.0000     -10.296722      -280.1881
   9   2.0000     -10.294849      -280.1371
  10   2.0000     -10.294828      -280.1365
  11   2.0000     -10.289951      -280.0038
  12   2.0000     -10.283107      -279.8176
  13   2.0000     -10.280274      -279.7405
  14   2.0000     -10.272518      -279.5294
  15   2.0000     -10.271280      -279.4957
  16   2.0000      -8.078792      -219.8351
  17   2.0000      -8.074571      -219.7202
  18   2.0000      -6.037393      -164.2858
  19   2.0000      -6.033446      -164.1784
  20   2.0000      -6.033052      -164.1677
  21   2.0000      -6.029452      -164.0697
  22   2.0000      -6.029136      -164.0611
  23   2.0000      -6.025193      -163.9538
  24   2.0000      -1.003875       -27.3168
  25   2.0000      -0.983906       -26.7735
  26   2.0000      -0.922367       -25.0989
  27   2.0000      -0.894522       -24.3412
  28   2.0000      -0.874157       -23.7870
  29   2.0000      -0.849170       -23.1071
  30   2.0000      -0.845074       -22.9956
  31   2.0000      -0.816753       -22.2250
  32   2.0000      -0.783642       -21.3240
  33   2.0000      -0.766040       -20.8450
  34   2.0000      -0.705905       -19.2086
  35   2.0000      -0.700842       -19.0709
  36   2.0000      -0.685300       -18.6480
  37   2.0000      -0.659289       -17.9402
  38   2.0000      -0.641791       -17.4640
  39   2.0000      -0.620861       -16.8945
  40   2.0000      -0.592024       -16.1098
  41   2.0000      -0.581149       -15.8139
  42   2.0000      -0.570421       -15.5219
  43   2.0000      -0.560659       -15.2563
  44   2.0000      -0.528715       -14.3871
  45   2.0000      -0.520727       -14.1697
  46   2.0000      -0.518562       -14.1108
  47   2.0000      -0.511141       -13.9089
  48   2.0000      -0.507112       -13.7992
  49   2.0000      -0.499594       -13.5946
  50   2.0000      -0.491991       -13.3878
  51   2.0000      -0.471937       -12.8421
  52   2.0000      -0.471226       -12.8227
  53   2.0000      -0.460338       -12.5264
  54   2.0000      -0.456919       -12.4334
  55   2.0000      -0.450554       -12.2602
  56   2.0000      -0.445446       -12.1212
  57   2.0000      -0.441083       -12.0025
  58   2.0000      -0.426714       -11.6115
  59   2.0000      -0.424472       -11.5505
  60   2.0000      -0.417200       -11.3526
  61   2.0000      -0.414353       -11.2751
  62   2.0000      -0.409086       -11.1318
  63   2.0000      -0.340718        -9.2714
  64   2.0000      -0.330839        -9.0026
  65   2.0000      -0.326290        -8.8788
  66   2.0000      -0.300433        -8.1752
  67   0.0000       0.039293         1.0692
  68   0.0000       0.062389         1.6977
  69   0.0000       0.106540         2.8991
  70   0.0000       0.112507         3.0615
  71   0.0000       0.129439         3.5222

MULLIKEN ATOMIC CHARGES
-----------------------
   0 S :    0.087371
   1 C :   -0.138529
   2 C :   -0.046859
   3 C :    0.015254
   4 C :   -0.140872
   5 H :    0.036967
   6 C :    0.042398
   7 H :    0.028111
   8 H :    0.034500
   9 C :   -0.047631
  10 H :    0.014822
  11 H :    0.002732
  12 C :   -0.022023
  13 H :    0.025315
  14 H :    0.026661
  15 H :    0.036284
  16 S :    0.091864
  17 C :   -0.061200
  18 C :    0.005349
  19 C :   -0.041932
  20 C :   -0.182526
  21 H :   -0.009092
  22 C :    0.046113
  23 H :    0.005784
  24 H :    0.041695
  25 C :   -0.074474
  26 H :    0.044904
  27 H :    0.037364
  28 C :   -0.068228
  29 H :    0.049743
  30 H :    0.034329
  31 H :    0.035844
  32 H :    0.045134
  33 H :    0.044825
Sum of atomic charges:    0.0000000

LOEWDIN ATOMIC CHARGES
----------------------
   0 S :    0.388916
   1 C :   -0.168084
   2 C :   -0.061178
   3 C :   -0.068723
   4 C :   -0.199910
   5 H :    0.041805
   6 C :   -0.024693
   7 H :    0.031087
   8 H :    0.036542
   9 C :   -0.037170
  10 H :    0.019532
  11 H :    0.012732
  12 C :   -0.056165
  13 H :    0.028458
  14 H :    0.022706
  15 H :    0.024806
  16 S :    0.387899
  17 C :   -0.180368
  18 C :   -0.071769
  19 C :   -0.044413
  20 C :   -0.193720
  21 H :    0.024006
  22 C :   -0.042590
  23 H :    0.018770
  24 H :    0.033521
  25 C :   -0.037460
  26 H :    0.030074
  27 H :    0.024680
  28 C :   -0.073848
  29 H :    0.034179
  30 H :    0.022277
  31 H :    0.030310
  32 H :    0.021460
  33 H :    0.026329

  Mayer bond orders larger than 0.100000
B(  0-S ,  1-C ) :   1.1244 B(  0-S ,  4-C ) :   1.1406 B(  1-C ,  2-C ) :   1.6195
B(  1-C , 32-H ) :   0.9763 B(  2-C ,  3-C ) :   1.2247 B(  2-C ,  6-C ) :   1.0122
B(  3-C ,  4-C ) :   1.6309 B(  3-C ,  5-H ) :   0.9748 B(  4-C , 20-C ) :   1.0087
B(  6-C ,  7-H ) :   0.9506 B(  6-C ,  8-H ) :   0.9386 B(  6-C ,  9-C ) :   1.0728
B(  9-C , 10-H ) :   0.9560 B(  9-C , 11-H ) :   0.9540 B(  9-C , 12-C ) :   1.0818
B( 12-C , 13-H ) :   0.9750 B( 12-C , 14-H ) :   0.9722 B( 12-C , 15-H ) :   0.9799
B( 16-S , 17-C ) :   1.1467 B( 16-S , 20-C ) :   1.1197 B( 17-C , 18-C ) :   1.6625
B( 17-C , 33-H ) :   0.9592 B( 18-C , 19-C ) :   1.2082 B( 18-C , 21-H ) :   1.0011
B( 19-C , 20-C ) :   1.6114 B( 19-C , 22-C ) :   1.0485 B( 22-C , 23-H ) :   0.9284
B( 22-C , 24-H ) :   0.9358 B( 22-C , 25-C ) :   1.0377 B( 25-C , 26-H ) :   0.9616
B( 25-C , 27-H ) :   0.9593 B( 25-C , 28-C ) :   1.0819 B( 28-C , 29-H ) :   0.9734
B( 28-C , 30-H ) :   0.9747 B( 28-C , 31-H ) :   0.9754

Dispersion correction           -0.014091408
FINAL SINGLE POINT ENERGY     -1339.860745256345

DIPOLE MOMENT
-------------
                                X             Y             Z
Electronic contribution:     19.82736      -8.55976     -16.63393
Nuclear contribution   :    -20.13861       8.77522      17.12607
                        -----------------------------------------
Total Dipole Moment    :     -0.31126       0.21547       0.49213
                        -----------------------------------------
Magnitude (a.u.)       :      0.62089
Magnitude (Debye)      :      1.57818

Rotational constants in cm-1:     0.017473     0.008198     0.007079
Rotational constants in MHz :   523.826416   245.772843   212.222430

                             ****ORCA TERMINATED NORMALLY****
TOTAL RUN TIME: 0 days 0 hours 0 minutes 21 seconds 303 msec
