                         Program Version 4.2.1 -  RELEASE  -
|  1> ! wB97X-D3 SP def2-SVP
|  2> %pal
|  3> nprocs 24
|  4> end
|  5>
|  6> * xyz 0 1
|  7> S 	 41.0711 	 -17.8149 	 -107.278
|  8> C 	 41.4643 	 -19.0143 	 -108.389
|  9> C 	 41.4867 	 -20.3201 	 -107.911
| 10> C 	 41.4294 	 -20.2807 	 -106.462
| 11> C 	 41.1965 	 -19.0239 	 -106.002
| 12> H 	 41.5542 	 -21.1094 	 -105.829
| 13> C 	 41.5266 	 -21.5322 	 -108.839
| 14> H 	 42.2378 	 -21.2489 	 -109.614
| 15> H 	 40.6084 	 -21.6846 	 -109.383
| 16> C 	 41.9547 	 -22.8971 	 -108.247
| 17> H 	 42.4002 	 -23.5639 	 -109.016
| 18> H 	 42.7261 	 -22.6869 	 -107.438
| 19> C 	 40.8208 	 -23.5851 	 -107.512
| 20> H 	 39.9599 	 -23.5214 	 -108.206
| 21> H 	 41.0706 	 -24.6317 	 -107.236
| 22> H 	 40.5333 	 -22.937 	 -106.697
| 23> S 	 39.9697 	 -17.5313 	 -104.136
| 24> C 	 40.5998 	 -17.4668 	 -102.535
| 25> C 	 41.6928 	 -18.2832 	 -102.339
| 26> C 	 42.0046 	 -19.0798 	 -103.492
| 27> C 	 41.2932 	 -18.5933 	 -104.615
| 28> H 	 42.205 	 -18.2629 	 -101.371
| 29> C 	 43.1704 	 -20.0249 	 -103.494
| 30> H 	 43.812 	 -19.7094 	 -102.642
| 31> H 	 43.7487 	 -19.8035 	 -104.364
| 32> C 	 42.8117 	 -21.4674 	 -103.337
| 33> H 	 41.8184 	 -21.5612 	 -103.75
| 34> H 	 42.8114 	 -21.6524 	 -102.26
| 35> C 	 43.737 	 -22.5374 	 -103.951
| 36> H 	 43.2994 	 -23.5901 	 -104.034
| 37> H 	 44.7483 	 -22.5699 	 -103.504
| 38> H 	 43.7011 	 -22.3671 	 -105.053
| 39> H 	 41.6264 	 -18.821 	 -109.387
| 40> H 	 40.2129 	 -16.9161 	 -101.748
| 41> *
| 42>
| 43>                          ****END OF INPUT****

CARTESIAN COORDINATES (ANGSTROEM)
---------------------------------
  S     41.071100  -17.814900  -107.278000
  C     41.464300  -19.014300  -108.389000
  C     41.486700  -20.320100  -107.911000
  C     41.429400  -20.280700  -106.462000
  C     41.196500  -19.023900  -106.002000
  H     41.554200  -21.109400  -105.829000
  C     41.526600  -21.532200  -108.839000
  H     42.237800  -21.248900  -109.614000
  H     40.608400  -21.684600  -109.383000
  C     41.954700  -22.897100  -108.247000
  H     42.400200  -23.563900  -109.016000
  H     42.726100  -22.686900  -107.438000
  C     40.820800  -23.585100  -107.512000
  H     39.959900  -23.521400  -108.206000
  H     41.070600  -24.631700  -107.236000
  H     40.533300  -22.937000  -106.697000
  S     39.969700  -17.531300  -104.136000
  C     40.599800  -17.466800  -102.535000
  C     41.692800  -18.283200  -102.339000
  C     42.004600  -19.079800  -103.492000
  C     41.293200  -18.593300  -104.615000
  H     42.205000  -18.262900  -101.371000
  C     43.170400  -20.024900  -103.494000
  H     43.812000  -19.709400  -102.642000
  H     43.748700  -19.803500  -104.364000
  C     42.811700  -21.467400  -103.337000
  H     41.818400  -21.561200  -103.750000
  H     42.811400  -21.652400  -102.260000
  C     43.737000  -22.537400  -103.951000
  H     43.299400  -23.590100  -104.034000
  H     44.748300  -22.569900  -103.504000
  H     43.701100  -22.367100  -105.053000
  H     41.626400  -18.821000  -109.387000
  H     40.212900  -16.916100  -101.748000

 Total Charge           Charge          ....    0
 Multiplicity           Mult            ....    1
 Number of Electrons    NEL             ....  134
 Basis Dimension        Dim             ....  322

ORBITAL ENERGIES
----------------

  NO   OCC          E(Eh)            E(eV)
   0   2.0000     -88.968633     -2420.9596
   1   2.0000     -88.964645     -2420.8511
   2   2.0000     -10.326938      -281.0103
   3   2.0000     -10.325296      -280.9656
   4   2.0000     -10.306290      -280.4484
   5   2.0000     -10.305242      -280.4199
   6   2.0000     -10.304975      -280.4126
   7   2.0000     -10.303844      -280.3818
   8   2.0000     -10.295605      -280.1577
   9   2.0000     -10.294287      -280.1218
  10   2.0000     -10.293351      -280.0963
  11   2.0000     -10.292486      -280.0728
  12   2.0000     -10.290332      -280.0142
  13   2.0000     -10.286547      -279.9112
  14   2.0000     -10.284885      -279.8660
  15   2.0000     -10.280830      -279.7556
  16   2.0000      -8.084664      -219.9949
  17   2.0000      -8.079810      -219.8628
  18   2.0000      -6.043009      -164.4386
  19   2.0000      -6.039190      -164.3347
  20   2.0000      -6.038237      -164.3088
  21   2.0000      -6.035318      -164.2293
  22   2.0000      -6.034337      -164.2027
  23   2.0000      -6.030571      -164.1002
  24   2.0000      -1.011550       -27.5257
  25   2.0000      -0.986745       -26.8507
  26   2.0000      -0.916261       -24.9327
  27   2.0000      -0.913254       -24.8509
  28   2.0000      -0.872753       -23.7488
  29   2.0000      -0.855488       -23.2790
  30   2.0000      -0.848748       -23.0956
  31   2.0000      -0.818997       -22.2860
  32   2.0000      -0.784786       -21.3551
  33   2.0000      -0.770736       -20.9728
  34   2.0000      -0.707752       -19.2589
  35   2.0000      -0.694158       -18.8890
  36   2.0000      -0.689048       -18.7500
  37   2.0000      -0.664949       -18.0942
  38   2.0000      -0.646149       -17.5826
  39   2.0000      -0.630444       -17.1552
  40   2.0000      -0.596759       -16.2386
  41   2.0000      -0.574379       -15.6296
  42   2.0000      -0.568601       -15.4724
  43   2.0000      -0.553291       -15.0558
  44   2.0000      -0.538280       -14.6473
  45   2.0000      -0.525087       -14.2884
  46   2.0000      -0.518417       -14.1068
  47   2.0000      -0.512243       -13.9388
  48   2.0000      -0.503808       -13.7093
  49   2.0000      -0.500766       -13.6265
  50   2.0000      -0.496184       -13.5019
  51   2.0000      -0.488882       -13.3032
  52   2.0000      -0.480235       -13.0679
  53   2.0000      -0.464261       -12.6332
  54   2.0000      -0.460802       -12.5391
  55   2.0000      -0.451498       -12.2859
  56   2.0000      -0.444404       -12.0928
  57   2.0000      -0.433421       -11.7940
  58   2.0000      -0.432834       -11.7780
  59   2.0000      -0.426974       -11.6186
  60   2.0000      -0.419689       -11.4203
  61   2.0000      -0.418153       -11.3785
  62   2.0000      -0.408598       -11.1185
  63   2.0000      -0.354442        -9.6449
  64   2.0000      -0.333031        -9.0622
  65   2.0000      -0.330744        -9.0000
  66   2.0000      -0.281722        -7.6660
  67   0.0000       0.028368         0.7719
  68   0.0000       0.067286         1.8309
  69   0.0000       0.111020         3.0210
  70   0.0000       0.117971         3.2102
  71   0.0000       0.123708         3.3663

MULLIKEN ATOMIC CHARGES
-----------------------
   0 S :    0.136062
   1 C :   -0.090481
   2 C :   -0.083035
   3 C :    0.015403
   4 C :   -0.099318
   5 H :   -0.041251
   6 C :    0.061361
   7 H :    0.028345
   8 H :    0.038363
   9 C :   -0.116262
  10 H :    0.041075
  11 H :    0.037216
  12 C :   -0.036914
  13 H :    0.020484
  14 H :    0.052448
  15 H :    0.024494
  16 S :    0.097644
  17 C :   -0.048414
  18 C :   -0.048675
  19 C :   -0.067052
  20 C :   -0.141512
  21 H :    0.024678
  22 C :    0.068910
  23 H :    0.021989
  24 H :    0.028936
  25 C :   -0.067704
  26 H :    0.041415
  27 H :    0.028781
  28 C :   -0.077639
  29 H :    0.039934
  30 H :    0.053824
  31 H :    0.023137
  32 H :    0.010200
  33 H :    0.023558
Sum of atomic charges:   -0.0000000

LOEWDIN ATOMIC CHARGES
----------------------
   0 S :    0.430372
   1 C :   -0.200429
   2 C :   -0.054555
   3 C :   -0.057491
   4 C :   -0.194158
   5 H :    0.018514
   6 C :   -0.034886
   7 H :    0.036607
   8 H :    0.030320
   9 C :   -0.049883
  10 H :    0.028557
  11 H :    0.025720
  12 C :   -0.067459
  13 H :    0.024570
  14 H :    0.031874
  15 H :    0.021708
  16 S :    0.409394
  17 C :   -0.186491
  18 C :   -0.071068
  19 C :   -0.054371
  20 C :   -0.188255
  21 H :    0.035261
  22 C :   -0.035320
  23 H :    0.034757
  24 H :    0.029646
  25 C :   -0.045692
  26 H :    0.021475
  27 H :    0.027336
  28 C :   -0.079465
  29 H :    0.036995
  30 H :    0.030216
  31 H :    0.023754
  32 H :    0.008453
  33 H :    0.013995

  Mayer bond orders larger than 0.100000
B(  0-S ,  1-C ) :   1.1600 B(  0-S ,  4-C ) :   1.1365 B(  1-C ,  2-C ) :   1.6220
B(  1-C , 32-H ) :   0.9744 B(  2-C ,  3-C ) :   1.2212 B(  2-C ,  6-C ) :   1.0071
B(  3-C ,  4-C ) :   1.6023 B(  3-C ,  5-H ) :   0.9976 B(  4-C , 20-C ) :   1.0152
B(  6-C ,  7-H ) :   0.9328 B(  6-C ,  8-H ) :   0.9423 B(  6-C ,  9-C ) :   1.0714
B(  9-C , 10-H ) :   0.9550 B(  9-C , 11-H ) :   0.9569 B(  9-C , 12-C ) :   1.0694
B( 12-C , 13-H ) :   0.9711 B( 12-C , 14-H ) :   0.9717 B( 12-C , 15-H ) :   0.9754
B( 16-S , 17-C ) :   1.1520 B( 16-S , 20-C ) :   1.1456 B( 17-C , 18-C ) :   1.6262
B( 17-C , 20-C ) :   0.1019 B( 17-C , 33-H ) :   0.9713 B( 18-C , 19-C ) :   1.2335
B( 18-C , 21-H ) :   0.9844 B( 19-C , 20-C ) :   1.5841 B( 19-C , 22-C ) :   1.0459
B( 22-C , 23-H ) :   0.9364 B( 22-C , 24-H ) :   0.9430 B( 22-C , 25-C ) :   1.0382
B( 25-C , 26-H ) :   0.9596 B( 25-C , 27-H ) :   0.9475 B( 25-C , 28-C ) :   1.0856
B( 28-C , 29-H ) :   0.9713 B( 28-C , 30-H ) :   0.9721 B( 28-C , 31-H ) :   0.9689

Dispersion correction           -0.015451173
FINAL SINGLE POINT ENERGY     -1339.865094172156

DIPOLE MOMENT
-------------
                                X             Y             Z
Electronic contribution:    -11.09013      29.52407       1.15785
Nuclear contribution   :     11.40674     -30.03332      -1.19906
                        -----------------------------------------
Total Dipole Moment    :      0.31661      -0.50925      -0.04121
                        -----------------------------------------
Magnitude (a.u.)       :      0.60106
Magnitude (Debye)      :      1.52778

Rotational constants in cm-1:     0.017458     0.010602     0.007328
Rotational constants in MHz :   523.379801   317.834024   219.691067

                             ****ORCA TERMINATED NORMALLY****
TOTAL RUN TIME: 0 days 0 hours 0 minutes 23 seconds 115 msec
