                         Program Version 4.2.1 -  RELEASE  -
|  1> ! wB97X-D3 SP def2-SVP
|  2> %pal
|  3> nprocs 24
|  4> end
|  5>
|  6> * xyz 0 1
|  7> S 	 -128.074 	 65.8084 	 -41.7037
|  8> C 	 -126.378 	 65.7367 	 -42.2938
|  9> C 	 -125.567 	 65.2197 	 -41.3065
| 10> C 	 -126.254 	 64.966 	 -40.0899
| 11> C 	 -127.604 	 65.2417 	 -40.1137
| 12> H 	 -125.851 	 64.5309 	 -39.1997
| 13> C 	 -124.077 	 65.0392 	 -41.3162
| 14> H 	 -123.79 	 65.4832 	 -40.363
| 15> H 	 -123.62 	 65.6857 	 -42.026
| 16> C 	 -123.468 	 63.6305 	 -41.328
| 17> H 	 -122.398 	 63.7511 	 -41.5254
| 18> H 	 -123.594 	 63.2441 	 -40.3441
| 19> C 	 -123.946 	 62.6541 	 -42.339
| 20> H 	 -124.072 	 63.1964 	 -43.2664
| 21> H 	 -123.14 	 61.8799 	 -42.4759
| 22> H 	 -124.878 	 62.1839 	 -42.1318
| 23> S 	 -130.12 	 64.6259 	 -39.2947
| 24> C 	 -130.33 	 64.3503 	 -37.6197
| 25> C 	 -129.315 	 64.8724 	 -36.8295
| 26> C 	 -128.288 	 65.4103 	 -37.6672
| 27> C 	 -128.545 	 65.2173 	 -38.9964
| 28> H 	 -129.34 	 64.8312 	 -35.7432
| 29> C 	 -126.933 	 65.9264 	 -37.1542
| 30> H 	 -126.59 	 66.586 	 -37.9119
| 31> H 	 -126.223 	 65.1058 	 -37.0831
| 32> C 	 -126.856 	 66.7899 	 -35.8754
| 33> H 	 -127.086 	 66.0432 	 -35.0794
| 34> H 	 -127.579 	 67.5061 	 -36.0565
| 35> C 	 -125.457 	 67.4794 	 -35.6846
| 36> H 	 -125.313 	 67.6802 	 -34.6502
| 37> H 	 -125.215 	 68.3967 	 -36.1865
| 38> H 	 -124.657 	 66.7901 	 -36.0264
| 39> H 	 -126.033 	 65.9934 	 -43.2472
| 40> H 	 -131.251 	 63.8758 	 -37.2242
| 41> *
| 42>
| 43>                          ****END OF INPUT****

CARTESIAN COORDINATES (ANGSTROEM)
---------------------------------
  S    -128.074000   65.808400  -41.703700
  C    -126.378000   65.736700  -42.293800
  C    -125.567000   65.219700  -41.306500
  C    -126.254000   64.966000  -40.089900
  C    -127.604000   65.241700  -40.113700
  H    -125.851000   64.530900  -39.199700
  C    -124.077000   65.039200  -41.316200
  H    -123.790000   65.483200  -40.363000
  H    -123.620000   65.685700  -42.026000
  C    -123.468000   63.630500  -41.328000
  H    -122.398000   63.751100  -41.525400
  H    -123.594000   63.244100  -40.344100
  C    -123.946000   62.654100  -42.339000
  H    -124.072000   63.196400  -43.266400
  H    -123.140000   61.879900  -42.475900
  H    -124.878000   62.183900  -42.131800
  S    -130.120000   64.625900  -39.294700
  C    -130.330000   64.350300  -37.619700
  C    -129.315000   64.872400  -36.829500
  C    -128.288000   65.410300  -37.667200
  C    -128.545000   65.217300  -38.996400
  H    -129.340000   64.831200  -35.743200
  C    -126.933000   65.926400  -37.154200
  H    -126.590000   66.586000  -37.911900
  H    -126.223000   65.105800  -37.083100
  C    -126.856000   66.789900  -35.875400
  H    -127.086000   66.043200  -35.079400
  H    -127.579000   67.506100  -36.056500
  C    -125.457000   67.479400  -35.684600
  H    -125.313000   67.680200  -34.650200
  H    -125.215000   68.396700  -36.186500
  H    -124.657000   66.790100  -36.026400
  H    -126.033000   65.993400  -43.247200
  H    -131.251000   63.875800  -37.224200

 Total Charge           Charge          ....    0
 Multiplicity           Mult            ....    1
 Number of Electrons    NEL             ....  134
 Basis Dimension        Dim             ....  322

ORBITAL ENERGIES
----------------

  NO   OCC          E(Eh)            E(eV)
   0   2.0000     -88.966963     -2420.9142
   1   2.0000     -88.963127     -2420.8097
   2   2.0000     -10.328730      -281.0590
   3   2.0000     -10.320217      -280.8274
   4   2.0000     -10.319253      -280.8011
   5   2.0000     -10.313071      -280.6329
   6   2.0000     -10.303256      -280.3659
   7   2.0000     -10.298812      -280.2449
   8   2.0000     -10.298142      -280.2267
   9   2.0000     -10.288410      -279.9619
  10   2.0000     -10.286883      -279.9203
  11   2.0000     -10.285809      -279.8911
  12   2.0000     -10.285767      -279.8899
  13   2.0000     -10.280549      -279.7479
  14   2.0000     -10.280416      -279.7443
  15   2.0000     -10.271085      -279.4904
  16   2.0000      -8.083575      -219.9652
  17   2.0000      -8.077291      -219.7943
  18   2.0000      -6.041825      -164.4064
  19   2.0000      -6.037957      -164.3012
  20   2.0000      -6.035989      -164.2476
  21   2.0000      -6.034360      -164.2033
  22   2.0000      -6.031923      -164.1370
  23   2.0000      -6.027865      -164.0265
  24   2.0000      -1.014880       -27.6163
  25   2.0000      -0.985367       -26.8132
  26   2.0000      -0.915468       -24.9112
  27   2.0000      -0.909346       -24.7446
  28   2.0000      -0.871450       -23.7134
  29   2.0000      -0.855820       -23.2880
  30   2.0000      -0.845702       -23.0127
  31   2.0000      -0.813888       -22.1470
  32   2.0000      -0.787443       -21.4274
  33   2.0000      -0.778175       -21.1752
  34   2.0000      -0.709722       -19.3125
  35   2.0000      -0.698920       -19.0186
  36   2.0000      -0.696914       -18.9640
  37   2.0000      -0.658456       -17.9175
  38   2.0000      -0.639182       -17.3930
  39   2.0000      -0.623035       -16.9536
  40   2.0000      -0.598400       -16.2833
  41   2.0000      -0.578544       -15.7430
  42   2.0000      -0.566863       -15.4251
  43   2.0000      -0.553982       -15.0746
  44   2.0000      -0.546938       -14.8829
  45   2.0000      -0.521872       -14.2009
  46   2.0000      -0.521089       -14.1796
  47   2.0000      -0.514806       -14.0086
  48   2.0000      -0.502264       -13.6673
  49   2.0000      -0.497287       -13.5319
  50   2.0000      -0.490228       -13.3398
  51   2.0000      -0.484163       -13.1748
  52   2.0000      -0.475165       -12.9299
  53   2.0000      -0.465322       -12.6620
  54   2.0000      -0.461287       -12.5522
  55   2.0000      -0.459618       -12.5068
  56   2.0000      -0.444367       -12.0919
  57   2.0000      -0.436601       -11.8805
  58   2.0000      -0.433697       -11.8015
  59   2.0000      -0.425799       -11.5866
  60   2.0000      -0.418310       -11.3828
  61   2.0000      -0.413758       -11.2589
  62   2.0000      -0.410061       -11.1583
  63   2.0000      -0.353131        -9.6092
  64   2.0000      -0.335251        -9.1226
  65   2.0000      -0.328140        -8.9291
  66   2.0000      -0.287260        -7.8168
  67   0.0000       0.027772         0.7557
  68   0.0000       0.075199         2.0463
  69   0.0000       0.101043         2.7495
  70   0.0000       0.118585         3.2269
  71   0.0000       0.141041         3.8379

MULLIKEN ATOMIC CHARGES
-----------------------
   0 S :    0.083397
   1 C :   -0.100529
   2 C :   -0.060180
   3 C :   -0.014068
   4 C :   -0.109916
   5 H :   -0.001645
   6 C :    0.073473
   7 H :    0.021263
   8 H :    0.006370
   9 C :   -0.057824
  10 H :    0.029340
  11 H :    0.017375
  12 C :   -0.030740
  13 H :    0.016112
  14 H :    0.038188
  15 H :    0.035690
  16 S :    0.124741
  17 C :   -0.109210
  18 C :   -0.034852
  19 C :   -0.050998
  20 C :   -0.131178
  21 H :    0.024673
  22 C :   -0.003183
  23 H :    0.032171
  24 H :    0.042643
  25 C :   -0.038204
  26 H :    0.039332
  27 H :    0.023279
  28 C :   -0.041127
  29 H :    0.028968
  30 H :    0.034613
  31 H :    0.024676
  32 H :    0.020141
  33 H :    0.067209
Sum of atomic charges:    0.0000000

LOEWDIN ATOMIC CHARGES
----------------------
   0 S :    0.373537
   1 C :   -0.175805
   2 C :   -0.060372
   3 C :   -0.068084
   4 C :   -0.179211
   5 H :    0.026539
   6 C :   -0.032412
   7 H :    0.036777
   8 H :    0.022359
   9 C :   -0.040759
  10 H :    0.030488
  11 H :    0.017287
  12 C :   -0.063514
  13 H :    0.022999
  14 H :    0.034422
  15 H :    0.022297
  16 S :    0.438932
  17 C :   -0.194200
  18 C :   -0.071633
  19 C :   -0.054853
  20 C :   -0.214822
  21 H :    0.034520
  22 C :   -0.035664
  23 H :    0.027192
  24 H :    0.024158
  25 C :   -0.029864
  26 H :    0.028284
  27 H :    0.017172
  28 C :   -0.064289
  29 H :    0.024431
  30 H :    0.026068
  31 H :    0.028005
  32 H :    0.017244
  33 H :    0.032770

  Mayer bond orders larger than 0.100000
B(  0-S ,  1-C ) :   1.1122 B(  0-S ,  4-C ) :   1.1388 B(  1-C ,  2-C ) :   1.6228
B(  1-C , 32-H ) :   0.9764 B(  2-C ,  3-C ) :   1.2117 B(  2-C ,  6-C ) :   1.0208
B(  3-C ,  4-C ) :   1.5960 B(  3-C ,  5-H ) :   0.9975 B(  4-C , 20-C ) :   1.0272
B(  6-C ,  7-H ) :   0.9386 B(  6-C ,  8-H ) :   0.9384 B(  6-C ,  9-C ) :   1.0786
B(  9-C , 10-H ) :   0.9536 B(  9-C , 11-H ) :   0.9535 B(  9-C , 12-C ) :   1.0900
B( 12-C , 13-H ) :   0.9737 B( 12-C , 14-H ) :   0.9736 B( 12-C , 15-H ) :   0.9707
B( 16-S , 17-C ) :   1.1795 B( 16-S , 20-C ) :   1.1440 B( 17-C , 18-C ) :   1.5894
B( 17-C , 33-H ) :   0.9633 B( 18-C , 19-C ) :   1.2352 B( 18-C , 21-H ) :   0.9986
B( 19-C , 20-C ) :   1.6083 B( 19-C , 22-C ) :   1.0314 B( 22-C , 23-H ) :   0.9389
B( 22-C , 24-H ) :   0.9308 B( 22-C , 25-C ) :   1.0611 B( 25-C , 26-H ) :   0.9535
B( 25-C , 27-H ) :   0.9616 B( 25-C , 28-C ) :   1.0779 B( 28-C , 29-H ) :   0.9754
B( 28-C , 30-H ) :   0.9755 B( 28-C , 31-H ) :   0.9759

Dispersion correction           -0.014006271
FINAL SINGLE POINT ENERGY     -1339.871051551314

DIPOLE MOMENT
-------------
                                X             Y             Z
Electronic contribution:    -26.61647       0.53369      -9.45055
Nuclear contribution   :     27.21920      -0.58804       9.92725
                        -----------------------------------------
Total Dipole Moment    :      0.60273      -0.05435       0.47670
                        -----------------------------------------
Magnitude (a.u.)       :      0.77038
Magnitude (Debye)      :      1.95814

Rotational constants in cm-1:     0.016451     0.009146     0.006907
Rotational constants in MHz :   493.178576   274.203665   207.057013

                             ****ORCA TERMINATED NORMALLY****
TOTAL RUN TIME: 0 days 0 hours 0 minutes 21 seconds 548 msec
