                         Program Version 4.2.1 -  RELEASE  -
|  1> ! wB97X-D3 SP def2-SVP
|  2> %pal
|  3> nprocs 24
|  4> end
|  5>
|  6> * xyz 0 1
|  7> S 	 -115.299 	 38.5815 	 -119.275
|  8> C 	 -114.325 	 37.1374 	 -119.017
|  9> C 	 -114.88 	 35.9237 	 -119.36
| 10> C 	 -116.249 	 36.2312 	 -119.867
| 11> C 	 -116.487 	 37.6074 	 -120.15
| 12> H 	 -116.957 	 35.5052 	 -120.267
| 13> C 	 -114.318 	 34.5391 	 -119.126
| 14> H 	 -115.161 	 33.9601 	 -118.665
| 15> H 	 -113.624 	 34.6192 	 -118.381
| 16> C 	 -113.789 	 33.8122 	 -120.389
| 17> H 	 -114.659 	 33.8749 	 -121.066
| 18> H 	 -113.025 	 34.4385 	 -120.645
| 19> C 	 -113.18 	 32.4163 	 -120.173
| 20> H 	 -112.329 	 32.494 	 -119.446
| 21> H 	 -113.863 	 31.7421 	 -119.734
| 22> H 	 -112.922 	 32.013 	 -121.178
| 23> S 	 -118.299 	 37.6798 	 -122.246
| 24> C 	 -119.763 	 38.7106 	 -122.175
| 25> C 	 -119.756 	 39.4184 	 -121.002
| 26> C 	 -118.53 	 39.1598 	 -120.233
| 27> C 	 -117.686 	 38.2122 	 -120.703
| 28> H 	 -120.552 	 40.0753 	 -120.705
| 29> C 	 -118.262 	 39.8138 	 -118.877
| 30> H 	 -119.035 	 40.5772 	 -118.789
| 31> H 	 -117.344 	 40.3975 	 -118.9
| 32> C 	 -118.364 	 38.9926 	 -117.632
| 33> H 	 -117.796 	 38.0604 	 -117.596
| 34> H 	 -119.339 	 38.6765 	 -117.476
| 35> C 	 -117.852 	 39.6796 	 -116.289
| 36> H 	 -117.886 	 39.0352 	 -115.388
| 37> H 	 -118.351 	 40.5674 	 -116.046
| 38> H 	 -116.743 	 39.921 	 -116.294
| 39> H 	 -113.214 	 37.307 	 -118.947
| 40> H 	 -120.647 	 38.5345 	 -122.794
| 41> *
| 42>
| 43>                          ****END OF INPUT****

CARTESIAN COORDINATES (ANGSTROEM)
---------------------------------
  S    -115.299000   38.581500  -119.275000
  C    -114.325000   37.137400  -119.017000
  C    -114.880000   35.923700  -119.360000
  C    -116.249000   36.231200  -119.867000
  C    -116.487000   37.607400  -120.150000
  H    -116.957000   35.505200  -120.267000
  C    -114.318000   34.539100  -119.126000
  H    -115.161000   33.960100  -118.665000
  H    -113.624000   34.619200  -118.381000
  C    -113.789000   33.812200  -120.389000
  H    -114.659000   33.874900  -121.066000
  H    -113.025000   34.438500  -120.645000
  C    -113.180000   32.416300  -120.173000
  H    -112.329000   32.494000  -119.446000
  H    -113.863000   31.742100  -119.734000
  H    -112.922000   32.013000  -121.178000
  S    -118.299000   37.679800  -122.246000
  C    -119.763000   38.710600  -122.175000
  C    -119.756000   39.418400  -121.002000
  C    -118.530000   39.159800  -120.233000
  C    -117.686000   38.212200  -120.703000
  H    -120.552000   40.075300  -120.705000
  C    -118.262000   39.813800  -118.877000
  H    -119.035000   40.577200  -118.789000
  H    -117.344000   40.397500  -118.900000
  C    -118.364000   38.992600  -117.632000
  H    -117.796000   38.060400  -117.596000
  H    -119.339000   38.676500  -117.476000
  C    -117.852000   39.679600  -116.289000
  H    -117.886000   39.035200  -115.388000
  H    -118.351000   40.567400  -116.046000
  H    -116.743000   39.921000  -116.294000
  H    -113.214000   37.307000  -118.947000
  H    -120.647000   38.534500  -122.794000

 Total Charge           Charge          ....    0
 Multiplicity           Mult            ....    1
 Number of Electrons    NEL             ....  134
 Basis Dimension        Dim             ....  322

ORBITAL ENERGIES
----------------

  NO   OCC          E(Eh)            E(eV)
   0   2.0000     -88.967556     -2420.9303
   1   2.0000     -88.961088     -2420.7543
   2   2.0000     -10.338683      -281.3299
   3   2.0000     -10.324807      -280.9523
   4   2.0000     -10.322323      -280.8847
   5   2.0000     -10.319526      -280.8086
   6   2.0000     -10.312943      -280.6295
   7   2.0000     -10.308706      -280.5142
   8   2.0000     -10.301622      -280.3214
   9   2.0000     -10.300922      -280.3023
  10   2.0000     -10.292765      -280.0804
  11   2.0000     -10.285915      -279.8940
  12   2.0000     -10.285839      -279.8919
  13   2.0000     -10.285115      -279.8722
  14   2.0000     -10.276392      -279.6348
  15   2.0000     -10.276182      -279.6291
  16   2.0000      -8.081560      -219.9104
  17   2.0000      -8.075607      -219.7484
  18   2.0000      -6.040174      -164.3615
  19   2.0000      -6.036278      -164.2555
  20   2.0000      -6.034332      -164.2025
  21   2.0000      -6.032136      -164.1428
  22   2.0000      -6.030026      -164.0854
  23   2.0000      -6.026240      -163.9823
  24   2.0000      -1.004227       -27.3264
  25   2.0000      -0.979284       -26.6477
  26   2.0000      -0.916046       -24.9269
  27   2.0000      -0.902628       -24.5618
  28   2.0000      -0.872688       -23.7470
  29   2.0000      -0.848568       -23.0907
  30   2.0000      -0.837935       -22.8014
  31   2.0000      -0.814236       -22.1565
  32   2.0000      -0.785662       -21.3790
  33   2.0000      -0.770451       -20.9650
  34   2.0000      -0.711383       -19.3577
  35   2.0000      -0.703582       -19.1454
  36   2.0000      -0.690665       -18.7939
  37   2.0000      -0.669218       -18.2104
  38   2.0000      -0.637176       -17.3384
  39   2.0000      -0.616790       -16.7837
  40   2.0000      -0.592201       -16.1146
  41   2.0000      -0.575246       -15.6532
  42   2.0000      -0.566336       -15.4108
  43   2.0000      -0.559928       -15.2364
  44   2.0000      -0.529776       -14.4159
  45   2.0000      -0.519915       -14.1476
  46   2.0000      -0.516284       -14.0488
  47   2.0000      -0.513427       -13.9711
  48   2.0000      -0.506106       -13.7719
  49   2.0000      -0.500529       -13.6201
  50   2.0000      -0.486933       -13.2501
  51   2.0000      -0.478330       -13.0160
  52   2.0000      -0.472305       -12.8521
  53   2.0000      -0.461994       -12.5715
  54   2.0000      -0.457344       -12.4450
  55   2.0000      -0.445579       -12.1248
  56   2.0000      -0.438338       -11.9278
  57   2.0000      -0.434322       -11.8185
  58   2.0000      -0.433985       -11.8093
  59   2.0000      -0.427262       -11.6264
  60   2.0000      -0.425818       -11.5871
  61   2.0000      -0.417211       -11.3529
  62   2.0000      -0.398064       -10.8319
  63   2.0000      -0.351829        -9.5737
  64   2.0000      -0.329720        -8.9721
  65   2.0000      -0.327882        -8.9221
  66   2.0000      -0.294038        -8.0012
  67   0.0000       0.021401         0.5823
  68   0.0000       0.068695         1.8693
  69   0.0000       0.096292         2.6203
  70   0.0000       0.120782         3.2866
  71   0.0000       0.123885         3.3711

MULLIKEN ATOMIC CHARGES
-----------------------
   0 S :    0.091783
   1 C :   -0.129507
   2 C :   -0.105677
   3 C :    0.023824
   4 C :   -0.169676
   5 H :    0.024767
   6 C :    0.082803
   7 H :    0.033386
   8 H :   -0.006838
   9 C :   -0.053339
  10 H :    0.037747
  11 H :    0.012793
  12 C :   -0.029382
  13 H :    0.037675
  14 H :    0.020649
  15 H :    0.049860
  16 S :    0.079561
  17 C :   -0.097322
  18 C :   -0.009872
  19 C :   -0.079247
  20 C :   -0.108525
  21 H :    0.022694
  22 C :    0.063547
  23 H :    0.002573
  24 H :    0.035167
  25 C :   -0.020966
  26 H :    0.035581
  27 H :    0.006915
  28 C :   -0.079368
  29 H :    0.031452
  30 H :    0.018429
  31 H :    0.029789
  32 H :    0.075030
  33 H :    0.073693
Sum of atomic charges:   -0.0000000

LOEWDIN ATOMIC CHARGES
----------------------
   0 S :    0.401975
   1 C :   -0.198976
   2 C :   -0.055619
   3 C :   -0.053397
   4 C :   -0.182202
   5 H :    0.027983
   6 C :   -0.026064
   7 H :    0.038287
   8 H :    0.013887
   9 C :   -0.031692
  10 H :    0.029276
  11 H :    0.013566
  12 C :   -0.061974
  13 H :    0.033146
  14 H :    0.016630
  15 H :    0.036084
  16 S :    0.385425
  17 C :   -0.175878
  18 C :   -0.063041
  19 C :   -0.064370
  20 C :   -0.198612
  21 H :    0.032448
  22 C :   -0.043112
  23 H :    0.029271
  24 H :    0.023351
  25 C :   -0.037783
  26 H :    0.025612
  27 H :    0.014593
  28 C :   -0.068866
  29 H :    0.029056
  30 H :    0.009730
  31 H :    0.028639
  32 H :    0.035947
  33 H :    0.036681

  Mayer bond orders larger than 0.100000
B(  0-S ,  1-C ) :   1.1354 B(  0-S ,  4-C ) :   1.1376 B(  1-C ,  2-C ) :   1.6529
B(  1-C , 32-H ) :   0.9479 B(  2-C ,  3-C ) :   1.1995 B(  2-C ,  6-C ) :   1.0268
B(  3-C ,  4-C ) :   1.6016 B(  3-C ,  5-H ) :   0.9781 B(  4-C , 20-C ) :   1.0384
B(  6-C ,  7-H ) :   0.9368 B(  6-C ,  8-H ) :   0.9371 B(  6-C ,  9-C ) :   1.0445
B(  9-C , 10-H ) :   0.9603 B(  9-C , 11-H ) :   0.9560 B(  9-C , 12-C ) :   1.0836
B( 12-C , 13-H ) :   0.9715 B( 12-C , 14-H ) :   0.9762 B( 12-C , 15-H ) :   0.9734
B( 16-S , 17-C ) :   1.1409 B( 16-S , 20-C ) :   1.1195 B( 17-C , 18-C ) :   1.6238
B( 17-C , 33-H ) :   0.9612 B( 18-C , 19-C ) :   1.2315 B( 18-C , 21-H ) :   0.9907
B( 19-C , 20-C ) :   1.6220 B( 19-C , 22-C ) :   1.0422 B( 22-C , 23-H ) :   0.9204
B( 22-C , 24-H ) :   0.9398 B( 22-C , 25-C ) :   1.0586 B( 25-C , 26-H ) :   0.9585
B( 25-C , 27-H ) :   0.9511 B( 25-C , 28-C ) :   1.0719 B( 28-C , 29-H ) :   0.9765
B( 28-C , 30-H ) :   0.9795 B( 28-C , 31-H ) :   0.9747

Dispersion correction           -0.014481832
FINAL SINGLE POINT ENERGY     -1339.850092079823

DIPOLE MOMENT
-------------
                                X             Y             Z
Electronic contribution:     -6.40437      11.16586     -14.37977
Nuclear contribution   :      6.36877     -11.54405      14.67141
                        -----------------------------------------
Total Dipole Moment    :     -0.03560      -0.37819       0.29163
                        -----------------------------------------
Magnitude (a.u.)       :      0.47890
Magnitude (Debye)      :      1.21728

Rotational constants in cm-1:     0.019635     0.008231     0.006395
Rotational constants in MHz :   588.647382   246.768234   191.718602

                             ****ORCA TERMINATED NORMALLY****
TOTAL RUN TIME: 0 days 0 hours 0 minutes 22 seconds 374 msec
