                         Program Version 4.2.1 -  RELEASE  -
|  1> ! wB97X-D3 SP def2-SVP
|  2> %pal
|  3> nprocs 24
|  4> end
|  5>
|  6> * xyz 0 1
|  7> S 	 -110.2 	 68.7906 	 -11.4858
|  8> C 	 -109.658 	 70.3835 	 -11.0695
|  9> C 	 -108.368 	 70.5462 	 -11.5217
| 10> C 	 -107.804 	 69.3238 	 -12.0974
| 11> C 	 -108.683 	 68.2844 	 -12.1561
| 12> H 	 -106.824 	 69.2584 	 -12.5393
| 13> C 	 -107.611 	 71.8691 	 -11.3987
| 14> H 	 -108.235 	 72.6118 	 -10.8486
| 15> H 	 -107.433 	 72.1698 	 -12.4616
| 16> C 	 -106.288 	 71.7573 	 -10.5666
| 17> H 	 -106.489 	 71.3707 	 -9.54698
| 18> H 	 -105.639 	 70.9728 	 -10.9756
| 19> C 	 -105.537 	 73.1279 	 -10.4899
| 20> H 	 -106.127 	 73.9027 	 -10.0062
| 21> H 	 -104.559 	 73.1077 	 -9.92048
| 22> H 	 -105.411 	 73.4381 	 -11.5485
| 23> S 	 -106.94 	 66.1997 	 -12.5938
| 24> C 	 -107.561 	 64.6384 	 -13.1244
| 25> C 	 -108.93 	 64.6667 	 -13.4557
| 26> C 	 -109.485 	 65.9992 	 -13.3161
| 27> C 	 -108.526 	 66.9213 	 -12.7668
| 28> H 	 -109.445 	 63.7666 	 -13.6852
| 29> C 	 -110.915 	 66.3259 	 -13.8193
| 30> H 	 -111.048 	 65.9338 	 -14.8436
| 31> H 	 -111.151 	 67.4291 	 -13.8049
| 32> C 	 -112.054 	 65.863 	 -12.9814
| 33> H 	 -112.995 	 66.1567 	 -13.4097
| 34> H 	 -112.075 	 66.287 	 -12.06
| 35> C 	 -112.153 	 64.3506 	 -12.7802
| 36> H 	 -112.797 	 64.1209 	 -11.9159
| 37> H 	 -111.179 	 63.8942 	 -12.6338
| 38> H 	 -112.565 	 63.8892 	 -13.6916
| 39> H 	 -110.295 	 71.1571 	 -10.6357
| 40> H 	 -107.055 	 63.7231 	 -13.1649
| 41> *
| 42>
| 43>                          ****END OF INPUT****

CARTESIAN COORDINATES (ANGSTROEM)
---------------------------------
  S    -110.200000   68.790600  -11.485800
  C    -109.658000   70.383500  -11.069500
  C    -108.368000   70.546200  -11.521700
  C    -107.804000   69.323800  -12.097400
  C    -108.683000   68.284400  -12.156100
  H    -106.824000   69.258400  -12.539300
  C    -107.611000   71.869100  -11.398700
  H    -108.235000   72.611800  -10.848600
  H    -107.433000   72.169800  -12.461600
  C    -106.288000   71.757300  -10.566600
  H    -106.489000   71.370700   -9.546980
  H    -105.639000   70.972800  -10.975600
  C    -105.537000   73.127900  -10.489900
  H    -106.127000   73.902700  -10.006200
  H    -104.559000   73.107700   -9.920480
  H    -105.411000   73.438100  -11.548500
  S    -106.940000   66.199700  -12.593800
  C    -107.561000   64.638400  -13.124400
  C    -108.930000   64.666700  -13.455700
  C    -109.485000   65.999200  -13.316100
  C    -108.526000   66.921300  -12.766800
  H    -109.445000   63.766600  -13.685200
  C    -110.915000   66.325900  -13.819300
  H    -111.048000   65.933800  -14.843600
  H    -111.151000   67.429100  -13.804900
  C    -112.054000   65.863000  -12.981400
  H    -112.995000   66.156700  -13.409700
  H    -112.075000   66.287000  -12.060000
  C    -112.153000   64.350600  -12.780200
  H    -112.797000   64.120900  -11.915900
  H    -111.179000   63.894200  -12.633800
  H    -112.565000   63.889200  -13.691600
  H    -110.295000   71.157100  -10.635700
  H    -107.055000   63.723100  -13.164900

 Total Charge           Charge          ....    0
 Multiplicity           Mult            ....    1
 Number of Electrons    NEL             ....  134
 Basis Dimension        Dim             ....  322

ORBITAL ENERGIES
----------------

  NO   OCC          E(Eh)            E(eV)
   0   2.0000     -88.973996     -2421.1055
   1   2.0000     -88.963512     -2420.8202
   2   2.0000     -10.339851      -281.3616
   3   2.0000     -10.334875      -281.2263
   4   2.0000     -10.320243      -280.8281
   5   2.0000     -10.317343      -280.7492
   6   2.0000     -10.314186      -280.6633
   7   2.0000     -10.305332      -280.4223
   8   2.0000     -10.302470      -280.3445
   9   2.0000     -10.300148      -280.2813
  10   2.0000     -10.295203      -280.1467
  11   2.0000     -10.295182      -280.1462
  12   2.0000     -10.293091      -280.0892
  13   2.0000     -10.286374      -279.9065
  14   2.0000     -10.270912      -279.4857
  15   2.0000     -10.267758      -279.3999
  16   2.0000      -8.087988      -220.0854
  17   2.0000      -8.078565      -219.8289
  18   2.0000      -6.046536      -164.5346
  19   2.0000      -6.042593      -164.4273
  20   2.0000      -6.038780      -164.3236
  21   2.0000      -6.037117      -164.2783
  22   2.0000      -6.032943      -164.1647
  23   2.0000      -6.029353      -164.0670
  24   2.0000      -1.005728       -27.3672
  25   2.0000      -0.981671       -26.7126
  26   2.0000      -0.913456       -24.8564
  27   2.0000      -0.903757       -24.5925
  28   2.0000      -0.867715       -23.6117
  29   2.0000      -0.847881       -23.0720
  30   2.0000      -0.839278       -22.8379
  31   2.0000      -0.817845       -22.2547
  32   2.0000      -0.782175       -21.2841
  33   2.0000      -0.768018       -20.8988
  34   2.0000      -0.708797       -19.2873
  35   2.0000      -0.695528       -18.9263
  36   2.0000      -0.685190       -18.6450
  37   2.0000      -0.669201       -18.2099
  38   2.0000      -0.639986       -17.4149
  39   2.0000      -0.619675       -16.8622
  40   2.0000      -0.596100       -16.2207
  41   2.0000      -0.568214       -15.4619
  42   2.0000      -0.559972       -15.2376
  43   2.0000      -0.553685       -15.0665
  44   2.0000      -0.540215       -14.7000
  45   2.0000      -0.525661       -14.3040
  46   2.0000      -0.520057       -14.1515
  47   2.0000      -0.510544       -13.8926
  48   2.0000      -0.504364       -13.7244
  49   2.0000      -0.491926       -13.3860
  50   2.0000      -0.486824       -13.2472
  51   2.0000      -0.480967       -13.0878
  52   2.0000      -0.479057       -13.0358
  53   2.0000      -0.466109       -12.6835
  54   2.0000      -0.460347       -12.5267
  55   2.0000      -0.451949       -12.2982
  56   2.0000      -0.439511       -11.9597
  57   2.0000      -0.438544       -11.9334
  58   2.0000      -0.434866       -11.8333
  59   2.0000      -0.422124       -11.4866
  60   2.0000      -0.414702       -11.2846
  61   2.0000      -0.412781       -11.2323
  62   2.0000      -0.407380       -11.0854
  63   2.0000      -0.358248        -9.7484
  64   2.0000      -0.334134        -9.0922
  65   2.0000      -0.325975        -8.8702
  66   2.0000      -0.288723        -7.8566
  67   0.0000       0.022712         0.6180
  68   0.0000       0.079106         2.1526
  69   0.0000       0.100964         2.7474
  70   0.0000       0.120567         3.2808
  71   0.0000       0.131437         3.5766

MULLIKEN ATOMIC CHARGES
-----------------------
   0 S :    0.087527
   1 C :   -0.125330
   2 C :   -0.090857
   3 C :    0.001666
   4 C :   -0.090606
   5 H :    0.012081
   6 C :    0.038847
   7 H :    0.027385
   8 H :    0.050814
   9 C :   -0.098445
  10 H :    0.035210
  11 H :    0.033059
  12 C :   -0.062740
  13 H :    0.030136
  14 H :    0.051020
  15 H :    0.032714
  16 S :    0.113414
  17 C :   -0.066301
  18 C :   -0.039126
  19 C :   -0.054913
  20 C :   -0.133678
  21 H :    0.024913
  22 C :    0.035144
  23 H :    0.039446
  24 H :    0.039588
  25 C :   -0.009877
  26 H :    0.016717
  27 H :   -0.001590
  28 C :   -0.076480
  29 H :    0.037138
  30 H :    0.023251
  31 H :    0.023199
  32 H :    0.058335
  33 H :    0.038341
Sum of atomic charges:    0.0000000

LOEWDIN ATOMIC CHARGES
----------------------
   0 S :    0.421003
   1 C :   -0.208185
   2 C :   -0.060886
   3 C :   -0.078514
   4 C :   -0.188132
   5 H :    0.026921
   6 C :   -0.033001
   7 H :    0.032448
   8 H :    0.038090
   9 C :   -0.045884
  10 H :    0.026538
  11 H :    0.021628
  12 C :   -0.073658
  13 H :    0.021655
  14 H :    0.034431
  15 H :    0.027601
  16 S :    0.414582
  17 C :   -0.175867
  18 C :   -0.063389
  19 C :   -0.051566
  20 C :   -0.195262
  21 H :    0.027998
  22 C :   -0.038193
  23 H :    0.035466
  24 H :    0.035283
  25 C :   -0.038496
  26 H :    0.025070
  27 H :    0.006181
  28 C :   -0.068839
  29 H :    0.029143
  30 H :    0.019089
  31 H :    0.022300
  32 H :    0.034745
  33 H :    0.019700

  Mayer bond orders larger than 0.100000
B(  0-S ,  1-C ) :   1.1300 B(  0-S ,  4-C ) :   1.1521 B(  1-C ,  2-C ) :   1.6217
B(  1-C , 32-H ) :   0.9692 B(  2-C ,  3-C ) :   1.2297 B(  2-C ,  6-C ) :   1.0273
B(  3-C ,  4-C ) :   1.5769 B(  3-C ,  5-H ) :   0.9919 B(  4-C , 20-C ) :   1.0291
B(  6-C ,  7-H ) :   0.9492 B(  6-C ,  8-H ) :   0.9363 B(  6-C ,  9-C ) :   1.0504
B(  9-C , 10-H ) :   0.9573 B(  9-C , 11-H ) :   0.9588 B(  9-C , 12-C ) :   1.0716
B( 12-C , 13-H ) :   0.9767 B( 12-C , 14-H ) :   0.9747 B( 12-C , 15-H ) :   0.9753
B( 16-S , 17-C ) :   1.1534 B( 16-S , 20-C ) :   1.1512 B( 17-C , 18-C ) :   1.6137
B( 17-C , 33-H ) :   0.9707 B( 18-C , 19-C ) :   1.2394 B( 18-C , 21-H ) :   0.9849
B( 19-C , 20-C ) :   1.5713 B( 19-C , 22-C ) :   1.0258 B( 22-C , 23-H ) :   0.9421
B( 22-C , 24-H ) :   0.9350 B( 22-C , 25-C ) :   1.0808 B( 25-C , 26-H ) :   0.9499
B( 25-C , 27-H ) :   0.9470 B( 25-C , 28-C ) :   1.0800 B( 28-C , 29-H ) :   0.9732
B( 28-C , 30-H ) :   0.9732 B( 28-C , 31-H ) :   0.9775

Dispersion correction           -0.013997510
FINAL SINGLE POINT ENERGY     -1339.878906920642

DIPOLE MOMENT
-------------
                                X             Y             Z
Electronic contribution:      3.20370      -8.38952      -1.62224
Nuclear contribution   :     -3.24675       8.54310       1.56109
                        -----------------------------------------
Total Dipole Moment    :     -0.04305       0.15357      -0.06116
                        -----------------------------------------
Magnitude (a.u.)       :      0.17082
Magnitude (Debye)      :      0.43418

Rotational constants in cm-1:     0.025800     0.007207     0.005829
Rotational constants in MHz :   773.460111   216.046248   174.735381

                             ****ORCA TERMINATED NORMALLY****
TOTAL RUN TIME: 0 days 0 hours 0 minutes 21 seconds 30 msec
