                         Program Version 4.2.1 -  RELEASE  -
|  1> ! wB97X-D3 SP def2-SVP
|  2> %pal
|  3> nprocs 24
|  4> end
|  5>
|  6> * xyz 0 1
|  7> S 	 -63.8744 	 7.08323 	 -75.2133
|  8> C 	 -63.7088 	 7.32119 	 -73.4691
|  9> C 	 -64.9413 	 7.81218 	 -72.9414
| 10> C 	 -65.9792 	 7.70774 	 -73.8505
| 11> C 	 -65.6129 	 7.44143 	 -75.1398
| 12> H 	 -66.9669 	 7.98749 	 -73.5948
| 13> C 	 -65.2101 	 8.26793 	 -71.5341
| 14> H 	 -65.5736 	 9.3057 	 -71.409
| 15> H 	 -64.2239 	 8.30187 	 -70.9913
| 16> C 	 -66.2008 	 7.3948 	 -70.7071
| 17> H 	 -66.6085 	 7.99784 	 -69.8809
| 18> H 	 -67.0506 	 7.03546 	 -71.2892
| 19> C 	 -65.5558 	 6.21752 	 -70.049
| 20> H 	 -66.2598 	 5.51416 	 -69.5963
| 21> H 	 -64.9855 	 5.62771 	 -70.7465
| 22> H 	 -64.8705 	 6.45525 	 -69.2858
| 23> S 	 -66.9592 	 9.04548 	 -76.7325
| 24> C 	 -67.846 	 8.48243 	 -78.059
| 25> C 	 -67.8987 	 7.12749 	 -78.1669
| 26> C 	 -67.1523 	 6.50819 	 -77.0879
| 27> C 	 -66.5339 	 7.46123 	 -76.268
| 28> H 	 -68.3152 	 6.60582 	 -79.043
| 29> C 	 -66.7781 	 5.03911 	 -76.9948
| 30> H 	 -65.7378 	 4.91308 	 -76.6872
| 31> H 	 -66.9383 	 4.66981 	 -78.0107
| 32> C 	 -67.7476 	 4.12577 	 -76.1645
| 33> H 	 -67.4904 	 3.12189 	 -76.3383
| 34> H 	 -68.7698 	 4.25189 	 -76.6541
| 35> C 	 -67.8133 	 4.46827 	 -74.6266
| 36> H 	 -66.9842 	 3.9821 	 -74.0992
| 37> H 	 -68.7587 	 4.05565 	 -74.2139
| 38> H 	 -67.8185 	 5.5254 	 -74.4658
| 39> H 	 -62.7964 	 7.19374 	 -72.8631
| 40> H 	 -67.9774 	 9.08387 	 -78.8607
| 41> *
| 42>
| 43>                          ****END OF INPUT****

CARTESIAN COORDINATES (ANGSTROEM)
---------------------------------
  S    -63.874400    7.083230  -75.213300
  C    -63.708800    7.321190  -73.469100
  C    -64.941300    7.812180  -72.941400
  C    -65.979200    7.707740  -73.850500
  C    -65.612900    7.441430  -75.139800
  H    -66.966900    7.987490  -73.594800
  C    -65.210100    8.267930  -71.534100
  H    -65.573600    9.305700  -71.409000
  H    -64.223900    8.301870  -70.991300
  C    -66.200800    7.394800  -70.707100
  H    -66.608500    7.997840  -69.880900
  H    -67.050600    7.035460  -71.289200
  C    -65.555800    6.217520  -70.049000
  H    -66.259800    5.514160  -69.596300
  H    -64.985500    5.627710  -70.746500
  H    -64.870500    6.455250  -69.285800
  S    -66.959200    9.045480  -76.732500
  C    -67.846000    8.482430  -78.059000
  C    -67.898700    7.127490  -78.166900
  C    -67.152300    6.508190  -77.087900
  C    -66.533900    7.461230  -76.268000
  H    -68.315200    6.605820  -79.043000
  C    -66.778100    5.039110  -76.994800
  H    -65.737800    4.913080  -76.687200
  H    -66.938300    4.669810  -78.010700
  C    -67.747600    4.125770  -76.164500
  H    -67.490400    3.121890  -76.338300
  H    -68.769800    4.251890  -76.654100
  C    -67.813300    4.468270  -74.626600
  H    -66.984200    3.982100  -74.099200
  H    -68.758700    4.055650  -74.213900
  H    -67.818500    5.525400  -74.465800
  H    -62.796400    7.193740  -72.863100
  H    -67.977400    9.083870  -78.860700

 Total Charge           Charge          ....    0
 Multiplicity           Mult            ....    1
 Number of Electrons    NEL             ....  134
 Basis Dimension        Dim             ....  322

ORBITAL ENERGIES
----------------

  NO   OCC          E(Eh)            E(eV)
   0   2.0000     -88.972343     -2421.0605
   1   2.0000     -88.962257     -2420.7861
   2   2.0000     -10.329458      -281.0789
   3   2.0000     -10.323569      -280.9186
   4   2.0000     -10.321099      -280.8514
   5   2.0000     -10.306381      -280.4509
   6   2.0000     -10.301908      -280.3292
   7   2.0000     -10.301550      -280.3194
   8   2.0000     -10.297904      -280.2202
   9   2.0000     -10.297567      -280.2111
  10   2.0000     -10.289990      -280.0049
  11   2.0000     -10.287044      -279.9247
  12   2.0000     -10.286279      -279.9039
  13   2.0000     -10.285166      -279.8736
  14   2.0000     -10.273183      -279.5475
  15   2.0000     -10.265780      -279.3461
  16   2.0000      -8.085649      -220.0217
  17   2.0000      -8.079240      -219.8473
  18   2.0000      -6.044200      -164.4710
  19   2.0000      -6.040322      -164.3655
  20   2.0000      -6.037448      -164.2873
  21   2.0000      -6.036483      -164.2610
  22   2.0000      -6.033284      -164.1740
  23   2.0000      -6.030314      -164.0932
  24   2.0000      -1.013577       -27.5808
  25   2.0000      -0.987781       -26.8789
  26   2.0000      -0.911210       -24.7953
  27   2.0000      -0.900328       -24.4992
  28   2.0000      -0.873264       -23.7627
  29   2.0000      -0.853577       -23.2270
  30   2.0000      -0.842368       -22.9220
  31   2.0000      -0.815303       -22.1855
  32   2.0000      -0.781373       -21.2623
  33   2.0000      -0.770957       -20.9788
  34   2.0000      -0.709115       -19.2960
  35   2.0000      -0.697155       -18.9706
  36   2.0000      -0.691503       -18.8167
  37   2.0000      -0.663498       -18.0547
  38   2.0000      -0.638939       -17.3864
  39   2.0000      -0.627979       -17.0882
  40   2.0000      -0.593777       -16.1575
  41   2.0000      -0.572806       -15.5868
  42   2.0000      -0.548360       -14.9216
  43   2.0000      -0.546542       -14.8722
  44   2.0000      -0.539857       -14.6903
  45   2.0000      -0.535715       -14.5776
  46   2.0000      -0.519138       -14.1265
  47   2.0000      -0.506614       -13.7857
  48   2.0000      -0.504205       -13.7201
  49   2.0000      -0.495575       -13.4853
  50   2.0000      -0.488808       -13.3011
  51   2.0000      -0.475375       -12.9356
  52   2.0000      -0.474163       -12.9026
  53   2.0000      -0.469499       -12.7757
  54   2.0000      -0.459916       -12.5149
  55   2.0000      -0.450925       -12.2703
  56   2.0000      -0.442501       -12.0411
  57   2.0000      -0.431661       -11.7461
  58   2.0000      -0.427879       -11.6432
  59   2.0000      -0.425902       -11.5894
  60   2.0000      -0.418178       -11.3792
  61   2.0000      -0.416036       -11.3209
  62   2.0000      -0.415390       -11.3033
  63   2.0000      -0.338878        -9.2213
  64   2.0000      -0.335619        -9.1327
  65   2.0000      -0.321351        -8.7444
  66   2.0000      -0.302043        -8.2190
  67   0.0000       0.040282         1.0961
  68   0.0000       0.052885         1.4391
  69   0.0000       0.111710         3.0398
  70   0.0000       0.114824         3.1245
  71   0.0000       0.125602         3.4178

MULLIKEN ATOMIC CHARGES
-----------------------
   0 S :    0.123543
   1 C :   -0.136242
   2 C :   -0.065195
   3 C :    0.050667
   4 C :   -0.140885
   5 H :    0.003383
   6 C :    0.032858
   7 H :    0.044262
   8 H :    0.017820
   9 C :   -0.070814
  10 H :    0.026566
  11 H :    0.035497
  12 C :   -0.031935
  13 H :    0.027875
  14 H :    0.017252
  15 H :    0.013128
  16 S :    0.124982
  17 C :   -0.043209
  18 C :   -0.056088
  19 C :   -0.021469
  20 C :   -0.210608
  21 H :    0.033884
  22 C :    0.057346
  23 H :    0.033538
  24 H :    0.014497
  25 C :   -0.076439
  26 H :    0.021328
  27 H :    0.026331
  28 C :   -0.042609
  29 H :    0.039269
  30 H :    0.032764
  31 H :    0.029450
  32 H :    0.062251
  33 H :    0.027000
Sum of atomic charges:   -0.0000000

LOEWDIN ATOMIC CHARGES
----------------------
   0 S :    0.399444
   1 C :   -0.200785
   2 C :   -0.063675
   3 C :   -0.057695
   4 C :   -0.195597
   5 H :    0.025621
   6 C :   -0.037254
   7 H :    0.037662
   8 H :    0.032815
   9 C :   -0.041154
  10 H :    0.026688
  11 H :    0.025066
  12 C :   -0.066101
  13 H :    0.027592
  14 H :    0.021231
  15 H :    0.016306
  16 S :    0.457429
  17 C :   -0.192149
  18 C :   -0.068208
  19 C :   -0.052685
  20 C :   -0.217771
  21 H :    0.038586
  22 C :   -0.032144
  23 H :    0.026972
  24 H :    0.031156
  25 C :   -0.035396
  26 H :    0.014220
  27 H :    0.026856
  28 C :   -0.066472
  29 H :    0.027870
  30 H :    0.028526
  31 H :    0.019674
  32 H :    0.035322
  33 H :    0.008053

  Mayer bond orders larger than 0.100000
B(  0-S ,  1-C ) :   1.1499 B(  0-S ,  4-C ) :   1.1368 B(  1-C ,  2-C ) :   1.5621
B(  1-C ,  4-C ) :   0.1104 B(  1-C , 32-H ) :   0.9641 B(  2-C ,  3-C ) :   1.2728
B(  2-C ,  6-C ) :   1.0405 B(  3-C ,  4-C ) :   1.5719 B(  3-C ,  5-H ) :   0.9905
B(  4-C , 20-C ) :   1.0136 B(  6-C ,  7-H ) :   0.9413 B(  6-C ,  8-H ) :   0.9425
B(  6-C ,  9-C ) :   1.0552 B(  9-C , 10-H ) :   0.9537 B(  9-C , 11-H ) :   0.9599
B(  9-C , 12-C ) :   1.0880 B( 12-C , 13-H ) :   0.9710 B( 12-C , 14-H ) :   0.9743
B( 12-C , 15-H ) :   0.9719 B( 16-S , 17-C ) :   1.1816 B( 16-S , 20-C ) :   1.1766
B( 17-C , 18-C ) :   1.6022 B( 17-C , 33-H ) :   0.9705 B( 18-C , 19-C ) :   1.2521
B( 18-C , 21-H ) :   0.9844 B( 19-C , 20-C ) :   1.5737 B( 19-C , 22-C ) :   1.0378
B( 22-C , 23-H ) :   0.9453 B( 22-C , 24-H ) :   0.9314 B( 22-C , 25-C ) :   1.0698
B( 25-C , 26-H ) :   0.9594 B( 25-C , 27-H ) :   0.9592 B( 25-C , 28-C ) :   1.0664
B( 28-C , 29-H ) :   0.9774 B( 28-C , 30-H ) :   0.9753 B( 28-C , 31-H ) :   0.9774

Dispersion correction           -0.015507639
FINAL SINGLE POINT ENERGY     -1339.873381419631

DIPOLE MOMENT
-------------
                                X             Y             Z
Electronic contribution:      7.24287      14.88764     -19.22644
Nuclear contribution   :     -7.34202     -15.03869      19.38373
                        -----------------------------------------
Total Dipole Moment    :     -0.09915      -0.15105       0.15729
                        -----------------------------------------
Magnitude (a.u.)       :      0.23956
Magnitude (Debye)      :      0.60891

Rotational constants in cm-1:     0.019926     0.008992     0.007891
Rotational constants in MHz :   597.353398   269.575571   236.579543

                             ****ORCA TERMINATED NORMALLY****
TOTAL RUN TIME: 0 days 0 hours 0 minutes 21 seconds 215 msec
