                         Program Version 4.2.1 -  RELEASE  -
|  1> ! wB97X-D3 SP def2-SVP
|  2> %pal
|  3> nprocs 24
|  4> end
|  5>
|  6> * xyz 0 1
|  7> S 	 -63.0514 	 2.17116 	 -15.4909
|  8> C 	 -63.513 	 2.1427 	 -13.8101
|  9> C 	 -62.7786 	 1.17471 	 -13.0749
| 10> C 	 -62.1633 	 0.305191 	 -14.004
| 11> C 	 -62.1622 	 0.666929 	 -15.3224
| 12> H 	 -61.7103 	 -0.590245 	 -13.7781
| 13> C 	 -63.0709 	 0.817206 	 -11.6268
| 14> H 	 -62.8589 	 -0.209032 	 -11.3711
| 15> H 	 -64.1364 	 0.825058 	 -11.4478
| 16> C 	 -62.3722 	 1.66709 	 -10.541
| 17> H 	 -62.6787 	 2.68579 	 -10.4929
| 18> H 	 -62.69 	 1.17992 	 -9.59859
| 19> C 	 -60.8728 	 1.35757 	 -10.4788
| 20> H 	 -60.4438 	 1.75411 	 -11.386
| 21> H 	 -60.4583 	 1.88934 	 -9.63177
| 22> H 	 -60.7727 	 0.27008 	 -10.3236
| 23> S 	 -60.5853 	 0.915599 	 -17.5976
| 24> C 	 -60.0458 	 -0.569718 	 -18.3991
| 25> C 	 -60.7045 	 -1.66527 	 -17.8406
| 26> C 	 -61.6217 	 -1.40455 	 -16.7976
| 27> C 	 -61.5994 	 -0.0418587 	 -16.5059
| 28> H 	 -60.4478 	 -2.70598 	 -18.2467
| 29> C 	 -62.3526 	 -2.47368 	 -16.022
| 30> H 	 -62.6251 	 -3.17156 	 -16.7896
| 31> H 	 -63.2169 	 -2.07657 	 -15.5413
| 32> C 	 -61.4647 	 -3.24151 	 -14.9912
| 33> H 	 -62.0723 	 -3.62497 	 -14.1248
| 34> H 	 -60.7138 	 -2.54664 	 -14.5204
| 35> C 	 -60.6237 	 -4.47912 	 -15.5661
| 36> H 	 -59.5464 	 -4.2688 	 -15.8322
| 37> H 	 -61.2351 	 -4.98756 	 -16.4023
| 38> H 	 -60.4072 	 -5.33204 	 -14.8668
| 39> H 	 -64.2534 	 2.8051 	 -13.2833
| 40> H 	 -59.254 	 -0.621449 	 -19.135
| 41> *
| 42>
| 43>                          ****END OF INPUT****

CARTESIAN COORDINATES (ANGSTROEM)
---------------------------------
  S    -63.051400    2.171160  -15.490900
  C    -63.513000    2.142700  -13.810100
  C    -62.778600    1.174710  -13.074900
  C    -62.163300    0.305191  -14.004000
  C    -62.162200    0.666929  -15.322400
  H    -61.710300   -0.590245  -13.778100
  C    -63.070900    0.817206  -11.626800
  H    -62.858900   -0.209032  -11.371100
  H    -64.136400    0.825058  -11.447800
  C    -62.372200    1.667090  -10.541000
  H    -62.678700    2.685790  -10.492900
  H    -62.690000    1.179920   -9.598590
  C    -60.872800    1.357570  -10.478800
  H    -60.443800    1.754110  -11.386000
  H    -60.458300    1.889340   -9.631770
  H    -60.772700    0.270080  -10.323600
  S    -60.585300    0.915599  -17.597600
  C    -60.045800   -0.569718  -18.399100
  C    -60.704500   -1.665270  -17.840600
  C    -61.621700   -1.404550  -16.797600
  C    -61.599400   -0.041859  -16.505900
  H    -60.447800   -2.705980  -18.246700
  C    -62.352600   -2.473680  -16.022000
  H    -62.625100   -3.171560  -16.789600
  H    -63.216900   -2.076570  -15.541300
  C    -61.464700   -3.241510  -14.991200
  H    -62.072300   -3.624970  -14.124800
  H    -60.713800   -2.546640  -14.520400
  C    -60.623700   -4.479120  -15.566100
  H    -59.546400   -4.268800  -15.832200
  H    -61.235100   -4.987560  -16.402300
  H    -60.407200   -5.332040  -14.866800
  H    -64.253400    2.805100  -13.283300
  H    -59.254000   -0.621449  -19.135000

 Total Charge           Charge          ....    0
 Multiplicity           Mult            ....    1
 Number of Electrons    NEL             ....  134
 Basis Dimension        Dim             ....  322

ORBITAL ENERGIES
----------------

  NO   OCC          E(Eh)            E(eV)
   0   2.0000     -88.967529     -2420.9295
   1   2.0000     -88.967181     -2420.9201
   2   2.0000     -10.331575      -281.1365
   3   2.0000     -10.327190      -281.0171
   4   2.0000     -10.322110      -280.8789
   5   2.0000     -10.320382      -280.8319
   6   2.0000     -10.305057      -280.4149
   7   2.0000     -10.303692      -280.3777
   8   2.0000     -10.303338      -280.3681
   9   2.0000     -10.300477      -280.2902
  10   2.0000     -10.298008      -280.2230
  11   2.0000     -10.294878      -280.1379
  12   2.0000     -10.291491      -280.0457
  13   2.0000     -10.286039      -279.8973
  14   2.0000     -10.283070      -279.8166
  15   2.0000     -10.274743      -279.5900
  16   2.0000      -8.082143      -219.9263
  17   2.0000      -8.081257      -219.9022
  18   2.0000      -6.040580      -164.3725
  19   2.0000      -6.039783      -164.3509
  20   2.0000      -6.036638      -164.2653
  21   2.0000      -6.035874      -164.2445
  22   2.0000      -6.033013      -164.1666
  23   2.0000      -6.032026      -164.1398
  24   2.0000      -1.004188       -27.3253
  25   2.0000      -0.982335       -26.7307
  26   2.0000      -0.911878       -24.8135
  27   2.0000      -0.904280       -24.6067
  28   2.0000      -0.862857       -23.4795
  29   2.0000      -0.849722       -23.1221
  30   2.0000      -0.841358       -22.8945
  31   2.0000      -0.812017       -22.0961
  32   2.0000      -0.784089       -21.3361
  33   2.0000      -0.771714       -20.9994
  34   2.0000      -0.703945       -19.1553
  35   2.0000      -0.696730       -18.9590
  36   2.0000      -0.691177       -18.8079
  37   2.0000      -0.659587       -17.9483
  38   2.0000      -0.640780       -17.4365
  39   2.0000      -0.616417       -16.7736
  40   2.0000      -0.596375       -16.2282
  41   2.0000      -0.577738       -15.7210
  42   2.0000      -0.555453       -15.1146
  43   2.0000      -0.549524       -14.9533
  44   2.0000      -0.539997       -14.6941
  45   2.0000      -0.533933       -14.5290
  46   2.0000      -0.511419       -13.9164
  47   2.0000      -0.505951       -13.7676
  48   2.0000      -0.498702       -13.5704
  49   2.0000      -0.494739       -13.4625
  50   2.0000      -0.486178       -13.2296
  51   2.0000      -0.480361       -13.0713
  52   2.0000      -0.470316       -12.7979
  53   2.0000      -0.464787       -12.6475
  54   2.0000      -0.458458       -12.4753
  55   2.0000      -0.446457       -12.1487
  56   2.0000      -0.440180       -11.9779
  57   2.0000      -0.438493       -11.9320
  58   2.0000      -0.435123       -11.8403
  59   2.0000      -0.424512       -11.5516
  60   2.0000      -0.421528       -11.4704
  61   2.0000      -0.415859       -11.3161
  62   2.0000      -0.409337       -11.1386
  63   2.0000      -0.345797        -9.4096
  64   2.0000      -0.334142        -9.0925
  65   2.0000      -0.332273        -9.0416
  66   2.0000      -0.286401        -7.7934
  67   0.0000       0.030018         0.8168
  68   0.0000       0.060059         1.6343
  69   0.0000       0.106508         2.8982
  70   0.0000       0.117718         3.2033
  71   0.0000       0.130263         3.5446

MULLIKEN ATOMIC CHARGES
-----------------------
   0 S :    0.117238
   1 C :   -0.134107
   2 C :   -0.044492
   3 C :    0.046773
   4 C :   -0.138724
   5 H :   -0.051751
   6 C :    0.032962
   7 H :    0.008837
   8 H :    0.029223
   9 C :   -0.081850
  10 H :    0.029843
  11 H :    0.017254
  12 C :   -0.039061
  13 H :    0.042636
  14 H :    0.033164
  15 H :    0.031202
  16 S :    0.102183
  17 C :   -0.095497
  18 C :   -0.068930
  19 C :   -0.041317
  20 C :   -0.150702
  21 H :    0.043064
  22 C :    0.117887
  23 H :    0.023926
  24 H :    0.033596
  25 C :   -0.111948
  26 H :    0.046384
  27 H :    0.059126
  28 C :   -0.116173
  29 H :    0.051059
  30 H :    0.043061
  31 H :    0.038140
  32 H :    0.068466
  33 H :    0.058529
Sum of atomic charges:   -0.0000000

LOEWDIN ATOMIC CHARGES
----------------------
   0 S :    0.408572
   1 C :   -0.197654
   2 C :   -0.068106
   3 C :   -0.056332
   4 C :   -0.194878
   5 H :    0.013755
   6 C :   -0.033576
   7 H :    0.027286
   8 H :    0.032042
   9 C :   -0.039075
  10 H :    0.016192
  11 H :    0.025611
  12 C :   -0.059441
  13 H :    0.023418
  14 H :    0.024962
  15 H :    0.027668
  16 S :    0.388018
  17 C :   -0.184057
  18 C :   -0.075139
  19 C :   -0.061463
  20 C :   -0.185084
  21 H :    0.042428
  22 C :   -0.023339
  23 H :    0.032022
  24 H :    0.032378
  25 C :   -0.047295
  26 H :    0.031422
  27 H :    0.030003
  28 C :   -0.093499
  29 H :    0.032188
  30 H :    0.031075
  31 H :    0.030732
  32 H :    0.039050
  33 H :    0.030114

  Mayer bond orders larger than 0.100000
B(  0-S ,  1-C ) :   1.1712 B(  0-S ,  4-C ) :   1.1360 B(  1-C ,  2-C ) :   1.5749
B(  1-C ,  4-C ) :   0.1052 B(  1-C , 32-H ) :   0.9594 B(  2-C ,  3-C ) :   1.2431
B(  2-C ,  6-C ) :   1.0128 B(  3-C ,  4-C ) :   1.5870 B(  3-C ,  5-H ) :   1.0106
B(  4-C , 20-C ) :   1.0093 B(  6-C ,  7-H ) :   0.9488 B(  6-C ,  8-H ) :   0.9473
B(  6-C ,  9-C ) :   1.0753 B(  9-C , 10-H ) :   0.9630 B(  9-C , 11-H ) :   0.9557
B(  9-C , 12-C ) :   1.0664 B( 12-C , 13-H ) :   0.9789 B( 12-C , 14-H ) :   0.9755
B( 12-C , 15-H ) :   0.9751 B( 16-S , 17-C ) :   1.1377 B( 16-S , 20-C ) :   1.1526
B( 17-C , 18-C ) :   1.6174 B( 17-C , 20-C ) :   0.1046 B( 17-C , 33-H ) :   0.9707
B( 18-C , 19-C ) :   1.2403 B( 18-C , 21-H ) :   0.9715 B( 19-C , 20-C ) :   1.5892
B( 19-C , 22-C ) :   1.0511 B( 22-C , 23-H ) :   0.9334 B( 22-C , 24-H ) :   0.9306
B( 22-C , 25-C ) :   1.0499 B( 25-C , 26-H ) :   0.9632 B( 25-C , 27-H ) :   0.9546
B( 25-C , 28-C ) :   1.0494 B( 28-C , 29-H ) :   0.9772 B( 28-C , 30-H ) :   0.9755
B( 28-C , 31-H ) :   0.9759

Dispersion correction           -0.014514462
FINAL SINGLE POINT ENERGY     -1339.861608332406

DIPOLE MOMENT
-------------
                                X             Y             Z
Electronic contribution:     -2.73933      17.77120     -22.35624
Nuclear contribution   :      2.70339     -18.40252      22.91034
                        -----------------------------------------
Total Dipole Moment    :     -0.03593      -0.63133       0.55410
                        -----------------------------------------
Magnitude (a.u.)       :      0.84077
Magnitude (Debye)      :      2.13706

Rotational constants in cm-1:     0.018099     0.008774     0.006779
Rotational constants in MHz :   542.585746   263.029802   203.229322

                             ****ORCA TERMINATED NORMALLY****
TOTAL RUN TIME: 0 days 0 hours 0 minutes 21 seconds 679 msec
