                         Program Version 4.2.1 -  RELEASE  -
|  1> ! wB97X-D3 SP def2-SVP
|  2> %pal
|  3> nprocs 24
|  4> end
|  5>
|  6> * xyz 0 1
|  7> S 	 32.7967 	 -38.3448 	 -130.712
|  8> C 	 33.172 	 -36.7979 	 -129.913
|  9> C 	 32.5899 	 -35.6824 	 -130.514
| 10> C 	 31.9588 	 -36.0971 	 -131.752
| 11> C 	 31.9224 	 -37.4927 	 -131.949
| 12> H 	 31.448 	 -35.5225 	 -132.468
| 13> C 	 32.7195 	 -34.2233 	 -130.06
| 14> H 	 33.7296 	 -33.9862 	 -130.368
| 15> H 	 32.7753 	 -34.1493 	 -128.959
| 16> C 	 31.7244 	 -33.1952 	 -130.699
| 17> H 	 31.7213 	 -33.0997 	 -131.745
| 18> H 	 30.6504 	 -33.4059 	 -130.422
| 19> C 	 31.9051 	 -31.7513 	 -130.082
| 20> H 	 31.3837 	 -31.0114 	 -130.757
| 21> H 	 31.4293 	 -31.6573 	 -129.138
| 22> H 	 32.9628 	 -31.506 	 -130.028
| 23> S 	 32.2539 	 -39.0809 	 -133.955
| 24> C 	 31.0217 	 -39.5119 	 -135.099
| 25> C 	 29.7692 	 -38.9846 	 -134.748
| 26> C 	 29.9259 	 -38.2585 	 -133.538
| 27> C 	 31.1981 	 -38.173 	 -133.023
| 28> H 	 28.8787 	 -39.1223 	 -135.384
| 29> C 	 28.7153 	 -37.5325 	 -132.864
| 30> H 	 27.9653 	 -37.7093 	 -133.631
| 31> H 	 28.9798 	 -36.4996 	 -132.695
| 32> C 	 28.2672 	 -38.2181 	 -131.538
| 33> H 	 27.4575 	 -37.6424 	 -131.117
| 34> H 	 29.0856 	 -38.3501 	 -130.718
| 35> C 	 27.7254 	 -39.6246 	 -131.7
| 36> H 	 27.2757 	 -39.911 	 -130.733
| 37> H 	 28.5659 	 -40.3054 	 -131.951
| 38> H 	 26.9091 	 -39.7553 	 -132.392
| 39> H 	 33.7577 	 -36.7169 	 -128.999
| 40> H 	 31.1925 	 -39.942 	 -136.078
| 41> *
| 42>
| 43>                          ****END OF INPUT****

CARTESIAN COORDINATES (ANGSTROEM)
---------------------------------
  S     32.796700  -38.344800  -130.712000
  C     33.172000  -36.797900  -129.913000
  C     32.589900  -35.682400  -130.514000
  C     31.958800  -36.097100  -131.752000
  C     31.922400  -37.492700  -131.949000
  H     31.448000  -35.522500  -132.468000
  C     32.719500  -34.223300  -130.060000
  H     33.729600  -33.986200  -130.368000
  H     32.775300  -34.149300  -128.959000
  C     31.724400  -33.195200  -130.699000
  H     31.721300  -33.099700  -131.745000
  H     30.650400  -33.405900  -130.422000
  C     31.905100  -31.751300  -130.082000
  H     31.383700  -31.011400  -130.757000
  H     31.429300  -31.657300  -129.138000
  H     32.962800  -31.506000  -130.028000
  S     32.253900  -39.080900  -133.955000
  C     31.021700  -39.511900  -135.099000
  C     29.769200  -38.984600  -134.748000
  C     29.925900  -38.258500  -133.538000
  C     31.198100  -38.173000  -133.023000
  H     28.878700  -39.122300  -135.384000
  C     28.715300  -37.532500  -132.864000
  H     27.965300  -37.709300  -133.631000
  H     28.979800  -36.499600  -132.695000
  C     28.267200  -38.218100  -131.538000
  H     27.457500  -37.642400  -131.117000
  H     29.085600  -38.350100  -130.718000
  C     27.725400  -39.624600  -131.700000
  H     27.275700  -39.911000  -130.733000
  H     28.565900  -40.305400  -131.951000
  H     26.909100  -39.755300  -132.392000
  H     33.757700  -36.716900  -128.999000
  H     31.192500  -39.942000  -136.078000

 Total Charge           Charge          ....    0
 Multiplicity           Mult            ....    1
 Number of Electrons    NEL             ....  134
 Basis Dimension        Dim             ....  322

ORBITAL ENERGIES
----------------

  NO   OCC          E(Eh)            E(eV)
   0   2.0000     -88.970701     -2421.0159
   1   2.0000     -88.962396     -2420.7899
   2   2.0000     -10.330995      -281.1207
   3   2.0000     -10.317268      -280.7471
   4   2.0000     -10.315744      -280.7057
   5   2.0000     -10.315473      -280.6983
   6   2.0000     -10.309396      -280.5329
   7   2.0000     -10.303937      -280.3844
   8   2.0000     -10.301169      -280.3091
   9   2.0000     -10.298867      -280.2464
  10   2.0000     -10.296234      -280.1748
  11   2.0000     -10.293722      -280.1064
  12   2.0000     -10.289762      -279.9986
  13   2.0000     -10.286029      -279.8971
  14   2.0000     -10.283522      -279.8289
  15   2.0000     -10.270489      -279.4742
  16   2.0000      -8.084698      -219.9958
  17   2.0000      -8.078989      -219.8405
  18   2.0000      -6.043218      -164.4443
  19   2.0000      -6.039319      -164.3382
  20   2.0000      -6.037238      -164.2816
  21   2.0000      -6.035495      -164.2342
  22   2.0000      -6.032975      -164.1656
  23   2.0000      -6.030140      -164.0885
  24   2.0000      -1.013453       -27.5775
  25   2.0000      -0.981490       -26.7077
  26   2.0000      -0.906888       -24.6777
  27   2.0000      -0.900677       -24.5087
  28   2.0000      -0.870691       -23.6927
  29   2.0000      -0.846016       -23.0213
  30   2.0000      -0.844938       -22.9919
  31   2.0000      -0.812413       -22.1069
  32   2.0000      -0.780433       -21.2367
  33   2.0000      -0.768913       -20.9232
  34   2.0000      -0.711497       -19.3608
  35   2.0000      -0.693706       -18.8767
  36   2.0000      -0.680071       -18.5057
  37   2.0000      -0.668437       -18.1891
  38   2.0000      -0.642440       -17.4817
  39   2.0000      -0.615817       -16.7572
  40   2.0000      -0.582447       -15.8492
  41   2.0000      -0.566651       -15.4194
  42   2.0000      -0.566399       -15.4125
  43   2.0000      -0.546801       -14.8792
  44   2.0000      -0.545226       -14.8363
  45   2.0000      -0.525579       -14.3017
  46   2.0000      -0.519377       -14.1330
  47   2.0000      -0.508924       -13.8485
  48   2.0000      -0.501521       -13.6471
  49   2.0000      -0.494202       -13.4479
  50   2.0000      -0.488811       -13.3012
  51   2.0000      -0.479534       -13.0488
  52   2.0000      -0.468129       -12.7384
  53   2.0000      -0.465103       -12.6561
  54   2.0000      -0.456740       -12.4285
  55   2.0000      -0.448465       -12.2034
  56   2.0000      -0.441274       -12.0077
  57   2.0000      -0.438239       -11.9251
  58   2.0000      -0.432322       -11.7641
  59   2.0000      -0.427434       -11.6311
  60   2.0000      -0.420582       -11.4446
  61   2.0000      -0.417661       -11.3651
  62   2.0000      -0.402205       -10.9446
  63   2.0000      -0.342341        -9.3156
  64   2.0000      -0.331221        -9.0130
  65   2.0000      -0.326491        -8.8843
  66   2.0000      -0.293761        -7.9936
  67   0.0000       0.037376         1.0171
  68   0.0000       0.062048         1.6884
  69   0.0000       0.112760         3.0683
  70   0.0000       0.119854         3.2614
  71   0.0000       0.134196         3.6516

MULLIKEN ATOMIC CHARGES
-----------------------
   0 S :    0.128049
   1 C :   -0.135711
   2 C :   -0.066213
   3 C :    0.047662
   4 C :   -0.152392
   5 H :   -0.006766
   6 C :    0.067344
   7 H :    0.041030
   8 H :    0.034751
   9 C :   -0.098064
  10 H :    0.035309
  11 H :    0.039941
  12 C :   -0.062396
  13 H :    0.037497
  14 H :    0.035210
  15 H :    0.033137
  16 S :    0.115862
  17 C :   -0.096495
  18 C :   -0.059648
  19 C :   -0.083588
  20 C :   -0.165339
  21 H :    0.038065
  22 C :    0.118411
  23 H :    0.008158
  24 H :    0.032589
  25 C :   -0.094336
  26 H :    0.025322
  27 H :    0.054559
  28 C :   -0.073040
  29 H :    0.029778
  30 H :    0.050575
  31 H :    0.019811
  32 H :    0.044853
  33 H :    0.056077
Sum of atomic charges:    0.0000000

LOEWDIN ATOMIC CHARGES
----------------------
   0 S :    0.403094
   1 C :   -0.198397
   2 C :   -0.053340
   3 C :   -0.059062
   4 C :   -0.205400
   5 H :    0.020306
   6 C :   -0.032443
   7 H :    0.037651
   8 H :    0.036502
   9 C :   -0.039815
  10 H :    0.016642
  11 H :    0.032104
  12 C :   -0.062427
  13 H :    0.033143
  14 H :    0.019319
  15 H :    0.021323
  16 S :    0.455650
  17 C :   -0.194421
  18 C :   -0.077522
  19 C :   -0.062302
  20 C :   -0.229522
  21 H :    0.041061
  22 C :   -0.023580
  23 H :    0.026902
  24 H :    0.027472
  25 C :   -0.046719
  26 H :    0.018814
  27 H :    0.038753
  28 C :   -0.071981
  29 H :    0.028834
  30 H :    0.029993
  31 H :    0.015723
  32 H :    0.026117
  33 H :    0.027531

  Mayer bond orders larger than 0.100000
B(  0-S ,  1-C ) :   1.1287 B(  0-S ,  4-C ) :   1.1542 B(  1-C ,  2-C ) :   1.6243
B(  1-C ,  4-C ) :   0.1011 B(  1-C , 32-H ) :   0.9681 B(  2-C ,  3-C ) :   1.2243
B(  2-C ,  6-C ) :   1.0085 B(  3-C ,  4-C ) :   1.5835 B(  3-C ,  5-H ) :   0.9946
B(  4-C , 20-C ) :   0.9998 B(  6-C ,  7-H ) :   0.9323 B(  6-C ,  8-H ) :   0.9464
B(  6-C ,  9-C ) :   1.0619 B(  9-C , 10-H ) :   0.9557 B(  9-C , 11-H ) :   0.9630
B(  9-C , 12-C ) :   1.0759 B( 12-C , 13-H ) :   0.9761 B( 12-C , 14-H ) :   0.9809
B( 12-C , 15-H ) :   0.9777 B( 16-S , 17-C ) :   1.1928 B( 16-S , 20-C ) :   1.1731
B( 17-C , 18-C ) :   1.5699 B( 17-C , 20-C ) :   0.1062 B( 17-C , 33-H ) :   0.9655
B( 18-C , 19-C ) :   1.2732 B( 18-C , 21-H ) :   0.9885 B( 19-C , 20-C ) :   1.5890
B( 19-C , 22-C ) :   1.0166 B( 22-C , 23-H ) :   0.9338 B( 22-C , 24-H ) :   0.9422
B( 22-C , 25-C ) :   1.0673 B( 25-C , 26-H ) :   0.9580 B( 25-C , 27-H ) :   0.9583
B( 25-C , 28-C ) :   1.0766 B( 28-C , 29-H ) :   0.9726 B( 28-C , 30-H ) :   0.9753
B( 28-C , 31-H ) :   0.9747

Dispersion correction           -0.014440883
FINAL SINGLE POINT ENERGY     -1339.869142213386

DIPOLE MOMENT
-------------
                                X             Y             Z
Electronic contribution:     15.53357     -18.55452      -8.34754
Nuclear contribution   :    -15.84184      19.16919       8.36231
                        -----------------------------------------
Total Dipole Moment    :     -0.30827       0.61467       0.01477
                        -----------------------------------------
Magnitude (a.u.)       :      0.68780
Magnitude (Debye)      :      1.74824

Rotational constants in cm-1:     0.019273     0.008043     0.007164
Rotational constants in MHz :   577.793243   241.132915   214.766815

                             ****ORCA TERMINATED NORMALLY****
TOTAL RUN TIME: 0 days 0 hours 0 minutes 21 seconds 551 msec
