                         Program Version 4.2.1 -  RELEASE  -
|  1> ! wB97X-D3 SP def2-SVP
|  2> %pal
|  3> nprocs 24
|  4> end
|  5>
|  6> * xyz 0 1
|  7> S 	 18.3014 	 -7.0044 	 -116.271
|  8> C 	 18.8178 	 -7.18909 	 -114.638
|  9> C 	 17.8087 	 -6.76272 	 -113.77
| 10> C 	 16.5838 	 -6.40054 	 -114.422
| 11> C 	 16.7134 	 -6.38055 	 -115.792
| 12> H 	 15.7016 	 -5.98352 	 -113.953
| 13> C 	 17.8558 	 -6.92935 	 -112.264
| 14> H 	 18.4024 	 -7.79681 	 -111.927
| 15> H 	 16.9343 	 -7.27591 	 -112.009
| 16> C 	 18.0835 	 -5.66084 	 -111.426
| 17> H 	 17.3167 	 -4.86232 	 -111.643
| 18> H 	 17.7952 	 -5.84838 	 -110.36
| 19> C 	 19.4996 	 -4.98625 	 -111.42
| 20> H 	 19.5664 	 -4.02561 	 -111.025
| 21> H 	 20.3125 	 -5.66706 	 -111.071
| 22> H 	 19.8329 	 -4.87344 	 -112.486
| 23> S 	 15.0796 	 -7.16028 	 -117.845
| 24> C 	 14.0465 	 -6.02808 	 -118.649
| 25> C 	 14.0489 	 -4.83638 	 -118.024
| 26> C 	 14.981 	 -4.71274 	 -116.963
| 27> C 	 15.7045 	 -5.93548 	 -116.761
| 28> H 	 13.2961 	 -4.07673 	 -118.372
| 29> C 	 15.2499 	 -3.42331 	 -116.228
| 30> H 	 15.7938 	 -2.8394 	 -116.928
| 31> H 	 15.9754 	 -3.62088 	 -115.495
| 32> C 	 14.0305 	 -2.57086 	 -115.665
| 33> H 	 13.335 	 -2.40734 	 -116.499
| 34> H 	 14.4293 	 -1.56988 	 -115.309
| 35> C 	 13.2216 	 -3.15314 	 -114.442
| 36> H 	 13.7708 	 -2.84292 	 -113.597
| 37> H 	 13.1226 	 -4.21118 	 -114.442
| 38> H 	 12.1899 	 -2.78273 	 -114.452
| 39> H 	 19.7984 	 -7.4543 	 -114.294
| 40> H 	 13.2969 	 -6.35819 	 -119.458
| 41> *
| 42>
| 43>                          ****END OF INPUT****

CARTESIAN COORDINATES (ANGSTROEM)
---------------------------------
  S     18.301400   -7.004400  -116.271000
  C     18.817800   -7.189090  -114.638000
  C     17.808700   -6.762720  -113.770000
  C     16.583800   -6.400540  -114.422000
  C     16.713400   -6.380550  -115.792000
  H     15.701600   -5.983520  -113.953000
  C     17.855800   -6.929350  -112.264000
  H     18.402400   -7.796810  -111.927000
  H     16.934300   -7.275910  -112.009000
  C     18.083500   -5.660840  -111.426000
  H     17.316700   -4.862320  -111.643000
  H     17.795200   -5.848380  -110.360000
  C     19.499600   -4.986250  -111.420000
  H     19.566400   -4.025610  -111.025000
  H     20.312500   -5.667060  -111.071000
  H     19.832900   -4.873440  -112.486000
  S     15.079600   -7.160280  -117.845000
  C     14.046500   -6.028080  -118.649000
  C     14.048900   -4.836380  -118.024000
  C     14.981000   -4.712740  -116.963000
  C     15.704500   -5.935480  -116.761000
  H     13.296100   -4.076730  -118.372000
  C     15.249900   -3.423310  -116.228000
  H     15.793800   -2.839400  -116.928000
  H     15.975400   -3.620880  -115.495000
  C     14.030500   -2.570860  -115.665000
  H     13.335000   -2.407340  -116.499000
  H     14.429300   -1.569880  -115.309000
  C     13.221600   -3.153140  -114.442000
  H     13.770800   -2.842920  -113.597000
  H     13.122600   -4.211180  -114.442000
  H     12.189900   -2.782730  -114.452000
  H     19.798400   -7.454300  -114.294000
  H     13.296900   -6.358190  -119.458000

 Total Charge           Charge          ....    0
 Multiplicity           Mult            ....    1
 Number of Electrons    NEL             ....  134
 Basis Dimension        Dim             ....  322

ORBITAL ENERGIES
----------------

  NO   OCC          E(Eh)            E(eV)
   0   2.0000     -88.967253     -2420.9220
   1   2.0000     -88.962525     -2420.7934
   2   2.0000     -10.331837      -281.1436
   3   2.0000     -10.330274      -281.1010
   4   2.0000     -10.318224      -280.7731
   5   2.0000     -10.314661      -280.6762
   6   2.0000     -10.309761      -280.5429
   7   2.0000     -10.302182      -280.3366
   8   2.0000     -10.300158      -280.2815
   9   2.0000     -10.296612      -280.1850
  10   2.0000     -10.295285      -280.1489
  11   2.0000     -10.293145      -280.0907
  12   2.0000     -10.287183      -279.9285
  13   2.0000     -10.284280      -279.8495
  14   2.0000     -10.278219      -279.6846
  15   2.0000     -10.275085      -279.5993
  16   2.0000      -8.081970      -219.9216
  17   2.0000      -8.077822      -219.8087
  18   2.0000      -6.040478      -164.3698
  19   2.0000      -6.036349      -164.2574
  20   2.0000      -6.036150      -164.2520
  21   2.0000      -6.032846      -164.1621
  22   2.0000      -6.032208      -164.1447
  23   2.0000      -6.028775      -164.0513
  24   2.0000      -1.006055       -27.3761
  25   2.0000      -0.986345       -26.8398
  26   2.0000      -0.906646       -24.6711
  27   2.0000      -0.900466       -24.5029
  28   2.0000      -0.869211       -23.6524
  29   2.0000      -0.848260       -23.0823
  30   2.0000      -0.844276       -22.9739
  31   2.0000      -0.817122       -22.2350
  32   2.0000      -0.787468       -21.4281
  33   2.0000      -0.774722       -21.0813
  34   2.0000      -0.708589       -19.2817
  35   2.0000      -0.698685       -19.0122
  36   2.0000      -0.694348       -18.8942
  37   2.0000      -0.649577       -17.6759
  38   2.0000      -0.641547       -17.4574
  39   2.0000      -0.620653       -16.8888
  40   2.0000      -0.596309       -16.2264
  41   2.0000      -0.568958       -15.4821
  42   2.0000      -0.551019       -14.9940
  43   2.0000      -0.547381       -14.8950
  44   2.0000      -0.540363       -14.7040
  45   2.0000      -0.529475       -14.4077
  46   2.0000      -0.518661       -14.1135
  47   2.0000      -0.513946       -13.9852
  48   2.0000      -0.503062       -13.6890
  49   2.0000      -0.494730       -13.4623
  50   2.0000      -0.485152       -13.2017
  51   2.0000      -0.480792       -13.0830
  52   2.0000      -0.471468       -12.8293
  53   2.0000      -0.470241       -12.7959
  54   2.0000      -0.462325       -12.5805
  55   2.0000      -0.446428       -12.1479
  56   2.0000      -0.443703       -12.0738
  57   2.0000      -0.438242       -11.9252
  58   2.0000      -0.436402       -11.8751
  59   2.0000      -0.424079       -11.5398
  60   2.0000      -0.419457       -11.4140
  61   2.0000      -0.415965       -11.3190
  62   2.0000      -0.404120       -10.9967
  63   2.0000      -0.345046        -9.3892
  64   2.0000      -0.331128        -9.0104
  65   2.0000      -0.327656        -8.9160
  66   2.0000      -0.297063        -8.0835
  67   0.0000       0.033742         0.9182
  68   0.0000       0.064469         1.7543
  69   0.0000       0.118115         3.2141
  70   0.0000       0.122862         3.3432
  71   0.0000       0.129504         3.5240

MULLIKEN ATOMIC CHARGES
-----------------------
   0 S :    0.121070
   1 C :   -0.100077
   2 C :   -0.107961
   3 C :    0.057120
   4 C :   -0.171601
   5 H :    0.018555
   6 C :    0.127814
   7 H :    0.017659
   8 H :   -0.012810
   9 C :   -0.103286
  10 H :    0.025584
  11 H :    0.028433
  12 C :   -0.043040
  13 H :    0.030923
  14 H :    0.030640
  15 H :    0.022287
  16 S :    0.106003
  17 C :   -0.117098
  18 C :   -0.064099
  19 C :   -0.025240
  20 C :   -0.183033
  21 H :    0.039513
  22 C :    0.117171
  23 H :    0.029268
  24 H :    0.001870
  25 C :   -0.117918
  26 H :    0.033946
  27 H :    0.043187
  28 C :   -0.032552
  29 H :    0.027591
  30 H :    0.030944
  31 H :    0.037425
  32 H :    0.046009
  33 H :    0.085705
Sum of atomic charges:   -0.0000000

LOEWDIN ATOMIC CHARGES
----------------------
   0 S :    0.413366
   1 C :   -0.201678
   2 C :   -0.062144
   3 C :   -0.056768
   4 C :   -0.195313
   5 H :    0.034440
   6 C :   -0.031998
   7 H :    0.032593
   8 H :    0.023795
   9 C :   -0.046084
  10 H :    0.027545
  11 H :    0.025417
  12 C :   -0.073968
  13 H :    0.017515
  14 H :    0.027973
  15 H :    0.028495
  16 S :    0.414930
  17 C :   -0.202312
  18 C :   -0.089328
  19 C :   -0.050447
  20 C :   -0.206772
  21 H :    0.042203
  22 C :   -0.029805
  23 H :    0.035223
  24 H :    0.022262
  25 C :   -0.036884
  26 H :    0.019553
  27 H :    0.032745
  28 C :   -0.062752
  29 H :    0.020259
  30 H :    0.019758
  31 H :    0.031564
  32 H :    0.028487
  33 H :    0.048130

  Mayer bond orders larger than 0.100000
B(  0-S ,  1-C ) :   1.1449 B(  0-S ,  4-C ) :   1.1562 B(  1-C ,  2-C ) :   1.5934
B(  1-C , 32-H ) :   0.9728 B(  2-C ,  3-C ) :   1.2447 B(  2-C ,  6-C ) :   1.0181
B(  3-C ,  4-C ) :   1.5768 B(  3-C ,  5-H ) :   0.9910 B(  4-C , 20-C ) :   1.0229
B(  6-C ,  7-H ) :   0.9452 B(  6-C ,  8-H ) :   0.9218 B(  6-C ,  9-C ) :   1.0703
B(  9-C , 10-H ) :   0.9557 B(  9-C , 11-H ) :   0.9549 B(  9-C , 12-C ) :   1.0695
B( 12-C , 13-H ) :   0.9770 B( 12-C , 14-H ) :   0.9746 B( 12-C , 15-H ) :   0.9738
B( 16-S , 17-C ) :   1.1608 B( 16-S , 20-C ) :   1.1695 B( 17-C , 18-C ) :   1.6141
B( 17-C , 20-C ) :   0.1021 B( 17-C , 33-H ) :   0.9537 B( 18-C , 19-C ) :   1.2490
B( 18-C , 21-H ) :   0.9812 B( 19-C , 20-C ) :   1.5502 B( 19-C , 22-C ) :   1.0433
B( 22-C , 23-H ) :   0.9275 B( 22-C , 24-H ) :   0.9305 B( 22-C , 25-C ) :   1.0585
B( 25-C , 26-H ) :   0.9631 B( 25-C , 27-H ) :   0.9619 B( 25-C , 28-C ) :   1.0585
B( 28-C , 29-H ) :   0.9810 B( 28-C , 30-H ) :   0.9802 B( 28-C , 31-H ) :   0.9761

Dispersion correction           -0.014389641
FINAL SINGLE POINT ENERGY     -1339.868045835929

DIPOLE MOMENT
-------------
                                X             Y             Z
Electronic contribution:      2.35833     -17.49695     -23.44402
Nuclear contribution   :     -2.65258      17.89529      23.88080
                        -----------------------------------------
Total Dipole Moment    :     -0.29424       0.39834       0.43678
                        -----------------------------------------
Magnitude (a.u.)       :      0.66033
Magnitude (Debye)      :      1.67841

Rotational constants in cm-1:     0.018157     0.008941     0.006604
Rotational constants in MHz :   544.342094   268.053165   197.969011

                             ****ORCA TERMINATED NORMALLY****
TOTAL RUN TIME: 0 days 0 hours 0 minutes 21 seconds 337 msec
