                         Program Version 4.2.1 -  RELEASE  -
|  1> ! wB97X-D3 SP def2-SVP
|  2> %pal
|  3> nprocs 24
|  4> end
|  5>
|  6> * xyz 0 1
|  7> S 	 -142.789 	 27 	 -13.634
|  8> C 	 -143.146 	 26.4886 	 -15.2373
|  9> C 	 -143.6 	 27.5415 	 -16.0161
| 10> C 	 -143.359 	 28.7666 	 -15.3359
| 11> C 	 -142.609 	 28.6574 	 -14.184
| 12> H 	 -143.718 	 29.7382 	 -15.699
| 13> C 	 -144.255 	 27.4743 	 -17.3272
| 14> H 	 -144.239 	 28.5596 	 -17.6343
| 15> H 	 -145.293 	 27.2104 	 -17.2109
| 16> C 	 -143.613 	 26.4884 	 -18.3377
| 17> H 	 -142.592 	 26.7791 	 -18.6586
| 18> H 	 -143.531 	 25.5408 	 -17.833
| 19> C 	 -144.514 	 26.2712 	 -19.5508
| 20> H 	 -145.48 	 25.7915 	 -19.2854
| 21> H 	 -144.785 	 27.1858 	 -19.9755
| 22> H 	 -143.995 	 25.5909 	 -20.2273
| 23> S 	 -142.938 	 30.0189 	 -11.7461
| 24> C 	 -141.976 	 31.449 	 -11.3733
| 25> C 	 -141.238 	 31.7955 	 -12.4841
| 26> C 	 -141.319 	 30.8191 	 -13.5665
| 27> C 	 -142.156 	 29.704 	 -13.3001
| 28> H 	 -140.602 	 32.6188 	 -12.4937
| 29> C 	 -140.537 	 30.8685 	 -14.8844
| 30> H 	 -141.263 	 30.4458 	 -15.5795
| 31> H 	 -139.756 	 30.0644 	 -14.9262
| 32> C 	 -139.937 	 32.2286 	 -15.2802
| 33> H 	 -139.335 	 32.0783 	 -16.1622
| 34> H 	 -139.28 	 32.6132 	 -14.5019
| 35> C 	 -140.938 	 33.3111 	 -15.5442
| 36> H 	 -141.606 	 33.4819 	 -14.6508
| 37> H 	 -141.543 	 33.0985 	 -16.3521
| 38> H 	 -140.549 	 34.2651 	 -15.792
| 39> H 	 -143.388 	 25.4738 	 -15.5156
| 40> H 	 -142.009 	 32.1678 	 -10.5846
| 41> *
| 42>
| 43>                          ****END OF INPUT****

CARTESIAN COORDINATES (ANGSTROEM)
---------------------------------
  S    -142.789000   27.000000  -13.634000
  C    -143.146000   26.488600  -15.237300
  C    -143.600000   27.541500  -16.016100
  C    -143.359000   28.766600  -15.335900
  C    -142.609000   28.657400  -14.184000
  H    -143.718000   29.738200  -15.699000
  C    -144.255000   27.474300  -17.327200
  H    -144.239000   28.559600  -17.634300
  H    -145.293000   27.210400  -17.210900
  C    -143.613000   26.488400  -18.337700
  H    -142.592000   26.779100  -18.658600
  H    -143.531000   25.540800  -17.833000
  C    -144.514000   26.271200  -19.550800
  H    -145.480000   25.791500  -19.285400
  H    -144.785000   27.185800  -19.975500
  H    -143.995000   25.590900  -20.227300
  S    -142.938000   30.018900  -11.746100
  C    -141.976000   31.449000  -11.373300
  C    -141.238000   31.795500  -12.484100
  C    -141.319000   30.819100  -13.566500
  C    -142.156000   29.704000  -13.300100
  H    -140.602000   32.618800  -12.493700
  C    -140.537000   30.868500  -14.884400
  H    -141.263000   30.445800  -15.579500
  H    -139.756000   30.064400  -14.926200
  C    -139.937000   32.228600  -15.280200
  H    -139.335000   32.078300  -16.162200
  H    -139.280000   32.613200  -14.501900
  C    -140.938000   33.311100  -15.544200
  H    -141.606000   33.481900  -14.650800
  H    -141.543000   33.098500  -16.352100
  H    -140.549000   34.265100  -15.792000
  H    -143.388000   25.473800  -15.515600
  H    -142.009000   32.167800  -10.584600

 Total Charge           Charge          ....    0
 Multiplicity           Mult            ....    1
 Number of Electrons    NEL             ....  134
 Basis Dimension        Dim             ....  322

ORBITAL ENERGIES
----------------

  NO   OCC          E(Eh)            E(eV)
   0   2.0000     -88.964870     -2420.8572
   1   2.0000     -88.964748     -2420.8539
   2   2.0000     -10.329671      -281.0846
   3   2.0000     -10.327251      -281.0188
   4   2.0000     -10.318215      -280.7729
   5   2.0000     -10.311260      -280.5837
   6   2.0000     -10.307946      -280.4935
   7   2.0000     -10.297320      -280.2043
   8   2.0000     -10.297002      -280.1957
   9   2.0000     -10.294279      -280.1216
  10   2.0000     -10.292189      -280.0647
  11   2.0000     -10.292024      -280.0602
  12   2.0000     -10.290890      -280.0294
  13   2.0000     -10.284101      -279.8446
  14   2.0000     -10.277564      -279.6667
  15   2.0000     -10.266681      -279.3706
  16   2.0000      -8.080123      -219.8713
  17   2.0000      -8.078761      -219.8343
  18   2.0000      -6.038553      -164.3174
  19   2.0000      -6.037475      -164.2881
  20   2.0000      -6.034930      -164.2188
  21   2.0000      -6.033278      -164.1739
  22   2.0000      -6.030523      -164.0989
  23   2.0000      -6.029435      -164.0693
  24   2.0000      -1.009881       -27.4803
  25   2.0000      -0.982502       -26.7352
  26   2.0000      -0.917964       -24.9791
  27   2.0000      -0.907650       -24.6984
  28   2.0000      -0.874279       -23.7903
  29   2.0000      -0.856191       -23.2981
  30   2.0000      -0.841914       -22.9096
  31   2.0000      -0.819271       -22.2935
  32   2.0000      -0.783272       -21.3139
  33   2.0000      -0.770145       -20.9567
  34   2.0000      -0.714095       -19.4315
  35   2.0000      -0.705390       -19.1946
  36   2.0000      -0.699489       -19.0341
  37   2.0000      -0.652998       -17.7690
  38   2.0000      -0.640608       -17.4318
  39   2.0000      -0.620650       -16.8887
  40   2.0000      -0.593465       -16.1490
  41   2.0000      -0.575352       -15.6561
  42   2.0000      -0.566996       -15.4287
  43   2.0000      -0.548065       -14.9136
  44   2.0000      -0.538879       -14.6637
  45   2.0000      -0.530384       -14.4325
  46   2.0000      -0.525840       -14.3088
  47   2.0000      -0.518127       -14.0990
  48   2.0000      -0.511558       -13.9202
  49   2.0000      -0.499629       -13.5956
  50   2.0000      -0.490131       -13.3371
  51   2.0000      -0.478075       -13.0091
  52   2.0000      -0.473571       -12.8865
  53   2.0000      -0.462705       -12.5908
  54   2.0000      -0.459392       -12.5007
  55   2.0000      -0.451638       -12.2897
  56   2.0000      -0.440591       -11.9891
  57   2.0000      -0.436167       -11.8687
  58   2.0000      -0.432667       -11.7735
  59   2.0000      -0.431795       -11.7497
  60   2.0000      -0.424263       -11.5448
  61   2.0000      -0.424023       -11.5382
  62   2.0000      -0.407270       -11.0824
  63   2.0000      -0.345738        -9.4080
  64   2.0000      -0.325751        -8.8641
  65   2.0000      -0.321080        -8.7370
  66   2.0000      -0.291197        -7.9239
  67   0.0000       0.021575         0.5871
  68   0.0000       0.056490         1.5372
  69   0.0000       0.103072         2.8047
  70   0.0000       0.123080         3.3492
  71   0.0000       0.135278         3.6811

MULLIKEN ATOMIC CHARGES
-----------------------
   0 S :    0.113902
   1 C :   -0.096801
   2 C :   -0.119394
   3 C :    0.044976
   4 C :   -0.201479
   5 H :    0.025954
   6 C :    0.072876
   7 H :    0.024394
   8 H :    0.033256
   9 C :   -0.089514
  10 H :    0.041967
  11 H :    0.023534
  12 C :   -0.024997
  13 H :    0.026910
  14 H :    0.020099
  15 H :    0.037717
  16 S :    0.100916
  17 C :   -0.059968
  18 C :   -0.026418
  19 C :   -0.084810
  20 C :   -0.117649
  21 H :   -0.002914
  22 C :    0.068941
  23 H :    0.011200
  24 H :    0.047316
  25 C :   -0.047742
  26 H :    0.025022
  27 H :    0.028588
  28 C :   -0.025138
  29 H :    0.032879
  30 H :    0.005496
  31 H :    0.018011
  32 H :    0.044564
  33 H :    0.048309
Sum of atomic charges:   -0.0000000

LOEWDIN ATOMIC CHARGES
----------------------
   0 S :    0.418992
   1 C :   -0.200741
   2 C :   -0.071430
   3 C :   -0.052710
   4 C :   -0.197964
   5 H :    0.033061
   6 C :   -0.036348
   7 H :    0.035211
   8 H :    0.033123
   9 C :   -0.033344
  10 H :    0.029860
  11 H :    0.020606
  12 C :   -0.059850
  13 H :    0.027364
  14 H :    0.015519
  15 H :    0.028831
  16 S :    0.395101
  17 C :   -0.179760
  18 C :   -0.069454
  19 C :   -0.048090
  20 C :   -0.206435
  21 H :    0.018539
  22 C :   -0.039518
  23 H :    0.029813
  24 H :    0.041827
  25 C :   -0.041726
  26 H :    0.026678
  27 H :    0.024056
  28 C :   -0.063121
  29 H :    0.031402
  30 H :    0.013285
  31 H :    0.021265
  32 H :    0.023474
  33 H :    0.032482

  Mayer bond orders larger than 0.100000
B(  0-S ,  1-C ) :   1.1545 B(  0-S ,  4-C ) :   1.1502 B(  1-C ,  2-C ) :   1.5787
B(  1-C ,  4-C ) :   0.1049 B(  1-C , 32-H ) :   0.9668 B(  2-C ,  3-C ) :   1.2767
B(  2-C ,  6-C ) :   1.0254 B(  3-C ,  4-C ) :   1.5417 B(  3-C ,  5-H ) :   0.9828
B(  4-C , 20-C ) :   1.0576 B(  6-C ,  7-H ) :   0.9392 B(  6-C ,  8-H ) :   0.9252
B(  6-C ,  9-C ) :   1.0656 B(  9-C , 10-H ) :   0.9577 B(  9-C , 11-H ) :   0.9537
B(  9-C , 12-C ) :   1.0880 B( 12-C , 13-H ) :   0.9731 B( 12-C , 14-H ) :   0.9749
B( 12-C , 15-H ) :   0.9735 B( 16-S , 17-C ) :   1.1510 B( 16-S , 20-C ) :   1.1275
B( 17-C , 18-C ) :   1.6092 B( 17-C , 20-C ) :   0.1000 B( 17-C , 33-H ) :   0.9638
B( 18-C , 19-C ) :   1.2524 B( 18-C , 21-H ) :   0.9916 B( 19-C , 20-C ) :   1.5851
B( 19-C , 22-C ) :   1.0260 B( 22-C , 23-H ) :   0.9253 B( 22-C , 24-H ) :   0.9342
B( 22-C , 25-C ) :   1.0785 B( 25-C , 26-H ) :   0.9496 B( 25-C , 27-H ) :   0.9507
B( 25-C , 28-C ) :   1.0879 B( 28-C , 29-H ) :   0.9709 B( 28-C , 30-H ) :   0.9707
B( 28-C , 31-H ) :   0.9706

Dispersion correction           -0.013816476
FINAL SINGLE POINT ENERGY     -1339.857865354062

DIPOLE MOMENT
-------------
                                X             Y             Z
Electronic contribution:     -2.02011      -6.45932      27.49527
Nuclear contribution   :      1.90426       6.72607     -28.22472
                        -----------------------------------------
Total Dipole Moment    :     -0.11586       0.26675      -0.72945
                        -----------------------------------------
Magnitude (a.u.)       :      0.78528
Magnitude (Debye)      :      1.99603

Rotational constants in cm-1:     0.020273     0.007768     0.006055
Rotational constants in MHz :   607.766988   232.881742   181.512070

                             ****ORCA TERMINATED NORMALLY****
TOTAL RUN TIME: 0 days 0 hours 0 minutes 21 seconds 436 msec
