                         Program Version 4.2.1 -  RELEASE  -
|  1> ! wB97X-D3 SP def2-SVP
|  2> %pal
|  3> nprocs 24
|  4> end
|  5>
|  6> * xyz 0 1
|  7> S 	 41.0313 	 -22.2008 	 -123.414
|  8> C 	 39.352 	 -21.877 	 -123.738
|  9> C 	 38.528 	 -22.7008 	 -123.04
| 10> C 	 39.2571 	 -23.6469 	 -122.229
| 11> C 	 40.6633 	 -23.4887 	 -122.27
| 12> H 	 38.8057 	 -24.4259 	 -121.577
| 13> C 	 36.9897 	 -22.6268 	 -123.091
| 14> H 	 36.6224 	 -21.5742 	 -122.874
| 15> H 	 36.5219 	 -23.1738 	 -122.273
| 16> C 	 36.2612 	 -23.2701 	 -124.361
| 17> H 	 36.4051 	 -24.3384 	 -124.4
| 18> H 	 35.1678 	 -23.1435 	 -124.243
| 19> C 	 36.5762 	 -22.6878 	 -125.732
| 20> H 	 35.9519 	 -23.0569 	 -126.539
| 21> H 	 36.4936 	 -21.6169 	 -125.656
| 22> H 	 37.6557 	 -22.9246 	 -125.967
| 23> S 	 42.5576 	 -23.4252 	 -120.323
| 24> C 	 43.5579 	 -24.8072 	 -120.006
| 25> C 	 43.2797 	 -25.8377 	 -120.835
| 26> C 	 42.2798 	 -25.5516 	 -121.807
| 27> C 	 41.6964 	 -24.263 	 -121.615
| 28> H 	 43.9636 	 -26.6994 	 -120.804
| 29> C 	 41.6562 	 -26.5197 	 -122.806
| 30> H 	 41.6775 	 -26.1014 	 -123.821
| 31> H 	 40.5904 	 -26.6977 	 -122.522
| 32> C 	 42.2837 	 -28.0014 	 -122.887
| 33> H 	 42.2987 	 -28.5594 	 -121.947
| 34> H 	 43.3762 	 -28.0236 	 -123.121
| 35> C 	 41.4667 	 -28.7862 	 -123.939
| 36> H 	 41.9753 	 -29.7629 	 -124.091
| 37> H 	 41.5788 	 -28.3226 	 -124.903
| 38> H 	 40.3774 	 -28.8342 	 -123.829
| 39> H 	 38.9834 	 -21.1235 	 -124.371
| 40> H 	 44.237 	 -24.8692 	 -119.223
| 41> *
| 42>
| 43>                          ****END OF INPUT****

CARTESIAN COORDINATES (ANGSTROEM)
---------------------------------
  S     41.031300  -22.200800  -123.414000
  C     39.352000  -21.877000  -123.738000
  C     38.528000  -22.700800  -123.040000
  C     39.257100  -23.646900  -122.229000
  C     40.663300  -23.488700  -122.270000
  H     38.805700  -24.425900  -121.577000
  C     36.989700  -22.626800  -123.091000
  H     36.622400  -21.574200  -122.874000
  H     36.521900  -23.173800  -122.273000
  C     36.261200  -23.270100  -124.361000
  H     36.405100  -24.338400  -124.400000
  H     35.167800  -23.143500  -124.243000
  C     36.576200  -22.687800  -125.732000
  H     35.951900  -23.056900  -126.539000
  H     36.493600  -21.616900  -125.656000
  H     37.655700  -22.924600  -125.967000
  S     42.557600  -23.425200  -120.323000
  C     43.557900  -24.807200  -120.006000
  C     43.279700  -25.837700  -120.835000
  C     42.279800  -25.551600  -121.807000
  C     41.696400  -24.263000  -121.615000
  H     43.963600  -26.699400  -120.804000
  C     41.656200  -26.519700  -122.806000
  H     41.677500  -26.101400  -123.821000
  H     40.590400  -26.697700  -122.522000
  C     42.283700  -28.001400  -122.887000
  H     42.298700  -28.559400  -121.947000
  H     43.376200  -28.023600  -123.121000
  C     41.466700  -28.786200  -123.939000
  H     41.975300  -29.762900  -124.091000
  H     41.578800  -28.322600  -124.903000
  H     40.377400  -28.834200  -123.829000
  H     38.983400  -21.123500  -124.371000
  H     44.237000  -24.869200  -119.223000

 Total Charge           Charge          ....    0
 Multiplicity           Mult            ....    1
 Number of Electrons    NEL             ....  134
 Basis Dimension        Dim             ....  322

ORBITAL ENERGIES
----------------

  NO   OCC          E(Eh)            E(eV)
   0   2.0000     -88.966024     -2420.8886
   1   2.0000     -88.963022     -2420.8069
   2   2.0000     -10.332948      -281.1738
   3   2.0000     -10.327695      -281.0309
   4   2.0000     -10.310522      -280.5636
   5   2.0000     -10.310247      -280.5561
   6   2.0000     -10.309645      -280.5397
   7   2.0000     -10.304143      -280.3900
   8   2.0000     -10.303157      -280.3631
   9   2.0000     -10.302947      -280.3574
  10   2.0000     -10.300382      -280.2877
  11   2.0000     -10.295597      -280.1574
  12   2.0000     -10.293042      -280.0879
  13   2.0000     -10.290432      -280.0169
  14   2.0000     -10.279864      -279.7293
  15   2.0000     -10.277106      -279.6543
  16   2.0000      -8.080696      -219.8869
  17   2.0000      -8.077953      -219.8123
  18   2.0000      -6.039152      -164.3337
  19   2.0000      -6.036317      -164.2565
  20   2.0000      -6.035123      -164.2240
  21   2.0000      -6.032277      -164.1466
  22   2.0000      -6.031575      -164.1275
  23   2.0000      -6.029002      -164.0575
  24   2.0000      -1.003708       -27.3123
  25   2.0000      -0.983763       -26.7696
  26   2.0000      -0.902385       -24.5552
  27   2.0000      -0.897988       -24.4355
  28   2.0000      -0.871652       -23.7188
  29   2.0000      -0.847608       -23.0646
  30   2.0000      -0.844320       -22.9751
  31   2.0000      -0.814857       -22.1734
  32   2.0000      -0.781790       -21.2736
  33   2.0000      -0.767231       -20.8774
  34   2.0000      -0.709768       -19.3138
  35   2.0000      -0.704598       -19.1731
  36   2.0000      -0.692588       -18.8463
  37   2.0000      -0.648935       -17.6584
  38   2.0000      -0.642415       -17.4810
  39   2.0000      -0.614068       -16.7096
  40   2.0000      -0.597301       -16.2534
  41   2.0000      -0.571810       -15.5597
  42   2.0000      -0.558172       -15.1886
  43   2.0000      -0.543761       -14.7965
  44   2.0000      -0.540231       -14.7004
  45   2.0000      -0.525302       -14.2942
  46   2.0000      -0.515856       -14.0371
  47   2.0000      -0.509285       -13.8584
  48   2.0000      -0.505511       -13.7557
  49   2.0000      -0.494686       -13.4611
  50   2.0000      -0.486316       -13.2333
  51   2.0000      -0.480049       -13.0628
  52   2.0000      -0.475255       -12.9324
  53   2.0000      -0.465578       -12.6690
  54   2.0000      -0.458776       -12.4839
  55   2.0000      -0.452273       -12.3070
  56   2.0000      -0.437785       -11.9127
  57   2.0000      -0.434907       -11.8344
  58   2.0000      -0.433595       -11.7987
  59   2.0000      -0.422984       -11.5100
  60   2.0000      -0.421317       -11.4646
  61   2.0000      -0.413423       -11.2498
  62   2.0000      -0.408808       -11.1242
  63   2.0000      -0.338124        -9.2008
  64   2.0000      -0.330239        -8.9863
  65   2.0000      -0.325292        -8.8516
  66   2.0000      -0.303626        -8.2621
  67   0.0000       0.037276         1.0143
  68   0.0000       0.054580         1.4852
  69   0.0000       0.121246         3.2993
  70   0.0000       0.127962         3.4820
  71   0.0000       0.128654         3.5009

MULLIKEN ATOMIC CHARGES
-----------------------
   0 S :    0.123264
   1 C :   -0.100509
   2 C :   -0.070539
   3 C :    0.037814
   4 C :   -0.174278
   5 H :    0.027517
   6 C :    0.034304
   7 H :    0.045858
   8 H :    0.021477
   9 C :   -0.084240
  10 H :    0.028532
  11 H :    0.030480
  12 C :   -0.063094
  13 H :    0.041202
  14 H :    0.022017
  15 H :    0.041988
  16 S :    0.108339
  17 C :   -0.049298
  18 C :   -0.061898
  19 C :    0.020256
  20 C :   -0.197067
  21 H :    0.031557
  22 C :    0.018628
  23 H :    0.045773
  24 H :    0.049702
  25 C :   -0.105817
  26 H :    0.032813
  27 H :    0.034365
  28 C :   -0.040822
  29 H :    0.035570
  30 H :    0.016756
  31 H :    0.039392
  32 H :    0.031060
  33 H :    0.028897
Sum of atomic charges:   -0.0000000

LOEWDIN ATOMIC CHARGES
----------------------
   0 S :    0.411573
   1 C :   -0.186017
   2 C :   -0.072405
   3 C :   -0.057326
   4 C :   -0.207478
   5 H :    0.037141
   6 C :   -0.035330
   7 H :    0.038515
   8 H :    0.031630
   9 C :   -0.041745
  10 H :    0.020630
  11 H :    0.025943
  12 C :   -0.072226
  13 H :    0.027252
  14 H :    0.018315
  15 H :    0.029807
  16 S :    0.414190
  17 C :   -0.174276
  18 C :   -0.082190
  19 C :   -0.048271
  20 C :   -0.207778
  21 H :    0.038437
  22 C :   -0.033425
  23 H :    0.036792
  24 H :    0.040303
  25 C :   -0.047137
  26 H :    0.021327
  27 H :    0.026118
  28 C :   -0.071018
  29 H :    0.031563
  30 H :    0.021568
  31 H :    0.027421
  32 H :    0.021238
  33 H :    0.016860

  Mayer bond orders larger than 0.100000
B(  0-S ,  1-C ) :   1.1458 B(  0-S ,  4-C ) :   1.1530 B(  1-C ,  2-C ) :   1.6134
B(  1-C , 32-H ) :   0.9723 B(  2-C ,  3-C ) :   1.2515 B(  2-C ,  6-C ) :   1.0122
B(  3-C ,  4-C ) :   1.5710 B(  3-C ,  5-H ) :   0.9870 B(  4-C , 20-C ) :   1.0425
B(  6-C ,  7-H ) :   0.9489 B(  6-C ,  8-H ) :   0.9422 B(  6-C ,  9-C ) :   1.0642
B(  9-C , 10-H ) :   0.9584 B(  9-C , 11-H ) :   0.9561 B(  9-C , 12-C ) :   1.0838
B( 12-C , 13-H ) :   0.9728 B( 12-C , 14-H ) :   0.9753 B( 12-C , 15-H ) :   0.9719
B( 16-S , 17-C ) :   1.1672 B( 16-S , 20-C ) :   1.1592 B( 17-C , 18-C ) :   1.6078
B( 17-C , 20-C ) :   0.1058 B( 17-C , 33-H ) :   0.9686 B( 18-C , 19-C ) :   1.2581
B( 18-C , 21-H ) :   0.9828 B( 19-C , 20-C ) :   1.5617 B( 19-C , 22-C ) :   1.0300
B( 22-C , 23-H ) :   0.9344 B( 22-C , 24-H ) :   0.9470 B( 22-C , 25-C ) :   1.0623
B( 25-C , 26-H ) :   0.9554 B( 25-C , 27-H ) :   0.9553 B( 25-C , 28-C ) :   1.0804
B( 28-C , 29-H ) :   0.9709 B( 28-C , 30-H ) :   0.9734 B( 28-C , 31-H ) :   0.9757

Dispersion correction           -0.013789185
FINAL SINGLE POINT ENERGY     -1339.881810241636

DIPOLE MOMENT
-------------
                                X             Y             Z
Electronic contribution:     16.96130      16.69857      14.85536
Nuclear contribution   :    -17.31198     -17.16882     -14.98637
                        -----------------------------------------
Total Dipole Moment    :     -0.35068      -0.47025      -0.13101
                        -----------------------------------------
Magnitude (a.u.)       :      0.60106
Magnitude (Debye)      :      1.52777

Rotational constants in cm-1:     0.018004     0.008042     0.006175
Rotational constants in MHz :   539.742772   241.087109   185.124675

                             ****ORCA TERMINATED NORMALLY****
TOTAL RUN TIME: 0 days 0 hours 0 minutes 20 seconds 715 msec
