                         Program Version 4.2.1 -  RELEASE  -
|  1> ! wB97X-D3 SP def2-SVP
|  2> %pal
|  3> nprocs 24
|  4> end
|  5>
|  6> * xyz 0 1
|  7> S 	 -105.773 	 54.75 	 -13.3242
|  8> C 	 -105.432 	 56.331 	 -13.9626
|  9> C 	 -104.128 	 56.5034 	 -14.2844
| 10> C 	 -103.332 	 55.4156 	 -13.6654
| 11> C 	 -104.095 	 54.4093 	 -13.0873
| 12> H 	 -102.21 	 55.3774 	 -13.6378
| 13> C 	 -103.454 	 57.5742 	 -15.1997
| 14> H 	 -102.496 	 57.8887 	 -14.8219
| 15> H 	 -103.99 	 58.4852 	 -15.1024
| 16> C 	 -103.327 	 57.1919 	 -16.6429
| 17> H 	 -102.905 	 56.223 	 -16.6128
| 18> H 	 -104.304 	 57.004 	 -16.9647
| 19> C 	 -102.461 	 58.0436 	 -17.5015
| 20> H 	 -102.378 	 57.6023 	 -18.4922
| 21> H 	 -102.974 	 58.9442 	 -17.6591
| 22> H 	 -101.457 	 58.2115 	 -17.0463
| 23> S 	 -104.257 	 51.6971 	 -12.9446
| 24> C 	 -103.083 	 50.8058 	 -12.0628
| 25> C 	 -102.285 	 51.6174 	 -11.3285
| 26> C 	 -102.562 	 53.0055 	 -11.4854
| 27> C 	 -103.609 	 53.2419 	 -12.4227
| 28> H 	 -101.765 	 51.1402 	 -10.5678
| 29> C 	 -101.65 	 54.0238 	 -10.872
| 30> H 	 -101.713 	 55.0068 	 -11.2607
| 31> H 	 -100.664 	 53.7918 	 -11.0761
| 32> C 	 -101.833 	 54.0174 	 -9.38037
| 33> H 	 -101.192 	 54.7411 	 -8.90423
| 34> H 	 -101.449 	 53.0569 	 -9.00191
| 35> C 	 -103.221 	 54.2822 	 -8.88865
| 36> H 	 -103.212 	 54.2166 	 -7.80619
| 37> H 	 -103.878 	 53.4903 	 -9.22442
| 38> H 	 -103.682 	 55.2292 	 -9.2087
| 39> H 	 -106.261 	 56.9639 	 -14.3643
| 40> H 	 -102.992 	 49.7623 	 -12.1072
| 41> *
| 42>
| 43>                          ****END OF INPUT****

CARTESIAN COORDINATES (ANGSTROEM)
---------------------------------
  S    -105.773000   54.750000  -13.324200
  C    -105.432000   56.331000  -13.962600
  C    -104.128000   56.503400  -14.284400
  C    -103.332000   55.415600  -13.665400
  C    -104.095000   54.409300  -13.087300
  H    -102.210000   55.377400  -13.637800
  C    -103.454000   57.574200  -15.199700
  H    -102.496000   57.888700  -14.821900
  H    -103.990000   58.485200  -15.102400
  C    -103.327000   57.191900  -16.642900
  H    -102.905000   56.223000  -16.612800
  H    -104.304000   57.004000  -16.964700
  C    -102.461000   58.043600  -17.501500
  H    -102.378000   57.602300  -18.492200
  H    -102.974000   58.944200  -17.659100
  H    -101.457000   58.211500  -17.046300
  S    -104.257000   51.697100  -12.944600
  C    -103.083000   50.805800  -12.062800
  C    -102.285000   51.617400  -11.328500
  C    -102.562000   53.005500  -11.485400
  C    -103.609000   53.241900  -12.422700
  H    -101.765000   51.140200  -10.567800
  C    -101.650000   54.023800  -10.872000
  H    -101.713000   55.006800  -11.260700
  H    -100.664000   53.791800  -11.076100
  C    -101.833000   54.017400   -9.380370
  H    -101.192000   54.741100   -8.904230
  H    -101.449000   53.056900   -9.001910
  C    -103.221000   54.282200   -8.888650
  H    -103.212000   54.216600   -7.806190
  H    -103.878000   53.490300   -9.224420
  H    -103.682000   55.229200   -9.208700
  H    -106.261000   56.963900  -14.364300
  H    -102.992000   49.762300  -12.107200

 Total Charge           Charge          ....    0
 Multiplicity           Mult            ....    1
 Number of Electrons    NEL             ....  134
 Basis Dimension        Dim             ....  322

ORBITAL ENERGIES
----------------

  NO   OCC          E(Eh)            E(eV)
   0   2.0000     -88.963780     -2420.8275
   1   2.0000     -88.962672     -2420.7974
   2   2.0000     -10.328140      -281.0430
   3   2.0000     -10.327675      -281.0303
   4   2.0000     -10.315585      -280.7013
   5   2.0000     -10.310560      -280.5646
   6   2.0000     -10.307768      -280.4886
   7   2.0000     -10.306084      -280.4428
   8   2.0000     -10.300571      -280.2928
   9   2.0000     -10.288503      -279.9644
  10   2.0000     -10.284877      -279.8657
  11   2.0000     -10.277101      -279.6541
  12   2.0000     -10.276553      -279.6392
  13   2.0000     -10.275992      -279.6240
  14   2.0000     -10.270356      -279.4706
  15   2.0000     -10.266009      -279.3523
  16   2.0000      -8.079479      -219.8538
  17   2.0000      -8.078294      -219.8216
  18   2.0000      -6.038110      -164.3053
  19   2.0000      -6.036702      -164.2670
  20   2.0000      -6.033986      -164.1931
  21   2.0000      -6.032576      -164.1547
  22   2.0000      -6.029914      -164.0823
  23   2.0000      -6.029213      -164.0632
  24   2.0000      -1.010181       -27.4884
  25   2.0000      -0.987793       -26.8792
  26   2.0000      -0.920915       -25.0594
  27   2.0000      -0.918994       -25.0071
  28   2.0000      -0.878707       -23.9108
  29   2.0000      -0.848713       -23.0947
  30   2.0000      -0.844391       -22.9771
  31   2.0000      -0.814906       -22.1747
  32   2.0000      -0.790004       -21.4971
  33   2.0000      -0.780374       -21.2351
  34   2.0000      -0.709157       -19.2971
  35   2.0000      -0.702961       -19.1285
  36   2.0000      -0.693328       -18.8664
  37   2.0000      -0.660150       -17.9636
  38   2.0000      -0.638619       -17.3777
  39   2.0000      -0.620877       -16.8949
  40   2.0000      -0.606615       -16.5068
  41   2.0000      -0.576626       -15.6908
  42   2.0000      -0.567594       -15.4450
  43   2.0000      -0.557330       -15.1657
  44   2.0000      -0.542405       -14.7596
  45   2.0000      -0.525330       -14.2950
  46   2.0000      -0.519758       -14.1433
  47   2.0000      -0.516930       -14.0664
  48   2.0000      -0.506216       -13.7748
  49   2.0000      -0.503610       -13.7039
  50   2.0000      -0.498863       -13.5747
  51   2.0000      -0.474894       -12.9225
  52   2.0000      -0.472291       -12.8517
  53   2.0000      -0.467095       -12.7103
  54   2.0000      -0.460060       -12.5189
  55   2.0000      -0.448749       -12.2111
  56   2.0000      -0.441231       -12.0065
  57   2.0000      -0.438252       -11.9254
  58   2.0000      -0.435996       -11.8640
  59   2.0000      -0.427275       -11.6267
  60   2.0000      -0.418050       -11.3757
  61   2.0000      -0.412045       -11.2123
  62   2.0000      -0.408898       -11.1267
  63   2.0000      -0.356167        -9.6918
  64   2.0000      -0.328711        -8.9447
  65   2.0000      -0.327193        -8.9034
  66   2.0000      -0.290096        -7.8939
  67   0.0000       0.031324         0.8524
  68   0.0000       0.071420         1.9434
  69   0.0000       0.111266         3.0277
  70   0.0000       0.119595         3.2543
  71   0.0000       0.131718         3.5842

MULLIKEN ATOMIC CHARGES
-----------------------
   0 S :    0.107782
   1 C :   -0.134971
   2 C :   -0.095693
   3 C :   -0.003025
   4 C :   -0.136033
   5 H :    0.032873
   6 C :    0.086550
   7 H :    0.000676
   8 H :    0.002320
   9 C :   -0.032367
  10 H :    0.006399
  11 H :    0.003767
  12 C :   -0.000019
  13 H :    0.034711
  14 H :    0.015395
  15 H :    0.038723
  16 S :    0.098307
  17 C :   -0.075506
  18 C :   -0.017791
  19 C :   -0.055317
  20 C :   -0.152918
  21 H :    0.006272
  22 C :    0.157927
  23 H :    0.001715
  24 H :    0.004583
  25 C :   -0.098851
  26 H :    0.015817
  27 H :    0.017704
  28 C :   -0.034159
  29 H :    0.026567
  30 H :    0.035366
  31 H :    0.038143
  32 H :    0.064468
  33 H :    0.040584
Sum of atomic charges:    0.0000000

LOEWDIN ATOMIC CHARGES
----------------------
   0 S :    0.408959
   1 C :   -0.203691
   2 C :   -0.057635
   3 C :   -0.066083
   4 C :   -0.206379
   5 H :    0.036109
   6 C :   -0.024366
   7 H :    0.023125
   8 H :    0.021302
   9 C :   -0.041463
  10 H :    0.020472
  11 H :    0.018033
  12 C :   -0.055099
  13 H :    0.031955
  14 H :    0.017879
  15 H :    0.032610
  16 S :    0.413895
  17 C :   -0.176416
  18 C :   -0.070769
  19 C :   -0.043116
  20 C :   -0.199301
  21 H :    0.023734
  22 C :   -0.026004
  23 H :    0.023544
  24 H :    0.025032
  25 C :   -0.040280
  26 H :    0.019932
  27 H :    0.021637
  28 C :   -0.064249
  29 H :    0.025879
  30 H :    0.024731
  31 H :    0.028918
  32 H :    0.036188
  33 H :    0.020919

  Mayer bond orders larger than 0.100000
B(  0-S ,  1-C ) :   1.1296 B(  0-S ,  4-C ) :   1.1388 B(  1-C ,  2-C ) :   1.6609
B(  1-C , 32-H ) :   0.9583 B(  2-C ,  3-C ) :   1.2062 B(  2-C ,  6-C ) :   1.0219
B(  3-C ,  4-C ) :   1.5935 B(  3-C ,  5-H ) :   0.9845 B(  4-C , 20-C ) :   1.0597
B(  6-C ,  7-H ) :   0.9365 B(  6-C ,  8-H ) :   0.9350 B(  6-C ,  9-C ) :   1.0660
B(  9-C , 10-H ) :   0.9489 B(  9-C , 11-H ) :   0.9465 B(  9-C , 12-C ) :   1.0908
B( 12-C , 13-H ) :   0.9691 B( 12-C , 14-H ) :   0.9729 B( 12-C , 15-H ) :   0.9700
B( 16-S , 17-C ) :   1.1678 B( 16-S , 20-C ) :   1.1448 B( 17-C , 18-C ) :   1.6141
B( 17-C , 33-H ) :   0.9720 B( 18-C , 19-C ) :   1.2375 B( 18-C , 21-H ) :   0.9932
B( 19-C , 20-C ) :   1.5602 B( 19-C , 22-C ) :   1.0455 B( 22-C , 23-H ) :   0.9311
B( 22-C , 24-H ) :   0.9270 B( 22-C , 25-C ) :   1.0763 B( 25-C , 26-H ) :   0.9508
B( 25-C , 27-H ) :   0.9546 B( 25-C , 28-C ) :   1.0868 B( 28-C , 29-H ) :   0.9702
B( 28-C , 30-H ) :   0.9669 B( 28-C , 31-H ) :   0.9737

Dispersion correction           -0.014274148
FINAL SINGLE POINT ENERGY     -1339.869034152535

DIPOLE MOMENT
-------------
                                X             Y             Z
Electronic contribution:    -14.14725     -16.58786       0.18439
Nuclear contribution   :     14.69283      16.82382      -0.27149
                        -----------------------------------------
Total Dipole Moment    :      0.54559       0.23597      -0.08710
                        -----------------------------------------
Magnitude (a.u.)       :      0.60077
Magnitude (Debye)      :      1.52705

Rotational constants in cm-1:     0.020976     0.007498     0.006940
Rotational constants in MHz :   628.835346   224.778240   208.052949

                             ****ORCA TERMINATED NORMALLY****
TOTAL RUN TIME: 0 days 0 hours 0 minutes 21 seconds 552 msec
