                         Program Version 4.2.1 -  RELEASE  -
|  1> ! wB97X-D3 SP def2-SVP
|  2> %pal
|  3> nprocs 24
|  4> end
|  5>
|  6> * xyz 0 1
|  7> S 	 -62.114 	 18.3387 	 20.8426
|  8> C 	 -62.4695 	 18.0062 	 22.5747
|  9> C 	 -62.1579 	 19.1668 	 23.3368
| 10> C 	 -61.6185 	 20.2146 	 22.5684
| 11> C 	 -61.5413 	 19.9429 	 21.2028
| 12> H 	 -61.3872 	 21.1772 	 22.942
| 13> C 	 -62.2532 	 19.3523 	 24.8354
| 14> H 	 -63.1574 	 18.6533 	 25.1552
| 15> H 	 -62.5133 	 20.4102 	 25.0717
| 16> C 	 -61.0041 	 19.0273 	 25.7118
| 17> H 	 -60.5828 	 17.9773 	 25.4716
| 18> H 	 -60.2398 	 19.6353 	 25.2633
| 19> C 	 -61.2718 	 19.2841 	 27.1326
| 20> H 	 -60.3299 	 19.239 	 27.6971
| 21> H 	 -61.7456 	 20.2585 	 27.2874
| 22> H 	 -61.8839 	 18.4891 	 27.5643
| 23> S 	 -61.6 	 22.2344 	 19.5909
| 24> C 	 -60.1869 	 22.8042 	 18.7337
| 25> C 	 -59.1694 	 21.88 	 19.044
| 26> C 	 -59.482 	 20.8632 	 20.0262
| 27> C 	 -60.8376 	 20.7961 	 20.2186
| 28> H 	 -58.2205 	 22.1653 	 18.6504
| 29> C 	 -58.4697 	 19.8933 	 20.5618
| 30> H 	 -58.91 	 18.9371 	 20.2849
| 31> H 	 -58.3463 	 19.9472 	 21.6642
| 32> C 	 -57.0582 	 19.95 	 19.9776
| 33> H 	 -56.569 	 20.6786 	 20.648
| 34> H 	 -56.9288 	 20.2913 	 18.9056
| 35> C 	 -56.3171 	 18.6134 	 20.1667
| 36> H 	 -56.8797 	 17.7691 	 19.7507
| 37> H 	 -56.2875 	 18.4272 	 21.2128
| 38> H 	 -55.3091 	 18.7924 	 19.7644
| 39> H 	 -62.9131 	 17.1759 	 23.0395
| 40> H 	 -59.9769 	 23.7721 	 18.2836
| 41> *
| 42>
| 43>                          ****END OF INPUT****

CARTESIAN COORDINATES (ANGSTROEM)
---------------------------------
  S    -62.114000   18.338700   20.842600
  C    -62.469500   18.006200   22.574700
  C    -62.157900   19.166800   23.336800
  C    -61.618500   20.214600   22.568400
  C    -61.541300   19.942900   21.202800
  H    -61.387200   21.177200   22.942000
  C    -62.253200   19.352300   24.835400
  H    -63.157400   18.653300   25.155200
  H    -62.513300   20.410200   25.071700
  C    -61.004100   19.027300   25.711800
  H    -60.582800   17.977300   25.471600
  H    -60.239800   19.635300   25.263300
  C    -61.271800   19.284100   27.132600
  H    -60.329900   19.239000   27.697100
  H    -61.745600   20.258500   27.287400
  H    -61.883900   18.489100   27.564300
  S    -61.600000   22.234400   19.590900
  C    -60.186900   22.804200   18.733700
  C    -59.169400   21.880000   19.044000
  C    -59.482000   20.863200   20.026200
  C    -60.837600   20.796100   20.218600
  H    -58.220500   22.165300   18.650400
  C    -58.469700   19.893300   20.561800
  H    -58.910000   18.937100   20.284900
  H    -58.346300   19.947200   21.664200
  C    -57.058200   19.950000   19.977600
  H    -56.569000   20.678600   20.648000
  H    -56.928800   20.291300   18.905600
  C    -56.317100   18.613400   20.166700
  H    -56.879700   17.769100   19.750700
  H    -56.287500   18.427200   21.212800
  H    -55.309100   18.792400   19.764400
  H    -62.913100   17.175900   23.039500
  H    -59.976900   23.772100   18.283600

 Total Charge           Charge          ....    0
 Multiplicity           Mult            ....    1
 Number of Electrons    NEL             ....  134
 Basis Dimension        Dim             ....  322

ORBITAL ENERGIES
----------------

  NO   OCC          E(Eh)            E(eV)
   0   2.0000     -88.973866     -2421.1020
   1   2.0000     -88.962660     -2420.7971
   2   2.0000     -10.331563      -281.1361
   3   2.0000     -10.323526      -280.9174
   4   2.0000     -10.320481      -280.8346
   5   2.0000     -10.319986      -280.8211
   6   2.0000     -10.304266      -280.3933
   7   2.0000     -10.304236      -280.3925
   8   2.0000     -10.303562      -280.3742
   9   2.0000     -10.292845      -280.0825
  10   2.0000     -10.291273      -280.0398
  11   2.0000     -10.290744      -280.0254
  12   2.0000     -10.290576      -280.0208
  13   2.0000     -10.289146      -279.9819
  14   2.0000     -10.279994      -279.7329
  15   2.0000     -10.276789      -279.6456
  16   2.0000      -8.087101      -220.0612
  17   2.0000      -8.077266      -219.7936
  18   2.0000      -6.045660      -164.5108
  19   2.0000      -6.041625      -164.4010
  20   2.0000      -6.038083      -164.3046
  21   2.0000      -6.035799      -164.2424
  22   2.0000      -6.031636      -164.1292
  23   2.0000      -6.028129      -164.0337
  24   2.0000      -1.004218       -27.3262
  25   2.0000      -0.980896       -26.6916
  26   2.0000      -0.913452       -24.8563
  27   2.0000      -0.911257       -24.7966
  28   2.0000      -0.869539       -23.6614
  29   2.0000      -0.853447       -23.2235
  30   2.0000      -0.846363       -23.0307
  31   2.0000      -0.811452       -22.0807
  32   2.0000      -0.778939       -21.1960
  33   2.0000      -0.770576       -20.9685
  34   2.0000      -0.702838       -19.1252
  35   2.0000      -0.698227       -18.9997
  36   2.0000      -0.697930       -18.9917
  37   2.0000      -0.647855       -17.6290
  38   2.0000      -0.640616       -17.4321
  39   2.0000      -0.617973       -16.8159
  40   2.0000      -0.597531       -16.2596
  41   2.0000      -0.575322       -15.6553
  42   2.0000      -0.569964       -15.5095
  43   2.0000      -0.560525       -15.2527
  44   2.0000      -0.535400       -14.5690
  45   2.0000      -0.525237       -14.2924
  46   2.0000      -0.516025       -14.0417
  47   2.0000      -0.511624       -13.9220
  48   2.0000      -0.504132       -13.7181
  49   2.0000      -0.502695       -13.6790
  50   2.0000      -0.495593       -13.4858
  51   2.0000      -0.475583       -12.9413
  52   2.0000      -0.472188       -12.8489
  53   2.0000      -0.467579       -12.7235
  54   2.0000      -0.459810       -12.5121
  55   2.0000      -0.444985       -12.1086
  56   2.0000      -0.438621       -11.9355
  57   2.0000      -0.432495       -11.7688
  58   2.0000      -0.431010       -11.7284
  59   2.0000      -0.427522       -11.6335
  60   2.0000      -0.420851       -11.4519
  61   2.0000      -0.410950       -11.1825
  62   2.0000      -0.408484       -11.1154
  63   2.0000      -0.335702        -9.1349
  64   2.0000      -0.325259        -8.8508
  65   2.0000      -0.319010        -8.6807
  66   2.0000      -0.310664        -8.4536
  67   0.0000       0.039125         1.0647
  68   0.0000       0.049220         1.3393
  69   0.0000       0.110062         2.9949
  70   0.0000       0.122569         3.3353
  71   0.0000       0.126929         3.4539

MULLIKEN ATOMIC CHARGES
-----------------------
   0 S :    0.120373
   1 C :   -0.095194
   2 C :   -0.072431
   3 C :    0.055075
   4 C :   -0.170724
   5 H :   -0.000142
   6 C :   -0.022820
   7 H :    0.035833
   8 H :    0.033013
   9 C :   -0.067387
  10 H :    0.034323
  11 H :    0.012856
  12 C :   -0.013268
  13 H :    0.035656
  14 H :    0.032916
  15 H :    0.034424
  16 S :    0.100971
  17 C :   -0.099846
  18 C :   -0.043898
  19 C :   -0.030493
  20 C :   -0.156100
  21 H :    0.008675
  22 C :    0.076149
  23 H :    0.026971
  24 H :    0.045724
  25 C :   -0.132801
  26 H :    0.030972
  27 H :    0.050405
  28 C :   -0.024981
  29 H :    0.039659
  30 H :    0.016831
  31 H :    0.042508
  32 H :    0.027401
  33 H :    0.069347
Sum of atomic charges:   -0.0000000

LOEWDIN ATOMIC CHARGES
----------------------
   0 S :    0.410506
   1 C :   -0.185089
   2 C :   -0.063134
   3 C :   -0.056038
   4 C :   -0.197978
   5 H :    0.026173
   6 C :   -0.041032
   7 H :    0.035853
   8 H :    0.031600
   9 C :   -0.050013
  10 H :    0.032391
  11 H :    0.017892
  12 C :   -0.065687
  13 H :    0.031579
  14 H :    0.028119
  15 H :    0.029497
  16 S :    0.411961
  17 C :   -0.195752
  18 C :   -0.074636
  19 C :   -0.050560
  20 C :   -0.213774
  21 H :    0.020952
  22 C :   -0.036609
  23 H :    0.031601
  24 H :    0.041037
  25 C :   -0.049388
  26 H :    0.026036
  27 H :    0.027908
  28 C :   -0.059544
  29 H :    0.026565
  30 H :    0.018861
  31 H :    0.031341
  32 H :    0.020293
  33 H :    0.039072

  Mayer bond orders larger than 0.100000
B(  0-S ,  1-C ) :   1.1389 B(  0-S ,  4-C ) :   1.1656 B(  1-C ,  2-C ) :   1.5769
B(  1-C ,  4-C ) :   0.1092 B(  1-C , 32-H ) :   0.9758 B(  2-C ,  3-C ) :   1.2673
B(  2-C ,  6-C ) :   1.0284 B(  3-C ,  4-C ) :   1.5535 B(  3-C ,  5-H ) :   1.0006
B(  4-C , 20-C ) :   0.9966 B(  6-C ,  7-H ) :   0.9420 B(  6-C ,  8-H ) :   0.9412
B(  6-C ,  9-C ) :   1.0558 B(  9-C , 10-H ) :   0.9495 B(  9-C , 11-H ) :   0.9500
B(  9-C , 12-C ) :   1.0881 B( 12-C , 13-H ) :   0.9686 B( 12-C , 14-H ) :   0.9690
B( 12-C , 15-H ) :   0.9719 B( 16-S , 17-C ) :   1.1647 B( 16-S , 20-C ) :   1.1457
B( 17-C , 18-C ) :   1.5934 B( 17-C , 20-C ) :   0.1006 B( 17-C , 33-H ) :   0.9650
B( 18-C , 19-C ) :   1.2569 B( 18-C , 21-H ) :   0.9836 B( 19-C , 20-C ) :   1.5819
B( 19-C , 22-C ) :   1.0310 B( 22-C , 23-H ) :   0.9384 B( 22-C , 24-H ) :   0.9229
B( 22-C , 25-C ) :   1.0684 B( 25-C , 26-H ) :   0.9542 B( 25-C , 27-H ) :   0.9549
B( 25-C , 28-C ) :   1.0825 B( 28-C , 29-H ) :   0.9774 B( 28-C , 30-H ) :   0.9723
B( 28-C , 31-H ) :   0.9723

Dispersion correction           -0.013807550
FINAL SINGLE POINT ENERGY     -1339.861291127522

DIPOLE MOMENT
-------------
                                X             Y             Z
Electronic contribution:    -17.42107       6.56465     -19.72897
Nuclear contribution   :     18.01311      -6.48551      20.34525
                        -----------------------------------------
Total Dipole Moment    :      0.59205       0.07914       0.61628
                        -----------------------------------------
Magnitude (a.u.)       :      0.85824
Magnitude (Debye)      :      2.18148

Rotational constants in cm-1:     0.016672     0.008026     0.006848
Rotational constants in MHz :   499.809693   240.617343   205.308017

                             ****ORCA TERMINATED NORMALLY****
TOTAL RUN TIME: 0 days 0 hours 0 minutes 21 seconds 177 msec
