                         Program Version 4.2.1 -  RELEASE  -
|  1> ! wB97X-D3 SP def2-SVP
|  2> %pal
|  3> nprocs 24
|  4> end
|  5>
|  6> * xyz 0 1
|  7> S 	 14.4535 	 -16.2696 	 -117.362
|  8> C 	 13.3391 	 -15.1002 	 -116.757
|  9> C 	 12.3185 	 -15.6544 	 -116.01
| 10> C 	 12.4534 	 -17.1155 	 -115.992
| 11> C 	 13.4714 	 -17.5787 	 -116.843
| 12> H 	 11.7836 	 -17.7951 	 -115.451
| 13> C 	 11.2424 	 -14.9217 	 -115.178
| 14> H 	 11.5737 	 -13.9005 	 -114.968
| 15> H 	 11.0871 	 -15.3472 	 -114.157
| 16> C 	 9.80765 	 -14.9702 	 -115.791
| 17> H 	 9.83285 	 -14.5014 	 -116.79
| 18> H 	 9.602 	 -16.0551 	 -116.009
| 19> C 	 8.59399 	 -14.4652 	 -114.969
| 20> H 	 7.68285 	 -14.8709 	 -115.454
| 21> H 	 8.55082 	 -14.7461 	 -113.908
| 22> H 	 8.50026 	 -13.3999 	 -114.911
| 23> S 	 15.4547 	 -19.5424 	 -116.555
| 24> C 	 15.0293 	 -21.1393 	 -117.163
| 25> C 	 13.7714 	 -21.3007 	 -117.608
| 26> C 	 13.0251 	 -19.989 	 -117.56
| 27> C 	 13.8473 	 -18.9936 	 -117.064
| 28> H 	 13.4398 	 -22.3302 	 -118
| 29> C 	 11.4925 	 -19.9454 	 -117.915
| 30> H 	 11.1069 	 -19.6335 	 -116.961
| 31> H 	 11.104 	 -21.0316 	 -118.128
| 32> C 	 11.1888 	 -18.9728 	 -119.109
| 33> H 	 11.5843 	 -19.3218 	 -120.082
| 34> H 	 11.6903 	 -18.0096 	 -118.872
| 35> C 	 9.66597 	 -18.6093 	 -119.242
| 36> H 	 9.0943 	 -19.2565 	 -118.494
| 37> H 	 9.22332 	 -18.7675 	 -120.219
| 38> H 	 9.49312 	 -17.4898 	 -119.091
| 39> H 	 13.4069 	 -14.0124 	 -116.813
| 40> H 	 15.6875 	 -22.0397 	 -117.078
| 41> *
| 42>
| 43>                          ****END OF INPUT****

CARTESIAN COORDINATES (ANGSTROEM)
---------------------------------
  S     14.453500  -16.269600  -117.362000
  C     13.339100  -15.100200  -116.757000
  C     12.318500  -15.654400  -116.010000
  C     12.453400  -17.115500  -115.992000
  C     13.471400  -17.578700  -116.843000
  H     11.783600  -17.795100  -115.451000
  C     11.242400  -14.921700  -115.178000
  H     11.573700  -13.900500  -114.968000
  H     11.087100  -15.347200  -114.157000
  C      9.807650  -14.970200  -115.791000
  H      9.832850  -14.501400  -116.790000
  H      9.602000  -16.055100  -116.009000
  C      8.593990  -14.465200  -114.969000
  H      7.682850  -14.870900  -115.454000
  H      8.550820  -14.746100  -113.908000
  H      8.500260  -13.399900  -114.911000
  S     15.454700  -19.542400  -116.555000
  C     15.029300  -21.139300  -117.163000
  C     13.771400  -21.300700  -117.608000
  C     13.025100  -19.989000  -117.560000
  C     13.847300  -18.993600  -117.064000
  H     13.439800  -22.330200  -118.000000
  C     11.492500  -19.945400  -117.915000
  H     11.106900  -19.633500  -116.961000
  H     11.104000  -21.031600  -118.128000
  C     11.188800  -18.972800  -119.109000
  H     11.584300  -19.321800  -120.082000
  H     11.690300  -18.009600  -118.872000
  C      9.665970  -18.609300  -119.242000
  H      9.094300  -19.256500  -118.494000
  H      9.223320  -18.767500  -120.219000
  H      9.493120  -17.489800  -119.091000
  H     13.406900  -14.012400  -116.813000
  H     15.687500  -22.039700  -117.078000

 Total Charge           Charge          ....    0
 Multiplicity           Mult            ....    1
 Number of Electrons    NEL             ....  134
 Basis Dimension        Dim             ....  322

ORBITAL ENERGIES
----------------

  NO   OCC          E(Eh)            E(eV)
   0   2.0000     -88.969955     -2420.9956
   1   2.0000     -88.967272     -2420.9225
   2   2.0000     -10.330313      -281.1021
   3   2.0000     -10.329460      -281.0789
   4   2.0000     -10.316637      -280.7300
   5   2.0000     -10.314684      -280.6768
   6   2.0000     -10.313636      -280.6483
   7   2.0000     -10.308288      -280.5028
   8   2.0000     -10.307476      -280.4807
   9   2.0000     -10.302026      -280.3324
  10   2.0000     -10.301458      -280.3169
  11   2.0000     -10.300471      -280.2901
  12   2.0000     -10.295077      -280.1433
  13   2.0000     -10.291587      -280.0483
  14   2.0000     -10.285367      -279.8791
  15   2.0000     -10.283074      -279.8167
  16   2.0000      -8.085373      -220.0142
  17   2.0000      -8.081591      -219.9113
  18   2.0000      -6.043915      -164.4633
  19   2.0000      -6.040303      -164.3650
  20   2.0000      -6.039751      -164.3500
  21   2.0000      -6.036437      -164.2598
  22   2.0000      -6.036090      -164.2504
  23   2.0000      -6.031891      -164.1361
  24   2.0000      -1.005046       -27.3487
  25   2.0000      -0.980213       -26.6730
  26   2.0000      -0.903093       -24.5744
  27   2.0000      -0.894221       -24.3330
  28   2.0000      -0.865784       -23.5592
  29   2.0000      -0.846012       -23.0212
  30   2.0000      -0.839135       -22.8340
  31   2.0000      -0.811706       -22.0876
  32   2.0000      -0.783178       -21.3114
  33   2.0000      -0.767727       -20.8909
  34   2.0000      -0.702985       -19.1292
  35   2.0000      -0.695491       -18.9253
  36   2.0000      -0.683354       -18.5950
  37   2.0000      -0.651864       -17.7381
  38   2.0000      -0.636102       -17.3092
  39   2.0000      -0.615588       -16.7510
  40   2.0000      -0.583790       -15.8857
  41   2.0000      -0.566849       -15.4247
  42   2.0000      -0.554800       -15.0969
  43   2.0000      -0.549460       -14.9516
  44   2.0000      -0.523548       -14.2465
  45   2.0000      -0.520507       -14.1637
  46   2.0000      -0.512183       -13.9372
  47   2.0000      -0.501088       -13.6353
  48   2.0000      -0.497639       -13.5415
  49   2.0000      -0.492165       -13.3925
  50   2.0000      -0.488755       -13.2997
  51   2.0000      -0.487702       -13.2711
  52   2.0000      -0.467544       -12.7225
  53   2.0000      -0.462517       -12.5857
  54   2.0000      -0.457756       -12.4562
  55   2.0000      -0.449325       -12.2268
  56   2.0000      -0.444273       -12.0893
  57   2.0000      -0.433345       -11.7919
  58   2.0000      -0.431453       -11.7404
  59   2.0000      -0.429045       -11.6749
  60   2.0000      -0.416854       -11.3432
  61   2.0000      -0.413480       -11.2514
  62   2.0000      -0.408388       -11.1128
  63   2.0000      -0.345174        -9.3927
  64   2.0000      -0.330774        -9.0008
  65   2.0000      -0.328832        -8.9480
  66   2.0000      -0.298888        -8.1331
  67   0.0000       0.036784         1.0010
  68   0.0000       0.069747         1.8979
  69   0.0000       0.103439         2.8147
  70   0.0000       0.115298         3.1374
  71   0.0000       0.126792         3.4502

MULLIKEN ATOMIC CHARGES
-----------------------
   0 S :    0.130014
   1 C :   -0.112710
   2 C :   -0.091381
   3 C :    0.023771
   4 C :   -0.184977
   5 H :    0.025812
   6 C :    0.061568
   7 H :    0.020806
   8 H :    0.031348
   9 C :   -0.110150
  10 H :    0.034458
  11 H :    0.033452
  12 C :   -0.042517
  13 H :    0.041292
  14 H :    0.028146
  15 H :    0.028439
  16 S :    0.111487
  17 C :   -0.098339
  18 C :   -0.060129
  19 C :   -0.060998
  20 C :   -0.153131
  21 H :    0.052690
  22 C :    0.059417
  23 H :    0.030509
  24 H :    0.046574
  25 C :   -0.090701
  26 H :    0.043452
  27 H :    0.058376
  28 C :   -0.088103
  29 H :    0.041465
  30 H :    0.032289
  31 H :    0.046707
  32 H :    0.046141
  33 H :    0.064925
Sum of atomic charges:   -0.0000000

LOEWDIN ATOMIC CHARGES
----------------------
   0 S :    0.434496
   1 C :   -0.209391
   2 C :   -0.062499
   3 C :   -0.060888
   4 C :   -0.211116
   5 H :    0.030698
   6 C :   -0.036404
   7 H :    0.025600
   8 H :    0.035664
   9 C :   -0.048495
  10 H :    0.025712
  11 H :    0.027732
  12 C :   -0.071291
  13 H :    0.034821
  14 H :    0.026008
  15 H :    0.020302
  16 S :    0.379361
  17 C :   -0.187638
  18 C :   -0.083987
  19 C :   -0.043914
  20 C :   -0.200514
  21 H :    0.048870
  22 C :   -0.031659
  23 H :    0.027331
  24 H :    0.040253
  25 C :   -0.046409
  26 H :    0.028848
  27 H :    0.033256
  28 C :   -0.081589
  29 H :    0.030858
  30 H :    0.021313
  31 H :    0.034887
  32 H :    0.032333
  33 H :    0.037452

  Mayer bond orders larger than 0.100000
B(  0-S ,  1-C ) :   1.1437 B(  0-S ,  4-C ) :   1.1600 B(  1-C ,  2-C ) :   1.6269
B(  1-C , 32-H ) :   0.9618 B(  2-C ,  3-C ) :   1.2392 B(  2-C ,  6-C ) :   1.0271
B(  3-C ,  4-C ) :   1.5660 B(  3-C ,  5-H ) :   0.9868 B(  4-C , 20-C ) :   1.0238
B(  6-C ,  7-H ) :   0.9447 B(  6-C ,  8-H ) :   0.9437 B(  6-C ,  9-C ) :   1.0482
B(  9-C , 10-H ) :   0.9551 B(  9-C , 11-H ) :   0.9617 B(  9-C , 12-C ) :   1.0738
B( 12-C , 13-H ) :   0.9751 B( 12-C , 14-H ) :   0.9731 B( 12-C , 15-H ) :   0.9768
B( 16-S , 17-C ) :   1.1164 B( 16-S , 20-C ) :   1.1153 B( 17-C , 18-C ) :   1.7176
B( 17-C , 33-H ) :   0.9523 B( 18-C , 19-C ) :   1.1708 B( 18-C , 21-H ) :   0.9709
B( 19-C , 20-C ) :   1.6824 B( 19-C , 22-C ) :   1.0073 B( 22-C , 23-H ) :   0.9380
B( 22-C , 24-H ) :   0.9432 B( 22-C , 25-C ) :   1.0565 B( 25-C , 26-H ) :   0.9623
B( 25-C , 27-H ) :   0.9658 B( 25-C , 28-C ) :   1.0495 B( 28-C , 29-H ) :   0.9792
B( 28-C , 30-H ) :   0.9785 B( 28-C , 31-H ) :   0.9802

Dispersion correction           -0.014637305
FINAL SINGLE POINT ENERGY     -1339.870497837225

DIPOLE MOMENT
-------------
                                X             Y             Z
Electronic contribution:     32.03443      -7.02234       0.41095
Nuclear contribution   :    -32.67058       6.97328      -0.29174
                        -----------------------------------------
Total Dipole Moment    :     -0.63615      -0.04906       0.11922
                        -----------------------------------------
Magnitude (a.u.)       :      0.64908
Magnitude (Debye)      :      1.64983

Rotational constants in cm-1:     0.018810     0.008727     0.006856
Rotational constants in MHz :   563.905466   261.631362   205.538881

                             ****ORCA TERMINATED NORMALLY****
TOTAL RUN TIME: 0 days 0 hours 0 minutes 21 seconds 745 msec
