                         Program Version 4.2.1 -  RELEASE  -
|  1> ! wB97X-D3 SP def2-SVP
|  2> %pal
|  3> nprocs 24
|  4> end
|  5>
|  6> * xyz 0 1
|  7> S 	 -42.3684 	 -6.45771 	 8.39952
|  8> C 	 -40.7735 	 -6.48056 	 7.78988
|  9> C 	 -40.353 	 -5.161 	 7.60865
| 10> C 	 -41.2731 	 -4.18074 	 8.21896
| 11> C 	 -42.4008 	 -4.75788 	 8.73131
| 12> H 	 -41.1701 	 -3.06373 	 8.16292
| 13> C 	 -39.2429 	 -4.64518 	 6.7013
| 14> H 	 -38.3787 	 -5.31637 	 6.79791
| 15> H 	 -38.8103 	 -3.69767 	 7.09063
| 16> C 	 -39.6416 	 -4.68946 	 5.21089
| 17> H 	 -40.0547 	 -5.67135 	 4.82826
| 18> H 	 -40.4825 	 -4.01604 	 4.96003
| 19> C 	 -38.4592 	 -4.21028 	 4.37241
| 20> H 	 -38.758 	 -4.04446 	 3.35371
| 21> H 	 -37.9537 	 -3.32139 	 4.68855
| 22> H 	 -37.7817 	 -4.98833 	 4.07884
| 23> S 	 -44.9837 	 -4.0353 	 8.20336
| 24> C 	 -45.9829 	 -3.33836 	 9.49956
| 25> C 	 -45.1536 	 -2.83493 	 10.471
| 26> C 	 -43.8478 	 -3.33763 	 10.377
| 27> C 	 -43.6317 	 -4.13376 	 9.25863
| 28> H 	 -45.5314 	 -2.30841 	 11.2975
| 29> C 	 -42.7607 	 -2.97808 	 11.3152
| 30> H 	 -41.9904 	 -3.76954 	 11.4627
| 31> H 	 -43.2363 	 -2.94995 	 12.2977
| 32> C 	 -41.8994 	 -1.7182 	 11.0103
| 33> H 	 -42.5322 	 -0.863469 	 11.1661
| 34> H 	 -41.7093 	 -1.77101 	 9.9827
| 35> C 	 -40.6048 	 -1.53188 	 11.8807
| 36> H 	 -40.9319 	 -0.931102 	 12.7932
| 37> H 	 -39.9369 	 -0.917272 	 11.3302
| 38> H 	 -40.1257 	 -2.44902 	 12.2609
| 39> H 	 -40.2036 	 -7.26992 	 7.48691
| 40> H 	 -47.0168 	 -3.07781 	 9.36088
| 41> *
| 42>
| 43>                          ****END OF INPUT****

CARTESIAN COORDINATES (ANGSTROEM)
---------------------------------
  S    -42.368400   -6.457710    8.399520
  C    -40.773500   -6.480560    7.789880
  C    -40.353000   -5.161000    7.608650
  C    -41.273100   -4.180740    8.218960
  C    -42.400800   -4.757880    8.731310
  H    -41.170100   -3.063730    8.162920
  C    -39.242900   -4.645180    6.701300
  H    -38.378700   -5.316370    6.797910
  H    -38.810300   -3.697670    7.090630
  C    -39.641600   -4.689460    5.210890
  H    -40.054700   -5.671350    4.828260
  H    -40.482500   -4.016040    4.960030
  C    -38.459200   -4.210280    4.372410
  H    -38.758000   -4.044460    3.353710
  H    -37.953700   -3.321390    4.688550
  H    -37.781700   -4.988330    4.078840
  S    -44.983700   -4.035300    8.203360
  C    -45.982900   -3.338360    9.499560
  C    -45.153600   -2.834930   10.471000
  C    -43.847800   -3.337630   10.377000
  C    -43.631700   -4.133760    9.258630
  H    -45.531400   -2.308410   11.297500
  C    -42.760700   -2.978080   11.315200
  H    -41.990400   -3.769540   11.462700
  H    -43.236300   -2.949950   12.297700
  C    -41.899400   -1.718200   11.010300
  H    -42.532200   -0.863469   11.166100
  H    -41.709300   -1.771010    9.982700
  C    -40.604800   -1.531880   11.880700
  H    -40.931900   -0.931102   12.793200
  H    -39.936900   -0.917272   11.330200
  H    -40.125700   -2.449020   12.260900
  H    -40.203600   -7.269920    7.486910
  H    -47.016800   -3.077810    9.360880

 Total Charge           Charge          ....    0
 Multiplicity           Mult            ....    1
 Number of Electrons    NEL             ....  134
 Basis Dimension        Dim             ....  322

ORBITAL ENERGIES
----------------

  NO   OCC          E(Eh)            E(eV)
   0   2.0000     -88.963121     -2420.8096
   1   2.0000     -88.963061     -2420.8080
   2   2.0000     -10.327549      -281.0269
   3   2.0000     -10.323260      -280.9102
   4   2.0000     -10.317191      -280.7450
   5   2.0000     -10.308761      -280.5156
   6   2.0000     -10.304429      -280.3978
   7   2.0000     -10.299142      -280.2539
   8   2.0000     -10.297343      -280.2050
   9   2.0000     -10.296629      -280.1855
  10   2.0000     -10.294721      -280.1336
  11   2.0000     -10.289537      -279.9925
  12   2.0000     -10.285229      -279.8753
  13   2.0000     -10.284332      -279.8509
  14   2.0000     -10.282310      -279.7959
  15   2.0000     -10.270916      -279.4858
  16   2.0000      -8.078776      -219.8347
  17   2.0000      -8.078190      -219.8187
  18   2.0000      -6.037301      -164.2833
  19   2.0000      -6.036628      -164.2650
  20   2.0000      -6.033056      -164.1678
  21   2.0000      -6.032793      -164.1607
  22   2.0000      -6.029520      -164.0716
  23   2.0000      -6.028859      -164.0536
  24   2.0000      -1.010934       -27.5089
  25   2.0000      -0.989045       -26.9133
  26   2.0000      -0.909039       -24.7362
  27   2.0000      -0.903667       -24.5900
  28   2.0000      -0.872679       -23.7468
  29   2.0000      -0.848411       -23.0864
  30   2.0000      -0.845365       -23.0035
  31   2.0000      -0.819623       -22.3031
  32   2.0000      -0.779207       -21.2033
  33   2.0000      -0.768955       -20.9243
  34   2.0000      -0.705974       -19.2105
  35   2.0000      -0.704490       -19.1701
  36   2.0000      -0.695572       -18.9275
  37   2.0000      -0.666691       -18.1416
  38   2.0000      -0.647932       -17.6311
  39   2.0000      -0.615149       -16.7390
  40   2.0000      -0.597948       -16.2710
  41   2.0000      -0.574788       -15.6408
  42   2.0000      -0.561519       -15.2797
  43   2.0000      -0.553622       -15.0648
  44   2.0000      -0.527903       -14.3650
  45   2.0000      -0.525032       -14.2868
  46   2.0000      -0.518302       -14.1037
  47   2.0000      -0.513804       -13.9813
  48   2.0000      -0.510189       -13.8830
  49   2.0000      -0.501226       -13.6390
  50   2.0000      -0.493318       -13.4239
  51   2.0000      -0.475502       -12.9391
  52   2.0000      -0.473452       -12.8833
  53   2.0000      -0.460767       -12.5381
  54   2.0000      -0.456855       -12.4317
  55   2.0000      -0.450900       -12.2696
  56   2.0000      -0.446777       -12.1574
  57   2.0000      -0.436308       -11.8725
  58   2.0000      -0.432396       -11.7661
  59   2.0000      -0.427614       -11.6360
  60   2.0000      -0.415887       -11.3169
  61   2.0000      -0.409508       -11.1433
  62   2.0000      -0.405823       -11.0430
  63   2.0000      -0.344525        -9.3750
  64   2.0000      -0.326733        -8.8908
  65   2.0000      -0.320837        -8.7304
  66   2.0000      -0.301244        -8.1973
  67   0.0000       0.035015         0.9528
  68   0.0000       0.060796         1.6543
  69   0.0000       0.110391         3.0039
  70   0.0000       0.118764         3.2317
  71   0.0000       0.134407         3.6574

MULLIKEN ATOMIC CHARGES
-----------------------
   0 S :    0.120204
   1 C :   -0.056670
   2 C :   -0.119881
   3 C :    0.026286
   4 C :   -0.162615
   5 H :    0.040168
   6 C :    0.045225
   7 H :    0.020203
   8 H :    0.033161
   9 C :   -0.076039
  10 H :    0.037569
  11 H :    0.031598
  12 C :   -0.024034
  13 H :    0.008210
  14 H :    0.034497
  15 H :    0.020554
  16 S :    0.104858
  17 C :   -0.090543
  18 C :   -0.008052
  19 C :   -0.024531
  20 C :   -0.153417
  21 H :    0.004373
  22 C :    0.029879
  23 H :    0.027052
  24 H :    0.013645
  25 C :   -0.031395
  26 H :    0.017858
  27 H :    0.000852
  28 C :   -0.053361
  29 H :    0.039307
  30 H :    0.032380
  31 H :    0.044548
  32 H :    0.011172
  33 H :    0.056938
Sum of atomic charges:    0.0000000

LOEWDIN ATOMIC CHARGES
----------------------
   0 S :    0.436222
   1 C :   -0.197481
   2 C :   -0.060235
   3 C :   -0.068322
   4 C :   -0.207665
   5 H :    0.038545
   6 C :   -0.039679
   7 H :    0.030365
   8 H :    0.034154
   9 C :   -0.041228
  10 H :    0.034165
  11 H :    0.025570
  12 C :   -0.073697
  13 H :    0.026249
  14 H :    0.023888
  15 H :    0.024996
  16 S :    0.409922
  17 C :   -0.169417
  18 C :   -0.061137
  19 C :   -0.062330
  20 C :   -0.208654
  21 H :    0.025994
  22 C :   -0.040236
  23 H :    0.034066
  24 H :    0.025559
  25 C :   -0.030498
  26 H :    0.020950
  27 H :    0.009862
  28 C :   -0.064188
  29 H :    0.034880
  30 H :    0.022443
  31 H :    0.027777
  32 H :    0.013110
  33 H :    0.026050

  Mayer bond orders larger than 0.100000
B(  0-S ,  1-C ) :   1.1486 B(  0-S ,  4-C ) :   1.1634 B(  1-C ,  2-C ) :   1.5896
B(  1-C , 32-H ) :   0.9855 B(  2-C ,  3-C ) :   1.2390 B(  2-C ,  6-C ) :   1.0361
B(  3-C ,  4-C ) :   1.5858 B(  3-C ,  5-H ) :   0.9805 B(  4-C , 20-C ) :   0.9923
B(  6-C ,  7-H ) :   0.9392 B(  6-C ,  8-H ) :   0.9463 B(  6-C ,  9-C ) :   1.0468
B(  9-C , 10-H ) :   0.9546 B(  9-C , 11-H ) :   0.9602 B(  9-C , 12-C ) :   1.0829
B( 12-C , 13-H ) :   0.9647 B( 12-C , 14-H ) :   0.9753 B( 12-C , 15-H ) :   0.9698
B( 16-S , 17-C ) :   1.1550 B( 16-S , 20-C ) :   1.1702 B( 17-C , 18-C ) :   1.5823
B( 17-C , 20-C ) :   0.1061 B( 17-C , 33-H ) :   0.9710 B( 18-C , 19-C ) :   1.2661
B( 18-C , 21-H ) :   0.9955 B( 19-C , 20-C ) :   1.5750 B( 19-C , 22-C ) :   1.0706
B( 22-C , 23-H ) :   0.9303 B( 22-C , 24-H ) :   0.9308 B( 22-C , 25-C ) :   1.0513
B( 25-C , 26-H ) :   0.9535 B( 25-C , 27-H ) :   0.9585 B( 25-C , 28-C ) :   1.0696
B( 28-C , 29-H ) :   0.9792 B( 28-C , 30-H ) :   0.9763 B( 28-C , 31-H ) :   0.9780

Dispersion correction           -0.014247674
FINAL SINGLE POINT ENERGY     -1339.856941869348

DIPOLE MOMENT
-------------
                                X             Y             Z
Electronic contribution:    -22.22240     -13.42222       1.43090
Nuclear contribution   :     22.60797      13.90118      -1.56644
                        -----------------------------------------
Total Dipole Moment    :      0.38557       0.47897      -0.13555
                        -----------------------------------------
Magnitude (a.u.)       :      0.62964
Magnitude (Debye)      :      1.60042

Rotational constants in cm-1:     0.018084     0.008385     0.006901
Rotational constants in MHz :   542.134443   251.366407   206.884865

                             ****ORCA TERMINATED NORMALLY****
TOTAL RUN TIME: 0 days 0 hours 0 minutes 21 seconds 354 msec
