                         Program Version 4.2.1 -  RELEASE  -
|  1> ! wB97X-D3 SP def2-SVP
|  2> %pal
|  3> nprocs 24
|  4> end
|  5>
|  6> * xyz 0 1
|  7> S 	 -114.255 	 38.3697 	 -120.682
|  8> C 	 -114.069 	 36.6974 	 -120.129
|  9> C 	 -115.139 	 35.9014 	 -120.509
| 10> C 	 -116.048 	 36.593 	 -121.36
| 11> C 	 -115.73 	 37.9636 	 -121.513
| 12> H 	 -116.962 	 36.2501 	 -121.809
| 13> C 	 -115.367 	 34.4888 	 -119.971
| 14> H 	 -114.445 	 34.1131 	 -119.73
| 15> H 	 -115.88 	 33.885 	 -120.71
| 16> C 	 -116.244 	 34.4356 	 -118.691
| 17> H 	 -116.125 	 33.3798 	 -118.319
| 18> H 	 -115.789 	 35.1271 	 -118.002
| 19> C 	 -117.8 	 34.8222 	 -118.953
| 20> H 	 -118.382 	 34.5874 	 -118.08
| 21> H 	 -117.968 	 35.8524 	 -119.075
| 22> H 	 -118.226 	 34.3811 	 -119.843
| 23> S 	 -115.567 	 39.4352 	 -123.832
| 24> C 	 -116.91 	 40.5236 	 -124.237
| 25> C 	 -117.962 	 40.4 	 -123.358
| 26> C 	 -117.659 	 39.4581 	 -122.305
| 27> C 	 -116.398 	 38.9202 	 -122.412
| 28> H 	 -118.815 	 41.0661 	 -123.463
| 29> C 	 -118.631 	 39.2117 	 -121.125
| 30> H 	 -119.197 	 40.0244 	 -120.751
| 31> H 	 -117.937 	 38.8678 	 -120.357
| 32> C 	 -119.691 	 38.0576 	 -121.392
| 33> H 	 -120.406 	 37.9405 	 -120.504
| 34> H 	 -119.171 	 37.071 	 -121.468
| 35> C 	 -120.566 	 38.2562 	 -122.657
| 36> H 	 -121.09 	 39.2221 	 -122.669
| 37> H 	 -121.352 	 37.5924 	 -122.773
| 38> H 	 -119.973 	 38.1462 	 -123.539
| 39> H 	 -113.293 	 36.3866 	 -119.461
| 40> H 	 -116.834 	 41.26 	 -124.978
| 41> *
| 42>
| 43>                          ****END OF INPUT****

CARTESIAN COORDINATES (ANGSTROEM)
---------------------------------
  S    -114.255000   38.369700  -120.682000
  C    -114.069000   36.697400  -120.129000
  C    -115.139000   35.901400  -120.509000
  C    -116.048000   36.593000  -121.360000
  C    -115.730000   37.963600  -121.513000
  H    -116.962000   36.250100  -121.809000
  C    -115.367000   34.488800  -119.971000
  H    -114.445000   34.113100  -119.730000
  H    -115.880000   33.885000  -120.710000
  C    -116.244000   34.435600  -118.691000
  H    -116.125000   33.379800  -118.319000
  H    -115.789000   35.127100  -118.002000
  C    -117.800000   34.822200  -118.953000
  H    -118.382000   34.587400  -118.080000
  H    -117.968000   35.852400  -119.075000
  H    -118.226000   34.381100  -119.843000
  S    -115.567000   39.435200  -123.832000
  C    -116.910000   40.523600  -124.237000
  C    -117.962000   40.400000  -123.358000
  C    -117.659000   39.458100  -122.305000
  C    -116.398000   38.920200  -122.412000
  H    -118.815000   41.066100  -123.463000
  C    -118.631000   39.211700  -121.125000
  H    -119.197000   40.024400  -120.751000
  H    -117.937000   38.867800  -120.357000
  C    -119.691000   38.057600  -121.392000
  H    -120.406000   37.940500  -120.504000
  H    -119.171000   37.071000  -121.468000
  C    -120.566000   38.256200  -122.657000
  H    -121.090000   39.222100  -122.669000
  H    -121.352000   37.592400  -122.773000
  H    -119.973000   38.146200  -123.539000
  H    -113.293000   36.386600  -119.461000
  H    -116.834000   41.260000  -124.978000

 Total Charge           Charge          ....    0
 Multiplicity           Mult            ....    1
 Number of Electrons    NEL             ....  134
 Basis Dimension        Dim             ....  322

ORBITAL ENERGIES
----------------

  NO   OCC          E(Eh)            E(eV)
   0   2.0000     -88.969590     -2420.9856
   1   2.0000     -88.964710     -2420.8528
   2   2.0000     -10.331222      -281.1268
   3   2.0000     -10.324067      -280.9321
   4   2.0000     -10.315465      -280.6981
   5   2.0000     -10.314371      -280.6683
   6   2.0000     -10.305210      -280.4190
   7   2.0000     -10.303342      -280.3682
   8   2.0000     -10.297930      -280.2209
   9   2.0000     -10.297464      -280.2082
  10   2.0000     -10.297136      -280.1993
  11   2.0000     -10.295820      -280.1635
  12   2.0000     -10.292349      -280.0691
  13   2.0000     -10.287194      -279.9288
  14   2.0000     -10.277386      -279.6619
  15   2.0000     -10.269131      -279.4373
  16   2.0000      -8.083847      -219.9727
  17   2.0000      -8.079706      -219.8600
  18   2.0000      -6.042243      -164.4178
  19   2.0000      -6.038367      -164.3123
  20   2.0000      -6.038162      -164.3067
  21   2.0000      -6.034822      -164.2159
  22   2.0000      -6.034256      -164.2004
  23   2.0000      -6.030417      -164.0960
  24   2.0000      -1.005129       -27.3509
  25   2.0000      -0.981814       -26.7165
  26   2.0000      -0.907390       -24.6913
  27   2.0000      -0.897087       -24.4110
  28   2.0000      -0.865079       -23.5400
  29   2.0000      -0.844300       -22.9746
  30   2.0000      -0.840617       -22.8744
  31   2.0000      -0.815590       -22.1933
  32   2.0000      -0.788764       -21.4633
  33   2.0000      -0.775890       -21.1130
  34   2.0000      -0.705156       -19.1883
  35   2.0000      -0.702139       -19.1062
  36   2.0000      -0.689586       -18.7646
  37   2.0000      -0.663613       -18.0578
  38   2.0000      -0.645216       -17.5572
  39   2.0000      -0.612700       -16.6724
  40   2.0000      -0.591012       -16.0822
  41   2.0000      -0.575179       -15.6514
  42   2.0000      -0.555777       -15.1235
  43   2.0000      -0.548238       -14.9183
  44   2.0000      -0.541105       -14.7242
  45   2.0000      -0.534702       -14.5500
  46   2.0000      -0.512169       -13.9368
  47   2.0000      -0.511455       -13.9174
  48   2.0000      -0.501956       -13.6589
  49   2.0000      -0.490730       -13.3534
  50   2.0000      -0.487307       -13.2603
  51   2.0000      -0.479836       -13.0570
  52   2.0000      -0.472195       -12.8491
  53   2.0000      -0.468561       -12.7502
  54   2.0000      -0.461879       -12.5684
  55   2.0000      -0.444615       -12.0986
  56   2.0000      -0.440790       -11.9945
  57   2.0000      -0.435092       -11.8395
  58   2.0000      -0.434222       -11.8158
  59   2.0000      -0.431272       -11.7355
  60   2.0000      -0.423013       -11.5108
  61   2.0000      -0.420947       -11.4545
  62   2.0000      -0.413233       -11.2446
  63   2.0000      -0.341084        -9.2814
  64   2.0000      -0.330117        -8.9829
  65   2.0000      -0.326130        -8.8744
  66   2.0000      -0.303066        -8.2469
  67   0.0000       0.034299         0.9333
  68   0.0000       0.064260         1.7486
  69   0.0000       0.117897         3.2081
  70   0.0000       0.120626         3.2824
  71   0.0000       0.124595         3.3904

MULLIKEN ATOMIC CHARGES
-----------------------
   0 S :    0.121130
   1 C :   -0.125962
   2 C :   -0.088996
   3 C :    0.060295
   4 C :   -0.205249
   5 H :    0.003503
   6 C :    0.117270
   7 H :   -0.001955
   8 H :    0.023265
   9 C :   -0.081342
  10 H :    0.045433
  11 H :    0.027052
  12 C :   -0.044828
  13 H :    0.033280
  14 H :    0.027333
  15 H :    0.027150
  16 S :    0.114953
  17 C :   -0.085449
  18 C :   -0.024188
  19 C :   -0.036800
  20 C :   -0.161757
  21 H :    0.025855
  22 C :    0.097716
  23 H :    0.023631
  24 H :    0.034830
  25 C :   -0.117414
  26 H :    0.038617
  27 H :    0.025879
  28 C :   -0.025350
  29 H :    0.021570
  30 H :    0.013082
  31 H :    0.036734
  32 H :    0.042676
  33 H :    0.038035
Sum of atomic charges:   -0.0000000

LOEWDIN ATOMIC CHARGES
----------------------
   0 S :    0.409824
   1 C :   -0.190697
   2 C :   -0.058941
   3 C :   -0.054266
   4 C :   -0.202409
   5 H :    0.026915
   6 C :   -0.020796
   7 H :    0.017045
   8 H :    0.028506
   9 C :   -0.027968
  10 H :    0.030108
  11 H :    0.020410
  12 C :   -0.065219
  13 H :    0.027131
  14 H :    0.020132
  15 H :    0.022224
  16 S :    0.406244
  17 C :   -0.167179
  18 C :   -0.065966
  19 C :   -0.054797
  20 C :   -0.214057
  21 H :    0.035261
  22 C :   -0.024632
  23 H :    0.024391
  24 H :    0.034014
  25 C :   -0.041625
  26 H :    0.028161
  27 H :    0.019944
  28 C :   -0.067327
  29 H :    0.025309
  30 H :    0.016503
  31 H :    0.024288
  32 H :    0.023011
  33 H :    0.016456

  Mayer bond orders larger than 0.100000
B(  0-S ,  1-C ) :   1.1433 B(  0-S ,  4-C ) :   1.1677 B(  1-C ,  2-C ) :   1.5984
B(  1-C ,  4-C ) :   0.1024 B(  1-C , 32-H ) :   0.9695 B(  2-C ,  3-C ) :   1.2448
B(  2-C ,  6-C ) :   1.0315 B(  3-C ,  4-C ) :   1.5598 B(  3-C ,  5-H ) :   0.9929
B(  4-C , 20-C ) :   1.0042 B(  6-C ,  7-H ) :   0.9313 B(  6-C ,  8-H ) :   0.9415
B(  6-C ,  9-C ) :   1.0708 B(  9-C , 10-H ) :   0.9607 B(  9-C , 11-H ) :   0.9563
B(  9-C , 12-C ) :   1.0618 B( 12-C , 13-H ) :   0.9748 B( 12-C , 14-H ) :   0.9745
B( 12-C , 15-H ) :   0.9794 B( 16-S , 17-C ) :   1.1440 B( 16-S , 20-C ) :   1.1485
B( 17-C , 18-C ) :   1.6329 B( 17-C , 33-H ) :   0.9737 B( 18-C , 19-C ) :   1.2107
B( 18-C , 21-H ) :   0.9918 B( 19-C , 20-C ) :   1.6333 B( 19-C , 22-C ) :   1.0293
B( 22-C , 23-H ) :   0.9491 B( 22-C , 24-H ) :   0.9300 B( 22-C , 25-C ) :   1.0633
B( 25-C , 26-H ) :   0.9592 B( 25-C , 27-H ) :   0.9534 B( 25-C , 28-C ) :   1.0766
B( 28-C , 29-H ) :   0.9734 B( 28-C , 30-H ) :   0.9718 B( 28-C , 31-H ) :   0.9717

Dispersion correction           -0.016065838
FINAL SINGLE POINT ENERGY     -1339.880336630518

DIPOLE MOMENT
-------------
                                X             Y             Z
Electronic contribution:     22.27499      15.06299     -11.08121
Nuclear contribution   :    -22.74209     -15.28444      11.36129
                        -----------------------------------------
Total Dipole Moment    :     -0.46710      -0.22145       0.28008
                        -----------------------------------------
Magnitude (a.u.)       :      0.58793
Magnitude (Debye)      :      1.49441

Rotational constants in cm-1:     0.018504     0.010176     0.007219
Rotational constants in MHz :   554.745598   305.078486   216.415970

                             ****ORCA TERMINATED NORMALLY****
TOTAL RUN TIME: 0 days 0 hours 0 minutes 22 seconds 575 msec
