                         Program Version 4.2.1 -  RELEASE  -
|  1> ! wB97X-D3 SP def2-SVP
|  2> %pal
|  3> nprocs 24
|  4> end
|  5>
|  6> * xyz 0 1
|  7> S 	 -2.016 	 -22.6761 	 -112.329
|  8> C 	 -1.83167 	 -24.0614 	 -113.332
|  9> C 	 -1.86283 	 -25.2427 	 -112.583
| 10> C 	 -2.01648 	 -24.9763 	 -111.182
| 11> C 	 -2.01965 	 -23.6104 	 -110.86
| 12> H 	 -2.12736 	 -25.6973 	 -110.39
| 13> C 	 -1.82678 	 -26.6401 	 -113.159
| 14> H 	 -2.50915 	 -26.584 	 -114.057
| 15> H 	 -2.14682 	 -27.3474 	 -112.411
| 16> C 	 -0.356374 	 -26.9854 	 -113.593
| 17> H 	 -0.0665619 	 -26.4454 	 -114.509
| 18> H 	 0.340757 	 -26.6148 	 -112.822
| 19> C 	 0.00272938 	 -28.4626 	 -113.844
| 20> H 	 1.08194 	 -28.6408 	 -114.03
| 21> H 	 -0.345842 	 -29.087 	 -113.021
| 22> H 	 -0.63748 	 -28.9213 	 -114.526
| 23> S 	 -2.62424 	 -21.3298 	 -109.539
| 24> C 	 -2.59866 	 -21.186 	 -107.822
| 25> C 	 -2.01226 	 -22.3168 	 -107.3
| 26> C 	 -1.73388 	 -23.3187 	 -108.256
| 27> C 	 -2.06158 	 -23 	 -109.571
| 28> H 	 -1.68624 	 -22.4428 	 -106.226
| 29> C 	 -0.985273 	 -24.5472 	 -107.818
| 30> H 	 -0.0169633 	 -24.3819 	 -107.261
| 31> H 	 -0.554654 	 -24.8582 	 -108.8
| 32> C 	 -1.875 	 -25.6185 	 -107.173
| 33> H 	 -2.75097 	 -25.6887 	 -107.783
| 34> H 	 -2.18258 	 -25.2629 	 -106.152
| 35> C 	 -1.17345 	 -26.9254 	 -106.875
| 36> H 	 -0.657392 	 -27.0966 	 -107.812
| 37> H 	 -1.81537 	 -27.7471 	 -106.701
| 38> H 	 -0.321382 	 -26.8293 	 -106.175
| 39> H 	 -2.05799 	 -24.1089 	 -114.355
| 40> H 	 -2.98167 	 -20.3507 	 -107.248
| 41> *
| 42>
| 43>                          ****END OF INPUT****

CARTESIAN COORDINATES (ANGSTROEM)
---------------------------------
  S     -2.016000  -22.676100  -112.329000
  C     -1.831670  -24.061400  -113.332000
  C     -1.862830  -25.242700  -112.583000
  C     -2.016480  -24.976300  -111.182000
  C     -2.019650  -23.610400  -110.860000
  H     -2.127360  -25.697300  -110.390000
  C     -1.826780  -26.640100  -113.159000
  H     -2.509150  -26.584000  -114.057000
  H     -2.146820  -27.347400  -112.411000
  C     -0.356374  -26.985400  -113.593000
  H     -0.066562  -26.445400  -114.509000
  H      0.340757  -26.614800  -112.822000
  C      0.002729  -28.462600  -113.844000
  H      1.081940  -28.640800  -114.030000
  H     -0.345842  -29.087000  -113.021000
  H     -0.637480  -28.921300  -114.526000
  S     -2.624240  -21.329800  -109.539000
  C     -2.598660  -21.186000  -107.822000
  C     -2.012260  -22.316800  -107.300000
  C     -1.733880  -23.318700  -108.256000
  C     -2.061580  -23.000000  -109.571000
  H     -1.686240  -22.442800  -106.226000
  C     -0.985273  -24.547200  -107.818000
  H     -0.016963  -24.381900  -107.261000
  H     -0.554654  -24.858200  -108.800000
  C     -1.875000  -25.618500  -107.173000
  H     -2.750970  -25.688700  -107.783000
  H     -2.182580  -25.262900  -106.152000
  C     -1.173450  -26.925400  -106.875000
  H     -0.657392  -27.096600  -107.812000
  H     -1.815370  -27.747100  -106.701000
  H     -0.321382  -26.829300  -106.175000
  H     -2.057990  -24.108900  -114.355000
  H     -2.981670  -20.350700  -107.248000

 Total Charge           Charge          ....    0
 Multiplicity           Mult            ....    1
 Number of Electrons    NEL             ....  134
 Basis Dimension        Dim             ....  322

ORBITAL ENERGIES
----------------

  NO   OCC          E(Eh)            E(eV)
   0   2.0000     -88.969282     -2420.9772
   1   2.0000     -88.963567     -2420.8217
   2   2.0000     -10.333963      -281.2014
   3   2.0000     -10.331448      -281.1330
   4   2.0000     -10.319791      -280.8158
   5   2.0000     -10.309169      -280.5267
   6   2.0000     -10.304879      -280.4100
   7   2.0000     -10.302785      -280.3530
   8   2.0000     -10.301499      -280.3180
   9   2.0000     -10.297301      -280.2038
  10   2.0000     -10.295647      -280.1588
  11   2.0000     -10.294530      -280.1284
  12   2.0000     -10.290940      -280.0307
  13   2.0000     -10.287648      -279.9411
  14   2.0000     -10.275310      -279.6054
  15   2.0000     -10.274928      -279.5950
  16   2.0000      -8.084402      -219.9878
  17   2.0000      -8.079013      -219.8411
  18   2.0000      -6.042983      -164.4379
  19   2.0000      -6.038801      -164.3241
  20   2.0000      -6.037574      -164.2907
  21   2.0000      -6.035114      -164.2238
  22   2.0000      -6.033366      -164.1762
  23   2.0000      -6.029724      -164.0771
  24   2.0000      -1.013968       -27.5915
  25   2.0000      -0.989482       -26.9252
  26   2.0000      -0.913548       -24.8589
  27   2.0000      -0.910067       -24.7642
  28   2.0000      -0.874764       -23.8036
  29   2.0000      -0.857503       -23.3339
  30   2.0000      -0.847911       -23.0728
  31   2.0000      -0.817527       -22.2460
  32   2.0000      -0.781466       -21.2648
  33   2.0000      -0.772511       -21.0211
  34   2.0000      -0.709846       -19.3159
  35   2.0000      -0.703853       -19.1528
  36   2.0000      -0.697980       -18.9930
  37   2.0000      -0.667801       -18.1718
  38   2.0000      -0.641997       -17.4696
  39   2.0000      -0.618567       -16.8321
  40   2.0000      -0.598897       -16.2968
  41   2.0000      -0.569376       -15.4935
  42   2.0000      -0.563581       -15.3358
  43   2.0000      -0.555102       -15.1051
  44   2.0000      -0.536095       -14.5879
  45   2.0000      -0.531091       -14.4517
  46   2.0000      -0.525253       -14.2929
  47   2.0000      -0.518240       -14.1020
  48   2.0000      -0.510348       -13.8873
  49   2.0000      -0.503306       -13.6957
  50   2.0000      -0.494542       -13.4572
  51   2.0000      -0.489013       -13.3067
  52   2.0000      -0.471017       -12.8170
  53   2.0000      -0.461331       -12.5535
  54   2.0000      -0.458483       -12.4760
  55   2.0000      -0.450461       -12.2577
  56   2.0000      -0.445806       -12.1310
  57   2.0000      -0.441408       -12.0113
  58   2.0000      -0.432414       -11.7666
  59   2.0000      -0.429075       -11.6757
  60   2.0000      -0.413114       -11.2414
  61   2.0000      -0.411137       -11.1876
  62   2.0000      -0.402134       -10.9426
  63   2.0000      -0.363665        -9.8958
  64   2.0000      -0.335743        -9.1360
  65   2.0000      -0.327163        -8.9026
  66   2.0000      -0.281571        -7.6619
  67   0.0000       0.013719         0.3733
  68   0.0000       0.079651         2.1674
  69   0.0000       0.104782         2.8513
  70   0.0000       0.115859         3.1527
  71   0.0000       0.133965         3.6454

MULLIKEN ATOMIC CHARGES
-----------------------
   0 S :    0.114504
   1 C :   -0.077309
   2 C :   -0.130164
   3 C :    0.008196
   4 C :   -0.122762
   5 H :    0.003557
   6 C :    0.081096
   7 H :    0.045582
   8 H :    0.021186
   9 C :   -0.105073
  10 H :    0.032245
  11 H :    0.038393
  12 C :   -0.015577
  13 H :    0.053722
  14 H :    0.007238
  15 H :    0.004107
  16 S :    0.079382
  17 C :   -0.079089
  18 C :   -0.031774
  19 C :   -0.063369
  20 C :   -0.112710
  21 H :    0.039585
  22 C :   -0.018291
  23 H :    0.039632
  24 H :    0.020183
  25 C :   -0.066904
  26 H :    0.029368
  27 H :    0.028723
  28 C :   -0.001023
  29 H :    0.003826
  30 H :    0.037588
  31 H :    0.033011
  32 H :    0.037252
  33 H :    0.065666
Sum of atomic charges:   -0.0000000

LOEWDIN ATOMIC CHARGES
----------------------
   0 S :    0.426760
   1 C :   -0.209955
   2 C :   -0.055435
   3 C :   -0.069269
   4 C :   -0.193999
   5 H :    0.026809
   6 C :   -0.028285
   7 H :    0.039938
   8 H :    0.027719
   9 C :   -0.042805
  10 H :    0.024766
  11 H :    0.027649
  12 C :   -0.073531
  13 H :    0.035614
  14 H :    0.023775
  15 H :    0.015863
  16 S :    0.408794
  17 C :   -0.188063
  18 C :   -0.078812
  19 C :   -0.064176
  20 C :   -0.188849
  21 H :    0.042094
  22 C :   -0.045445
  23 H :    0.036305
  24 H :    0.029703
  25 C :   -0.041042
  26 H :    0.021065
  27 H :    0.026268
  28 C :   -0.065120
  29 H :    0.021753
  30 H :    0.023325
  31 H :    0.030813
  32 H :    0.020655
  33 H :    0.035118

  Mayer bond orders larger than 0.100000
B(  0-S ,  1-C ) :   1.1453 B(  0-S ,  4-C ) :   1.1592 B(  1-C ,  2-C ) :   1.5813
B(  1-C ,  4-C ) :   0.1033 B(  1-C , 32-H ) :   0.9663 B(  2-C ,  3-C ) :   1.2753
B(  2-C ,  6-C ) :   1.0341 B(  3-C ,  4-C ) :   1.5214 B(  3-C ,  5-H ) :   0.9966
B(  4-C , 20-C ) :   1.1059 B(  6-C ,  7-H ) :   0.9360 B(  6-C ,  8-H ) :   0.9434
B(  6-C ,  9-C ) :   1.0490 B(  9-C , 10-H ) :   0.9555 B(  9-C , 11-H ) :   0.9615
B(  9-C , 12-C ) :   1.0858 B( 12-C , 13-H ) :   0.9748 B( 12-C , 14-H ) :   0.9674
B( 12-C , 15-H ) :   0.9666 B( 16-S , 17-C ) :   1.1718 B( 16-S , 20-C ) :   1.1280
B( 17-C , 18-C ) :   1.5604 B( 17-C , 20-C ) :   0.1038 B( 17-C , 33-H ) :   0.9714
B( 18-C , 19-C ) :   1.2886 B( 18-C , 21-H ) :   0.9794 B( 19-C , 20-C ) :   1.5500
B( 19-C , 22-C ) :   1.0368 B( 22-C , 23-H ) :   0.9418 B( 22-C , 24-H ) :   0.9359
B( 22-C , 25-C ) :   1.0537 B( 25-C , 26-H ) :   0.9532 B( 25-C , 27-H ) :   0.9534
B( 25-C , 28-C ) :   1.0803 B( 28-C , 29-H ) :   0.9708 B( 28-C , 30-H ) :   0.9732
B( 28-C , 31-H ) :   0.9703

Dispersion correction           -0.013756443
FINAL SINGLE POINT ENERGY     -1339.868955526638

DIPOLE MOMENT
-------------
                                X             Y             Z
Electronic contribution:     -9.44989      30.77290      -2.83608
Nuclear contribution   :      9.51550     -31.35678       3.07289
                        -----------------------------------------
Total Dipole Moment    :      0.06561      -0.58388       0.23681
                        -----------------------------------------
Magnitude (a.u.)       :      0.63348
Magnitude (Debye)      :      1.61018

Rotational constants in cm-1:     0.017809     0.008847     0.006111
Rotational constants in MHz :   533.890894   265.231090   183.200434

                             ****ORCA TERMINATED NORMALLY****
TOTAL RUN TIME: 0 days 0 hours 0 minutes 21 seconds 426 msec
