                         Program Version 4.2.1 -  RELEASE  -
|  1> ! wB97X-D3 SP def2-SVP
|  2> %pal
|  3> nprocs 24
|  4> end
|  5>
|  6> * xyz 0 1
|  7> S 	 -82.5324 	 -43.1036 	 -89.9073
|  8> C 	 -81.5138 	 -41.8147 	 -90.464
|  9> C 	 -82.2902 	 -40.7444 	 -90.9398
| 10> C 	 -83.664 	 -41.0706 	 -90.9142
| 11> C 	 -83.9239 	 -42.3532 	 -90.5027
| 12> H 	 -84.4491 	 -40.5287 	 -91.3478
| 13> C 	 -81.867 	 -39.4199 	 -91.524
| 14> H 	 -82.6464 	 -38.7151 	 -91.1306
| 15> H 	 -82.0637 	 -39.5191 	 -92.5673
| 16> C 	 -80.3566 	 -39.0829 	 -91.213
| 17> H 	 -80.3491 	 -39.3185 	 -90.1029
| 18> H 	 -79.6098 	 -39.7972 	 -91.622
| 19> C 	 -80.0364 	 -37.5992 	 -91.439
| 20> H 	 -80.8987 	 -37.016 	 -91.1375
| 21> H 	 -79.1018 	 -37.4254 	 -90.9542
| 22> H 	 -79.7848 	 -37.3724 	 -92.4315
| 23> S 	 -85.8971 	 -43.3174 	 -92.0724
| 24> C 	 -87.2691 	 -44.1632 	 -91.2976
| 25> C 	 -87.0741 	 -44.2646 	 -89.9364
| 26> C 	 -86.0189 	 -43.5003 	 -89.3856
| 27> C 	 -85.2523 	 -42.994 	 -90.4631
| 28> H 	 -87.7002 	 -44.9563 	 -89.3879
| 29> C 	 -85.7389 	 -43.5119 	 -87.9529
| 30> H 	 -86.6513 	 -43.4534 	 -87.497
| 31> H 	 -85.1833 	 -42.5612 	 -87.8068
| 32> C 	 -84.887 	 -44.6594 	 -87.3118
| 33> H 	 -84.769 	 -44.4045 	 -86.2479
| 34> H 	 -83.8977 	 -44.6352 	 -87.8204
| 35> C 	 -85.4315 	 -46.0965 	 -87.4037
| 36> H 	 -84.8012 	 -46.9007 	 -86.9683
| 37> H 	 -85.382 	 -46.4242 	 -88.494
| 38> H 	 -86.4378 	 -46.1193 	 -86.9884
| 39> H 	 -80.4707 	 -41.9317 	 -90.4283
| 40> H 	 -87.9166 	 -44.7669 	 -91.9267
| 41> *
| 42>
| 43>                          ****END OF INPUT****

CARTESIAN COORDINATES (ANGSTROEM)
---------------------------------
  S    -82.532400  -43.103600  -89.907300
  C    -81.513800  -41.814700  -90.464000
  C    -82.290200  -40.744400  -90.939800
  C    -83.664000  -41.070600  -90.914200
  C    -83.923900  -42.353200  -90.502700
  H    -84.449100  -40.528700  -91.347800
  C    -81.867000  -39.419900  -91.524000
  H    -82.646400  -38.715100  -91.130600
  H    -82.063700  -39.519100  -92.567300
  C    -80.356600  -39.082900  -91.213000
  H    -80.349100  -39.318500  -90.102900
  H    -79.609800  -39.797200  -91.622000
  C    -80.036400  -37.599200  -91.439000
  H    -80.898700  -37.016000  -91.137500
  H    -79.101800  -37.425400  -90.954200
  H    -79.784800  -37.372400  -92.431500
  S    -85.897100  -43.317400  -92.072400
  C    -87.269100  -44.163200  -91.297600
  C    -87.074100  -44.264600  -89.936400
  C    -86.018900  -43.500300  -89.385600
  C    -85.252300  -42.994000  -90.463100
  H    -87.700200  -44.956300  -89.387900
  C    -85.738900  -43.511900  -87.952900
  H    -86.651300  -43.453400  -87.497000
  H    -85.183300  -42.561200  -87.806800
  C    -84.887000  -44.659400  -87.311800
  H    -84.769000  -44.404500  -86.247900
  H    -83.897700  -44.635200  -87.820400
  C    -85.431500  -46.096500  -87.403700
  H    -84.801200  -46.900700  -86.968300
  H    -85.382000  -46.424200  -88.494000
  H    -86.437800  -46.119300  -86.988400
  H    -80.470700  -41.931700  -90.428300
  H    -87.916600  -44.766900  -91.926700

 Total Charge           Charge          ....    0
 Multiplicity           Mult            ....    1
 Number of Electrons    NEL             ....  134
 Basis Dimension        Dim             ....  322

ORBITAL ENERGIES
----------------

  NO   OCC          E(Eh)            E(eV)
   0   2.0000     -88.965072     -2420.8627
   1   2.0000     -88.963944     -2420.8320
   2   2.0000     -10.328891      -281.0634
   3   2.0000     -10.319818      -280.8165
   4   2.0000     -10.315271      -280.6928
   5   2.0000     -10.309575      -280.5378
   6   2.0000     -10.300525      -280.2915
   7   2.0000     -10.300389      -280.2878
   8   2.0000     -10.296158      -280.1727
   9   2.0000     -10.294809      -280.1360
  10   2.0000     -10.291604      -280.0488
  11   2.0000     -10.291321      -280.0411
  12   2.0000     -10.285159      -279.8734
  13   2.0000     -10.283744      -279.8349
  14   2.0000     -10.281751      -279.7807
  15   2.0000     -10.272654      -279.5331
  16   2.0000      -8.079810      -219.8628
  17   2.0000      -8.079063      -219.8425
  18   2.0000      -6.038092      -164.3048
  19   2.0000      -6.037449      -164.2873
  20   2.0000      -6.034121      -164.1968
  21   2.0000      -6.033806      -164.1882
  22   2.0000      -6.030806      -164.1066
  23   2.0000      -6.029875      -164.0812
  24   2.0000      -1.009796       -27.4780
  25   2.0000      -0.982817       -26.7438
  26   2.0000      -0.909527       -24.7495
  27   2.0000      -0.908262       -24.7151
  28   2.0000      -0.864121       -23.5139
  29   2.0000      -0.856122       -23.2963
  30   2.0000      -0.847565       -23.0634
  31   2.0000      -0.811241       -22.0750
  32   2.0000      -0.786368       -21.3982
  33   2.0000      -0.770028       -20.9535
  34   2.0000      -0.712405       -19.3855
  35   2.0000      -0.701603       -19.0916
  36   2.0000      -0.681440       -18.5429
  37   2.0000      -0.663504       -18.0549
  38   2.0000      -0.649252       -17.6670
  39   2.0000      -0.605960       -16.4890
  40   2.0000      -0.593300       -16.1445
  41   2.0000      -0.569907       -15.5080
  42   2.0000      -0.564594       -15.3634
  43   2.0000      -0.555872       -15.1260
  44   2.0000      -0.535417       -14.5694
  45   2.0000      -0.527678       -14.3588
  46   2.0000      -0.523587       -14.2475
  47   2.0000      -0.515258       -14.0209
  48   2.0000      -0.504783       -13.7358
  49   2.0000      -0.493848       -13.4383
  50   2.0000      -0.487703       -13.2711
  51   2.0000      -0.486019       -13.2252
  52   2.0000      -0.472065       -12.8455
  53   2.0000      -0.465154       -12.6575
  54   2.0000      -0.455852       -12.4044
  55   2.0000      -0.452561       -12.3148
  56   2.0000      -0.439635       -11.9631
  57   2.0000      -0.435494       -11.8504
  58   2.0000      -0.433613       -11.7992
  59   2.0000      -0.427984       -11.6460
  60   2.0000      -0.419449       -11.4138
  61   2.0000      -0.413274       -11.2458
  62   2.0000      -0.408865       -11.1258
  63   2.0000      -0.334810        -9.1106
  64   2.0000      -0.332876        -9.0580
  65   2.0000      -0.323209        -8.7950
  66   2.0000      -0.295328        -8.0363
  67   0.0000       0.038676         1.0524
  68   0.0000       0.062052         1.6885
  69   0.0000       0.107561         2.9269
  70   0.0000       0.112372         3.0578
  71   0.0000       0.131343         3.5740

MULLIKEN ATOMIC CHARGES
-----------------------
   0 S :    0.119297
   1 C :   -0.138108
   2 C :   -0.077060
   3 C :    0.038372
   4 C :   -0.158773
   5 H :   -0.009491
   6 C :    0.063684
   7 H :    0.044266
   8 H :    0.038134
   9 C :   -0.145872
  10 H :    0.038679
  11 H :    0.044184
  12 C :    0.030445
  13 H :    0.035469
  14 H :    0.023413
  15 H :    0.015484
  16 S :    0.100361
  17 C :   -0.096678
  18 C :   -0.044148
  19 C :   -0.023537
  20 C :   -0.188536
  21 H :    0.019188
  22 C :    0.096093
  23 H :    0.002009
  24 H :    0.037761
  25 C :   -0.060892
  26 H :    0.038918
  27 H :    0.029598
  28 C :   -0.087742
  29 H :    0.043332
  30 H :    0.043550
  31 H :    0.036265
  32 H :    0.032243
  33 H :    0.060091
Sum of atomic charges:   -0.0000000

LOEWDIN ATOMIC CHARGES
----------------------
   0 S :    0.445383
   1 C :   -0.206820
   2 C :   -0.056918
   3 C :   -0.066717
   4 C :   -0.219542
   5 H :    0.022295
   6 C :   -0.034122
   7 H :    0.041521
   8 H :    0.030154
   9 C :   -0.047477
  10 H :    0.029915
  11 H :    0.027818
  12 C :   -0.057444
  13 H :    0.029131
  14 H :    0.026859
  15 H :    0.018550
  16 S :    0.390084
  17 C :   -0.182183
  18 C :   -0.062326
  19 C :   -0.062142
  20 C :   -0.184821
  21 H :    0.030384
  22 C :   -0.031782
  23 H :    0.019546
  24 H :    0.044043
  25 C :   -0.036640
  26 H :    0.026798
  27 H :    0.019029
  28 C :   -0.080366
  29 H :    0.032006
  30 H :    0.034202
  31 H :    0.021646
  32 H :    0.014194
  33 H :    0.025743

  Mayer bond orders larger than 0.100000
B(  0-S ,  1-C ) :   1.1499 B(  0-S ,  4-C ) :   1.1814 B(  1-C ,  2-C ) :   1.5621
B(  1-C , 32-H ) :   0.9838 B(  2-C ,  3-C ) :   1.2659 B(  2-C ,  6-C ) :   1.0060
B(  3-C ,  4-C ) :   1.5647 B(  3-C ,  5-H ) :   1.0014 B(  4-C , 20-C ) :   0.9945
B(  6-C ,  7-H ) :   0.9413 B(  6-C ,  8-H ) :   0.9315 B(  6-C ,  9-C ) :   1.0603
B(  9-C , 10-H ) :   0.9617 B(  9-C , 11-H ) :   0.9509 B(  9-C , 12-C ) :   1.0794
B( 12-C , 13-H ) :   0.9751 B( 12-C , 14-H ) :   0.9697 B( 12-C , 15-H ) :   0.9715
B( 16-S , 17-C ) :   1.1288 B( 16-S , 20-C ) :   1.1730 B( 17-C , 18-C ) :   1.6263
B( 17-C , 20-C ) :   0.1056 B( 17-C , 33-H ) :   0.9669 B( 18-C , 19-C ) :   1.2220
B( 18-C , 21-H ) :   0.9831 B( 19-C , 20-C ) :   1.5666 B( 19-C , 22-C ) :   1.0626
B( 22-C , 23-H ) :   0.9191 B( 22-C , 24-H ) :   0.9201 B( 22-C , 25-C ) :   1.0709
B( 25-C , 26-H ) :   0.9547 B( 25-C , 27-H ) :   0.9499 B( 25-C , 28-C ) :   1.0804
B( 28-C , 29-H ) :   0.9719 B( 28-C , 30-H ) :   0.9705 B( 28-C , 31-H ) :   0.9744

Dispersion correction           -0.014516388
FINAL SINGLE POINT ENERGY     -1339.864948460231

DIPOLE MOMENT
-------------
                                X             Y             Z
Electronic contribution:     -8.83884      -7.97058      -9.28800
Nuclear contribution   :      8.99773       8.06396       9.40083
                        -----------------------------------------
Total Dipole Moment    :      0.15889       0.09338       0.11283
                        -----------------------------------------
Magnitude (a.u.)       :      0.21609
Magnitude (Debye)      :      0.54925

Rotational constants in cm-1:     0.025804     0.007076     0.006035
Rotational constants in MHz :   773.579280   212.130538   180.910553

                             ****ORCA TERMINATED NORMALLY****
TOTAL RUN TIME: 0 days 0 hours 0 minutes 21 seconds 275 msec
