                         Program Version 4.2.1 -  RELEASE  -
|  1> ! wB97X-D3 SP def2-SVP
|  2> %pal
|  3> nprocs 24
|  4> end
|  5>
|  6> * xyz 0 1
|  7> S 	 -108.645 	 53.8817 	 -100.727
|  8> C 	 -110.191 	 53.1789 	 -100.998
|  9> C 	 -111.081 	 54.1009 	 -101.48
| 10> C 	 -110.559 	 55.3979 	 -101.728
| 11> C 	 -109.247 	 55.4603 	 -101.347
| 12> H 	 -111.048 	 56.2743 	 -102.062
| 13> C 	 -112.592 	 53.8372 	 -101.52
| 14> H 	 -113.09 	 54.23 	 -100.579
| 15> H 	 -112.717 	 52.7751 	 -101.432
| 16> C 	 -113.399 	 54.4624 	 -102.708
| 17> H 	 -113.022 	 55.4893 	 -102.972
| 18> H 	 -113.36 	 53.8574 	 -103.643
| 19> C 	 -114.962 	 54.5352 	 -102.553
| 20> H 	 -115.504 	 53.5641 	 -102.376
| 21> H 	 -115.194 	 55.2723 	 -101.78
| 22> H 	 -115.412 	 54.9846 	 -103.465
| 23> S 	 -107.219 	 56.6374 	 -99.8925
| 24> C 	 -106.593 	 58.2409 	 -100.333
| 25> C 	 -107.415 	 58.8409 	 -101.32
| 26> C 	 -108.356 	 57.9338 	 -101.816
| 27> C 	 -108.384 	 56.6519 	 -101.232
| 28> H 	 -107.242 	 59.8876 	 -101.613
| 29> C 	 -109.238 	 58.3343 	 -102.904
| 30> H 	 -109.971 	 57.6063 	 -103.224
| 31> H 	 -108.584 	 58.422 	 -103.782
| 32> C 	 -109.943 	 59.7157 	 -102.747
| 33> H 	 -110.563 	 59.8545 	 -103.678
| 34> H 	 -109.188 	 60.5093 	 -102.621
| 35> C 	 -110.792 	 59.703 	 -101.483
| 36> H 	 -111.283 	 58.7417 	 -101.197
| 37> H 	 -111.543 	 60.524 	 -101.52
| 38> H 	 -110.19 	 59.965 	 -100.605
| 39> H 	 -110.512 	 52.1982 	 -100.716
| 40> H 	 -105.75 	 58.7143 	 -99.7784
| 41> *
| 42>
| 43>                          ****END OF INPUT****

CARTESIAN COORDINATES (ANGSTROEM)
---------------------------------
  S    -108.645000   53.881700  -100.727000
  C    -110.191000   53.178900  -100.998000
  C    -111.081000   54.100900  -101.480000
  C    -110.559000   55.397900  -101.728000
  C    -109.247000   55.460300  -101.347000
  H    -111.048000   56.274300  -102.062000
  C    -112.592000   53.837200  -101.520000
  H    -113.090000   54.230000  -100.579000
  H    -112.717000   52.775100  -101.432000
  C    -113.399000   54.462400  -102.708000
  H    -113.022000   55.489300  -102.972000
  H    -113.360000   53.857400  -103.643000
  C    -114.962000   54.535200  -102.553000
  H    -115.504000   53.564100  -102.376000
  H    -115.194000   55.272300  -101.780000
  H    -115.412000   54.984600  -103.465000
  S    -107.219000   56.637400  -99.892500
  C    -106.593000   58.240900  -100.333000
  C    -107.415000   58.840900  -101.320000
  C    -108.356000   57.933800  -101.816000
  C    -108.384000   56.651900  -101.232000
  H    -107.242000   59.887600  -101.613000
  C    -109.238000   58.334300  -102.904000
  H    -109.971000   57.606300  -103.224000
  H    -108.584000   58.422000  -103.782000
  C    -109.943000   59.715700  -102.747000
  H    -110.563000   59.854500  -103.678000
  H    -109.188000   60.509300  -102.621000
  C    -110.792000   59.703000  -101.483000
  H    -111.283000   58.741700  -101.197000
  H    -111.543000   60.524000  -101.520000
  H    -110.190000   59.965000  -100.605000
  H    -110.512000   52.198200  -100.716000
  H    -105.750000   58.714300  -99.778400

 Total Charge           Charge          ....    0
 Multiplicity           Mult            ....    1
 Number of Electrons    NEL             ....  134
 Basis Dimension        Dim             ....  322

ORBITAL ENERGIES
----------------

  NO   OCC          E(Eh)            E(eV)
   0   2.0000     -88.968701     -2420.9614
   1   2.0000     -88.966386     -2420.8984
   2   2.0000     -10.337085      -281.2864
   3   2.0000     -10.331816      -281.1430
   4   2.0000     -10.328359      -281.0489
   5   2.0000     -10.309406      -280.5332
   6   2.0000     -10.302790      -280.3532
   7   2.0000     -10.301269      -280.3118
   8   2.0000     -10.300591      -280.2933
   9   2.0000     -10.298480      -280.2359
  10   2.0000     -10.298427      -280.2344
  11   2.0000     -10.296098      -280.1711
  12   2.0000     -10.292481      -280.0727
  13   2.0000     -10.287252      -279.9304
  14   2.0000     -10.286411      -279.9075
  15   2.0000     -10.280588      -279.7490
  16   2.0000      -8.083065      -219.9514
  17   2.0000      -8.080188      -219.8731
  18   2.0000      -6.041716      -164.4035
  19   2.0000      -6.038688      -164.3211
  20   2.0000      -6.037685      -164.2938
  21   2.0000      -6.034739      -164.2136
  22   2.0000      -6.033632      -164.1835
  23   2.0000      -6.031109      -164.1148
  24   2.0000      -1.006481       -27.3877
  25   2.0000      -0.984451       -26.7883
  26   2.0000      -0.914089       -24.8736
  27   2.0000      -0.899647       -24.4806
  28   2.0000      -0.869296       -23.6547
  29   2.0000      -0.852852       -23.2073
  30   2.0000      -0.844640       -22.9838
  31   2.0000      -0.817459       -22.2442
  32   2.0000      -0.779897       -21.2221
  33   2.0000      -0.767515       -20.8851
  34   2.0000      -0.709791       -19.3144
  35   2.0000      -0.695803       -18.9338
  36   2.0000      -0.689443       -18.7607
  37   2.0000      -0.659606       -17.9488
  38   2.0000      -0.645002       -17.5514
  39   2.0000      -0.626274       -17.0418
  40   2.0000      -0.601387       -16.3646
  41   2.0000      -0.566015       -15.4021
  42   2.0000      -0.557272       -15.1641
  43   2.0000      -0.552984       -15.0475
  44   2.0000      -0.536351       -14.5949
  45   2.0000      -0.525592       -14.3021
  46   2.0000      -0.514538       -14.0013
  47   2.0000      -0.511064       -13.9068
  48   2.0000      -0.503589       -13.7034
  49   2.0000      -0.500364       -13.6156
  50   2.0000      -0.487872       -13.2757
  51   2.0000      -0.483948       -13.1689
  52   2.0000      -0.473077       -12.8731
  53   2.0000      -0.468910       -12.7597
  54   2.0000      -0.459826       -12.5125
  55   2.0000      -0.452418       -12.3109
  56   2.0000      -0.444685       -12.1005
  57   2.0000      -0.431793       -11.7497
  58   2.0000      -0.427946       -11.6450
  59   2.0000      -0.424987       -11.5645
  60   2.0000      -0.422380       -11.4935
  61   2.0000      -0.413699       -11.2573
  62   2.0000      -0.410566       -11.1721
  63   2.0000      -0.360518        -9.8102
  64   2.0000      -0.334316        -9.0972
  65   2.0000      -0.327266        -8.9054
  66   2.0000      -0.281250        -7.6532
  67   0.0000       0.018250         0.4966
  68   0.0000       0.076019         2.0686
  69   0.0000       0.094864         2.5814
  70   0.0000       0.118242         3.2175
  71   0.0000       0.130474         3.5504

MULLIKEN ATOMIC CHARGES
-----------------------
   0 S :    0.107218
   1 C :   -0.098659
   2 C :   -0.065660
   3 C :    0.017375
   4 C :   -0.113123
   5 H :   -0.004140
   6 C :    0.072140
   7 H :    0.046763
   8 H :    0.009498
   9 C :   -0.115641
  10 H :    0.037591
  11 H :    0.040245
  12 C :   -0.090370
  13 H :    0.050581
  14 H :    0.030976
  15 H :    0.036302
  16 S :    0.084329
  17 C :   -0.116825
  18 C :   -0.047025
  19 C :   -0.023390
  20 C :   -0.121114
  21 H :    0.035693
  22 C :    0.029400
  23 H :    0.014555
  24 H :    0.037034
  25 C :   -0.087712
  26 H :    0.046103
  27 H :    0.034202
  28 C :   -0.070600
  29 H :    0.039877
  30 H :    0.035975
  31 H :    0.034654
  32 H :    0.035763
  33 H :    0.077985
Sum of atomic charges:    0.0000000

LOEWDIN ATOMIC CHARGES
----------------------
   0 S :    0.395679
   1 C :   -0.204770
   2 C :   -0.061543
   3 C :   -0.061440
   4 C :   -0.160794
   5 H :    0.022910
   6 C :   -0.034218
   7 H :    0.039644
   8 H :    0.024284
   9 C :   -0.050423
  10 H :    0.026546
  11 H :    0.028923
  12 C :   -0.076890
  13 H :    0.030997
  14 H :    0.020119
  15 H :    0.030169
  16 S :    0.387020
  17 C :   -0.178324
  18 C :   -0.073341
  19 C :   -0.063916
  20 C :   -0.190655
  21 H :    0.039358
  22 C :   -0.039417
  23 H :    0.025099
  24 H :    0.037899
  25 C :   -0.039150
  26 H :    0.031816
  27 H :    0.023586
  28 C :   -0.077933
  29 H :    0.027457
  30 H :    0.028006
  31 H :    0.029413
  32 H :    0.026678
  33 H :    0.037210

  Mayer bond orders larger than 0.100000
B(  0-S ,  1-C ) :   1.1195 B(  0-S ,  4-C ) :   1.1419 B(  1-C ,  2-C ) :   1.6402
B(  1-C , 32-H ) :   0.9666 B(  2-C ,  3-C ) :   1.2140 B(  2-C ,  6-C ) :   1.0276
B(  3-C ,  4-C ) :   1.5938 B(  3-C ,  5-H ) :   0.9892 B(  4-C , 20-C ) :   1.0576
B(  6-C ,  7-H ) :   0.9454 B(  6-C ,  8-H ) :   0.9381 B(  6-C ,  9-C ) :   1.0382
B(  9-C , 10-H ) :   0.9588 B(  9-C , 11-H ) :   0.9601 B(  9-C , 12-C ) :   1.0775
B( 12-C , 13-H ) :   0.9765 B( 12-C , 14-H ) :   0.9756 B( 12-C , 15-H ) :   0.9750
B( 16-S , 17-C ) :   1.1747 B( 16-S , 20-C ) :   1.1293 B( 17-C , 18-C ) :   1.5588
B( 17-C , 20-C ) :   0.1104 B( 17-C , 33-H ) :   0.9639 B( 18-C , 19-C ) :   1.2679
B( 18-C , 21-H ) :   0.9896 B( 19-C , 20-C ) :   1.5553 B( 19-C , 22-C ) :   1.0485
B( 22-C , 23-H ) :   0.9434 B( 22-C , 24-H ) :   0.9247 B( 22-C , 25-C ) :   1.0747
B( 25-C , 26-H ) :   0.9585 B( 25-C , 27-H ) :   0.9506 B( 25-C , 28-C ) :   1.0686
B( 28-C , 29-H ) :   0.9767 B( 28-C , 30-H ) :   0.9739 B( 28-C , 31-H ) :   0.9682

Dispersion correction           -0.014318067
FINAL SINGLE POINT ENERGY     -1339.876909011554

DIPOLE MOMENT
-------------
                                X             Y             Z
Electronic contribution:     27.34727     -10.56124      11.21097
Nuclear contribution   :    -27.85069      11.01630     -11.38201
                        -----------------------------------------
Total Dipole Moment    :     -0.50343       0.45506      -0.17105
                        -----------------------------------------
Magnitude (a.u.)       :      0.69984
Magnitude (Debye)      :      1.77885

Rotational constants in cm-1:     0.018149     0.009288     0.006498
Rotational constants in MHz :   544.087479   278.460301   194.814258

                             ****ORCA TERMINATED NORMALLY****
TOTAL RUN TIME: 0 days 0 hours 0 minutes 20 seconds 707 msec
