                         Program Version 4.2.1 -  RELEASE  -
|  1> ! wB97X-D3 SP def2-SVP
|  2> %pal
|  3> nprocs 24
|  4> end
|  5>
|  6> * xyz 0 1
|  7> S 	 -58.2879 	 11.094 	 -94.3576
|  8> C 	 -57.1961 	 10.1374 	 -95.2772
|  9> C 	 -56.1823 	 10.875 	 -95.8981
| 10> C 	 -56.375 	 12.2835 	 -95.632
| 11> C 	 -57.6335 	 12.5786 	 -94.9866
| 12> H 	 -55.6497 	 12.9676 	 -96.0231
| 13> C 	 -55.1281 	 10.3309 	 -96.7582
| 14> H 	 -55.5514 	 9.94537 	 -97.6334
| 15> H 	 -54.6514 	 9.50012 	 -96.2245
| 16> C 	 -54.0431 	 11.2321 	 -97.249
| 17> H 	 -54.579 	 12.076 	 -97.6827
| 18> H 	 -53.4769 	 11.6511 	 -96.4074
| 19> C 	 -53.1011 	 10.6669 	 -98.3956
| 20> H 	 -52.3038 	 11.3639 	 -98.6184
| 21> H 	 -52.6632 	 9.76234 	 -97.9854
| 22> H 	 -53.6802 	 10.4401 	 -99.318
| 23> S 	 -59.8813 	 14.181 	 -94.6378
| 24> C 	 -59.6902 	 15.816 	 -94.1098
| 25> C 	 -58.4065 	 16.2196 	 -94.2441
| 26> C 	 -57.5088 	 15.1391 	 -94.4476
| 27> C 	 -58.1554 	 13.8928 	 -94.6231
| 28> H 	 -58.2462 	 17.2044 	 -93.9975
| 29> C 	 -56.0259 	 15.3591 	 -94.2825
| 30> H 	 -55.6406 	 15.9585 	 -95.1815
| 31> H 	 -55.6404 	 14.3945 	 -94.4972
| 32> C 	 -55.6391 	 15.99 	 -92.9056
| 33> H 	 -56.1403 	 15.3313 	 -92.2474
| 34> H 	 -55.9279 	 17.03 	 -92.799
| 35> C 	 -54.1479 	 15.813 	 -92.6534
| 36> H 	 -53.5907 	 16.3497 	 -93.4838
| 37> H 	 -53.8134 	 14.7777 	 -92.6546
| 38> H 	 -53.7915 	 16.1871 	 -91.7547
| 39> H 	 -57.3026 	 9.04462 	 -95.248
| 40> H 	 -60.5377 	 16.4725 	 -93.9203
| 41> *
| 42>
| 43>                          ****END OF INPUT****

CARTESIAN COORDINATES (ANGSTROEM)
---------------------------------
  S    -58.287900   11.094000  -94.357600
  C    -57.196100   10.137400  -95.277200
  C    -56.182300   10.875000  -95.898100
  C    -56.375000   12.283500  -95.632000
  C    -57.633500   12.578600  -94.986600
  H    -55.649700   12.967600  -96.023100
  C    -55.128100   10.330900  -96.758200
  H    -55.551400    9.945370  -97.633400
  H    -54.651400    9.500120  -96.224500
  C    -54.043100   11.232100  -97.249000
  H    -54.579000   12.076000  -97.682700
  H    -53.476900   11.651100  -96.407400
  C    -53.101100   10.666900  -98.395600
  H    -52.303800   11.363900  -98.618400
  H    -52.663200    9.762340  -97.985400
  H    -53.680200   10.440100  -99.318000
  S    -59.881300   14.181000  -94.637800
  C    -59.690200   15.816000  -94.109800
  C    -58.406500   16.219600  -94.244100
  C    -57.508800   15.139100  -94.447600
  C    -58.155400   13.892800  -94.623100
  H    -58.246200   17.204400  -93.997500
  C    -56.025900   15.359100  -94.282500
  H    -55.640600   15.958500  -95.181500
  H    -55.640400   14.394500  -94.497200
  C    -55.639100   15.990000  -92.905600
  H    -56.140300   15.331300  -92.247400
  H    -55.927900   17.030000  -92.799000
  C    -54.147900   15.813000  -92.653400
  H    -53.590700   16.349700  -93.483800
  H    -53.813400   14.777700  -92.654600
  H    -53.791500   16.187100  -91.754700
  H    -57.302600    9.044620  -95.248000
  H    -60.537700   16.472500  -93.920300

 Total Charge           Charge          ....    0
 Multiplicity           Mult            ....    1
 Number of Electrons    NEL             ....  134
 Basis Dimension        Dim             ....  322

ORBITAL ENERGIES
----------------

  NO   OCC          E(Eh)            E(eV)
   0   2.0000     -88.968838     -2420.9652
   1   2.0000     -88.960545     -2420.7395
   2   2.0000     -10.336937      -281.2824
   3   2.0000     -10.327942      -281.0376
   4   2.0000     -10.313679      -280.6495
   5   2.0000     -10.311291      -280.5845
   6   2.0000     -10.302945      -280.3574
   7   2.0000     -10.301289      -280.3123
   8   2.0000     -10.300503      -280.2909
   9   2.0000     -10.289380      -279.9883
  10   2.0000     -10.288987      -279.9776
  11   2.0000     -10.287952      -279.9494
  12   2.0000     -10.284939      -279.8674
  13   2.0000     -10.284263      -279.8490
  14   2.0000     -10.281838      -279.7830
  15   2.0000     -10.273392      -279.5532
  16   2.0000      -8.084057      -219.9784
  17   2.0000      -8.075961      -219.7581
  18   2.0000      -6.042440      -164.4231
  19   2.0000      -6.038401      -164.3133
  20   2.0000      -6.035022      -164.2213
  21   2.0000      -6.034411      -164.2047
  22   2.0000      -6.030391      -164.0953
  23   2.0000      -6.026729      -163.9956
  24   2.0000      -1.006359       -27.3844
  25   2.0000      -0.986785       -26.8518
  26   2.0000      -0.921800       -25.0834
  27   2.0000      -0.907821       -24.7031
  28   2.0000      -0.870598       -23.6902
  29   2.0000      -0.851663       -23.1749
  30   2.0000      -0.845827       -23.0161
  31   2.0000      -0.813645       -22.1404
  32   2.0000      -0.785282       -21.3686
  33   2.0000      -0.768635       -20.9156
  34   2.0000      -0.717248       -19.5173
  35   2.0000      -0.703831       -19.1522
  36   2.0000      -0.688335       -18.7305
  37   2.0000      -0.656040       -17.8518
  38   2.0000      -0.634898       -17.2764
  39   2.0000      -0.629519       -17.1301
  40   2.0000      -0.593129       -16.1399
  41   2.0000      -0.580867       -15.8062
  42   2.0000      -0.572664       -15.5830
  43   2.0000      -0.568189       -15.4612
  44   2.0000      -0.531380       -14.4596
  45   2.0000      -0.522798       -14.2261
  46   2.0000      -0.514282       -13.9943
  47   2.0000      -0.510140       -13.8816
  48   2.0000      -0.502792       -13.6817
  49   2.0000      -0.501182       -13.6379
  50   2.0000      -0.495946       -13.4954
  51   2.0000      -0.477395       -12.9906
  52   2.0000      -0.472612       -12.8604
  53   2.0000      -0.466721       -12.7001
  54   2.0000      -0.457365       -12.4455
  55   2.0000      -0.456714       -12.4278
  56   2.0000      -0.442136       -12.0311
  57   2.0000      -0.436823       -11.8866
  58   2.0000      -0.432834       -11.7780
  59   2.0000      -0.430654       -11.7187
  60   2.0000      -0.421953       -11.4819
  61   2.0000      -0.415028       -11.2935
  62   2.0000      -0.412262       -11.2182
  63   2.0000      -0.353527        -9.6200
  64   2.0000      -0.329681        -8.9711
  65   2.0000      -0.326452        -8.8832
  66   2.0000      -0.281105        -7.6493
  67   0.0000       0.019124         0.5204
  68   0.0000       0.081787         2.2255
  69   0.0000       0.111730         3.0403
  70   0.0000       0.115349         3.1388
  71   0.0000       0.138358         3.7649

MULLIKEN ATOMIC CHARGES
-----------------------
   0 S :    0.127150
   1 C :   -0.140189
   2 C :   -0.092608
   3 C :    0.002320
   4 C :   -0.135826
   5 H :    0.015839
   6 C :    0.116373
   7 H :    0.021515
   8 H :    0.027621
   9 C :   -0.155172
  10 H :    0.031394
  11 H :    0.033989
  12 C :   -0.028910
  13 H :    0.041347
  14 H :    0.029970
  15 H :    0.044707
  16 S :    0.094823
  17 C :   -0.101880
  18 C :    0.008446
  19 C :   -0.083573
  20 C :   -0.122404
  21 H :   -0.012054
  22 C :    0.069306
  23 H :    0.035454
  24 H :   -0.013836
  25 C :   -0.034859
  26 H :    0.030003
  27 H :    0.040102
  28 C :   -0.036035
  29 H :    0.026810
  30 H :    0.029172
  31 H :    0.016333
  32 H :    0.054088
  33 H :    0.060586
Sum of atomic charges:    0.0000000

LOEWDIN ATOMIC CHARGES
----------------------
   0 S :    0.436670
   1 C :   -0.210689
   2 C :   -0.059734
   3 C :   -0.064295
   4 C :   -0.200771
   5 H :    0.023309
   6 C :   -0.037537
   7 H :    0.031018
   8 H :    0.034813
   9 C :   -0.045977
  10 H :    0.020555
  11 H :    0.022506
  12 C :   -0.057840
  13 H :    0.028443
  14 H :    0.023292
  15 H :    0.031029
  16 S :    0.406062
  17 C :   -0.181817
  18 C :   -0.065347
  19 C :   -0.054401
  20 C :   -0.207706
  21 H :    0.019811
  22 C :   -0.035907
  23 H :    0.036849
  24 H :    0.020387
  25 C :   -0.029170
  26 H :    0.024993
  27 H :    0.025980
  28 C :   -0.062685
  29 H :    0.029312
  30 H :    0.026169
  31 H :    0.013179
  32 H :    0.028600
  33 H :    0.030900

  Mayer bond orders larger than 0.100000
B(  0-S ,  1-C ) :   1.1642 B(  0-S ,  4-C ) :   1.1813 B(  1-C ,  2-C ) :   1.5566
B(  1-C ,  4-C ) :   0.1077 B(  1-C , 32-H ) :   0.9712 B(  2-C ,  3-C ) :   1.3206
B(  2-C ,  6-C ) :   1.0240 B(  3-C ,  4-C ) :   1.4759 B(  3-C ,  5-H ) :   0.9735
B(  4-C , 20-C ) :   1.0717 B(  6-C ,  7-H ) :   0.9253 B(  6-C ,  8-H ) :   0.9230
B(  6-C ,  9-C ) :   1.0908 B(  9-C , 10-H ) :   0.9436 B(  9-C , 11-H ) :   0.9545
B(  9-C , 12-C ) :   1.0779 B( 12-C , 13-H ) :   0.9746 B( 12-C , 14-H ) :   0.9770
B( 12-C , 15-H ) :   0.9743 B( 16-S , 17-C ) :   1.1595 B( 16-S , 20-C ) :   1.1409
B( 17-C , 18-C ) :   1.6116 B( 17-C , 33-H ) :   0.9650 B( 18-C , 19-C ) :   1.2346
B( 18-C , 21-H ) :   1.0048 B( 19-C , 20-C ) :   1.5588 B( 19-C , 22-C ) :   1.0547
B( 22-C , 23-H ) :   0.9204 B( 22-C , 24-H ) :   0.9280 B( 22-C , 25-C ) :   1.0540
B( 25-C , 26-H ) :   0.9551 B( 25-C , 27-H ) :   0.9530 B( 25-C , 28-C ) :   1.0949
B( 28-C , 29-H ) :   0.9728 B( 28-C , 30-H ) :   0.9745 B( 28-C , 31-H ) :   0.9743

Dispersion correction           -0.013504056
FINAL SINGLE POINT ENERGY     -1339.866386011601

DIPOLE MOMENT
-------------
                                X             Y             Z
Electronic contribution:    -29.95546      -3.57673       5.82502
Nuclear contribution   :     30.58854       3.70494      -5.95418
                        -----------------------------------------
Total Dipole Moment    :      0.63307       0.12820      -0.12916
                        -----------------------------------------
Magnitude (a.u.)       :      0.65871
Magnitude (Debye)      :      1.67431

Rotational constants in cm-1:     0.016673     0.008658     0.006498
Rotational constants in MHz :   499.837004   259.551968   194.814298

                             ****ORCA TERMINATED NORMALLY****
TOTAL RUN TIME: 0 days 0 hours 0 minutes 21 seconds 504 msec
