                         Program Version 4.2.1 -  RELEASE  -
|  1> ! wB97X-D3 SP def2-SVP
|  2> %pal
|  3> nprocs 24
|  4> end
|  5>
|  6> * xyz 0 1
|  7> S 	 -53.2922 	 -3.87626 	 -28.7148
|  8> C 	 -52.7345 	 -3.41993 	 -27.1327
|  9> C 	 -53.7814 	 -3.45906 	 -26.2086
| 10> C 	 -55.0273 	 -3.79376 	 -26.862
| 11> C 	 -54.9455 	 -3.97119 	 -28.21
| 12> H 	 -55.8781 	 -3.91639 	 -26.2308
| 13> C 	 -53.6449 	 -3.40159 	 -24.691
| 14> H 	 -54.6089 	 -3.03487 	 -24.3418
| 15> H 	 -52.8187 	 -2.65863 	 -24.6
| 16> C 	 -53.3837 	 -4.76077 	 -24.0224
| 17> H 	 -54.1558 	 -5.4404 	 -24.2842
| 18> H 	 -52.4092 	 -5.0907 	 -24.3306
| 19> C 	 -53.4794 	 -4.67393 	 -22.4408
| 20> H 	 -54.4646 	 -4.39698 	 -22.2034
| 21> H 	 -53.248 	 -5.65044 	 -22.0749
| 22> H 	 -52.712 	 -3.9106 	 -22.0134
| 23> S 	 -55.5274 	 -5.65534 	 -30.3609
| 24> C 	 -57.1498 	 -5.75104 	 -30.8514
| 25> C 	 -58.036 	 -5.05325 	 -30.0469
| 26> C 	 -57.3857 	 -4.44198 	 -28.9366
| 27> C 	 -55.992 	 -4.60105 	 -29.0037
| 28> H 	 -59.0948 	 -5.15795 	 -30.2944
| 29> C 	 -58.2245 	 -3.68878 	 -27.9011
| 30> H 	 -57.6292 	 -3.0268 	 -27.3353
| 31> H 	 -58.6361 	 -4.24898 	 -27.1194
| 32> C 	 -59.4328 	 -2.951 	 -28.4876
| 33> H 	 -60.0524 	 -2.41538 	 -27.8173
| 34> H 	 -60.1191 	 -3.65771 	 -28.9771
| 35> C 	 -59.0985 	 -1.90877 	 -29.5047
| 36> H 	 -58.3342 	 -1.27063 	 -29.0969
| 37> H 	 -59.9224 	 -1.27783 	 -29.7065
| 38> H 	 -58.5877 	 -2.42361 	 -30.3111
| 39> H 	 -51.7582 	 -3.09598 	 -26.8334
| 40> H 	 -57.4555 	 -6.01794 	 -31.9294
| 41> *
| 42>
| 43>                          ****END OF INPUT****

CARTESIAN COORDINATES (ANGSTROEM)
---------------------------------
  S    -53.292200   -3.876260  -28.714800
  C    -52.734500   -3.419930  -27.132700
  C    -53.781400   -3.459060  -26.208600
  C    -55.027300   -3.793760  -26.862000
  C    -54.945500   -3.971190  -28.210000
  H    -55.878100   -3.916390  -26.230800
  C    -53.644900   -3.401590  -24.691000
  H    -54.608900   -3.034870  -24.341800
  H    -52.818700   -2.658630  -24.600000
  C    -53.383700   -4.760770  -24.022400
  H    -54.155800   -5.440400  -24.284200
  H    -52.409200   -5.090700  -24.330600
  C    -53.479400   -4.673930  -22.440800
  H    -54.464600   -4.396980  -22.203400
  H    -53.248000   -5.650440  -22.074900
  H    -52.712000   -3.910600  -22.013400
  S    -55.527400   -5.655340  -30.360900
  C    -57.149800   -5.751040  -30.851400
  C    -58.036000   -5.053250  -30.046900
  C    -57.385700   -4.441980  -28.936600
  C    -55.992000   -4.601050  -29.003700
  H    -59.094800   -5.157950  -30.294400
  C    -58.224500   -3.688780  -27.901100
  H    -57.629200   -3.026800  -27.335300
  H    -58.636100   -4.248980  -27.119400
  C    -59.432800   -2.951000  -28.487600
  H    -60.052400   -2.415380  -27.817300
  H    -60.119100   -3.657710  -28.977100
  C    -59.098500   -1.908770  -29.504700
  H    -58.334200   -1.270630  -29.096900
  H    -59.922400   -1.277830  -29.706500
  H    -58.587700   -2.423610  -30.311100
  H    -51.758200   -3.095980  -26.833400
  H    -57.455500   -6.017940  -31.929400

 Total Charge           Charge          ....    0
 Multiplicity           Mult            ....    1
 Number of Electrons    NEL             ....  134
 Basis Dimension        Dim             ....  322

ORBITAL ENERGIES
----------------

  NO   OCC          E(Eh)            E(eV)
   0   2.0000     -88.969642     -2420.9870
   1   2.0000     -88.969189     -2420.9747
   2   2.0000     -10.333036      -281.1762
   3   2.0000     -10.328602      -281.0555
   4   2.0000     -10.316297      -280.7207
   5   2.0000     -10.314287      -280.6660
   6   2.0000     -10.309137      -280.5259
   7   2.0000     -10.300287      -280.2851
   8   2.0000     -10.297036      -280.1966
   9   2.0000     -10.293546      -280.1016
  10   2.0000     -10.290124      -280.0085
  11   2.0000     -10.287650      -279.9412
  12   2.0000     -10.286597      -279.9125
  13   2.0000     -10.284035      -279.8428
  14   2.0000     -10.276895      -279.6485
  15   2.0000     -10.260009      -279.1890
  16   2.0000      -8.084551      -219.9918
  17   2.0000      -8.084352      -219.9864
  18   2.0000      -6.043213      -164.4442
  19   2.0000      -6.042723      -164.4309
  20   2.0000      -6.039010      -164.3298
  21   2.0000      -6.038856      -164.3256
  22   2.0000      -6.035185      -164.2257
  23   2.0000      -6.035171      -164.2253
  24   2.0000      -1.010702       -27.5026
  25   2.0000      -0.987414       -26.8689
  26   2.0000      -0.917094       -24.9554
  27   2.0000      -0.911407       -24.8007
  28   2.0000      -0.870236       -23.6803
  29   2.0000      -0.855411       -23.2769
  30   2.0000      -0.845486       -23.0068
  31   2.0000      -0.813743       -22.1431
  32   2.0000      -0.790368       -21.5070
  33   2.0000      -0.773162       -21.0388
  34   2.0000      -0.706283       -19.2189
  35   2.0000      -0.701842       -19.0981
  36   2.0000      -0.692693       -18.8491
  37   2.0000      -0.656465       -17.8633
  38   2.0000      -0.634500       -17.2656
  39   2.0000      -0.629616       -17.1327
  40   2.0000      -0.601509       -16.3679
  41   2.0000      -0.576987       -15.7006
  42   2.0000      -0.562115       -15.2959
  43   2.0000      -0.558353       -15.1935
  44   2.0000      -0.542645       -14.7661
  45   2.0000      -0.526344       -14.3226
  46   2.0000      -0.517680       -14.0868
  47   2.0000      -0.513637       -13.9768
  48   2.0000      -0.500152       -13.6098
  49   2.0000      -0.499717       -13.5980
  50   2.0000      -0.493816       -13.4374
  51   2.0000      -0.484599       -13.1866
  52   2.0000      -0.474725       -12.9179
  53   2.0000      -0.458708       -12.4821
  54   2.0000      -0.455315       -12.3898
  55   2.0000      -0.452539       -12.3142
  56   2.0000      -0.448503       -12.2044
  57   2.0000      -0.438978       -11.9452
  58   2.0000      -0.436993       -11.8912
  59   2.0000      -0.428600       -11.6628
  60   2.0000      -0.422717       -11.5027
  61   2.0000      -0.412925       -11.2363
  62   2.0000      -0.409631       -11.1466
  63   2.0000      -0.359491        -9.7822
  64   2.0000      -0.334952        -9.1145
  65   2.0000      -0.328311        -8.9338
  66   2.0000      -0.282900        -7.6981
  67   0.0000       0.020658         0.5621
  68   0.0000       0.077656         2.1131
  69   0.0000       0.103775         2.8239
  70   0.0000       0.117916         3.2086
  71   0.0000       0.135472         3.6864

MULLIKEN ATOMIC CHARGES
-----------------------
   0 S :    0.104310
   1 C :   -0.108390
   2 C :   -0.121747
   3 C :   -0.001710
   4 C :   -0.080915
   5 H :    0.001868
   6 C :    0.053400
   7 H :    0.014142
   8 H :    0.034909
   9 C :   -0.045387
  10 H :    0.025655
  11 H :    0.024672
  12 C :   -0.045261
  13 H :    0.024233
  14 H :    0.035081
  15 H :    0.043877
  16 S :    0.116837
  17 C :   -0.124105
  18 C :   -0.058332
  19 C :   -0.053185
  20 C :   -0.149600
  21 H :    0.033561
  22 C :    0.145306
  23 H :   -0.000481
  24 H :    0.023419
  25 C :   -0.107278
  26 H :    0.010548
  27 H :    0.021047
  28 C :   -0.010273
  29 H :    0.010815
  30 H :    0.027900
  31 H :    0.031169
  32 H :    0.037144
  33 H :    0.086772
Sum of atomic charges:    0.0000000

LOEWDIN ATOMIC CHARGES
----------------------
   0 S :    0.418120
   1 C :   -0.203889
   2 C :   -0.061035
   3 C :   -0.063112
   4 C :   -0.198506
   5 H :    0.023607
   6 C :   -0.032624
   7 H :    0.025679
   8 H :    0.035796
   9 C :   -0.027247
  10 H :    0.022090
  11 H :    0.020398
  12 C :   -0.058427
  13 H :    0.014869
  14 H :    0.022555
  15 H :    0.034641
  16 S :    0.414781
  17 C :   -0.221979
  18 C :   -0.077176
  19 C :   -0.052207
  20 C :   -0.181079
  21 H :    0.037454
  22 C :   -0.024053
  23 H :    0.022147
  24 H :    0.030066
  25 C :   -0.041138
  26 H :    0.019288
  27 H :    0.019676
  28 C :   -0.060519
  29 H :    0.022165
  30 H :    0.021150
  31 H :    0.025301
  32 H :    0.025528
  33 H :    0.047680

  Mayer bond orders larger than 0.100000
B(  0-S ,  1-C ) :   1.1398 B(  0-S ,  4-C ) :   1.1449 B(  1-C ,  2-C ) :   1.5928
B(  1-C , 32-H ) :   0.9693 B(  2-C ,  3-C ) :   1.2763 B(  2-C ,  6-C ) :   1.0260
B(  3-C ,  4-C ) :   1.5272 B(  3-C ,  5-H ) :   0.9925 B(  4-C , 20-C ) :   1.0776
B(  6-C ,  7-H ) :   0.9369 B(  6-C ,  8-H ) :   0.9390 B(  6-C ,  9-C ) :   1.0683
B(  9-C , 10-H ) :   0.9559 B(  9-C , 11-H ) :   0.9570 B(  9-C , 12-C ) :   1.0767
B( 12-C , 13-H ) :   0.9773 B( 12-C , 14-H ) :   0.9767 B( 12-C , 15-H ) :   0.9773
B( 16-S , 17-C ) :   1.1669 B( 16-S , 20-C ) :   1.1403 B( 17-C , 18-C ) :   1.6181
B( 17-C , 33-H ) :   0.9461 B( 18-C , 19-C ) :   1.2510 B( 18-C , 21-H ) :   0.9843
B( 19-C , 20-C ) :   1.5816 B( 19-C , 22-C ) :   1.0292 B( 22-C , 23-H ) :   0.9222
B( 22-C , 24-H ) :   0.9287 B( 22-C , 25-C ) :   1.0790 B( 25-C , 26-H ) :   0.9531
B( 25-C , 27-H ) :   0.9472 B( 25-C , 28-C ) :   1.0885 B( 28-C , 29-H ) :   0.9687
B( 28-C , 30-H ) :   0.9735 B( 28-C , 31-H ) :   0.9680

Dispersion correction           -0.013850532
FINAL SINGLE POINT ENERGY     -1339.862034024779

DIPOLE MOMENT
-------------
                                X             Y             Z
Electronic contribution:     11.37680      -7.78637     -21.24221
Nuclear contribution   :    -11.68538       7.86471      21.82580
                        -----------------------------------------
Total Dipole Moment    :     -0.30858       0.07833       0.58359
                        -----------------------------------------
Magnitude (a.u.)       :      0.66478
Magnitude (Debye)      :      1.68974

Rotational constants in cm-1:     0.019688     0.007863     0.006528
Rotational constants in MHz :   590.223045   235.732258   195.718316

                             ****ORCA TERMINATED NORMALLY****
TOTAL RUN TIME: 0 days 0 hours 0 minutes 20 seconds 378 msec
