                         Program Version 4.2.1 -  RELEASE  -
|  1> ! wB97X-D3 SP def2-SVP
|  2> %pal
|  3> nprocs 24
|  4> end
|  5>
|  6> * xyz 0 1
|  7> S 	 -101.342 	 24.4171 	 -109.251
|  8> C 	 -102.485 	 23.1119 	 -109.638
|  9> C 	 -103.763 	 23.5705 	 -109.878
| 10> C 	 -103.858 	 25.0032 	 -109.722
| 11> C 	 -102.653 	 25.6106 	 -109.356
| 12> H 	 -104.764 	 25.5856 	 -109.864
| 13> C 	 -104.91 	 22.6928 	 -110.047
| 14> H 	 -105.633 	 22.9206 	 -109.239
| 15> H 	 -104.592 	 21.6439 	 -110.057
| 16> C 	 -105.774 	 22.9076 	 -111.272
| 17> H 	 -106.784 	 22.5329 	 -111.205
| 18> H 	 -106.006 	 23.9433 	 -111.39
| 19> C 	 -104.959 	 22.4119 	 -112.41
| 20> H 	 -103.98 	 22.9746 	 -112.385
| 21> H 	 -104.868 	 21.3524 	 -112.568
| 22> H 	 -105.495 	 22.6761 	 -113.278
| 23> S 	 -101.393 	 27.5169 	 -107.903
| 24> C 	 -101.61 	 29.1872 	 -108.366
| 25> C 	 -102.551 	 29.4045 	 -109.333
| 26> C 	 -103.051 	 28.1774 	 -109.844
| 27> C 	 -102.491 	 27.0668 	 -109.173
| 28> H 	 -102.709 	 30.4444 	 -109.757
| 29> C 	 -103.918 	 28.076 	 -111.045
| 30> H 	 -104.05 	 27.0456 	 -111.362
| 31> H 	 -103.321 	 28.5863 	 -111.791
| 32> C 	 -105.229 	 28.6575 	 -110.872
| 33> H 	 -105.253 	 29.6925 	 -110.839
| 34> H 	 -105.746 	 28.2488 	 -109.943
| 35> C 	 -106.134 	 28.2774 	 -112.058
| 36> H 	 -106.147 	 27.2434 	 -112.23
| 37> H 	 -105.804 	 28.7233 	 -112.999
| 38> H 	 -107.198 	 28.5894 	 -111.81
| 39> H 	 -102.251 	 22.0629 	 -109.726
| 40> H 	 -100.86 	 29.9716 	 -108.02
| 41> *
| 42>
| 43>                          ****END OF INPUT****

CARTESIAN COORDINATES (ANGSTROEM)
---------------------------------
  S    -101.342000   24.417100  -109.251000
  C    -102.485000   23.111900  -109.638000
  C    -103.763000   23.570500  -109.878000
  C    -103.858000   25.003200  -109.722000
  C    -102.653000   25.610600  -109.356000
  H    -104.764000   25.585600  -109.864000
  C    -104.910000   22.692800  -110.047000
  H    -105.633000   22.920600  -109.239000
  H    -104.592000   21.643900  -110.057000
  C    -105.774000   22.907600  -111.272000
  H    -106.784000   22.532900  -111.205000
  H    -106.006000   23.943300  -111.390000
  C    -104.959000   22.411900  -112.410000
  H    -103.980000   22.974600  -112.385000
  H    -104.868000   21.352400  -112.568000
  H    -105.495000   22.676100  -113.278000
  S    -101.393000   27.516900  -107.903000
  C    -101.610000   29.187200  -108.366000
  C    -102.551000   29.404500  -109.333000
  C    -103.051000   28.177400  -109.844000
  C    -102.491000   27.066800  -109.173000
  H    -102.709000   30.444400  -109.757000
  C    -103.918000   28.076000  -111.045000
  H    -104.050000   27.045600  -111.362000
  H    -103.321000   28.586300  -111.791000
  C    -105.229000   28.657500  -110.872000
  H    -105.253000   29.692500  -110.839000
  H    -105.746000   28.248800  -109.943000
  C    -106.134000   28.277400  -112.058000
  H    -106.147000   27.243400  -112.230000
  H    -105.804000   28.723300  -112.999000
  H    -107.198000   28.589400  -111.810000
  H    -102.251000   22.062900  -109.726000
  H    -100.860000   29.971600  -108.020000

 Total Charge           Charge          ....    0
 Multiplicity           Mult            ....    1
 Number of Electrons    NEL             ....  134
 Basis Dimension        Dim             ....  322

ORBITAL ENERGIES
----------------

  NO   OCC          E(Eh)            E(eV)
   0   2.0000     -88.969591     -2420.9856
   1   2.0000     -88.965645     -2420.8783
   2   2.0000     -10.334908      -281.2271
   3   2.0000     -10.326753      -281.0052
   4   2.0000     -10.320221      -280.8275
   5   2.0000     -10.314079      -280.6603
   6   2.0000     -10.304216      -280.3920
   7   2.0000     -10.299599      -280.2663
   8   2.0000     -10.298760      -280.2435
   9   2.0000     -10.296198      -280.1738
  10   2.0000     -10.286579      -279.9120
  11   2.0000     -10.282263      -279.7946
  12   2.0000     -10.281457      -279.7727
  13   2.0000     -10.278556      -279.6937
  14   2.0000     -10.277814      -279.6735
  15   2.0000     -10.268266      -279.4137
  16   2.0000      -8.083184      -219.9546
  17   2.0000      -8.080956      -219.8940
  18   2.0000      -6.041942      -164.4096
  19   2.0000      -6.039315      -164.3381
  20   2.0000      -6.037897      -164.2995
  21   2.0000      -6.035507      -164.2345
  22   2.0000      -6.033701      -164.1854
  23   2.0000      -6.031730      -164.1317
  24   2.0000      -1.005464       -27.3601
  25   2.0000      -0.983020       -26.7493
  26   2.0000      -0.928680       -25.2707
  27   2.0000      -0.925090       -25.1730
  28   2.0000      -0.869799       -23.6684
  29   2.0000      -0.855543       -23.2805
  30   2.0000      -0.846904       -23.0454
  31   2.0000      -0.813955       -22.1488
  32   2.0000      -0.782509       -21.2931
  33   2.0000      -0.771231       -20.9863
  34   2.0000      -0.711635       -19.3646
  35   2.0000      -0.701294       -19.0832
  36   2.0000      -0.693033       -18.8584
  37   2.0000      -0.657796       -17.8995
  38   2.0000      -0.635010       -17.2795
  39   2.0000      -0.624707       -16.9991
  40   2.0000      -0.600935       -16.3523
  41   2.0000      -0.580477       -15.7956
  42   2.0000      -0.574270       -15.6267
  43   2.0000      -0.560712       -15.2577
  44   2.0000      -0.540005       -14.6943
  45   2.0000      -0.530709       -14.4413
  46   2.0000      -0.520872       -14.1736
  47   2.0000      -0.511226       -13.9112
  48   2.0000      -0.500682       -13.6243
  49   2.0000      -0.492878       -13.4119
  50   2.0000      -0.489016       -13.3068
  51   2.0000      -0.480490       -13.0748
  52   2.0000      -0.471707       -12.8358
  53   2.0000      -0.463014       -12.5993
  54   2.0000      -0.458861       -12.4862
  55   2.0000      -0.454270       -12.3613
  56   2.0000      -0.449818       -12.2402
  57   2.0000      -0.442386       -12.0379
  58   2.0000      -0.434554       -11.8248
  59   2.0000      -0.428718       -11.6660
  60   2.0000      -0.424193       -11.5429
  61   2.0000      -0.414732       -11.2854
  62   2.0000      -0.409318       -11.1381
  63   2.0000      -0.350355        -9.5337
  64   2.0000      -0.333885        -9.0855
  65   2.0000      -0.326693        -8.8898
  66   2.0000      -0.284900        -7.7525
  67   0.0000       0.024739         0.6732
  68   0.0000       0.077540         2.1100
  69   0.0000       0.104913         2.8548
  70   0.0000       0.117002         3.1838
  71   0.0000       0.118211         3.2167

MULLIKEN ATOMIC CHARGES
-----------------------
   0 S :    0.109885
   1 C :   -0.117972
   2 C :   -0.079435
   3 C :    0.005928
   4 C :   -0.115854
   5 H :    0.011768
   6 C :    0.067066
   7 H :    0.037937
   8 H :    0.017637
   9 C :   -0.056769
  10 H :    0.019051
  11 H :    0.007670
  12 C :   -0.040689
  13 H :    0.055075
  14 H :    0.027994
  15 H :    0.006032
  16 S :    0.104513
  17 C :   -0.119756
  18 C :   -0.046652
  19 C :   -0.043443
  20 C :   -0.165128
  21 H :    0.045591
  22 C :    0.093418
  23 H :    0.009748
  24 H :    0.028800
  25 C :   -0.078258
  26 H :    0.016508
  27 H :    0.038704
  28 C :   -0.041698
  29 H :    0.012337
  30 H :    0.026965
  31 H :    0.040766
  32 H :    0.041728
  33 H :    0.080536
Sum of atomic charges:   -0.0000000

LOEWDIN ATOMIC CHARGES
----------------------
   0 S :    0.381429
   1 C :   -0.189111
   2 C :   -0.064965
   3 C :   -0.064561
   4 C :   -0.182453
   5 H :    0.028572
   6 C :   -0.033641
   7 H :    0.039135
   8 H :    0.031124
   9 C :   -0.043770
  10 H :    0.023036
  11 H :    0.018337
  12 C :   -0.067129
  13 H :    0.039198
  14 H :    0.023546
  15 H :    0.017445
  16 S :    0.407513
  17 C :   -0.192373
  18 C :   -0.080181
  19 C :   -0.049781
  20 C :   -0.202265
  21 H :    0.047046
  22 C :   -0.036022
  23 H :    0.028982
  24 H :    0.036317
  25 C :   -0.038674
  26 H :    0.014544
  27 H :    0.032850
  28 C :   -0.060434
  29 H :    0.011360
  30 H :    0.024096
  31 H :    0.032786
  32 H :    0.027390
  33 H :    0.040655

  Mayer bond orders larger than 0.100000
B(  0-S ,  1-C ) :   1.1118 B(  0-S ,  4-C ) :   1.1390 B(  1-C ,  2-C ) :   1.6177
B(  1-C , 32-H ) :   0.9645 B(  2-C ,  3-C ) :   1.2071 B(  2-C ,  6-C ) :   1.0564
B(  3-C ,  4-C ) :   1.5770 B(  3-C ,  5-H ) :   0.9906 B(  4-C , 20-C ) :   1.0523
B(  6-C ,  7-H ) :   0.9291 B(  6-C ,  8-H ) :   0.9387 B(  6-C ,  9-C ) :   1.0732
B(  9-C , 10-H ) :   0.9493 B(  9-C , 11-H ) :   0.9494 B(  9-C , 12-C ) :   1.0794
B( 12-C , 13-H ) :   0.9714 B( 12-C , 14-H ) :   0.9730 B( 12-C , 15-H ) :   0.9663
B( 16-S , 17-C ) :   1.1584 B( 16-S , 20-C ) :   1.1415 B( 17-C , 18-C ) :   1.6215
B( 17-C , 33-H ) :   0.9548 B( 18-C , 19-C ) :   1.2382 B( 18-C , 21-H ) :   0.9793
B( 19-C , 20-C ) :   1.5814 B( 19-C , 22-C ) :   1.0449 B( 22-C , 23-H ) :   0.9346
B( 22-C , 24-H ) :   0.9145 B( 22-C , 25-C ) :   1.0773 B( 25-C , 26-H ) :   0.9468
B( 25-C , 27-H ) :   0.9523 B( 25-C , 28-C ) :   1.0930 B( 28-C , 29-H ) :   0.9744
B( 28-C , 30-H ) :   0.9701 B( 28-C , 31-H ) :   0.9749

Dispersion correction           -0.014572730
FINAL SINGLE POINT ENERGY     -1339.867301317069

DIPOLE MOMENT
-------------
                                X             Y             Z
Electronic contribution:     24.78839       3.40484      19.37370
Nuclear contribution   :    -25.32323      -3.25617     -19.85227
                        -----------------------------------------
Total Dipole Moment    :     -0.53484       0.14868      -0.47857
                        -----------------------------------------
Magnitude (a.u.)       :      0.73293
Magnitude (Debye)      :      1.86296

Rotational constants in cm-1:     0.017519     0.010151     0.006796
Rotational constants in MHz :   525.211958   304.332681   203.733257

                             ****ORCA TERMINATED NORMALLY****
TOTAL RUN TIME: 0 days 0 hours 0 minutes 22 seconds 590 msec
