                         Program Version 4.2.1 -  RELEASE  -
|  1> ! wB97X-D3 SP def2-SVP
|  2> %pal
|  3> nprocs 24
|  4> end
|  5>
|  6> * xyz 0 1
|  7> S 	 41.4046 	 -18.5487 	 -114.558
|  8> C 	 39.9084 	 -18.1522 	 -115.331
|  9> C 	 39.0674 	 -17.5808 	 -114.425
| 10> C 	 39.6852 	 -17.397 	 -113.144
| 11> C 	 40.9289 	 -17.9171 	 -113.056
| 12> H 	 39.2721 	 -16.9054 	 -112.324
| 13> C 	 37.6572 	 -17.0781 	 -114.814
| 14> H 	 37.8106 	 -16.3566 	 -115.65
| 15> H 	 36.9794 	 -16.6423 	 -114.092
| 16> C 	 36.7818 	 -18.1998 	 -115.36
| 17> H 	 37.3397 	 -18.7978 	 -116.101
| 18> H 	 36.6265 	 -18.8369 	 -114.528
| 19> C 	 35.4821 	 -17.6873 	 -115.952
| 20> H 	 35.7571 	 -16.8973 	 -116.752
| 21> H 	 35.004 	 -18.5285 	 -116.408
| 22> H 	 34.8491 	 -17.3609 	 -115.12
| 23> S 	 43.0906 	 -16.5504 	 -112.354
| 24> C 	 43.8987 	 -16.8594 	 -110.876
| 25> C 	 43.1412 	 -17.6933 	 -110.077
| 26> C 	 41.982 	 -18.2136 	 -110.729
| 27> C 	 41.8954 	 -17.7048 	 -112.01
| 28> H 	 43.4127 	 -18.009 	 -109.109
| 29> C 	 41.0951 	 -19.2333 	 -110.03
| 30> H 	 40.0193 	 -18.9456 	 -109.997
| 31> H 	 41.2203 	 -19.3104 	 -108.927
| 32> C 	 41.1866 	 -20.6256 	 -110.651
| 33> H 	 42.2047 	 -20.9728 	 -110.506
| 34> H 	 40.9134 	 -20.4364 	 -111.689
| 35> C 	 40.2874 	 -21.74 	 -110.052
| 36> H 	 39.2856 	 -21.2702 	 -110.055
| 37> H 	 40.4333 	 -21.8806 	 -108.954
| 38> H 	 40.3434 	 -22.7544 	 -110.528
| 39> H 	 39.6115 	 -18.3889 	 -116.355
| 40> H 	 44.9275 	 -16.6362 	 -110.663
| 41> *
| 42>
| 43>                          ****END OF INPUT****

CARTESIAN COORDINATES (ANGSTROEM)
---------------------------------
  S     41.404600  -18.548700  -114.558000
  C     39.908400  -18.152200  -115.331000
  C     39.067400  -17.580800  -114.425000
  C     39.685200  -17.397000  -113.144000
  C     40.928900  -17.917100  -113.056000
  H     39.272100  -16.905400  -112.324000
  C     37.657200  -17.078100  -114.814000
  H     37.810600  -16.356600  -115.650000
  H     36.979400  -16.642300  -114.092000
  C     36.781800  -18.199800  -115.360000
  H     37.339700  -18.797800  -116.101000
  H     36.626500  -18.836900  -114.528000
  C     35.482100  -17.687300  -115.952000
  H     35.757100  -16.897300  -116.752000
  H     35.004000  -18.528500  -116.408000
  H     34.849100  -17.360900  -115.120000
  S     43.090600  -16.550400  -112.354000
  C     43.898700  -16.859400  -110.876000
  C     43.141200  -17.693300  -110.077000
  C     41.982000  -18.213600  -110.729000
  C     41.895400  -17.704800  -112.010000
  H     43.412700  -18.009000  -109.109000
  C     41.095100  -19.233300  -110.030000
  H     40.019300  -18.945600  -109.997000
  H     41.220300  -19.310400  -108.927000
  C     41.186600  -20.625600  -110.651000
  H     42.204700  -20.972800  -110.506000
  H     40.913400  -20.436400  -111.689000
  C     40.287400  -21.740000  -110.052000
  H     39.285600  -21.270200  -110.055000
  H     40.433300  -21.880600  -108.954000
  H     40.343400  -22.754400  -110.528000
  H     39.611500  -18.388900  -116.355000
  H     44.927500  -16.636200  -110.663000

 Total Charge           Charge          ....    0
 Multiplicity           Mult            ....    1
 Number of Electrons    NEL             ....  134
 Basis Dimension        Dim             ....  322

ORBITAL ENERGIES
----------------

  NO   OCC          E(Eh)            E(eV)
   0   2.0000     -88.965690     -2420.8795
   1   2.0000     -88.963861     -2420.8297
   2   2.0000     -10.319783      -280.8156
   3   2.0000     -10.318682      -280.7856
   4   2.0000     -10.311620      -280.5934
   5   2.0000     -10.310539      -280.5640
   6   2.0000     -10.302451      -280.3439
   7   2.0000     -10.301156      -280.3087
   8   2.0000     -10.295701      -280.1603
   9   2.0000     -10.292457      -280.0720
  10   2.0000     -10.288245      -279.9574
  11   2.0000     -10.286086      -279.8986
  12   2.0000     -10.283938      -279.8402
  13   2.0000     -10.283797      -279.8363
  14   2.0000     -10.281785      -279.7816
  15   2.0000     -10.278829      -279.7012
  16   2.0000      -8.082106      -219.9253
  17   2.0000      -8.079922      -219.8658
  18   2.0000      -6.040442      -164.3688
  19   2.0000      -6.038396      -164.3131
  20   2.0000      -6.036300      -164.2561
  21   2.0000      -6.034039      -164.1945
  22   2.0000      -6.033009      -164.1665
  23   2.0000      -6.030827      -164.1071
  24   2.0000      -1.021750       -27.8032
  25   2.0000      -0.995480       -27.0884
  26   2.0000      -0.917590       -24.9689
  27   2.0000      -0.907836       -24.7035
  28   2.0000      -0.876117       -23.8404
  29   2.0000      -0.850681       -23.1482
  30   2.0000      -0.847705       -23.0672
  31   2.0000      -0.816948       -22.2303
  32   2.0000      -0.781482       -21.2652
  33   2.0000      -0.771680       -20.9985
  34   2.0000      -0.704150       -19.1609
  35   2.0000      -0.693697       -18.8765
  36   2.0000      -0.687010       -18.6945
  37   2.0000      -0.668788       -18.1986
  38   2.0000      -0.649511       -17.6741
  39   2.0000      -0.619336       -16.8530
  40   2.0000      -0.603699       -16.4275
  41   2.0000      -0.585086       -15.9210
  42   2.0000      -0.565016       -15.3749
  43   2.0000      -0.562241       -15.2993
  44   2.0000      -0.525546       -14.3008
  45   2.0000      -0.520924       -14.1751
  46   2.0000      -0.517841       -14.0912
  47   2.0000      -0.513056       -13.9610
  48   2.0000      -0.509356       -13.8603
  49   2.0000      -0.501912       -13.6577
  50   2.0000      -0.494285       -13.4502
  51   2.0000      -0.487966       -13.2782
  52   2.0000      -0.474308       -12.9066
  53   2.0000      -0.464407       -12.6371
  54   2.0000      -0.452517       -12.3136
  55   2.0000      -0.447788       -12.1849
  56   2.0000      -0.444736       -12.1019
  57   2.0000      -0.435511       -11.8509
  58   2.0000      -0.429773       -11.6947
  59   2.0000      -0.423180       -11.5153
  60   2.0000      -0.419149       -11.4056
  61   2.0000      -0.417416       -11.3585
  62   2.0000      -0.407738       -11.0951
  63   2.0000      -0.341369        -9.2891
  64   2.0000      -0.330855        -9.0030
  65   2.0000      -0.324945        -8.8422
  66   2.0000      -0.307704        -8.3730
  67   0.0000       0.038971         1.0605
  68   0.0000       0.067358         1.8329
  69   0.0000       0.118364         3.2208
  70   0.0000       0.128623         3.5000
  71   0.0000       0.132821         3.6142

MULLIKEN ATOMIC CHARGES
-----------------------
   0 S :    0.122264
   1 C :   -0.135295
   2 C :   -0.060936
   3 C :    0.072927
   4 C :   -0.178221
   5 H :   -0.017424
   6 C :    0.063156
   7 H :    0.034074
   8 H :    0.018057
   9 C :   -0.120586
  10 H :    0.019371
  11 H :    0.021082
  12 C :   -0.032398
  13 H :    0.046714
  14 H :    0.032836
  15 H :    0.037653
  16 S :    0.142124
  17 C :   -0.085876
  18 C :   -0.025252
  19 C :    0.017426
  20 C :   -0.194397
  21 H :   -0.004620
  22 C :    0.040345
  23 H :    0.020167
  24 H :    0.014198
  25 C :   -0.074267
  26 H :    0.029816
  27 H :    0.043608
  28 C :   -0.067302
  29 H :    0.022042
  30 H :    0.025649
  31 H :    0.060602
  32 H :    0.055220
  33 H :    0.057243
Sum of atomic charges:    0.0000000

LOEWDIN ATOMIC CHARGES
----------------------
   0 S :    0.438021
   1 C :   -0.202938
   2 C :   -0.062153
   3 C :   -0.052914
   4 C :   -0.221186
   5 H :    0.022494
   6 C :   -0.032653
   7 H :    0.032075
   8 H :    0.027163
   9 C :   -0.045565
  10 H :    0.016458
  11 H :    0.018215
  12 C :   -0.065721
  13 H :    0.037466
  14 H :    0.024566
  15 H :    0.027479
  16 S :    0.455394
  17 C :   -0.202250
  18 C :   -0.060018
  19 C :   -0.053376
  20 C :   -0.218344
  21 H :    0.021567
  22 C :   -0.040068
  23 H :    0.029839
  24 H :    0.029130
  25 C :   -0.040586
  26 H :    0.022042
  27 H :    0.026405
  28 C :   -0.078355
  29 H :    0.024895
  30 H :    0.024876
  31 H :    0.036169
  32 H :    0.032568
  33 H :    0.029304

  Mayer bond orders larger than 0.100000
B(  0-S ,  1-C ) :   1.1477 B(  0-S ,  4-C ) :   1.1638 B(  1-C ,  2-C ) :   1.6045
B(  1-C , 32-H ) :   0.9668 B(  2-C ,  3-C ) :   1.2422 B(  2-C ,  6-C ) :   1.0045
B(  3-C ,  4-C ) :   1.5793 B(  3-C ,  5-H ) :   1.0141 B(  4-C , 20-C ) :   0.9915
B(  6-C ,  7-H ) :   0.9438 B(  6-C ,  8-H ) :   0.9554 B(  6-C ,  9-C ) :   1.0497
B(  9-C , 10-H ) :   0.9584 B(  9-C , 11-H ) :   0.9547 B(  9-C , 12-C ) :   1.0870
B( 12-C , 13-H ) :   0.9719 B( 12-C , 14-H ) :   0.9718 B( 12-C , 15-H ) :   0.9709
B( 16-S , 17-C ) :   1.1649 B( 16-S , 20-C ) :   1.1874 B( 17-C , 18-C ) :   1.5795
B( 17-C , 33-H ) :   0.9698 B( 18-C , 19-C ) :   1.2771 B( 18-C , 21-H ) :   0.9943
B( 19-C , 20-C ) :   1.5730 B( 19-C , 22-C ) :   1.0447 B( 22-C , 23-H ) :   0.9285
B( 22-C , 24-H ) :   0.9356 B( 22-C , 25-C ) :   1.0571 B( 25-C , 26-H ) :   0.9569
B( 25-C , 27-H ) :   0.9575 B( 25-C , 28-C ) :   1.0762 B( 28-C , 29-H ) :   0.9723
B( 28-C , 30-H ) :   0.9733 B( 28-C , 31-H ) :   0.9742

Dispersion correction           -0.013777022
FINAL SINGLE POINT ENERGY     -1339.874309333856

DIPOLE MOMENT
-------------
                                X             Y             Z
Electronic contribution:     23.98565      11.54902      -2.81257
Nuclear contribution   :    -24.41211     -11.66768       2.99070
                        -----------------------------------------
Total Dipole Moment    :     -0.42646      -0.11866       0.17814
                        -----------------------------------------
Magnitude (a.u.)       :      0.47716
Magnitude (Debye)      :      1.21283

Rotational constants in cm-1:     0.019961     0.007935     0.006484
Rotational constants in MHz :   598.411761   237.900164   194.376663

                             ****ORCA TERMINATED NORMALLY****
TOTAL RUN TIME: 0 days 0 hours 0 minutes 20 seconds 124 msec
