                         Program Version 4.2.1 -  RELEASE  -
|  1> ! wB97X-D3 SP def2-SVP
|  2> %pal
|  3> nprocs 24
|  4> end
|  5>
|  6> * xyz 0 1
|  7> S 	 -107.53 	 54.7315 	 -88.4117
|  8> C 	 -109.192 	 55.2056 	 -87.8864
|  9> C 	 -109.48 	 56.5249 	 -88.0815
| 10> C 	 -108.309 	 57.2404 	 -88.5551
| 11> C 	 -107.166 	 56.454 	 -88.6094
| 12> H 	 -108.348 	 58.3012 	 -88.809
| 13> C 	 -110.724 	 57.2623 	 -87.8788
| 14> H 	 -111.508 	 56.5162 	 -87.5783
| 15> H 	 -111.073 	 57.7339 	 -88.7866
| 16> C 	 -110.724 	 58.2871 	 -86.6651
| 17> H 	 -109.934 	 59.0485 	 -86.7435
| 18> H 	 -111.615 	 58.8924 	 -86.5952
| 19> C 	 -110.597 	 57.4587 	 -85.3387
| 20> H 	 -111.437 	 56.8293 	 -85.0848
| 21> H 	 -109.783 	 56.7922 	 -85.312
| 22> H 	 -110.484 	 58.1749 	 -84.546
| 23> S 	 -105.225 	 56.746 	 -90.5794
| 24> C 	 -103.894 	 57.8805 	 -90.2911
| 25> C 	 -104.06 	 58.4992 	 -89.0643
| 26> C 	 -105.195 	 58.0543 	 -88.3616
| 27> C 	 -105.85 	 57.0236 	 -88.9378
| 28> H 	 -103.341 	 59.3058 	 -88.9023
| 29> C 	 -105.592 	 58.6483 	 -87.0284
| 30> H 	 -106.522 	 58.2999 	 -86.8581
| 31> H 	 -105.575 	 59.7403 	 -87.0265
| 32> C 	 -104.699 	 58.1746 	 -85.8598
| 33> H 	 -103.672 	 58.5862 	 -86.1095
| 34> H 	 -104.608 	 57.0718 	 -85.7231
| 35> C 	 -105.037 	 58.8655 	 -84.5069
| 36> H 	 -104.405 	 58.5889 	 -83.6752
| 37> H 	 -105.932 	 58.5254 	 -84.0679
| 38> H 	 -105.026 	 59.9864 	 -84.4509
| 39> H 	 -109.89 	 54.4748 	 -87.4441
| 40> H 	 -103.189 	 58.3294 	 -90.9248
| 41> *
| 42>
| 43>                          ****END OF INPUT****

CARTESIAN COORDINATES (ANGSTROEM)
---------------------------------
  S    -107.530000   54.731500  -88.411700
  C    -109.192000   55.205600  -87.886400
  C    -109.480000   56.524900  -88.081500
  C    -108.309000   57.240400  -88.555100
  C    -107.166000   56.454000  -88.609400
  H    -108.348000   58.301200  -88.809000
  C    -110.724000   57.262300  -87.878800
  H    -111.508000   56.516200  -87.578300
  H    -111.073000   57.733900  -88.786600
  C    -110.724000   58.287100  -86.665100
  H    -109.934000   59.048500  -86.743500
  H    -111.615000   58.892400  -86.595200
  C    -110.597000   57.458700  -85.338700
  H    -111.437000   56.829300  -85.084800
  H    -109.783000   56.792200  -85.312000
  H    -110.484000   58.174900  -84.546000
  S    -105.225000   56.746000  -90.579400
  C    -103.894000   57.880500  -90.291100
  C    -104.060000   58.499200  -89.064300
  C    -105.195000   58.054300  -88.361600
  C    -105.850000   57.023600  -88.937800
  H    -103.341000   59.305800  -88.902300
  C    -105.592000   58.648300  -87.028400
  H    -106.522000   58.299900  -86.858100
  H    -105.575000   59.740300  -87.026500
  C    -104.699000   58.174600  -85.859800
  H    -103.672000   58.586200  -86.109500
  H    -104.608000   57.071800  -85.723100
  C    -105.037000   58.865500  -84.506900
  H    -104.405000   58.588900  -83.675200
  H    -105.932000   58.525400  -84.067900
  H    -105.026000   59.986400  -84.450900
  H    -109.890000   54.474800  -87.444100
  H    -103.189000   58.329400  -90.924800

 Total Charge           Charge          ....    0
 Multiplicity           Mult            ....    1
 Number of Electrons    NEL             ....  134
 Basis Dimension        Dim             ....  322

ORBITAL ENERGIES
----------------

  NO   OCC          E(Eh)            E(eV)
   0   2.0000     -88.969761     -2420.9903
   1   2.0000     -88.963658     -2420.8242
   2   2.0000     -10.334143      -281.2063
   3   2.0000     -10.323898      -280.9276
   4   2.0000     -10.321081      -280.8509
   5   2.0000     -10.313981      -280.6577
   6   2.0000     -10.301003      -280.3045
   7   2.0000     -10.298011      -280.2231
   8   2.0000     -10.297418      -280.2070
   9   2.0000     -10.297054      -280.1971
  10   2.0000     -10.296100      -280.1711
  11   2.0000     -10.293322      -280.0955
  12   2.0000     -10.290670      -280.0234
  13   2.0000     -10.279852      -279.7290
  14   2.0000     -10.274350      -279.5793
  15   2.0000     -10.271973      -279.5146
  16   2.0000      -8.083344      -219.9590
  17   2.0000      -8.077635      -219.8036
  18   2.0000      -6.042014      -164.4116
  19   2.0000      -6.038308      -164.3107
  20   2.0000      -6.036304      -164.2562
  21   2.0000      -6.033703      -164.1854
  22   2.0000      -6.032306      -164.1474
  23   2.0000      -6.028196      -164.0356
  24   2.0000      -1.004503       -27.3339
  25   2.0000      -0.981615       -26.7111
  26   2.0000      -0.910743       -24.7826
  27   2.0000      -0.904554       -24.6142
  28   2.0000      -0.867663       -23.6103
  29   2.0000      -0.848024       -23.0759
  30   2.0000      -0.843280       -22.9468
  31   2.0000      -0.813149       -22.1269
  32   2.0000      -0.783480       -21.3196
  33   2.0000      -0.775989       -21.1157
  34   2.0000      -0.713828       -19.4242
  35   2.0000      -0.703396       -19.1404
  36   2.0000      -0.697278       -18.9739
  37   2.0000      -0.659205       -17.9379
  38   2.0000      -0.636397       -17.3172
  39   2.0000      -0.621845       -16.9213
  40   2.0000      -0.590646       -16.0723
  41   2.0000      -0.570714       -15.5299
  42   2.0000      -0.566000       -15.4016
  43   2.0000      -0.552267       -15.0279
  44   2.0000      -0.538688       -14.6584
  45   2.0000      -0.520495       -14.1634
  46   2.0000      -0.516626       -14.0581
  47   2.0000      -0.507059       -13.7978
  48   2.0000      -0.499901       -13.6030
  49   2.0000      -0.495763       -13.4904
  50   2.0000      -0.489005       -13.3065
  51   2.0000      -0.481784       -13.1100
  52   2.0000      -0.471851       -12.8397
  53   2.0000      -0.462170       -12.5763
  54   2.0000      -0.457205       -12.4412
  55   2.0000      -0.449497       -12.2314
  56   2.0000      -0.441978       -12.0268
  57   2.0000      -0.435975       -11.8635
  58   2.0000      -0.434132       -11.8133
  59   2.0000      -0.428619       -11.6633
  60   2.0000      -0.422593       -11.4993
  61   2.0000      -0.418953       -11.4003
  62   2.0000      -0.409084       -11.1317
  63   2.0000      -0.339370        -9.2347
  64   2.0000      -0.331805        -9.0289
  65   2.0000      -0.328273        -8.9328
  66   2.0000      -0.301058        -8.1922
  67   0.0000       0.034108         0.9281
  68   0.0000       0.058034         1.5792
  69   0.0000       0.102073         2.7776
  70   0.0000       0.115409         3.1404
  71   0.0000       0.128480         3.4961

MULLIKEN ATOMIC CHARGES
-----------------------
   0 S :    0.106878
   1 C :   -0.137751
   2 C :   -0.061647
   3 C :    0.036950
   4 C :   -0.177096
   5 H :    0.026379
   6 C :    0.046732
   7 H :    0.020804
   8 H :    0.041523
   9 C :   -0.068083
  10 H :    0.031306
  11 H :    0.029856
  12 C :   -0.045887
  13 H :    0.024401
  14 H :    0.029864
  15 H :    0.025650
  16 S :    0.092200
  17 C :   -0.065189
  18 C :   -0.061427
  19 C :   -0.045936
  20 C :   -0.126646
  21 H :    0.023615
  22 C :    0.160651
  23 H :   -0.016032
  24 H :    0.022034
  25 C :   -0.100506
  26 H :    0.029757
  27 H :    0.048429
  28 C :   -0.044981
  29 H :    0.018608
  30 H :    0.012032
  31 H :    0.033754
  32 H :    0.053674
  33 H :    0.036081
Sum of atomic charges:    0.0000000

LOEWDIN ATOMIC CHARGES
----------------------
   0 S :    0.371085
   1 C :   -0.177962
   2 C :   -0.067003
   3 C :   -0.046807
   4 C :   -0.188555
   5 H :    0.034689
   6 C :   -0.035072
   7 H :    0.034886
   8 H :    0.032767
   9 C :   -0.031612
  10 H :    0.021631
  11 H :    0.023426
  12 C :   -0.061548
  13 H :    0.023577
  14 H :    0.018579
  15 H :    0.024003
  16 S :    0.382641
  17 C :   -0.171763
  18 C :   -0.072470
  19 C :   -0.054989
  20 C :   -0.189598
  21 H :    0.035762
  22 C :   -0.018249
  23 H :    0.008626
  24 H :    0.033070
  25 C :   -0.035999
  26 H :    0.026210
  27 H :    0.032813
  28 C :   -0.079180
  29 H :    0.026716
  30 H :    0.016101
  31 H :    0.029405
  32 H :    0.031279
  33 H :    0.023541

  Mayer bond orders larger than 0.100000
B(  0-S ,  1-C ) :   1.1098 B(  0-S ,  4-C ) :   1.1296 B(  1-C ,  2-C ) :   1.6519
B(  1-C , 32-H ) :   0.9598 B(  2-C ,  3-C ) :   1.1900 B(  2-C ,  6-C ) :   1.0430
B(  3-C ,  4-C ) :   1.5984 B(  3-C ,  5-H ) :   0.9926 B(  4-C , 20-C ) :   1.0121
B(  6-C ,  7-H ) :   0.9400 B(  6-C ,  8-H ) :   0.9384 B(  6-C ,  9-C ) :   1.0579
B(  9-C , 10-H ) :   0.9618 B(  9-C , 11-H ) :   0.9589 B(  9-C , 12-C ) :   1.0617
B( 12-C , 13-H ) :   0.9756 B( 12-C , 14-H ) :   0.9801 B( 12-C , 15-H ) :   0.9743
B( 16-S , 17-C ) :   1.1432 B( 16-S , 20-C ) :   1.1211 B( 17-C , 18-C ) :   1.6463
B( 17-C , 33-H ) :   0.9669 B( 18-C , 19-C ) :   1.2080 B( 18-C , 21-H ) :   0.9912
B( 19-C , 20-C ) :   1.6442 B( 19-C , 22-C ) :   1.0463 B( 22-C , 23-H ) :   0.9153
B( 22-C , 24-H ) :   0.9332 B( 22-C , 25-C ) :   1.0653 B( 25-C , 26-H ) :   0.9587
B( 25-C , 27-H ) :   0.9560 B( 25-C , 28-C ) :   1.0766 B( 28-C , 29-H ) :   0.9701
B( 28-C , 30-H ) :   0.9732 B( 28-C , 31-H ) :   0.9749

Dispersion correction           -0.014830842
FINAL SINGLE POINT ENERGY     -1339.860514163452

DIPOLE MOMENT
-------------
                                X             Y             Z
Electronic contribution:      9.32168     -15.41496     -24.23112
Nuclear contribution   :     -9.68720      16.10038      24.62369
                        -----------------------------------------
Total Dipole Moment    :     -0.36552       0.68542       0.39257
                        -----------------------------------------
Magnitude (a.u.)       :      0.87036
Magnitude (Debye)      :      2.21228

Rotational constants in cm-1:     0.016759     0.009877     0.007394
Rotational constants in MHz :   502.411164   296.101121   221.675691

                             ****ORCA TERMINATED NORMALLY****
TOTAL RUN TIME: 0 days 0 hours 0 minutes 22 seconds 254 msec
