                         Program Version 4.2.1 -  RELEASE  -
|  1> ! wB97X-D3 SP def2-SVP
|  2> %pal
|  3> nprocs 24
|  4> end
|  5>
|  6> * xyz 0 1
|  7> S 	 -81.9559 	 -20.2515 	 -53.1869
|  8> C 	 -82.7977 	 -18.7459 	 -52.7762
|  9> C 	 -82.1256 	 -18.0109 	 -51.9108
| 10> C 	 -80.9759 	 -18.6102 	 -51.4606
| 11> C 	 -80.7095 	 -19.8217 	 -52.0859
| 12> H 	 -80.2362 	 -18.2085 	 -50.7938
| 13> C 	 -82.6322 	 -16.6736 	 -51.3484
| 14> H 	 -83.5639 	 -16.4174 	 -51.8879
| 15> H 	 -81.9464 	 -15.8783 	 -51.6458
| 16> C 	 -82.8244 	 -16.7352 	 -49.7811
| 17> H 	 -81.8326 	 -16.7055 	 -49.3339
| 18> H 	 -83.2955 	 -15.783 	 -49.5364
| 19> C 	 -83.6157 	 -17.8485 	 -49.1965
| 20> H 	 -84.4916 	 -18.0474 	 -49.8833
| 21> H 	 -82.9539 	 -18.7434 	 -49.2358
| 22> H 	 -83.9341 	 -17.7642 	 -48.1363
| 23> S 	 -79.8751 	 -22.2281 	 -51.0383
| 24> C 	 -78.2614 	 -22.7812 	 -51.3524
| 25> C 	 -77.5159 	 -21.8703 	 -52.0979
| 26> C 	 -78.3113 	 -20.735 	 -52.4968
| 27> C 	 -79.5664 	 -20.6959 	 -51.8955
| 28> H 	 -76.5321 	 -21.9647 	 -52.4649
| 29> C 	 -77.7628 	 -19.6818 	 -53.3946
| 30> H 	 -76.7956 	 -19.9407 	 -53.7017
| 31> H 	 -77.8274 	 -18.7092 	 -52.8403
| 32> C 	 -78.563 	 -19.451 	 -54.6826
| 33> H 	 -78.0196 	 -18.7472 	 -55.2752
| 34> H 	 -79.5578 	 -19.0524 	 -54.467
| 35> C 	 -78.6788 	 -20.7401 	 -55.526
| 36> H 	 -77.6528 	 -21.0475 	 -55.8662
| 37> H 	 -79.3741 	 -20.6055 	 -56.3937
| 38> H 	 -79.0648 	 -21.5009 	 -54.88
| 39> H 	 -83.7935 	 -18.5181 	 -53.1396
| 40> H 	 -77.7794 	 -23.6934 	 -51.0548
| 41> *
| 42>
| 43>                          ****END OF INPUT****

CARTESIAN COORDINATES (ANGSTROEM)
---------------------------------
  S    -81.955900  -20.251500  -53.186900
  C    -82.797700  -18.745900  -52.776200
  C    -82.125600  -18.010900  -51.910800
  C    -80.975900  -18.610200  -51.460600
  C    -80.709500  -19.821700  -52.085900
  H    -80.236200  -18.208500  -50.793800
  C    -82.632200  -16.673600  -51.348400
  H    -83.563900  -16.417400  -51.887900
  H    -81.946400  -15.878300  -51.645800
  C    -82.824400  -16.735200  -49.781100
  H    -81.832600  -16.705500  -49.333900
  H    -83.295500  -15.783000  -49.536400
  C    -83.615700  -17.848500  -49.196500
  H    -84.491600  -18.047400  -49.883300
  H    -82.953900  -18.743400  -49.235800
  H    -83.934100  -17.764200  -48.136300
  S    -79.875100  -22.228100  -51.038300
  C    -78.261400  -22.781200  -51.352400
  C    -77.515900  -21.870300  -52.097900
  C    -78.311300  -20.735000  -52.496800
  C    -79.566400  -20.695900  -51.895500
  H    -76.532100  -21.964700  -52.464900
  C    -77.762800  -19.681800  -53.394600
  H    -76.795600  -19.940700  -53.701700
  H    -77.827400  -18.709200  -52.840300
  C    -78.563000  -19.451000  -54.682600
  H    -78.019600  -18.747200  -55.275200
  H    -79.557800  -19.052400  -54.467000
  C    -78.678800  -20.740100  -55.526000
  H    -77.652800  -21.047500  -55.866200
  H    -79.374100  -20.605500  -56.393700
  H    -79.064800  -21.500900  -54.880000
  H    -83.793500  -18.518100  -53.139600
  H    -77.779400  -23.693400  -51.054800

 Total Charge           Charge          ....    0
 Multiplicity           Mult            ....    1
 Number of Electrons    NEL             ....  134
 Basis Dimension        Dim             ....  322

ORBITAL ENERGIES
----------------

  NO   OCC          E(Eh)            E(eV)
   0   2.0000     -88.966812     -2420.9100
   1   2.0000     -88.966062     -2420.8896
   2   2.0000     -10.325971      -280.9840
   3   2.0000     -10.322758      -280.8965
   4   2.0000     -10.319169      -280.7989
   5   2.0000     -10.307878      -280.4916
   6   2.0000     -10.301202      -280.3100
   7   2.0000     -10.299083      -280.2523
   8   2.0000     -10.291645      -280.0499
   9   2.0000     -10.289772      -279.9989
  10   2.0000     -10.288275      -279.9582
  11   2.0000     -10.286792      -279.9178
  12   2.0000     -10.285175      -279.8738
  13   2.0000     -10.280870      -279.7567
  14   2.0000     -10.275985      -279.6238
  15   2.0000     -10.273446      -279.5547
  16   2.0000      -8.081134      -219.8988
  17   2.0000      -8.080957      -219.8940
  18   2.0000      -6.039730      -164.3494
  19   2.0000      -6.039291      -164.3374
  20   2.0000      -6.035603      -164.2371
  21   2.0000      -6.035497      -164.2342
  22   2.0000      -6.031930      -164.1372
  23   2.0000      -6.031822      -164.1342
  24   2.0000      -1.012787       -27.5593
  25   2.0000      -0.986360       -26.8402
  26   2.0000      -0.911510       -24.8034
  27   2.0000      -0.910311       -24.7708
  28   2.0000      -0.871094       -23.7037
  29   2.0000      -0.848121       -23.0786
  30   2.0000      -0.843790       -22.9607
  31   2.0000      -0.814139       -22.1539
  32   2.0000      -0.784736       -21.3537
  33   2.0000      -0.771221       -20.9860
  34   2.0000      -0.711212       -19.3531
  35   2.0000      -0.691130       -18.8066
  36   2.0000      -0.683747       -18.6057
  37   2.0000      -0.667546       -18.1649
  38   2.0000      -0.643900       -17.5214
  39   2.0000      -0.621654       -16.9161
  40   2.0000      -0.591555       -16.0970
  41   2.0000      -0.566623       -15.4186
  42   2.0000      -0.554741       -15.0953
  43   2.0000      -0.553918       -15.0729
  44   2.0000      -0.546419       -14.8688
  45   2.0000      -0.539657       -14.6848
  46   2.0000      -0.514458       -13.9991
  47   2.0000      -0.510906       -13.9025
  48   2.0000      -0.502290       -13.6680
  49   2.0000      -0.491405       -13.3718
  50   2.0000      -0.486075       -13.2268
  51   2.0000      -0.477223       -12.9859
  52   2.0000      -0.474276       -12.9057
  53   2.0000      -0.467764       -12.7285
  54   2.0000      -0.458963       -12.4890
  55   2.0000      -0.451639       -12.2897
  56   2.0000      -0.444195       -12.0872
  57   2.0000      -0.438339       -11.9278
  58   2.0000      -0.427971       -11.6457
  59   2.0000      -0.420624       -11.4458
  60   2.0000      -0.419125       -11.4050
  61   2.0000      -0.414697       -11.2845
  62   2.0000      -0.408147       -11.1062
  63   2.0000      -0.340122        -9.2552
  64   2.0000      -0.328391        -8.9360
  65   2.0000      -0.324258        -8.8235
  66   2.0000      -0.307756        -8.3745
  67   0.0000       0.039673         1.0795
  68   0.0000       0.054716         1.4889
  69   0.0000       0.115750         3.1497
  70   0.0000       0.122160         3.3241
  71   0.0000       0.127412         3.4671

MULLIKEN ATOMIC CHARGES
-----------------------
   0 S :    0.121229
   1 C :   -0.145383
   2 C :   -0.052274
   3 C :    0.044007
   4 C :   -0.195613
   5 H :    0.004365
   6 C :    0.087473
   7 H :    0.013567
   8 H :    0.037643
   9 C :   -0.091022
  10 H :    0.030372
  11 H :    0.027620
  12 C :   -0.052915
  13 H :    0.033512
  14 H :    0.038209
  15 H :    0.050280
  16 S :    0.114883
  17 C :   -0.066257
  18 C :   -0.012250
  19 C :   -0.076186
  20 C :   -0.182040
  21 H :    0.000471
  22 C :    0.119569
  23 H :   -0.008459
  24 H :    0.046608
  25 C :   -0.077482
  26 H :    0.019882
  27 H :    0.041296
  28 C :   -0.067278
  29 H :    0.026015
  30 H :    0.044786
  31 H :    0.035127
  32 H :    0.039054
  33 H :    0.051192
Sum of atomic charges:    0.0000000

LOEWDIN ATOMIC CHARGES
----------------------
   0 S :    0.414368
   1 C :   -0.183740
   2 C :   -0.077427
   3 C :   -0.059319
   4 C :   -0.204508
   5 H :    0.031139
   6 C :   -0.020798
   7 H :    0.027141
   8 H :    0.034298
   9 C :   -0.046415
  10 H :    0.021926
  11 H :    0.023066
  12 C :   -0.074423
  13 H :    0.031018
  14 H :    0.031056
  15 H :    0.033247
  16 S :    0.406652
  17 C :   -0.183275
  18 C :   -0.069644
  19 C :   -0.048334
  20 C :   -0.207088
  21 H :    0.023453
  22 C :   -0.027973
  23 H :    0.018310
  24 H :    0.044432
  25 C :   -0.037307
  26 H :    0.018200
  27 H :    0.019524
  28 C :   -0.067425
  29 H :    0.024802
  30 H :    0.031004
  31 H :    0.018527
  32 H :    0.025955
  33 H :    0.029560

  Mayer bond orders larger than 0.100000
B(  0-S ,  1-C ) :   1.1252 B(  0-S ,  4-C ) :   1.1707 B(  1-C ,  2-C ) :   1.6388
B(  1-C , 32-H ) :   0.9630 B(  2-C ,  3-C ) :   1.2340 B(  2-C ,  6-C ) :   1.0112
B(  3-C ,  4-C ) :   1.5791 B(  3-C ,  5-H ) :   1.0026 B(  4-C , 20-C ) :   1.0191
B(  6-C ,  7-H ) :   0.9410 B(  6-C ,  8-H ) :   0.9396 B(  6-C ,  9-C ) :   1.0645
B(  9-C , 10-H ) :   0.9536 B(  9-C , 11-H ) :   0.9562 B(  9-C , 12-C ) :   1.0807
B( 12-C , 13-H ) :   0.9740 B( 12-C , 14-H ) :   0.9668 B( 12-C , 15-H ) :   0.9721
B( 16-S , 17-C ) :   1.1694 B( 16-S , 20-C ) :   1.1271 B( 17-C , 18-C ) :   1.5898
B( 17-C , 33-H ) :   0.9649 B( 18-C , 19-C ) :   1.2575 B( 18-C , 21-H ) :   0.9889
B( 19-C , 20-C ) :   1.5909 B( 19-C , 22-C ) :   1.0503 B( 22-C , 23-H ) :   0.9257
B( 22-C , 24-H ) :   0.9307 B( 22-C , 25-C ) :   1.0731 B( 25-C , 26-H ) :   0.9562
B( 25-C , 27-H ) :   0.9537 B( 25-C , 28-C ) :   1.0726 B( 28-C , 29-H ) :   0.9744
B( 28-C , 30-H ) :   0.9744 B( 28-C , 31-H ) :   0.9748

Dispersion correction           -0.016215990
FINAL SINGLE POINT ENERGY     -1339.888699034796

DIPOLE MOMENT
-------------
                                X             Y             Z
Electronic contribution:      0.20720     -15.07565       1.83394
Nuclear contribution   :     -0.02862      15.53400      -1.83841
                        -----------------------------------------
Total Dipole Moment    :      0.17858       0.45835      -0.00447
                        -----------------------------------------
Magnitude (a.u.)       :      0.49194
Magnitude (Debye)      :      1.25040

Rotational constants in cm-1:     0.022215     0.009041     0.007804
Rotational constants in MHz :   665.977795   271.029810   233.963414

                             ****ORCA TERMINATED NORMALLY****
TOTAL RUN TIME: 0 days 0 hours 0 minutes 22 seconds 836 msec
