                         Program Version 4.2.1 -  RELEASE  -
|  1> ! wB97X-D3 SP def2-SVP
|  2> %pal
|  3> nprocs 24
|  4> end
|  5>
|  6> * xyz 0 1
|  7> S 	 27.0242 	 -2.64353 	 -108.128
|  8> C 	 28.5232 	 -2.28752 	 -108.887
|  9> C 	 28.6852 	 -0.893645 	 -108.912
| 10> C 	 27.5038 	 -0.153821 	 -108.451
| 11> C 	 26.6379 	 -0.99066 	 -107.786
| 12> H 	 27.3833 	 0.876202 	 -108.39
| 13> C 	 29.7844 	 -0.139795 	 -109.64
| 14> H 	 30.7972 	 -0.548793 	 -109.469
| 15> H 	 30.0276 	 0.812486 	 -109.106
| 16> C 	 29.4991 	 0.169826 	 -111.138
| 17> H 	 28.6831 	 0.870478 	 -111.06
| 18> H 	 30.3327 	 0.767678 	 -111.557
| 19> C 	 29.2282 	 -1.07181 	 -112.063
| 20> H 	 29.9208 	 -1.81364 	 -111.738
| 21> H 	 28.222 	 -1.47314 	 -111.856
| 22> H 	 29.4392 	 -0.934383 	 -113.153
| 23> S 	 25.4251 	 0.226666 	 -105.616
| 24> C 	 23.806 	 0.666629 	 -105.684
| 25> C 	 23.0729 	 0.02285 	 -106.668
| 26> C 	 23.97 	 -0.675123 	 -107.531
| 27> C 	 25.3309 	 -0.569696 	 -107.18
| 28> H 	 22.0484 	 0.187235 	 -106.834
| 29> C 	 23.5233 	 -1.45368 	 -108.763
| 30> H 	 22.4428 	 -1.41655 	 -108.789
| 31> H 	 23.8515 	 -2.46834 	 -108.703
| 32> C 	 23.9861 	 -0.855106 	 -110.09
| 33> H 	 25.03 	 -0.686607 	 -110.095
| 34> H 	 23.5107 	 0.092573 	 -110.276
| 35> C 	 23.6796 	 -1.73269 	 -111.294
| 36> H 	 24.5321 	 -2.39946 	 -111.301
| 37> H 	 23.7295 	 -1.27308 	 -112.296
| 38> H 	 22.8254 	 -2.38065 	 -111.131
| 39> H 	 29.2981 	 -2.98345 	 -109.284
| 40> H 	 23.2717 	 1.27221 	 -104.975
| 41> *
| 42>
| 43>                          ****END OF INPUT****

CARTESIAN COORDINATES (ANGSTROEM)
---------------------------------
  S     27.024200   -2.643530  -108.128000
  C     28.523200   -2.287520  -108.887000
  C     28.685200   -0.893645  -108.912000
  C     27.503800   -0.153821  -108.451000
  C     26.637900   -0.990660  -107.786000
  H     27.383300    0.876202  -108.390000
  C     29.784400   -0.139795  -109.640000
  H     30.797200   -0.548793  -109.469000
  H     30.027600    0.812486  -109.106000
  C     29.499100    0.169826  -111.138000
  H     28.683100    0.870478  -111.060000
  H     30.332700    0.767678  -111.557000
  C     29.228200   -1.071810  -112.063000
  H     29.920800   -1.813640  -111.738000
  H     28.222000   -1.473140  -111.856000
  H     29.439200   -0.934383  -113.153000
  S     25.425100    0.226666  -105.616000
  C     23.806000    0.666629  -105.684000
  C     23.072900    0.022850  -106.668000
  C     23.970000   -0.675123  -107.531000
  C     25.330900   -0.569696  -107.180000
  H     22.048400    0.187235  -106.834000
  C     23.523300   -1.453680  -108.763000
  H     22.442800   -1.416550  -108.789000
  H     23.851500   -2.468340  -108.703000
  C     23.986100   -0.855106  -110.090000
  H     25.030000   -0.686607  -110.095000
  H     23.510700    0.092573  -110.276000
  C     23.679600   -1.732690  -111.294000
  H     24.532100   -2.399460  -111.301000
  H     23.729500   -1.273080  -112.296000
  H     22.825400   -2.380650  -111.131000
  H     29.298100   -2.983450  -109.284000
  H     23.271700    1.272210  -104.975000

 Total Charge           Charge          ....    0
 Multiplicity           Mult            ....    1
 Number of Electrons    NEL             ....  134
 Basis Dimension        Dim             ....  322

ORBITAL ENERGIES
----------------

  NO   OCC          E(Eh)            E(eV)
   0   2.0000     -88.968828     -2420.9649
   1   2.0000     -88.966864     -2420.9114
   2   2.0000     -10.333188      -281.1803
   3   2.0000     -10.327625      -281.0290
   4   2.0000     -10.322121      -280.8792
   5   2.0000     -10.311959      -280.6027
   6   2.0000     -10.308099      -280.4976
   7   2.0000     -10.305785      -280.4347
   8   2.0000     -10.295882      -280.1652
   9   2.0000     -10.295576      -280.1569
  10   2.0000     -10.291564      -280.0477
  11   2.0000     -10.290567      -280.0206
  12   2.0000     -10.285051      -279.8705
  13   2.0000     -10.281884      -279.7843
  14   2.0000     -10.271594      -279.5043
  15   2.0000     -10.269544      -279.4485
  16   2.0000      -8.083994      -219.9767
  17   2.0000      -8.082644      -219.9399
  18   2.0000      -6.042486      -164.4244
  19   2.0000      -6.040894      -164.3811
  20   2.0000      -6.038245      -164.3090
  21   2.0000      -6.036979      -164.2746
  22   2.0000      -6.034930      -164.2188
  23   2.0000      -6.033643      -164.1838
  24   2.0000      -1.009679       -27.4748
  25   2.0000      -0.991087       -26.9689
  26   2.0000      -0.910625       -24.7794
  27   2.0000      -0.904250       -24.6059
  28   2.0000      -0.867293       -23.6002
  29   2.0000      -0.852218       -23.1900
  30   2.0000      -0.843674       -22.9575
  31   2.0000      -0.815309       -22.1857
  32   2.0000      -0.782203       -21.2848
  33   2.0000      -0.771418       -20.9914
  34   2.0000      -0.705013       -19.1844
  35   2.0000      -0.697424       -18.9779
  36   2.0000      -0.685988       -18.6667
  37   2.0000      -0.664466       -18.0810
  38   2.0000      -0.647601       -17.6221
  39   2.0000      -0.619280       -16.8515
  40   2.0000      -0.596938       -16.2435
  41   2.0000      -0.574723       -15.6390
  42   2.0000      -0.568238       -15.4625
  43   2.0000      -0.544022       -14.8036
  44   2.0000      -0.537318       -14.6212
  45   2.0000      -0.523567       -14.2470
  46   2.0000      -0.516660       -14.0590
  47   2.0000      -0.505632       -13.7590
  48   2.0000      -0.503722       -13.7070
  49   2.0000      -0.497815       -13.5462
  50   2.0000      -0.490411       -13.3448
  51   2.0000      -0.481645       -13.1062
  52   2.0000      -0.475126       -12.9288
  53   2.0000      -0.472014       -12.8442
  54   2.0000      -0.463570       -12.6144
  55   2.0000      -0.444243       -12.0885
  56   2.0000      -0.442806       -12.0494
  57   2.0000      -0.436930       -11.8895
  58   2.0000      -0.434916       -11.8347
  59   2.0000      -0.418782       -11.3956
  60   2.0000      -0.417200       -11.3526
  61   2.0000      -0.410981       -11.1834
  62   2.0000      -0.407749       -11.0954
  63   2.0000      -0.338775        -9.2185
  64   2.0000      -0.333293        -9.0694
  65   2.0000      -0.323912        -8.8141
  66   2.0000      -0.305889        -8.3237
  67   0.0000       0.035440         0.9644
  68   0.0000       0.062870         1.7108
  69   0.0000       0.108962         2.9650
  70   0.0000       0.114005         3.1022
  71   0.0000       0.129486         3.5235

MULLIKEN ATOMIC CHARGES
-----------------------
   0 S :    0.121182
   1 C :   -0.123134
   2 C :   -0.094775
   3 C :    0.065624
   4 C :   -0.147942
   5 H :    0.001283
   6 C :    0.010302
   7 H :    0.019962
   8 H :    0.024698
   9 C :   -0.059247
  10 H :    0.022717
  11 H :    0.032350
  12 C :   -0.053804
  13 H :    0.014306
  14 H :    0.050833
  15 H :    0.049727
  16 S :    0.131148
  17 C :   -0.073869
  18 C :   -0.029599
  19 C :   -0.033344
  20 C :   -0.194160
  21 H :    0.004856
  22 C :    0.090120
  23 H :    0.007434
  24 H :    0.024951
  25 C :   -0.061186
  26 H :    0.025301
  27 H :    0.016590
  28 C :   -0.041817
  29 H :    0.014129
  30 H :    0.039510
  31 H :    0.026059
  32 H :    0.072220
  33 H :    0.047574
Sum of atomic charges:    0.0000000

LOEWDIN ATOMIC CHARGES
----------------------
   0 S :    0.430266
   1 C :   -0.214858
   2 C :   -0.064778
   3 C :   -0.046076
   4 C :   -0.206046
   5 H :    0.023172
   6 C :   -0.050418
   7 H :    0.027316
   8 H :    0.035870
   9 C :   -0.038194
  10 H :    0.018737
  11 H :    0.027217
  12 C :   -0.070200
  13 H :    0.018192
  14 H :    0.030303
  15 H :    0.034350
  16 S :    0.443666
  17 C :   -0.199727
  18 C :   -0.072436
  19 C :   -0.045224
  20 C :   -0.210323
  21 H :    0.026064
  22 C :   -0.026025
  23 H :    0.027167
  24 H :    0.024397
  25 C :   -0.035979
  26 H :    0.017452
  27 H :    0.018541
  28 C :   -0.069415
  29 H :    0.024026
  30 H :    0.030200
  31 H :    0.021693
  32 H :    0.044178
  33 H :    0.026890

  Mayer bond orders larger than 0.100000
B(  0-S ,  1-C ) :   1.1511 B(  0-S ,  4-C ) :   1.1578 B(  1-C ,  2-C ) :   1.5893
B(  1-C , 32-H ) :   0.9655 B(  2-C ,  3-C ) :   1.2306 B(  2-C ,  6-C ) :   1.0445
B(  3-C ,  4-C ) :   1.5833 B(  3-C ,  5-H ) :   0.9975 B(  4-C , 20-C ) :   0.9939
B(  6-C ,  7-H ) :   0.9408 B(  6-C ,  8-H ) :   0.9391 B(  6-C ,  9-C ) :   1.0642
B(  9-C , 10-H ) :   0.9608 B(  9-C , 11-H ) :   0.9554 B(  9-C , 12-C ) :   1.0601
B( 12-C , 13-H ) :   0.9754 B( 12-C , 14-H ) :   0.9737 B( 12-C , 15-H ) :   0.9761
B( 16-S , 17-C ) :   1.2008 B( 16-S , 20-C ) :   1.1533 B( 17-C , 18-C ) :   1.5668
B( 17-C , 33-H ) :   0.9631 B( 18-C , 19-C ) :   1.2806 B( 18-C , 21-H ) :   0.9990
B( 19-C , 20-C ) :   1.5687 B( 19-C , 22-C ) :   1.0402 B( 22-C , 23-H ) :   0.9254
B( 22-C , 24-H ) :   0.9383 B( 22-C , 25-C ) :   1.0715 B( 25-C , 26-H ) :   0.9631
B( 25-C , 27-H ) :   0.9532 B( 25-C , 28-C ) :   1.0757 B( 28-C , 29-H ) :   0.9754
B( 28-C , 30-H ) :   0.9742 B( 28-C , 31-H ) :   0.9733

Dispersion correction           -0.015697577
FINAL SINGLE POINT ENERGY     -1339.869835769835

DIPOLE MOMENT
-------------
                                X             Y             Z
Electronic contribution:     -2.75114      -1.33665      26.12369
Nuclear contribution   :      2.80551       1.57021     -26.51641
                        -----------------------------------------
Total Dipole Moment    :      0.05436       0.23356      -0.39272
                        -----------------------------------------
Magnitude (a.u.)       :      0.46015
Magnitude (Debye)      :      1.16960

Rotational constants in cm-1:     0.019714     0.009204     0.007557
Rotational constants in MHz :   590.999441   275.914044   226.547382

                             ****ORCA TERMINATED NORMALLY****
TOTAL RUN TIME: 0 days 0 hours 0 minutes 22 seconds 482 msec
