                         Program Version 4.2.1 -  RELEASE  -
|  1> ! wB97X-D3 SP def2-SVP
|  2> %pal
|  3> nprocs 24
|  4> end
|  5>
|  6> * xyz 0 1
|  7> S 	 -41.179 	 19.8159 	 11.0682
|  8> C 	 -41.8209 	 18.5148 	 12.0069
|  9> C 	 -40.9652 	 18.1443 	 13.0321
| 10> C 	 -39.7202 	 18.8198 	 12.9458
| 11> C 	 -39.6883 	 19.7851 	 11.9699
| 12> H 	 -38.8246 	 18.6988 	 13.6118
| 13> C 	 -41.2338 	 17.0486 	 13.9862
| 14> H 	 -40.95 	 16.0641 	 13.5404
| 15> H 	 -42.2909 	 17.0596 	 14.1654
| 16> C 	 -40.4642 	 17.1093 	 15.3773
| 17> H 	 -39.3769 	 17.0094 	 15.2683
| 18> H 	 -40.8135 	 18.0074 	 15.9257
| 19> C 	 -40.9216 	 16.0243 	 16.3814
| 20> H 	 -41.9986 	 15.9025 	 16.3742
| 21> H 	 -40.5138 	 15.0419 	 16.2764
| 22> H 	 -40.6124 	 16.329 	 17.363
| 23> S 	 -39.2984 	 22.3998 	 11.7496
| 24> C 	 -37.736 	 23.0534 	 11.4688
| 25> C 	 -36.769 	 22.1208 	 11.7533
| 26> C 	 -37.3115 	 20.8393 	 12.0518
| 27> C 	 -38.7136 	 20.7877 	 11.8632
| 28> H 	 -35.7156 	 22.3241 	 11.6064
| 29> C 	 -36.3079 	 19.7473 	 12.4218
| 30> H 	 -35.6845 	 19.6564 	 11.515
| 31> H 	 -36.8799 	 18.7752 	 12.5091
| 32> C 	 -35.4128 	 20.0206 	 13.6241
| 33> H 	 -34.7377 	 20.8796 	 13.6211
| 34> H 	 -34.7924 	 19.1714 	 13.801
| 35> C 	 -36.2797 	 20.0994 	 14.8584
| 36> H 	 -37.0527 	 19.3874 	 14.5743
| 37> H 	 -36.7633 	 21.0557 	 14.8934
| 38> H 	 -35.6798 	 19.9365 	 15.7458
| 39> H 	 -42.6619 	 17.8357 	 11.6821
| 40> H 	 -37.547 	 24.0822 	 11.2864
| 41> *
| 42>
| 43>                          ****END OF INPUT****

CARTESIAN COORDINATES (ANGSTROEM)
---------------------------------
  S    -41.179000   19.815900   11.068200
  C    -41.820900   18.514800   12.006900
  C    -40.965200   18.144300   13.032100
  C    -39.720200   18.819800   12.945800
  C    -39.688300   19.785100   11.969900
  H    -38.824600   18.698800   13.611800
  C    -41.233800   17.048600   13.986200
  H    -40.950000   16.064100   13.540400
  H    -42.290900   17.059600   14.165400
  C    -40.464200   17.109300   15.377300
  H    -39.376900   17.009400   15.268300
  H    -40.813500   18.007400   15.925700
  C    -40.921600   16.024300   16.381400
  H    -41.998600   15.902500   16.374200
  H    -40.513800   15.041900   16.276400
  H    -40.612400   16.329000   17.363000
  S    -39.298400   22.399800   11.749600
  C    -37.736000   23.053400   11.468800
  C    -36.769000   22.120800   11.753300
  C    -37.311500   20.839300   12.051800
  C    -38.713600   20.787700   11.863200
  H    -35.715600   22.324100   11.606400
  C    -36.307900   19.747300   12.421800
  H    -35.684500   19.656400   11.515000
  H    -36.879900   18.775200   12.509100
  C    -35.412800   20.020600   13.624100
  H    -34.737700   20.879600   13.621100
  H    -34.792400   19.171400   13.801000
  C    -36.279700   20.099400   14.858400
  H    -37.052700   19.387400   14.574300
  H    -36.763300   21.055700   14.893400
  H    -35.679800   19.936500   15.745800
  H    -42.661900   17.835700   11.682100
  H    -37.547000   24.082200   11.286400

 Total Charge           Charge          ....    0
 Multiplicity           Mult            ....    1
 Number of Electrons    NEL             ....  134
 Basis Dimension        Dim             ....  322

ORBITAL ENERGIES
----------------

  NO   OCC          E(Eh)            E(eV)
   0   2.0000     -88.968925     -2420.9675
   1   2.0000     -88.961289     -2420.7597
   2   2.0000     -10.323687      -280.9218
   3   2.0000     -10.322486      -280.8891
   4   2.0000     -10.314536      -280.6728
   5   2.0000     -10.307574      -280.4833
   6   2.0000     -10.302435      -280.3435
   7   2.0000     -10.299185      -280.2551
   8   2.0000     -10.297461      -280.2082
   9   2.0000     -10.295791      -280.1627
  10   2.0000     -10.294451      -280.1263
  11   2.0000     -10.294009      -280.1142
  12   2.0000     -10.288480      -279.9638
  13   2.0000     -10.281407      -279.7713
  14   2.0000     -10.274255      -279.5767
  15   2.0000     -10.268940      -279.4321
  16   2.0000      -8.083922      -219.9747
  17   2.0000      -8.077347      -219.7958
  18   2.0000      -6.042386      -164.4217
  19   2.0000      -6.038341      -164.3116
  20   2.0000      -6.035824      -164.2431
  21   2.0000      -6.034748      -164.2139
  22   2.0000      -6.031651      -164.1296
  23   2.0000      -6.028072      -164.0322
  24   2.0000      -1.016404       -27.6578
  25   2.0000      -0.989707       -26.9313
  26   2.0000      -0.918451       -24.9923
  27   2.0000      -0.910257       -24.7694
  28   2.0000      -0.876873       -23.8609
  29   2.0000      -0.854867       -23.2621
  30   2.0000      -0.848536       -23.0899
  31   2.0000      -0.815622       -22.1942
  32   2.0000      -0.780192       -21.2301
  33   2.0000      -0.769365       -20.9355
  34   2.0000      -0.714891       -19.4532
  35   2.0000      -0.696829       -18.9617
  36   2.0000      -0.690879       -18.7998
  37   2.0000      -0.659899       -17.9568
  38   2.0000      -0.635935       -17.3047
  39   2.0000      -0.621531       -16.9127
  40   2.0000      -0.597731       -16.2651
  41   2.0000      -0.573811       -15.6142
  42   2.0000      -0.565766       -15.3953
  43   2.0000      -0.564764       -15.3680
  44   2.0000      -0.546871       -14.8811
  45   2.0000      -0.526123       -14.3165
  46   2.0000      -0.519061       -14.1244
  47   2.0000      -0.510702       -13.8969
  48   2.0000      -0.504670       -13.7328
  49   2.0000      -0.500524       -13.6199
  50   2.0000      -0.497637       -13.5414
  51   2.0000      -0.482094       -13.1184
  52   2.0000      -0.467161       -12.7121
  53   2.0000      -0.459810       -12.5121
  54   2.0000      -0.456036       -12.4094
  55   2.0000      -0.450686       -12.2638
  56   2.0000      -0.446586       -12.1522
  57   2.0000      -0.436609       -11.8807
  58   2.0000      -0.435697       -11.8559
  59   2.0000      -0.425055       -11.5663
  60   2.0000      -0.420275       -11.4363
  61   2.0000      -0.418135       -11.3780
  62   2.0000      -0.412430       -11.2228
  63   2.0000      -0.357032        -9.7153
  64   2.0000      -0.330810        -9.0018
  65   2.0000      -0.325132        -8.8473
  66   2.0000      -0.280299        -7.6273
  67   0.0000       0.023779         0.6471
  68   0.0000       0.074460         2.0262
  69   0.0000       0.108925         2.9640
  70   0.0000       0.119275         3.2456
  71   0.0000       0.132343         3.6012

MULLIKEN ATOMIC CHARGES
-----------------------
   0 S :    0.126447
   1 C :   -0.143984
   2 C :   -0.071481
   3 C :    0.002877
   4 C :   -0.138235
   5 H :    0.011548
   6 C :    0.053937
   7 H :    0.048511
   8 H :    0.020440
   9 C :   -0.122231
  10 H :    0.049085
  11 H :    0.045103
  12 C :   -0.029509
  13 H :    0.023401
  14 H :    0.021850
  15 H :    0.025305
  16 S :    0.105069
  17 C :   -0.078535
  18 C :   -0.037386
  19 C :   -0.049585
  20 C :   -0.144461
  21 H :    0.021677
  22 C :    0.012680
  23 H :    0.041031
  24 H :    0.031601
  25 C :   -0.056252
  26 H :    0.030010
  27 H :    0.021587
  28 C :   -0.021614
  29 H :    0.007424
  30 H :    0.037494
  31 H :    0.037848
  32 H :    0.072749
  33 H :    0.045600
Sum of atomic charges:    0.0000000

LOEWDIN ATOMIC CHARGES
----------------------
   0 S :    0.424338
   1 C :   -0.219178
   2 C :   -0.067389
   3 C :   -0.064014
   4 C :   -0.202253
   5 H :    0.034028
   6 C :   -0.036459
   7 H :    0.038924
   8 H :    0.028079
   9 C :   -0.039078
  10 H :    0.025769
  11 H :    0.032779
  12 C :   -0.063719
  13 H :    0.023278
  14 H :    0.017732
  15 H :    0.024884
  16 S :    0.431549
  17 C :   -0.194147
  18 C :   -0.070655
  19 C :   -0.064336
  20 C :   -0.207165
  21 H :    0.031999
  22 C :   -0.039686
  23 H :    0.036009
  24 H :    0.033580
  25 C :   -0.040935
  26 H :    0.022546
  27 H :    0.022863
  28 C :   -0.057831
  29 H :    0.021721
  30 H :    0.024508
  31 H :    0.025657
  32 H :    0.043890
  33 H :    0.022712

  Mayer bond orders larger than 0.100000
B(  0-S ,  1-C ) :   1.1421 B(  0-S ,  4-C ) :   1.1524 B(  1-C ,  2-C ) :   1.5885
B(  1-C , 32-H ) :   0.9596 B(  2-C ,  3-C ) :   1.2760 B(  2-C ,  6-C ) :   1.0326
B(  3-C ,  4-C ) :   1.5395 B(  3-C ,  5-H ) :   0.9792 B(  4-C , 20-C ) :   1.0858
B(  6-C ,  7-H ) :   0.9333 B(  6-C ,  8-H ) :   0.9376 B(  6-C ,  9-C ) :   1.0732
B(  9-C , 10-H ) :   0.9497 B(  9-C , 11-H ) :   0.9630 B(  9-C , 12-C ) :   1.0828
B( 12-C , 13-H ) :   0.9738 B( 12-C , 14-H ) :   0.9750 B( 12-C , 15-H ) :   0.9756
B( 16-S , 17-C ) :   1.1602 B( 16-S , 20-C ) :   1.1630 B( 17-C , 18-C ) :   1.5812
B( 17-C , 20-C ) :   0.1037 B( 17-C , 33-H ) :   0.9747 B( 18-C , 19-C ) :   1.2629
B( 18-C , 21-H ) :   0.9932 B( 19-C , 20-C ) :   1.5404 B( 19-C , 22-C ) :   1.0341
B( 22-C , 23-H ) :   0.9340 B( 22-C , 24-H ) :   0.9396 B( 22-C , 25-C ) :   1.0833
B( 25-C , 26-H ) :   0.9521 B( 25-C , 27-H ) :   0.9525 B( 25-C , 28-C ) :   1.0699
B( 28-C , 29-H ) :   0.9770 B( 28-C , 30-H ) :   0.9707 B( 28-C , 31-H ) :   0.9710

Dispersion correction           -0.014608675
FINAL SINGLE POINT ENERGY     -1339.866073084307

DIPOLE MOMENT
-------------
                                X             Y             Z
Electronic contribution:    -10.79572      17.87313     -22.31538
Nuclear contribution   :     11.19100     -18.30426      22.74271
                        -----------------------------------------
Total Dipole Moment    :      0.39529      -0.43113       0.42733
                        -----------------------------------------
Magnitude (a.u.)       :      0.72439
Magnitude (Debye)      :      1.84124

Rotational constants in cm-1:     0.017867     0.009669     0.006845
Rotational constants in MHz :   535.638799   289.867117   205.197913

                             ****ORCA TERMINATED NORMALLY****
TOTAL RUN TIME: 0 days 0 hours 0 minutes 21 seconds 156 msec
