                         Program Version 4.2.1 -  RELEASE  -
|  1> ! wB97X-D3 SP def2-SVP
|  2> %pal
|  3> nprocs 24
|  4> end
|  5>
|  6> * xyz 0 1
|  7> S 	 -115.563 	 39.8257 	 -115.608
|  8> C 	 -114.609 	 38.6142 	 -116.348
|  9> C 	 -113.756 	 38.0739 	 -115.393
| 10> C 	 -114.11 	 38.4451 	 -114.044
| 11> C 	 -115.072 	 39.4164 	 -113.97
| 12> H 	 -113.61 	 38.0169 	 -113.202
| 13> C 	 -112.486 	 37.3125 	 -115.637
| 14> H 	 -112.724 	 36.7148 	 -116.528
| 15> H 	 -112.462 	 36.6144 	 -114.867
| 16> C 	 -111.266 	 38.1865 	 -115.781
| 17> H 	 -111.565 	 38.9798 	 -116.463
| 18> H 	 -110.989 	 38.623 	 -114.839
| 19> C 	 -110.027 	 37.5925 	 -116.576
| 20> H 	 -109.732 	 36.5095 	 -116.322
| 21> H 	 -110.262 	 37.4668 	 -117.656
| 22> H 	 -109.199 	 38.2509 	 -116.58
| 23> S 	 -115.933 	 41.7448 	 -112.888
| 24> C 	 -116.35 	 41.862 	 -111.18
| 25> C 	 -116.351 	 40.6235 	 -110.557
| 26> C 	 -115.775 	 39.6011 	 -111.424
| 27> C 	 -115.535 	 40.0822 	 -112.744
| 28> H 	 -116.642 	 40.4226 	 -109.544
| 29> C 	 -115.538 	 38.1811 	 -110.977
| 30> H 	 -114.487 	 37.9048 	 -111.277
| 31> H 	 -116.285 	 37.599 	 -111.456
| 32> C 	 -115.509 	 37.9814 	 -109.43
| 33> H 	 -116.532 	 38.0904 	 -108.965
| 34> H 	 -114.879 	 38.6369 	 -108.937
| 35> C 	 -115.047 	 36.5679 	 -109.072
| 36> H 	 -115.447 	 35.7735 	 -109.674
| 37> H 	 -115.39 	 36.3716 	 -108.05
| 38> H 	 -114.007 	 36.4635 	 -109.155
| 39> H 	 -114.536 	 38.4569 	 -117.397
| 40> H 	 -116.417 	 42.7908 	 -110.633
| 41> *
| 42>
| 43>                          ****END OF INPUT****

CARTESIAN COORDINATES (ANGSTROEM)
---------------------------------
  S    -115.563000   39.825700  -115.608000
  C    -114.609000   38.614200  -116.348000
  C    -113.756000   38.073900  -115.393000
  C    -114.110000   38.445100  -114.044000
  C    -115.072000   39.416400  -113.970000
  H    -113.610000   38.016900  -113.202000
  C    -112.486000   37.312500  -115.637000
  H    -112.724000   36.714800  -116.528000
  H    -112.462000   36.614400  -114.867000
  C    -111.266000   38.186500  -115.781000
  H    -111.565000   38.979800  -116.463000
  H    -110.989000   38.623000  -114.839000
  C    -110.027000   37.592500  -116.576000
  H    -109.732000   36.509500  -116.322000
  H    -110.262000   37.466800  -117.656000
  H    -109.199000   38.250900  -116.580000
  S    -115.933000   41.744800  -112.888000
  C    -116.350000   41.862000  -111.180000
  C    -116.351000   40.623500  -110.557000
  C    -115.775000   39.601100  -111.424000
  C    -115.535000   40.082200  -112.744000
  H    -116.642000   40.422600  -109.544000
  C    -115.538000   38.181100  -110.977000
  H    -114.487000   37.904800  -111.277000
  H    -116.285000   37.599000  -111.456000
  C    -115.509000   37.981400  -109.430000
  H    -116.532000   38.090400  -108.965000
  H    -114.879000   38.636900  -108.937000
  C    -115.047000   36.567900  -109.072000
  H    -115.447000   35.773500  -109.674000
  H    -115.390000   36.371600  -108.050000
  H    -114.007000   36.463500  -109.155000
  H    -114.536000   38.456900  -117.397000
  H    -116.417000   42.790800  -110.633000

 Total Charge           Charge          ....    0
 Multiplicity           Mult            ....    1
 Number of Electrons    NEL             ....  134
 Basis Dimension        Dim             ....  322

ORBITAL ENERGIES
----------------

  NO   OCC          E(Eh)            E(eV)
   0   2.0000     -88.966356     -2420.8976
   1   2.0000     -88.964878     -2420.8574
   2   2.0000     -10.331480      -281.1339
   3   2.0000     -10.328797      -281.0609
   4   2.0000     -10.318116      -280.7702
   5   2.0000     -10.309967      -280.5485
   6   2.0000     -10.307322      -280.4765
   7   2.0000     -10.298047      -280.2241
   8   2.0000     -10.297589      -280.2116
   9   2.0000     -10.295554      -280.1563
  10   2.0000     -10.289000      -279.9779
  11   2.0000     -10.288381      -279.9611
  12   2.0000     -10.288312      -279.9592
  13   2.0000     -10.286730      -279.9162
  14   2.0000     -10.283959      -279.8408
  15   2.0000     -10.272864      -279.5389
  16   2.0000      -8.081448      -219.9074
  17   2.0000      -8.080028      -219.8687
  18   2.0000      -6.039968      -164.3559
  19   2.0000      -6.038688      -164.3210
  20   2.0000      -6.035853      -164.2439
  21   2.0000      -6.034426      -164.2051
  22   2.0000      -6.032247      -164.1458
  23   2.0000      -6.030660      -164.1026
  24   2.0000      -1.007782       -27.4231
  25   2.0000      -0.984671       -26.7942
  26   2.0000      -0.913348       -24.8535
  27   2.0000      -0.910420       -24.7738
  28   2.0000      -0.869864       -23.6702
  29   2.0000      -0.853910       -23.2361
  30   2.0000      -0.843825       -22.9616
  31   2.0000      -0.817729       -22.2515
  32   2.0000      -0.780281       -21.2325
  33   2.0000      -0.769042       -20.9267
  34   2.0000      -0.711774       -19.3684
  35   2.0000      -0.705233       -19.1904
  36   2.0000      -0.697676       -18.9847
  37   2.0000      -0.658489       -17.9184
  38   2.0000      -0.641806       -17.4644
  39   2.0000      -0.621803       -16.9201
  40   2.0000      -0.594554       -16.1786
  41   2.0000      -0.578892       -15.7525
  42   2.0000      -0.569157       -15.4875
  43   2.0000      -0.557652       -15.1745
  44   2.0000      -0.529699       -14.4138
  45   2.0000      -0.524846       -14.2818
  46   2.0000      -0.518627       -14.1126
  47   2.0000      -0.514175       -13.9914
  48   2.0000      -0.509768       -13.8715
  49   2.0000      -0.504981       -13.7412
  50   2.0000      -0.496194       -13.5021
  51   2.0000      -0.477040       -12.9809
  52   2.0000      -0.470224       -12.7954
  53   2.0000      -0.464187       -12.6312
  54   2.0000      -0.462454       -12.5840
  55   2.0000      -0.456025       -12.4091
  56   2.0000      -0.449508       -12.2317
  57   2.0000      -0.440324       -11.9818
  58   2.0000      -0.432132       -11.7589
  59   2.0000      -0.424814       -11.5598
  60   2.0000      -0.419227       -11.4077
  61   2.0000      -0.413777       -11.2594
  62   2.0000      -0.407579       -11.0908
  63   2.0000      -0.359723        -9.7886
  64   2.0000      -0.332175        -9.0389
  65   2.0000      -0.322010        -8.7623
  66   2.0000      -0.281385        -7.6569
  67   0.0000       0.027056         0.7362
  68   0.0000       0.072578         1.9749
  69   0.0000       0.111134         3.0241
  70   0.0000       0.120349         3.2749
  71   0.0000       0.137304         3.7362

MULLIKEN ATOMIC CHARGES
-----------------------
   0 S :    0.106186
   1 C :   -0.103322
   2 C :   -0.147195
   3 C :    0.003987
   4 C :   -0.095999
   5 H :   -0.004480
   6 C :    0.112124
   7 H :    0.012007
   8 H :    0.002619
   9 C :   -0.031372
  10 H :    0.029302
  11 H :    0.030665
  12 C :   -0.073054
  13 H :    0.038290
  14 H :    0.026360
  15 H :    0.034988
  16 S :    0.103914
  17 C :   -0.087273
  18 C :   -0.015516
  19 C :   -0.088260
  20 C :   -0.138685
  21 H :    0.018043
  22 C :    0.064277
  23 H :    0.042947
  24 H :    0.047057
  25 C :   -0.109281
  26 H :    0.037921
  27 H :    0.022832
  28 C :   -0.013810
  29 H :    0.021083
  30 H :    0.029466
  31 H :    0.021324
  32 H :    0.040806
  33 H :    0.062048
Sum of atomic charges:   -0.0000000

LOEWDIN ATOMIC CHARGES
----------------------
   0 S :    0.413314
   1 C :   -0.209789
   2 C :   -0.059264
   3 C :   -0.068033
   4 C :   -0.188946
   5 H :    0.023485
   6 C :   -0.031837
   7 H :    0.032731
   8 H :    0.018600
   9 C :   -0.033739
  10 H :    0.030801
  11 H :    0.023403
  12 C :   -0.072854
  13 H :    0.029892
  14 H :    0.026635
  15 H :    0.020540
  16 S :    0.418154
  17 C :   -0.185649
  18 C :   -0.064305
  19 C :   -0.057476
  20 C :   -0.207740
  21 H :    0.030091
  22 C :   -0.029497
  23 H :    0.037524
  24 H :    0.034445
  25 C :   -0.037845
  26 H :    0.026985
  27 H :    0.015231
  28 C :   -0.058325
  29 H :    0.022650
  30 H :    0.029713
  31 H :    0.016184
  32 H :    0.024987
  33 H :    0.029935

  Mayer bond orders larger than 0.100000
B(  0-S ,  1-C ) :   1.1406 B(  0-S ,  4-C ) :   1.1479 B(  1-C ,  2-C ) :   1.5895
B(  1-C , 32-H ) :   0.9758 B(  2-C ,  3-C ) :   1.2614 B(  2-C ,  6-C ) :   1.0328
B(  3-C ,  4-C ) :   1.5486 B(  3-C ,  5-H ) :   0.9974 B(  4-C , 20-C ) :   1.0636
B(  6-C ,  7-H ) :   0.9344 B(  6-C ,  8-H ) :   0.9284 B(  6-C ,  9-C ) :   1.0572
B(  9-C , 10-H ) :   0.9563 B(  9-C , 11-H ) :   0.9577 B(  9-C , 12-C ) :   1.0695
B( 12-C , 13-H ) :   0.9773 B( 12-C , 14-H ) :   0.9762 B( 12-C , 15-H ) :   0.9772
B( 16-S , 17-C ) :   1.1592 B( 16-S , 20-C ) :   1.1509 B( 17-C , 18-C ) :   1.5752
B( 17-C , 33-H ) :   0.9669 B( 18-C , 19-C ) :   1.2765 B( 18-C , 21-H ) :   0.9852
B( 19-C , 20-C ) :   1.5604 B( 19-C , 22-C ) :   1.0276 B( 22-C , 23-H ) :   0.9406
B( 22-C , 24-H ) :   0.9246 B( 22-C , 25-C ) :   1.0823 B( 25-C , 26-H ) :   0.9493
B( 25-C , 27-H ) :   0.9576 B( 25-C , 28-C ) :   1.0884 B( 28-C , 29-H ) :   0.9727
B( 28-C , 30-H ) :   0.9737 B( 28-C , 31-H ) :   0.9744

Dispersion correction           -0.013399273
FINAL SINGLE POINT ENERGY     -1339.865270079059

DIPOLE MOMENT
-------------
                                X             Y             Z
Electronic contribution:    -17.53932      20.53262      -8.11986
Nuclear contribution   :     17.96693     -20.94469       8.50157
                        -----------------------------------------
Total Dipole Moment    :      0.42761      -0.41208       0.38171
                        -----------------------------------------
Magnitude (a.u.)       :      0.70595
Magnitude (Debye)      :      1.79438

Rotational constants in cm-1:     0.017425     0.008040     0.006166
Rotational constants in MHz :   522.380415   241.041146   184.838229

                             ****ORCA TERMINATED NORMALLY****
TOTAL RUN TIME: 0 days 0 hours 0 minutes 21 seconds 69 msec
