                         Program Version 4.2.1 -  RELEASE  -
|  1> ! wB97X-D3 SP def2-SVP
|  2> %pal
|  3> nprocs 24
|  4> end
|  5>
|  6> * xyz 0 1
|  7> S 	 -38.5834 	 -1.46113 	 13.3017
|  8> C 	 -38.737 	 -1.12432 	 14.9794
|  9> C 	 -40.0846 	 -0.846239 	 15.3167
| 10> C 	 -40.9442 	 -1.02454 	 14.2394
| 11> C 	 -40.3332 	 -1.42369 	 13.076
| 12> H 	 -42.0269 	 -1.05967 	 14.3921
| 13> C 	 -40.5493 	 -0.700121 	 16.7741
| 14> H 	 -40.3841 	 -1.67042 	 17.1957
| 15> H 	 -41.6098 	 -0.566987 	 16.8455
| 16> C 	 -39.9353 	 0.288745 	 17.7051
| 17> H 	 -40.4375 	 0.0622833 	 18.7108
| 18> H 	 -38.8889 	 0.102124 	 17.7491
| 19> C 	 -40.179 	 1.78827 	 17.3779
| 20> H 	 -39.6638 	 2.39263 	 18.0587
| 21> H 	 -39.7918 	 2.1196 	 16.3906
| 22> H 	 -41.2255 	 2.10155 	 17.4119
| 23> S 	 -40.6301 	 -3.38742 	 11.2907
| 24> C 	 -41.7083 	 -3.20871 	 9.85974
| 25> C 	 -42.4427 	 -2.05939 	 9.9273
| 26> C 	 -42.1882 	 -1.29996 	 11.1762
| 27> C 	 -41.0194 	 -1.80766 	 11.8621
| 28> H 	 -43.259 	 -1.96411 	 9.19461
| 29> C 	 -43.073 	 -0.177345 	 11.6622
| 30> H 	 -43.4778 	 -0.303515 	 12.6415
| 31> H 	 -43.9382 	 -0.245817 	 11.0111
| 32> C 	 -42.2599 	 1.06657 	 11.3299
| 33> H 	 -42.0427 	 0.965101 	 10.2216
| 34> H 	 -41.305 	 1.01928 	 11.86
| 35> C 	 -42.938 	 2.39683 	 11.55
| 36> H 	 -42.2469 	 3.19097 	 11.1977
| 37> H 	 -43.1506 	 2.54375 	 12.662
| 38> H 	 -43.9708 	 2.50407 	 11.1292
| 39> H 	 -37.868 	 -1.07569 	 15.6403
| 40> H 	 -42.0591 	 -3.93536 	 9.21578
| 41> *
| 42>
| 43>                          ****END OF INPUT****

CARTESIAN COORDINATES (ANGSTROEM)
---------------------------------
  S    -38.583400   -1.461130   13.301700
  C    -38.737000   -1.124320   14.979400
  C    -40.084600   -0.846239   15.316700
  C    -40.944200   -1.024540   14.239400
  C    -40.333200   -1.423690   13.076000
  H    -42.026900   -1.059670   14.392100
  C    -40.549300   -0.700121   16.774100
  H    -40.384100   -1.670420   17.195700
  H    -41.609800   -0.566987   16.845500
  C    -39.935300    0.288745   17.705100
  H    -40.437500    0.062283   18.710800
  H    -38.888900    0.102124   17.749100
  C    -40.179000    1.788270   17.377900
  H    -39.663800    2.392630   18.058700
  H    -39.791800    2.119600   16.390600
  H    -41.225500    2.101550   17.411900
  S    -40.630100   -3.387420   11.290700
  C    -41.708300   -3.208710    9.859740
  C    -42.442700   -2.059390    9.927300
  C    -42.188200   -1.299960   11.176200
  C    -41.019400   -1.807660   11.862100
  H    -43.259000   -1.964110    9.194610
  C    -43.073000   -0.177345   11.662200
  H    -43.477800   -0.303515   12.641500
  H    -43.938200   -0.245817   11.011100
  C    -42.259900    1.066570   11.329900
  H    -42.042700    0.965101   10.221600
  H    -41.305000    1.019280   11.860000
  C    -42.938000    2.396830   11.550000
  H    -42.246900    3.190970   11.197700
  H    -43.150600    2.543750   12.662000
  H    -43.970800    2.504070   11.129200
  H    -37.868000   -1.075690   15.640300
  H    -42.059100   -3.935360    9.215780

 Total Charge           Charge          ....    0
 Multiplicity           Mult            ....    1
 Number of Electrons    NEL             ....  134
 Basis Dimension        Dim             ....  322

ORBITAL ENERGIES
----------------

  NO   OCC          E(Eh)            E(eV)
   0   2.0000     -88.970892     -2421.0210
   1   2.0000     -88.963821     -2420.8286
   2   2.0000     -10.329167      -281.0709
   3   2.0000     -10.328288      -281.0470
   4   2.0000     -10.316011      -280.7129
   5   2.0000     -10.314035      -280.6592
   6   2.0000     -10.311693      -280.5954
   7   2.0000     -10.301580      -280.3202
   8   2.0000     -10.300442      -280.2893
   9   2.0000     -10.291080      -280.0345
  10   2.0000     -10.290671      -280.0234
  11   2.0000     -10.287589      -279.9395
  12   2.0000     -10.285507      -279.8829
  13   2.0000     -10.284832      -279.8645
  14   2.0000     -10.281904      -279.7848
  15   2.0000     -10.274448      -279.5819
  16   2.0000      -8.085547      -220.0189
  17   2.0000      -8.078062      -219.8152
  18   2.0000      -6.043950      -164.4642
  19   2.0000      -6.039927      -164.3548
  20   2.0000      -6.036747      -164.2682
  21   2.0000      -6.036561      -164.2632
  22   2.0000      -6.032655      -164.1569
  23   2.0000      -6.028630      -164.0474
  24   2.0000      -1.007147       -27.4059
  25   2.0000      -0.979910       -26.6647
  26   2.0000      -0.914137       -24.8749
  27   2.0000      -0.911432       -24.8013
  28   2.0000      -0.872536       -23.7429
  29   2.0000      -0.853915       -23.2362
  30   2.0000      -0.838964       -22.8294
  31   2.0000      -0.817097       -22.2343
  32   2.0000      -0.786648       -21.4058
  33   2.0000      -0.764795       -20.8111
  34   2.0000      -0.705155       -19.1882
  35   2.0000      -0.700641       -19.0654
  36   2.0000      -0.688202       -18.7269
  37   2.0000      -0.659353       -17.9419
  38   2.0000      -0.638942       -17.3865
  39   2.0000      -0.618741       -16.8368
  40   2.0000      -0.590873       -16.0785
  41   2.0000      -0.579263       -15.7625
  42   2.0000      -0.562199       -15.2982
  43   2.0000      -0.553364       -15.0578
  44   2.0000      -0.537689       -14.6312
  45   2.0000      -0.530381       -14.4324
  46   2.0000      -0.509854       -13.8738
  47   2.0000      -0.507102       -13.7989
  48   2.0000      -0.502841       -13.6830
  49   2.0000      -0.499918       -13.6035
  50   2.0000      -0.495532       -13.4841
  51   2.0000      -0.476371       -12.9627
  52   2.0000      -0.472360       -12.8536
  53   2.0000      -0.468499       -12.7485
  54   2.0000      -0.452375       -12.3097
  55   2.0000      -0.445461       -12.1216
  56   2.0000      -0.441865       -12.0237
  57   2.0000      -0.438773       -11.9396
  58   2.0000      -0.430455       -11.7133
  59   2.0000      -0.425426       -11.5764
  60   2.0000      -0.420060       -11.4304
  61   2.0000      -0.416038       -11.3210
  62   2.0000      -0.410062       -11.1583
  63   2.0000      -0.353502        -9.6193
  64   2.0000      -0.333943        -9.0870
  65   2.0000      -0.320114        -8.7107
  66   2.0000      -0.282519        -7.6877
  67   0.0000       0.022745         0.6189
  68   0.0000       0.068421         1.8618
  69   0.0000       0.104021         2.8306
  70   0.0000       0.123272         3.3544
  71   0.0000       0.128844         3.5060

MULLIKEN ATOMIC CHARGES
-----------------------
   0 S :    0.134513
   1 C :   -0.149460
   2 C :   -0.061214
   3 C :    0.012659
   4 C :   -0.156141
   5 H :    0.017876
   6 C :    0.070350
   7 H :    0.035359
   8 H :    0.005136
   9 C :   -0.078708
  10 H :    0.039571
  11 H :    0.020232
  12 C :   -0.040948
  13 H :    0.019030
  14 H :    0.036152
  15 H :    0.026461
  16 S :    0.097160
  17 C :   -0.055044
  18 C :   -0.041969
  19 C :   -0.096722
  20 C :   -0.144501
  21 H :    0.033927
  22 C :    0.114291
  23 H :    0.028050
  24 H :    0.004229
  25 C :   -0.116493
  26 H :    0.038555
  27 H :    0.051037
  28 C :   -0.041367
  29 H :    0.047029
  30 H :    0.027318
  31 H :    0.032240
  32 H :    0.060731
  33 H :    0.030663
Sum of atomic charges:   -0.0000000

LOEWDIN ATOMIC CHARGES
----------------------
   0 S :    0.427201
   1 C :   -0.212652
   2 C :   -0.062611
   3 C :   -0.066288
   4 C :   -0.203043
   5 H :    0.035509
   6 C :   -0.035147
   7 H :    0.035731
   8 H :    0.023787
   9 C :   -0.037908
  10 H :    0.037311
  11 H :    0.016414
  12 C :   -0.067030
  13 H :    0.017873
  14 H :    0.029842
  15 H :    0.024526
  16 S :    0.399910
  17 C :   -0.170703
  18 C :   -0.070573
  19 C :   -0.040001
  20 C :   -0.210682
  21 H :    0.037981
  22 C :   -0.032767
  23 H :    0.022666
  24 H :    0.029093
  25 C :   -0.045177
  26 H :    0.034365
  27 H :    0.029609
  28 C :   -0.079700
  29 H :    0.031825
  30 H :    0.027733
  31 H :    0.026279
  32 H :    0.029016
  33 H :    0.017611

  Mayer bond orders larger than 0.100000
B(  0-S ,  1-C ) :   1.1653 B(  0-S ,  4-C ) :   1.1632 B(  1-C ,  2-C ) :   1.5371
B(  1-C ,  4-C ) :   0.1095 B(  1-C , 32-H ) :   0.9713 B(  2-C ,  3-C ) :   1.3145
B(  2-C ,  6-C ) :   1.0080 B(  3-C ,  4-C ) :   1.5216 B(  3-C ,  5-H ) :   0.9903
B(  4-C , 20-C ) :   1.0606 B(  6-C ,  7-H ) :   0.9371 B(  6-C ,  8-H ) :   0.9418
B(  6-C ,  9-C ) :   1.0869 B(  9-C , 10-H ) :   0.9508 B(  9-C , 11-H ) :   0.9552
B(  9-C , 12-C ) :   1.0793 B( 12-C , 13-H ) :   0.9745 B( 12-C , 14-H ) :   0.9740
B( 12-C , 15-H ) :   0.9754 B( 16-S , 17-C ) :   1.1291 B( 16-S , 20-C ) :   1.1558
B( 17-C , 18-C ) :   1.6540 B( 17-C , 33-H ) :   0.9682 B( 18-C , 19-C ) :   1.2351
B( 18-C , 21-H ) :   0.9757 B( 19-C , 20-C ) :   1.5494 B( 19-C , 22-C ) :   1.0466
B( 22-C , 23-H ) :   0.9394 B( 22-C , 24-H ) :   0.9205 B( 22-C , 25-C ) :   1.0555
B( 25-C , 26-H ) :   0.9498 B( 25-C , 27-H ) :   0.9579 B( 25-C , 28-C ) :   1.0862
B( 28-C , 29-H ) :   0.9717 B( 28-C , 30-H ) :   0.9690 B( 28-C , 31-H ) :   0.9715

Dispersion correction           -0.014314903
FINAL SINGLE POINT ENERGY     -1339.858465880020

DIPOLE MOMENT
-------------
                                X             Y             Z
Electronic contribution:     11.71575     -22.35512     -14.01771
Nuclear contribution   :    -12.28895      22.52983      14.42704
                        -----------------------------------------
Total Dipole Moment    :     -0.57319       0.17472       0.40933
                        -----------------------------------------
Magnitude (a.u.)       :      0.72569
Magnitude (Debye)      :      1.84456

Rotational constants in cm-1:     0.019147     0.008822     0.006744
Rotational constants in MHz :   573.998258   264.485752   202.168342

                             ****ORCA TERMINATED NORMALLY****
TOTAL RUN TIME: 0 days 0 hours 0 minutes 21 seconds 852 msec
