                         Program Version 4.2.1 -  RELEASE  -
|  1> ! wB97X-D3 SP def2-SVP
|  2> %pal
|  3> nprocs 24
|  4> end
|  5>
|  6> * xyz 0 1
|  7> S 	 -39.7823 	 -47.1811 	 -71.5114
|  8> C 	 -39.4587 	 -46.4272 	 -73.1075
|  9> C 	 -38.1514 	 -46.7671 	 -73.5727
| 10> C 	 -37.443 	 -47.6677 	 -72.6516
| 11> C 	 -38.2668 	 -48.0427 	 -71.6036
| 12> H 	 -36.513 	 -48.2227 	 -72.8141
| 13> C 	 -37.5238 	 -46.4934 	 -74.9554
| 14> H 	 -36.443 	 -46.6072 	 -74.8159
| 15> H 	 -37.6202 	 -45.4401 	 -75.2292
| 16> C 	 -38.1351 	 -47.4316 	 -76.0127
| 17> H 	 -39.204 	 -47.4362 	 -76.0409
| 18> H 	 -37.7118 	 -47.0602 	 -76.993
| 19> C 	 -37.7183 	 -48.9181 	 -75.8179
| 20> H 	 -37.8487 	 -49.3389 	 -76.6941
| 21> H 	 -36.7141 	 -49.1276 	 -75.4819
| 22> H 	 -38.3627 	 -49.4679 	 -75.1033
| 23> S 	 -39.1975 	 -50.3478 	 -70.4671
| 24> C 	 -38.1569 	 -51.3147 	 -69.4134
| 25> C 	 -36.977 	 -50.6069 	 -69.1722
| 26> C 	 -36.8296 	 -49.3657 	 -69.916
| 27> C 	 -37.9934 	 -49.0816 	 -70.6065
| 28> H 	 -36.2368 	 -51.0813 	 -68.6042
| 29> C 	 -35.5766 	 -48.4659 	 -69.9315
| 30> H 	 -35.8431 	 -47.6193 	 -69.3238
| 31> H 	 -35.3746 	 -48.0759 	 -70.947
| 32> C 	 -34.3052 	 -48.9175 	 -69.2808
| 33> H 	 -34.1727 	 -49.8583 	 -69.8723
| 34> H 	 -34.4195 	 -49.1523 	 -68.1976
| 35> C 	 -33.071 	 -47.9249 	 -69.3352
| 36> H 	 -32.1781 	 -48.4042 	 -68.9933
| 37> H 	 -33.2236 	 -46.9608 	 -68.8221
| 38> H 	 -32.7344 	 -47.7361 	 -70.3806
| 39> H 	 -40.1387 	 -46.0014 	 -73.7706
| 40> H 	 -38.3533 	 -52.2481 	 -68.9354
| 41> *
| 42>
| 43>                          ****END OF INPUT****

CARTESIAN COORDINATES (ANGSTROEM)
---------------------------------
  S    -39.782300  -47.181100  -71.511400
  C    -39.458700  -46.427200  -73.107500
  C    -38.151400  -46.767100  -73.572700
  C    -37.443000  -47.667700  -72.651600
  C    -38.266800  -48.042700  -71.603600
  H    -36.513000  -48.222700  -72.814100
  C    -37.523800  -46.493400  -74.955400
  H    -36.443000  -46.607200  -74.815900
  H    -37.620200  -45.440100  -75.229200
  C    -38.135100  -47.431600  -76.012700
  H    -39.204000  -47.436200  -76.040900
  H    -37.711800  -47.060200  -76.993000
  C    -37.718300  -48.918100  -75.817900
  H    -37.848700  -49.338900  -76.694100
  H    -36.714100  -49.127600  -75.481900
  H    -38.362700  -49.467900  -75.103300
  S    -39.197500  -50.347800  -70.467100
  C    -38.156900  -51.314700  -69.413400
  C    -36.977000  -50.606900  -69.172200
  C    -36.829600  -49.365700  -69.916000
  C    -37.993400  -49.081600  -70.606500
  H    -36.236800  -51.081300  -68.604200
  C    -35.576600  -48.465900  -69.931500
  H    -35.843100  -47.619300  -69.323800
  H    -35.374600  -48.075900  -70.947000
  C    -34.305200  -48.917500  -69.280800
  H    -34.172700  -49.858300  -69.872300
  H    -34.419500  -49.152300  -68.197600
  C    -33.071000  -47.924900  -69.335200
  H    -32.178100  -48.404200  -68.993300
  H    -33.223600  -46.960800  -68.822100
  H    -32.734400  -47.736100  -70.380600
  H    -40.138700  -46.001400  -73.770600
  H    -38.353300  -52.248100  -68.935400

 Total Charge           Charge          ....    0
 Multiplicity           Mult            ....    1
 Number of Electrons    NEL             ....  134
 Basis Dimension        Dim             ....  322

ORBITAL ENERGIES
----------------

  NO   OCC          E(Eh)            E(eV)
   0   2.0000     -88.968770     -2420.9633
   1   2.0000     -88.966988     -2420.9148
   2   2.0000     -10.329785      -281.0877
   3   2.0000     -10.325137      -280.9613
   4   2.0000     -10.319602      -280.8106
   5   2.0000     -10.313787      -280.6524
   6   2.0000     -10.310913      -280.5742
   7   2.0000     -10.309604      -280.5386
   8   2.0000     -10.297686      -280.2143
   9   2.0000     -10.295548      -280.1561
  10   2.0000     -10.295075      -280.1432
  11   2.0000     -10.294983      -280.1407
  12   2.0000     -10.292811      -280.0816
  13   2.0000     -10.291602      -280.0487
  14   2.0000     -10.287340      -279.9328
  15   2.0000     -10.264707      -279.3169
  16   2.0000      -8.082565      -219.9378
  17   2.0000      -8.081109      -219.8982
  18   2.0000      -6.041164      -164.3884
  19   2.0000      -6.039726      -164.3493
  20   2.0000      -6.037262      -164.2822
  21   2.0000      -6.035565      -164.2361
  22   2.0000      -6.033234      -164.1727
  23   2.0000      -6.031921      -164.1369
  24   2.0000      -1.001417       -27.2499
  25   2.0000      -0.973319       -26.4854
  26   2.0000      -0.909233       -24.7415
  27   2.0000      -0.907517       -24.6948
  28   2.0000      -0.863866       -23.5070
  29   2.0000      -0.847751       -23.0685
  30   2.0000      -0.839578       -22.8461
  31   2.0000      -0.812975       -22.1222
  32   2.0000      -0.786649       -21.4058
  33   2.0000      -0.776650       -21.1337
  34   2.0000      -0.706065       -19.2130
  35   2.0000      -0.701819       -19.0975
  36   2.0000      -0.695361       -18.9217
  37   2.0000      -0.653407       -17.7801
  38   2.0000      -0.639425       -17.3996
  39   2.0000      -0.611447       -16.6383
  40   2.0000      -0.594658       -16.1815
  41   2.0000      -0.575015       -15.6469
  42   2.0000      -0.568935       -15.4815
  43   2.0000      -0.548915       -14.9367
  44   2.0000      -0.539258       -14.6740
  45   2.0000      -0.522596       -14.2206
  46   2.0000      -0.515017       -14.0143
  47   2.0000      -0.511644       -13.9225
  48   2.0000      -0.507510       -13.8100
  49   2.0000      -0.494722       -13.4621
  50   2.0000      -0.487202       -13.2574
  51   2.0000      -0.482850       -13.1390
  52   2.0000      -0.471358       -12.8263
  53   2.0000      -0.463817       -12.6211
  54   2.0000      -0.458043       -12.4640
  55   2.0000      -0.452003       -12.2996
  56   2.0000      -0.444497       -12.0954
  57   2.0000      -0.438786       -11.9400
  58   2.0000      -0.428658       -11.6644
  59   2.0000      -0.424287       -11.5454
  60   2.0000      -0.418815       -11.3965
  61   2.0000      -0.413819       -11.2606
  62   2.0000      -0.410220       -11.1627
  63   2.0000      -0.343479        -9.3465
  64   2.0000      -0.328946        -8.9511
  65   2.0000      -0.327993        -8.9251
  66   2.0000      -0.290712        -7.9107
  67   0.0000       0.026177         0.7123
  68   0.0000       0.068334         1.8595
  69   0.0000       0.107368         2.9216
  70   0.0000       0.117186         3.1888
  71   0.0000       0.131781         3.5859

MULLIKEN ATOMIC CHARGES
-----------------------
   0 S :    0.113001
   1 C :   -0.088251
   2 C :   -0.123658
   3 C :    0.021582
   4 C :   -0.165710
   5 H :    0.034697
   6 C :    0.054701
   7 H :    0.028039
   8 H :    0.031562
   9 C :   -0.068458
  10 H :    0.032888
  11 H :    0.036763
  12 C :   -0.010965
  13 H :   -0.002657
  14 H :    0.018219
  15 H :    0.042777
  16 S :    0.109027
  17 C :   -0.078889
  18 C :   -0.035018
  19 C :   -0.034548
  20 C :   -0.148061
  21 H :    0.002490
  22 C :    0.091455
  23 H :    0.028530
  24 H :    0.024869
  25 C :   -0.134491
  26 H :    0.033499
  27 H :    0.044512
  28 C :   -0.038013
  29 H :    0.029048
  30 H :    0.049333
  31 H :    0.024906
  32 H :    0.026452
  33 H :    0.050370
Sum of atomic charges:    0.0000000

LOEWDIN ATOMIC CHARGES
----------------------
   0 S :    0.393494
   1 C :   -0.194884
   2 C :   -0.042877
   3 C :   -0.071593
   4 C :   -0.187095
   5 H :    0.035083
   6 C :   -0.036123
   7 H :    0.031441
   8 H :    0.029645
   9 C :   -0.028708
  10 H :    0.023847
  11 H :    0.028453
  12 C :   -0.056006
  13 H :    0.004590
  14 H :    0.021507
  15 H :    0.034046
  16 S :    0.402301
  17 C :   -0.179847
  18 C :   -0.065535
  19 C :   -0.051168
  20 C :   -0.203683
  21 H :    0.020047
  22 C :   -0.039598
  23 H :    0.034067
  24 H :    0.032687
  25 C :   -0.050173
  26 H :    0.027615
  27 H :    0.027892
  28 C :   -0.067695
  29 H :    0.026180
  30 H :    0.030791
  31 H :    0.027790
  32 H :    0.014625
  33 H :    0.028887

  Mayer bond orders larger than 0.100000
B(  0-S ,  1-C ) :   1.1096 B(  0-S ,  4-C ) :   1.1562 B(  1-C ,  2-C ) :   1.6370
B(  1-C , 32-H ) :   0.9733 B(  2-C ,  3-C ) :   1.2131 B(  2-C ,  6-C ) :   1.0179
B(  3-C ,  4-C ) :   1.6082 B(  3-C ,  5-H ) :   0.9719 B(  4-C , 20-C ) :   1.0168
B(  6-C ,  7-H ) :   0.9475 B(  6-C ,  8-H ) :   0.9427 B(  6-C ,  9-C ) :   1.0650
B(  9-C , 10-H ) :   0.9586 B(  9-C , 11-H ) :   0.9603 B(  9-C , 12-C ) :   1.0686
B( 12-C , 13-H ) :   0.9699 B( 12-C , 14-H ) :   0.9770 B( 12-C , 15-H ) :   0.9724
B( 16-S , 17-C ) :   1.1444 B( 16-S , 20-C ) :   1.1452 B( 17-C , 18-C ) :   1.6171
B( 17-C , 33-H ) :   0.9682 B( 18-C , 19-C ) :   1.2332 B( 18-C , 21-H ) :   0.9903
B( 19-C , 20-C ) :   1.6086 B( 19-C , 22-C ) :   1.0246 B( 22-C , 23-H ) :   0.9208
B( 22-C , 24-H ) :   0.9355 B( 22-C , 25-C ) :   1.0700 B( 25-C , 26-H ) :   0.9586
B( 25-C , 27-H ) :   0.9488 B( 25-C , 28-C ) :   1.0784 B( 28-C , 29-H ) :   0.9727
B( 28-C , 30-H ) :   0.9751 B( 28-C , 31-H ) :   0.9724

Dispersion correction           -0.014428677
FINAL SINGLE POINT ENERGY     -1339.853198250353

DIPOLE MOMENT
-------------
                                X             Y             Z
Electronic contribution:    -22.76078      -2.77823      10.58430
Nuclear contribution   :     23.40586       2.63541     -10.90026
                        -----------------------------------------
Total Dipole Moment    :      0.64509      -0.14282      -0.31596
                        -----------------------------------------
Magnitude (a.u.)       :      0.73237
Magnitude (Debye)      :      1.86154

Rotational constants in cm-1:     0.016584     0.008891     0.007197
Rotational constants in MHz :   497.180775   266.536216   215.755103

                             ****ORCA TERMINATED NORMALLY****
TOTAL RUN TIME: 0 days 0 hours 0 minutes 20 seconds 412 msec
