                         Program Version 4.2.1 -  RELEASE  -
|  1> ! wB97X-D3 SP def2-SVP
|  2> %pal
|  3> nprocs 24
|  4> end
|  5>
|  6> * xyz 0 1
|  7> S 	 -102.016 	 -2.03285 	 -117.552
|  8> C 	 -101.094 	 -3.53064 	 -117.667
|  9> C 	 -99.8794 	 -3.38029 	 -117.033
| 10> C 	 -99.6572 	 -2.09829 	 -116.512
| 11> C 	 -100.793 	 -1.27469 	 -116.46
| 12> H 	 -98.6677 	 -1.88524 	 -116.089
| 13> C 	 -98.8959 	 -4.51047 	 -116.894
| 14> H 	 -99.212 	 -5.32614 	 -117.54
| 15> H 	 -99.0297 	 -4.86118 	 -115.866
| 16> C 	 -97.4193 	 -4.31128 	 -117.219
| 17> H 	 -96.9347 	 -3.52285 	 -116.484
| 18> H 	 -96.9093 	 -5.19206 	 -116.887
| 19> C 	 -97.132 	 -3.88143 	 -118.674
| 20> H 	 -97.0784 	 -4.65649 	 -119.451
| 21> H 	 -97.9457 	 -3.2669 	 -119.076
| 22> H 	 -96.2016 	 -3.38985 	 -118.759
| 23> S 	 -99.518 	 0.513219 	 -114.887
| 24> C 	 -100.147 	 2.13341 	 -114.768
| 25> C 	 -101.216 	 2.31947 	 -115.515
| 26> C 	 -101.654 	 1.16365 	 -116.271
| 27> C 	 -100.813 	 0.0809895 	 -115.954
| 28> H 	 -101.687 	 3.25876 	 -115.527
| 29> C 	 -102.718 	 1.19218 	 -117.301
| 30> H 	 -102.458 	 0.617944 	 -118.156
| 31> H 	 -102.665 	 2.17926 	 -117.671
| 32> C 	 -104.099 	 0.748823 	 -116.772
| 33> H 	 -104.455 	 1.42922 	 -116.025
| 34> H 	 -104.081 	 -0.228466 	 -116.267
| 35> C 	 -105.255 	 0.56881 	 -117.723
| 36> H 	 -105.414 	 1.54621 	 -118.247
| 37> H 	 -106.109 	 0.351248 	 -117.157
| 38> H 	 -105.069 	 -0.171414 	 -118.491
| 39> H 	 -101.445 	 -4.47085 	 -118.052
| 40> H 	 -99.7665 	 3.00895 	 -114.177
| 41> *
| 42>
| 43>                          ****END OF INPUT****

CARTESIAN COORDINATES (ANGSTROEM)
---------------------------------
  S    -102.016000   -2.032850  -117.552000
  C    -101.094000   -3.530640  -117.667000
  C    -99.879400   -3.380290  -117.033000
  C    -99.657200   -2.098290  -116.512000
  C    -100.793000   -1.274690  -116.460000
  H    -98.667700   -1.885240  -116.089000
  C    -98.895900   -4.510470  -116.894000
  H    -99.212000   -5.326140  -117.540000
  H    -99.029700   -4.861180  -115.866000
  C    -97.419300   -4.311280  -117.219000
  H    -96.934700   -3.522850  -116.484000
  H    -96.909300   -5.192060  -116.887000
  C    -97.132000   -3.881430  -118.674000
  H    -97.078400   -4.656490  -119.451000
  H    -97.945700   -3.266900  -119.076000
  H    -96.201600   -3.389850  -118.759000
  S    -99.518000    0.513219  -114.887000
  C    -100.147000    2.133410  -114.768000
  C    -101.216000    2.319470  -115.515000
  C    -101.654000    1.163650  -116.271000
  C    -100.813000    0.080989  -115.954000
  H    -101.687000    3.258760  -115.527000
  C    -102.718000    1.192180  -117.301000
  H    -102.458000    0.617944  -118.156000
  H    -102.665000    2.179260  -117.671000
  C    -104.099000    0.748823  -116.772000
  H    -104.455000    1.429220  -116.025000
  H    -104.081000   -0.228466  -116.267000
  C    -105.255000    0.568810  -117.723000
  H    -105.414000    1.546210  -118.247000
  H    -106.109000    0.351248  -117.157000
  H    -105.069000   -0.171414  -118.491000
  H    -101.445000   -4.470850  -118.052000
  H    -99.766500    3.008950  -114.177000

 Total Charge           Charge          ....    0
 Multiplicity           Mult            ....    1
 Number of Electrons    NEL             ....  134
 Basis Dimension        Dim             ....  322

ORBITAL ENERGIES
----------------

  NO   OCC          E(Eh)            E(eV)
   0   2.0000     -88.968941     -2420.9680
   1   2.0000     -88.966445     -2420.9000
   2   2.0000     -10.337833      -281.3067
   3   2.0000     -10.326993      -281.0118
   4   2.0000     -10.312369      -280.6138
   5   2.0000     -10.312087      -280.6062
   6   2.0000     -10.302768      -280.3526
   7   2.0000     -10.296760      -280.1891
   8   2.0000     -10.295492      -280.1546
   9   2.0000     -10.292700      -280.0786
  10   2.0000     -10.290250      -280.0119
  11   2.0000     -10.284954      -279.8678
  12   2.0000     -10.284164      -279.8463
  13   2.0000     -10.279385      -279.7163
  14   2.0000     -10.275316      -279.6056
  15   2.0000     -10.269704      -279.4528
  16   2.0000      -8.081641      -219.9126
  17   2.0000      -8.081520      -219.9093
  18   2.0000      -6.040425      -164.3683
  19   2.0000      -6.040211      -164.3625
  20   2.0000      -6.036419      -164.2593
  21   2.0000      -6.036127      -164.2514
  22   2.0000      -6.032252      -164.1459
  23   2.0000      -6.031927      -164.1371
  24   2.0000      -1.008655       -27.4469
  25   2.0000      -0.984507       -26.7898
  26   2.0000      -0.913390       -24.8546
  27   2.0000      -0.909541       -24.7499
  28   2.0000      -0.875218       -23.8159
  29   2.0000      -0.856403       -23.3039
  30   2.0000      -0.842837       -22.9347
  31   2.0000      -0.817790       -22.2532
  32   2.0000      -0.788103       -21.4454
  33   2.0000      -0.773279       -21.0420
  34   2.0000      -0.713580       -19.4175
  35   2.0000      -0.697293       -18.9743
  36   2.0000      -0.692791       -18.8518
  37   2.0000      -0.664946       -18.0941
  38   2.0000      -0.629446       -17.1281
  39   2.0000      -0.618898       -16.8411
  40   2.0000      -0.599847       -16.3227
  41   2.0000      -0.564392       -15.3579
  42   2.0000      -0.563707       -15.3392
  43   2.0000      -0.560843       -15.2613
  44   2.0000      -0.536408       -14.5964
  45   2.0000      -0.528402       -14.3785
  46   2.0000      -0.517843       -14.0912
  47   2.0000      -0.515722       -14.0335
  48   2.0000      -0.507411       -13.8074
  49   2.0000      -0.500519       -13.6198
  50   2.0000      -0.484726       -13.1901
  51   2.0000      -0.482018       -13.1164
  52   2.0000      -0.475096       -12.9280
  53   2.0000      -0.468640       -12.7523
  54   2.0000      -0.456373       -12.4185
  55   2.0000      -0.450167       -12.2497
  56   2.0000      -0.444648       -12.0995
  57   2.0000      -0.441041       -12.0013
  58   2.0000      -0.431459       -11.7406
  59   2.0000      -0.427844       -11.6422
  60   2.0000      -0.415457       -11.3051
  61   2.0000      -0.408500       -11.1159
  62   2.0000      -0.406283       -11.0555
  63   2.0000      -0.366684        -9.9780
  64   2.0000      -0.331279        -9.0146
  65   2.0000      -0.328603        -8.9417
  66   2.0000      -0.279512        -7.6059
  67   0.0000       0.015972         0.4346
  68   0.0000       0.090862         2.4725
  69   0.0000       0.109181         2.9710
  70   0.0000       0.119051         3.2396
  71   0.0000       0.133832         3.6418

MULLIKEN ATOMIC CHARGES
-----------------------
   0 S :    0.083795
   1 C :   -0.113230
   2 C :   -0.093236
   3 C :   -0.028488
   4 C :   -0.079953
   5 H :    0.024774
   6 C :    0.063895
   7 H :    0.012153
   8 H :    0.044937
   9 C :   -0.086811
  10 H :    0.034122
  11 H :    0.026040
  12 C :   -0.036900
  13 H :    0.024154
  14 H :    0.041153
  15 H :    0.029038
  16 S :    0.098458
  17 C :   -0.074871
  18 C :   -0.019304
  19 C :   -0.083226
  20 C :   -0.127870
  21 H :   -0.006027
  22 C :    0.120264
  23 H :    0.014113
  24 H :    0.005848
  25 C :   -0.092277
  26 H :    0.016794
  27 H :    0.030429
  28 C :   -0.009470
  29 H :    0.019553
  30 H :    0.026739
  31 H :    0.028940
  32 H :    0.041242
  33 H :    0.065223
Sum of atomic charges:   -0.0000000

LOEWDIN ATOMIC CHARGES
----------------------
   0 S :    0.391030
   1 C :   -0.197645
   2 C :   -0.067464
   3 C :   -0.076703
   4 C :   -0.164351
   5 H :    0.028066
   6 C :   -0.034452
   7 H :    0.028337
   8 H :    0.038443
   9 C :   -0.045751
  10 H :    0.030321
  11 H :    0.023263
  12 C :   -0.070087
  13 H :    0.026837
  14 H :    0.032289
  15 H :    0.022793
  16 S :    0.415976
  17 C :   -0.194026
  18 C :   -0.068905
  19 C :   -0.049878
  20 C :   -0.192047
  21 H :    0.024471
  22 C :   -0.034514
  23 H :    0.020234
  24 H :    0.029969
  25 C :   -0.043678
  26 H :    0.020901
  27 H :    0.023771
  28 C :   -0.057737
  29 H :    0.024375
  30 H :    0.021641
  31 H :    0.021139
  32 H :    0.027376
  33 H :    0.046005

  Mayer bond orders larger than 0.100000
B(  0-S ,  1-C ) :   1.1238 B(  0-S ,  4-C ) :   1.1337 B(  1-C ,  2-C ) :   1.5970
B(  1-C , 32-H ) :   0.9658 B(  2-C ,  3-C ) :   1.2891 B(  2-C ,  6-C ) :   1.0204
B(  3-C ,  4-C ) :   1.5163 B(  3-C ,  5-H ) :   0.9731 B(  4-C , 20-C ) :   1.1146
B(  6-C ,  7-H ) :   0.9399 B(  6-C ,  8-H ) :   0.9316 B(  6-C ,  9-C ) :   1.0854
B(  9-C , 10-H ) :   0.9538 B(  9-C , 11-H ) :   0.9515 B(  9-C , 12-C ) :   1.0561
B( 12-C , 13-H ) :   0.9731 B( 12-C , 14-H ) :   0.9777 B( 12-C , 15-H ) :   0.9763
B( 16-S , 17-C ) :   1.1165 B( 16-S , 20-C ) :   1.1430 B( 17-C , 18-C ) :   1.6734
B( 17-C , 33-H ) :   0.9536 B( 18-C , 19-C ) :   1.2217 B( 18-C , 21-H ) :   0.9933
B( 19-C , 20-C ) :   1.5624 B( 19-C , 22-C ) :   1.0491 B( 22-C , 23-H ) :   0.9283
B( 22-C , 24-H ) :   0.9166 B( 22-C , 25-C ) :   1.0496 B( 25-C , 26-H ) :   0.9537
B( 25-C , 27-H ) :   0.9572 B( 25-C , 28-C ) :   1.0956 B( 28-C , 29-H ) :   0.9717
B( 28-C , 30-H ) :   0.9720 B( 28-C , 31-H ) :   0.9734

Dispersion correction           -0.014358774
FINAL SINGLE POINT ENERGY     -1339.873746397544

DIPOLE MOMENT
-------------
                                X             Y             Z
Electronic contribution:      1.25054       6.14803       9.33913
Nuclear contribution   :     -1.12315      -6.14681      -9.43523
                        -----------------------------------------
Total Dipole Moment    :      0.12739       0.00122      -0.09610
                        -----------------------------------------
Magnitude (a.u.)       :      0.15958
Magnitude (Debye)      :      0.40562

Rotational constants in cm-1:     0.020196     0.008849     0.006570
Rotational constants in MHz :   605.465023   265.293136   196.976886

                             ****ORCA TERMINATED NORMALLY****
TOTAL RUN TIME: 0 days 0 hours 0 minutes 21 seconds 563 msec
