                         Program Version 4.2.1 -  RELEASE  -
|  1> ! wB97X-D3 SP def2-SVP
|  2> %pal
|  3> nprocs 24
|  4> end
|  5>
|  6> * xyz 0 1
|  7> S 	 -119.203 	 64.794 	 -35.8773
|  8> C 	 -118.161 	 66.1072 	 -35.3102
|  9> C 	 -118.923 	 67.1184 	 -34.7651
| 10> C 	 -120.354 	 66.9288 	 -34.9251
| 11> C 	 -120.64 	 65.745 	 -35.5017
| 12> H 	 -121.231 	 67.6198 	 -34.827
| 13> C 	 -118.357 	 68.4624 	 -34.2559
| 14> H 	 -118.895 	 69.3463 	 -34.5942
| 15> H 	 -117.392 	 68.6024 	 -34.5805
| 16> C 	 -118.483 	 68.4778 	 -32.7531
| 17> H 	 -118.086 	 69.4347 	 -32.4723
| 18> H 	 -119.542 	 68.4037 	 -32.4055
| 19> C 	 -117.645 	 67.5007 	 -31.9875
| 20> H 	 -117.979 	 66.451 	 -32.2288
| 21> H 	 -116.589 	 67.7163 	 -32.318
| 22> H 	 -117.775 	 67.7971 	 -30.9577
| 23> S 	 -121.954 	 65.1901 	 -37.8782
| 24> C 	 -123.652 	 64.7221 	 -37.8614
| 25> C 	 -124.143 	 64.7483 	 -36.5832
| 26> C 	 -123.158 	 65.0878 	 -35.6076
| 27> C 	 -121.864 	 65.2466 	 -36.1033
| 28> H 	 -125.21 	 64.6893 	 -36.3469
| 29> C 	 -123.488 	 65.123 	 -34.1297
| 30> H 	 -122.534 	 65.1889 	 -33.6217
| 31> H 	 -123.753 	 64.1185 	 -33.8579
| 32> C 	 -124.527 	 66.2093 	 -33.6648
| 33> H 	 -125.531 	 65.8234 	 -33.9213
| 34> H 	 -124.458 	 67.1022 	 -34.2436
| 35> C 	 -124.442 	 66.6306 	 -32.1603
| 36> H 	 -124.99 	 67.565 	 -32.0883
| 37> H 	 -123.475 	 66.8381 	 -31.7179
| 38> H 	 -124.811 	 65.8121 	 -31.5002
| 39> H 	 -117.055 	 66.0602 	 -35.4048
| 40> H 	 -124.358 	 64.609 	 -38.7284
| 41> *
| 42>
| 43>                          ****END OF INPUT****

CARTESIAN COORDINATES (ANGSTROEM)
---------------------------------
  S    -119.203000   64.794000  -35.877300
  C    -118.161000   66.107200  -35.310200
  C    -118.923000   67.118400  -34.765100
  C    -120.354000   66.928800  -34.925100
  C    -120.640000   65.745000  -35.501700
  H    -121.231000   67.619800  -34.827000
  C    -118.357000   68.462400  -34.255900
  H    -118.895000   69.346300  -34.594200
  H    -117.392000   68.602400  -34.580500
  C    -118.483000   68.477800  -32.753100
  H    -118.086000   69.434700  -32.472300
  H    -119.542000   68.403700  -32.405500
  C    -117.645000   67.500700  -31.987500
  H    -117.979000   66.451000  -32.228800
  H    -116.589000   67.716300  -32.318000
  H    -117.775000   67.797100  -30.957700
  S    -121.954000   65.190100  -37.878200
  C    -123.652000   64.722100  -37.861400
  C    -124.143000   64.748300  -36.583200
  C    -123.158000   65.087800  -35.607600
  C    -121.864000   65.246600  -36.103300
  H    -125.210000   64.689300  -36.346900
  C    -123.488000   65.123000  -34.129700
  H    -122.534000   65.188900  -33.621700
  H    -123.753000   64.118500  -33.857900
  C    -124.527000   66.209300  -33.664800
  H    -125.531000   65.823400  -33.921300
  H    -124.458000   67.102200  -34.243600
  C    -124.442000   66.630600  -32.160300
  H    -124.990000   67.565000  -32.088300
  H    -123.475000   66.838100  -31.717900
  H    -124.811000   65.812100  -31.500200
  H    -117.055000   66.060200  -35.404800
  H    -124.358000   64.609000  -38.728400

 Total Charge           Charge          ....    0
 Multiplicity           Mult            ....    1
 Number of Electrons    NEL             ....  134
 Basis Dimension        Dim             ....  322

ORBITAL ENERGIES
----------------

  NO   OCC          E(Eh)            E(eV)
   0   2.0000     -88.964151     -2420.8376
   1   2.0000     -88.960806     -2420.7466
   2   2.0000     -10.327084      -281.0142
   3   2.0000     -10.325921      -280.9826
   4   2.0000     -10.322334      -280.8850
   5   2.0000     -10.320064      -280.8232
   6   2.0000     -10.307863      -280.4912
   7   2.0000     -10.302059      -280.3333
   8   2.0000     -10.300273      -280.2847
   9   2.0000     -10.293830      -280.1093
  10   2.0000     -10.292158      -280.0639
  11   2.0000     -10.286801      -279.9181
  12   2.0000     -10.284808      -279.8639
  13   2.0000     -10.283374      -279.8248
  14   2.0000     -10.278340      -279.6878
  15   2.0000     -10.277182      -279.6563
  16   2.0000      -8.078204      -219.8191
  17   2.0000      -8.075613      -219.7486
  18   2.0000      -6.036872      -164.2716
  19   2.0000      -6.034204      -164.1990
  20   2.0000      -6.032805      -164.1610
  21   2.0000      -6.030152      -164.0888
  22   2.0000      -6.028799      -164.0520
  23   2.0000      -6.026223      -163.9819
  24   2.0000      -1.005435       -27.3593
  25   2.0000      -0.981083       -26.6966
  26   2.0000      -0.918548       -24.9950
  27   2.0000      -0.900008       -24.4905
  28   2.0000      -0.870479       -23.6869
  29   2.0000      -0.848076       -23.0773
  30   2.0000      -0.842616       -22.9288
  31   2.0000      -0.817546       -22.2465
  32   2.0000      -0.784841       -21.3566
  33   2.0000      -0.770328       -20.9617
  34   2.0000      -0.709234       -19.2992
  35   2.0000      -0.699299       -19.0289
  36   2.0000      -0.681343       -18.5403
  37   2.0000      -0.654109       -17.7992
  38   2.0000      -0.648545       -17.6478
  39   2.0000      -0.616753       -16.7827
  40   2.0000      -0.591607       -16.0985
  41   2.0000      -0.571809       -15.5597
  42   2.0000      -0.553844       -15.0709
  43   2.0000      -0.548952       -14.9377
  44   2.0000      -0.544703       -14.8221
  45   2.0000      -0.531749       -14.4696
  46   2.0000      -0.521160       -14.1815
  47   2.0000      -0.513559       -13.9746
  48   2.0000      -0.504589       -13.7306
  49   2.0000      -0.492250       -13.3948
  50   2.0000      -0.484906       -13.1950
  51   2.0000      -0.479169       -13.0388
  52   2.0000      -0.473412       -12.8822
  53   2.0000      -0.465201       -12.6588
  54   2.0000      -0.461022       -12.5450
  55   2.0000      -0.443733       -12.0746
  56   2.0000      -0.441765       -12.0210
  57   2.0000      -0.434302       -11.8180
  58   2.0000      -0.433243       -11.7892
  59   2.0000      -0.424622       -11.5546
  60   2.0000      -0.422712       -11.5026
  61   2.0000      -0.408196       -11.1076
  62   2.0000      -0.405234       -11.0270
  63   2.0000      -0.346892        -9.4394
  64   2.0000      -0.329103        -8.9553
  65   2.0000      -0.325403        -8.8547
  66   2.0000      -0.300835        -8.1861
  67   0.0000       0.033576         0.9137
  68   0.0000       0.065883         1.7928
  69   0.0000       0.116739         3.1766
  70   0.0000       0.119493         3.2516
  71   0.0000       0.121546         3.3074

MULLIKEN ATOMIC CHARGES
-----------------------
   0 S :    0.088607
   1 C :   -0.134217
   2 C :   -0.107825
   3 C :    0.041409
   4 C :   -0.184418
   5 H :    0.039151
   6 C :    0.138230
   7 H :    0.026300
   8 H :   -0.009915
   9 C :   -0.110353
  10 H :    0.011284
  11 H :    0.033304
  12 C :   -0.051958
  13 H :    0.056914
  14 H :    0.026438
  15 H :    0.037703
  16 S :    0.105911
  17 C :   -0.100695
  18 C :   -0.030103
  19 C :   -0.060767
  20 C :   -0.135188
  21 H :    0.025424
  22 C :    0.078903
  23 H :    0.010740
  24 H :    0.027596
  25 C :   -0.069965
  26 H :    0.032287
  27 H :    0.025000
  28 C :   -0.061676
  29 H :    0.037187
  30 H :    0.029963
  31 H :    0.040747
  32 H :    0.067307
  33 H :    0.076675
Sum of atomic charges:    0.0000000

LOEWDIN ATOMIC CHARGES
----------------------
   0 S :    0.382132
   1 C :   -0.192895
   2 C :   -0.058327
   3 C :   -0.064129
   4 C :   -0.186561
   5 H :    0.047787
   6 C :   -0.020325
   7 H :    0.034258
   8 H :    0.014759
   9 C :   -0.047634
  10 H :    0.017698
  11 H :    0.024617
  12 C :   -0.067146
  13 H :    0.031283
  14 H :    0.027247
  15 H :    0.026390
  16 S :    0.394424
  17 C :   -0.187051
  18 C :   -0.080535
  19 C :   -0.053454
  20 C :   -0.205440
  21 H :    0.034062
  22 C :   -0.034992
  23 H :    0.027313
  24 H :    0.030970
  25 C :   -0.036210
  26 H :    0.026870
  27 H :    0.019251
  28 C :   -0.069110
  29 H :    0.028462
  30 H :    0.023506
  31 H :    0.030498
  32 H :    0.037016
  33 H :    0.045268

  Mayer bond orders larger than 0.100000
B(  0-S ,  1-C ) :   1.1192 B(  0-S ,  4-C ) :   1.1372 B(  1-C ,  2-C ) :   1.6473
B(  1-C , 32-H ) :   0.9678 B(  2-C ,  3-C ) :   1.1740 B(  2-C ,  6-C ) :   1.0241
B(  3-C ,  4-C ) :   1.6498 B(  3-C ,  5-H ) :   0.9821 B(  4-C , 20-C ) :   1.0048
B(  6-C ,  7-H ) :   0.9433 B(  6-C ,  8-H ) :   0.9384 B(  6-C ,  9-C ) :   1.0726
B(  9-C , 10-H ) :   0.9535 B(  9-C , 11-H ) :   0.9562 B(  9-C , 12-C ) :   1.0795
B( 12-C , 13-H ) :   0.9711 B( 12-C , 14-H ) :   0.9738 B( 12-C , 15-H ) :   0.9732
B( 16-S , 17-C ) :   1.1549 B( 16-S , 20-C ) :   1.1243 B( 17-C , 18-C ) :   1.6119
B( 17-C , 33-H ) :   0.9574 B( 18-C , 19-C ) :   1.2476 B( 18-C , 21-H ) :   0.9855
B( 19-C , 20-C ) :   1.5998 B( 19-C , 22-C ) :   1.0519 B( 22-C , 23-H ) :   0.9381
B( 22-C , 24-H ) :   0.9369 B( 22-C , 25-C ) :   1.0298 B( 25-C , 26-H ) :   0.9532
B( 25-C , 27-H ) :   0.9683 B( 25-C , 28-C ) :   1.0800 B( 28-C , 29-H ) :   0.9775
B( 28-C , 30-H ) :   0.9781 B( 28-C , 31-H ) :   0.9763

Dispersion correction           -0.014342139
FINAL SINGLE POINT ENERGY     -1339.871663237880

DIPOLE MOMENT
-------------
                                X             Y             Z
Electronic contribution:      3.37491     -13.70145     -25.34038
Nuclear contribution   :     -3.67365      14.29727      25.70723
                        -----------------------------------------
Total Dipole Moment    :     -0.29873       0.59582       0.36685
                        -----------------------------------------
Magnitude (a.u.)       :      0.76080
Magnitude (Debye)      :      1.93380

Rotational constants in cm-1:     0.017625     0.009332     0.006707
Rotational constants in MHz :   528.390469   279.764782   201.063960

                             ****ORCA TERMINATED NORMALLY****
TOTAL RUN TIME: 0 days 0 hours 0 minutes 21 seconds 650 msec
