                         Program Version 4.2.1 -  RELEASE  -
|  1> ! wB97X-D3 SP def2-SVP
|  2> %pal
|  3> nprocs 24
|  4> end
|  5>
|  6> * xyz 0 1
|  7> S 	 -126.914 	 64.6533 	 -59.955
|  8> C 	 -128.391 	 64.6297 	 -60.8163
|  9> C 	 -129.326 	 63.8924 	 -60.1432
| 10> C 	 -128.854 	 63.3912 	 -58.8908
| 11> C 	 -127.501 	 63.6431 	 -58.6589
| 12> H 	 -129.482 	 62.7761 	 -58.2081
| 13> C 	 -130.71 	 63.5639 	 -60.6872
| 14> H 	 -130.781 	 62.5538 	 -60.9744
| 15> H 	 -130.971 	 64.2028 	 -61.5428
| 16> C 	 -131.894 	 63.8529 	 -59.7859
| 17> H 	 -132.779 	 63.5855 	 -60.3417
| 18> H 	 -131.993 	 63.0182 	 -59.1098
| 19> C 	 -131.972 	 65.3248 	 -59.202
| 20> H 	 -131.748 	 65.9964 	 -60.0176
| 21> H 	 -133.016 	 65.3257 	 -58.8206
| 22> H 	 -131.28 	 65.584 	 -58.4125
| 23> S 	 -125.138 	 64.0549 	 -57.4723
| 24> C 	 -124.673 	 63.1436 	 -56.0276
| 25> C 	 -125.597 	 62.2263 	 -55.6604
| 26> C 	 -126.744 	 62.2491 	 -56.5463
| 27> C 	 -126.679 	 63.2223 	 -57.5694
| 28> H 	 -125.335 	 61.6528 	 -54.8118
| 29> C 	 -127.837 	 61.209 	 -56.3981
| 30> H 	 -128.742 	 61.7273 	 -56.3544
| 31> H 	 -127.826 	 60.7144 	 -55.4427
| 32> C 	 -127.814 	 60.1039 	 -57.4468
| 33> H 	 -126.878 	 59.5821 	 -57.2828
| 34> H 	 -127.839 	 60.6422 	 -58.3669
| 35> C 	 -128.949 	 59.1742 	 -57.4296
| 36> H 	 -128.979 	 58.8274 	 -56.3742
| 37> H 	 -128.685 	 58.4417 	 -58.1844
| 38> H 	 -129.871 	 59.7085 	 -57.6605
| 39> H 	 -128.627 	 65.1525 	 -61.7758
| 40> H 	 -123.756 	 63.3174 	 -55.5403
| 41> *
| 42>
| 43>                          ****END OF INPUT****

CARTESIAN COORDINATES (ANGSTROEM)
---------------------------------
  S    -126.914000   64.653300  -59.955000
  C    -128.391000   64.629700  -60.816300
  C    -129.326000   63.892400  -60.143200
  C    -128.854000   63.391200  -58.890800
  C    -127.501000   63.643100  -58.658900
  H    -129.482000   62.776100  -58.208100
  C    -130.710000   63.563900  -60.687200
  H    -130.781000   62.553800  -60.974400
  H    -130.971000   64.202800  -61.542800
  C    -131.894000   63.852900  -59.785900
  H    -132.779000   63.585500  -60.341700
  H    -131.993000   63.018200  -59.109800
  C    -131.972000   65.324800  -59.202000
  H    -131.748000   65.996400  -60.017600
  H    -133.016000   65.325700  -58.820600
  H    -131.280000   65.584000  -58.412500
  S    -125.138000   64.054900  -57.472300
  C    -124.673000   63.143600  -56.027600
  C    -125.597000   62.226300  -55.660400
  C    -126.744000   62.249100  -56.546300
  C    -126.679000   63.222300  -57.569400
  H    -125.335000   61.652800  -54.811800
  C    -127.837000   61.209000  -56.398100
  H    -128.742000   61.727300  -56.354400
  H    -127.826000   60.714400  -55.442700
  C    -127.814000   60.103900  -57.446800
  H    -126.878000   59.582100  -57.282800
  H    -127.839000   60.642200  -58.366900
  C    -128.949000   59.174200  -57.429600
  H    -128.979000   58.827400  -56.374200
  H    -128.685000   58.441700  -58.184400
  H    -129.871000   59.708500  -57.660500
  H    -128.627000   65.152500  -61.775800
  H    -123.756000   63.317400  -55.540300

 Total Charge           Charge          ....    0
 Multiplicity           Mult            ....    1
 Number of Electrons    NEL             ....  134
 Basis Dimension        Dim             ....  322

ORBITAL ENERGIES
----------------

  NO   OCC          E(Eh)            E(eV)
   0   2.0000     -88.967010     -2420.9154
   1   2.0000     -88.961809     -2420.7739
   2   2.0000     -10.333020      -281.1758
   3   2.0000     -10.331555      -281.1359
   4   2.0000     -10.313864      -280.6545
   5   2.0000     -10.313727      -280.6508
   6   2.0000     -10.311454      -280.5889
   7   2.0000     -10.298394      -280.2336
   8   2.0000     -10.297481      -280.2087
   9   2.0000     -10.293373      -280.0969
  10   2.0000     -10.286157      -279.9006
  11   2.0000     -10.284033      -279.8428
  12   2.0000     -10.282242      -279.7940
  13   2.0000     -10.280373      -279.7432
  14   2.0000     -10.275822      -279.6193
  15   2.0000     -10.272017      -279.5158
  16   2.0000      -8.082471      -219.9352
  17   2.0000      -8.076835      -219.7819
  18   2.0000      -6.041059      -164.3856
  19   2.0000      -6.036823      -164.2703
  20   2.0000      -6.035431      -164.2324
  21   2.0000      -6.033130      -164.1698
  22   2.0000      -6.031345      -164.1212
  23   2.0000      -6.027450      -164.0152
  24   2.0000      -1.011917       -27.5357
  25   2.0000      -0.985821       -26.8255
  26   2.0000      -0.919938       -25.0328
  27   2.0000      -0.912961       -24.8429
  28   2.0000      -0.877785       -23.8857
  29   2.0000      -0.855552       -23.2808
  30   2.0000      -0.841233       -22.8911
  31   2.0000      -0.819727       -22.3059
  32   2.0000      -0.785822       -21.3833
  33   2.0000      -0.774671       -21.0799
  34   2.0000      -0.714984       -19.4557
  35   2.0000      -0.698379       -19.0039
  36   2.0000      -0.689045       -18.7499
  37   2.0000      -0.667102       -18.1528
  38   2.0000      -0.632625       -17.2146
  39   2.0000      -0.626281       -17.0420
  40   2.0000      -0.597874       -16.2690
  41   2.0000      -0.581307       -15.8182
  42   2.0000      -0.567072       -15.4308
  43   2.0000      -0.562035       -15.2938
  44   2.0000      -0.536529       -14.5997
  45   2.0000      -0.535099       -14.5608
  46   2.0000      -0.521263       -14.1843
  47   2.0000      -0.513357       -13.9692
  48   2.0000      -0.508727       -13.8432
  49   2.0000      -0.498625       -13.5683
  50   2.0000      -0.496190       -13.5020
  51   2.0000      -0.492789       -13.4095
  52   2.0000      -0.475827       -12.9479
  53   2.0000      -0.465794       -12.6749
  54   2.0000      -0.460336       -12.5264
  55   2.0000      -0.451415       -12.2836
  56   2.0000      -0.440299       -11.9811
  57   2.0000      -0.430591       -11.7170
  58   2.0000      -0.426742       -11.6122
  59   2.0000      -0.425027       -11.5656
  60   2.0000      -0.416620       -11.3368
  61   2.0000      -0.409107       -11.1324
  62   2.0000      -0.406286       -11.0556
  63   2.0000      -0.368505       -10.0275
  64   2.0000      -0.336921        -9.1681
  65   2.0000      -0.325359        -8.8535
  66   2.0000      -0.281019        -7.6469
  67   0.0000       0.016416         0.4467
  68   0.0000       0.089273         2.4292
  69   0.0000       0.099516         2.7080
  70   0.0000       0.116401         3.1674
  71   0.0000       0.132375         3.6021

MULLIKEN ATOMIC CHARGES
-----------------------
   0 S :    0.110164
   1 C :   -0.126469
   2 C :   -0.091867
   3 C :   -0.012588
   4 C :   -0.104569
   5 H :    0.017346
   6 C :    0.077382
   7 H :    0.027089
   8 H :    0.014130
   9 C :   -0.094753
  10 H :    0.013087
  11 H :    0.004162
  12 C :   -0.031913
  13 H :    0.030154
  14 H :    0.047273
  15 H :    0.047771
  16 S :    0.068948
  17 C :   -0.068844
  18 C :   -0.008945
  19 C :   -0.058688
  20 C :   -0.109907
  21 H :    0.008869
  22 C :    0.074262
  23 H :    0.003554
  24 H :   -0.005858
  25 C :   -0.072104
  26 H :    0.024729
  27 H :    0.019573
  28 C :   -0.000721
  29 H :    0.025752
  30 H :    0.045668
  31 H :    0.023050
  32 H :    0.064185
  33 H :    0.040079
Sum of atomic charges:   -0.0000000

LOEWDIN ATOMIC CHARGES
----------------------
   0 S :    0.421562
   1 C :   -0.216265
   2 C :   -0.069799
   3 C :   -0.071852
   4 C :   -0.194168
   5 H :    0.033388
   6 C :   -0.030128
   7 H :    0.027198
   8 H :    0.028234
   9 C :   -0.049609
  10 H :    0.023981
  11 H :    0.014214
  12 C :   -0.060260
  13 H :    0.025186
  14 H :    0.035715
  15 H :    0.027797
  16 S :    0.384834
  17 C :   -0.160100
  18 C :   -0.066923
  19 C :   -0.045100
  20 C :   -0.187925
  21 H :    0.032469
  22 C :   -0.034013
  23 H :    0.016565
  24 H :    0.023236
  25 C :   -0.040520
  26 H :    0.024792
  27 H :    0.018896
  28 C :   -0.057980
  29 H :    0.027369
  30 H :    0.033228
  31 H :    0.023057
  32 H :    0.043508
  33 H :    0.019414

  Mayer bond orders larger than 0.100000
B(  0-S ,  1-C ) :   1.1366 B(  0-S ,  4-C ) :   1.1538 B(  1-C ,  2-C ) :   1.6120
B(  1-C , 32-H ) :   0.9595 B(  2-C ,  3-C ) :   1.2616 B(  2-C ,  6-C ) :   1.0236
B(  3-C ,  4-C ) :   1.5291 B(  3-C ,  5-H ) :   0.9897 B(  4-C , 20-C ) :   1.1266
B(  6-C ,  7-H ) :   0.9360 B(  6-C ,  8-H ) :   0.9447 B(  6-C ,  9-C ) :   1.0935
B(  9-C , 10-H ) :   0.9529 B(  9-C , 11-H ) :   0.9459 B(  9-C , 12-C ) :   1.0490
B( 12-C , 13-H ) :   0.9769 B( 12-C , 14-H ) :   0.9769 B( 12-C , 15-H ) :   0.9762
B( 16-S , 17-C ) :   1.1439 B( 16-S , 20-C ) :   1.1235 B( 17-C , 18-C ) :   1.6355
B( 17-C , 33-H ) :   0.9705 B( 18-C , 19-C ) :   1.2140 B( 18-C , 21-H ) :   1.0025
B( 19-C , 20-C ) :   1.5693 B( 19-C , 22-C ) :   1.0485 B( 22-C , 23-H ) :   0.9259
B( 22-C , 24-H ) :   0.9214 B( 22-C , 25-C ) :   1.0683 B( 25-C , 26-H ) :   0.9505
B( 25-C , 27-H ) :   0.9507 B( 25-C , 28-C ) :   1.0923 B( 28-C , 29-H ) :   0.9710
B( 28-C , 30-H ) :   0.9701 B( 28-C , 31-H ) :   0.9716

Dispersion correction           -0.014590003
FINAL SINGLE POINT ENERGY     -1339.868119556208

DIPOLE MOMENT
-------------
                                X             Y             Z
Electronic contribution:     25.56684      13.29954      -1.07171
Nuclear contribution   :    -26.03447     -13.73869       1.20524
                        -----------------------------------------
Total Dipole Moment    :     -0.46763      -0.43915       0.13353
                        -----------------------------------------
Magnitude (a.u.)       :      0.65525
Magnitude (Debye)      :      1.66552

Rotational constants in cm-1:     0.017940     0.009675     0.007162
Rotational constants in MHz :   537.834488   290.046318   214.696846

                             ****ORCA TERMINATED NORMALLY****
TOTAL RUN TIME: 0 days 0 hours 0 minutes 22 seconds 321 msec
