                         Program Version 4.2.1 -  RELEASE  -
|  1> ! wB97X-D3 SP def2-SVP
|  2> %pal
|  3> nprocs 24
|  4> end
|  5>
|  6> * xyz 0 1
|  7> S 	 -109.224 	 51.0509 	 -6.97984
|  8> C 	 -109.314 	 52.6999 	 -7.51698
|  9> C 	 -108.018 	 53.2414 	 -7.60331
| 10> C 	 -106.964 	 52.3168 	 -7.31074
| 11> C 	 -107.433 	 51.0132 	 -7.07578
| 12> H 	 -105.922 	 52.5014 	 -7.2297
| 13> C 	 -107.717 	 54.6073 	 -8.17362
| 14> H 	 -107.266 	 55.1356 	 -7.30517
| 15> H 	 -108.701 	 55.1494 	 -8.38216
| 16> C 	 -106.663 	 54.7681 	 -9.27206
| 17> H 	 -106.334 	 55.8394 	 -9.40255
| 18> H 	 -105.684 	 54.3606 	 -9.00794
| 19> C 	 -107.073 	 54.2371 	 -10.6949
| 20> H 	 -107.965 	 54.8203 	 -11.011
| 21> H 	 -106.218 	 54.3372 	 -11.3383
| 22> H 	 -107.275 	 53.1096 	 -10.6921
| 23> S 	 -106.331 	 49.2021 	 -5.28313
| 24> C 	 -105.013 	 48.2173 	 -5.78575
| 25> C 	 -104.551 	 48.6204 	 -7.0285
| 26> C 	 -105.51 	 49.4503 	 -7.70606
| 27> C 	 -106.498 	 49.9067 	 -6.83545
| 28> H 	 -103.652 	 48.273 	 -7.4305
| 29> C 	 -105.177 	 50.1321 	 -9.02465
| 30> H 	 -104.195 	 50.6826 	 -8.8898
| 31> H 	 -105.952 	 50.8977 	 -9.30182
| 32> C 	 -104.997 	 49.2214 	 -10.1989
| 33> H 	 -104.297 	 48.4163 	 -9.96883
| 34> H 	 -104.503 	 49.7331 	 -11.0786
| 35> C 	 -106.309 	 48.524 	 -10.6459
| 36> H 	 -106.28 	 47.6239 	 -11.3094
| 37> H 	 -107.031 	 49.1974 	 -11.0351
| 38> H 	 -106.905 	 48.2715 	 -9.83428
| 39> H 	 -110.165 	 53.2832 	 -7.81708
| 40> H 	 -104.39 	 47.5455 	 -5.2491
| 41> *
| 42>
| 43>                          ****END OF INPUT****

CARTESIAN COORDINATES (ANGSTROEM)
---------------------------------
  S    -109.224000   51.050900   -6.979840
  C    -109.314000   52.699900   -7.516980
  C    -108.018000   53.241400   -7.603310
  C    -106.964000   52.316800   -7.310740
  C    -107.433000   51.013200   -7.075780
  H    -105.922000   52.501400   -7.229700
  C    -107.717000   54.607300   -8.173620
  H    -107.266000   55.135600   -7.305170
  H    -108.701000   55.149400   -8.382160
  C    -106.663000   54.768100   -9.272060
  H    -106.334000   55.839400   -9.402550
  H    -105.684000   54.360600   -9.007940
  C    -107.073000   54.237100  -10.694900
  H    -107.965000   54.820300  -11.011000
  H    -106.218000   54.337200  -11.338300
  H    -107.275000   53.109600  -10.692100
  S    -106.331000   49.202100   -5.283130
  C    -105.013000   48.217300   -5.785750
  C    -104.551000   48.620400   -7.028500
  C    -105.510000   49.450300   -7.706060
  C    -106.498000   49.906700   -6.835450
  H    -103.652000   48.273000   -7.430500
  C    -105.177000   50.132100   -9.024650
  H    -104.195000   50.682600   -8.889800
  H    -105.952000   50.897700   -9.301820
  C    -104.997000   49.221400  -10.198900
  H    -104.297000   48.416300   -9.968830
  H    -104.503000   49.733100  -11.078600
  C    -106.309000   48.524000  -10.645900
  H    -106.280000   47.623900  -11.309400
  H    -107.031000   49.197400  -11.035100
  H    -106.905000   48.271500   -9.834280
  H    -110.165000   53.283200   -7.817080
  H    -104.390000   47.545500   -5.249100

 Total Charge           Charge          ....    0
 Multiplicity           Mult            ....    1
 Number of Electrons    NEL             ....  134
 Basis Dimension        Dim             ....  322

ORBITAL ENERGIES
----------------

  NO   OCC          E(Eh)            E(eV)
   0   2.0000     -88.970930     -2421.0221
   1   2.0000     -88.969337     -2420.9787
   2   2.0000     -10.335473      -281.2425
   3   2.0000     -10.326538      -280.9994
   4   2.0000     -10.317648      -280.7575
   5   2.0000     -10.314372      -280.6683
   6   2.0000     -10.304433      -280.3979
   7   2.0000     -10.303844      -280.3818
   8   2.0000     -10.300941      -280.3028
   9   2.0000     -10.296715      -280.1878
  10   2.0000     -10.296163      -280.1728
  11   2.0000     -10.295920      -280.1662
  12   2.0000     -10.291493      -280.0458
  13   2.0000     -10.287077      -279.9256
  14   2.0000     -10.285605      -279.8855
  15   2.0000     -10.264371      -279.3077
  16   2.0000      -8.084970      -220.0032
  17   2.0000      -8.084576      -219.9925
  18   2.0000      -6.043397      -164.4492
  19   2.0000      -6.043184      -164.4434
  20   2.0000      -6.039335      -164.3386
  21   2.0000      -6.039164      -164.3340
  22   2.0000      -6.035757      -164.2413
  23   2.0000      -6.035351      -164.2302
  24   2.0000      -1.009714       -27.4757
  25   2.0000      -0.984434       -26.7878
  26   2.0000      -0.910173       -24.7671
  27   2.0000      -0.905675       -24.6447
  28   2.0000      -0.872215       -23.7342
  29   2.0000      -0.848212       -23.0810
  30   2.0000      -0.843222       -22.9452
  31   2.0000      -0.815463       -22.1899
  32   2.0000      -0.782226       -21.2855
  33   2.0000      -0.771847       -21.0030
  34   2.0000      -0.710709       -19.3394
  35   2.0000      -0.697572       -18.9819
  36   2.0000      -0.693666       -18.8756
  37   2.0000      -0.659624       -17.9493
  38   2.0000      -0.640818       -17.4375
  39   2.0000      -0.620025       -16.8718
  40   2.0000      -0.596076       -16.2201
  41   2.0000      -0.568591       -15.4722
  42   2.0000      -0.550962       -14.9924
  43   2.0000      -0.548991       -14.9388
  44   2.0000      -0.540236       -14.7006
  45   2.0000      -0.532454       -14.4888
  46   2.0000      -0.517778       -14.0895
  47   2.0000      -0.512861       -13.9556
  48   2.0000      -0.507668       -13.8144
  49   2.0000      -0.495726       -13.4894
  50   2.0000      -0.490666       -13.3517
  51   2.0000      -0.480040       -13.0625
  52   2.0000      -0.467780       -12.7289
  53   2.0000      -0.464530       -12.6405
  54   2.0000      -0.455846       -12.4042
  55   2.0000      -0.445956       -12.1351
  56   2.0000      -0.443797       -12.0763
  57   2.0000      -0.441195       -12.0055
  58   2.0000      -0.436030       -11.8650
  59   2.0000      -0.422012       -11.4835
  60   2.0000      -0.420516       -11.4428
  61   2.0000      -0.409933       -11.1548
  62   2.0000      -0.407632       -11.0922
  63   2.0000      -0.342138        -9.3101
  64   2.0000      -0.329331        -8.9616
  65   2.0000      -0.324429        -8.8282
  66   2.0000      -0.300273        -8.1708
  67   0.0000       0.031909         0.8683
  68   0.0000       0.060098         1.6353
  69   0.0000       0.104835         2.8527
  70   0.0000       0.119364         3.2481
  71   0.0000       0.129850         3.5334

MULLIKEN ATOMIC CHARGES
-----------------------
   0 S :    0.123079
   1 C :   -0.108276
   2 C :   -0.081359
   3 C :    0.033298
   4 C :   -0.167318
   5 H :    0.016485
   6 C :    0.049710
   7 H :    0.039003
   8 H :    0.030049
   9 C :   -0.090722
  10 H :    0.032244
  11 H :    0.018031
  12 C :   -0.071494
  13 H :    0.043591
  14 H :    0.033569
  15 H :    0.052380
  16 S :    0.134718
  17 C :   -0.065061
  18 C :   -0.035214
  19 C :   -0.026137
  20 C :   -0.165812
  21 H :    0.004128
  22 C :   -0.000976
  23 H :    0.045515
  24 H :    0.050414
  25 C :   -0.058893
  26 H :    0.019317
  27 H :    0.034944
  28 C :   -0.032288
  29 H :    0.043664
  30 H :    0.005103
  31 H :    0.005970
  32 H :    0.045223
  33 H :    0.043115
Sum of atomic charges:   -0.0000000

LOEWDIN ATOMIC CHARGES
----------------------
   0 S :    0.400417
   1 C :   -0.205089
   2 C :   -0.067150
   3 C :   -0.046844
   4 C :   -0.187153
   5 H :    0.028630
   6 C :   -0.043565
   7 H :    0.041235
   8 H :    0.034916
   9 C :   -0.052013
  10 H :    0.032093
  11 H :    0.020579
  12 C :   -0.071592
  13 H :    0.028713
  14 H :    0.022398
  15 H :    0.033075
  16 S :    0.441992
  17 C :   -0.192756
  18 C :   -0.056829
  19 C :   -0.057404
  20 C :   -0.216089
  21 H :    0.020076
  22 C :   -0.040924
  23 H :    0.040502
  24 H :    0.035125
  25 C :   -0.046521
  26 H :    0.019656
  27 H :    0.028989
  28 C :   -0.075707
  29 H :    0.032516
  30 H :    0.021735
  31 H :    0.019414
  32 H :    0.030862
  33 H :    0.026714

  Mayer bond orders larger than 0.100000
B(  0-S ,  1-C ) :   1.1416 B(  0-S ,  4-C ) :   1.1403 B(  1-C ,  2-C ) :   1.5924
B(  1-C , 32-H ) :   0.9681 B(  2-C ,  3-C ) :   1.2310 B(  2-C ,  6-C ) :   1.0318
B(  3-C ,  4-C ) :   1.5545 B(  3-C ,  5-H ) :   0.9987 B(  4-C , 20-C ) :   1.0458
B(  6-C ,  7-H ) :   0.9236 B(  6-C ,  8-H ) :   0.9472 B(  6-C ,  9-C ) :   1.0778
B(  9-C , 10-H ) :   0.9510 B(  9-C , 11-H ) :   0.9478 B(  9-C , 12-C ) :   1.0708
B( 12-C , 13-H ) :   0.9757 B( 12-C , 14-H ) :   0.9744 B( 12-C , 15-H ) :   0.9751
B( 16-S , 17-C ) :   1.1604 B( 16-S , 20-C ) :   1.1638 B( 17-C , 18-C ) :   1.6062
B( 17-C , 33-H ) :   0.9705 B( 18-C , 19-C ) :   1.2497 B( 18-C , 21-H ) :   0.9922
B( 19-C , 20-C ) :   1.5611 B( 19-C , 22-C ) :   1.0446 B( 22-C , 23-H ) :   0.9374
B( 22-C , 24-H ) :   0.9365 B( 22-C , 25-C ) :   1.0733 B( 25-C , 26-H ) :   0.9567
B( 25-C , 27-H ) :   0.9551 B( 25-C , 28-C ) :   1.0620 B( 28-C , 29-H ) :   0.9775
B( 28-C , 30-H ) :   0.9655 B( 28-C , 31-H ) :   0.9685

Dispersion correction           -0.015481827
FINAL SINGLE POINT ENERGY     -1339.864442858460

DIPOLE MOMENT
-------------
                                X             Y             Z
Electronic contribution:     -8.92749     -10.70385      24.93217
Nuclear contribution   :      9.48263      11.15801     -25.23743
                        -----------------------------------------
Total Dipole Moment    :      0.55515       0.45416      -0.30526
                        -----------------------------------------
Magnitude (a.u.)       :      0.77951
Magnitude (Debye)      :      1.98135

Rotational constants in cm-1:     0.017520     0.009952     0.007773
Rotational constants in MHz :   525.231217   298.341502   233.021174

                             ****ORCA TERMINATED NORMALLY****
TOTAL RUN TIME: 0 days 0 hours 0 minutes 22 seconds 637 msec
