                         Program Version 4.2.1 -  RELEASE  -
|  1> ! wB97X-D3 SP def2-SVP
|  2> %pal
|  3> nprocs 24
|  4> end
|  5>
|  6> * xyz 0 1
|  7> S 	 -107.07 	 56.0553 	 -102.76
|  8> C 	 -108.764 	 55.9937 	 -103.111
|  9> C 	 -109.182 	 57.1753 	 -103.69
| 10> C 	 -108.172 	 58.1942 	 -103.744
| 11> C 	 -106.932 	 57.6615 	 -103.387
| 12> H 	 -108.204 	 59.1982 	 -104.196
| 13> C 	 -110.63 	 57.4394 	 -104.063
| 14> H 	 -111.149 	 57.8661 	 -103.213
| 15> H 	 -110.902 	 56.4033 	 -104.272
| 16> C 	 -110.922 	 58.0178 	 -105.49
| 17> H 	 -112.004 	 58.2882 	 -105.447
| 18> H 	 -110.441 	 59.046 	 -105.616
| 19> C 	 -110.621 	 57.0675 	 -106.626
| 20> H 	 -109.552 	 56.788 	 -106.575
| 21> H 	 -111.236 	 56.1205 	 -106.641
| 22> H 	 -110.883 	 57.4826 	 -107.583
| 23> S 	 -104.597 	 57.7009 	 -101.818
| 24> C 	 -103.506 	 58.9923 	 -102.016
| 25> C 	 -103.849 	 59.8138 	 -103.042
| 26> C 	 -105.115 	 59.5275 	 -103.672
| 27> C 	 -105.665 	 58.372 	 -103.163
| 28> H 	 -103.21 	 60.539 	 -103.427
| 29> C 	 -105.576 	 60.4764 	 -104.769
| 30> H 	 -106.16 	 59.8671 	 -105.489
| 31> H 	 -104.8 	 60.7453 	 -105.431
| 32> C 	 -106.185 	 61.8225 	 -104.342
| 33> H 	 -106.176 	 62.5171 	 -105.199
| 34> H 	 -105.593 	 62.2953 	 -103.5
| 35> C 	 -107.668 	 61.7564 	 -103.93
| 36> H 	 -108.251 	 61.3316 	 -104.777
| 37> H 	 -108.051 	 62.7328 	 -103.643
| 38> H 	 -107.857 	 61.1472 	 -102.999
| 39> H 	 -109.417 	 55.1048 	 -102.91
| 40> H 	 -102.647 	 59.2008 	 -101.431
| 41> *
| 42>
| 43>                          ****END OF INPUT****

CARTESIAN COORDINATES (ANGSTROEM)
---------------------------------
  S    -107.070000   56.055300  -102.760000
  C    -108.764000   55.993700  -103.111000
  C    -109.182000   57.175300  -103.690000
  C    -108.172000   58.194200  -103.744000
  C    -106.932000   57.661500  -103.387000
  H    -108.204000   59.198200  -104.196000
  C    -110.630000   57.439400  -104.063000
  H    -111.149000   57.866100  -103.213000
  H    -110.902000   56.403300  -104.272000
  C    -110.922000   58.017800  -105.490000
  H    -112.004000   58.288200  -105.447000
  H    -110.441000   59.046000  -105.616000
  C    -110.621000   57.067500  -106.626000
  H    -109.552000   56.788000  -106.575000
  H    -111.236000   56.120500  -106.641000
  H    -110.883000   57.482600  -107.583000
  S    -104.597000   57.700900  -101.818000
  C    -103.506000   58.992300  -102.016000
  C    -103.849000   59.813800  -103.042000
  C    -105.115000   59.527500  -103.672000
  C    -105.665000   58.372000  -103.163000
  H    -103.210000   60.539000  -103.427000
  C    -105.576000   60.476400  -104.769000
  H    -106.160000   59.867100  -105.489000
  H    -104.800000   60.745300  -105.431000
  C    -106.185000   61.822500  -104.342000
  H    -106.176000   62.517100  -105.199000
  H    -105.593000   62.295300  -103.500000
  C    -107.668000   61.756400  -103.930000
  H    -108.251000   61.331600  -104.777000
  H    -108.051000   62.732800  -103.643000
  H    -107.857000   61.147200  -102.999000
  H    -109.417000   55.104800  -102.910000
  H    -102.647000   59.200800  -101.431000

 Total Charge           Charge          ....    0
 Multiplicity           Mult            ....    1
 Number of Electrons    NEL             ....  134
 Basis Dimension        Dim             ....  322

ORBITAL ENERGIES
----------------

  NO   OCC          E(Eh)            E(eV)
   0   2.0000     -88.964741     -2420.8537
   1   2.0000     -88.963099     -2420.8090
   2   2.0000     -10.334100      -281.2052
   3   2.0000     -10.329179      -281.0712
   4   2.0000     -10.313982      -280.6577
   5   2.0000     -10.309596      -280.5384
   6   2.0000     -10.304372      -280.3962
   7   2.0000     -10.299546      -280.2649
   8   2.0000     -10.298318      -280.2315
   9   2.0000     -10.296397      -280.1792
  10   2.0000     -10.295142      -280.1451
  11   2.0000     -10.294029      -280.1148
  12   2.0000     -10.289095      -279.9805
  13   2.0000     -10.284677      -279.8603
  14   2.0000     -10.283263      -279.8218
  15   2.0000     -10.282077      -279.7895
  16   2.0000      -8.080251      -219.8748
  17   2.0000      -8.077672      -219.8046
  18   2.0000      -6.038686      -164.3210
  19   2.0000      -6.036307      -164.2563
  20   2.0000      -6.034685      -164.2121
  21   2.0000      -6.032315      -164.1476
  22   2.0000      -6.031010      -164.1121
  23   2.0000      -6.028178      -164.0351
  24   2.0000      -1.006226       -27.3808
  25   2.0000      -0.983751       -26.7692
  26   2.0000      -0.910559       -24.7776
  27   2.0000      -0.909014       -24.7355
  28   2.0000      -0.867461       -23.6048
  29   2.0000      -0.852765       -23.2049
  30   2.0000      -0.842830       -22.9346
  31   2.0000      -0.813600       -22.1392
  32   2.0000      -0.787076       -21.4174
  33   2.0000      -0.772426       -21.0188
  34   2.0000      -0.710026       -19.3208
  35   2.0000      -0.694524       -18.8990
  36   2.0000      -0.689479       -18.7617
  37   2.0000      -0.658886       -17.9292
  38   2.0000      -0.635362       -17.2891
  39   2.0000      -0.617290       -16.7973
  40   2.0000      -0.600802       -16.3487
  41   2.0000      -0.568289       -15.4639
  42   2.0000      -0.557653       -15.1745
  43   2.0000      -0.550885       -14.9903
  44   2.0000      -0.542535       -14.7631
  45   2.0000      -0.532275       -14.4839
  46   2.0000      -0.521318       -14.1858
  47   2.0000      -0.508477       -13.8364
  48   2.0000      -0.502010       -13.6604
  49   2.0000      -0.498695       -13.5702
  50   2.0000      -0.490361       -13.3434
  51   2.0000      -0.476807       -12.9746
  52   2.0000      -0.471794       -12.8382
  53   2.0000      -0.465715       -12.6728
  54   2.0000      -0.456992       -12.4354
  55   2.0000      -0.449917       -12.2429
  56   2.0000      -0.441692       -12.0190
  57   2.0000      -0.439526       -11.9601
  58   2.0000      -0.436879       -11.8881
  59   2.0000      -0.418312       -11.3829
  60   2.0000      -0.415606       -11.3092
  61   2.0000      -0.409516       -11.1435
  62   2.0000      -0.403841       -10.9891
  63   2.0000      -0.360885        -9.8202
  64   2.0000      -0.333780        -9.0826
  65   2.0000      -0.327221        -8.9041
  66   2.0000      -0.282362        -7.6835
  67   0.0000       0.023964         0.6521
  68   0.0000       0.077459         2.1078
  69   0.0000       0.103840         2.8256
  70   0.0000       0.118338         3.2201
  71   0.0000       0.129617         3.5271

MULLIKEN ATOMIC CHARGES
-----------------------
   0 S :    0.096003
   1 C :   -0.138765
   2 C :   -0.109799
   3 C :    0.033999
   4 C :   -0.126968
   5 H :   -0.011656
   6 C :    0.058240
   7 H :    0.057761
   8 H :    0.010716
   9 C :   -0.099198
  10 H :    0.031890
  11 H :    0.036382
  12 C :   -0.060473
  13 H :    0.054437
  14 H :    0.036171
  15 H :    0.032296
  16 S :    0.086020
  17 C :   -0.051089
  18 C :   -0.017376
  19 C :   -0.048436
  20 C :   -0.126891
  21 H :   -0.008523
  22 C :    0.058185
  23 H :    0.024919
  24 H :    0.013150
  25 C :   -0.075888
  26 H :    0.034606
  27 H :    0.045283
  28 C :   -0.081714
  29 H :    0.046883
  30 H :    0.032645
  31 H :    0.052622
  32 H :    0.069818
  33 H :    0.044750
Sum of atomic charges:    0.0000000

LOEWDIN ATOMIC CHARGES
----------------------
   0 S :    0.417937
   1 C :   -0.216833
   2 C :   -0.069010
   3 C :   -0.070274
   4 C :   -0.190150
   5 H :    0.033564
   6 C :   -0.037089
   7 H :    0.035301
   8 H :    0.032164
   9 C :   -0.049855
  10 H :    0.028315
  11 H :    0.024421
  12 C :   -0.072238
  13 H :    0.033509
  14 H :    0.032176
  15 H :    0.025803
  16 S :    0.376083
  17 C :   -0.187892
  18 C :   -0.067410
  19 C :   -0.055425
  20 C :   -0.162871
  21 H :    0.018720
  22 C :   -0.038136
  23 H :    0.034048
  24 H :    0.029716
  25 C :   -0.039768
  26 H :    0.027500
  27 H :    0.033621
  28 C :   -0.076225
  29 H :    0.024557
  30 H :    0.024870
  31 H :    0.032686
  32 H :    0.040827
  33 H :    0.027358

  Mayer bond orders larger than 0.100000
B(  0-S ,  1-C ) :   1.1370 B(  0-S ,  4-C ) :   1.1627 B(  1-C ,  2-C ) :   1.6082
B(  1-C , 32-H ) :   0.9611 B(  2-C ,  3-C ) :   1.2396 B(  2-C ,  6-C ) :   1.0030
B(  3-C ,  4-C ) :   1.5610 B(  3-C ,  5-H ) :   0.9718 B(  4-C , 20-C ) :   1.0574
B(  6-C ,  7-H ) :   0.9463 B(  6-C ,  8-H ) :   0.9417 B(  6-C ,  9-C ) :   1.0599
B(  9-C , 10-H ) :   0.9530 B(  9-C , 11-H ) :   0.9549 B(  9-C , 12-C ) :   1.0802
B( 12-C , 13-H ) :   0.9749 B( 12-C , 14-H ) :   0.9668 B( 12-C , 15-H ) :   0.9719
B( 16-S , 17-C ) :   1.1444 B( 16-S , 20-C ) :   1.1060 B( 17-C , 18-C ) :   1.6339
B( 17-C , 33-H ) :   0.9665 B( 18-C , 19-C ) :   1.2176 B( 18-C , 21-H ) :   0.9947
B( 19-C , 20-C ) :   1.6466 B( 19-C , 22-C ) :   1.0379 B( 22-C , 23-H ) :   0.9336
B( 22-C , 24-H ) :   0.9306 B( 22-C , 25-C ) :   1.0651 B( 25-C , 26-H ) :   0.9550
B( 25-C , 27-H ) :   0.9531 B( 25-C , 28-C ) :   1.0888 B( 28-C , 29-H ) :   0.9617
B( 28-C , 30-H ) :   0.9685 B( 28-C , 31-H ) :   0.9686

Dispersion correction           -0.014929932
FINAL SINGLE POINT ENERGY     -1339.873724975380

DIPOLE MOMENT
-------------
                                X             Y             Z
Electronic contribution:     18.82986     -15.73890      16.87124
Nuclear contribution   :    -19.10276      16.31311     -17.25105
                        -----------------------------------------
Total Dipole Moment    :     -0.27289       0.57422      -0.37981
                        -----------------------------------------
Magnitude (a.u.)       :      0.74057
Magnitude (Debye)      :      1.88239

Rotational constants in cm-1:     0.019010     0.009703     0.006949
Rotational constants in MHz :   569.917021   290.898827   208.331269

                             ****ORCA TERMINATED NORMALLY****
TOTAL RUN TIME: 0 days 0 hours 0 minutes 22 seconds 285 msec
