                         Program Version 4.2.1 -  RELEASE  -
|  1> ! wB97X-D3 SP def2-SVP
|  2> %pal
|  3> nprocs 24
|  4> end
|  5>
|  6> * xyz 0 1
|  7> S 	 -69.5329 	 -42.8915 	 -95.4477
|  8> C 	 -69.525 	 -41.1908 	 -95.6581
|  9> C 	 -70.4032 	 -40.8972 	 -96.6571
| 10> C 	 -71.3683 	 -41.9441 	 -96.8876
| 11> C 	 -71.1498 	 -43.083 	 -96.1737
| 12> H 	 -72.1455 	 -41.9135 	 -97.6092
| 13> C 	 -70.4908 	 -39.6034 	 -97.4444
| 14> H 	 -70.4975 	 -38.8682 	 -96.7497
| 15> H 	 -71.4911 	 -39.6789 	 -97.8603
| 16> C 	 -69.3217 	 -39.4905 	 -98.4873
| 17> H 	 -69.3803 	 -38.5443 	 -99.0326
| 18> H 	 -68.414 	 -39.4274 	 -97.9751
| 19> C 	 -69.1387 	 -40.5548 	 -99.5002
| 20> H 	 -69.607 	 -40.2143 	 -100.439
| 21> H 	 -68.0823 	 -40.5711 	 -99.6959
| 22> H 	 -69.3621 	 -41.5495 	 -99.146
| 23> S 	 -71.1003 	 -45.8219 	 -96.1857
| 24> C 	 -72.6089 	 -46.6241 	 -96.2277
| 25> C 	 -73.6781 	 -45.7549 	 -96.2477
| 26> C 	 -73.3305 	 -44.4027 	 -96.2715
| 27> C 	 -71.9404 	 -44.3004 	 -96.2342
| 28> H 	 -74.6362 	 -46.136 	 -96.5021
| 29> C 	 -74.382 	 -43.3422 	 -96.4247
| 30> H 	 -75.2252 	 -43.8475 	 -96.9678
| 31> H 	 -74.1455 	 -42.6777 	 -97.2142
| 32> C 	 -74.7354 	 -42.6257 	 -95.1083
| 33> H 	 -73.8174 	 -42.2573 	 -94.5736
| 34> H 	 -75.1548 	 -43.3019 	 -94.4177
| 35> C 	 -75.513 	 -41.3595 	 -95.2987
| 36> H 	 -76.4946 	 -41.6012 	 -95.6229
| 37> H 	 -75.0761 	 -40.6966 	 -96.0456
| 38> H 	 -75.5729 	 -40.874 	 -94.3236
| 39> H 	 -68.609 	 -40.6321 	 -95.4993
| 40> H 	 -72.7296 	 -47.7022 	 -96.2723
| 41> *
| 42>
| 43>                          ****END OF INPUT****

CARTESIAN COORDINATES (ANGSTROEM)
---------------------------------
  S    -69.532900  -42.891500  -95.447700
  C    -69.525000  -41.190800  -95.658100
  C    -70.403200  -40.897200  -96.657100
  C    -71.368300  -41.944100  -96.887600
  C    -71.149800  -43.083000  -96.173700
  H    -72.145500  -41.913500  -97.609200
  C    -70.490800  -39.603400  -97.444400
  H    -70.497500  -38.868200  -96.749700
  H    -71.491100  -39.678900  -97.860300
  C    -69.321700  -39.490500  -98.487300
  H    -69.380300  -38.544300  -99.032600
  H    -68.414000  -39.427400  -97.975100
  C    -69.138700  -40.554800  -99.500200
  H    -69.607000  -40.214300  -100.439000
  H    -68.082300  -40.571100  -99.695900
  H    -69.362100  -41.549500  -99.146000
  S    -71.100300  -45.821900  -96.185700
  C    -72.608900  -46.624100  -96.227700
  C    -73.678100  -45.754900  -96.247700
  C    -73.330500  -44.402700  -96.271500
  C    -71.940400  -44.300400  -96.234200
  H    -74.636200  -46.136000  -96.502100
  C    -74.382000  -43.342200  -96.424700
  H    -75.225200  -43.847500  -96.967800
  H    -74.145500  -42.677700  -97.214200
  C    -74.735400  -42.625700  -95.108300
  H    -73.817400  -42.257300  -94.573600
  H    -75.154800  -43.301900  -94.417700
  C    -75.513000  -41.359500  -95.298700
  H    -76.494600  -41.601200  -95.622900
  H    -75.076100  -40.696600  -96.045600
  H    -75.572900  -40.874000  -94.323600
  H    -68.609000  -40.632100  -95.499300
  H    -72.729600  -47.702200  -96.272300

 Total Charge           Charge          ....    0
 Multiplicity           Mult            ....    1
 Number of Electrons    NEL             ....  134
 Basis Dimension        Dim             ....  322

ORBITAL ENERGIES
----------------

  NO   OCC          E(Eh)            E(eV)
   0   2.0000     -88.970920     -2421.0218
   1   2.0000     -88.957238     -2420.6495
   2   2.0000     -10.326995      -281.0118
   3   2.0000     -10.326184      -280.9898
   4   2.0000     -10.313058      -280.6326
   5   2.0000     -10.304649      -280.4037
   6   2.0000     -10.300044      -280.2784
   7   2.0000     -10.295540      -280.1559
   8   2.0000     -10.293369      -280.0968
   9   2.0000     -10.285495      -279.8825
  10   2.0000     -10.285295      -279.8771
  11   2.0000     -10.282585      -279.8034
  12   2.0000     -10.282165      -279.7919
  13   2.0000     -10.279182      -279.7108
  14   2.0000     -10.271323      -279.4969
  15   2.0000     -10.269008      -279.4339
  16   2.0000      -8.086553      -220.0463
  17   2.0000      -8.072530      -219.6647
  18   2.0000      -6.044857      -164.4889
  19   2.0000      -6.041037      -164.3850
  20   2.0000      -6.037390      -164.2857
  21   2.0000      -6.031204      -164.1174
  22   2.0000      -6.027280      -164.0106
  23   2.0000      -6.022753      -163.8874
  24   2.0000      -1.013349       -27.5746
  25   2.0000      -0.991818       -26.9887
  26   2.0000      -0.915042       -24.8996
  27   2.0000      -0.912582       -24.8326
  28   2.0000      -0.873709       -23.7748
  29   2.0000      -0.863584       -23.4993
  30   2.0000      -0.849139       -23.1062
  31   2.0000      -0.816982       -22.2312
  32   2.0000      -0.787551       -21.4304
  33   2.0000      -0.772293       -21.0152
  34   2.0000      -0.707538       -19.2531
  35   2.0000      -0.701697       -19.0941
  36   2.0000      -0.693907       -18.8822
  37   2.0000      -0.666557       -18.1379
  38   2.0000      -0.638974       -17.3874
  39   2.0000      -0.619451       -16.8561
  40   2.0000      -0.599548       -16.3145
  41   2.0000      -0.573789       -15.6136
  42   2.0000      -0.561670       -15.2838
  43   2.0000      -0.554200       -15.0805
  44   2.0000      -0.544125       -14.8064
  45   2.0000      -0.537474       -14.6254
  46   2.0000      -0.517657       -14.0862
  47   2.0000      -0.512634       -13.9495
  48   2.0000      -0.507840       -13.8190
  49   2.0000      -0.500772       -13.6267
  50   2.0000      -0.493569       -13.4307
  51   2.0000      -0.477693       -12.9987
  52   2.0000      -0.472494       -12.8572
  53   2.0000      -0.469800       -12.7839
  54   2.0000      -0.460480       -12.5303
  55   2.0000      -0.449661       -12.2359
  56   2.0000      -0.448008       -12.1909
  57   2.0000      -0.442305       -12.0357
  58   2.0000      -0.432165       -11.7598
  59   2.0000      -0.428228       -11.6527
  60   2.0000      -0.418420       -11.3858
  61   2.0000      -0.409672       -11.1477
  62   2.0000      -0.404883       -11.0174
  63   2.0000      -0.358437        -9.7536
  64   2.0000      -0.339512        -9.2386
  65   2.0000      -0.318125        -8.6566
  66   2.0000      -0.283671        -7.7191
  67   0.0000       0.022038         0.5997
  68   0.0000       0.072686         1.9779
  69   0.0000       0.101294         2.7564
  70   0.0000       0.125915         3.4263
  71   0.0000       0.136992         3.7277

MULLIKEN ATOMIC CHARGES
-----------------------
   0 S :    0.074822
   1 C :   -0.095634
   2 C :   -0.165660
   3 C :    0.000980
   4 C :   -0.093532
   5 H :   -0.006165
   6 C :    0.167002
   7 H :    0.002810
   8 H :    0.008788
   9 C :   -0.072337
  10 H :    0.022136
  11 H :    0.005297
  12 C :   -0.024663
  13 H :    0.034252
  14 H :    0.017001
  15 H :    0.043517
  16 S :    0.131066
  17 C :   -0.092740
  18 C :   -0.025417
  19 C :   -0.041951
  20 C :   -0.171704
  21 H :    0.005213
  22 C :    0.085858
  23 H :    0.017714
  24 H :   -0.003275
  25 C :   -0.068423
  26 H :    0.043434
  27 H :    0.019667
  28 C :   -0.009470
  29 H :    0.014386
  30 H :    0.030489
  31 H :    0.036035
  32 H :    0.056235
  33 H :    0.054271
Sum of atomic charges:    0.0000000

LOEWDIN ATOMIC CHARGES
----------------------
   0 S :    0.385867
   1 C :   -0.214142
   2 C :   -0.059452
   3 C :   -0.073030
   4 C :   -0.173319
   5 H :    0.020902
   6 C :   -0.017230
   7 H :    0.017888
   8 H :    0.027920
   9 C :   -0.038025
  10 H :    0.025875
  11 H :    0.013777
  12 C :   -0.063509
  13 H :    0.029470
  14 H :    0.028112
  15 H :    0.027077
  16 S :    0.435390
  17 C :   -0.196897
  18 C :   -0.070578
  19 C :   -0.052913
  20 C :   -0.196142
  21 H :    0.025782
  22 C :   -0.031650
  23 H :    0.037757
  24 H :    0.020519
  25 C :   -0.037033
  26 H :    0.036236
  27 H :    0.019567
  28 C :   -0.058772
  29 H :    0.015930
  30 H :    0.025565
  31 H :    0.030556
  32 H :    0.029295
  33 H :    0.029206

  Mayer bond orders larger than 0.100000
B(  0-S ,  1-C ) :   1.1278 B(  0-S ,  4-C ) :   1.1375 B(  1-C ,  2-C ) :   1.6195
B(  1-C , 32-H ) :   0.9630 B(  2-C ,  3-C ) :   1.2346 B(  2-C ,  6-C ) :   1.0025
B(  3-C ,  4-C ) :   1.5593 B(  3-C ,  5-H ) :   1.0027 B(  4-C , 20-C ) :   1.0842
B(  6-C ,  7-H ) :   0.9336 B(  6-C ,  8-H ) :   0.9449 B(  6-C ,  9-C ) :   1.0558
B(  9-C , 10-H ) :   0.9567 B(  9-C , 11-H ) :   0.9643 B(  9-C , 12-C ) :   1.0840
B( 12-C , 13-H ) :   0.9776 B( 12-C , 14-H ) :   0.9712 B( 12-C , 15-H ) :   0.9724
B( 16-S , 17-C ) :   1.1664 B( 16-S , 20-C ) :   1.1568 B( 17-C , 18-C ) :   1.5941
B( 17-C , 20-C ) :   0.1006 B( 17-C , 33-H ) :   0.9658 B( 18-C , 19-C ) :   1.2838
B( 18-C , 21-H ) :   0.9865 B( 19-C , 20-C ) :   1.5623 B( 19-C , 22-C ) :   1.0340
B( 22-C , 23-H ) :   0.9245 B( 22-C , 24-H ) :   0.9338 B( 22-C , 25-C ) :   1.0443
B( 25-C , 26-H ) :   0.9607 B( 25-C , 27-H ) :   0.9532 B( 25-C , 28-C ) :   1.0863
B( 28-C , 29-H ) :   0.9715 B( 28-C , 30-H ) :   0.9732 B( 28-C , 31-H ) :   0.9728

Dispersion correction           -0.014766879
FINAL SINGLE POINT ENERGY     -1339.854103760977

DIPOLE MOMENT
-------------
                                X             Y             Z
Electronic contribution:     11.17895     -20.57084       9.00024
Nuclear contribution   :    -11.55155      20.87500      -9.46308
                        -----------------------------------------
Total Dipole Moment    :     -0.37259       0.30416      -0.46284
                        -----------------------------------------
Magnitude (a.u.)       :      0.66750
Magnitude (Debye)      :      1.69666

Rotational constants in cm-1:     0.017973     0.009442     0.007359
Rotational constants in MHz :   538.812298   283.073685   220.622088

                             ****ORCA TERMINATED NORMALLY****
TOTAL RUN TIME: 0 days 0 hours 0 minutes 21 seconds 85 msec
