                         Program Version 4.2.1 -  RELEASE  -
|  1> ! wB97X-D3 SP def2-SVP
|  2> %pal
|  3> nprocs 24
|  4> end
|  5>
|  6> * xyz 0 1
|  7> S 	 -87.1567 	 1.60283 	 -118.091
|  8> C 	 -87.3679 	 -0.168851 	 -117.89
|  9> C 	 -88.6264 	 -0.592027 	 -118.387
| 10> C 	 -89.4408 	 0.528896 	 -118.75
| 11> C 	 -88.8485 	 1.7781 	 -118.629
| 12> H 	 -90.4641 	 0.475419 	 -119.084
| 13> C 	 -89.0757 	 -2.05693 	 -118.5
| 14> H 	 -88.3118 	 -2.68805 	 -119.002
| 15> H 	 -89.895 	 -2.09697 	 -119.229
| 16> C 	 -89.2425 	 -2.77525 	 -117.141
| 17> H 	 -89.3975 	 -3.81356 	 -117.243
| 18> H 	 -88.3308 	 -2.62832 	 -116.554
| 19> C 	 -90.4762 	 -2.30212 	 -116.278
| 20> H 	 -91.4043 	 -2.47417 	 -116.851
| 21> H 	 -90.5539 	 -2.86785 	 -115.336
| 22> H 	 -90.4078 	 -1.27106 	 -116.103
| 23> S 	 -88.5582 	 4.10505 	 -120.07
| 24> C 	 -89.8644 	 5.29981 	 -120.058
| 25> C 	 -90.9694 	 4.77457 	 -119.352
| 26> C 	 -90.7257 	 3.48324 	 -118.781
| 27> C 	 -89.4739 	 3.04988 	 -118.994
| 28> H 	 -91.7924 	 5.39533 	 -119.428
| 29> C 	 -91.8981 	 2.72877 	 -118.122
| 30> H 	 -92.182 	 1.84236 	 -118.698
| 31> H 	 -92.699 	 3.37391 	 -118.075
| 32> C 	 -91.5981 	 2.07886 	 -116.737
| 33> H 	 -91.0621 	 2.88125 	 -116.15
| 34> H 	 -90.8592 	 1.30328 	 -116.763
| 35> C 	 -92.8338 	 1.49529 	 -116.131
| 36> H 	 -93.349 	 0.783888 	 -116.847
| 37> H 	 -93.5668 	 2.22104 	 -115.919
| 38> H 	 -92.775 	 1.15052 	 -115.079
| 39> H 	 -86.5706 	 -0.904433 	 -117.583
| 40> H 	 -89.9312 	 6.28128 	 -120.485
| 41> *
| 42>
| 43>                          ****END OF INPUT****

CARTESIAN COORDINATES (ANGSTROEM)
---------------------------------
  S    -87.156700    1.602830  -118.091000
  C    -87.367900   -0.168851  -117.890000
  C    -88.626400   -0.592027  -118.387000
  C    -89.440800    0.528896  -118.750000
  C    -88.848500    1.778100  -118.629000
  H    -90.464100    0.475419  -119.084000
  C    -89.075700   -2.056930  -118.500000
  H    -88.311800   -2.688050  -119.002000
  H    -89.895000   -2.096970  -119.229000
  C    -89.242500   -2.775250  -117.141000
  H    -89.397500   -3.813560  -117.243000
  H    -88.330800   -2.628320  -116.554000
  C    -90.476200   -2.302120  -116.278000
  H    -91.404300   -2.474170  -116.851000
  H    -90.553900   -2.867850  -115.336000
  H    -90.407800   -1.271060  -116.103000
  S    -88.558200    4.105050  -120.070000
  C    -89.864400    5.299810  -120.058000
  C    -90.969400    4.774570  -119.352000
  C    -90.725700    3.483240  -118.781000
  C    -89.473900    3.049880  -118.994000
  H    -91.792400    5.395330  -119.428000
  C    -91.898100    2.728770  -118.122000
  H    -92.182000    1.842360  -118.698000
  H    -92.699000    3.373910  -118.075000
  C    -91.598100    2.078860  -116.737000
  H    -91.062100    2.881250  -116.150000
  H    -90.859200    1.303280  -116.763000
  C    -92.833800    1.495290  -116.131000
  H    -93.349000    0.783888  -116.847000
  H    -93.566800    2.221040  -115.919000
  H    -92.775000    1.150520  -115.079000
  H    -86.570600   -0.904433  -117.583000
  H    -89.931200    6.281280  -120.485000

 Total Charge           Charge          ....    0
 Multiplicity           Mult            ....    1
 Number of Electrons    NEL             ....  134
 Basis Dimension        Dim             ....  322

ORBITAL ENERGIES
----------------

  NO   OCC          E(Eh)            E(eV)
   0   2.0000     -88.972225     -2421.0573
   1   2.0000     -88.967435     -2420.9270
   2   2.0000     -10.333903      -281.1998
   3   2.0000     -10.326792      -281.0063
   4   2.0000     -10.326214      -280.9906
   5   2.0000     -10.319955      -280.8203
   6   2.0000     -10.310055      -280.5509
   7   2.0000     -10.303734      -280.3788
   8   2.0000     -10.301043      -280.3056
   9   2.0000     -10.296805      -280.1903
  10   2.0000     -10.292286      -280.0673
  11   2.0000     -10.291181      -280.0373
  12   2.0000     -10.288827      -279.9732
  13   2.0000     -10.281995      -279.7873
  14   2.0000     -10.276854      -279.6474
  15   2.0000     -10.274790      -279.5912
  16   2.0000      -8.085184      -220.0090
  17   2.0000      -8.081500      -219.9088
  18   2.0000      -6.043818      -164.4606
  19   2.0000      -6.040180      -164.3616
  20   2.0000      -6.039945      -164.3553
  21   2.0000      -6.036057      -164.2495
  22   2.0000      -6.035896      -164.2451
  23   2.0000      -6.032163      -164.1435
  24   2.0000      -1.003717       -27.3125
  25   2.0000      -0.976637       -26.5756
  26   2.0000      -0.908989       -24.7349
  27   2.0000      -0.905710       -24.6456
  28   2.0000      -0.865080       -23.5400
  29   2.0000      -0.853089       -23.2137
  30   2.0000      -0.842538       -22.9266
  31   2.0000      -0.812839       -22.1185
  32   2.0000      -0.783652       -21.3243
  33   2.0000      -0.774535       -21.0762
  34   2.0000      -0.709795       -19.3145
  35   2.0000      -0.704114       -19.1599
  36   2.0000      -0.693104       -18.8603
  37   2.0000      -0.666542       -18.1375
  38   2.0000      -0.636405       -17.3175
  39   2.0000      -0.616906       -16.7869
  40   2.0000      -0.593636       -16.1537
  41   2.0000      -0.575977       -15.6731
  42   2.0000      -0.565663       -15.3925
  43   2.0000      -0.545404       -14.8412
  44   2.0000      -0.537354       -14.6221
  45   2.0000      -0.524620       -14.2756
  46   2.0000      -0.519347       -14.1321
  47   2.0000      -0.509493       -13.8640
  48   2.0000      -0.504622       -13.7315
  49   2.0000      -0.499080       -13.5807
  50   2.0000      -0.491685       -13.3794
  51   2.0000      -0.477409       -12.9910
  52   2.0000      -0.474655       -12.9160
  53   2.0000      -0.468101       -12.7377
  54   2.0000      -0.459918       -12.5150
  55   2.0000      -0.447439       -12.1754
  56   2.0000      -0.442892       -12.0517
  57   2.0000      -0.436833       -11.8868
  58   2.0000      -0.426392       -11.6027
  59   2.0000      -0.422998       -11.5104
  60   2.0000      -0.420944       -11.4545
  61   2.0000      -0.416972       -11.3464
  62   2.0000      -0.410427       -11.1683
  63   2.0000      -0.346714        -9.4346
  64   2.0000      -0.332937        -9.0597
  65   2.0000      -0.331203        -9.0125
  66   2.0000      -0.290695        -7.9102
  67   0.0000       0.022358         0.6084
  68   0.0000       0.065809         1.7907
  69   0.0000       0.102380         2.7859
  70   0.0000       0.117668         3.2019
  71   0.0000       0.125636         3.4187

MULLIKEN ATOMIC CHARGES
-----------------------
   0 S :    0.115481
   1 C :   -0.146887
   2 C :   -0.084153
   3 C :    0.025762
   4 C :   -0.153410
   5 H :    0.002188
   6 C :    0.053037
   7 H :    0.036240
   8 H :    0.025596
   9 C :   -0.061348
  10 H :    0.024458
  11 H :    0.029558
  12 C :   -0.060551
  13 H :    0.025680
  14 H :    0.039944
  15 H :    0.033471
  16 S :    0.108029
  17 C :   -0.096345
  18 C :   -0.035936
  19 C :   -0.009261
  20 C :   -0.139048
  21 H :   -0.008010
  22 C :    0.100610
  23 H :    0.028941
  24 H :   -0.004737
  25 C :   -0.097716
  26 H :    0.032978
  27 H :    0.043817
  28 C :   -0.027409
  29 H :    0.033779
  30 H :    0.002923
  31 H :    0.036174
  32 H :    0.074294
  33 H :    0.051850
Sum of atomic charges:   -0.0000000

LOEWDIN ATOMIC CHARGES
----------------------
   0 S :    0.384265
   1 C :   -0.196654
   2 C :   -0.061667
   3 C :   -0.060250
   4 C :   -0.184210
   5 H :    0.028630
   6 C :   -0.035516
   7 H :    0.038969
   8 H :    0.030088
   9 C :   -0.033069
  10 H :    0.017525
  11 H :    0.024895
  12 C :   -0.063489
  13 H :    0.024760
  14 H :    0.028884
  15 H :    0.014928
  16 S :    0.393592
  17 C :   -0.178672
  18 C :   -0.060851
  19 C :   -0.057361
  20 C :   -0.189096
  21 H :    0.019794
  22 C :   -0.015256
  23 H :    0.029766
  24 H :    0.017615
  25 C :   -0.046727
  26 H :    0.030258
  27 H :    0.019807
  28 C :   -0.076103
  29 H :    0.032626
  30 H :    0.016557
  31 H :    0.035045
  32 H :    0.041199
  33 H :    0.029717

  Mayer bond orders larger than 0.100000
B(  0-S ,  1-C ) :   1.1374 B(  0-S ,  4-C ) :   1.1387 B(  1-C ,  2-C ) :   1.5940
B(  1-C ,  4-C ) :   0.1059 B(  1-C , 32-H ) :   0.9581 B(  2-C ,  3-C ) :   1.2555
B(  2-C ,  6-C ) :   1.0195 B(  3-C ,  4-C ) :   1.5606 B(  3-C ,  5-H ) :   0.9906
B(  4-C , 20-C ) :   1.0482 B(  6-C ,  7-H ) :   0.9380 B(  6-C ,  8-H ) :   0.9487
B(  6-C ,  9-C ) :   1.0660 B(  9-C , 10-H ) :   0.9588 B(  9-C , 11-H ) :   0.9563
B(  9-C , 12-C ) :   1.0716 B( 12-C , 13-H ) :   0.9761 B( 12-C , 14-H ) :   0.9739
B( 12-C , 15-H ) :   0.9808 B( 16-S , 17-C ) :   1.1410 B( 16-S , 20-C ) :   1.1267
B( 17-C , 18-C ) :   1.6371 B( 17-C , 33-H ) :   0.9672 B( 18-C , 19-C ) :   1.2012
B( 18-C , 21-H ) :   1.0028 B( 19-C , 20-C ) :   1.6381 B( 19-C , 22-C ) :   1.0382
B( 22-C , 23-H ) :   0.9311 B( 22-C , 24-H ) :   0.9348 B( 22-C , 25-C ) :   1.0492
B( 25-C , 26-H ) :   0.9508 B( 25-C , 27-H ) :   0.9515 B( 25-C , 28-C ) :   1.0913
B( 28-C , 29-H ) :   0.9667 B( 28-C , 30-H ) :   0.9677 B( 28-C , 31-H ) :   0.9669

Dispersion correction           -0.015572795
FINAL SINGLE POINT ENERGY     -1339.863637859477

DIPOLE MOMENT
-------------
                                X             Y             Z
Electronic contribution:     20.21189      20.00271     -14.40606
Nuclear contribution   :    -20.79692     -20.38421      14.46213
                        -----------------------------------------
Total Dipole Moment    :     -0.58503      -0.38149       0.05608
                        -----------------------------------------
Magnitude (a.u.)       :      0.70067
Magnitude (Debye)      :      1.78097

Rotational constants in cm-1:     0.019448     0.009779     0.007113
Rotational constants in MHz :   583.027412   293.169721   213.249763

                             ****ORCA TERMINATED NORMALLY****
TOTAL RUN TIME: 0 days 0 hours 0 minutes 21 seconds 443 msec
