                         Program Version 4.2.1 -  RELEASE  -
|  1> ! wB97X-D3 SP def2-SVP
|  2> %pal
|  3> nprocs 24
|  4> end
|  5>
|  6> * xyz 0 1
|  7> S 	 -51.5832 	 24.4416 	 28.9815
|  8> C 	 -53.1061 	 25.1213 	 28.8853
|  9> C 	 -53.2764 	 25.8844 	 27.7463
| 10> C 	 -52.0635 	 25.9747 	 26.9763
| 11> C 	 -50.9992 	 25.2586 	 27.5236
| 12> H 	 -51.9305 	 26.5057 	 26.0624
| 13> C 	 -54.3931 	 26.9228 	 27.4662
| 14> H 	 -55.131 	 26.7021 	 28.2902
| 15> H 	 -54.8409 	 26.7931 	 26.4711
| 16> C 	 -53.9682 	 28.4581 	 27.5712
| 17> H 	 -53.4587 	 28.5714 	 28.4575
| 18> H 	 -53.1782 	 28.6825 	 26.8137
| 19> C 	 -55.1779 	 29.4388 	 27.4408
| 20> H 	 -55.6557 	 29.2645 	 26.4331
| 21> H 	 -56.0518 	 29.3506 	 28.1493
| 22> H 	 -54.8598 	 30.4811 	 27.5368
| 23> S 	 -49.4087 	 25.2718 	 25.2788
| 24> C 	 -47.6681 	 25.2982 	 25.4886
| 25> C 	 -47.264 	 25.4737 	 26.7757
| 26> C 	 -48.3575 	 25.4252 	 27.6616
| 27> C 	 -49.6409 	 25.2309 	 27.0446
| 28> H 	 -46.2814 	 25.5433 	 27.168
| 29> C 	 -48.1907 	 25.6843 	 29.1856
| 30> H 	 -49.2162 	 25.4236 	 29.6272
| 31> H 	 -48.238 	 26.7619 	 29.3244
| 32> C 	 -46.9834 	 25.1166 	 29.8815
| 33> H 	 -46.1829 	 25.4759 	 29.3324
| 34> H 	 -46.9739 	 24.0389 	 29.8504
| 35> C 	 -47.09 	 25.6131 	 31.2836
| 36> H 	 -46.1985 	 26.2226 	 31.5516
| 37> H 	 -47.173 	 24.7577 	 31.9917
| 38> H 	 -47.9768 	 26.2536 	 31.5474
| 39> H 	 -53.8812 	 25.0619 	 29.7112
| 40> H 	 -47.0719 	 25.263 	 24.6965
| 41> *
| 42>
| 43>                          ****END OF INPUT****

CARTESIAN COORDINATES (ANGSTROEM)
---------------------------------
  S    -51.583200   24.441600   28.981500
  C    -53.106100   25.121300   28.885300
  C    -53.276400   25.884400   27.746300
  C    -52.063500   25.974700   26.976300
  C    -50.999200   25.258600   27.523600
  H    -51.930500   26.505700   26.062400
  C    -54.393100   26.922800   27.466200
  H    -55.131000   26.702100   28.290200
  H    -54.840900   26.793100   26.471100
  C    -53.968200   28.458100   27.571200
  H    -53.458700   28.571400   28.457500
  H    -53.178200   28.682500   26.813700
  C    -55.177900   29.438800   27.440800
  H    -55.655700   29.264500   26.433100
  H    -56.051800   29.350600   28.149300
  H    -54.859800   30.481100   27.536800
  S    -49.408700   25.271800   25.278800
  C    -47.668100   25.298200   25.488600
  C    -47.264000   25.473700   26.775700
  C    -48.357500   25.425200   27.661600
  C    -49.640900   25.230900   27.044600
  H    -46.281400   25.543300   27.168000
  C    -48.190700   25.684300   29.185600
  H    -49.216200   25.423600   29.627200
  H    -48.238000   26.761900   29.324400
  C    -46.983400   25.116600   29.881500
  H    -46.182900   25.475900   29.332400
  H    -46.973900   24.038900   29.850400
  C    -47.090000   25.613100   31.283600
  H    -46.198500   26.222600   31.551600
  H    -47.173000   24.757700   31.991700
  H    -47.976800   26.253600   31.547400
  H    -53.881200   25.061900   29.711200
  H    -47.071900   25.263000   24.696500

 Total Charge           Charge          ....    0
 Multiplicity           Mult            ....    1
 Number of Electrons    NEL             ....  134
 Basis Dimension        Dim             ....  322

ORBITAL ENERGIES
----------------

  NO   OCC          E(Eh)            E(eV)
   0   2.0000     -88.967567     -2420.9306
   1   2.0000     -88.967007     -2420.9153
   2   2.0000     -10.331046      -281.1220
   3   2.0000     -10.330474      -281.1065
   4   2.0000     -10.315231      -280.6917
   5   2.0000     -10.311415      -280.5879
   6   2.0000     -10.305283      -280.4210
   7   2.0000     -10.301193      -280.3097
   8   2.0000     -10.300979      -280.3039
   9   2.0000     -10.291988      -280.0592
  10   2.0000     -10.291027      -280.0331
  11   2.0000     -10.290904      -280.0297
  12   2.0000     -10.289699      -279.9969
  13   2.0000     -10.289680      -279.9964
  14   2.0000     -10.281696      -279.7792
  15   2.0000     -10.278512      -279.6925
  16   2.0000      -8.082942      -219.9480
  17   2.0000      -8.081156      -219.8994
  18   2.0000      -6.041431      -164.3957
  19   2.0000      -6.039624      -164.3465
  20   2.0000      -6.037213      -164.2809
  21   2.0000      -6.035823      -164.2431
  22   2.0000      -6.033807      -164.1882
  23   2.0000      -6.031943      -164.1375
  24   2.0000      -1.007027       -27.4026
  25   2.0000      -0.985883       -26.8272
  26   2.0000      -0.917973       -24.9793
  27   2.0000      -0.898273       -24.4432
  28   2.0000      -0.876072       -23.8391
  29   2.0000      -0.851666       -23.1750
  30   2.0000      -0.844507       -22.9802
  31   2.0000      -0.812406       -22.1067
  32   2.0000      -0.773975       -21.0609
  33   2.0000      -0.763616       -20.7790
  34   2.0000      -0.710667       -19.3382
  35   2.0000      -0.710025       -19.3208
  36   2.0000      -0.695454       -18.9243
  37   2.0000      -0.664786       -18.0898
  38   2.0000      -0.642213       -17.4755
  39   2.0000      -0.611480       -16.6392
  40   2.0000      -0.606291       -16.4980
  41   2.0000      -0.574226       -15.6255
  42   2.0000      -0.569892       -15.5075
  43   2.0000      -0.551136       -14.9972
  44   2.0000      -0.527472       -14.3532
  45   2.0000      -0.516859       -14.0645
  46   2.0000      -0.513478       -13.9724
  47   2.0000      -0.511057       -13.9066
  48   2.0000      -0.505279       -13.7493
  49   2.0000      -0.496365       -13.5068
  50   2.0000      -0.491492       -13.3742
  51   2.0000      -0.480399       -13.0723
  52   2.0000      -0.473053       -12.8724
  53   2.0000      -0.466850       -12.7036
  54   2.0000      -0.462013       -12.5720
  55   2.0000      -0.455829       -12.4037
  56   2.0000      -0.441829       -12.0228
  57   2.0000      -0.438424       -11.9301
  58   2.0000      -0.430831       -11.7235
  59   2.0000      -0.423727       -11.5302
  60   2.0000      -0.420515       -11.4428
  61   2.0000      -0.413342       -11.2476
  62   2.0000      -0.404424       -11.0049
  63   2.0000      -0.357228        -9.7207
  64   2.0000      -0.333808        -9.0834
  65   2.0000      -0.327706        -8.9173
  66   2.0000      -0.281824        -7.6688
  67   0.0000       0.021893         0.5957
  68   0.0000       0.078164         2.1269
  69   0.0000       0.103782         2.8241
  70   0.0000       0.121071         3.2945
  71   0.0000       0.135670         3.6918

MULLIKEN ATOMIC CHARGES
-----------------------
   0 S :    0.126901
   1 C :   -0.148991
   2 C :   -0.060902
   3 C :    0.006707
   4 C :   -0.150962
   5 H :    0.007767
   6 C :    0.016524
   7 H :    0.027058
   8 H :    0.038775
   9 C :   -0.047895
  10 H :    0.013462
  11 H :    0.036211
  12 C :   -0.084621
  13 H :    0.036798
  14 H :    0.040277
  15 H :    0.043060
  16 S :    0.088908
  17 C :   -0.018775
  18 C :   -0.000483
  19 C :   -0.057762
  20 C :   -0.138487
  21 H :    0.006677
  22 C :   -0.011517
  23 H :    0.021947
  24 H :    0.038728
  25 C :    0.000428
  26 H :    0.013623
  27 H :    0.035330
  28 C :   -0.075683
  29 H :    0.037623
  30 H :    0.038469
  31 H :    0.044139
  32 H :    0.075127
  33 H :    0.001539
Sum of atomic charges:    0.0000000

LOEWDIN ATOMIC CHARGES
----------------------
   0 S :    0.441994
   1 C :   -0.233481
   2 C :   -0.074106
   3 C :   -0.061536
   4 C :   -0.191710
   5 H :    0.021749
   6 C :   -0.031158
   7 H :    0.031317
   8 H :    0.029107
   9 C :   -0.035447
  10 H :    0.011262
  11 H :    0.029622
  12 C :   -0.076524
  13 H :    0.030174
  14 H :    0.029958
  15 H :    0.028165
  16 S :    0.399638
  17 C :   -0.147192
  18 C :   -0.067978
  19 C :   -0.048760
  20 C :   -0.196792
  21 H :    0.028513
  22 C :   -0.042026
  23 H :    0.021302
  24 H :    0.032720
  25 C :   -0.038876
  26 H :    0.013752
  27 H :    0.028824
  28 C :   -0.068904
  29 H :    0.030230
  30 H :    0.031720
  31 H :    0.032008
  32 H :    0.044287
  33 H :   -0.001854

  Mayer bond orders larger than 0.100000
B(  0-S ,  1-C ) :   1.1663 B(  0-S ,  4-C ) :   1.1424 B(  1-C ,  2-C ) :   1.5969
B(  1-C , 32-H ) :   0.9520 B(  2-C ,  3-C ) :   1.2487 B(  2-C ,  6-C ) :   1.0351
B(  3-C ,  4-C ) :   1.5604 B(  3-C ,  5-H ) :   0.9912 B(  4-C , 20-C ) :   1.0783
B(  6-C ,  7-H ) :   0.9510 B(  6-C ,  8-H ) :   0.9403 B(  6-C ,  9-C ) :   1.0508
B(  9-C , 10-H ) :   0.9592 B(  9-C , 11-H ) :   0.9523 B(  9-C , 12-C ) :   1.0697
B( 12-C , 13-H ) :   0.9758 B( 12-C , 14-H ) :   0.9778 B( 12-C , 15-H ) :   0.9757
B( 16-S , 17-C ) :   1.1711 B( 16-S , 20-C ) :   1.1313 B( 17-C , 18-C ) :   1.5629
B( 17-C , 20-C ) :   0.1008 B( 17-C , 33-H ) :   0.9834 B( 18-C , 19-C ) :   1.2860
B( 18-C , 21-H ) :   0.9947 B( 19-C , 20-C ) :   1.5437 B( 19-C , 22-C ) :   1.0201
B( 22-C , 23-H ) :   0.9301 B( 22-C , 24-H ) :   0.9341 B( 22-C , 25-C ) :   1.0554
B( 25-C , 26-H ) :   0.9523 B( 25-C , 27-H ) :   0.9608 B( 25-C , 28-C ) :   1.0689
B( 28-C , 29-H ) :   0.9739 B( 28-C , 30-H ) :   0.9762 B( 28-C , 31-H ) :   0.9755

Dispersion correction           -0.013500036
FINAL SINGLE POINT ENERGY     -1339.856776330014

DIPOLE MOMENT
-------------
                                X             Y             Z
Electronic contribution:      3.87521     -15.22294     -12.24768
Nuclear contribution   :     -3.67965      15.71499      12.50854
                        -----------------------------------------
Total Dipole Moment    :      0.19556       0.49206       0.26086
                        -----------------------------------------
Magnitude (a.u.)       :      0.59027
Magnitude (Debye)      :      1.50034

Rotational constants in cm-1:     0.018488     0.007692     0.006517
Rotational constants in MHz :   554.250753   230.595468   195.375118

                             ****ORCA TERMINATED NORMALLY****
TOTAL RUN TIME: 0 days 0 hours 0 minutes 22 seconds 323 msec
