                         Program Version 4.2.1 -  RELEASE  -
|  1> ! wB97X-D3 SP def2-SVP
|  2> %pal
|  3> nprocs 24
|  4> end
|  5>
|  6> * xyz 0 1
|  7> S 	 2.47322 	 -21.8753 	 -114.198
|  8> C 	 2.57777 	 -20.1659 	 -114.421
|  9> C 	 1.3079 	 -19.6013 	 -114.313
| 10> C 	 0.302026 	 -20.519 	 -113.927
| 11> C 	 0.748781 	 -21.8007 	 -113.775
| 12> H 	 -0.661016 	 -20.1767 	 -113.748
| 13> C 	 1.14131 	 -18.0767 	 -114.343
| 14> H 	 2.06023 	 -17.6461 	 -114.661
| 15> H 	 1.06441 	 -17.679 	 -113.333
| 16> C 	 0.00911456 	 -17.5146 	 -115.223
| 17> H 	 -0.894147 	 -17.9431 	 -114.868
| 18> H 	 0.0419723 	 -16.4273 	 -115.3
| 19> C 	 0.0171383 	 -17.9626 	 -116.701
| 20> H 	 -0.118922 	 -19.0677 	 -116.699
| 21> H 	 -0.785831 	 -17.4844 	 -117.247
| 22> H 	 1.02604 	 -17.7607 	 -117.114
| 23> S 	 0.428907 	 -23.8822 	 -111.939
| 24> C 	 -0.991994 	 -24.904 	 -111.983
| 25> C 	 -1.85256 	 -24.4796 	 -112.965
| 26> C 	 -1.33695 	 -23.3308 	 -113.684
| 27> C 	 -0.0839887 	 -22.9464 	 -113.375
| 28> H 	 -2.89946 	 -24.8138 	 -113.091
| 29> C 	 -2.15945 	 -22.6747 	 -114.809
| 30> H 	 -1.44552 	 -22.0869 	 -115.343
| 31> H 	 -2.98713 	 -22.0156 	 -114.421
| 32> C 	 -2.76019 	 -23.6453 	 -115.878
| 33> H 	 -3.50637 	 -23.1392 	 -116.474
| 34> H 	 -3.2953 	 -24.4843 	 -115.421
| 35> C 	 -1.66132 	 -24.1594 	 -116.662
| 36> H 	 -0.825835 	 -24.6093 	 -116.041
| 37> H 	 -1.32546 	 -23.5091 	 -117.493
| 38> H 	 -2.15176 	 -24.9474 	 -117.272
| 39> H 	 3.4726 	 -19.6272 	 -114.651
| 40> H 	 -1.23561 	 -25.5893 	 -111.227
| 41> *
| 42>
| 43>                          ****END OF INPUT****

CARTESIAN COORDINATES (ANGSTROEM)
---------------------------------
  S      2.473220  -21.875300  -114.198000
  C      2.577770  -20.165900  -114.421000
  C      1.307900  -19.601300  -114.313000
  C      0.302026  -20.519000  -113.927000
  C      0.748781  -21.800700  -113.775000
  H     -0.661016  -20.176700  -113.748000
  C      1.141310  -18.076700  -114.343000
  H      2.060230  -17.646100  -114.661000
  H      1.064410  -17.679000  -113.333000
  C      0.009115  -17.514600  -115.223000
  H     -0.894147  -17.943100  -114.868000
  H      0.041972  -16.427300  -115.300000
  C      0.017138  -17.962600  -116.701000
  H     -0.118922  -19.067700  -116.699000
  H     -0.785831  -17.484400  -117.247000
  H      1.026040  -17.760700  -117.114000
  S      0.428907  -23.882200  -111.939000
  C     -0.991994  -24.904000  -111.983000
  C     -1.852560  -24.479600  -112.965000
  C     -1.336950  -23.330800  -113.684000
  C     -0.083989  -22.946400  -113.375000
  H     -2.899460  -24.813800  -113.091000
  C     -2.159450  -22.674700  -114.809000
  H     -1.445520  -22.086900  -115.343000
  H     -2.987130  -22.015600  -114.421000
  C     -2.760190  -23.645300  -115.878000
  H     -3.506370  -23.139200  -116.474000
  H     -3.295300  -24.484300  -115.421000
  C     -1.661320  -24.159400  -116.662000
  H     -0.825835  -24.609300  -116.041000
  H     -1.325460  -23.509100  -117.493000
  H     -2.151760  -24.947400  -117.272000
  H      3.472600  -19.627200  -114.651000
  H     -1.235610  -25.589300  -111.227000

 Total Charge           Charge          ....    0
 Multiplicity           Mult            ....    1
 Number of Electrons    NEL             ....  134
 Basis Dimension        Dim             ....  322

ORBITAL ENERGIES
----------------

  NO   OCC          E(Eh)            E(eV)
   0   2.0000     -88.969103     -2420.9724
   1   2.0000     -88.960982     -2420.7514
   2   2.0000     -10.335193      -281.2349
   3   2.0000     -10.328586      -281.0551
   4   2.0000     -10.319034      -280.7952
   5   2.0000     -10.315340      -280.6947
   6   2.0000     -10.303098      -280.3615
   7   2.0000     -10.301186      -280.3095
   8   2.0000     -10.298281      -280.2305
   9   2.0000     -10.291025      -280.0330
  10   2.0000     -10.290082      -280.0074
  11   2.0000     -10.289973      -280.0044
  12   2.0000     -10.283620      -279.8315
  13   2.0000     -10.279915      -279.7307
  14   2.0000     -10.277599      -279.6677
  15   2.0000     -10.272707      -279.5346
  16   2.0000      -8.083642      -219.9671
  17   2.0000      -8.075650      -219.7496
  18   2.0000      -6.042177      -164.4160
  19   2.0000      -6.038105      -164.3052
  20   2.0000      -6.034448      -164.2057
  21   2.0000      -6.034297      -164.2016
  22   2.0000      -6.030172      -164.0893
  23   2.0000      -6.026240      -163.9823
  24   2.0000      -1.007759       -27.4225
  25   2.0000      -0.986914       -26.8553
  26   2.0000      -0.914006       -24.8714
  27   2.0000      -0.909925       -24.7603
  28   2.0000      -0.874508       -23.7966
  29   2.0000      -0.850640       -23.1471
  30   2.0000      -0.844701       -22.9855
  31   2.0000      -0.820247       -22.3200
  32   2.0000      -0.779613       -21.2143
  33   2.0000      -0.769768       -20.9465
  34   2.0000      -0.708802       -19.2875
  35   2.0000      -0.695908       -18.9366
  36   2.0000      -0.687773       -18.7152
  37   2.0000      -0.658953       -17.9310
  38   2.0000      -0.645269       -17.5587
  39   2.0000      -0.630193       -17.1484
  40   2.0000      -0.600051       -16.3282
  41   2.0000      -0.570914       -15.5354
  42   2.0000      -0.561629       -15.2827
  43   2.0000      -0.552899       -15.0451
  44   2.0000      -0.549313       -14.9476
  45   2.0000      -0.537638       -14.6299
  46   2.0000      -0.522564       -14.2197
  47   2.0000      -0.510964       -13.9041
  48   2.0000      -0.508357       -13.8331
  49   2.0000      -0.498533       -13.5658
  50   2.0000      -0.490639       -13.3510
  51   2.0000      -0.479363       -13.0441
  52   2.0000      -0.472848       -12.8668
  53   2.0000      -0.461329       -12.5534
  54   2.0000      -0.456683       -12.4270
  55   2.0000      -0.447640       -12.1809
  56   2.0000      -0.444674       -12.1002
  57   2.0000      -0.436390       -11.8748
  58   2.0000      -0.435106       -11.8398
  59   2.0000      -0.423513       -11.5244
  60   2.0000      -0.411127       -11.1873
  61   2.0000      -0.407186       -11.0801
  62   2.0000      -0.402349       -10.9485
  63   2.0000      -0.352986        -9.6052
  64   2.0000      -0.333749        -9.0818
  65   2.0000      -0.327371        -8.9082
  66   2.0000      -0.299473        -8.1491
  67   0.0000       0.029509         0.8030
  68   0.0000       0.068965         1.8766
  69   0.0000       0.113714         3.0943
  70   0.0000       0.120900         3.2898
  71   0.0000       0.130349         3.5470

MULLIKEN ATOMIC CHARGES
-----------------------
   0 S :    0.120929
   1 C :   -0.114899
   2 C :   -0.111353
   3 C :    0.063661
   4 C :   -0.141073
   5 H :   -0.013032
   6 C :    0.094618
   7 H :   -0.007572
   8 H :    0.042599
   9 C :   -0.079454
  10 H :    0.018872
  11 H :    0.037961
  12 C :   -0.077828
  13 H :    0.040194
  14 H :    0.042005
  15 H :    0.029998
  16 S :    0.080831
  17 C :   -0.061287
  18 C :   -0.027319
  19 C :   -0.085125
  20 C :   -0.128431
  21 H :    0.036585
  22 C :    0.042726
  23 H :    0.020551
  24 H :    0.043982
  25 C :   -0.050897
  26 H :    0.021534
  27 H :    0.022724
  28 C :   -0.079603
  29 H :    0.067180
  30 H :    0.036030
  31 H :    0.019482
  32 H :    0.047502
  33 H :    0.047908
Sum of atomic charges:   -0.0000000

LOEWDIN ATOMIC CHARGES
----------------------
   0 S :    0.410883
   1 C :   -0.196127
   2 C :   -0.064355
   3 C :   -0.050630
   4 C :   -0.185156
   5 H :    0.021952
   6 C :   -0.028871
   7 H :    0.020655
   8 H :    0.035283
   9 C :   -0.040816
  10 H :    0.015492
  11 H :    0.027158
  12 C :   -0.065998
  13 H :    0.026408
  14 H :    0.024866
  15 H :    0.023520
  16 S :    0.382085
  17 C :   -0.165048
  18 C :   -0.076607
  19 C :   -0.058833
  20 C :   -0.185870
  21 H :    0.037564
  22 C :   -0.032243
  23 H :    0.023894
  24 H :    0.033104
  25 C :   -0.045768
  26 H :    0.024634
  27 H :    0.020280
  28 C :   -0.077439
  29 H :    0.039207
  30 H :    0.028776
  31 H :    0.028145
  32 H :    0.027388
  33 H :    0.022467

  Mayer bond orders larger than 0.100000
B(  0-S ,  1-C ) :   1.1492 B(  0-S ,  4-C ) :   1.1548 B(  1-C ,  2-C ) :   1.5852
B(  1-C , 32-H ) :   0.9712 B(  2-C ,  3-C ) :   1.2590 B(  2-C ,  6-C ) :   1.0243
B(  3-C ,  4-C ) :   1.5460 B(  3-C ,  5-H ) :   1.0118 B(  4-C , 20-C ) :   1.0241
B(  6-C ,  7-H ) :   0.9349 B(  6-C ,  8-H ) :   0.9439 B(  6-C ,  9-C ) :   1.0673
B(  9-C , 10-H ) :   0.9592 B(  9-C , 11-H ) :   0.9595 B(  9-C , 12-C ) :   1.0757
B( 12-C , 13-H ) :   0.9731 B( 12-C , 14-H ) :   0.9756 B( 12-C , 15-H ) :   0.9774
B( 16-S , 17-C ) :   1.1567 B( 16-S , 20-C ) :   1.1098 B( 17-C , 18-C ) :   1.6105
B( 17-C , 33-H ) :   0.9730 B( 18-C , 19-C ) :   1.2206 B( 18-C , 21-H ) :   0.9829
B( 19-C , 20-C ) :   1.6519 B( 19-C , 22-C ) :   1.0344 B( 22-C , 23-H ) :   0.9395
B( 22-C , 24-H ) :   0.9340 B( 22-C , 25-C ) :   1.0665 B( 25-C , 26-H ) :   0.9470
B( 25-C , 27-H ) :   0.9564 B( 25-C , 28-C ) :   1.0954 B( 28-C , 29-H ) :   0.9703
B( 28-C , 30-H ) :   0.9673 B( 28-C , 31-H ) :   0.9673

Dispersion correction           -0.014799239
FINAL SINGLE POINT ENERGY     -1339.876683204853

DIPOLE MOMENT
-------------
                                X             Y             Z
Electronic contribution:     14.54329     -13.16589      18.51163
Nuclear contribution   :    -15.10150      13.60881     -18.67833
                        -----------------------------------------
Total Dipole Moment    :     -0.55820       0.44292      -0.16670
                        -----------------------------------------
Magnitude (a.u.)       :      0.73182
Magnitude (Debye)      :      1.86013

Rotational constants in cm-1:     0.018885     0.009143     0.007238
Rotational constants in MHz :   566.165411   274.106778   216.975487

                             ****ORCA TERMINATED NORMALLY****
TOTAL RUN TIME: 0 days 0 hours 0 minutes 22 seconds 243 msec
