                         Program Version 4.2.1 -  RELEASE  -
|  1> ! wB97X-D3 SP def2-SVP
|  2> %pal
|  3> nprocs 24
|  4> end
|  5>
|  6> * xyz 0 1
|  7> S 	 -102.146 	 58.1751 	 -103.011
|  8> C 	 -101.787 	 56.8079 	 -102.104
|  9> C 	 -102.79 	 56.5531 	 -101.199
| 10> C 	 -103.98 	 57.1638 	 -101.609
| 11> C 	 -103.805 	 58.2105 	 -102.458
| 12> H 	 -104.975 	 56.9683 	 -101.24
| 13> C 	 -102.742 	 55.5226 	 -100.072
| 14> H 	 -103.387 	 55.837 	 -99.2535
| 15> H 	 -101.719 	 55.6143 	 -99.7072
| 16> C 	 -103.132 	 54.0409 	 -100.396
| 17> H 	 -102.477 	 53.5958 	 -101.168
| 18> H 	 -102.879 	 53.3906 	 -99.5046
| 19> C 	 -104.618 	 53.9876 	 -100.76
| 20> H 	 -104.833 	 54.4001 	 -101.802
| 21> H 	 -104.898 	 52.934 	 -100.731
| 22> H 	 -105.233 	 54.5549 	 -100.052
| 23> S 	 -104.19 	 60.5735 	 -103.969
| 24> C 	 -105.842 	 61.0378 	 -104.253
| 25> C 	 -106.773 	 60.1844 	 -103.696
| 26> C 	 -106.218 	 59.1198 	 -102.974
| 27> C 	 -104.764 	 59.1535 	 -103.074
| 28> H 	 -107.837 	 60.4515 	 -103.796
| 29> C 	 -107.143 	 58.0836 	 -102.29
| 30> H 	 -108.161 	 58.5146 	 -102.094
| 31> H 	 -106.721 	 57.9535 	 -101.251
| 32> C 	 -107.327 	 56.7264 	 -102.907
| 33> H 	 -106.316 	 56.2756 	 -102.818
| 34> H 	 -107.666 	 56.6715 	 -103.992
| 35> C 	 -108.288 	 55.8265 	 -102.152
| 36> H 	 -109.255 	 56.2726 	 -102.03
| 37> H 	 -107.803 	 55.582 	 -101.173
| 38> H 	 -108.38 	 54.8848 	 -102.795
| 39> H 	 -100.762 	 56.3731 	 -102.001
| 40> H 	 -106.085 	 61.9103 	 -104.933
| 41> *
| 42>
| 43>                          ****END OF INPUT****

CARTESIAN COORDINATES (ANGSTROEM)
---------------------------------
  S    -102.146000   58.175100  -103.011000
  C    -101.787000   56.807900  -102.104000
  C    -102.790000   56.553100  -101.199000
  C    -103.980000   57.163800  -101.609000
  C    -103.805000   58.210500  -102.458000
  H    -104.975000   56.968300  -101.240000
  C    -102.742000   55.522600  -100.072000
  H    -103.387000   55.837000  -99.253500
  H    -101.719000   55.614300  -99.707200
  C    -103.132000   54.040900  -100.396000
  H    -102.477000   53.595800  -101.168000
  H    -102.879000   53.390600  -99.504600
  C    -104.618000   53.987600  -100.760000
  H    -104.833000   54.400100  -101.802000
  H    -104.898000   52.934000  -100.731000
  H    -105.233000   54.554900  -100.052000
  S    -104.190000   60.573500  -103.969000
  C    -105.842000   61.037800  -104.253000
  C    -106.773000   60.184400  -103.696000
  C    -106.218000   59.119800  -102.974000
  C    -104.764000   59.153500  -103.074000
  H    -107.837000   60.451500  -103.796000
  C    -107.143000   58.083600  -102.290000
  H    -108.161000   58.514600  -102.094000
  H    -106.721000   57.953500  -101.251000
  C    -107.327000   56.726400  -102.907000
  H    -106.316000   56.275600  -102.818000
  H    -107.666000   56.671500  -103.992000
  C    -108.288000   55.826500  -102.152000
  H    -109.255000   56.272600  -102.030000
  H    -107.803000   55.582000  -101.173000
  H    -108.380000   54.884800  -102.795000
  H    -100.762000   56.373100  -102.001000
  H    -106.085000   61.910300  -104.933000

 Total Charge           Charge          ....    0
 Multiplicity           Mult            ....    1
 Number of Electrons    NEL             ....  134
 Basis Dimension        Dim             ....  322

ORBITAL ENERGIES
----------------

  NO   OCC          E(Eh)            E(eV)
   0   2.0000     -88.973711     -2421.0978
   1   2.0000     -88.962361     -2420.7889
   2   2.0000     -10.339004      -281.3386
   3   2.0000     -10.326854      -281.0080
   4   2.0000     -10.319844      -280.8172
   5   2.0000     -10.311756      -280.5972
   6   2.0000     -10.310396      -280.5601
   7   2.0000     -10.304077      -280.3882
   8   2.0000     -10.296585      -280.1843
   9   2.0000     -10.296033      -280.1693
  10   2.0000     -10.294072      -280.1159
  11   2.0000     -10.292658      -280.0775
  12   2.0000     -10.289719      -279.9975
  13   2.0000     -10.286817      -279.9185
  14   2.0000     -10.285636      -279.8864
  15   2.0000     -10.285565      -279.8845
  16   2.0000      -8.087818      -220.0807
  17   2.0000      -8.078686      -219.8322
  18   2.0000      -6.046229      -164.5263
  19   2.0000      -6.042460      -164.4237
  20   2.0000      -6.038698      -164.3213
  21   2.0000      -6.037102      -164.2779
  22   2.0000      -6.033033      -164.1672
  23   2.0000      -6.029392      -164.0681
  24   2.0000      -1.014303       -27.6006
  25   2.0000      -0.986881       -26.8544
  26   2.0000      -0.913581       -24.8598
  27   2.0000      -0.907379       -24.6910
  28   2.0000      -0.867358       -23.6020
  29   2.0000      -0.857828       -23.3427
  30   2.0000      -0.847433       -23.0598
  31   2.0000      -0.813085       -22.1252
  32   2.0000      -0.783897       -21.3309
  33   2.0000      -0.767260       -20.8782
  34   2.0000      -0.700680       -19.0665
  35   2.0000      -0.699279       -19.0283
  36   2.0000      -0.682044       -18.5594
  37   2.0000      -0.662484       -18.0271
  38   2.0000      -0.635428       -17.2909
  39   2.0000      -0.621472       -16.9111
  40   2.0000      -0.595389       -16.2013
  41   2.0000      -0.573101       -15.5949
  42   2.0000      -0.568472       -15.4689
  43   2.0000      -0.548262       -14.9190
  44   2.0000      -0.534192       -14.5361
  45   2.0000      -0.526081       -14.3154
  46   2.0000      -0.515777       -14.0350
  47   2.0000      -0.508391       -13.8340
  48   2.0000      -0.503348       -13.6968
  49   2.0000      -0.496233       -13.5032
  50   2.0000      -0.491068       -13.3626
  51   2.0000      -0.479693       -13.0531
  52   2.0000      -0.477339       -12.9891
  53   2.0000      -0.466514       -12.6945
  54   2.0000      -0.454678       -12.3724
  55   2.0000      -0.453709       -12.3461
  56   2.0000      -0.440784       -11.9944
  57   2.0000      -0.439162       -11.9502
  58   2.0000      -0.430944       -11.7266
  59   2.0000      -0.428606       -11.6630
  60   2.0000      -0.420482       -11.4419
  61   2.0000      -0.413915       -11.2632
  62   2.0000      -0.409597       -11.1457
  63   2.0000      -0.361798        -9.8450
  64   2.0000      -0.340849        -9.2750
  65   2.0000      -0.328320        -8.9340
  66   2.0000      -0.275001        -7.4831
  67   0.0000       0.018402         0.5007
  68   0.0000       0.080760         2.1976
  69   0.0000       0.101530         2.7628
  70   0.0000       0.115412         3.1405
  71   0.0000       0.121187         3.2977

MULLIKEN ATOMIC CHARGES
-----------------------
   0 S :    0.099662
   1 C :   -0.122690
   2 C :   -0.100382
   3 C :   -0.017381
   4 C :   -0.092657
   5 H :   -0.025080
   6 C :    0.056561
   7 H :    0.026746
   8 H :    0.019896
   9 C :   -0.071513
  10 H :    0.032195
  11 H :    0.038398
  12 C :   -0.079767
  13 H :    0.063138
  14 H :    0.038087
  15 H :    0.032019
  16 S :    0.120090
  17 C :   -0.122171
  18 C :   -0.034105
  19 C :   -0.024740
  20 C :   -0.124397
  21 H :    0.027177
  22 C :    0.008795
  23 H :    0.021068
  24 H :    0.041686
  25 C :   -0.087185
  26 H :    0.027571
  27 H :    0.044450
  28 C :   -0.051755
  29 H :    0.032973
  30 H :    0.031461
  31 H :    0.048772
  32 H :    0.065186
  33 H :    0.077890
Sum of atomic charges:   -0.0000000

LOEWDIN ATOMIC CHARGES
----------------------
   0 S :    0.424685
   1 C :   -0.220554
   2 C :   -0.068451
   3 C :   -0.072959
   4 C :   -0.185816
   5 H :    0.023193
   6 C :   -0.033467
   7 H :    0.029169
   8 H :    0.028517
   9 C :   -0.043050
  10 H :    0.025403
  11 H :    0.029617
  12 C :   -0.072191
  13 H :    0.036175
  14 H :    0.027779
  15 H :    0.021027
  16 S :    0.409036
  17 C :   -0.202104
  18 C :   -0.075761
  19 C :   -0.053141
  20 C :   -0.190222
  21 H :    0.038756
  22 C :   -0.041142
  23 H :    0.031324
  24 H :    0.034663
  25 C :   -0.055508
  26 H :    0.025274
  27 H :    0.032778
  28 C :   -0.064814
  29 H :    0.018446
  30 H :    0.026177
  31 H :    0.038473
  32 H :    0.038201
  33 H :    0.040487

  Mayer bond orders larger than 0.100000
B(  0-S ,  1-C ) :   1.1695 B(  0-S ,  4-C ) :   1.1415 B(  1-C ,  2-C ) :   1.5842
B(  1-C , 32-H ) :   0.9584 B(  2-C ,  3-C ) :   1.2512 B(  2-C ,  6-C ) :   1.0305
B(  3-C ,  4-C ) :   1.5806 B(  3-C ,  5-H ) :   0.9771 B(  4-C , 20-C ) :   1.0774
B(  6-C ,  7-H ) :   0.9451 B(  6-C ,  8-H ) :   0.9349 B(  6-C ,  9-C ) :   1.0681
B(  9-C , 10-H ) :   0.9547 B(  9-C , 11-H ) :   0.9554 B(  9-C , 12-C ) :   1.0745
B( 12-C , 13-H ) :   0.9677 B( 12-C , 14-H ) :   0.9704 B( 12-C , 15-H ) :   0.9723
B( 16-S , 17-C ) :   1.1570 B( 16-S , 20-C ) :   1.1606 B( 17-C , 18-C ) :   1.5873
B( 17-C , 20-C ) :   0.1097 B( 17-C , 33-H ) :   0.9571 B( 18-C , 19-C ) :   1.2938
B( 18-C , 21-H ) :   0.9864 B( 19-C , 20-C ) :   1.5238 B( 19-C , 22-C ) :   1.0273
B( 22-C , 23-H ) :   0.9351 B( 22-C , 24-H ) :   0.9241 B( 22-C , 25-C ) :   1.0706
B( 25-C , 26-H ) :   0.9455 B( 25-C , 27-H ) :   0.9529 B( 25-C , 28-C ) :   1.0835
B( 28-C , 29-H ) :   0.9742 B( 28-C , 30-H ) :   0.9713 B( 28-C , 31-H ) :   0.9739

Dispersion correction           -0.015394507
FINAL SINGLE POINT ENERGY     -1339.876120864978

DIPOLE MOMENT
-------------
                                X             Y             Z
Electronic contribution:     16.39284      25.54569     -12.72818
Nuclear contribution   :    -16.80972     -25.96072      13.00164
                        -----------------------------------------
Total Dipole Moment    :     -0.41688      -0.41504       0.27346
                        -----------------------------------------
Magnitude (a.u.)       :      0.64871
Magnitude (Debye)      :      1.64889

Rotational constants in cm-1:     0.017704     0.010587     0.006911
Rotational constants in MHz :   530.762864   317.389101   207.200977

                             ****ORCA TERMINATED NORMALLY****
TOTAL RUN TIME: 0 days 0 hours 0 minutes 22 seconds 952 msec
