                         Program Version 4.2.1 -  RELEASE  -
|  1> ! wB97X-D3 SP def2-SVP
|  2> %pal
|  3> nprocs 24
|  4> end
|  5>
|  6> * xyz 0 1
|  7> S 	 -121.928 	 59.5873 	 -31.4443
|  8> C 	 -120.511 	 58.6014 	 -31.7124
|  9> C 	 -120.535 	 58.0872 	 -32.9989
| 10> C 	 -121.599 	 58.5842 	 -33.7705
| 11> C 	 -122.455 	 59.4166 	 -33.0871
| 12> H 	 -121.845 	 58.3058 	 -34.8233
| 13> C 	 -119.509 	 57.0808 	 -33.5034
| 14> H 	 -118.823 	 57.0644 	 -32.5647
| 15> H 	 -118.877 	 57.4758 	 -34.3225
| 16> C 	 -120.122 	 55.6878 	 -33.7083
| 17> H 	 -120.973 	 55.7478 	 -34.3225
| 18> H 	 -119.33 	 55.1057 	 -34.2037
| 19> C 	 -120.43 	 54.9664 	 -32.4482
| 20> H 	 -121.101 	 54.0666 	 -32.59
| 21> H 	 -119.68 	 54.5383 	 -31.7297
| 22> H 	 -121.038 	 55.6048 	 -31.8286
| 23> S 	 -125.16 	 59.5733 	 -32.7085
| 24> C 	 -126.191 	 60.2004 	 -33.9969
| 25> C 	 -125.456 	 60.8977 	 -34.9323
| 26> C 	 -123.964 	 60.8243 	 -34.729
| 27> C 	 -123.675 	 60.0515 	 -33.5451
| 28> H 	 -125.899 	 61.4178 	 -35.7526
| 29> C 	 -122.916 	 61.4835 	 -35.5293
| 30> H 	 -121.988 	 61.5872 	 -34.991
| 31> H 	 -123.331 	 62.4847 	 -35.542
| 32> C 	 -122.651 	 60.9046 	 -36.9618
| 33> H 	 -123.488 	 60.5123 	 -37.6046
| 34> H 	 -122.006 	 60.0315 	 -36.8723
| 35> C 	 -121.803 	 61.8742 	 -37.8269
| 36> H 	 -121.492 	 61.6116 	 -38.8782
| 37> H 	 -120.825 	 61.9678 	 -37.323
| 38> H 	 -122.228 	 62.8622 	 -37.8404
| 39> H 	 -119.831 	 58.3765 	 -30.9431
| 40> H 	 -127.271 	 60.1112 	 -34.0461
| 41> *
| 42>
| 43>                          ****END OF INPUT****

CARTESIAN COORDINATES (ANGSTROEM)
---------------------------------
  S    -121.928000   59.587300  -31.444300
  C    -120.511000   58.601400  -31.712400
  C    -120.535000   58.087200  -32.998900
  C    -121.599000   58.584200  -33.770500
  C    -122.455000   59.416600  -33.087100
  H    -121.845000   58.305800  -34.823300
  C    -119.509000   57.080800  -33.503400
  H    -118.823000   57.064400  -32.564700
  H    -118.877000   57.475800  -34.322500
  C    -120.122000   55.687800  -33.708300
  H    -120.973000   55.747800  -34.322500
  H    -119.330000   55.105700  -34.203700
  C    -120.430000   54.966400  -32.448200
  H    -121.101000   54.066600  -32.590000
  H    -119.680000   54.538300  -31.729700
  H    -121.038000   55.604800  -31.828600
  S    -125.160000   59.573300  -32.708500
  C    -126.191000   60.200400  -33.996900
  C    -125.456000   60.897700  -34.932300
  C    -123.964000   60.824300  -34.729000
  C    -123.675000   60.051500  -33.545100
  H    -125.899000   61.417800  -35.752600
  C    -122.916000   61.483500  -35.529300
  H    -121.988000   61.587200  -34.991000
  H    -123.331000   62.484700  -35.542000
  C    -122.651000   60.904600  -36.961800
  H    -123.488000   60.512300  -37.604600
  H    -122.006000   60.031500  -36.872300
  C    -121.803000   61.874200  -37.826900
  H    -121.492000   61.611600  -38.878200
  H    -120.825000   61.967800  -37.323000
  H    -122.228000   62.862200  -37.840400
  H    -119.831000   58.376500  -30.943100
  H    -127.271000   60.111200  -34.046100

 Total Charge           Charge          ....    0
 Multiplicity           Mult            ....    1
 Number of Electrons    NEL             ....  134
 Basis Dimension        Dim             ....  322

ORBITAL ENERGIES
----------------

  NO   OCC          E(Eh)            E(eV)
   0   2.0000     -88.964277     -2420.8411
   1   2.0000     -88.963929     -2420.8316
   2   2.0000     -10.330532      -281.1081
   3   2.0000     -10.327807      -281.0339
   4   2.0000     -10.322704      -280.8950
   5   2.0000     -10.316465      -280.7253
   6   2.0000     -10.312090      -280.6062
   7   2.0000     -10.302191      -280.3369
   8   2.0000     -10.299930      -280.2753
   9   2.0000     -10.299505      -280.2638
  10   2.0000     -10.296806      -280.1903
  11   2.0000     -10.296012      -280.1687
  12   2.0000     -10.294168      -280.1186
  13   2.0000     -10.284710      -279.8612
  14   2.0000     -10.281773      -279.7813
  15   2.0000     -10.276433      -279.6360
  16   2.0000      -8.079594      -219.8569
  17   2.0000      -8.078239      -219.8201
  18   2.0000      -6.037992      -164.3021
  19   2.0000      -6.036947      -164.2737
  20   2.0000      -6.033933      -164.1917
  21   2.0000      -6.032774      -164.1601
  22   2.0000      -6.030530      -164.0991
  23   2.0000      -6.028833      -164.0529
  24   2.0000      -1.006683       -27.3932
  25   2.0000      -0.977153       -26.5897
  26   2.0000      -0.915217       -24.9043
  27   2.0000      -0.907985       -24.7075
  28   2.0000      -0.870211       -23.6797
  29   2.0000      -0.849805       -23.1244
  30   2.0000      -0.844752       -22.9869
  31   2.0000      -0.817140       -22.2355
  32   2.0000      -0.780294       -21.2329
  33   2.0000      -0.766419       -20.8553
  34   2.0000      -0.711735       -19.3673
  35   2.0000      -0.701713       -19.0946
  36   2.0000      -0.692566       -18.8457
  37   2.0000      -0.657505       -17.8916
  38   2.0000      -0.643914       -17.5218
  39   2.0000      -0.620095       -16.8736
  40   2.0000      -0.596201       -16.2235
  41   2.0000      -0.571587       -15.5537
  42   2.0000      -0.559291       -15.2191
  43   2.0000      -0.548561       -14.9271
  44   2.0000      -0.539812       -14.6890
  45   2.0000      -0.526387       -14.3237
  46   2.0000      -0.518880       -14.1194
  47   2.0000      -0.516737       -14.0611
  48   2.0000      -0.508808       -13.8454
  49   2.0000      -0.501375       -13.6431
  50   2.0000      -0.489063       -13.3081
  51   2.0000      -0.480983       -13.0882
  52   2.0000      -0.467921       -12.7328
  53   2.0000      -0.465151       -12.6574
  54   2.0000      -0.451820       -12.2947
  55   2.0000      -0.448571       -12.2062
  56   2.0000      -0.438067       -11.9204
  57   2.0000      -0.435419       -11.8484
  58   2.0000      -0.432115       -11.7584
  59   2.0000      -0.424675       -11.5560
  60   2.0000      -0.421510       -11.4699
  61   2.0000      -0.413355       -11.2480
  62   2.0000      -0.406264       -11.0550
  63   2.0000      -0.346878        -9.4390
  64   2.0000      -0.333675        -9.0798
  65   2.0000      -0.322177        -8.7669
  66   2.0000      -0.293291        -7.9809
  67   0.0000       0.031542         0.8583
  68   0.0000       0.063845         1.7373
  69   0.0000       0.109969         2.9924
  70   0.0000       0.122571         3.3353
  71   0.0000       0.127839         3.4787

MULLIKEN ATOMIC CHARGES
-----------------------
   0 S :    0.104726
   1 C :   -0.105461
   2 C :   -0.103587
   3 C :    0.026678
   4 C :   -0.163328
   5 H :    0.027739
   6 C :    0.018023
   7 H :    0.024382
   8 H :    0.050110
   9 C :    0.003632
  10 H :    0.026733
  11 H :    0.032663
  12 C :   -0.094157
  13 H :    0.031901
  14 H :    0.038616
  15 H :    0.022846
  16 S :    0.098041
  17 C :   -0.088549
  18 C :   -0.011773
  19 C :   -0.047306
  20 C :   -0.150349
  21 H :    0.013449
  22 C :    0.062319
  23 H :    0.035264
  24 H :    0.033753
  25 C :   -0.078731
  26 H :    0.045200
  27 H :    0.026503
  28 C :   -0.075702
  29 H :    0.044181
  30 H :    0.023892
  31 H :    0.027928
  32 H :    0.036326
  33 H :    0.064041
Sum of atomic charges:   -0.0000000

LOEWDIN ATOMIC CHARGES
----------------------
   0 S :    0.413695
   1 C :   -0.192170
   2 C :   -0.069947
   3 C :   -0.070758
   4 C :   -0.202849
   5 H :    0.038571
   6 C :   -0.034698
   7 H :    0.038249
   8 H :    0.033884
   9 C :   -0.037685
  10 H :    0.021878
  11 H :    0.030088
  12 C :   -0.080461
  13 H :    0.033084
  14 H :    0.030988
  15 H :    0.020759
  16 S :    0.387791
  17 C :   -0.179122
  18 C :   -0.066874
  19 C :   -0.042599
  20 C :   -0.201857
  21 H :    0.026391
  22 C :   -0.033753
  23 H :    0.037420
  24 H :    0.039233
  25 C :   -0.044263
  26 H :    0.030592
  27 H :    0.023400
  28 C :   -0.076955
  29 H :    0.032029
  30 H :    0.025487
  31 H :    0.018264
  32 H :    0.018424
  33 H :    0.033768

  Mayer bond orders larger than 0.100000
B(  0-S ,  1-C ) :   1.1447 B(  0-S ,  4-C ) :   1.1650 B(  1-C ,  2-C ) :   1.5895
B(  1-C ,  4-C ) :   0.1025 B(  1-C , 32-H ) :   0.9749 B(  2-C ,  3-C ) :   1.2539
B(  2-C ,  6-C ) :   1.0109 B(  3-C ,  4-C ) :   1.5692 B(  3-C ,  5-H ) :   0.9886
B(  4-C , 20-C ) :   1.0231 B(  6-C ,  7-H ) :   0.9451 B(  6-C ,  8-H ) :   0.9463
B(  6-C ,  9-C ) :   1.0554 B(  9-C , 10-H ) :   0.9570 B(  9-C , 11-H ) :   0.9527
B(  9-C , 12-C ) :   1.0773 B( 12-C , 13-H ) :   0.9698 B( 12-C , 14-H ) :   0.9746
B( 12-C , 15-H ) :   0.9739 B( 16-S , 17-C ) :   1.1387 B( 16-S , 20-C ) :   1.1300
B( 17-C , 18-C ) :   1.6331 B( 17-C , 33-H ) :   0.9680 B( 18-C , 19-C ) :   1.2037
B( 18-C , 21-H ) :   0.9908 B( 19-C , 20-C ) :   1.5877 B( 19-C , 22-C ) :   1.0541
B( 22-C , 23-H ) :   0.9350 B( 22-C , 24-H ) :   0.9357 B( 22-C , 25-C ) :   1.0309
B( 25-C , 26-H ) :   0.9666 B( 25-C , 27-H ) :   0.9549 B( 25-C , 28-C ) :   1.0683
B( 28-C , 29-H ) :   0.9758 B( 28-C , 30-H ) :   0.9741 B( 28-C , 31-H ) :   0.9797

Dispersion correction           -0.014320973
FINAL SINGLE POINT ENERGY     -1339.869081050699

DIPOLE MOMENT
-------------
                                X             Y             Z
Electronic contribution:    -14.81714       7.31361      17.94057
Nuclear contribution   :     15.02379      -7.40455     -18.52189
                        -----------------------------------------
Total Dipole Moment    :      0.20665      -0.09094      -0.58132
                        -----------------------------------------
Magnitude (a.u.)       :      0.62363
Magnitude (Debye)      :      1.58514

Rotational constants in cm-1:     0.017133     0.008841     0.007014
Rotational constants in MHz :   513.632340   265.059056   210.273691

                             ****ORCA TERMINATED NORMALLY****
TOTAL RUN TIME: 0 days 0 hours 0 minutes 21 seconds 376 msec
