                         Program Version 4.2.1 -  RELEASE  -
|  1> ! wB97X-D3 SP def2-SVP
|  2> %pal
|  3> nprocs 24
|  4> end
|  5>
|  6> * xyz 0 1
|  7> S 	 -42.4271 	 19.1354 	 -96.9549
|  8> C 	 -42.6139 	 20.0852 	 -95.5157
|  9> C 	 -43.8646 	 19.9811 	 -94.9515
| 10> C 	 -44.736 	 19.1201 	 -95.6606
| 11> C 	 -44.0331 	 18.4151 	 -96.6214
| 12> H 	 -45.8013 	 18.9809 	 -95.576
| 13> C 	 -44.2802 	 20.7384 	 -93.6563
| 14> H 	 -45.328 	 20.6164 	 -93.4665
| 15> H 	 -43.9938 	 21.8116 	 -93.8122
| 16> C 	 -43.5309 	 20.3751 	 -92.3901
| 17> H 	 -42.4981 	 20.7586 	 -92.2609
| 18> H 	 -44.0063 	 20.8426 	 -91.5178
| 19> C 	 -43.5162 	 18.9079 	 -92.1089
| 20> H 	 -44.4471 	 18.4613 	 -91.764
| 21> H 	 -43.1058 	 18.35 	 -92.9751
| 22> H 	 -42.7167 	 18.7367 	 -91.3801
| 23> S 	 -44.3661 	 17.5167 	 -99.1841
| 24> C 	 -45.4158 	 16.1534 	 -99.5458
| 25> C 	 -46.0245 	 15.6832 	 -98.3881
| 26> C 	 -45.4576 	 16.3161 	 -97.2026
| 27> C 	 -44.6553 	 17.4436 	 -97.5126
| 28> H 	 -46.7875 	 14.9402 	 -98.4738
| 29> C 	 -45.7506 	 15.7955 	 -95.808
| 30> H 	 -46.6982 	 16.1233 	 -95.4442
| 31> H 	 -45.0351 	 16.2778 	 -95.1163
| 32> C 	 -45.696 	 14.2456 	 -95.7118
| 33> H 	 -46.2922 	 13.7739 	 -96.507
| 34> H 	 -46.0634 	 14.0019 	 -94.7152
| 35> C 	 -44.2375 	 13.8096 	 -95.84
| 36> H 	 -43.7709 	 14.046 	 -94.9478
| 37> H 	 -43.7928 	 14.1402 	 -96.7435
| 38> H 	 -44.2601 	 12.7608 	 -95.8762
| 39> H 	 -41.8393 	 20.7846 	 -95.2499
| 40> H 	 -45.6682 	 15.901 	 -100.551
| 41> *
| 42>
| 43>                          ****END OF INPUT****

CARTESIAN COORDINATES (ANGSTROEM)
---------------------------------
  S    -42.427100   19.135400  -96.954900
  C    -42.613900   20.085200  -95.515700
  C    -43.864600   19.981100  -94.951500
  C    -44.736000   19.120100  -95.660600
  C    -44.033100   18.415100  -96.621400
  H    -45.801300   18.980900  -95.576000
  C    -44.280200   20.738400  -93.656300
  H    -45.328000   20.616400  -93.466500
  H    -43.993800   21.811600  -93.812200
  C    -43.530900   20.375100  -92.390100
  H    -42.498100   20.758600  -92.260900
  H    -44.006300   20.842600  -91.517800
  C    -43.516200   18.907900  -92.108900
  H    -44.447100   18.461300  -91.764000
  H    -43.105800   18.350000  -92.975100
  H    -42.716700   18.736700  -91.380100
  S    -44.366100   17.516700  -99.184100
  C    -45.415800   16.153400  -99.545800
  C    -46.024500   15.683200  -98.388100
  C    -45.457600   16.316100  -97.202600
  C    -44.655300   17.443600  -97.512600
  H    -46.787500   14.940200  -98.473800
  C    -45.750600   15.795500  -95.808000
  H    -46.698200   16.123300  -95.444200
  H    -45.035100   16.277800  -95.116300
  C    -45.696000   14.245600  -95.711800
  H    -46.292200   13.773900  -96.507000
  H    -46.063400   14.001900  -94.715200
  C    -44.237500   13.809600  -95.840000
  H    -43.770900   14.046000  -94.947800
  H    -43.792800   14.140200  -96.743500
  H    -44.260100   12.760800  -95.876200
  H    -41.839300   20.784600  -95.249900
  H    -45.668200   15.901000  -100.551000

 Total Charge           Charge          ....    0
 Multiplicity           Mult            ....    1
 Number of Electrons    NEL             ....  134
 Basis Dimension        Dim             ....  322

ORBITAL ENERGIES
----------------

  NO   OCC          E(Eh)            E(eV)
   0   2.0000     -88.968656     -2420.9602
   1   2.0000     -88.962623     -2420.7960
   2   2.0000     -10.331415      -281.1321
   3   2.0000     -10.323633      -280.9203
   4   2.0000     -10.316760      -280.7333
   5   2.0000     -10.312517      -280.6178
   6   2.0000     -10.306103      -280.4433
   7   2.0000     -10.303459      -280.3714
   8   2.0000     -10.297832      -280.2182
   9   2.0000     -10.296477      -280.1814
  10   2.0000     -10.294877      -280.1378
  11   2.0000     -10.284910      -279.8666
  12   2.0000     -10.283934      -279.8401
  13   2.0000     -10.283495      -279.8281
  14   2.0000     -10.270221      -279.4669
  15   2.0000     -10.256124      -279.0833
  16   2.0000      -8.083129      -219.9531
  17   2.0000      -8.078309      -219.8220
  18   2.0000      -6.041520      -164.3981
  19   2.0000      -6.037924      -164.3003
  20   2.0000      -6.036755      -164.2685
  21   2.0000      -6.033792      -164.1878
  22   2.0000      -6.032590      -164.1551
  23   2.0000      -6.029180      -164.0623
  24   2.0000      -1.007253       -27.4088
  25   2.0000      -0.984149       -26.7800
  26   2.0000      -0.912735       -24.8368
  27   2.0000      -0.907847       -24.7038
  28   2.0000      -0.870378       -23.6842
  29   2.0000      -0.853828       -23.2338
  30   2.0000      -0.842486       -22.9252
  31   2.0000      -0.815111       -22.1803
  32   2.0000      -0.782276       -21.2868
  33   2.0000      -0.770316       -20.9614
  34   2.0000      -0.702218       -19.1083
  35   2.0000      -0.698335       -19.0027
  36   2.0000      -0.691501       -18.8167
  37   2.0000      -0.656880       -17.8746
  38   2.0000      -0.643218       -17.5029
  39   2.0000      -0.613362       -16.6904
  40   2.0000      -0.598362       -16.2823
  41   2.0000      -0.575446       -15.6587
  42   2.0000      -0.552711       -15.0400
  43   2.0000      -0.549415       -14.9503
  44   2.0000      -0.546288       -14.8652
  45   2.0000      -0.542123       -14.7519
  46   2.0000      -0.521027       -14.1779
  47   2.0000      -0.518943       -14.1212
  48   2.0000      -0.500167       -13.6102
  49   2.0000      -0.491873       -13.3845
  50   2.0000      -0.490697       -13.3525
  51   2.0000      -0.482464       -13.1285
  52   2.0000      -0.466438       -12.6924
  53   2.0000      -0.463744       -12.6191
  54   2.0000      -0.460095       -12.5198
  55   2.0000      -0.451454       -12.2847
  56   2.0000      -0.441827       -12.0227
  57   2.0000      -0.431673       -11.7464
  58   2.0000      -0.426087       -11.5944
  59   2.0000      -0.424678       -11.5561
  60   2.0000      -0.421616       -11.4728
  61   2.0000      -0.412991       -11.2381
  62   2.0000      -0.409508       -11.1433
  63   2.0000      -0.352148        -9.5824
  64   2.0000      -0.332618        -9.0510
  65   2.0000      -0.323882        -8.8133
  66   2.0000      -0.286231        -7.7887
  67   0.0000       0.023892         0.6501
  68   0.0000       0.073909         2.0112
  69   0.0000       0.099457         2.7064
  70   0.0000       0.121600         3.3089
  71   0.0000       0.134711         3.6657

MULLIKEN ATOMIC CHARGES
-----------------------
   0 S :    0.106824
   1 C :   -0.120621
   2 C :   -0.081107
   3 C :    0.008767
   4 C :   -0.142517
   5 H :    0.028057
   6 C :    0.105470
   7 H :    0.019281
   8 H :    0.039747
   9 C :   -0.089819
  10 H :    0.025681
  11 H :    0.024271
  12 C :   -0.061897
  13 H :    0.034657
  14 H :    0.044031
  15 H :    0.021084
  16 S :    0.097860
  17 C :   -0.095932
  18 C :   -0.026015
  19 C :   -0.083934
  20 C :   -0.137646
  21 H :    0.022428
  22 C :    0.075591
  23 H :    0.020421
  24 H :    0.025669
  25 C :   -0.099219
  26 H :    0.032404
  27 H :    0.024177
  28 C :    0.020641
  29 H :    0.013587
  30 H :    0.039938
  31 H :    0.007942
  32 H :    0.047221
  33 H :    0.052959
Sum of atomic charges:   -0.0000000

LOEWDIN ATOMIC CHARGES
----------------------
   0 S :    0.392932
   1 C :   -0.196070
   2 C :   -0.063566
   3 C :   -0.052902
   4 C :   -0.175689
   5 H :    0.037267
   6 C :   -0.028523
   7 H :    0.026710
   8 H :    0.040383
   9 C :   -0.053056
  10 H :    0.025688
  11 H :    0.027506
  12 C :   -0.073270
  13 H :    0.021926
  14 H :    0.029412
  15 H :    0.027174
  16 S :    0.418014
  17 C :   -0.180295
  18 C :   -0.065258
  19 C :   -0.057592
  20 C :   -0.219832
  21 H :    0.028896
  22 C :   -0.036547
  23 H :    0.021755
  24 H :    0.032016
  25 C :   -0.032047
  26 H :    0.021078
  27 H :    0.023351
  28 C :   -0.048310
  29 H :    0.017441
  30 H :    0.024959
  31 H :    0.018873
  32 H :    0.024693
  33 H :    0.022882

  Mayer bond orders larger than 0.100000
B(  0-S ,  1-C ) :   1.1381 B(  0-S ,  4-C ) :   1.1427 B(  1-C ,  2-C ) :   1.6022
B(  1-C , 32-H ) :   0.9731 B(  2-C ,  3-C ) :   1.2300 B(  2-C ,  6-C ) :   1.0169
B(  3-C ,  4-C ) :   1.5645 B(  3-C ,  5-H ) :   0.9991 B(  4-C , 20-C ) :   1.0660
B(  6-C ,  7-H ) :   0.9450 B(  6-C ,  8-H ) :   0.9361 B(  6-C ,  9-C ) :   1.0773
B(  9-C , 10-H ) :   0.9550 B(  9-C , 11-H ) :   0.9505 B(  9-C , 12-C ) :   1.0890
B( 12-C , 13-H ) :   0.9766 B( 12-C , 14-H ) :   0.9673 B( 12-C , 15-H ) :   0.9706
B( 16-S , 17-C ) :   1.1600 B( 16-S , 20-C ) :   1.1522 B( 17-C , 18-C ) :   1.6011
B( 17-C , 33-H ) :   0.9716 B( 18-C , 19-C ) :   1.2284 B( 18-C , 21-H ) :   0.9937
B( 19-C , 20-C ) :   1.5640 B( 19-C , 22-C ) :   1.0440 B( 22-C , 23-H ) :   0.9316
B( 22-C , 24-H ) :   0.9321 B( 22-C , 25-C ) :   1.0730 B( 25-C , 26-H ) :   0.9568
B( 25-C , 27-H ) :   0.9544 B( 25-C , 28-C ) :   1.0813 B( 28-C , 29-H ) :   0.9728
B( 28-C , 30-H ) :   0.9759 B( 28-C , 31-H ) :   0.9699

Dispersion correction           -0.014872889
FINAL SINGLE POINT ENERGY     -1339.875340543377

DIPOLE MOMENT
-------------
                                X             Y             Z
Electronic contribution:      4.75495       8.47357     -24.88366
Nuclear contribution   :     -5.12467      -8.49205      25.36711
                        -----------------------------------------
Total Dipole Moment    :     -0.36972      -0.01847       0.48346
                        -----------------------------------------
Magnitude (a.u.)       :      0.60891
Magnitude (Debye)      :      1.54772

Rotational constants in cm-1:     0.019943     0.009110     0.007078
Rotational constants in MHz :   597.883613   273.107100   212.199860

                             ****ORCA TERMINATED NORMALLY****
TOTAL RUN TIME: 0 days 0 hours 0 minutes 22 seconds 204 msec
