                         Program Version 4.2.1 -  RELEASE  -
|  1> ! wB97X-D3 SP def2-SVP
|  2> %pal
|  3> nprocs 24
|  4> end
|  5>
|  6> * xyz 0 1
|  7> S 	 17.3684 	 -12.1987 	 -118.125
|  8> C 	 15.9563 	 -11.4388 	 -118.759
|  9> C 	 14.8211 	 -12.0341 	 -118.282
| 10> C 	 15.1406 	 -12.8605 	 -117.118
| 11> C 	 16.4714 	 -13.0674 	 -116.901
| 12> H 	 14.4408 	 -13.4426 	 -116.531
| 13> C 	 13.3812 	 -11.8794 	 -118.811
| 14> H 	 13.3255 	 -10.8229 	 -118.935
| 15> H 	 12.6835 	 -12.2433 	 -118.042
| 16> C 	 13.0392 	 -12.5965 	 -120.144
| 17> H 	 14.0424 	 -12.7105 	 -120.673
| 18> H 	 12.8218 	 -13.6217 	 -120.036
| 19> C 	 12.031 	 -11.8895 	 -121.072
| 20> H 	 11.2131 	 -11.53 	 -120.491
| 21> H 	 12.4829 	 -11.0347 	 -121.474
| 22> H 	 11.6778 	 -12.5309 	 -121.901
| 23> S 	 18.2049 	 -13.1227 	 -114.661
| 24> C 	 18.0101 	 -14.4168 	 -113.52
| 25> C 	 17.1879 	 -15.4113 	 -114.095
| 26> C 	 16.6393 	 -15.0773 	 -115.383
| 27> C 	 17.0472 	 -13.8561 	 -115.82
| 28> H 	 16.8859 	 -16.2159 	 -113.503
| 29> C 	 15.868 	 -16.1051 	 -116.143
| 30> H 	 15.4424 	 -15.6999 	 -117.05
| 31> H 	 15.0222 	 -16.403 	 -115.53
| 32> C 	 16.7226 	 -17.3481 	 -116.422
| 33> H 	 17.0683 	 -17.7545 	 -115.443
| 34> H 	 17.689 	 -17.1416 	 -116.982
| 35> C 	 15.9741 	 -18.4456 	 -117.11
| 36> H 	 15.3026 	 -18.902 	 -116.361
| 37> H 	 16.6162 	 -19.1926 	 -117.533
| 38> H 	 15.4458 	 -18.1035 	 -117.964
| 39> H 	 15.874 	 -10.861 	 -119.705
| 40> H 	 18.3235 	 -14.4294 	 -112.566
| 41> *
| 42>
| 43>                          ****END OF INPUT****

CARTESIAN COORDINATES (ANGSTROEM)
---------------------------------
  S     17.368400  -12.198700  -118.125000
  C     15.956300  -11.438800  -118.759000
  C     14.821100  -12.034100  -118.282000
  C     15.140600  -12.860500  -117.118000
  C     16.471400  -13.067400  -116.901000
  H     14.440800  -13.442600  -116.531000
  C     13.381200  -11.879400  -118.811000
  H     13.325500  -10.822900  -118.935000
  H     12.683500  -12.243300  -118.042000
  C     13.039200  -12.596500  -120.144000
  H     14.042400  -12.710500  -120.673000
  H     12.821800  -13.621700  -120.036000
  C     12.031000  -11.889500  -121.072000
  H     11.213100  -11.530000  -120.491000
  H     12.482900  -11.034700  -121.474000
  H     11.677800  -12.530900  -121.901000
  S     18.204900  -13.122700  -114.661000
  C     18.010100  -14.416800  -113.520000
  C     17.187900  -15.411300  -114.095000
  C     16.639300  -15.077300  -115.383000
  C     17.047200  -13.856100  -115.820000
  H     16.885900  -16.215900  -113.503000
  C     15.868000  -16.105100  -116.143000
  H     15.442400  -15.699900  -117.050000
  H     15.022200  -16.403000  -115.530000
  C     16.722600  -17.348100  -116.422000
  H     17.068300  -17.754500  -115.443000
  H     17.689000  -17.141600  -116.982000
  C     15.974100  -18.445600  -117.110000
  H     15.302600  -18.902000  -116.361000
  H     16.616200  -19.192600  -117.533000
  H     15.445800  -18.103500  -117.964000
  H     15.874000  -10.861000  -119.705000
  H     18.323500  -14.429400  -112.566000

 Total Charge           Charge          ....    0
 Multiplicity           Mult            ....    1
 Number of Electrons    NEL             ....  134
 Basis Dimension        Dim             ....  322

ORBITAL ENERGIES
----------------

  NO   OCC          E(Eh)            E(eV)
   0   2.0000     -88.964225     -2420.8396
   1   2.0000     -88.963973     -2420.8328
   2   2.0000     -10.327254      -281.0189
   3   2.0000     -10.327091      -281.0144
   4   2.0000     -10.315519      -280.6995
   5   2.0000     -10.312273      -280.6112
   6   2.0000     -10.303126      -280.3623
   7   2.0000     -10.301590      -280.3205
   8   2.0000     -10.296086      -280.1708
   9   2.0000     -10.292582      -280.0754
  10   2.0000     -10.291863      -280.0558
  11   2.0000     -10.290467      -280.0178
  12   2.0000     -10.289180      -279.9828
  13   2.0000     -10.288282      -279.9584
  14   2.0000     -10.276647      -279.6418
  15   2.0000     -10.271766      -279.5090
  16   2.0000      -8.079159      -219.8451
  17   2.0000      -8.078611      -219.8302
  18   2.0000      -6.037787      -164.2965
  19   2.0000      -6.037207      -164.2807
  20   2.0000      -6.033630      -164.1834
  21   2.0000      -6.033082      -164.1685
  22   2.0000      -6.029729      -164.0773
  23   2.0000      -6.029376      -164.0677
  24   2.0000      -1.007365       -27.4118
  25   2.0000      -0.985134       -26.8069
  26   2.0000      -0.915186       -24.9035
  27   2.0000      -0.907897       -24.7051
  28   2.0000      -0.873654       -23.7733
  29   2.0000      -0.854454       -23.2509
  30   2.0000      -0.844970       -22.9928
  31   2.0000      -0.814765       -22.1709
  32   2.0000      -0.785153       -21.3651
  33   2.0000      -0.776974       -21.1425
  34   2.0000      -0.706901       -19.2358
  35   2.0000      -0.704099       -19.1595
  36   2.0000      -0.698407       -19.0046
  37   2.0000      -0.665671       -18.1138
  38   2.0000      -0.639450       -17.4003
  39   2.0000      -0.615783       -16.7563
  40   2.0000      -0.600463       -16.3394
  41   2.0000      -0.571971       -15.5641
  42   2.0000      -0.569923       -15.5084
  43   2.0000      -0.555753       -15.1228
  44   2.0000      -0.529538       -14.4095
  45   2.0000      -0.526070       -14.3151
  46   2.0000      -0.524084       -14.2610
  47   2.0000      -0.516077       -14.0432
  48   2.0000      -0.512336       -13.9414
  49   2.0000      -0.505374       -13.7519
  50   2.0000      -0.491427       -13.3724
  51   2.0000      -0.480808       -13.0834
  52   2.0000      -0.476174       -12.9573
  53   2.0000      -0.465558       -12.6685
  54   2.0000      -0.458779       -12.4840
  55   2.0000      -0.450813       -12.2672
  56   2.0000      -0.445415       -12.1204
  57   2.0000      -0.439128       -11.9493
  58   2.0000      -0.432734       -11.7753
  59   2.0000      -0.424313       -11.5461
  60   2.0000      -0.421336       -11.4651
  61   2.0000      -0.414241       -11.2721
  62   2.0000      -0.408394       -11.1130
  63   2.0000      -0.349100        -9.4995
  64   2.0000      -0.329188        -8.9577
  65   2.0000      -0.324220        -8.8225
  66   2.0000      -0.296192        -8.0598
  67   0.0000       0.032732         0.8907
  68   0.0000       0.064996         1.7686
  69   0.0000       0.110931         3.0186
  70   0.0000       0.126764         3.4494
  71   0.0000       0.131676         3.5831

MULLIKEN ATOMIC CHARGES
-----------------------
   0 S :    0.109656
   1 C :   -0.109723
   2 C :   -0.147746
   3 C :    0.032136
   4 C :   -0.160572
   5 H :    0.008736
   6 C :    0.092033
   7 H :    0.025921
   8 H :    0.032154
   9 C :   -0.091785
  10 H :    0.026685
  11 H :    0.016961
  12 C :   -0.019899
  13 H :    0.027026
  14 H :    0.019615
  15 H :    0.043749
  16 S :    0.103498
  17 C :   -0.047751
  18 C :   -0.033001
  19 C :   -0.039607
  20 C :   -0.132215
  21 H :    0.004492
  22 C :    0.103649
  23 H :    0.018906
  24 H :    0.018685
  25 C :   -0.125942
  26 H :    0.027840
  27 H :    0.044203
  28 C :   -0.002549
  29 H :    0.031163
  30 H :    0.026244
  31 H :    0.017440
  32 H :    0.061212
  33 H :    0.018784
Sum of atomic charges:   -0.0000000

LOEWDIN ATOMIC CHARGES
----------------------
   0 S :    0.409924
   1 C :   -0.214935
   2 C :   -0.061875
   3 C :   -0.064045
   4 C :   -0.194318
   5 H :    0.027849
   6 C :   -0.027651
   7 H :    0.030243
   8 H :    0.033570
   9 C :   -0.046958
  10 H :    0.028456
  11 H :    0.015923
  12 C :   -0.057990
  13 H :    0.021930
  14 H :    0.018079
  15 H :    0.034097
  16 S :    0.394029
  17 C :   -0.162984
  18 C :   -0.061845
  19 C :   -0.050953
  20 C :   -0.188016
  21 H :    0.018820
  22 C :   -0.028383
  23 H :    0.026295
  24 H :    0.031408
  25 C :   -0.044036
  26 H :    0.024637
  27 H :    0.032180
  28 C :   -0.063570
  29 H :    0.028599
  30 H :    0.026302
  31 H :    0.019171
  32 H :    0.038409
  33 H :    0.007639

  Mayer bond orders larger than 0.100000
B(  0-S ,  1-C ) :   1.1350 B(  0-S ,  4-C ) :   1.1399 B(  1-C ,  2-C ) :   1.6355
B(  1-C , 32-H ) :   0.9560 B(  2-C ,  3-C ) :   1.2251 B(  2-C ,  6-C ) :   1.0190
B(  3-C ,  4-C ) :   1.6045 B(  3-C ,  5-H ) :   0.9896 B(  4-C , 20-C ) :   1.0295
B(  6-C ,  7-H ) :   0.9441 B(  6-C ,  8-H ) :   0.9407 B(  6-C ,  9-C ) :   1.0441
B(  9-C , 10-H ) :   0.9630 B(  9-C , 11-H ) :   0.9574 B(  9-C , 12-C ) :   1.0702
B( 12-C , 13-H ) :   0.9778 B( 12-C , 14-H ) :   0.9761 B( 12-C , 15-H ) :   0.9742
B( 16-S , 17-C ) :   1.1632 B( 16-S , 20-C ) :   1.1127 B( 17-C , 18-C ) :   1.5995
B( 17-C , 33-H ) :   0.9840 B( 18-C , 19-C ) :   1.2189 B( 18-C , 21-H ) :   0.9936
B( 19-C , 20-C ) :   1.6230 B( 19-C , 22-C ) :   1.0539 B( 22-C , 23-H ) :   0.9306
B( 22-C , 24-H ) :   0.9219 B( 22-C , 25-C ) :   1.0616 B( 25-C , 26-H ) :   0.9520
B( 25-C , 27-H ) :   0.9555 B( 25-C , 28-C ) :   1.0928 B( 28-C , 29-H ) :   0.9733
B( 28-C , 30-H ) :   0.9705 B( 28-C , 31-H ) :   0.9712

Dispersion correction           -0.013671858
FINAL SINGLE POINT ENERGY     -1339.868403636956

DIPOLE MOMENT
-------------
                                X             Y             Z
Electronic contribution:     21.34729      14.25338      14.07270
Nuclear contribution   :    -22.03152     -14.76596     -14.18823
                        -----------------------------------------
Total Dipole Moment    :     -0.68423      -0.51258      -0.11553
                        -----------------------------------------
Magnitude (a.u.)       :      0.86271
Magnitude (Debye)      :      2.19283

Rotational constants in cm-1:     0.018577     0.007903     0.006175
Rotational constants in MHz :   556.918402   236.923753   185.119337

                             ****ORCA TERMINATED NORMALLY****
TOTAL RUN TIME: 0 days 0 hours 0 minutes 20 seconds 63 msec
