                         Program Version 4.2.1 -  RELEASE  -
|  1> ! wB97X-D3 SP def2-SVP
|  2> %pal
|  3> nprocs 24
|  4> end
|  5>
|  6> * xyz 0 1
|  7> S 	 -68.3295 	 -43.0963 	 -90.2236
|  8> C 	 -66.8356 	 -42.2864 	 -90.7967
|  9> C 	 -66.6271 	 -42.7258 	 -92.1471
| 10> C 	 -67.6334 	 -43.644 	 -92.6134
| 11> C 	 -68.6852 	 -43.9437 	 -91.7475
| 12> H 	 -67.4948 	 -44.1691 	 -93.5049
| 13> C 	 -65.4914 	 -42.3338 	 -93.0255
| 14> H 	 -65.64 	 -41.3183 	 -93.2918
| 15> H 	 -65.4453 	 -42.8 	 -93.9831
| 16> C 	 -64.1663 	 -42.3835 	 -92.2381
| 17> H 	 -63.4393 	 -41.7666 	 -92.7144
| 18> H 	 -64.2895 	 -41.9461 	 -91.2552
| 19> C 	 -63.5803 	 -43.8293 	 -92.0864
| 20> H 	 -62.6559 	 -43.8753 	 -91.4579
| 21> H 	 -64.3063 	 -44.4845 	 -91.5821
| 22> H 	 -63.2485 	 -44.1717 	 -93.0768
| 23> S 	 -69.7536 	 -46.2163 	 -90.6909
| 24> C 	 -70.7551 	 -47.1552 	 -91.6785
| 25> C 	 -70.966 	 -46.5821 	 -92.9466
| 26> C 	 -70.398 	 -45.2777 	 -93.1178
| 27> C 	 -69.74 	 -44.9179 	 -91.9105
| 28> H 	 -71.372 	 -47.2914 	 -93.6146
| 29> C 	 -70.4966 	 -44.5301 	 -94.3748
| 30> H 	 -69.6247 	 -44.4098 	 -94.8518
| 31> H 	 -70.7756 	 -43.4817 	 -94.2058
| 32> C 	 -71.4915 	 -45.0867 	 -95.4224
| 33> H 	 -72.4968 	 -45.0011 	 -95.0189
| 34> H 	 -71.2718 	 -46.1113 	 -95.7852
| 35> C 	 -71.5676 	 -44.2209 	 -96.6943
| 36> H 	 -71.6831 	 -43.1263 	 -96.5658
| 37> H 	 -72.3057 	 -44.6329 	 -97.4106
| 38> H 	 -70.5893 	 -44.2781 	 -97.1647
| 39> H 	 -66.1972 	 -41.6577 	 -90.1859
| 40> H 	 -71.2111 	 -48.1571 	 -91.4545
| 41> *
| 42>
| 43>                          ****END OF INPUT****

CARTESIAN COORDINATES (ANGSTROEM)
---------------------------------
  S    -68.329500  -43.096300  -90.223600
  C    -66.835600  -42.286400  -90.796700
  C    -66.627100  -42.725800  -92.147100
  C    -67.633400  -43.644000  -92.613400
  C    -68.685200  -43.943700  -91.747500
  H    -67.494800  -44.169100  -93.504900
  C    -65.491400  -42.333800  -93.025500
  H    -65.640000  -41.318300  -93.291800
  H    -65.445300  -42.800000  -93.983100
  C    -64.166300  -42.383500  -92.238100
  H    -63.439300  -41.766600  -92.714400
  H    -64.289500  -41.946100  -91.255200
  C    -63.580300  -43.829300  -92.086400
  H    -62.655900  -43.875300  -91.457900
  H    -64.306300  -44.484500  -91.582100
  H    -63.248500  -44.171700  -93.076800
  S    -69.753600  -46.216300  -90.690900
  C    -70.755100  -47.155200  -91.678500
  C    -70.966000  -46.582100  -92.946600
  C    -70.398000  -45.277700  -93.117800
  C    -69.740000  -44.917900  -91.910500
  H    -71.372000  -47.291400  -93.614600
  C    -70.496600  -44.530100  -94.374800
  H    -69.624700  -44.409800  -94.851800
  H    -70.775600  -43.481700  -94.205800
  C    -71.491500  -45.086700  -95.422400
  H    -72.496800  -45.001100  -95.018900
  H    -71.271800  -46.111300  -95.785200
  C    -71.567600  -44.220900  -96.694300
  H    -71.683100  -43.126300  -96.565800
  H    -72.305700  -44.632900  -97.410600
  H    -70.589300  -44.278100  -97.164700
  H    -66.197200  -41.657700  -90.185900
  H    -71.211100  -48.157100  -91.454500

 Total Charge           Charge          ....    0
 Multiplicity           Mult            ....    1
 Number of Electrons    NEL             ....  134
 Basis Dimension        Dim             ....  322

ORBITAL ENERGIES
----------------

  NO   OCC          E(Eh)            E(eV)
   0   2.0000     -88.970263     -2421.0039
   1   2.0000     -88.962578     -2420.7948
   2   2.0000     -10.332348      -281.1575
   3   2.0000     -10.329866      -281.0899
   4   2.0000     -10.323276      -280.9106
   5   2.0000     -10.319641      -280.8117
   6   2.0000     -10.312980      -280.6305
   7   2.0000     -10.306307      -280.4489
   8   2.0000     -10.292071      -280.0615
   9   2.0000     -10.291653      -280.0501
  10   2.0000     -10.289129      -279.9814
  11   2.0000     -10.286246      -279.9030
  12   2.0000     -10.285234      -279.8755
  13   2.0000     -10.284823      -279.8643
  14   2.0000     -10.282336      -279.7966
  15   2.0000     -10.280491      -279.7464
  16   2.0000      -8.085345      -220.0134
  17   2.0000      -8.075999      -219.7591
  18   2.0000      -6.043669      -164.4566
  19   2.0000      -6.039738      -164.3496
  20   2.0000      -6.036334      -164.2570
  21   2.0000      -6.034665      -164.2116
  22   2.0000      -6.030450      -164.0969
  23   2.0000      -6.026897      -164.0002
  24   2.0000      -1.003249       -27.2998
  25   2.0000      -0.975716       -26.5506
  26   2.0000      -0.918756       -25.0006
  27   2.0000      -0.911450       -24.8018
  28   2.0000      -0.864577       -23.5263
  29   2.0000      -0.855428       -23.2774
  30   2.0000      -0.838516       -22.8172
  31   2.0000      -0.810101       -22.0440
  32   2.0000      -0.787790       -21.4369
  33   2.0000      -0.770444       -20.9648
  34   2.0000      -0.708382       -19.2760
  35   2.0000      -0.706443       -19.2233
  36   2.0000      -0.695573       -18.9275
  37   2.0000      -0.651572       -17.7302
  38   2.0000      -0.637451       -17.3459
  39   2.0000      -0.621552       -16.9133
  40   2.0000      -0.603367       -16.4185
  41   2.0000      -0.578632       -15.7454
  42   2.0000      -0.575587       -15.6625
  43   2.0000      -0.547649       -14.9023
  44   2.0000      -0.541292       -14.7293
  45   2.0000      -0.525096       -14.2886
  46   2.0000      -0.519017       -14.1232
  47   2.0000      -0.510347       -13.8873
  48   2.0000      -0.505065       -13.7435
  49   2.0000      -0.499629       -13.5956
  50   2.0000      -0.484309       -13.1787
  51   2.0000      -0.478242       -13.0136
  52   2.0000      -0.469897       -12.7865
  53   2.0000      -0.467495       -12.7212
  54   2.0000      -0.457075       -12.4376
  55   2.0000      -0.451957       -12.2984
  56   2.0000      -0.437317       -11.9000
  57   2.0000      -0.434698       -11.8287
  58   2.0000      -0.432186       -11.7604
  59   2.0000      -0.429936       -11.6991
  60   2.0000      -0.422873       -11.5070
  61   2.0000      -0.419490       -11.4149
  62   2.0000      -0.412446       -11.2232
  63   2.0000      -0.344588        -9.3767
  64   2.0000      -0.333612        -9.0780
  65   2.0000      -0.322286        -8.7698
  66   2.0000      -0.284147        -7.7320
  67   0.0000       0.019354         0.5266
  68   0.0000       0.066481         1.8090
  69   0.0000       0.110955         3.0192
  70   0.0000       0.121043         3.2937
  71   0.0000       0.130918         3.5625

MULLIKEN ATOMIC CHARGES
-----------------------
   0 S :    0.084137
   1 C :   -0.133750
   2 C :   -0.105872
   3 C :    0.032231
   4 C :   -0.144112
   5 H :   -0.008073
   6 C :    0.115993
   7 H :    0.026877
   8 H :    0.008599
   9 C :   -0.080236
  10 H :    0.015049
  11 H :    0.018494
  12 C :   -0.065788
  13 H :    0.035095
  14 H :    0.048336
  15 H :    0.029662
  16 S :    0.128842
  17 C :   -0.104391
  18 C :   -0.064857
  19 C :   -0.010692
  20 C :   -0.124055
  21 H :    0.008552
  22 C :    0.125982
  23 H :   -0.012772
  24 H :    0.031961
  25 C :   -0.110525
  26 H :    0.038618
  27 H :    0.043122
  28 C :   -0.059457
  29 H :    0.035217
  30 H :    0.045194
  31 H :    0.016888
  32 H :    0.062858
  33 H :    0.072872
Sum of atomic charges:    0.0000000

LOEWDIN ATOMIC CHARGES
----------------------
   0 S :    0.377307
   1 C :   -0.196531
   2 C :   -0.052940
   3 C :   -0.066360
   4 C :   -0.188302
   5 H :    0.018629
   6 C :   -0.029894
   7 H :    0.034729
   8 H :    0.026142
   9 C :   -0.033104
  10 H :    0.016511
  11 H :    0.019526
  12 C :   -0.069247
  13 H :    0.028485
  14 H :    0.028715
  15 H :    0.023263
  16 S :    0.435106
  17 C :   -0.211051
  18 C :   -0.076120
  19 C :   -0.035737
  20 C :   -0.199834
  21 H :    0.025453
  22 C :   -0.029647
  23 H :    0.014768
  24 H :    0.045819
  25 C :   -0.037213
  26 H :    0.025563
  27 H :    0.027869
  28 C :   -0.071384
  29 H :    0.026554
  30 H :    0.031837
  31 H :    0.019654
  32 H :    0.029148
  33 H :    0.042284

  Mayer bond orders larger than 0.100000
B(  0-S ,  1-C ) :   1.1356 B(  0-S ,  4-C ) :   1.1480 B(  1-C ,  2-C ) :   1.5508
B(  1-C ,  4-C ) :   0.1065 B(  1-C , 32-H ) :   0.9721 B(  2-C ,  3-C ) :   1.2790
B(  2-C ,  6-C ) :   1.0280 B(  3-C ,  4-C ) :   1.5323 B(  3-C ,  5-H ) :   0.9975
B(  4-C , 20-C ) :   1.0581 B(  6-C ,  7-H ) :   0.9228 B(  6-C ,  8-H ) :   0.9464
B(  6-C ,  9-C ) :   1.0741 B(  9-C , 10-H ) :   0.9545 B(  9-C , 11-H ) :   0.9582
B(  9-C , 12-C ) :   1.0708 B( 12-C , 13-H ) :   0.9756 B( 12-C , 14-H ) :   0.9777
B( 12-C , 15-H ) :   0.9764 B( 16-S , 17-C ) :   1.1852 B( 16-S , 20-C ) :   1.1536
B( 17-C , 18-C ) :   1.5860 B( 17-C , 33-H ) :   0.9539 B( 18-C , 19-C ) :   1.2579
B( 18-C , 21-H ) :   0.9942 B( 19-C , 20-C ) :   1.5356 B( 19-C , 22-C ) :   1.0471
B( 22-C , 23-H ) :   0.9081 B( 22-C , 24-H ) :   0.9194 B( 22-C , 25-C ) :   1.0854
B( 25-C , 26-H ) :   0.9570 B( 25-C , 27-H ) :   0.9464 B( 25-C , 28-C ) :   1.0846
B( 28-C , 29-H ) :   0.9737 B( 28-C , 30-H ) :   0.9729 B( 28-C , 31-H ) :   0.9726

Dispersion correction           -0.013654815
FINAL SINGLE POINT ENERGY     -1339.858201260781

DIPOLE MOMENT
-------------
                                X             Y             Z
Electronic contribution:     -9.41568      -4.76048      22.71053
Nuclear contribution   :      9.70128       4.62975     -23.49689
                        -----------------------------------------
Total Dipole Moment    :      0.28559      -0.13073      -0.78637
                        -----------------------------------------
Magnitude (a.u.)       :      0.84677
Magnitude (Debye)      :      2.15233

Rotational constants in cm-1:     0.018194     0.007981     0.006438
Rotational constants in MHz :   545.439335   239.249702   193.001146

                             ****ORCA TERMINATED NORMALLY****
TOTAL RUN TIME: 0 days 0 hours 0 minutes 21 seconds 12 msec
