                         Program Version 4.2.1 -  RELEASE  -
|  1> ! wB97X-D3 SP def2-SVP
|  2> %pal
|  3> nprocs 24
|  4> end
|  5>
|  6> * xyz 0 1
|  7> S 	 -44.3398 	 -4.24306 	 -24.1018
|  8> C 	 -45.4756 	 -5.51584 	 -24.0999
|  9> C 	 -44.9046 	 -6.72885 	 -24.3083
| 10> C 	 -43.4837 	 -6.65618 	 -24.4275
| 11> C 	 -43.0515 	 -5.3689 	 -24.3474
| 12> H 	 -42.7913 	 -7.56123 	 -24.6297
| 13> C 	 -45.624 	 -8.01039 	 -24.835
| 14> H 	 -46.2518 	 -8.36222 	 -23.9123
| 15> H 	 -45.0442 	 -8.92149 	 -25.1373
| 16> C 	 -46.5137 	 -7.79838 	 -25.9724
| 17> H 	 -47.1837 	 -8.60736 	 -26.1362
| 18> H 	 -47.0897 	 -6.87688 	 -25.843
| 19> C 	 -45.604 	 -7.5967 	 -27.1614
| 20> H 	 -46.1777 	 -7.36275 	 -28.0716
| 21> H 	 -44.8224 	 -6.86115 	 -27.1275
| 22> H 	 -45.0043 	 -8.54797 	 -27.2626
| 23> S 	 -41.6272 	 -3.48029 	 -25.7818
| 24> C 	 -39.9644 	 -3.50299 	 -25.7778
| 25> C 	 -39.4766 	 -4.54453 	 -25.033
| 26> C 	 -40.4633 	 -5.39316 	 -24.4879
| 27> C 	 -41.7407 	 -4.88963 	 -24.7393
| 28> H 	 -38.4208 	 -4.60875 	 -24.9489
| 29> C 	 -40.2411 	 -6.61423 	 -23.6038
| 30> H 	 -39.9401 	 -7.36543 	 -24.3362
| 31> H 	 -41.1747 	 -7.01641 	 -23.1043
| 32> C 	 -39.1931 	 -6.60341 	 -22.5098
| 33> H 	 -39.4634 	 -5.79631 	 -21.8272
| 34> H 	 -38.2152 	 -6.421 	 -22.9569
| 35> C 	 -39.195 	 -7.93989 	 -21.7195
| 36> H 	 -40.1828 	 -8.45125 	 -21.5073
| 37> H 	 -38.7472 	 -7.73319 	 -20.7558
| 38> H 	 -38.6901 	 -8.69906 	 -22.3188
| 39> H 	 -46.5036 	 -5.33805 	 -24.0036
| 40> H 	 -39.3918 	 -2.64674 	 -26.0868
| 41> *
| 42>
| 43>                          ****END OF INPUT****

CARTESIAN COORDINATES (ANGSTROEM)
---------------------------------
  S    -44.339800   -4.243060  -24.101800
  C    -45.475600   -5.515840  -24.099900
  C    -44.904600   -6.728850  -24.308300
  C    -43.483700   -6.656180  -24.427500
  C    -43.051500   -5.368900  -24.347400
  H    -42.791300   -7.561230  -24.629700
  C    -45.624000   -8.010390  -24.835000
  H    -46.251800   -8.362220  -23.912300
  H    -45.044200   -8.921490  -25.137300
  C    -46.513700   -7.798380  -25.972400
  H    -47.183700   -8.607360  -26.136200
  H    -47.089700   -6.876880  -25.843000
  C    -45.604000   -7.596700  -27.161400
  H    -46.177700   -7.362750  -28.071600
  H    -44.822400   -6.861150  -27.127500
  H    -45.004300   -8.547970  -27.262600
  S    -41.627200   -3.480290  -25.781800
  C    -39.964400   -3.502990  -25.777800
  C    -39.476600   -4.544530  -25.033000
  C    -40.463300   -5.393160  -24.487900
  C    -41.740700   -4.889630  -24.739300
  H    -38.420800   -4.608750  -24.948900
  C    -40.241100   -6.614230  -23.603800
  H    -39.940100   -7.365430  -24.336200
  H    -41.174700   -7.016410  -23.104300
  C    -39.193100   -6.603410  -22.509800
  H    -39.463400   -5.796310  -21.827200
  H    -38.215200   -6.421000  -22.956900
  C    -39.195000   -7.939890  -21.719500
  H    -40.182800   -8.451250  -21.507300
  H    -38.747200   -7.733190  -20.755800
  H    -38.690100   -8.699060  -22.318800
  H    -46.503600   -5.338050  -24.003600
  H    -39.391800   -2.646740  -26.086800

 Total Charge           Charge          ....    0
 Multiplicity           Mult            ....    1
 Number of Electrons    NEL             ....  134
 Basis Dimension        Dim             ....  322

ORBITAL ENERGIES
----------------

  NO   OCC          E(Eh)            E(eV)
   0   2.0000     -88.967278     -2420.9227
   1   2.0000     -88.961576     -2420.7676
   2   2.0000     -10.324051      -280.9317
   3   2.0000     -10.322179      -280.8808
   4   2.0000     -10.306536      -280.4551
   5   2.0000     -10.306060      -280.4421
   6   2.0000     -10.302027      -280.3324
   7   2.0000     -10.301134      -280.3081
   8   2.0000     -10.298352      -280.2324
   9   2.0000     -10.297391      -280.2062
  10   2.0000     -10.291842      -280.0553
  11   2.0000     -10.287743      -279.9437
  12   2.0000     -10.286872      -279.9200
  13   2.0000     -10.283376      -279.8249
  14   2.0000     -10.276813      -279.6463
  15   2.0000     -10.272746      -279.5356
  16   2.0000      -8.083372      -219.9597
  17   2.0000      -8.078098      -219.8162
  18   2.0000      -6.041806      -164.4059
  19   2.0000      -6.037719      -164.2947
  20   2.0000      -6.036336      -164.2571
  21   2.0000      -6.034110      -164.1965
  22   2.0000      -6.032248      -164.1458
  23   2.0000      -6.029152      -164.0616
  24   2.0000      -1.018144       -27.7051
  25   2.0000      -0.996224       -27.1086
  26   2.0000      -0.924133       -25.1469
  27   2.0000      -0.911195       -24.7949
  28   2.0000      -0.874177       -23.7876
  29   2.0000      -0.855821       -23.2881
  30   2.0000      -0.846934       -23.0462
  31   2.0000      -0.811288       -22.0763
  32   2.0000      -0.780703       -21.2440
  33   2.0000      -0.771040       -20.9811
  34   2.0000      -0.705065       -19.1858
  35   2.0000      -0.703043       -19.1308
  36   2.0000      -0.692533       -18.8448
  37   2.0000      -0.658240       -17.9116
  38   2.0000      -0.640182       -17.4202
  39   2.0000      -0.615892       -16.7593
  40   2.0000      -0.601071       -16.3560
  41   2.0000      -0.583132       -15.8678
  42   2.0000      -0.570836       -15.5332
  43   2.0000      -0.556831       -15.1521
  44   2.0000      -0.543721       -14.7954
  45   2.0000      -0.528534       -14.3821
  46   2.0000      -0.515235       -14.0203
  47   2.0000      -0.506451       -13.7812
  48   2.0000      -0.501807       -13.6549
  49   2.0000      -0.498451       -13.5636
  50   2.0000      -0.487505       -13.2657
  51   2.0000      -0.479045       -13.0355
  52   2.0000      -0.477107       -12.9828
  53   2.0000      -0.470498       -12.8029
  54   2.0000      -0.458085       -12.4651
  55   2.0000      -0.447444       -12.1756
  56   2.0000      -0.439791       -11.9673
  57   2.0000      -0.434954       -11.8357
  58   2.0000      -0.430522       -11.7151
  59   2.0000      -0.429075       -11.6757
  60   2.0000      -0.417584       -11.3630
  61   2.0000      -0.412467       -11.2238
  62   2.0000      -0.407313       -11.0835
  63   2.0000      -0.356966        -9.7135
  64   2.0000      -0.331560        -9.0222
  65   2.0000      -0.330848        -9.0028
  66   2.0000      -0.286301        -7.7906
  67   0.0000       0.029687         0.8078
  68   0.0000       0.079627         2.1667
  69   0.0000       0.117284         3.1914
  70   0.0000       0.125757         3.4220
  71   0.0000       0.133166         3.6236

MULLIKEN ATOMIC CHARGES
-----------------------
   0 S :    0.119324
   1 C :   -0.116131
   2 C :   -0.039246
   3 C :   -0.024232
   4 C :   -0.139928
   5 H :    0.056158
   6 C :   -0.021811
   7 H :    0.038487
   8 H :    0.031121
   9 C :   -0.004121
  10 H :    0.027558
  11 H :    0.019654
  12 C :   -0.076851
  13 H :    0.034471
  14 H :    0.038710
  15 H :    0.015540
  16 S :    0.108888
  17 C :   -0.089901
  18 C :   -0.047336
  19 C :    0.015576
  20 C :   -0.163914
  21 H :    0.001833
  22 C :   -0.001386
  23 H :    0.029107
  24 H :    0.041147
  25 C :   -0.052866
  26 H :    0.035996
  27 H :    0.032912
  28 C :   -0.070176
  29 H :    0.036003
  30 H :    0.042370
  31 H :    0.031935
  32 H :    0.031685
  33 H :    0.059422
Sum of atomic charges:   -0.0000000

LOEWDIN ATOMIC CHARGES
----------------------
   0 S :    0.433176
   1 C :   -0.200866
   2 C :   -0.062733
   3 C :   -0.070799
   4 C :   -0.200314
   5 H :    0.050364
   6 C :   -0.039803
   7 H :    0.035005
   8 H :    0.032147
   9 C :   -0.044498
  10 H :    0.024048
  11 H :    0.022197
  12 C :   -0.066392
  13 H :    0.024925
  14 H :    0.024570
  15 H :    0.025355
  16 S :    0.433665
  17 C :   -0.214426
  18 C :   -0.073667
  19 C :   -0.057295
  20 C :   -0.197458
  21 H :    0.025002
  22 C :   -0.042993
  23 H :    0.031153
  24 H :    0.036715
  25 C :   -0.038210
  26 H :    0.025671
  27 H :    0.023559
  28 C :   -0.069220
  29 H :    0.031115
  30 H :    0.027778
  31 H :    0.025209
  32 H :    0.017144
  33 H :    0.029875

  Mayer bond orders larger than 0.100000
B(  0-S ,  1-C ) :   1.1408 B(  0-S ,  4-C ) :   1.1608 B(  1-C ,  2-C ) :   1.6136
B(  1-C , 32-H ) :   0.9742 B(  2-C ,  3-C ) :   1.2515 B(  2-C ,  6-C ) :   1.0021
B(  3-C ,  4-C ) :   1.5569 B(  3-C ,  5-H ) :   0.9792 B(  4-C , 20-C ) :   1.0549
B(  6-C ,  7-H ) :   0.9308 B(  6-C ,  8-H ) :   0.9586 B(  6-C ,  9-C ) :   1.0899
B(  9-C , 10-H ) :   0.9479 B(  9-C , 11-H ) :   0.9458 B(  9-C , 12-C ) :   1.0680
B( 12-C , 13-H ) :   0.9727 B( 12-C , 14-H ) :   0.9780 B( 12-C , 15-H ) :   0.9713
B( 16-S , 17-C ) :   1.1838 B( 16-S , 20-C ) :   1.1577 B( 17-C , 18-C ) :   1.5782
B( 17-C , 33-H ) :   0.9649 B( 18-C , 19-C ) :   1.2596 B( 18-C , 21-H ) :   1.0025
B( 19-C , 20-C ) :   1.5637 B( 19-C , 22-C ) :   1.0252 B( 22-C , 23-H ) :   0.9250
B( 22-C , 24-H ) :   0.9412 B( 22-C , 25-C ) :   1.0738 B( 25-C , 26-H ) :   0.9599
B( 25-C , 27-H ) :   0.9478 B( 25-C , 28-C ) :   1.0755 B( 28-C , 29-H ) :   0.9754
B( 28-C , 30-H ) :   0.9760 B( 28-C , 31-H ) :   0.9758

Dispersion correction           -0.014267379
FINAL SINGLE POINT ENERGY     -1339.866780198158

DIPOLE MOMENT
-------------
                                X             Y             Z
Electronic contribution:     -1.85169      23.04462      -2.83469
Nuclear contribution   :      1.97351     -23.47750       2.84796
                        -----------------------------------------
Total Dipole Moment    :      0.12182      -0.43289       0.01327
                        -----------------------------------------
Magnitude (a.u.)       :      0.44990
Magnitude (Debye)      :      1.14354

Rotational constants in cm-1:     0.018161     0.008900     0.007146
Rotational constants in MHz :   544.448667   266.801502   214.234662

                             ****ORCA TERMINATED NORMALLY****
TOTAL RUN TIME: 0 days 0 hours 0 minutes 22 seconds 76 msec
