                         Program Version 4.2.1 -  RELEASE  -
|  1> ! wB97X-D3 SP def2-SVP
|  2> %pal
|  3> nprocs 24
|  4> end
|  5>
|  6> * xyz 0 1
|  7> S 	 -107.972 	 46.0654 	 -7.01977
|  8> C 	 -109.332 	 46.5009 	 -5.99157
|  9> C 	 -110.519 	 46.3537 	 -6.71543
| 10> C 	 -110.362 	 45.9408 	 -8.11776
| 11> C 	 -109.005 	 45.8835 	 -8.51819
| 12> H 	 -111.145 	 45.9711 	 -8.83983
| 13> C 	 -111.777 	 46.5482 	 -6.00073
| 14> H 	 -111.59 	 46.0609 	 -5.05968
| 15> H 	 -112.65 	 46.0845 	 -6.47771
| 16> C 	 -112.064 	 48.0121 	 -5.57553
| 17> H 	 -113.005 	 48.0565 	 -5.03023
| 18> H 	 -111.346 	 48.5404 	 -4.96708
| 19> C 	 -112.219 	 48.902 	 -6.8285
| 20> H 	 -111.207 	 48.8343 	 -7.35275
| 21> H 	 -113.025 	 48.4812 	 -7.42688
| 22> H 	 -112.388 	 49.9483 	 -6.63643
| 23> S 	 -107.95 	 43.8679 	 -9.92012
| 24> C 	 -107.088 	 44.0603 	 -11.4398
| 25> C 	 -107.252 	 45.405 	 -11.84
| 26> C 	 -107.91 	 46.2768 	 -10.8957
| 27> C 	 -108.415 	 45.5392 	 -9.79101
| 28> H 	 -106.859 	 45.795 	 -12.7868
| 29> C 	 -107.917 	 47.7494 	 -10.9981
| 30> H 	 -107.091 	 47.9916 	 -11.743
| 31> H 	 -107.587 	 48.1012 	 -10.0192
| 32> C 	 -109.269 	 48.3229 	 -11.3833
| 33> H 	 -109.082 	 49.3625 	 -11.5273
| 34> H 	 -109.943 	 48.2537 	 -10.5718
| 35> C 	 -109.87 	 47.6287 	 -12.6396
| 36> H 	 -110.799 	 48.2192 	 -12.9088
| 37> H 	 -110.171 	 46.6371 	 -12.4999
| 38> H 	 -109.133 	 47.6119 	 -13.4111
| 39> H 	 -109.226 	 46.9465 	 -4.98152
| 40> H 	 -106.629 	 43.2234 	 -12.0312
| 41> *
| 42>
| 43>                          ****END OF INPUT****

CARTESIAN COORDINATES (ANGSTROEM)
---------------------------------
  S    -107.972000   46.065400   -7.019770
  C    -109.332000   46.500900   -5.991570
  C    -110.519000   46.353700   -6.715430
  C    -110.362000   45.940800   -8.117760
  C    -109.005000   45.883500   -8.518190
  H    -111.145000   45.971100   -8.839830
  C    -111.777000   46.548200   -6.000730
  H    -111.590000   46.060900   -5.059680
  H    -112.650000   46.084500   -6.477710
  C    -112.064000   48.012100   -5.575530
  H    -113.005000   48.056500   -5.030230
  H    -111.346000   48.540400   -4.967080
  C    -112.219000   48.902000   -6.828500
  H    -111.207000   48.834300   -7.352750
  H    -113.025000   48.481200   -7.426880
  H    -112.388000   49.948300   -6.636430
  S    -107.950000   43.867900   -9.920120
  C    -107.088000   44.060300  -11.439800
  C    -107.252000   45.405000  -11.840000
  C    -107.910000   46.276800  -10.895700
  C    -108.415000   45.539200   -9.791010
  H    -106.859000   45.795000  -12.786800
  C    -107.917000   47.749400  -10.998100
  H    -107.091000   47.991600  -11.743000
  H    -107.587000   48.101200  -10.019200
  C    -109.269000   48.322900  -11.383300
  H    -109.082000   49.362500  -11.527300
  H    -109.943000   48.253700  -10.571800
  C    -109.870000   47.628700  -12.639600
  H    -110.799000   48.219200  -12.908800
  H    -110.171000   46.637100  -12.499900
  H    -109.133000   47.611900  -13.411100
  H    -109.226000   46.946500   -4.981520
  H    -106.629000   43.223400  -12.031200

 Total Charge           Charge          ....    0
 Multiplicity           Mult            ....    1
 Number of Electrons    NEL             ....  134
 Basis Dimension        Dim             ....  322

ORBITAL ENERGIES
----------------

  NO   OCC          E(Eh)            E(eV)
   0   2.0000     -88.964557     -2420.8487
   1   2.0000     -88.964207     -2420.8391
   2   2.0000     -10.340588      -281.3817
   3   2.0000     -10.327307      -281.0203
   4   2.0000     -10.326187      -280.9898
   5   2.0000     -10.319547      -280.8091
   6   2.0000     -10.306490      -280.4538
   7   2.0000     -10.305835      -280.4360
   8   2.0000     -10.305004      -280.4134
   9   2.0000     -10.300437      -280.2891
  10   2.0000     -10.290499      -280.0187
  11   2.0000     -10.288694      -279.9696
  12   2.0000     -10.286075      -279.8983
  13   2.0000     -10.278883      -279.7026
  14   2.0000     -10.275951      -279.6228
  15   2.0000     -10.273709      -279.5618
  16   2.0000      -8.079176      -219.8456
  17   2.0000      -8.077545      -219.8012
  18   2.0000      -6.037655      -164.2929
  19   2.0000      -6.036180      -164.2528
  20   2.0000      -6.033410      -164.1774
  21   2.0000      -6.032118      -164.1423
  22   2.0000      -6.030233      -164.0910
  23   2.0000      -6.028364      -164.0401
  24   2.0000      -0.999116       -27.1873
  25   2.0000      -0.975618       -26.5479
  26   2.0000      -0.914880       -24.8951
  27   2.0000      -0.912616       -24.8336
  28   2.0000      -0.866454       -23.5774
  29   2.0000      -0.843711       -22.9585
  30   2.0000      -0.841135       -22.8885
  31   2.0000      -0.814486       -22.1633
  32   2.0000      -0.780984       -21.2517
  33   2.0000      -0.764399       -20.8004
  34   2.0000      -0.711848       -19.3704
  35   2.0000      -0.699169       -19.0254
  36   2.0000      -0.690802       -18.7977
  37   2.0000      -0.662191       -18.0191
  38   2.0000      -0.640218       -17.4212
  39   2.0000      -0.608224       -16.5506
  40   2.0000      -0.585885       -15.9427
  41   2.0000      -0.577078       -15.7031
  42   2.0000      -0.559908       -15.2359
  43   2.0000      -0.553776       -15.0690
  44   2.0000      -0.545608       -14.8467
  45   2.0000      -0.534506       -14.5447
  46   2.0000      -0.521621       -14.1940
  47   2.0000      -0.514010       -13.9869
  48   2.0000      -0.505371       -13.7518
  49   2.0000      -0.496170       -13.5015
  50   2.0000      -0.489999       -13.3336
  51   2.0000      -0.477837       -13.0026
  52   2.0000      -0.467639       -12.7251
  53   2.0000      -0.460749       -12.5376
  54   2.0000      -0.458425       -12.4744
  55   2.0000      -0.443780       -12.0759
  56   2.0000      -0.438977       -11.9452
  57   2.0000      -0.434846       -11.8328
  58   2.0000      -0.428219       -11.6524
  59   2.0000      -0.425010       -11.5651
  60   2.0000      -0.419935       -11.4270
  61   2.0000      -0.414159       -11.2698
  62   2.0000      -0.411874       -11.2077
  63   2.0000      -0.334552        -9.1036
  64   2.0000      -0.327144        -8.9020
  65   2.0000      -0.315701        -8.5907
  66   2.0000      -0.304012        -8.2726
  67   0.0000       0.035660         0.9704
  68   0.0000       0.038781         1.0553
  69   0.0000       0.111037         3.0215
  70   0.0000       0.117122         3.1870
  71   0.0000       0.125568         3.4169

MULLIKEN ATOMIC CHARGES
-----------------------
   0 S :    0.102521
   1 C :   -0.142642
   2 C :   -0.121287
   3 C :    0.096053
   4 C :   -0.176583
   5 H :    0.013999
   6 C :    0.069576
   7 H :    0.034187
   8 H :    0.031910
   9 C :   -0.076546
  10 H :    0.027312
  11 H :    0.025416
  12 C :   -0.087003
  13 H :    0.053347
  14 H :    0.028127
  15 H :    0.034236
  16 S :    0.115933
  17 C :   -0.116817
  18 C :   -0.046300
  19 C :   -0.051029
  20 C :   -0.190786
  21 H :    0.022005
  22 C :    0.055707
  23 H :    0.028801
  24 H :    0.035229
  25 C :   -0.028374
  26 H :    0.023248
  27 H :    0.022094
  28 C :   -0.039078
  29 H :    0.041577
  30 H :    0.033262
  31 H :    0.017787
  32 H :    0.076604
  33 H :    0.087514
Sum of atomic charges:   -0.0000000

LOEWDIN ATOMIC CHARGES
----------------------
   0 S :    0.373050
   1 C :   -0.199293
   2 C :   -0.066362
   3 C :   -0.049148
   4 C :   -0.179408
   5 H :    0.028601
   6 C :   -0.037406
   7 H :    0.037231
   8 H :    0.034001
   9 C :   -0.037916
  10 H :    0.021670
  11 H :    0.019744
  12 C :   -0.071542
  13 H :    0.033925
  14 H :    0.020082
  15 H :    0.019973
  16 S :    0.425392
  17 C :   -0.198093
  18 C :   -0.078873
  19 C :   -0.048373
  20 C :   -0.222848
  21 H :    0.029024
  22 C :   -0.037034
  23 H :    0.036348
  24 H :    0.036006
  25 C :   -0.030752
  26 H :    0.022432
  27 H :    0.018790
  28 C :   -0.057207
  29 H :    0.035366
  30 H :    0.018379
  31 H :    0.018429
  32 H :    0.040265
  33 H :    0.045548

  Mayer bond orders larger than 0.100000
B(  0-S ,  1-C ) :   1.1382 B(  0-S ,  4-C ) :   1.1358 B(  1-C ,  2-C ) :   1.5943
B(  1-C ,  4-C ) :   0.1035 B(  1-C , 32-H ) :   0.9644 B(  2-C ,  3-C ) :   1.2239
B(  2-C ,  6-C ) :   1.0316 B(  3-C ,  4-C ) :   1.5764 B(  3-C ,  5-H ) :   0.9904
B(  4-C , 20-C ) :   1.0364 B(  6-C ,  7-H ) :   0.9354 B(  6-C ,  8-H ) :   0.9467
B(  6-C ,  9-C ) :   1.0669 B(  9-C , 10-H ) :   0.9568 B(  9-C , 11-H ) :   0.9608
B(  9-C , 12-C ) :   1.0685 B( 12-C , 13-H ) :   0.9733 B( 12-C , 14-H ) :   0.9778
B( 12-C , 15-H ) :   0.9757 B( 16-S , 17-C ) :   1.1720 B( 16-S , 20-C ) :   1.1731
B( 17-C , 18-C ) :   1.5575 B( 17-C , 20-C ) :   0.1118 B( 17-C , 33-H ) :   0.9637
B( 18-C , 19-C ) :   1.2814 B( 18-C , 21-H ) :   0.9800 B( 19-C , 20-C ) :   1.5297
B( 19-C , 22-C ) :   1.0436 B( 22-C , 23-H ) :   0.9336 B( 22-C , 24-H ) :   0.9259
B( 22-C , 25-C ) :   1.0765 B( 25-C , 26-H ) :   0.9543 B( 25-C , 27-H ) :   0.9531
B( 25-C , 28-C ) :   1.0746 B( 28-C , 29-H ) :   0.9735 B( 28-C , 30-H ) :   0.9698
B( 28-C , 31-H ) :   0.9784

Dispersion correction           -0.015416930
FINAL SINGLE POINT ENERGY     -1339.867459946921

DIPOLE MOMENT
-------------
                                X             Y             Z
Electronic contribution:     16.72884     -19.47413       3.61901
Nuclear contribution   :    -17.05900      19.88338      -3.69826
                        -----------------------------------------
Total Dipole Moment    :     -0.33015       0.40925      -0.07925
                        -----------------------------------------
Magnitude (a.u.)       :      0.53176
Magnitude (Debye)      :      1.35162

Rotational constants in cm-1:     0.020809     0.008963     0.007139
Rotational constants in MHz :   623.836112   268.699135   214.011931

                             ****ORCA TERMINATED NORMALLY****
TOTAL RUN TIME: 0 days 0 hours 0 minutes 21 seconds 161 msec
