                         Program Version 4.2.1 -  RELEASE  -
|  1> ! wB97X-D3 SP def2-SVP
|  2> %pal
|  3> nprocs 24
|  4> end
|  5>
|  6> * xyz 0 1
|  7> S 	 -40.404 	 16.2664 	 17.7706
|  8> C 	 -42.0939 	 16.5087 	 18.1154
|  9> C 	 -42.9117 	 16.5083 	 16.9872
| 10> C 	 -42.0588 	 16.3229 	 15.8207
| 11> C 	 -40.7389 	 16.2043 	 16.0055
| 12> H 	 -42.4481 	 16.3417 	 14.829
| 13> C 	 -44.4155 	 16.4075 	 16.9587
| 14> H 	 -44.768 	 17.1967 	 16.3801
| 15> H 	 -44.7987 	 16.6043 	 17.9104
| 16> C 	 -45.0255 	 15.1036 	 16.5918
| 17> H 	 -44.6359 	 14.9029 	 15.6031
| 18> H 	 -44.6435 	 14.3371 	 17.3383
| 19> C 	 -46.5431 	 15.07 	 16.5146
| 20> H 	 -46.7986 	 14.1372 	 16.008
| 21> H 	 -47.0344 	 15.1092 	 17.4921
| 22> H 	 -46.8822 	 15.8104 	 15.8418
| 23> S 	 -39.1749 	 14.3336 	 14.5612
| 24> C 	 -38.1806 	 14.8423 	 13.2427
| 25> C 	 -38.1191 	 16.1943 	 13.2787
| 26> C 	 -39.0399 	 16.848 	 14.1321
| 27> C 	 -39.7458 	 15.983 	 14.9776
| 28> H 	 -37.4925 	 16.7894 	 12.6921
| 29> C 	 -39.1122 	 18.3292 	 14.1829
| 30> H 	 -40.1543 	 18.5093 	 13.9914
| 31> H 	 -38.6398 	 18.7756 	 13.2815
| 32> C 	 -38.452 	 18.945 	 15.4297
| 33> H 	 -38.8413 	 18.419 	 16.2996
| 34> H 	 -38.6758 	 19.9876 	 15.4945
| 35> C 	 -36.9542 	 18.8048 	 15.2493
| 36> H 	 -36.4466 	 19.0388 	 16.1782
| 37> H 	 -36.5267 	 19.2735 	 14.3376
| 38> H 	 -36.7687 	 17.8203 	 15.0076
| 39> H 	 -42.4902 	 16.5523 	 19.1439
| 40> H 	 -37.419 	 14.2204 	 12.7631
| 41> *
| 42>
| 43>                          ****END OF INPUT****

CARTESIAN COORDINATES (ANGSTROEM)
---------------------------------
  S    -40.404000   16.266400   17.770600
  C    -42.093900   16.508700   18.115400
  C    -42.911700   16.508300   16.987200
  C    -42.058800   16.322900   15.820700
  C    -40.738900   16.204300   16.005500
  H    -42.448100   16.341700   14.829000
  C    -44.415500   16.407500   16.958700
  H    -44.768000   17.196700   16.380100
  H    -44.798700   16.604300   17.910400
  C    -45.025500   15.103600   16.591800
  H    -44.635900   14.902900   15.603100
  H    -44.643500   14.337100   17.338300
  C    -46.543100   15.070000   16.514600
  H    -46.798600   14.137200   16.008000
  H    -47.034400   15.109200   17.492100
  H    -46.882200   15.810400   15.841800
  S    -39.174900   14.333600   14.561200
  C    -38.180600   14.842300   13.242700
  C    -38.119100   16.194300   13.278700
  C    -39.039900   16.848000   14.132100
  C    -39.745800   15.983000   14.977600
  H    -37.492500   16.789400   12.692100
  C    -39.112200   18.329200   14.182900
  H    -40.154300   18.509300   13.991400
  H    -38.639800   18.775600   13.281500
  C    -38.452000   18.945000   15.429700
  H    -38.841300   18.419000   16.299600
  H    -38.675800   19.987600   15.494500
  C    -36.954200   18.804800   15.249300
  H    -36.446600   19.038800   16.178200
  H    -36.526700   19.273500   14.337600
  H    -36.768700   17.820300   15.007600
  H    -42.490200   16.552300   19.143900
  H    -37.419000   14.220400   12.763100

 Total Charge           Charge          ....    0
 Multiplicity           Mult            ....    1
 Number of Electrons    NEL             ....  134
 Basis Dimension        Dim             ....  322

ORBITAL ENERGIES
----------------

  NO   OCC          E(Eh)            E(eV)
   0   2.0000     -88.967178     -2420.9200
   1   2.0000     -88.960820     -2420.7470
   2   2.0000     -10.328966      -281.0654
   3   2.0000     -10.328589      -281.0552
   4   2.0000     -10.321370      -280.8588
   5   2.0000     -10.316301      -280.7208
   6   2.0000     -10.304731      -280.4060
   7   2.0000     -10.298801      -280.2446
   8   2.0000     -10.293255      -280.0937
   9   2.0000     -10.286131      -279.8999
  10   2.0000     -10.284003      -279.8420
  11   2.0000     -10.283667      -279.8328
  12   2.0000     -10.279855      -279.7291
  13   2.0000     -10.278306      -279.6869
  14   2.0000     -10.277716      -279.6709
  15   2.0000     -10.265389      -279.3354
  16   2.0000      -8.081165      -219.8997
  17   2.0000      -8.075459      -219.7444
  18   2.0000      -6.039767      -164.3504
  19   2.0000      -6.035837      -164.2435
  20   2.0000      -6.033990      -164.1932
  21   2.0000      -6.031782      -164.1331
  22   2.0000      -6.029854      -164.0807
  23   2.0000      -6.026288      -163.9836
  24   2.0000      -1.005631       -27.3646
  25   2.0000      -0.986122       -26.8337
  26   2.0000      -0.922394       -25.0996
  27   2.0000      -0.914528       -24.8856
  28   2.0000      -0.875201       -23.8154
  29   2.0000      -0.850215       -23.1355
  30   2.0000      -0.846534       -23.0353
  31   2.0000      -0.819706       -22.3053
  32   2.0000      -0.786467       -21.4009
  33   2.0000      -0.771904       -21.0046
  34   2.0000      -0.712773       -19.3955
  35   2.0000      -0.698045       -18.9948
  36   2.0000      -0.691852       -18.8262
  37   2.0000      -0.663217       -18.0471
  38   2.0000      -0.647289       -17.6136
  39   2.0000      -0.625215       -17.0130
  40   2.0000      -0.596797       -16.2397
  41   2.0000      -0.578607       -15.7447
  42   2.0000      -0.568003       -15.4561
  43   2.0000      -0.557776       -15.1779
  44   2.0000      -0.549965       -14.9653
  45   2.0000      -0.524717       -14.2783
  46   2.0000      -0.520831       -14.1725
  47   2.0000      -0.511484       -13.9182
  48   2.0000      -0.508865       -13.8469
  49   2.0000      -0.505111       -13.7448
  50   2.0000      -0.481036       -13.0897
  51   2.0000      -0.480072       -13.0634
  52   2.0000      -0.477038       -12.9809
  53   2.0000      -0.468202       -12.7404
  54   2.0000      -0.459215       -12.4959
  55   2.0000      -0.453529       -12.3411
  56   2.0000      -0.438933       -11.9440
  57   2.0000      -0.434534       -11.8243
  58   2.0000      -0.428874       -11.6702
  59   2.0000      -0.424286       -11.5454
  60   2.0000      -0.417931       -11.3725
  61   2.0000      -0.417059       -11.3488
  62   2.0000      -0.411062       -11.1856
  63   2.0000      -0.339292        -9.2326
  64   2.0000      -0.326655        -8.8887
  65   2.0000      -0.322137        -8.7658
  66   2.0000      -0.313850        -8.5403
  67   0.0000       0.040008         1.0887
  68   0.0000       0.049928         1.3586
  69   0.0000       0.117765         3.2045
  70   0.0000       0.119597         3.2544
  71   0.0000       0.128546         3.4979

MULLIKEN ATOMIC CHARGES
-----------------------
   0 S :    0.109383
   1 C :   -0.126783
   2 C :   -0.094171
   3 C :    0.053947
   4 C :   -0.170698
   5 H :    0.003619
   6 C :    0.139638
   7 H :    0.004111
   8 H :   -0.015898
   9 C :   -0.099766
  10 H :    0.018288
  11 H :    0.039406
  12 C :   -0.014391
  13 H :    0.032909
  14 H :    0.041832
  15 H :    0.017854
  16 S :    0.094835
  17 C :   -0.074554
  18 C :   -0.005424
  19 C :   -0.075852
  20 C :   -0.171519
  21 H :   -0.011966
  22 C :    0.063139
  23 H :    0.022322
  24 H :    0.008074
  25 C :   -0.010267
  26 H :    0.027518
  27 H :    0.025390
  28 C :   -0.020040
  29 H :    0.037352
  30 H :    0.019989
  31 H :    0.000130
  32 H :    0.058987
  33 H :    0.072607
Sum of atomic charges:   -0.0000000

LOEWDIN ATOMIC CHARGES
----------------------
   0 S :    0.386662
   1 C :   -0.188497
   2 C :   -0.061792
   3 C :   -0.042880
   4 C :   -0.191124
   5 H :    0.027711
   6 C :   -0.031667
   7 H :    0.022477
   8 H :    0.021205
   9 C :   -0.039718
  10 H :    0.019803
  11 H :    0.033028
  12 C :   -0.059153
  13 H :    0.032762
  14 H :    0.027652
  15 H :    0.020070
  16 S :    0.399722
  17 C :   -0.190658
  18 C :   -0.075016
  19 C :   -0.050978
  20 C :   -0.194275
  21 H :    0.017679
  22 C :   -0.036174
  23 H :    0.030585
  24 H :    0.028550
  25 C :   -0.026629
  26 H :    0.019995
  27 H :    0.020280
  28 C :   -0.062007
  29 H :    0.027562
  30 H :    0.028760
  31 H :    0.013439
  32 H :    0.033155
  33 H :    0.039472

  Mayer bond orders larger than 0.100000
B(  0-S ,  1-C ) :   1.1491 B(  0-S ,  4-C ) :   1.0965 B(  1-C ,  2-C ) :   1.6305
B(  1-C , 32-H ) :   0.9584 B(  2-C ,  3-C ) :   1.2030 B(  2-C ,  6-C ) :   1.0408
B(  3-C ,  4-C ) :   1.6525 B(  3-C ,  5-H ) :   0.9916 B(  4-C , 20-C ) :   1.0427
B(  6-C ,  7-H ) :   0.9192 B(  6-C ,  8-H ) :   0.9266 B(  6-C ,  9-C ) :   1.0721
B(  9-C , 10-H ) :   0.9521 B(  9-C , 11-H ) :   0.9522 B(  9-C , 12-C ) :   1.0939
B( 12-C , 13-H ) :   0.9711 B( 12-C , 14-H ) :   0.9747 B( 12-C , 15-H ) :   0.9699
B( 16-S , 17-C ) :   1.1725 B( 16-S , 20-C ) :   1.1367 B( 17-C , 18-C ) :   1.5701
B( 17-C , 20-C ) :   0.1038 B( 17-C , 33-H ) :   0.9600 B( 18-C , 19-C ) :   1.2864
B( 18-C , 21-H ) :   0.9886 B( 19-C , 20-C ) :   1.5664 B( 19-C , 22-C ) :   1.0450
B( 22-C , 23-H ) :   0.9198 B( 22-C , 24-H ) :   0.9329 B( 22-C , 25-C ) :   1.0642
B( 25-C , 26-H ) :   0.9543 B( 25-C , 27-H ) :   0.9552 B( 25-C , 28-C ) :   1.0697
B( 28-C , 29-H ) :   0.9692 B( 28-C , 30-H ) :   0.9686 B( 28-C , 31-H ) :   0.9739

Dispersion correction           -0.014723507
FINAL SINGLE POINT ENERGY     -1339.870052117488

DIPOLE MOMENT
-------------
                                X             Y             Z
Electronic contribution:     11.88911     -10.05583       1.74752
Nuclear contribution   :    -12.27515      10.31657      -1.91506
                        -----------------------------------------
Total Dipole Moment    :     -0.38604       0.26074      -0.16754
                        -----------------------------------------
Magnitude (a.u.)       :      0.49506
Magnitude (Debye)      :      1.25834

Rotational constants in cm-1:     0.022662     0.007537     0.006688
Rotational constants in MHz :   679.391184   225.945709   200.499720

                             ****ORCA TERMINATED NORMALLY****
TOTAL RUN TIME: 0 days 0 hours 0 minutes 21 seconds 776 msec
