                         Program Version 4.2.1 -  RELEASE  -
|  1> ! wB97X-D3 SP def2-SVP
|  2> %pal
|  3> nprocs 24
|  4> end
|  5>
|  6> * xyz 0 1
|  7> S 	 -116.499 	 27.4506 	 -9.67373
|  8> C 	 -116.194 	 26.0627 	 -10.5882
|  9> C 	 -116.486 	 26.2663 	 -11.9372
| 10> C 	 -116.987 	 27.5707 	 -12.1953
| 11> C 	 -117.074 	 28.3463 	 -11.0292
| 12> H 	 -117.325 	 27.9557 	 -13.1738
| 13> C 	 -116.299 	 25.221 	 -12.9813
| 14> H 	 -117.301 	 24.9009 	 -13.3885
| 15> H 	 -115.715 	 24.4083 	 -12.5043
| 16> C 	 -115.43 	 25.5907 	 -14.1826
| 17> H 	 -115.871 	 26.5704 	 -14.631
| 18> H 	 -114.397 	 25.8892 	 -13.9579
| 19> C 	 -115.384 	 24.5698 	 -15.3361
| 20> H 	 -114.81 	 23.7006 	 -14.9982
| 21> H 	 -116.373 	 24.2111 	 -15.5307
| 22> H 	 -115 	 24.988 	 -16.2553
| 23> S 	 -118.636 	 29.7654 	 -9.32363
| 24> C 	 -119.272 	 31.3183 	 -9.74037
| 25> C 	 -118.877 	 31.6732 	 -11.0041
| 26> C 	 -117.985 	 30.7044 	 -11.6524
| 27> C 	 -117.808 	 29.5791 	 -10.8609
| 28> H 	 -119.263 	 32.6451 	 -11.4375
| 29> C 	 -117.247 	 30.9914 	 -12.9464
| 30> H 	 -116.668 	 30.1336 	 -13.3057
| 31> H 	 -116.548 	 31.7417 	 -12.7285
| 32> C 	 -118.183 	 31.6115 	 -14.0524
| 33> H 	 -118.649 	 32.5382 	 -13.6771
| 34> H 	 -119.078 	 30.995 	 -14.2596
| 35> C 	 -117.528 	 31.6634 	 -15.4693
| 36> H 	 -116.957 	 30.7784 	 -15.7766
| 37> H 	 -116.781 	 32.4408 	 -15.3953
| 38> H 	 -118.108 	 31.9712 	 -16.2923
| 39> H 	 -115.908 	 25.0457 	 -10.2023
| 40> H 	 -119.955 	 31.7891 	 -9.06104
| 41> *
| 42>
| 43>                          ****END OF INPUT****

CARTESIAN COORDINATES (ANGSTROEM)
---------------------------------
  S    -116.499000   27.450600   -9.673730
  C    -116.194000   26.062700  -10.588200
  C    -116.486000   26.266300  -11.937200
  C    -116.987000   27.570700  -12.195300
  C    -117.074000   28.346300  -11.029200
  H    -117.325000   27.955700  -13.173800
  C    -116.299000   25.221000  -12.981300
  H    -117.301000   24.900900  -13.388500
  H    -115.715000   24.408300  -12.504300
  C    -115.430000   25.590700  -14.182600
  H    -115.871000   26.570400  -14.631000
  H    -114.397000   25.889200  -13.957900
  C    -115.384000   24.569800  -15.336100
  H    -114.810000   23.700600  -14.998200
  H    -116.373000   24.211100  -15.530700
  H    -115.000000   24.988000  -16.255300
  S    -118.636000   29.765400   -9.323630
  C    -119.272000   31.318300   -9.740370
  C    -118.877000   31.673200  -11.004100
  C    -117.985000   30.704400  -11.652400
  C    -117.808000   29.579100  -10.860900
  H    -119.263000   32.645100  -11.437500
  C    -117.247000   30.991400  -12.946400
  H    -116.668000   30.133600  -13.305700
  H    -116.548000   31.741700  -12.728500
  C    -118.183000   31.611500  -14.052400
  H    -118.649000   32.538200  -13.677100
  H    -119.078000   30.995000  -14.259600
  C    -117.528000   31.663400  -15.469300
  H    -116.957000   30.778400  -15.776600
  H    -116.781000   32.440800  -15.395300
  H    -118.108000   31.971200  -16.292300
  H    -115.908000   25.045700  -10.202300
  H    -119.955000   31.789100   -9.061040

 Total Charge           Charge          ....    0
 Multiplicity           Mult            ....    1
 Number of Electrons    NEL             ....  134
 Basis Dimension        Dim             ....  322

ORBITAL ENERGIES
----------------

  NO   OCC          E(Eh)            E(eV)
   0   2.0000     -88.969777     -2420.9907
   1   2.0000     -88.960169     -2420.7293
   2   2.0000     -10.328710      -281.0585
   3   2.0000     -10.327016      -281.0124
   4   2.0000     -10.315738      -280.7055
   5   2.0000     -10.313712      -280.6504
   6   2.0000     -10.308457      -280.5074
   7   2.0000     -10.302673      -280.3500
   8   2.0000     -10.299340      -280.2593
   9   2.0000     -10.296975      -280.1949
  10   2.0000     -10.296926      -280.1936
  11   2.0000     -10.295082      -280.1434
  12   2.0000     -10.293941      -280.1124
  13   2.0000     -10.292636      -280.0769
  14   2.0000     -10.277173      -279.6561
  15   2.0000     -10.277000      -279.6514
  16   2.0000      -8.085678      -220.0225
  17   2.0000      -8.075716      -219.7514
  18   2.0000      -6.044075      -164.4676
  19   2.0000      -6.039857      -164.3529
  20   2.0000      -6.036644      -164.2654
  21   2.0000      -6.034259      -164.2005
  22   2.0000      -6.030044      -164.0858
  23   2.0000      -6.026450      -163.9881
  24   2.0000      -1.013632       -27.5823
  25   2.0000      -0.987688       -26.8764
  26   2.0000      -0.913442       -24.8560
  27   2.0000      -0.904590       -24.6151
  28   2.0000      -0.872599       -23.7446
  29   2.0000      -0.854628       -23.2556
  30   2.0000      -0.844135       -22.9701
  31   2.0000      -0.815506       -22.1911
  32   2.0000      -0.783555       -21.3216
  33   2.0000      -0.772562       -21.0225
  34   2.0000      -0.710603       -19.3365
  35   2.0000      -0.702689       -19.1211
  36   2.0000      -0.688206       -18.7270
  37   2.0000      -0.658519       -17.9192
  38   2.0000      -0.634911       -17.2768
  39   2.0000      -0.623023       -16.9533
  40   2.0000      -0.600397       -16.3376
  41   2.0000      -0.571979       -15.5643
  42   2.0000      -0.560604       -15.2548
  43   2.0000      -0.556365       -15.1395
  44   2.0000      -0.528953       -14.3935
  45   2.0000      -0.524545       -14.2736
  46   2.0000      -0.518838       -14.1183
  47   2.0000      -0.508881       -13.8474
  48   2.0000      -0.502220       -13.6661
  49   2.0000      -0.500674       -13.6240
  50   2.0000      -0.496073       -13.4988
  51   2.0000      -0.484678       -13.1888
  52   2.0000      -0.474470       -12.9110
  53   2.0000      -0.473075       -12.8730
  54   2.0000      -0.462474       -12.5845
  55   2.0000      -0.454677       -12.3724
  56   2.0000      -0.449111       -12.2209
  57   2.0000      -0.437483       -11.9045
  58   2.0000      -0.436125       -11.8676
  59   2.0000      -0.428931       -11.6718
  60   2.0000      -0.417333       -11.3562
  61   2.0000      -0.405088       -11.0230
  62   2.0000      -0.403968       -10.9925
  63   2.0000      -0.360386        -9.8066
  64   2.0000      -0.332190        -9.0394
  65   2.0000      -0.326387        -8.8815
  66   2.0000      -0.284339        -7.7372
  67   0.0000       0.025403         0.6912
  68   0.0000       0.082821         2.2537
  69   0.0000       0.113650         3.0926
  70   0.0000       0.116232         3.1628
  71   0.0000       0.129985         3.5371

MULLIKEN ATOMIC CHARGES
-----------------------
   0 S :    0.128818
   1 C :   -0.135007
   2 C :   -0.093364
   3 C :    0.010078
   4 C :   -0.143733
   5 H :    0.029092
   6 C :    0.080128
   7 H :    0.046114
   8 H :    0.018525
   9 C :   -0.145560
  10 H :    0.021877
  11 H :    0.034031
  12 C :   -0.010937
  13 H :    0.030496
  14 H :    0.013203
  15 H :    0.038740
  16 S :    0.081286
  17 C :   -0.091743
  18 C :   -0.049400
  19 C :   -0.044705
  20 C :   -0.134233
  21 H :    0.043759
  22 C :    0.106411
  23 H :    0.019804
  24 H :    0.029997
  25 C :   -0.127173
  26 H :    0.035441
  27 H :    0.033474
  28 C :   -0.025868
  29 H :    0.032861
  30 H :    0.012746
  31 H :    0.028322
  32 H :    0.067346
  33 H :    0.059172
Sum of atomic charges:   -0.0000000

LOEWDIN ATOMIC CHARGES
----------------------
   0 S :    0.449950
   1 C :   -0.230999
   2 C :   -0.069727
   3 C :   -0.064172
   4 C :   -0.204148
   5 H :    0.034316
   6 C :   -0.037443
   7 H :    0.040016
   8 H :    0.032426
   9 C :   -0.050209
  10 H :    0.021919
  11 H :    0.023643
  12 C :   -0.060916
  13 H :    0.025549
  14 H :    0.018730
  15 H :    0.028177
  16 S :    0.398426
  17 C :   -0.185729
  18 C :   -0.079028
  19 C :   -0.055336
  20 C :   -0.192179
  21 H :    0.040259
  22 C :   -0.022559
  23 H :    0.030180
  24 H :    0.030427
  25 C :   -0.043009
  26 H :    0.024200
  27 H :    0.024299
  28 C :   -0.068126
  29 H :    0.028778
  30 H :    0.021647
  31 H :    0.021001
  32 H :    0.042318
  33 H :    0.027320

  Mayer bond orders larger than 0.100000
B(  0-S ,  1-C ) :   1.1557 B(  0-S ,  4-C ) :   1.1752 B(  1-C ,  2-C ) :   1.5746
B(  1-C , 32-H ) :   0.9584 B(  2-C ,  3-C ) :   1.2838 B(  2-C ,  6-C ) :   1.0413
B(  3-C ,  4-C ) :   1.5162 B(  3-C ,  5-H ) :   0.9838 B(  4-C , 20-C ) :   1.0719
B(  6-C ,  7-H ) :   0.9294 B(  6-C ,  8-H ) :   0.9392 B(  6-C ,  9-C ) :   1.0586
B(  9-C , 10-H ) :   0.9542 B(  9-C , 11-H ) :   0.9571 B(  9-C , 12-C ) :   1.0814
B( 12-C , 13-H ) :   0.9749 B( 12-C , 14-H ) :   0.9728 B( 12-C , 15-H ) :   0.9738
B( 16-S , 17-C ) :   1.1540 B( 16-S , 20-C ) :   1.1305 B( 17-C , 18-C ) :   1.6177
B( 17-C , 33-H ) :   0.9738 B( 18-C , 19-C ) :   1.2098 B( 18-C , 21-H ) :   0.9802
B( 19-C , 20-C ) :   1.6081 B( 19-C , 22-C ) :   1.0463 B( 22-C , 23-H ) :   0.9401
B( 22-C , 24-H ) :   0.9277 B( 22-C , 25-C ) :   1.0377 B( 25-C , 26-H ) :   0.9555
B( 25-C , 27-H ) :   0.9677 B( 25-C , 28-C ) :   1.0700 B( 28-C , 29-H ) :   0.9758
B( 28-C , 30-H ) :   0.9736 B( 28-C , 31-H ) :   0.9768

Dispersion correction           -0.013343001
FINAL SINGLE POINT ENERGY     -1339.883906367732

DIPOLE MOMENT
-------------
                                X             Y             Z
Electronic contribution:     -5.84278       2.53002      32.11093
Nuclear contribution   :      5.82680      -2.48081     -32.71389
                        -----------------------------------------
Total Dipole Moment    :     -0.01598       0.04921      -0.60296
                        -----------------------------------------
Magnitude (a.u.)       :      0.60517
Magnitude (Debye)      :      1.53822

Rotational constants in cm-1:     0.016276     0.009129     0.006063
Rotational constants in MHz :   487.951456   273.692130   181.762537

                             ****ORCA TERMINATED NORMALLY****
TOTAL RUN TIME: 0 days 0 hours 0 minutes 20 seconds 12 msec
