                         Program Version 4.2.1 -  RELEASE  -
|  1> ! wB97X-D3 SP def2-SVP
|  2> %pal
|  3> nprocs 24
|  4> end
|  5>
|  6> * xyz 0 1
|  7> S 	 -72.525 	 17.1417 	 -70.3496
|  8> C 	 -72.102 	 16.1744 	 -71.8551
|  9> C 	 -70.8609 	 16.4791 	 -72.283
| 10> C 	 -70.3302 	 17.6056 	 -71.6016
| 11> C 	 -70.998 	 17.988 	 -70.5108
| 12> H 	 -69.3936 	 18.1184 	 -71.7731
| 13> C 	 -70.2342 	 15.8451 	 -73.5214
| 14> H 	 -69.8179 	 16.7187 	 -74.042
| 15> H 	 -70.9201 	 15.3331 	 -74.181
| 16> C 	 -69.1944 	 14.7594 	 -73.2637
| 17> H 	 -68.3348 	 15.0203 	 -72.5726
| 18> H 	 -69.7023 	 13.9596 	 -72.6324
| 19> C 	 -68.7368 	 13.8451 	 -74.4592
| 20> H 	 -69.5801 	 13.6619 	 -75.0898
| 21> H 	 -68.003 	 14.3558 	 -75.09
| 22> H 	 -68.478 	 12.8917 	 -74.0684
| 23> S 	 -70.3441 	 20.5543 	 -70.1904
| 24> C 	 -69.8235 	 21.1746 	 -68.6625
| 25> C 	 -69.8189 	 20.1405 	 -67.6889
| 26> C 	 -70.3023 	 18.9107 	 -68.1442
| 27> C 	 -70.5438 	 18.9853 	 -69.5238
| 28> H 	 -69.3104 	 20.2772 	 -66.6979
| 29> C 	 -70.4924 	 17.7626 	 -67.1637
| 30> H 	 -71.3686 	 17.1977 	 -67.4931
| 31> H 	 -70.5719 	 18.1234 	 -66.155
| 32> C 	 -69.4191 	 16.6554 	 -67.0605
| 33> H 	 -69.7324 	 15.903 	 -66.3349
| 34> H 	 -68.592 	 17.0954 	 -66.6092
| 35> C 	 -68.9477 	 16.0279 	 -68.3667
| 36> H 	 -68.5071 	 16.7721 	 -69.13
| 37> H 	 -69.9053 	 15.6094 	 -68.8253
| 38> H 	 -68.2658 	 15.1997 	 -68.2622
| 39> H 	 -72.6869 	 15.401 	 -72.3234
| 40> H 	 -69.3734 	 22.1301 	 -68.428
| 41> *
| 42>
| 43>                          ****END OF INPUT****

CARTESIAN COORDINATES (ANGSTROEM)
---------------------------------
  S    -72.525000   17.141700  -70.349600
  C    -72.102000   16.174400  -71.855100
  C    -70.860900   16.479100  -72.283000
  C    -70.330200   17.605600  -71.601600
  C    -70.998000   17.988000  -70.510800
  H    -69.393600   18.118400  -71.773100
  C    -70.234200   15.845100  -73.521400
  H    -69.817900   16.718700  -74.042000
  H    -70.920100   15.333100  -74.181000
  C    -69.194400   14.759400  -73.263700
  H    -68.334800   15.020300  -72.572600
  H    -69.702300   13.959600  -72.632400
  C    -68.736800   13.845100  -74.459200
  H    -69.580100   13.661900  -75.089800
  H    -68.003000   14.355800  -75.090000
  H    -68.478000   12.891700  -74.068400
  S    -70.344100   20.554300  -70.190400
  C    -69.823500   21.174600  -68.662500
  C    -69.818900   20.140500  -67.688900
  C    -70.302300   18.910700  -68.144200
  C    -70.543800   18.985300  -69.523800
  H    -69.310400   20.277200  -66.697900
  C    -70.492400   17.762600  -67.163700
  H    -71.368600   17.197700  -67.493100
  H    -70.571900   18.123400  -66.155000
  C    -69.419100   16.655400  -67.060500
  H    -69.732400   15.903000  -66.334900
  H    -68.592000   17.095400  -66.609200
  C    -68.947700   16.027900  -68.366700
  H    -68.507100   16.772100  -69.130000
  H    -69.905300   15.609400  -68.825300
  H    -68.265800   15.199700  -68.262200
  H    -72.686900   15.401000  -72.323400
  H    -69.373400   22.130100  -68.428000

 Total Charge           Charge          ....    0
 Multiplicity           Mult            ....    1
 Number of Electrons    NEL             ....  134
 Basis Dimension        Dim             ....  322

ORBITAL ENERGIES
----------------

  NO   OCC          E(Eh)            E(eV)
   0   2.0000     -88.973134     -2421.0821
   1   2.0000     -88.965102     -2420.8635
   2   2.0000     -10.327171      -281.0166
   3   2.0000     -10.325975      -280.9841
   4   2.0000     -10.316283      -280.7203
   5   2.0000     -10.315987      -280.7123
   6   2.0000     -10.303828      -280.3814
   7   2.0000     -10.300779      -280.2985
   8   2.0000     -10.296746      -280.1887
   9   2.0000     -10.296325      -280.1772
  10   2.0000     -10.295218      -280.1471
  11   2.0000     -10.290901      -280.0297
  12   2.0000     -10.288292      -279.9587
  13   2.0000     -10.279194      -279.7111
  14   2.0000     -10.278624      -279.6956
  15   2.0000     -10.277167      -279.6559
  16   2.0000      -8.087998      -220.0856
  17   2.0000      -8.078428      -219.8252
  18   2.0000      -6.046383      -164.5304
  19   2.0000      -6.042322      -164.4199
  20   2.0000      -6.039057      -164.3311
  21   2.0000      -6.037099      -164.2778
  22   2.0000      -6.033324      -164.1751
  23   2.0000      -6.028905      -164.0548
  24   2.0000      -1.011015       -27.5111
  25   2.0000      -0.986490       -26.8438
  26   2.0000      -0.909857       -24.7585
  27   2.0000      -0.908972       -24.7344
  28   2.0000      -0.868701       -23.6386
  29   2.0000      -0.852836       -23.2069
  30   2.0000      -0.842260       -22.9191
  31   2.0000      -0.812975       -22.1222
  32   2.0000      -0.785979       -21.3876
  33   2.0000      -0.775998       -21.1160
  34   2.0000      -0.704392       -19.1675
  35   2.0000      -0.695187       -18.9170
  36   2.0000      -0.689293       -18.7566
  37   2.0000      -0.667052       -18.1514
  38   2.0000      -0.637461       -17.3462
  39   2.0000      -0.619639       -16.8612
  40   2.0000      -0.593857       -16.1597
  41   2.0000      -0.566060       -15.4033
  42   2.0000      -0.557894       -15.1811
  43   2.0000      -0.553557       -15.0631
  44   2.0000      -0.540824       -14.7166
  45   2.0000      -0.529298       -14.4029
  46   2.0000      -0.516407       -14.0521
  47   2.0000      -0.511490       -13.9184
  48   2.0000      -0.502448       -13.6723
  49   2.0000      -0.500193       -13.6109
  50   2.0000      -0.492846       -13.4110
  51   2.0000      -0.477159       -12.9841
  52   2.0000      -0.469331       -12.7711
  53   2.0000      -0.458959       -12.4889
  54   2.0000      -0.454422       -12.3654
  55   2.0000      -0.450586       -12.2611
  56   2.0000      -0.447388       -12.1740
  57   2.0000      -0.435242       -11.8435
  58   2.0000      -0.432898       -11.7797
  59   2.0000      -0.429768       -11.6946
  60   2.0000      -0.426284       -11.5998
  61   2.0000      -0.407327       -11.0839
  62   2.0000      -0.400491       -10.8979
  63   2.0000      -0.340207        -9.2575
  64   2.0000      -0.334587        -9.1046
  65   2.0000      -0.333358        -9.0711
  66   2.0000      -0.296983        -8.0813
  67   0.0000       0.033952         0.9239
  68   0.0000       0.067791         1.8447
  69   0.0000       0.106345         2.8938
  70   0.0000       0.114408         3.1132
  71   0.0000       0.122509         3.3336

MULLIKEN ATOMIC CHARGES
-----------------------
   0 S :    0.091387
   1 C :   -0.122861
   2 C :   -0.055454
   3 C :    0.027035
   4 C :   -0.128422
   5 H :    0.006735
   6 C :    0.101878
   7 H :    0.034381
   8 H :    0.010375
   9 C :   -0.147169
  10 H :    0.040787
  11 H :    0.023631
  12 C :   -0.013461
  13 H :    0.011405
  14 H :    0.041002
  15 H :    0.034678
  16 S :    0.144714
  17 C :   -0.094139
  18 C :   -0.086615
  19 C :   -0.006902
  20 C :   -0.206681
  21 H :    0.038805
  22 C :    0.092701
  23 H :    0.022524
  24 H :    0.021572
  25 C :   -0.040501
  26 H :    0.030201
  27 H :   -0.002210
  28 C :   -0.087196
  29 H :    0.053084
  30 H :    0.033889
  31 H :    0.034526
  32 H :    0.040996
  33 H :    0.055304
Sum of atomic charges:    0.0000000

LOEWDIN ATOMIC CHARGES
----------------------
   0 S :    0.360528
   1 C :   -0.161330
   2 C :   -0.058984
   3 C :   -0.069310
   4 C :   -0.187325
   5 H :    0.029718
   6 C :   -0.028810
   7 H :    0.033677
   8 H :    0.028636
   9 C :   -0.055281
  10 H :    0.026971
  11 H :    0.028655
  12 C :   -0.059211
  13 H :    0.019915
  14 H :    0.025391
  15 H :    0.025837
  16 S :    0.454410
  17 C :   -0.210438
  18 C :   -0.072651
  19 C :   -0.060634
  20 C :   -0.207980
  21 H :    0.038795
  22 C :   -0.024808
  23 H :    0.027950
  24 H :    0.032444
  25 C :   -0.039317
  26 H :    0.027782
  27 H :    0.008306
  28 C :   -0.076333
  29 H :    0.035351
  30 H :    0.029425
  31 H :    0.021701
  32 H :    0.027366
  33 H :    0.029553

  Mayer bond orders larger than 0.100000
B(  0-S ,  1-C ) :   1.0962 B(  0-S ,  4-C ) :   1.1167 B(  1-C ,  2-C ) :   1.6797
B(  1-C , 32-H ) :   0.9675 B(  2-C ,  3-C ) :   1.1834 B(  2-C ,  6-C ) :   1.0189
B(  3-C ,  4-C ) :   1.6504 B(  3-C ,  5-H ) :   0.9880 B(  4-C , 20-C ) :   0.9953
B(  6-C ,  7-H ) :   0.9400 B(  6-C ,  8-H ) :   0.9380 B(  6-C ,  9-C ) :   1.0542
B(  9-C , 10-H ) :   0.9574 B(  9-C , 11-H ) :   0.9572 B(  9-C , 12-C ) :   1.0743
B( 12-C , 13-H ) :   0.9694 B( 12-C , 14-H ) :   0.9769 B( 12-C , 15-H ) :   0.9790
B( 16-S , 17-C ) :   1.1669 B( 16-S , 20-C ) :   1.1916 B( 17-C , 18-C ) :   1.5746
B( 17-C , 20-C ) :   0.1138 B( 17-C , 33-H ) :   0.9675 B( 18-C , 19-C ) :   1.2913
B( 18-C , 21-H ) :   0.9740 B( 19-C , 20-C ) :   1.5379 B( 19-C , 22-C ) :   1.0402
B( 22-C , 23-H ) :   0.9281 B( 22-C , 24-H ) :   0.9331 B( 22-C , 25-C ) :   1.0796
B( 25-C , 26-H ) :   0.9527 B( 25-C , 27-H ) :   0.9479 B( 25-C , 28-C ) :   1.0831
B( 28-C , 29-H ) :   0.9678 B( 28-C , 30-H ) :   0.9727 B( 28-C , 31-H ) :   0.9734

Dispersion correction           -0.015491111
FINAL SINGLE POINT ENERGY     -1339.866891415000

DIPOLE MOMENT
-------------
                                X             Y             Z
Electronic contribution:    -13.77120      21.87630       3.92096
Nuclear contribution   :     14.21142     -22.23134      -3.95771
                        -----------------------------------------
Total Dipole Moment    :      0.44022      -0.35504      -0.03674
                        -----------------------------------------
Magnitude (a.u.)       :      0.56674
Magnitude (Debye)      :      1.44054

Rotational constants in cm-1:     0.020824     0.008151     0.007412
Rotational constants in MHz :   624.277045   244.361511   222.209987

                             ****ORCA TERMINATED NORMALLY****
TOTAL RUN TIME: 0 days 0 hours 0 minutes 21 seconds 9 msec
