                         Program Version 4.2.1 -  RELEASE  -
|  1> ! wB97X-D3 SP def2-SVP
|  2> %pal
|  3> nprocs 24
|  4> end
|  5>
|  6> * xyz 0 1
|  7> S 	 -110.623 	 33.9507 	 -13.9509
|  8> C 	 -109.668 	 35.2621 	 -13.2898
|  9> C 	 -108.498 	 35.3384 	 -14.0107
| 10> C 	 -108.452 	 34.4964 	 -15.2233
| 11> C 	 -109.687 	 33.8521 	 -15.4506
| 12> H 	 -107.711 	 34.4307 	 -15.9983
| 13> C 	 -107.398 	 36.2725 	 -13.6927
| 14> H 	 -107.737 	 37.0657 	 -13.011
| 15> H 	 -107.084 	 36.6468 	 -14.6622
| 16> C 	 -106.196 	 35.6591 	 -13.0758
| 17> H 	 -106.352 	 35.2241 	 -12.068
| 18> H 	 -105.725 	 34.8073 	 -13.5683
| 19> C 	 -105.15 	 36.746 	 -13.0516
| 20> H 	 -104.159 	 36.427 	 -12.6324
| 21> H 	 -105.048 	 37.2319 	 -13.9969
| 22> H 	 -105.52 	 37.6 	 -12.4785
| 23> S 	 -110.622 	 34.1604 	 -18.1617
| 24> C 	 -110.98 	 32.7564 	 -19.048
| 25> C 	 -111.018 	 31.6356 	 -18.2195
| 26> C 	 -110.536 	 31.8363 	 -16.8776
| 27> C 	 -110.193 	 33.1868 	 -16.6553
| 28> H 	 -111.284 	 30.7743 	 -18.7137
| 29> C 	 -110.247 	 30.7659 	 -15.8733
| 30> H 	 -111.077 	 30.0836 	 -15.9616
| 31> H 	 -110.248 	 31.1336 	 -14.8157
| 32> C 	 -108.979 	 30 	 -16.1312
| 33> H 	 -108.126 	 30.6779 	 -16.046
| 34> H 	 -109.079 	 29.8578 	 -17.2339
| 35> C 	 -108.705 	 28.6384 	 -15.5019
| 36> H 	 -108.393 	 28.7974 	 -14.4647
| 37> H 	 -107.787 	 28.1927 	 -15.9427
| 38> H 	 -109.518 	 27.9574 	 -15.5632
| 39> H 	 -109.817 	 35.8606 	 -12.3976
| 40> H 	 -111.277 	 32.7126 	 -20.1319
| 41> *
| 42>
| 43>                          ****END OF INPUT****

CARTESIAN COORDINATES (ANGSTROEM)
---------------------------------
  S    -110.623000   33.950700  -13.950900
  C    -109.668000   35.262100  -13.289800
  C    -108.498000   35.338400  -14.010700
  C    -108.452000   34.496400  -15.223300
  C    -109.687000   33.852100  -15.450600
  H    -107.711000   34.430700  -15.998300
  C    -107.398000   36.272500  -13.692700
  H    -107.737000   37.065700  -13.011000
  H    -107.084000   36.646800  -14.662200
  C    -106.196000   35.659100  -13.075800
  H    -106.352000   35.224100  -12.068000
  H    -105.725000   34.807300  -13.568300
  C    -105.150000   36.746000  -13.051600
  H    -104.159000   36.427000  -12.632400
  H    -105.048000   37.231900  -13.996900
  H    -105.520000   37.600000  -12.478500
  S    -110.622000   34.160400  -18.161700
  C    -110.980000   32.756400  -19.048000
  C    -111.018000   31.635600  -18.219500
  C    -110.536000   31.836300  -16.877600
  C    -110.193000   33.186800  -16.655300
  H    -111.284000   30.774300  -18.713700
  C    -110.247000   30.765900  -15.873300
  H    -111.077000   30.083600  -15.961600
  H    -110.248000   31.133600  -14.815700
  C    -108.979000   30.000000  -16.131200
  H    -108.126000   30.677900  -16.046000
  H    -109.079000   29.857800  -17.233900
  C    -108.705000   28.638400  -15.501900
  H    -108.393000   28.797400  -14.464700
  H    -107.787000   28.192700  -15.942700
  H    -109.518000   27.957400  -15.563200
  H    -109.817000   35.860600  -12.397600
  H    -111.277000   32.712600  -20.131900

 Total Charge           Charge          ....    0
 Multiplicity           Mult            ....    1
 Number of Electrons    NEL             ....  134
 Basis Dimension        Dim             ....  322

ORBITAL ENERGIES
----------------

  NO   OCC          E(Eh)            E(eV)
   0   2.0000     -88.966826     -2420.9104
   1   2.0000     -88.961173     -2420.7566
   2   2.0000     -10.335911      -281.2544
   3   2.0000     -10.335037      -281.2307
   4   2.0000     -10.322245      -280.8826
   5   2.0000     -10.314799      -280.6800
   6   2.0000     -10.311290      -280.5845
   7   2.0000     -10.303249      -280.3657
   8   2.0000     -10.302155      -280.3359
   9   2.0000     -10.291187      -280.0374
  10   2.0000     -10.288959      -279.9768
  11   2.0000     -10.288046      -279.9520
  12   2.0000     -10.282667      -279.8056
  13   2.0000     -10.282444      -279.7995
  14   2.0000     -10.278541      -279.6933
  15   2.0000     -10.275463      -279.6096
  16   2.0000      -8.080997      -219.8951
  17   2.0000      -8.075501      -219.7456
  18   2.0000      -6.039484      -164.3427
  19   2.0000      -6.035537      -164.2353
  20   2.0000      -6.034204      -164.1990
  21   2.0000      -6.031842      -164.1348
  22   2.0000      -6.030099      -164.0873
  23   2.0000      -6.026006      -163.9760
  24   2.0000      -0.998585       -27.1729
  25   2.0000      -0.981014       -26.6948
  26   2.0000      -0.925197       -25.1759
  27   2.0000      -0.913824       -24.8664
  28   2.0000      -0.870331       -23.6829
  29   2.0000      -0.849925       -23.1276
  30   2.0000      -0.843725       -22.9589
  31   2.0000      -0.813568       -22.1383
  32   2.0000      -0.786130       -21.3917
  33   2.0000      -0.767462       -20.8837
  34   2.0000      -0.708580       -19.2814
  35   2.0000      -0.702048       -19.1037
  36   2.0000      -0.690384       -18.7863
  37   2.0000      -0.657500       -17.8915
  38   2.0000      -0.641956       -17.4685
  39   2.0000      -0.618295       -16.8247
  40   2.0000      -0.595472       -16.2036
  41   2.0000      -0.576928       -15.6990
  42   2.0000      -0.569933       -15.5087
  43   2.0000      -0.562384       -15.3032
  44   2.0000      -0.527185       -14.3454
  45   2.0000      -0.524071       -14.2607
  46   2.0000      -0.517484       -14.0815
  47   2.0000      -0.513721       -13.9791
  48   2.0000      -0.508482       -13.8365
  49   2.0000      -0.505911       -13.7665
  50   2.0000      -0.492729       -13.4079
  51   2.0000      -0.475028       -12.9262
  52   2.0000      -0.471007       -12.8168
  53   2.0000      -0.466794       -12.7021
  54   2.0000      -0.458017       -12.4633
  55   2.0000      -0.453039       -12.3278
  56   2.0000      -0.448167       -12.1952
  57   2.0000      -0.443063       -12.0564
  58   2.0000      -0.436108       -11.8671
  59   2.0000      -0.417726       -11.3669
  60   2.0000      -0.414872       -11.2892
  61   2.0000      -0.408439       -11.1142
  62   2.0000      -0.401307       -10.9201
  63   2.0000      -0.337681        -9.1888
  64   2.0000      -0.328287        -8.9332
  65   2.0000      -0.321493        -8.7483
  66   2.0000      -0.299438        -8.1481
  67   0.0000       0.027616         0.7515
  68   0.0000       0.052431         1.4267
  69   0.0000       0.106843         2.9073
  70   0.0000       0.111268         3.0278
  71   0.0000       0.130916         3.5624

MULLIKEN ATOMIC CHARGES
-----------------------
   0 S :    0.102513
   1 C :   -0.101699
   2 C :   -0.087829
   3 C :    0.062020
   4 C :   -0.184151
   5 H :    0.012810
   6 C :    0.048970
   7 H :    0.025772
   8 H :    0.023249
   9 C :   -0.067272
  10 H :    0.025884
  11 H :    0.024630
  12 C :   -0.026110
  13 H :    0.042808
  14 H :    0.011947
  15 H :    0.009049
  16 S :    0.115765
  17 C :   -0.119796
  18 C :   -0.024715
  19 C :   -0.010627
  20 C :   -0.169382
  21 H :   -0.013047
  22 C :    0.103571
  23 H :    0.010692
  24 H :    0.027542
  25 C :   -0.102252
  26 H :    0.024455
  27 H :    0.016229
  28 C :   -0.006406
  29 H :    0.028753
  30 H :    0.036211
  31 H :    0.029434
  32 H :    0.047800
  33 H :    0.083181
Sum of atomic charges:   -0.0000000

LOEWDIN ATOMIC CHARGES
----------------------
   0 S :    0.389816
   1 C :   -0.196970
   2 C :   -0.062467
   3 C :   -0.052041
   4 C :   -0.185774
   5 H :    0.029620
   6 C :   -0.033850
   7 H :    0.035190
   8 H :    0.033172
   9 C :   -0.045693
  10 H :    0.026385
  11 H :    0.023834
  12 C :   -0.066598
  13 H :    0.029548
  14 H :    0.019481
  15 H :    0.022004
  16 S :    0.396223
  17 C :   -0.203078
  18 C :   -0.073368
  19 C :   -0.040735
  20 C :   -0.182984
  21 H :    0.016032
  22 C :   -0.036416
  23 H :    0.028688
  24 H :    0.027289
  25 C :   -0.048730
  26 H :    0.025086
  27 H :    0.025048
  28 C :   -0.061504
  29 H :    0.026655
  30 H :    0.035182
  31 H :    0.019982
  32 H :    0.034415
  33 H :    0.046561

  Mayer bond orders larger than 0.100000
B(  0-S ,  1-C ) :   1.1165 B(  0-S ,  4-C ) :   1.1335 B(  1-C ,  2-C ) :   1.6320
B(  1-C , 32-H ) :   0.9699 B(  2-C ,  3-C ) :   1.1841 B(  2-C ,  6-C ) :   1.0412
B(  3-C ,  4-C ) :   1.5893 B(  3-C ,  5-H ) :   0.9945 B(  4-C , 20-C ) :   1.0628
B(  6-C ,  7-H ) :   0.9424 B(  6-C ,  8-H ) :   0.9373 B(  6-C ,  9-C ) :   1.0657
B(  9-C , 10-H ) :   0.9482 B(  9-C , 11-H ) :   0.9541 B(  9-C , 12-C ) :   1.0816
B( 12-C , 13-H ) :   0.9718 B( 12-C , 14-H ) :   0.9701 B( 12-C , 15-H ) :   0.9661
B( 16-S , 17-C ) :   1.1750 B( 16-S , 20-C ) :   1.1226 B( 17-C , 18-C ) :   1.6053
B( 17-C , 20-C ) :   0.1003 B( 17-C , 33-H ) :   0.9564 B( 18-C , 19-C ) :   1.2242
B( 18-C , 21-H ) :   1.0020 B( 19-C , 20-C ) :   1.5703 B( 19-C , 22-C ) :   1.0631
B( 22-C , 23-H ) :   0.9179 B( 22-C , 24-H ) :   0.9209 B( 22-C , 25-C ) :   1.0697
B( 25-C , 26-H ) :   0.9502 B( 25-C , 27-H ) :   0.9545 B( 25-C , 28-C ) :   1.0861
B( 28-C , 29-H ) :   0.9724 B( 28-C , 30-H ) :   0.9703 B( 28-C , 31-H ) :   0.9736

Dispersion correction           -0.013721504
FINAL SINGLE POINT ENERGY     -1339.860492442119

DIPOLE MOMENT
-------------
                                X             Y             Z
Electronic contribution:    -20.39358       6.74249      -9.83630
Nuclear contribution   :     20.82649      -6.90899       9.81067
                        -----------------------------------------
Total Dipole Moment    :      0.43291      -0.16650      -0.02563
                        -----------------------------------------
Magnitude (a.u.)       :      0.46453
Magnitude (Debye)      :      1.18074

Rotational constants in cm-1:     0.018448     0.007572     0.006546
Rotational constants in MHz :   553.048038   227.015122   196.258841

                             ****ORCA TERMINATED NORMALLY****
TOTAL RUN TIME: 0 days 0 hours 0 minutes 21 seconds 219 msec
