                         Program Version 4.2.1 -  RELEASE  -
|  1> ! wB97X-D3 SP def2-SVP
|  2> %pal
|  3> nprocs 24
|  4> end
|  5>
|  6> * xyz 0 1
|  7> S 	 21.1542 	 -5.88011 	 -112.611
|  8> C 	 22.3108 	 -7.15551 	 -112.426
|  9> C 	 23.5847 	 -6.65275 	 -112.353
| 10> C 	 23.6158 	 -5.22167 	 -112.527
| 11> C 	 22.3772 	 -4.64387 	 -112.689
| 12> H 	 24.4779 	 -4.52745 	 -112.574
| 13> C 	 24.8412 	 -7.49934 	 -112.199
| 14> H 	 25.4786 	 -7.28348 	 -113.093
| 15> H 	 24.6297 	 -8.47128 	 -112.569
| 16> C 	 25.6257 	 -7.48573 	 -110.878
| 17> H 	 25.7796 	 -6.49923 	 -110.45
| 18> H 	 24.9398 	 -7.98038 	 -110.195
| 19> C 	 26.9901 	 -8.183 	 -110.809
| 20> H 	 27.7564 	 -7.44964 	 -111.028
| 21> H 	 27.1841 	 -8.62352 	 -109.756
| 22> H 	 27.1236 	 -9.07234 	 -111.449
| 23> S 	 20.9545 	 -2.82665 	 -114.403
| 24> C 	 21.1332 	 -1.11198 	 -114.059
| 25> C 	 21.8886 	 -0.953083 	 -112.927
| 26> C 	 22.369 	 -2.10052 	 -112.29
| 27> C 	 22.0423 	 -3.2629 	 -112.994
| 28> H 	 22.1632 	 -0.00949387 	 -112.465
| 29> C 	 23.2089 	 -2.04802 	 -111.006
| 30> H 	 23.7761 	 -1.14539 	 -111.3
| 31> H 	 23.9115 	 -2.92169 	 -110.985
| 32> C 	 22.3341 	 -1.87984 	 -109.682
| 33> H 	 21.855 	 -2.81876 	 -109.342
| 34> H 	 21.5355 	 -1.19294 	 -109.851
| 35> C 	 23.0537 	 -1.22731 	 -108.465
| 36> H 	 23.759 	 -0.499155 	 -108.762
| 37> H 	 23.6085 	 -1.98015 	 -107.981
| 38> H 	 22.3331 	 -0.700875 	 -107.755
| 39> H 	 21.9703 	 -8.21288 	 -112.209
| 40> H 	 20.7265 	 -0.25472 	 -114.69
| 41> *
| 42>
| 43>                          ****END OF INPUT****

CARTESIAN COORDINATES (ANGSTROEM)
---------------------------------
  S     21.154200   -5.880110  -112.611000
  C     22.310800   -7.155510  -112.426000
  C     23.584700   -6.652750  -112.353000
  C     23.615800   -5.221670  -112.527000
  C     22.377200   -4.643870  -112.689000
  H     24.477900   -4.527450  -112.574000
  C     24.841200   -7.499340  -112.199000
  H     25.478600   -7.283480  -113.093000
  H     24.629700   -8.471280  -112.569000
  C     25.625700   -7.485730  -110.878000
  H     25.779600   -6.499230  -110.450000
  H     24.939800   -7.980380  -110.195000
  C     26.990100   -8.183000  -110.809000
  H     27.756400   -7.449640  -111.028000
  H     27.184100   -8.623520  -109.756000
  H     27.123600   -9.072340  -111.449000
  S     20.954500   -2.826650  -114.403000
  C     21.133200   -1.111980  -114.059000
  C     21.888600   -0.953083  -112.927000
  C     22.369000   -2.100520  -112.290000
  C     22.042300   -3.262900  -112.994000
  H     22.163200   -0.009494  -112.465000
  C     23.208900   -2.048020  -111.006000
  H     23.776100   -1.145390  -111.300000
  H     23.911500   -2.921690  -110.985000
  C     22.334100   -1.879840  -109.682000
  H     21.855000   -2.818760  -109.342000
  H     21.535500   -1.192940  -109.851000
  C     23.053700   -1.227310  -108.465000
  H     23.759000   -0.499155  -108.762000
  H     23.608500   -1.980150  -107.981000
  H     22.333100   -0.700875  -107.755000
  H     21.970300   -8.212880  -112.209000
  H     20.726500   -0.254720  -114.690000

 Total Charge           Charge          ....    0
 Multiplicity           Mult            ....    1
 Number of Electrons    NEL             ....  134
 Basis Dimension        Dim             ....  322

ORBITAL ENERGIES
----------------

  NO   OCC          E(Eh)            E(eV)
   0   2.0000     -88.967055     -2420.9166
   1   2.0000     -88.962029     -2420.7799
   2   2.0000     -10.331607      -281.1373
   3   2.0000     -10.327777      -281.0331
   4   2.0000     -10.326103      -280.9876
   5   2.0000     -10.317579      -280.7556
   6   2.0000     -10.305229      -280.4195
   7   2.0000     -10.305073      -280.4153
   8   2.0000     -10.302254      -280.3386
   9   2.0000     -10.297008      -280.1958
  10   2.0000     -10.292274      -280.0670
  11   2.0000     -10.291681      -280.0509
  12   2.0000     -10.290585      -280.0211
  13   2.0000     -10.288444      -279.9628
  14   2.0000     -10.287417      -279.9348
  15   2.0000     -10.275647      -279.6146
  16   2.0000      -8.080333      -219.8770
  17   2.0000      -8.077558      -219.8015
  18   2.0000      -6.039009      -164.3298
  19   2.0000      -6.036060      -164.2495
  20   2.0000      -6.035042      -164.2218
  21   2.0000      -6.031815      -164.1340
  22   2.0000      -6.030989      -164.1115
  23   2.0000      -6.028425      -164.0418
  24   2.0000      -1.005358       -27.3572
  25   2.0000      -0.983129       -26.7523
  26   2.0000      -0.907868       -24.7043
  27   2.0000      -0.899258       -24.4701
  28   2.0000      -0.869804       -23.6686
  29   2.0000      -0.852466       -23.1968
  30   2.0000      -0.845154       -22.9978
  31   2.0000      -0.812714       -22.1151
  32   2.0000      -0.783020       -21.3070
  33   2.0000      -0.769592       -20.9417
  34   2.0000      -0.708508       -19.2795
  35   2.0000      -0.701583       -19.0910
  36   2.0000      -0.693830       -18.8801
  37   2.0000      -0.659373       -17.9425
  38   2.0000      -0.644893       -17.5484
  39   2.0000      -0.614486       -16.7210
  40   2.0000      -0.590709       -16.0740
  41   2.0000      -0.561560       -15.2808
  42   2.0000      -0.558262       -15.1911
  43   2.0000      -0.555282       -15.1100
  44   2.0000      -0.526911       -14.3380
  45   2.0000      -0.523515       -14.2456
  46   2.0000      -0.518482       -14.1086
  47   2.0000      -0.510532       -13.8923
  48   2.0000      -0.504360       -13.7243
  49   2.0000      -0.497900       -13.5485
  50   2.0000      -0.489076       -13.3084
  51   2.0000      -0.480737       -13.0815
  52   2.0000      -0.469463       -12.7747
  53   2.0000      -0.463665       -12.6170
  54   2.0000      -0.459766       -12.5109
  55   2.0000      -0.448243       -12.1973
  56   2.0000      -0.443221       -12.0607
  57   2.0000      -0.437218       -11.8973
  58   2.0000      -0.435183       -11.8419
  59   2.0000      -0.424820       -11.5599
  60   2.0000      -0.420583       -11.4446
  61   2.0000      -0.412617       -11.2279
  62   2.0000      -0.404822       -11.0158
  63   2.0000      -0.349223        -9.5028
  64   2.0000      -0.333480        -9.0744
  65   2.0000      -0.328472        -8.9382
  66   2.0000      -0.293110        -7.9759
  67   0.0000       0.029086         0.7915
  68   0.0000       0.067460         1.8357
  69   0.0000       0.114851         3.1253
  70   0.0000       0.121958         3.3186
  71   0.0000       0.130033         3.5384

MULLIKEN ATOMIC CHARGES
-----------------------
   0 S :    0.104656
   1 C :   -0.147353
   2 C :   -0.084984
   3 C :    0.027132
   4 C :   -0.176233
   5 H :    0.026773
   6 C :    0.073010
   7 H :    0.021293
   8 H :   -0.005184
   9 C :   -0.039344
  10 H :    0.028790
  11 H :    0.024845
  12 C :   -0.081224
  13 H :    0.040561
  14 H :    0.044050
  15 H :    0.035045
  16 S :    0.102032
  17 C :   -0.110242
  18 C :   -0.020613
  19 C :   -0.048691
  20 C :   -0.167734
  21 H :    0.007950
  22 C :    0.065353
  23 H :    0.031362
  24 H :    0.035008
  25 C :   -0.062290
  26 H :    0.046392
  27 H :    0.022333
  28 C :   -0.048390
  29 H :    0.016922
  30 H :    0.024857
  31 H :    0.046646
  32 H :    0.077569
  33 H :    0.089705
Sum of atomic charges:    0.0000000

LOEWDIN ATOMIC CHARGES
----------------------
   0 S :    0.411451
   1 C :   -0.208177
   2 C :   -0.067169
   3 C :   -0.066292
   4 C :   -0.196750
   5 H :    0.036367
   6 C :   -0.041762
   7 H :    0.035679
   8 H :    0.024776
   9 C :   -0.044556
  10 H :    0.025894
  11 H :    0.025067
  12 C :   -0.072558
  13 H :    0.024689
  14 H :    0.038912
  15 H :    0.025031
  16 S :    0.372013
  17 C :   -0.191023
  18 C :   -0.081354
  19 C :   -0.056464
  20 C :   -0.180633
  21 H :    0.028429
  22 C :   -0.029581
  23 H :    0.035706
  24 H :    0.033940
  25 C :   -0.035881
  26 H :    0.032712
  27 H :    0.020710
  28 C :   -0.065108
  29 H :    0.016791
  30 H :    0.017440
  31 H :    0.036620
  32 H :    0.043514
  33 H :    0.051568

  Mayer bond orders larger than 0.100000
B(  0-S ,  1-C ) :   1.1434 B(  0-S ,  4-C ) :   1.1523 B(  1-C ,  2-C ) :   1.6133
B(  1-C , 32-H ) :   0.9608 B(  2-C ,  3-C ) :   1.2269 B(  2-C ,  6-C ) :   1.0248
B(  3-C ,  4-C ) :   1.5913 B(  3-C ,  5-H ) :   0.9851 B(  4-C , 20-C ) :   1.0532
B(  6-C ,  7-H ) :   0.9362 B(  6-C ,  8-H ) :   0.9315 B(  6-C ,  9-C ) :   1.0436
B(  9-C , 10-H ) :   0.9623 B(  9-C , 11-H ) :   0.9566 B(  9-C , 12-C ) :   1.0719
B( 12-C , 13-H ) :   0.9785 B( 12-C , 14-H ) :   0.9757 B( 12-C , 15-H ) :   0.9775
B( 16-S , 17-C ) :   1.1468 B( 16-S , 20-C ) :   1.1244 B( 17-C , 18-C ) :   1.5909
B( 17-C , 20-C ) :   0.1046 B( 17-C , 33-H ) :   0.9576 B( 18-C , 19-C ) :   1.2814
B( 18-C , 21-H ) :   0.9781 B( 19-C , 20-C ) :   1.5779 B( 19-C , 22-C ) :   1.0172
B( 22-C , 23-H ) :   0.9404 B( 22-C , 24-H ) :   0.9351 B( 22-C , 25-C ) :   1.0454
B( 25-C , 26-H ) :   0.9593 B( 25-C , 27-H ) :   0.9654 B( 25-C , 28-C ) :   1.0711
B( 28-C , 29-H ) :   0.9760 B( 28-C , 30-H ) :   0.9784 B( 28-C , 31-H ) :   0.9782

Dispersion correction           -0.013462803
FINAL SINGLE POINT ENERGY     -1339.870278852654

DIPOLE MOMENT
-------------
                                X             Y             Z
Electronic contribution:    -21.79795       2.46396     -21.00946
Nuclear contribution   :     22.31781      -2.34475      21.41847
                        -----------------------------------------
Total Dipole Moment    :      0.51987       0.11921       0.40901
                        -----------------------------------------
Magnitude (a.u.)       :      0.67213
Magnitude (Debye)      :      1.70842

Rotational constants in cm-1:     0.017023     0.008132     0.006273
Rotational constants in MHz :   510.343965   243.800018   188.056946

                             ****ORCA TERMINATED NORMALLY****
TOTAL RUN TIME: 0 days 0 hours 0 minutes 19 seconds 588 msec
