                         Program Version 4.2.1 -  RELEASE  -
|  1> ! wB97X-D3 SP def2-SVP
|  2> %pal
|  3> nprocs 24
|  4> end
|  5>
|  6> * xyz 0 1
|  7> S 	 -111.682 	 20.7255 	 -116.859
|  8> C 	 -111.693 	 19.2876 	 -115.92
|  9> C 	 -110.561 	 19.2104 	 -115.044
| 10> C 	 -109.889 	 20.4985 	 -114.988
| 11> C 	 -110.364 	 21.3674 	 -115.892
| 12> H 	 -108.978 	 20.7116 	 -114.454
| 13> C 	 -110.069 	 18.0385 	 -114.3
| 14> H 	 -109.113 	 17.7772 	 -114.652
| 15> H 	 -110.806 	 17.189 	 -114.314
| 16> C 	 -109.872 	 18.3167 	 -112.728
| 17> H 	 -109.554 	 17.2579 	 -112.403
| 18> H 	 -109.01 	 18.9963 	 -112.668
| 19> C 	 -111.079 	 18.9143 	 -112.066
| 20> H 	 -111.986 	 18.3398 	 -112.128
| 21> H 	 -110.822 	 19.0733 	 -111.023
| 22> H 	 -111.261 	 19.8991 	 -112.529
| 23> S 	 -111.115 	 23.9833 	 -116.086
| 24> C 	 -109.837 	 25.1547 	 -116.402
| 25> C 	 -108.595 	 24.5536 	 -116.357
| 26> C 	 -108.595 	 23.115 	 -116.194
| 27> C 	 -109.894 	 22.6846 	 -116.168
| 28> H 	 -107.745 	 25.1452 	 -116.455
| 29> C 	 -107.328 	 22.2314 	 -116.368
| 30> H 	 -106.949 	 22.5105 	 -117.307
| 31> H 	 -107.544 	 21.1622 	 -116.387
| 32> C 	 -106.159 	 22.3268 	 -115.317
| 33> H 	 -106.534 	 22.1115 	 -114.332
| 34> H 	 -106.011 	 23.4478 	 -115.248
| 35> C 	 -104.931 	 21.5776 	 -115.754
| 36> H 	 -105.113 	 20.5106 	 -115.626
| 37> H 	 -104.042 	 22.0216 	 -115.242
| 38> H 	 -104.719 	 21.542 	 -116.799
| 39> H 	 -112.347 	 18.3783 	 -116.003
| 40> H 	 -109.947 	 26.2251 	 -116.319
| 41> *
| 42>
| 43>                          ****END OF INPUT****

CARTESIAN COORDINATES (ANGSTROEM)
---------------------------------
  S    -111.682000   20.725500  -116.859000
  C    -111.693000   19.287600  -115.920000
  C    -110.561000   19.210400  -115.044000
  C    -109.889000   20.498500  -114.988000
  C    -110.364000   21.367400  -115.892000
  H    -108.978000   20.711600  -114.454000
  C    -110.069000   18.038500  -114.300000
  H    -109.113000   17.777200  -114.652000
  H    -110.806000   17.189000  -114.314000
  C    -109.872000   18.316700  -112.728000
  H    -109.554000   17.257900  -112.403000
  H    -109.010000   18.996300  -112.668000
  C    -111.079000   18.914300  -112.066000
  H    -111.986000   18.339800  -112.128000
  H    -110.822000   19.073300  -111.023000
  H    -111.261000   19.899100  -112.529000
  S    -111.115000   23.983300  -116.086000
  C    -109.837000   25.154700  -116.402000
  C    -108.595000   24.553600  -116.357000
  C    -108.595000   23.115000  -116.194000
  C    -109.894000   22.684600  -116.168000
  H    -107.745000   25.145200  -116.455000
  C    -107.328000   22.231400  -116.368000
  H    -106.949000   22.510500  -117.307000
  H    -107.544000   21.162200  -116.387000
  C    -106.159000   22.326800  -115.317000
  H    -106.534000   22.111500  -114.332000
  H    -106.011000   23.447800  -115.248000
  C    -104.931000   21.577600  -115.754000
  H    -105.113000   20.510600  -115.626000
  H    -104.042000   22.021600  -115.242000
  H    -104.719000   21.542000  -116.799000
  H    -112.347000   18.378300  -116.003000
  H    -109.947000   26.225100  -116.319000

 Total Charge           Charge          ....    0
 Multiplicity           Mult            ....    1
 Number of Electrons    NEL             ....  134
 Basis Dimension        Dim             ....  322

ORBITAL ENERGIES
----------------

  NO   OCC          E(Eh)            E(eV)
   0   2.0000     -88.965521     -2420.8749
   1   2.0000     -88.965356     -2420.8704
   2   2.0000     -10.322895      -280.9003
   3   2.0000     -10.319328      -280.8032
   4   2.0000     -10.317402      -280.7508
   5   2.0000     -10.316318      -280.7213
   6   2.0000     -10.307280      -280.4753
   7   2.0000     -10.302172      -280.3363
   8   2.0000     -10.295099      -280.1439
   9   2.0000     -10.294624      -280.1310
  10   2.0000     -10.293888      -280.1109
  11   2.0000     -10.292227      -280.0657
  12   2.0000     -10.290621      -280.0220
  13   2.0000     -10.289476      -279.9909
  14   2.0000     -10.283841      -279.8375
  15   2.0000     -10.272810      -279.5374
  16   2.0000      -8.080629      -219.8851
  17   2.0000      -8.079587      -219.8567
  18   2.0000      -6.039109      -164.3325
  19   2.0000      -6.038169      -164.3069
  20   2.0000      -6.035193      -164.2260
  21   2.0000      -6.034326      -164.2023
  22   2.0000      -6.031284      -164.1196
  23   2.0000      -6.030121      -164.0879
  24   2.0000      -1.008076       -27.4311
  25   2.0000      -0.980021       -26.6677
  26   2.0000      -0.910652       -24.7801
  27   2.0000      -0.908821       -24.7303
  28   2.0000      -0.871165       -23.7056
  29   2.0000      -0.854600       -23.2549
  30   2.0000      -0.845625       -23.0106
  31   2.0000      -0.814808       -22.1721
  32   2.0000      -0.786308       -21.3965
  33   2.0000      -0.770971       -20.9792
  34   2.0000      -0.708817       -19.2879
  35   2.0000      -0.699526       -19.0351
  36   2.0000      -0.687958       -18.7203
  37   2.0000      -0.662235       -18.0203
  38   2.0000      -0.635406       -17.2903
  39   2.0000      -0.622682       -16.9440
  40   2.0000      -0.597955       -16.2712
  41   2.0000      -0.566524       -15.4159
  42   2.0000      -0.559332       -15.2202
  43   2.0000      -0.555146       -15.1063
  44   2.0000      -0.537050       -14.6139
  45   2.0000      -0.529507       -14.4086
  46   2.0000      -0.518306       -14.1038
  47   2.0000      -0.514695       -14.0056
  48   2.0000      -0.506217       -13.7749
  49   2.0000      -0.494207       -13.4480
  50   2.0000      -0.492902       -13.4125
  51   2.0000      -0.488167       -13.2837
  52   2.0000      -0.470594       -12.8055
  53   2.0000      -0.467083       -12.7100
  54   2.0000      -0.458308       -12.4712
  55   2.0000      -0.454436       -12.3658
  56   2.0000      -0.444812       -12.1039
  57   2.0000      -0.439916       -11.9707
  58   2.0000      -0.437878       -11.9153
  59   2.0000      -0.421708       -11.4753
  60   2.0000      -0.419153       -11.4057
  61   2.0000      -0.410314       -11.1652
  62   2.0000      -0.406437       -11.0597
  63   2.0000      -0.349345        -9.5062
  64   2.0000      -0.332575        -9.0498
  65   2.0000      -0.323374        -8.7994
  66   2.0000      -0.289270        -7.8714
  67   0.0000       0.030941         0.8419
  68   0.0000       0.071184         1.9370
  69   0.0000       0.104922         2.8551
  70   0.0000       0.109951         2.9919
  71   0.0000       0.121715         3.3120

MULLIKEN ATOMIC CHARGES
-----------------------
   0 S :    0.124201
   1 C :   -0.115723
   2 C :   -0.138486
   3 C :    0.030568
   4 C :   -0.156534
   5 H :    0.005532
   6 C :    0.073964
   7 H :    0.028706
   8 H :    0.025494
   9 C :   -0.141219
  10 H :    0.041777
  11 H :    0.031450
  12 C :   -0.020508
  13 H :    0.030493
  14 H :    0.035456
  15 H :    0.047309
  16 S :    0.101599
  17 C :   -0.076294
  18 C :   -0.026862
  19 C :    0.010197
  20 C :   -0.152727
  21 H :   -0.005518
  22 C :    0.037437
  23 H :    0.023516
  24 H :    0.027325
  25 C :   -0.091248
  26 H :    0.026267
  27 H :    0.023874
  28 C :   -0.018916
  29 H :    0.027607
  30 H :    0.054552
  31 H :    0.018422
  32 H :    0.060282
  33 H :    0.058006
Sum of atomic charges:    0.0000000

LOEWDIN ATOMIC CHARGES
----------------------
   0 S :    0.414962
   1 C :   -0.225861
   2 C :   -0.060767
   3 C :   -0.063403
   4 C :   -0.190345
   5 H :    0.030250
   6 C :   -0.034975
   7 H :    0.026541
   8 H :    0.032208
   9 C :   -0.042603
  10 H :    0.029769
  11 H :    0.018978
  12 C :   -0.067512
  13 H :    0.023521
  14 H :    0.028769
  15 H :    0.034861
  16 S :    0.383880
  17 C :   -0.180863
  18 C :   -0.058764
  19 C :   -0.051277
  20 C :   -0.185374
  21 H :    0.017560
  22 C :   -0.024024
  23 H :    0.025359
  24 H :    0.026573
  25 C :   -0.043821
  26 H :    0.019087
  27 H :    0.024182
  28 C :   -0.069242
  29 H :    0.030232
  30 H :    0.039611
  31 H :    0.024043
  32 H :    0.038362
  33 H :    0.030080

  Mayer bond orders larger than 0.100000
B(  0-S ,  1-C ) :   1.1355 B(  0-S ,  4-C ) :   1.1428 B(  1-C ,  2-C ) :   1.6101
B(  1-C , 32-H ) :   0.9577 B(  2-C ,  3-C ) :   1.2024 B(  2-C ,  6-C ) :   1.0515
B(  3-C ,  4-C ) :   1.6184 B(  3-C ,  5-H ) :   0.9889 B(  4-C , 20-C ) :   1.0298
B(  6-C ,  7-H ) :   0.9343 B(  6-C ,  8-H ) :   0.9427 B(  6-C ,  9-C ) :   1.0549
B(  9-C , 10-H ) :   0.9604 B(  9-C , 11-H ) :   0.9537 B(  9-C , 12-C ) :   1.0810
B( 12-C , 13-H ) :   0.9764 B( 12-C , 14-H ) :   0.9708 B( 12-C , 15-H ) :   0.9618
B( 16-S , 17-C ) :   1.1246 B( 16-S , 20-C ) :   1.1360 B( 17-C , 18-C ) :   1.6494
B( 17-C , 33-H ) :   0.9660 B( 18-C , 19-C ) :   1.1996 B( 18-C , 21-H ) :   0.9938
B( 19-C , 20-C ) :   1.6275 B( 19-C , 22-C ) :   1.0233 B( 22-C , 23-H ) :   0.9411
B( 22-C , 24-H ) :   0.9448 B( 22-C , 25-C ) :   1.0522 B( 25-C , 26-H ) :   0.9554
B( 25-C , 27-H ) :   0.9593 B( 25-C , 28-C ) :   1.0725 B( 28-C , 29-H ) :   0.9695
B( 28-C , 30-H ) :   0.9722 B( 28-C , 31-H ) :   0.9723

Dispersion correction           -0.014513209
FINAL SINGLE POINT ENERGY     -1339.864975860764

DIPOLE MOMENT
-------------
                                X             Y             Z
Electronic contribution:    -20.33878      13.32319     -14.31561
Nuclear contribution   :     21.07349     -13.52236      14.57330
                        -----------------------------------------
Total Dipole Moment    :      0.73472      -0.19917       0.25769
                        -----------------------------------------
Magnitude (a.u.)       :      0.80367
Magnitude (Debye)      :      2.04276

Rotational constants in cm-1:     0.015684     0.010016     0.007271
Rotational constants in MHz :   470.196630   300.260603   217.970008

                             ****ORCA TERMINATED NORMALLY****
TOTAL RUN TIME: 0 days 0 hours 0 minutes 22 seconds 23 msec
