                         Program Version 4.2.1 -  RELEASE  -
|  1> ! wB97X-D3 SP def2-SVP
|  2> %pal
|  3> nprocs 24
|  4> end
|  5>
|  6> * xyz 0 1
|  7> S 	 -39.4918 	 4.71814 	 30.3238
|  8> C 	 -40.9221 	 4.02392 	 31.0919
|  9> C 	 -41.5552 	 5.00085 	 31.8694
| 10> C 	 -40.9703 	 6.27118 	 31.8051
| 11> C 	 -39.9752 	 6.32333 	 30.8123
| 12> H 	 -41.2835 	 7.19415 	 32.2418
| 13> C 	 -42.6219 	 4.7326 	 32.7915
| 14> H 	 -42.7333 	 3.61827 	 32.8254
| 15> H 	 -43.5791 	 5.10812 	 32.4965
| 16> C 	 -42.4018 	 5.00011 	 34.2983
| 17> H 	 -41.5441 	 4.42317 	 34.7498
| 18> H 	 -42.3133 	 6.10292 	 34.5241
| 19> C 	 -43.6779 	 4.6468 	 35.2053
| 20> H 	 -43.3708 	 5.08957 	 36.2061
| 21> H 	 -44.5323 	 5.11209 	 34.8366
| 22> H 	 -43.8024 	 3.54555 	 35.1726
| 23> S 	 -40.182 	 8.94509 	 30.0046
| 24> C 	 -38.6911 	 9.8788 	 29.7696
| 25> C 	 -37.6103 	 9.02999 	 29.6608
| 26> C 	 -37.9147 	 7.70844 	 30.0245
| 27> C 	 -39.2553 	 7.52265 	 30.3663
| 28> H 	 -36.6568 	 9.36482 	 29.4028
| 29> C 	 -36.827 	 6.59079 	 30.1157
| 30> H 	 -36.814 	 5.93466 	 29.2091
| 31> H 	 -37.1902 	 5.95935 	 30.9423
| 32> C 	 -35.3373 	 6.94994 	 30.5538
| 33> H 	 -34.828 	 7.30549 	 29.6208
| 34> H 	 -34.7861 	 6.11752 	 30.8143
| 35> C 	 -35.3193 	 7.88757 	 31.7501
| 36> H 	 -35.942 	 7.4978 	 32.5182
| 37> H 	 -35.6687 	 8.88824 	 31.599
| 38> H 	 -34.3773 	 7.86003 	 32.1592
| 39> H 	 -41.2244 	 2.97421 	 31.1024
| 40> H 	 -38.6522 	 10.9442 	 29.601
| 41> *
| 42>
| 43>                          ****END OF INPUT****

CARTESIAN COORDINATES (ANGSTROEM)
---------------------------------
  S    -39.491800    4.718140   30.323800
  C    -40.922100    4.023920   31.091900
  C    -41.555200    5.000850   31.869400
  C    -40.970300    6.271180   31.805100
  C    -39.975200    6.323330   30.812300
  H    -41.283500    7.194150   32.241800
  C    -42.621900    4.732600   32.791500
  H    -42.733300    3.618270   32.825400
  H    -43.579100    5.108120   32.496500
  C    -42.401800    5.000110   34.298300
  H    -41.544100    4.423170   34.749800
  H    -42.313300    6.102920   34.524100
  C    -43.677900    4.646800   35.205300
  H    -43.370800    5.089570   36.206100
  H    -44.532300    5.112090   34.836600
  H    -43.802400    3.545550   35.172600
  S    -40.182000    8.945090   30.004600
  C    -38.691100    9.878800   29.769600
  C    -37.610300    9.029990   29.660800
  C    -37.914700    7.708440   30.024500
  C    -39.255300    7.522650   30.366300
  H    -36.656800    9.364820   29.402800
  C    -36.827000    6.590790   30.115700
  H    -36.814000    5.934660   29.209100
  H    -37.190200    5.959350   30.942300
  C    -35.337300    6.949940   30.553800
  H    -34.828000    7.305490   29.620800
  H    -34.786100    6.117520   30.814300
  C    -35.319300    7.887570   31.750100
  H    -35.942000    7.497800   32.518200
  H    -35.668700    8.888240   31.599000
  H    -34.377300    7.860030   32.159200
  H    -41.224400    2.974210   31.102400
  H    -38.652200   10.944200   29.601000

 Total Charge           Charge          ....    0
 Multiplicity           Mult            ....    1
 Number of Electrons    NEL             ....  134
 Basis Dimension        Dim             ....  322

ORBITAL ENERGIES
----------------

  NO   OCC          E(Eh)            E(eV)
   0   2.0000     -88.969358     -2420.9793
   1   2.0000     -88.967833     -2420.9378
   2   2.0000     -10.332043      -281.1492
   3   2.0000     -10.326537      -280.9994
   4   2.0000     -10.317776      -280.7610
   5   2.0000     -10.316630      -280.7298
   6   2.0000     -10.302911      -280.3565
   7   2.0000     -10.297256      -280.2026
   8   2.0000     -10.296911      -280.1932
   9   2.0000     -10.295728      -280.1610
  10   2.0000     -10.290935      -280.0306
  11   2.0000     -10.289045      -279.9791
  12   2.0000     -10.286560      -279.9115
  13   2.0000     -10.286333      -279.9054
  14   2.0000     -10.284191      -279.8471
  15   2.0000     -10.262554      -279.2583
  16   2.0000      -8.083158      -219.9539
  17   2.0000      -8.082210      -219.9281
  18   2.0000      -6.041673      -164.4023
  19   2.0000      -6.040733      -164.3767
  20   2.0000      -6.037778      -164.2963
  21   2.0000      -6.036871      -164.2716
  22   2.0000      -6.033986      -164.1931
  23   2.0000      -6.032881      -164.1630
  24   2.0000      -1.007193       -27.4071
  25   2.0000      -0.985636       -26.8205
  26   2.0000      -0.912326       -24.8257
  27   2.0000      -0.901422       -24.5289
  28   2.0000      -0.866991       -23.5920
  29   2.0000      -0.853245       -23.2180
  30   2.0000      -0.843827       -22.9617
  31   2.0000      -0.816357       -22.2142
  32   2.0000      -0.781233       -21.2584
  33   2.0000      -0.769263       -20.9327
  34   2.0000      -0.709649       -19.3105
  35   2.0000      -0.699425       -19.0323
  36   2.0000      -0.687102       -18.6970
  37   2.0000      -0.667826       -18.1725
  38   2.0000      -0.637362       -17.3435
  39   2.0000      -0.619635       -16.8611
  40   2.0000      -0.590315       -16.0633
  41   2.0000      -0.574573       -15.6349
  42   2.0000      -0.561451       -15.2779
  43   2.0000      -0.549885       -14.9631
  44   2.0000      -0.549019       -14.9396
  45   2.0000      -0.526333       -14.3222
  46   2.0000      -0.517256       -14.0753
  47   2.0000      -0.515280       -14.0215
  48   2.0000      -0.502399       -13.6710
  49   2.0000      -0.498843       -13.5742
  50   2.0000      -0.489634       -13.3236
  51   2.0000      -0.480487       -13.0747
  52   2.0000      -0.464378       -12.6364
  53   2.0000      -0.462959       -12.5977
  54   2.0000      -0.457400       -12.4465
  55   2.0000      -0.454327       -12.3629
  56   2.0000      -0.450861       -12.2685
  57   2.0000      -0.439337       -11.9550
  58   2.0000      -0.436605       -11.8806
  59   2.0000      -0.425539       -11.5795
  60   2.0000      -0.417782       -11.3684
  61   2.0000      -0.406356       -11.0575
  62   2.0000      -0.400250       -10.8914
  63   2.0000      -0.348252        -9.4764
  64   2.0000      -0.335214        -9.1216
  65   2.0000      -0.328570        -8.9408
  66   2.0000      -0.284130        -7.7316
  67   0.0000       0.019429         0.5287
  68   0.0000       0.075011         2.0412
  69   0.0000       0.108602         2.9552
  70   0.0000       0.113013         3.0752
  71   0.0000       0.132341         3.6012

MULLIKEN ATOMIC CHARGES
-----------------------
   0 S :    0.104960
   1 C :   -0.109193
   2 C :   -0.048863
   3 C :    0.027930
   4 C :   -0.158045
   5 H :    0.010222
   6 C :    0.074453
   7 H :    0.006152
   8 H :    0.027052
   9 C :   -0.148706
  10 H :    0.049223
  11 H :    0.037219
  12 C :   -0.059458
  13 H :    0.052042
  14 H :    0.023603
  15 H :    0.040320
  16 S :    0.109955
  17 C :   -0.098275
  18 C :   -0.004032
  19 C :   -0.041075
  20 C :   -0.141101
  21 H :   -0.001874
  22 C :   -0.002867
  23 H :    0.055493
  24 H :    0.036198
  25 C :   -0.054579
  26 H :    0.028995
  27 H :    0.014258
  28 C :    0.005469
  29 H :    0.016311
  30 H :    0.029649
  31 H :    0.011174
  32 H :    0.052113
  33 H :    0.055277
Sum of atomic charges:   -0.0000000

LOEWDIN ATOMIC CHARGES
----------------------
   0 S :    0.420760
   1 C :   -0.199414
   2 C :   -0.068352
   3 C :   -0.057001
   4 C :   -0.184575
   5 H :    0.027317
   6 C :   -0.043096
   7 H :    0.033295
   8 H :    0.028211
   9 C :   -0.042048
  10 H :    0.030670
  11 H :    0.021998
  12 C :   -0.061837
  13 H :    0.037952
  14 H :    0.011191
  15 H :    0.025125
  16 S :    0.408685
  17 C :   -0.177331
  18 C :   -0.058827
  19 C :   -0.063343
  20 C :   -0.200917
  21 H :    0.022901
  22 C :   -0.045737
  23 H :    0.033103
  24 H :    0.022064
  25 C :   -0.033628
  26 H :    0.023869
  27 H :    0.017664
  28 C :   -0.055548
  29 H :    0.027035
  30 H :    0.023104
  31 H :    0.016808
  32 H :    0.032246
  33 H :    0.027657

  Mayer bond orders larger than 0.100000
B(  0-S ,  1-C ) :   1.1314 B(  0-S ,  4-C ) :   1.1648 B(  1-C ,  2-C ) :   1.5793
B(  1-C ,  4-C ) :   0.1008 B(  1-C , 32-H ) :   0.9648 B(  2-C ,  3-C ) :   1.2516
B(  2-C ,  6-C ) :   1.0552 B(  3-C ,  4-C ) :   1.5265 B(  3-C ,  5-H ) :   0.9975
B(  4-C , 20-C ) :   1.0501 B(  6-C ,  7-H ) :   0.9364 B(  6-C ,  8-H ) :   0.9265
B(  6-C ,  9-C ) :   1.0569 B(  9-C , 10-H ) :   0.9605 B(  9-C , 11-H ) :   0.9565
B(  9-C , 12-C ) :   1.0658 B( 12-C , 13-H ) :   0.9780 B( 12-C , 14-H ) :   0.9778
B( 12-C , 15-H ) :   0.9787 B( 16-S , 17-C ) :   1.1465 B( 16-S , 20-C ) :   1.1552
B( 17-C , 18-C ) :   1.5790 B( 17-C , 20-C ) :   0.1048 B( 17-C , 33-H ) :   0.9705
B( 18-C , 19-C ) :   1.2731 B( 18-C , 21-H ) :   0.9974 B( 19-C , 20-C ) :   1.5651
B( 19-C , 22-C ) :   1.0142 B( 22-C , 23-H ) :   0.9431 B( 22-C , 24-H ) :   0.9340
B( 22-C , 25-C ) :   1.0684 B( 25-C , 26-H ) :   0.9528 B( 25-C , 27-H ) :   0.9562
B( 25-C , 28-C ) :   1.0822 B( 28-C , 29-H ) :   0.9684 B( 28-C , 30-H ) :   0.9715
B( 28-C , 31-H ) :   0.9704

Dispersion correction           -0.013996733
FINAL SINGLE POINT ENERGY     -1339.856268483229

DIPOLE MOMENT
-------------
                                X             Y             Z
Electronic contribution:     -2.86489       5.30005     -17.55406
Nuclear contribution   :      3.01640      -5.35262      17.88301
                        -----------------------------------------
Total Dipole Moment    :      0.15151      -0.05257       0.32895
                        -----------------------------------------
Magnitude (a.u.)       :      0.36596
Magnitude (Debye)      :      0.93020

Rotational constants in cm-1:     0.021611     0.007293     0.006601
Rotational constants in MHz :   647.877078   218.640474   197.906124

                             ****ORCA TERMINATED NORMALLY****
TOTAL RUN TIME: 0 days 0 hours 0 minutes 21 seconds 581 msec
