                         Program Version 4.2.1 -  RELEASE  -
|  1> ! wB97X-D3 SP def2-SVP
|  2> %pal
|  3> nprocs 24
|  4> end
|  5>
|  6> * xyz 0 1
|  7> S 	 -92.3071 	 0.974695 	 1.62514
|  8> C 	 -91.3078 	 0.0674537 	 2.72369
|  9> C 	 -90.8446 	 0.876409 	 3.75635
| 10> C 	 -91.4027 	 2.20993 	 3.66772
| 11> C 	 -92.3115 	 2.40783 	 2.62545
| 12> H 	 -91.1553 	 3.03225 	 4.31196
| 13> C 	 -90.0827 	 0.415824 	 4.94031
| 14> H 	 -90.5924 	 -0.522806 	 5.28315
| 15> H 	 -90.1562 	 1.16307 	 5.69546
| 16> C 	 -88.637 	 0.243531 	 4.577
| 17> H 	 -87.9977 	 -0.331845 	 5.23648
| 18> H 	 -88.6017 	 -0.268841 	 3.61128
| 19> C 	 -87.8638 	 1.53899 	 4.18541
| 20> H 	 -87.7864 	 2.02658 	 5.13431
| 21> H 	 -86.7952 	 1.30131 	 3.78178
| 22> H 	 -88.4756 	 2.19251 	 3.44902
| 23> S 	 -94.6768 	 3.37226 	 1.62923
| 24> C 	 -94.9346 	 5.12145 	 1.49415
| 25> C 	 -93.7856 	 5.81671 	 1.67372
| 26> C 	 -92.6957 	 5.00904 	 2.12
| 27> C 	 -92.985 	 3.65308 	 2.16283
| 28> H 	 -93.6492 	 6.85403 	 1.46435
| 29> C 	 -91.2819 	 5.59338 	 2.39403
| 30> H 	 -91.0228 	 5.13191 	 3.28896
| 31> H 	 -91.3064 	 6.63471 	 2.61125
| 32> C 	 -90.2696 	 5.38778 	 1.27046
| 33> H 	 -90.7078 	 5.52112 	 0.252709
| 34> H 	 -89.7238 	 4.46825 	 1.32037
| 35> C 	 -89.2189 	 6.5438 	 1.2681
| 36> H 	 -89.8107 	 7.39886 	 0.914504
| 37> H 	 -88.5576 	 6.42792 	 0.390548
| 38> H 	 -88.5967 	 6.73 	 2.12826
| 39> H 	 -91.073 	 -0.979242 	 2.59283
| 40> H 	 -95.8288 	 5.5753 	 1.1775
| 41> *
| 42>
| 43>                          ****END OF INPUT****

CARTESIAN COORDINATES (ANGSTROEM)
---------------------------------
  S    -92.307100    0.974695    1.625140
  C    -91.307800    0.067454    2.723690
  C    -90.844600    0.876409    3.756350
  C    -91.402700    2.209930    3.667720
  C    -92.311500    2.407830    2.625450
  H    -91.155300    3.032250    4.311960
  C    -90.082700    0.415824    4.940310
  H    -90.592400   -0.522806    5.283150
  H    -90.156200    1.163070    5.695460
  C    -88.637000    0.243531    4.577000
  H    -87.997700   -0.331845    5.236480
  H    -88.601700   -0.268841    3.611280
  C    -87.863800    1.538990    4.185410
  H    -87.786400    2.026580    5.134310
  H    -86.795200    1.301310    3.781780
  H    -88.475600    2.192510    3.449020
  S    -94.676800    3.372260    1.629230
  C    -94.934600    5.121450    1.494150
  C    -93.785600    5.816710    1.673720
  C    -92.695700    5.009040    2.120000
  C    -92.985000    3.653080    2.162830
  H    -93.649200    6.854030    1.464350
  C    -91.281900    5.593380    2.394030
  H    -91.022800    5.131910    3.288960
  H    -91.306400    6.634710    2.611250
  C    -90.269600    5.387780    1.270460
  H    -90.707800    5.521120    0.252709
  H    -89.723800    4.468250    1.320370
  C    -89.218900    6.543800    1.268100
  H    -89.810700    7.398860    0.914504
  H    -88.557600    6.427920    0.390548
  H    -88.596700    6.730000    2.128260
  H    -91.073000   -0.979242    2.592830
  H    -95.828800    5.575300    1.177500

 Total Charge           Charge          ....    0
 Multiplicity           Mult            ....    1
 Number of Electrons    NEL             ....  134
 Basis Dimension        Dim             ....  322

ORBITAL ENERGIES
----------------

  NO   OCC          E(Eh)            E(eV)
   0   2.0000     -88.966011     -2420.8882
   1   2.0000     -88.964058     -2420.8351
   2   2.0000     -10.335081      -281.2318
   3   2.0000     -10.333792      -281.1968
   4   2.0000     -10.316226      -280.7188
   5   2.0000     -10.315286      -280.6932
   6   2.0000     -10.306857      -280.4638
   7   2.0000     -10.302593      -280.3478
   8   2.0000     -10.296483      -280.1815
   9   2.0000     -10.292023      -280.0602
  10   2.0000     -10.291948      -280.0581
  11   2.0000     -10.289754      -279.9984
  12   2.0000     -10.287508      -279.9373
  13   2.0000     -10.287153      -279.9277
  14   2.0000     -10.283172      -279.8193
  15   2.0000     -10.278487      -279.6918
  16   2.0000      -8.080848      -219.8911
  17   2.0000      -8.078001      -219.8136
  18   2.0000      -6.039375      -164.3397
  19   2.0000      -6.036651      -164.2656
  20   2.0000      -6.035240      -164.2272
  21   2.0000      -6.032695      -164.1580
  22   2.0000      -6.031683      -164.1304
  23   2.0000      -6.028576      -164.0459
  24   2.0000      -1.003329       -27.3020
  25   2.0000      -0.983129       -26.7523
  26   2.0000      -0.920406       -25.0455
  27   2.0000      -0.907859       -24.7041
  28   2.0000      -0.866829       -23.5876
  29   2.0000      -0.848875       -23.0991
  30   2.0000      -0.841747       -22.9051
  31   2.0000      -0.816719       -22.2241
  32   2.0000      -0.782323       -21.2881
  33   2.0000      -0.772245       -21.0139
  34   2.0000      -0.705023       -19.1847
  35   2.0000      -0.697872       -18.9901
  36   2.0000      -0.691272       -18.8105
  37   2.0000      -0.668612       -18.1938
  38   2.0000      -0.643380       -17.5073
  39   2.0000      -0.613801       -16.7024
  40   2.0000      -0.597555       -16.2603
  41   2.0000      -0.579827       -15.7779
  42   2.0000      -0.572203       -15.5704
  43   2.0000      -0.554759       -15.0958
  44   2.0000      -0.539309       -14.6753
  45   2.0000      -0.531313       -14.4578
  46   2.0000      -0.518975       -14.1220
  47   2.0000      -0.514241       -13.9932
  48   2.0000      -0.502859       -13.6835
  49   2.0000      -0.497020       -13.5246
  50   2.0000      -0.492096       -13.3906
  51   2.0000      -0.475411       -12.9366
  52   2.0000      -0.469699       -12.7812
  53   2.0000      -0.462789       -12.5931
  54   2.0000      -0.459300       -12.4982
  55   2.0000      -0.446435       -12.1481
  56   2.0000      -0.445027       -12.1098
  57   2.0000      -0.438121       -11.9219
  58   2.0000      -0.431867       -11.7517
  59   2.0000      -0.422987       -11.5101
  60   2.0000      -0.421222       -11.4620
  61   2.0000      -0.412199       -11.2165
  62   2.0000      -0.404541       -11.0081
  63   2.0000      -0.351764        -9.5720
  64   2.0000      -0.331549        -9.0219
  65   2.0000      -0.329164        -8.9570
  66   2.0000      -0.291727        -7.9383
  67   0.0000       0.025312         0.6888
  68   0.0000       0.068490         1.8637
  69   0.0000       0.107957         2.9377
  70   0.0000       0.116732         3.1764
  71   0.0000       0.129048         3.5116

MULLIKEN ATOMIC CHARGES
-----------------------
   0 S :    0.106012
   1 C :   -0.112989
   2 C :   -0.130169
   3 C :    0.009971
   4 C :   -0.109256
   5 H :    0.007615
   6 C :    0.113859
   7 H :    0.050457
   8 H :    0.009886
   9 C :   -0.070730
  10 H :    0.028034
  11 H :    0.018381
  12 C :   -0.119899
  13 H :    0.024762
  14 H :    0.058673
  15 H :    0.061654
  16 S :    0.081972
  17 C :   -0.055203
  18 C :   -0.015251
  19 C :   -0.084314
  20 C :   -0.149870
  21 H :    0.009778
  22 C :    0.149776
  23 H :   -0.002133
  24 H :    0.000023
  25 C :   -0.057102
  26 H :    0.037584
  27 H :    0.039467
  28 C :   -0.093559
  29 H :    0.026365
  30 H :    0.027699
  31 H :    0.046464
  32 H :    0.051317
  33 H :    0.040726
Sum of atomic charges:    0.0000000

LOEWDIN ATOMIC CHARGES
----------------------
   0 S :    0.413267
   1 C :   -0.198915
   2 C :   -0.061733
   3 C :   -0.068984
   4 C :   -0.196044
   5 H :    0.024777
   6 C :   -0.029934
   7 H :    0.045417
   8 H :    0.023594
   9 C :   -0.047825
  10 H :    0.020129
  11 H :    0.021798
  12 C :   -0.075905
  13 H :    0.014251
  14 H :    0.039633
  15 H :    0.035194
  16 S :    0.375327
  17 C :   -0.160822
  18 C :   -0.069242
  19 C :   -0.049855
  20 C :   -0.182121
  21 H :    0.029841
  22 C :   -0.021300
  23 H :    0.022255
  24 H :    0.024850
  25 C :   -0.032670
  26 H :    0.033912
  27 H :    0.021285
  28 C :   -0.073993
  29 H :    0.025142
  30 H :    0.028025
  31 H :    0.020825
  32 H :    0.028752
  33 H :    0.021070

  Mayer bond orders larger than 0.100000
B(  0-S ,  1-C ) :   1.1467 B(  0-S ,  4-C ) :   1.1639 B(  1-C ,  2-C ) :   1.5906
B(  1-C ,  4-C ) :   0.1010 B(  1-C , 32-H ) :   0.9679 B(  2-C ,  3-C ) :   1.2497
B(  2-C ,  6-C ) :   1.0162 B(  3-C ,  4-C ) :   1.5669 B(  3-C ,  5-H ) :   0.9973
B(  4-C , 20-C ) :   1.0104 B(  6-C ,  7-H ) :   0.9404 B(  6-C ,  8-H ) :   0.9444
B(  6-C ,  9-C ) :   1.0566 B(  9-C , 10-H ) :   0.9594 B(  9-C , 11-H ) :   0.9607
B(  9-C , 12-C ) :   1.0563 B( 12-C , 13-H ) :   0.9786 B( 12-C , 14-H ) :   0.9731
B( 12-C , 15-H ) :   0.9716 B( 16-S , 17-C ) :   1.1437 B( 16-S , 20-C ) :   1.1200
B( 17-C , 18-C ) :   1.6160 B( 17-C , 33-H ) :   0.9715 B( 18-C , 19-C ) :   1.2402
B( 18-C , 21-H ) :   0.9919 B( 19-C , 20-C ) :   1.6261 B( 19-C , 22-C ) :   1.0309
B( 22-C , 23-H ) :   0.9225 B( 22-C , 24-H ) :   0.9355 B( 22-C , 25-C ) :   1.0568
B( 25-C , 26-H ) :   0.9610 B( 25-C , 27-H ) :   0.9581 B( 25-C , 28-C ) :   1.0771
B( 28-C , 29-H ) :   0.9773 B( 28-C , 30-H ) :   0.9744 B( 28-C , 31-H ) :   0.9778

Dispersion correction           -0.014491520
FINAL SINGLE POINT ENERGY     -1339.866018468923

DIPOLE MOMENT
-------------
                                X             Y             Z
Electronic contribution:    -27.35803      -8.24428      -7.13847
Nuclear contribution   :     27.87426       8.55310       7.35072
                        -----------------------------------------
Total Dipole Moment    :      0.51623       0.30882       0.21225
                        -----------------------------------------
Magnitude (a.u.)       :      0.63790
Magnitude (Debye)      :      1.62140

Rotational constants in cm-1:     0.017937     0.009478     0.006868
Rotational constants in MHz :   537.742148   284.140052   205.887328

                             ****ORCA TERMINATED NORMALLY****
TOTAL RUN TIME: 0 days 0 hours 0 minutes 21 seconds 925 msec
