                         Program Version 4.2.1 -  RELEASE  -
|  1> ! wB97X-D3 SP def2-SVP
|  2> %pal
|  3> nprocs 24
|  4> end
|  5>
|  6> * xyz 0 1
|  7> S 	 -91.6892 	 -5.85416 	 -116.567
|  8> C 	 -90.9374 	 -4.81422 	 -115.395
|  9> C 	 -91.1798 	 -3.45439 	 -115.563
| 10> C 	 -92.2494 	 -3.22268 	 -116.548
| 11> C 	 -92.6676 	 -4.44389 	 -117.178
| 12> H 	 -92.5749 	 -2.25299 	 -116.798
| 13> C 	 -90.5367 	 -2.33819 	 -114.768
| 14> H 	 -90.392 	 -1.49725 	 -115.419
| 15> H 	 -89.5235 	 -2.76223 	 -114.638
| 16> C 	 -91.2051 	 -2.07865 	 -113.41
| 17> H 	 -92.1174 	 -1.48969 	 -113.496
| 18> H 	 -91.3898 	 -3.01805 	 -112.827
| 19> C 	 -90.2076 	 -1.29595 	 -112.436
| 20> H 	 -89.7805 	 -0.534406 	 -113.025
| 21> H 	 -90.824 	 -0.782872 	 -111.741
| 22> H 	 -89.3951 	 -1.95541 	 -112.076
| 23> S 	 -93.0075 	 -5.42949 	 -119.707
| 24> C 	 -94.4575 	 -5.18732 	 -120.55
| 25> C 	 -95.2968 	 -4.2237 	 -119.901
| 26> C 	 -94.704 	 -3.75398 	 -118.664
| 27> C 	 -93.5896 	 -4.5331 	 -118.319
| 28> H 	 -96.2266 	 -3.97096 	 -120.406
| 29> C 	 -95.3833 	 -2.79039 	 -117.721
| 30> H 	 -94.7908 	 -2.55457 	 -116.842
| 31> H 	 -96.2831 	 -3.31175 	 -117.364
| 32> C 	 -95.843 	 -1.49485 	 -118.432
| 33> H 	 -96.6275 	 -1.65773 	 -119.133
| 34> H 	 -94.9777 	 -1.03185 	 -118.913
| 35> C 	 -96.2273 	 -0.421796 	 -117.506
| 36> H 	 -96.494 	 0.474517 	 -118.03
| 37> H 	 -95.5806 	 -0.0725826 	 -116.715
| 38> H 	 -97.0646 	 -0.748626 	 -116.926
| 39> H 	 -90.1692 	 -5.2172 	 -114.682
| 40> H 	 -94.6248 	 -5.49687 	 -121.556
| 41> *
| 42>
| 43>                          ****END OF INPUT****

CARTESIAN COORDINATES (ANGSTROEM)
---------------------------------
  S    -91.689200   -5.854160  -116.567000
  C    -90.937400   -4.814220  -115.395000
  C    -91.179800   -3.454390  -115.563000
  C    -92.249400   -3.222680  -116.548000
  C    -92.667600   -4.443890  -117.178000
  H    -92.574900   -2.252990  -116.798000
  C    -90.536700   -2.338190  -114.768000
  H    -90.392000   -1.497250  -115.419000
  H    -89.523500   -2.762230  -114.638000
  C    -91.205100   -2.078650  -113.410000
  H    -92.117400   -1.489690  -113.496000
  H    -91.389800   -3.018050  -112.827000
  C    -90.207600   -1.295950  -112.436000
  H    -89.780500   -0.534406  -113.025000
  H    -90.824000   -0.782872  -111.741000
  H    -89.395100   -1.955410  -112.076000
  S    -93.007500   -5.429490  -119.707000
  C    -94.457500   -5.187320  -120.550000
  C    -95.296800   -4.223700  -119.901000
  C    -94.704000   -3.753980  -118.664000
  C    -93.589600   -4.533100  -118.319000
  H    -96.226600   -3.970960  -120.406000
  C    -95.383300   -2.790390  -117.721000
  H    -94.790800   -2.554570  -116.842000
  H    -96.283100   -3.311750  -117.364000
  C    -95.843000   -1.494850  -118.432000
  H    -96.627500   -1.657730  -119.133000
  H    -94.977700   -1.031850  -118.913000
  C    -96.227300   -0.421796  -117.506000
  H    -96.494000    0.474517  -118.030000
  H    -95.580600   -0.072583  -116.715000
  H    -97.064600   -0.748626  -116.926000
  H    -90.169200   -5.217200  -114.682000
  H    -94.624800   -5.496870  -121.556000

 Total Charge           Charge          ....    0
 Multiplicity           Mult            ....    1
 Number of Electrons    NEL             ....  134
 Basis Dimension        Dim             ....  322

ORBITAL ENERGIES
----------------

  NO   OCC          E(Eh)            E(eV)
   0   2.0000     -88.970578     -2421.0125
   1   2.0000     -88.964677     -2420.8519
   2   2.0000     -10.340375      -281.3759
   3   2.0000     -10.325785      -280.9789
   4   2.0000     -10.316571      -280.7282
   5   2.0000     -10.313562      -280.6463
   6   2.0000     -10.307769      -280.4887
   7   2.0000     -10.303581      -280.3747
   8   2.0000     -10.300820      -280.2996
   9   2.0000     -10.300167      -280.2818
  10   2.0000     -10.294696      -280.1329
  11   2.0000     -10.294585      -280.1299
  12   2.0000     -10.291073      -280.0343
  13   2.0000     -10.281298      -279.7683
  14   2.0000     -10.276269      -279.6315
  15   2.0000     -10.267456      -279.3917
  16   2.0000      -8.084028      -219.9776
  17   2.0000      -8.080286      -219.8758
  18   2.0000      -6.042622      -164.4281
  19   2.0000      -6.038832      -164.3250
  20   2.0000      -6.038605      -164.3188
  21   2.0000      -6.034691      -164.2123
  22   2.0000      -6.034673      -164.2118
  23   2.0000      -6.031183      -164.1168
  24   2.0000      -0.999872       -27.2079
  25   2.0000      -0.974372       -26.5140
  26   2.0000      -0.916928       -24.9509
  27   2.0000      -0.906911       -24.6783
  28   2.0000      -0.864816       -23.5328
  29   2.0000      -0.855969       -23.2921
  30   2.0000      -0.844870       -22.9901
  31   2.0000      -0.806920       -21.9574
  32   2.0000      -0.783028       -21.3073
  33   2.0000      -0.766996       -20.8710
  34   2.0000      -0.705894       -19.2083
  35   2.0000      -0.700707       -19.0672
  36   2.0000      -0.694416       -18.8960
  37   2.0000      -0.657783       -17.8992
  38   2.0000      -0.633958       -17.2509
  39   2.0000      -0.616763       -16.7830
  40   2.0000      -0.593859       -16.1597
  41   2.0000      -0.575181       -15.6515
  42   2.0000      -0.572143       -15.5688
  43   2.0000      -0.554545       -15.0899
  44   2.0000      -0.532058       -14.4780
  45   2.0000      -0.528195       -14.3729
  46   2.0000      -0.519371       -14.1328
  47   2.0000      -0.510738       -13.8979
  48   2.0000      -0.502207       -13.6657
  49   2.0000      -0.495438       -13.4816
  50   2.0000      -0.489287       -13.3142
  51   2.0000      -0.481207       -13.0943
  52   2.0000      -0.472825       -12.8662
  53   2.0000      -0.467171       -12.7124
  54   2.0000      -0.457763       -12.4564
  55   2.0000      -0.448486       -12.2039
  56   2.0000      -0.443503       -12.0683
  57   2.0000      -0.439676       -11.9642
  58   2.0000      -0.438587       -11.9346
  59   2.0000      -0.428515       -11.6605
  60   2.0000      -0.420636       -11.4461
  61   2.0000      -0.410605       -11.1731
  62   2.0000      -0.408814       -11.1244
  63   2.0000      -0.349950        -9.5226
  64   2.0000      -0.327461        -8.9107
  65   2.0000      -0.326175        -8.8757
  66   2.0000      -0.279541        -7.6067
  67   0.0000       0.022460         0.6112
  68   0.0000       0.069471         1.8904
  69   0.0000       0.100292         2.7291
  70   0.0000       0.121288         3.3004
  71   0.0000       0.125290         3.4093

MULLIKEN ATOMIC CHARGES
-----------------------
   0 S :    0.112779
   1 C :   -0.138417
   2 C :   -0.115719
   3 C :    0.042490
   4 C :   -0.149390
   5 H :    0.000156
   6 C :    0.072092
   7 H :    0.026023
   8 H :    0.022147
   9 C :   -0.091517
  10 H :    0.035011
  11 H :    0.046445
  12 C :   -0.028598
  13 H :    0.010699
  14 H :    0.027760
  15 H :    0.048400
  16 S :    0.113074
  17 C :   -0.088316
  18 C :   -0.056245
  19 C :   -0.023956
  20 C :   -0.135371
  21 H :    0.026315
  22 C :    0.054873
  23 H :    0.015281
  24 H :    0.041960
  25 C :   -0.063720
  26 H :    0.030479
  27 H :    0.026847
  28 C :   -0.028371
  29 H :    0.026021
  30 H :    0.019563
  31 H :    0.005588
  32 H :    0.064110
  33 H :    0.051509
Sum of atomic charges:   -0.0000000

LOEWDIN ATOMIC CHARGES
----------------------
   0 S :    0.386329
   1 C :   -0.212479
   2 C :   -0.061082
   3 C :   -0.051900
   4 C :   -0.174614
   5 H :    0.020426
   6 C :   -0.037674
   7 H :    0.029224
   8 H :    0.035527
   9 C :   -0.035346
  10 H :    0.023302
  11 H :    0.032461
  12 C :   -0.060187
  13 H :    0.014778
  14 H :    0.022260
  15 H :    0.030270
  16 S :    0.431218
  17 C :   -0.204254
  18 C :   -0.071546
  19 C :   -0.051844
  20 C :   -0.203411
  21 H :    0.031641
  22 C :   -0.029004
  23 H :    0.027227
  24 H :    0.038138
  25 C :   -0.037967
  26 H :    0.022817
  27 H :    0.027717
  28 C :   -0.067116
  29 H :    0.025561
  30 H :    0.022931
  31 H :    0.018390
  32 H :    0.035077
  33 H :    0.023134

  Mayer bond orders larger than 0.100000
B(  0-S ,  1-C ) :   1.1348 B(  0-S ,  4-C ) :   1.1406 B(  1-C ,  2-C ) :   1.6259
B(  1-C , 32-H ) :   0.9560 B(  2-C ,  3-C ) :   1.2409 B(  2-C ,  6-C ) :   1.0215
B(  3-C ,  4-C ) :   1.5454 B(  3-C ,  5-H ) :   0.9893 B(  4-C , 20-C ) :   1.0675
B(  6-C ,  7-H ) :   0.9363 B(  6-C ,  8-H ) :   0.9413 B(  6-C ,  9-C ) :   1.0554
B(  9-C , 10-H ) :   0.9597 B(  9-C , 11-H ) :   0.9628 B(  9-C , 12-C ) :   1.0698
B( 12-C , 13-H ) :   0.9757 B( 12-C , 14-H ) :   0.9759 B( 12-C , 15-H ) :   0.9795
B( 16-S , 17-C ) :   1.1826 B( 16-S , 20-C ) :   1.1535 B( 17-C , 18-C ) :   1.5779
B( 17-C , 33-H ) :   0.9705 B( 18-C , 19-C ) :   1.2378 B( 18-C , 21-H ) :   0.9922
B( 19-C , 20-C ) :   1.5589 B( 19-C , 22-C ) :   1.0557 B( 22-C , 23-H ) :   0.9416
B( 22-C , 24-H ) :   0.9292 B( 22-C , 25-C ) :   1.0580 B( 25-C , 26-H ) :   0.9490
B( 25-C , 27-H ) :   0.9591 B( 25-C , 28-C ) :   1.1016 B( 28-C , 29-H ) :   0.9700
B( 28-C , 30-H ) :   0.9715 B( 28-C , 31-H ) :   0.9640

Dispersion correction           -0.013472157
FINAL SINGLE POINT ENERGY     -1339.858895711583

DIPOLE MOMENT
-------------
                                X             Y             Z
Electronic contribution:      4.96189     -26.49946     -16.90933
Nuclear contribution   :     -5.04934      27.22523      17.08258
                        -----------------------------------------
Total Dipole Moment    :     -0.08745       0.72577       0.17325
                        -----------------------------------------
Magnitude (a.u.)       :      0.75127
Magnitude (Debye)      :      1.90957

Rotational constants in cm-1:     0.017397     0.008495     0.005958
Rotational constants in MHz :   521.534540   254.659320   178.625250

                             ****ORCA TERMINATED NORMALLY****
TOTAL RUN TIME: 0 days 0 hours 0 minutes 20 seconds 935 msec
