                         Program Version 4.2.1 -  RELEASE  -
|  1> ! wB97X-D3 SP def2-SVP
|  2> %pal
|  3> nprocs 24
|  4> end
|  5>
|  6> * xyz 0 1
|  7> S 	 -117.875 	 46.9182 	 -33.4138
|  8> C 	 -117.682 	 45.2621 	 -32.9054
|  9> C 	 -118.556 	 44.9095 	 -31.8659
| 10> C 	 -119.343 	 46.0187 	 -31.496
| 11> C 	 -119.107 	 47.1831 	 -32.1766
| 12> H 	 -120.272 	 45.9918 	 -30.8804
| 13> C 	 -118.731 	 43.5717 	 -31.1609
| 14> H 	 -117.944 	 42.8715 	 -31.4467
| 15> H 	 -119.697 	 43.1914 	 -31.495
| 16> C 	 -118.728 	 43.4826 	 -29.5827
| 17> H 	 -119.598 	 43.8769 	 -29.0916
| 18> H 	 -118.84 	 42.4426 	 -29.3889
| 19> C 	 -117.398 	 43.99 	 -28.9852
| 20> H 	 -117.233 	 45.0804 	 -29.2002
| 21> H 	 -117.328 	 43.7673 	 -27.9338
| 22> H 	 -116.541 	 43.5881 	 -29.4879
| 23> S 	 -120.753 	 48.6087 	 -33.7894
| 24> C 	 -121.785 	 49.8703 	 -33.0916
| 25> C 	 -121.537 	 50.0822 	 -31.7687
| 26> C 	 -120.589 	 49.1612 	 -31.2327
| 27> C 	 -120.045 	 48.3485 	 -32.2646
| 28> H 	 -121.983 	 50.8669 	 -31.2238
| 29> C 	 -120.011 	 49.2004 	 -29.8467
| 30> H 	 -119.497 	 50.0954 	 -29.6747
| 31> H 	 -119.285 	 48.3637 	 -29.6983
| 32> C 	 -120.983 	 49.1284 	 -28.6244
| 33> H 	 -120.309 	 48.8492 	 -27.8107
| 34> H 	 -121.766 	 48.3559 	 -28.5555
| 35> C 	 -121.556 	 50.528 	 -28.2065
| 36> H 	 -122.434 	 50.7935 	 -28.8427
| 37> H 	 -120.775 	 51.2698 	 -28.3816
| 38> H 	 -121.928 	 50.5645 	 -27.1729
| 39> H 	 -116.912 	 44.6556 	 -33.2914
| 40> H 	 -122.495 	 50.4402 	 -33.6463
| 41> *
| 42>
| 43>                          ****END OF INPUT****

CARTESIAN COORDINATES (ANGSTROEM)
---------------------------------
  S    -117.875000   46.918200  -33.413800
  C    -117.682000   45.262100  -32.905400
  C    -118.556000   44.909500  -31.865900
  C    -119.343000   46.018700  -31.496000
  C    -119.107000   47.183100  -32.176600
  H    -120.272000   45.991800  -30.880400
  C    -118.731000   43.571700  -31.160900
  H    -117.944000   42.871500  -31.446700
  H    -119.697000   43.191400  -31.495000
  C    -118.728000   43.482600  -29.582700
  H    -119.598000   43.876900  -29.091600
  H    -118.840000   42.442600  -29.388900
  C    -117.398000   43.990000  -28.985200
  H    -117.233000   45.080400  -29.200200
  H    -117.328000   43.767300  -27.933800
  H    -116.541000   43.588100  -29.487900
  S    -120.753000   48.608700  -33.789400
  C    -121.785000   49.870300  -33.091600
  C    -121.537000   50.082200  -31.768700
  C    -120.589000   49.161200  -31.232700
  C    -120.045000   48.348500  -32.264600
  H    -121.983000   50.866900  -31.223800
  C    -120.011000   49.200400  -29.846700
  H    -119.497000   50.095400  -29.674700
  H    -119.285000   48.363700  -29.698300
  C    -120.983000   49.128400  -28.624400
  H    -120.309000   48.849200  -27.810700
  H    -121.766000   48.355900  -28.555500
  C    -121.556000   50.528000  -28.206500
  H    -122.434000   50.793500  -28.842700
  H    -120.775000   51.269800  -28.381600
  H    -121.928000   50.564500  -27.172900
  H    -116.912000   44.655600  -33.291400
  H    -122.495000   50.440200  -33.646300

 Total Charge           Charge          ....    0
 Multiplicity           Mult            ....    1
 Number of Electrons    NEL             ....  134
 Basis Dimension        Dim             ....  322

ORBITAL ENERGIES
----------------

  NO   OCC          E(Eh)            E(eV)
   0   2.0000     -88.967154     -2420.9193
   1   2.0000     -88.966871     -2420.9116
   2   2.0000     -10.329120      -281.0696
   3   2.0000     -10.326421      -280.9962
   4   2.0000     -10.315033      -280.6863
   5   2.0000     -10.312718      -280.6233
   6   2.0000     -10.304272      -280.3935
   7   2.0000     -10.301974      -280.3310
   8   2.0000     -10.297668      -280.2138
   9   2.0000     -10.292114      -280.0627
  10   2.0000     -10.290164      -280.0096
  11   2.0000     -10.289785      -279.9993
  12   2.0000     -10.289329      -279.9869
  13   2.0000     -10.287897      -279.9479
  14   2.0000     -10.283466      -279.8273
  15   2.0000     -10.276566      -279.6396
  16   2.0000      -8.081997      -219.9223
  17   2.0000      -8.081737      -219.9152
  18   2.0000      -6.040384      -164.3672
  19   2.0000      -6.040151      -164.3609
  20   2.0000      -6.036441      -164.2599
  21   2.0000      -6.036293      -164.2559
  22   2.0000      -6.032861      -164.1625
  23   2.0000      -6.032594      -164.1552
  24   2.0000      -1.006842       -27.3976
  25   2.0000      -0.984253       -26.7829
  26   2.0000      -0.906790       -24.6750
  27   2.0000      -0.903898       -24.5963
  28   2.0000      -0.867798       -23.6140
  29   2.0000      -0.849335       -23.1116
  30   2.0000      -0.844664       -22.9845
  31   2.0000      -0.815582       -22.1931
  32   2.0000      -0.781763       -21.2729
  33   2.0000      -0.769798       -20.9473
  34   2.0000      -0.708993       -19.2927
  35   2.0000      -0.700356       -19.0577
  36   2.0000      -0.691317       -18.8117
  37   2.0000      -0.661536       -18.0013
  38   2.0000      -0.642240       -17.4762
  39   2.0000      -0.620458       -16.8835
  40   2.0000      -0.600424       -16.3384
  41   2.0000      -0.564054       -15.3487
  42   2.0000      -0.553915       -15.0728
  43   2.0000      -0.548198       -14.9172
  44   2.0000      -0.534567       -14.5463
  45   2.0000      -0.531008       -14.4495
  46   2.0000      -0.518547       -14.1104
  47   2.0000      -0.507669       -13.8144
  48   2.0000      -0.504623       -13.7315
  49   2.0000      -0.494603       -13.4588
  50   2.0000      -0.485135       -13.2012
  51   2.0000      -0.479822       -13.0566
  52   2.0000      -0.472345       -12.8532
  53   2.0000      -0.469313       -12.7707
  54   2.0000      -0.455574       -12.3968
  55   2.0000      -0.446536       -12.1509
  56   2.0000      -0.444276       -12.0894
  57   2.0000      -0.442317       -12.0360
  58   2.0000      -0.434832       -11.8324
  59   2.0000      -0.428694       -11.6653
  60   2.0000      -0.420890       -11.4530
  61   2.0000      -0.416453       -11.3323
  62   2.0000      -0.412174       -11.2158
  63   2.0000      -0.351765        -9.5720
  64   2.0000      -0.331529        -9.0214
  65   2.0000      -0.326328        -8.8798
  66   2.0000      -0.290204        -7.8969
  67   0.0000       0.034323         0.9340
  68   0.0000       0.067907         1.8478
  69   0.0000       0.113207         3.0805
  70   0.0000       0.122213         3.3256
  71   0.0000       0.129326         3.5191

MULLIKEN ATOMIC CHARGES
-----------------------
   0 S :    0.097959
   1 C :   -0.113004
   2 C :   -0.076436
   3 C :    0.023712
   4 C :   -0.160596
   5 H :    0.035130
   6 C :    0.044507
   7 H :    0.022074
   8 H :    0.041581
   9 C :   -0.049117
  10 H :    0.022845
  11 H :    0.018426
  12 C :   -0.050778
  13 H :    0.044528
  14 H :    0.038437
  15 H :    0.014930
  16 S :    0.120797
  17 C :   -0.085033
  18 C :   -0.005442
  19 C :   -0.007877
  20 C :   -0.160240
  21 H :    0.000602
  22 C :    0.056460
  23 H :    0.019473
  24 H :    0.037699
  25 C :   -0.098387
  26 H :    0.025868
  27 H :    0.033327
  28 C :   -0.073973
  29 H :    0.038070
  30 H :    0.026847
  31 H :    0.041839
  32 H :    0.033877
  33 H :    0.041889
Sum of atomic charges:   -0.0000000

LOEWDIN ATOMIC CHARGES
----------------------
   0 S :    0.399458
   1 C :   -0.189450
   2 C :   -0.066613
   3 C :   -0.066808
   4 C :   -0.193614
   5 H :    0.040684
   6 C :   -0.027891
   7 H :    0.029560
   8 H :    0.035927
   9 C :   -0.036130
  10 H :    0.018882
  11 H :    0.022572
  12 C :   -0.068027
  13 H :    0.034233
  14 H :    0.024501
  15 H :    0.021008
  16 S :    0.422875
  17 C :   -0.176307
  18 C :   -0.060570
  19 C :   -0.060213
  20 C :   -0.211451
  21 H :    0.025880
  22 C :   -0.028320
  23 H :    0.025962
  24 H :    0.038513
  25 C :   -0.045088
  26 H :    0.025958
  27 H :    0.023534
  28 C :   -0.072447
  29 H :    0.023981
  30 H :    0.021576
  31 H :    0.028238
  32 H :    0.017349
  33 H :    0.022237

  Mayer bond orders larger than 0.100000
B(  0-S ,  1-C ) :   1.1492 B(  0-S ,  4-C ) :   1.1482 B(  1-C ,  2-C ) :   1.5895
B(  1-C , 32-H ) :   0.9738 B(  2-C ,  3-C ) :   1.2544 B(  2-C ,  6-C ) :   1.0215
B(  3-C ,  4-C ) :   1.5844 B(  3-C ,  5-H ) :   0.9793 B(  4-C , 20-C ) :   0.9981
B(  6-C ,  7-H ) :   0.9470 B(  6-C ,  8-H ) :   0.9363 B(  6-C ,  9-C ) :   1.0767
B(  9-C , 10-H ) :   0.9534 B(  9-C , 11-H ) :   0.9530 B(  9-C , 12-C ) :   1.0725
B( 12-C , 13-H ) :   0.9734 B( 12-C , 14-H ) :   0.9759 B( 12-C , 15-H ) :   0.9738
B( 16-S , 17-C ) :   1.1438 B( 16-S , 20-C ) :   1.1735 B( 17-C , 18-C ) :   1.6124
B( 17-C , 33-H ) :   0.9706 B( 18-C , 19-C ) :   1.2412 B( 18-C , 21-H ) :   0.9958
B( 19-C , 20-C ) :   1.5740 B( 19-C , 22-C ) :   1.0504 B( 22-C , 23-H ) :   0.9343
B( 22-C , 24-H ) :   0.9368 B( 22-C , 25-C ) :   1.0599 B( 25-C , 26-H ) :   0.9582
B( 25-C , 27-H ) :   0.9607 B( 25-C , 28-C ) :   1.0693 B( 28-C , 29-H ) :   0.9760
B( 28-C , 30-H ) :   0.9752 B( 28-C , 31-H ) :   0.9731

Dispersion correction           -0.014268001
FINAL SINGLE POINT ENERGY     -1339.880201516745

DIPOLE MOMENT
-------------
                                X             Y             Z
Electronic contribution:      1.51824       6.09927     -28.25262
Nuclear contribution   :     -1.68937      -6.35721      28.80751
                        -----------------------------------------
Total Dipole Moment    :     -0.17113      -0.25794       0.55489
                        -----------------------------------------
Magnitude (a.u.)       :      0.63539
Magnitude (Debye)      :      1.61503

Rotational constants in cm-1:     0.017244     0.009297     0.006626
Rotational constants in MHz :   516.962506   278.706780   198.642862

                             ****ORCA TERMINATED NORMALLY****
TOTAL RUN TIME: 0 days 0 hours 0 minutes 21 seconds 457 msec
