                         Program Version 4.2.1 -  RELEASE  -
|  1> ! wB97X-D3 SP def2-SVP
|  2> %pal
|  3> nprocs 24
|  4> end
|  5>
|  6> * xyz 0 1
|  7> S 	 -102.942 	 -1.99902 	 -120.217
|  8> C 	 -104.498 	 -1.42785 	 -120.62
|  9> C 	 -105.021 	 -0.50139 	 -119.71
| 10> C 	 -104.07 	 -0.22514 	 -118.661
| 11> C 	 -102.861 	 -0.925628 	 -118.752
| 12> H 	 -104.274 	 0.406596 	 -117.822
| 13> C 	 -106.24 	 0.239899 	 -119.881
| 14> H 	 -106.673 	 -0.271287 	 -120.766
| 15> H 	 -105.931 	 1.19939 	 -120.241
| 16> C 	 -107.085 	 0.395492 	 -118.616
| 17> H 	 -107.06 	 -0.388775 	 -117.87
| 18> H 	 -106.719 	 1.18369 	 -118
| 19> C 	 -108.591 	 0.708074 	 -118.805
| 20> H 	 -109.141 	 0.414421 	 -117.934
| 21> H 	 -108.917 	 1.72911 	 -118.992
| 22> H 	 -108.967 	 -0.00158668 	 -119.539
| 23> S 	 -101.345 	 0.495455 	 -116.929
| 24> C 	 -100.217 	 -0.385116 	 -115.943
| 25> C 	 -100.092 	 -1.71777 	 -116.374
| 26> C 	 -100.685 	 -1.96646 	 -117.653
| 27> C 	 -101.657 	 -0.957297 	 -117.877
| 28> H 	 -99.4692 	 -2.38635 	 -115.755
| 29> C 	 -100.533 	 -3.40677 	 -118.193
| 30> H 	 -101.533 	 -3.64546 	 -118.726
| 31> H 	 -100.376 	 -4.15122 	 -117.372
| 32> C 	 -99.3582 	 -3.64923 	 -119.173
| 33> H 	 -99.4723 	 -3.22195 	 -120.167
| 34> H 	 -99.3956 	 -4.73683 	 -119.284
| 35> C 	 -97.9848 	 -3.28269 	 -118.758
| 36> H 	 -97.6842 	 -2.18661 	 -118.744
| 37> H 	 -97.2799 	 -3.74423 	 -119.543
| 38> H 	 -97.8422 	 -3.51178 	 -117.677
| 39> H 	 -104.875 	 -1.61612 	 -121.607
| 40> H 	 -99.9019 	 -0.0285577 	 -114.878
| 41> *
| 42>
| 43>                          ****END OF INPUT****

CARTESIAN COORDINATES (ANGSTROEM)
---------------------------------
  S    -102.942000   -1.999020  -120.217000
  C    -104.498000   -1.427850  -120.620000
  C    -105.021000   -0.501390  -119.710000
  C    -104.070000   -0.225140  -118.661000
  C    -102.861000   -0.925628  -118.752000
  H    -104.274000    0.406596  -117.822000
  C    -106.240000    0.239899  -119.881000
  H    -106.673000   -0.271287  -120.766000
  H    -105.931000    1.199390  -120.241000
  C    -107.085000    0.395492  -118.616000
  H    -107.060000   -0.388775  -117.870000
  H    -106.719000    1.183690  -118.000000
  C    -108.591000    0.708074  -118.805000
  H    -109.141000    0.414421  -117.934000
  H    -108.917000    1.729110  -118.992000
  H    -108.967000   -0.001587  -119.539000
  S    -101.345000    0.495455  -116.929000
  C    -100.217000   -0.385116  -115.943000
  C    -100.092000   -1.717770  -116.374000
  C    -100.685000   -1.966460  -117.653000
  C    -101.657000   -0.957297  -117.877000
  H    -99.469200   -2.386350  -115.755000
  C    -100.533000   -3.406770  -118.193000
  H    -101.533000   -3.645460  -118.726000
  H    -100.376000   -4.151220  -117.372000
  C    -99.358200   -3.649230  -119.173000
  H    -99.472300   -3.221950  -120.167000
  H    -99.395600   -4.736830  -119.284000
  C    -97.984800   -3.282690  -118.758000
  H    -97.684200   -2.186610  -118.744000
  H    -97.279900   -3.744230  -119.543000
  H    -97.842200   -3.511780  -117.677000
  H    -104.875000   -1.616120  -121.607000
  H    -99.901900   -0.028558  -114.878000

 Total Charge           Charge          ....    0
 Multiplicity           Mult            ....    1
 Number of Electrons    NEL             ....  134
 Basis Dimension        Dim             ....  322

ORBITAL ENERGIES
----------------

  NO   OCC          E(Eh)            E(eV)
   0   2.0000     -88.969438     -2420.9815
   1   2.0000     -88.965174     -2420.8655
   2   2.0000     -10.340798      -281.3874
   3   2.0000     -10.340164      -281.3702
   4   2.0000     -10.322017      -280.8763
   5   2.0000     -10.310911      -280.5742
   6   2.0000     -10.310659      -280.5673
   7   2.0000     -10.304875      -280.4099
   8   2.0000     -10.299908      -280.2748
   9   2.0000     -10.299617      -280.2668
  10   2.0000     -10.296921      -280.1935
  11   2.0000     -10.289814      -280.0001
  12   2.0000     -10.287120      -279.9268
  13   2.0000     -10.283676      -279.8331
  14   2.0000     -10.282394      -279.7982
  15   2.0000     -10.275977      -279.6236
  16   2.0000      -8.083955      -219.9756
  17   2.0000      -8.079405      -219.8518
  18   2.0000      -6.042485      -164.4244
  19   2.0000      -6.038519      -164.3165
  20   2.0000      -6.037863      -164.2986
  21   2.0000      -6.034694      -164.2124
  22   2.0000      -6.033936      -164.1918
  23   2.0000      -6.030313      -164.0932
  24   2.0000      -1.001351       -27.2482
  25   2.0000      -0.982814       -26.7437
  26   2.0000      -0.917088       -24.9552
  27   2.0000      -0.907512       -24.6947
  28   2.0000      -0.865045       -23.5391
  29   2.0000      -0.855403       -23.2767
  30   2.0000      -0.848553       -23.0903
  31   2.0000      -0.813108       -22.1258
  32   2.0000      -0.781544       -21.2669
  33   2.0000      -0.767781       -20.8924
  34   2.0000      -0.716312       -19.4919
  35   2.0000      -0.695103       -18.9147
  36   2.0000      -0.678895       -18.4737
  37   2.0000      -0.661444       -17.9988
  38   2.0000      -0.636027       -17.3072
  39   2.0000      -0.618615       -16.8334
  40   2.0000      -0.589027       -16.0282
  41   2.0000      -0.572450       -15.5772
  42   2.0000      -0.559486       -15.2244
  43   2.0000      -0.552528       -15.0350
  44   2.0000      -0.541580       -14.7371
  45   2.0000      -0.526780       -14.3344
  46   2.0000      -0.519294       -14.1307
  47   2.0000      -0.516399       -14.0519
  48   2.0000      -0.504069       -13.7164
  49   2.0000      -0.494072       -13.4444
  50   2.0000      -0.482588       -13.1319
  51   2.0000      -0.479353       -13.0438
  52   2.0000      -0.474193       -12.9035
  53   2.0000      -0.463504       -12.6126
  54   2.0000      -0.456103       -12.4112
  55   2.0000      -0.447812       -12.1856
  56   2.0000      -0.440281       -11.9807
  57   2.0000      -0.437375       -11.9016
  58   2.0000      -0.434580       -11.8255
  59   2.0000      -0.421160       -11.4604
  60   2.0000      -0.418864       -11.3979
  61   2.0000      -0.412827       -11.2336
  62   2.0000      -0.400056       -10.8861
  63   2.0000      -0.357415        -9.7258
  64   2.0000      -0.333461        -9.0739
  65   2.0000      -0.325384        -8.8542
  66   2.0000      -0.277257        -7.5445
  67   0.0000       0.015176         0.4129
  68   0.0000       0.079861         2.1731
  69   0.0000       0.098523         2.6810
  70   0.0000       0.111108         3.0234
  71   0.0000       0.126777         3.4498

MULLIKEN ATOMIC CHARGES
-----------------------
   0 S :    0.088584
   1 C :   -0.117747
   2 C :   -0.108548
   3 C :    0.000843
   4 C :   -0.114159
   5 H :    0.009763
   6 C :    0.121549
   7 H :    0.017985
   8 H :    0.038894
   9 C :   -0.090245
  10 H :    0.029387
  11 H :    0.021520
  12 C :   -0.036433
  13 H :    0.016706
  14 H :    0.038707
  15 H :    0.024112
  16 S :    0.111044
  17 C :   -0.134353
  18 C :   -0.064286
  19 C :   -0.010605
  20 C :   -0.128611
  21 H :    0.037503
  22 C :   -0.025003
  23 H :    0.046997
  24 H :    0.043584
  25 C :   -0.039905
  26 H :    0.029644
  27 H :    0.030565
  28 C :   -0.095789
  29 H :    0.044981
  30 H :    0.052429
  31 H :    0.021610
  32 H :    0.047450
  33 H :    0.091827
Sum of atomic charges:    0.0000000

LOEWDIN ATOMIC CHARGES
----------------------
   0 S :    0.404429
   1 C :   -0.212785
   2 C :   -0.060948
   3 C :   -0.066674
   4 C :   -0.164868
   5 H :    0.024862
   6 C :   -0.033938
   7 H :    0.036762
   8 H :    0.038665
   9 C :   -0.042923
  10 H :    0.028714
  11 H :    0.023608
  12 C :   -0.064688
  13 H :    0.024716
  14 H :    0.023987
  15 H :    0.025121
  16 S :    0.408760
  17 C :   -0.222896
  18 C :   -0.068060
  19 C :   -0.064001
  20 C :   -0.183336
  21 H :    0.034585
  22 C :   -0.041512
  23 H :    0.029389
  24 H :    0.036879
  25 C :   -0.050023
  26 H :    0.024434
  27 H :    0.028434
  28 C :   -0.083761
  29 H :    0.031227
  30 H :    0.040896
  31 H :    0.022206
  32 H :    0.023437
  33 H :    0.049300

  Mayer bond orders larger than 0.100000
B(  0-S ,  1-C ) :   1.1516 B(  0-S ,  4-C ) :   1.1347 B(  1-C ,  2-C ) :   1.5945
B(  1-C , 32-H ) :   0.9627 B(  2-C ,  3-C ) :   1.2392 B(  2-C ,  6-C ) :   1.0455
B(  3-C ,  4-C ) :   1.5637 B(  3-C ,  5-H ) :   0.9878 B(  4-C , 20-C ) :   1.0703
B(  6-C ,  7-H ) :   0.9397 B(  6-C ,  8-H ) :   0.9224 B(  6-C ,  9-C ) :   1.0375
B(  9-C , 10-H ) :   0.9691 B(  9-C , 11-H ) :   0.9439 B(  9-C , 12-C ) :   1.0908
B( 12-C , 13-H ) :   0.9736 B( 12-C , 14-H ) :   0.9776 B( 12-C , 15-H ) :   0.9757
B( 16-S , 17-C ) :   1.1376 B( 16-S , 20-C ) :   1.1587 B( 17-C , 18-C ) :   1.6283
B( 17-C , 33-H ) :   0.9512 B( 18-C , 19-C ) :   1.2275 B( 18-C , 21-H ) :   0.9797
B( 19-C , 20-C ) :   1.5391 B( 19-C , 22-C ) :   1.0279 B( 22-C , 23-H ) :   0.9309
B( 22-C , 24-H ) :   0.9459 B( 22-C , 25-C ) :   1.0691 B( 25-C , 26-H ) :   0.9497
B( 25-C , 27-H ) :   0.9531 B( 25-C , 28-C ) :   1.0866 B( 28-C , 29-H ) :   0.9689
B( 28-C , 30-H ) :   0.9694 B( 28-C , 31-H ) :   0.9700

Dispersion correction           -0.013790345
FINAL SINGLE POINT ENERGY     -1339.846208639951

DIPOLE MOMENT
-------------
                                X             Y             Z
Electronic contribution:      7.25904       4.58610       1.48137
Nuclear contribution   :     -7.56384      -4.63625      -1.33691
                        -----------------------------------------
Total Dipole Moment    :     -0.30480      -0.05015       0.14446
                        -----------------------------------------
Magnitude (a.u.)       :      0.34100
Magnitude (Debye)      :      0.86677

Rotational constants in cm-1:     0.025140     0.007148     0.005861
Rotational constants in MHz :   753.688944   214.284281   175.702280

                             ****ORCA TERMINATED NORMALLY****
TOTAL RUN TIME: 0 days 0 hours 0 minutes 20 seconds 879 msec
