                         Program Version 4.2.1 -  RELEASE  -
|  1> ! wB97X-D3 SP def2-SVP
|  2> %pal
|  3> nprocs 24
|  4> end
|  5>
|  6> * xyz 0 1
|  7> S 	 -62.0486 	 2.84839 	 -15.9341
|  8> C 	 -61.1025 	 2.47152 	 -14.5513
|  9> C 	 -59.9988 	 1.63853 	 -14.898
| 10> C 	 -59.9884 	 1.22554 	 -16.2713
| 11> C 	 -60.9769 	 1.9054 	 -16.9558
| 12> H 	 -59.2418 	 0.665052 	 -16.812
| 13> C 	 -58.8182 	 1.39273 	 -14.0344
| 14> H 	 -58.6261 	 0.313957 	 -14.1174
| 15> H 	 -59.1403 	 1.46113 	 -12.9892
| 16> C 	 -57.6134 	 2.32522 	 -14.2152
| 17> H 	 -57.9729 	 3.37716 	 -14.2211
| 18> H 	 -57.0077 	 2.3759 	 -13.3707
| 19> C 	 -56.7559 	 2.10131 	 -15.5114
| 20> H 	 -57.4625 	 2.36043 	 -16.3512
| 21> H 	 -55.9074 	 2.88596 	 -15.5428
| 22> H 	 -56.2111 	 1.16233 	 -15.5609
| 23> S 	 -61.6339 	 3.24965 	 -19.2339
| 24> C 	 -61.5479 	 2.49461 	 -20.8251
| 25> C 	 -61.2949 	 1.16358 	 -20.684
| 26> C 	 -61.2047 	 0.724371 	 -19.3111
| 27> C 	 -61.1687 	 1.81896 	 -18.401
| 28> H 	 -61.3228 	 0.480508 	 -21.5038
| 29> C 	 -60.8367 	 -0.710148 	 -19.0167
| 30> H 	 -61.6368 	 -1.27598 	 -19.4542
| 31> H 	 -61.1057 	 -0.812147 	 -17.9125
| 32> C 	 -59.4398 	 -1.188 	 -19.411
| 33> H 	 -58.7291 	 -0.400867 	 -19.2271
| 34> H 	 -59.5221 	 -1.20684 	 -20.5195
| 35> C 	 -58.9109 	 -2.56884 	 -18.8424
| 36> H 	 -59.65 	 -3.34855 	 -19.0983
| 37> H 	 -58.8468 	 -2.51016 	 -17.802
| 38> H 	 -57.9264 	 -2.73284 	 -19.3043
| 39> H 	 -61.2216 	 2.95469 	 -13.5933
| 40> H 	 -61.5008 	 2.9682 	 -21.8333
| 41> *
| 42>
| 43>                          ****END OF INPUT****

CARTESIAN COORDINATES (ANGSTROEM)
---------------------------------
  S    -62.048600    2.848390  -15.934100
  C    -61.102500    2.471520  -14.551300
  C    -59.998800    1.638530  -14.898000
  C    -59.988400    1.225540  -16.271300
  C    -60.976900    1.905400  -16.955800
  H    -59.241800    0.665052  -16.812000
  C    -58.818200    1.392730  -14.034400
  H    -58.626100    0.313957  -14.117400
  H    -59.140300    1.461130  -12.989200
  C    -57.613400    2.325220  -14.215200
  H    -57.972900    3.377160  -14.221100
  H    -57.007700    2.375900  -13.370700
  C    -56.755900    2.101310  -15.511400
  H    -57.462500    2.360430  -16.351200
  H    -55.907400    2.885960  -15.542800
  H    -56.211100    1.162330  -15.560900
  S    -61.633900    3.249650  -19.233900
  C    -61.547900    2.494610  -20.825100
  C    -61.294900    1.163580  -20.684000
  C    -61.204700    0.724371  -19.311100
  C    -61.168700    1.818960  -18.401000
  H    -61.322800    0.480508  -21.503800
  C    -60.836700   -0.710148  -19.016700
  H    -61.636800   -1.275980  -19.454200
  H    -61.105700   -0.812147  -17.912500
  C    -59.439800   -1.188000  -19.411000
  H    -58.729100   -0.400867  -19.227100
  H    -59.522100   -1.206840  -20.519500
  C    -58.910900   -2.568840  -18.842400
  H    -59.650000   -3.348550  -19.098300
  H    -58.846800   -2.510160  -17.802000
  H    -57.926400   -2.732840  -19.304300
  H    -61.221600    2.954690  -13.593300
  H    -61.500800    2.968200  -21.833300

 Total Charge           Charge          ....    0
 Multiplicity           Mult            ....    1
 Number of Electrons    NEL             ....  134
 Basis Dimension        Dim             ....  322

ORBITAL ENERGIES
----------------

  NO   OCC          E(Eh)            E(eV)
   0   2.0000     -88.971220     -2421.0300
   1   2.0000     -88.964657     -2420.8514
   2   2.0000     -10.331517      -281.1349
   3   2.0000     -10.328126      -281.0426
   4   2.0000     -10.318090      -280.7695
   5   2.0000     -10.314334      -280.6673
   6   2.0000     -10.303937      -280.3844
   7   2.0000     -10.303746      -280.3792
   8   2.0000     -10.295517      -280.1553
   9   2.0000     -10.291588      -280.0483
  10   2.0000     -10.290141      -280.0090
  11   2.0000     -10.289643      -279.9954
  12   2.0000     -10.289411      -279.9891
  13   2.0000     -10.288666      -279.9688
  14   2.0000     -10.286548      -279.9112
  15   2.0000     -10.284015      -279.8423
  16   2.0000      -8.086086      -220.0336
  17   2.0000      -8.079688      -219.8595
  18   2.0000      -6.044564      -164.4810
  19   2.0000      -6.040522      -164.3710
  20   2.0000      -6.038342      -164.3116
  21   2.0000      -6.036934      -164.2733
  22   2.0000      -6.034008      -164.1937
  23   2.0000      -6.030423      -164.0962
  24   2.0000      -1.008263       -27.4362
  25   2.0000      -0.984515       -26.7900
  26   2.0000      -0.910094       -24.7649
  27   2.0000      -0.904504       -24.6128
  28   2.0000      -0.870234       -23.6803
  29   2.0000      -0.851484       -23.1701
  30   2.0000      -0.843556       -22.9543
  31   2.0000      -0.817533       -22.2462
  32   2.0000      -0.779999       -21.2249
  33   2.0000      -0.766459       -20.8564
  34   2.0000      -0.707242       -19.2450
  35   2.0000      -0.705014       -19.1844
  36   2.0000      -0.693706       -18.8767
  37   2.0000      -0.662227       -18.0201
  38   2.0000      -0.642109       -17.4727
  39   2.0000      -0.616564       -16.7776
  40   2.0000      -0.587781       -15.9943
  41   2.0000      -0.568563       -15.4714
  42   2.0000      -0.557650       -15.1744
  43   2.0000      -0.548126       -14.9153
  44   2.0000      -0.534379       -14.5412
  45   2.0000      -0.530408       -14.4331
  46   2.0000      -0.518450       -14.1077
  47   2.0000      -0.512188       -13.9374
  48   2.0000      -0.506477       -13.7819
  49   2.0000      -0.499358       -13.5882
  50   2.0000      -0.493012       -13.4155
  51   2.0000      -0.479595       -13.0505
  52   2.0000      -0.472757       -12.8644
  53   2.0000      -0.464309       -12.6345
  54   2.0000      -0.457581       -12.4514
  55   2.0000      -0.452364       -12.3094
  56   2.0000      -0.446384       -12.1467
  57   2.0000      -0.437862       -11.9148
  58   2.0000      -0.433699       -11.8015
  59   2.0000      -0.419033       -11.4025
  60   2.0000      -0.416441       -11.3319
  61   2.0000      -0.412014       -11.2115
  62   2.0000      -0.408499       -11.1158
  63   2.0000      -0.354559        -9.6480
  64   2.0000      -0.334182        -9.0936
  65   2.0000      -0.325379        -8.8540
  66   2.0000      -0.285634        -7.7725
  67   0.0000       0.025301         0.6885
  68   0.0000       0.071885         1.9561
  69   0.0000       0.111715         3.0399
  70   0.0000       0.115791         3.1508
  71   0.0000       0.127070         3.4577

MULLIKEN ATOMIC CHARGES
-----------------------
   0 S :    0.129804
   1 C :   -0.112462
   2 C :   -0.105115
   3 C :    0.011702
   4 C :   -0.131086
   5 H :    0.021355
   6 C :    0.062753
   7 H :    0.026998
   8 H :    0.012535
   9 C :   -0.027438
  10 H :    0.023705
  11 H :    0.011223
  12 C :   -0.103836
  13 H :    0.062341
  14 H :    0.038342
  15 H :    0.042878
  16 S :    0.097344
  17 C :   -0.091703
  18 C :   -0.031428
  19 C :   -0.073650
  20 C :   -0.158402
  21 H :    0.015032
  22 C :    0.042122
  23 H :    0.019271
  24 H :    0.027560
  25 C :   -0.081388
  26 H :    0.029072
  27 H :    0.024895
  28 C :   -0.018515
  29 H :    0.039308
  30 H :    0.026368
  31 H :    0.047036
  32 H :    0.049099
  33 H :    0.074280
Sum of atomic charges:   -0.0000000

LOEWDIN ATOMIC CHARGES
----------------------
   0 S :    0.422250
   1 C :   -0.216376
   2 C :   -0.057464
   3 C :   -0.059987
   4 C :   -0.187636
   5 H :    0.035277
   6 C :   -0.042847
   7 H :    0.032608
   8 H :    0.031940
   9 C :   -0.038176
  10 H :    0.032264
  11 H :    0.013908
  12 C :   -0.078364
  13 H :    0.035797
  14 H :    0.034240
  15 H :    0.022434
  16 S :    0.410772
  17 C :   -0.193854
  18 C :   -0.069811
  19 C :   -0.059943
  20 C :   -0.206944
  21 H :    0.027049
  22 C :   -0.049002
  23 H :    0.027598
  24 H :    0.033688
  25 C :   -0.043540
  26 H :    0.019524
  27 H :    0.026632
  28 C :   -0.054040
  29 H :    0.030581
  30 H :    0.016310
  31 H :    0.033524
  32 H :    0.027124
  33 H :    0.044465

  Mayer bond orders larger than 0.100000
B(  0-S ,  1-C ) :   1.1402 B(  0-S ,  4-C ) :   1.1640 B(  1-C ,  2-C ) :   1.5867
B(  1-C , 32-H ) :   0.9698 B(  2-C ,  3-C ) :   1.2334 B(  2-C ,  6-C ) :   1.0467
B(  3-C ,  4-C ) :   1.5506 B(  3-C ,  5-H ) :   0.9966 B(  4-C , 20-C ) :   1.0551
B(  6-C ,  7-H ) :   0.9377 B(  6-C ,  8-H ) :   0.9303 B(  6-C ,  9-C ) :   1.0584
B(  9-C , 10-H ) :   0.9501 B(  9-C , 11-H ) :   0.9569 B(  9-C , 12-C ) :   1.0741
B( 12-C , 13-H ) :   0.9703 B( 12-C , 14-H ) :   0.9722 B( 12-C , 15-H ) :   0.9775
B( 16-S , 17-C ) :   1.1419 B( 16-S , 20-C ) :   1.1524 B( 17-C , 18-C ) :   1.6167
B( 17-C , 33-H ) :   0.9605 B( 18-C , 19-C ) :   1.2446 B( 18-C , 21-H ) :   0.9880
B( 19-C , 20-C ) :   1.5419 B( 19-C , 22-C ) :   1.0668 B( 22-C , 23-H ) :   0.9232
B( 22-C , 24-H ) :   0.9324 B( 22-C , 25-C ) :   1.0417 B( 25-C , 26-H ) :   0.9593
B( 25-C , 27-H ) :   0.9496 B( 25-C , 28-C ) :   1.0733 B( 28-C , 29-H ) :   0.9765
B( 28-C , 30-H ) :   0.9786 B( 28-C , 31-H ) :   0.9745

Dispersion correction           -0.014854752
FINAL SINGLE POINT ENERGY     -1339.870474579416

DIPOLE MOMENT
-------------
                                X             Y             Z
Electronic contribution:    -22.00076      17.31011      -3.72365
Nuclear contribution   :     22.53417     -17.66918       3.73157
                        -----------------------------------------
Total Dipole Moment    :      0.53341      -0.35907       0.00792
                        -----------------------------------------
Magnitude (a.u.)       :      0.64306
Magnitude (Debye)      :      1.63452

Rotational constants in cm-1:     0.015936     0.010176     0.007459
Rotational constants in MHz :   477.757879   305.060471   223.615921

                             ****ORCA TERMINATED NORMALLY****
TOTAL RUN TIME: 0 days 0 hours 0 minutes 20 seconds 983 msec
