                         Program Version 4.2.1 -  RELEASE  -
|  1> ! wB97X-D3 SP def2-SVP
|  2> %pal
|  3> nprocs 24
|  4> end
|  5>
|  6> * xyz 0 1
|  7> S 	 -121.563 	 47.1961 	 -26.1447
|  8> C 	 -120.831 	 45.6067 	 -26.0021
|  9> C 	 -120.792 	 44.9866 	 -27.2372
| 10> C 	 -121.172 	 45.861 	 -28.2914
| 11> C 	 -121.418 	 47.1302 	 -27.983
| 12> H 	 -121.038 	 45.6456 	 -29.3282
| 13> C 	 -120.116 	 43.6514 	 -27.5045
| 14> H 	 -119.443 	 43.3868 	 -26.6246
| 15> H 	 -119.535 	 43.7729 	 -28.3955
| 16> C 	 -121.132 	 42.6 	 -27.6384
| 17> H 	 -121.688 	 42.6427 	 -26.6824
| 18> H 	 -121.755 	 42.9905 	 -28.4567
| 19> C 	 -120.68 	 41.1453 	 -27.7823
| 20> H 	 -121.492 	 40.5736 	 -28.1811
| 21> H 	 -119.85 	 41.154 	 -28.4693
| 22> H 	 -120.365 	 40.6734 	 -26.8937
| 23> S 	 -123.319 	 48.8441 	 -28.8991
| 24> C 	 -122.952 	 49.9612 	 -30.2027
| 25> C 	 -121.765 	 49.6614 	 -30.7984
| 26> C 	 -121.142 	 48.6098 	 -30.1335
| 27> C 	 -121.723 	 48.2549 	 -28.9136
| 28> H 	 -121.36 	 50.1153 	 -31.6976
| 29> C 	 -119.765 	 48.1985 	 -30.6315
| 30> H 	 -119.654 	 48.5537 	 -31.6491
| 31> H 	 -119.791 	 47.0848 	 -30.4807
| 32> C 	 -118.541 	 48.8125 	 -29.9228
| 33> H 	 -118.542 	 48.3571 	 -28.8997
| 34> H 	 -118.687 	 49.8806 	 -29.9365
| 35> C 	 -117.249 	 48.3655 	 -30.6594
| 36> H 	 -117.191 	 47.2816 	 -30.69
| 37> H 	 -116.311 	 48.772 	 -30.2653
| 38> H 	 -117.398 	 48.6482 	 -31.6848
| 39> H 	 -120.64 	 45.0221 	 -25.0649
| 40> H 	 -123.607 	 50.5917 	 -30.7412
| 41> *
| 42>
| 43>                          ****END OF INPUT****

CARTESIAN COORDINATES (ANGSTROEM)
---------------------------------
  S    -121.563000   47.196100  -26.144700
  C    -120.831000   45.606700  -26.002100
  C    -120.792000   44.986600  -27.237200
  C    -121.172000   45.861000  -28.291400
  C    -121.418000   47.130200  -27.983000
  H    -121.038000   45.645600  -29.328200
  C    -120.116000   43.651400  -27.504500
  H    -119.443000   43.386800  -26.624600
  H    -119.535000   43.772900  -28.395500
  C    -121.132000   42.600000  -27.638400
  H    -121.688000   42.642700  -26.682400
  H    -121.755000   42.990500  -28.456700
  C    -120.680000   41.145300  -27.782300
  H    -121.492000   40.573600  -28.181100
  H    -119.850000   41.154000  -28.469300
  H    -120.365000   40.673400  -26.893700
  S    -123.319000   48.844100  -28.899100
  C    -122.952000   49.961200  -30.202700
  C    -121.765000   49.661400  -30.798400
  C    -121.142000   48.609800  -30.133500
  C    -121.723000   48.254900  -28.913600
  H    -121.360000   50.115300  -31.697600
  C    -119.765000   48.198500  -30.631500
  H    -119.654000   48.553700  -31.649100
  H    -119.791000   47.084800  -30.480700
  C    -118.541000   48.812500  -29.922800
  H    -118.542000   48.357100  -28.899700
  H    -118.687000   49.880600  -29.936500
  C    -117.249000   48.365500  -30.659400
  H    -117.191000   47.281600  -30.690000
  H    -116.311000   48.772000  -30.265300
  H    -117.398000   48.648200  -31.684800
  H    -120.640000   45.022100  -25.064900
  H    -123.607000   50.591700  -30.741200

 Total Charge           Charge          ....    0
 Multiplicity           Mult            ....    1
 Number of Electrons    NEL             ....  134
 Basis Dimension        Dim             ....  322

ORBITAL ENERGIES
----------------

  NO   OCC          E(Eh)            E(eV)
   0   2.0000     -88.968909     -2420.9671
   1   2.0000     -88.963533     -2420.8208
   2   2.0000     -10.335735      -281.2496
   3   2.0000     -10.327668      -281.0301
   4   2.0000     -10.320574      -280.8371
   5   2.0000     -10.313098      -280.6337
   6   2.0000     -10.299292      -280.2580
   7   2.0000     -10.299171      -280.2547
   8   2.0000     -10.291573      -280.0479
   9   2.0000     -10.290626      -280.0222
  10   2.0000     -10.290197      -280.0105
  11   2.0000     -10.289570      -279.9934
  12   2.0000     -10.286916      -279.9212
  13   2.0000     -10.281830      -279.7828
  14   2.0000     -10.277272      -279.6588
  15   2.0000     -10.272327      -279.5242
  16   2.0000      -8.084304      -219.9851
  17   2.0000      -8.077066      -219.7881
  18   2.0000      -6.042695      -164.4301
  19   2.0000      -6.038831      -164.3249
  20   2.0000      -6.035822      -164.2431
  21   2.0000      -6.035003      -164.2208
  22   2.0000      -6.031899      -164.1363
  23   2.0000      -6.027441      -164.0150
  24   2.0000      -1.013895       -27.5895
  25   2.0000      -0.989377       -26.9223
  26   2.0000      -0.920650       -25.0522
  27   2.0000      -0.909918       -24.7601
  28   2.0000      -0.875936       -23.8354
  29   2.0000      -0.853216       -23.2172
  30   2.0000      -0.845818       -23.0159
  31   2.0000      -0.822949       -22.3936
  32   2.0000      -0.782113       -21.2824
  33   2.0000      -0.768869       -20.9220
  34   2.0000      -0.707719       -19.2580
  35   2.0000      -0.692113       -18.8334
  36   2.0000      -0.690434       -18.7877
  37   2.0000      -0.670108       -18.2346
  38   2.0000      -0.642460       -17.4822
  39   2.0000      -0.625230       -17.0134
  40   2.0000      -0.591806       -16.1039
  41   2.0000      -0.578535       -15.7427
  42   2.0000      -0.575028       -15.6473
  43   2.0000      -0.563916       -15.3449
  44   2.0000      -0.527011       -14.3407
  45   2.0000      -0.522050       -14.2057
  46   2.0000      -0.520013       -14.1503
  47   2.0000      -0.511610       -13.9216
  48   2.0000      -0.508840       -13.8462
  49   2.0000      -0.504247       -13.7212
  50   2.0000      -0.492542       -13.4027
  51   2.0000      -0.487135       -13.2556
  52   2.0000      -0.472935       -12.8692
  53   2.0000      -0.469003       -12.7622
  54   2.0000      -0.464908       -12.6508
  55   2.0000      -0.448594       -12.2069
  56   2.0000      -0.444619       -12.0987
  57   2.0000      -0.438664       -11.9367
  58   2.0000      -0.425131       -11.5684
  59   2.0000      -0.424617       -11.5544
  60   2.0000      -0.419341       -11.4108
  61   2.0000      -0.413036       -11.2393
  62   2.0000      -0.407087       -11.0774
  63   2.0000      -0.354117        -9.6360
  64   2.0000      -0.334373        -9.0988
  65   2.0000      -0.324804        -8.8384
  66   2.0000      -0.297231        -8.0881
  67   0.0000       0.026807         0.7295
  68   0.0000       0.059629         1.6226
  69   0.0000       0.105485         2.8704
  70   0.0000       0.117163         3.1882
  71   0.0000       0.133241         3.6257

MULLIKEN ATOMIC CHARGES
-----------------------
   0 S :    0.085019
   1 C :   -0.117399
   2 C :   -0.109461
   3 C :    0.054899
   4 C :   -0.164061
   5 H :    0.006888
   6 C :    0.063256
   7 H :    0.026130
   8 H :    0.019763
   9 C :   -0.116758
  10 H :    0.024577
  11 H :    0.026507
  12 C :    0.030558
  13 H :    0.033515
  14 H :    0.014670
  15 H :    0.023738
  16 S :    0.118873
  17 C :   -0.046477
  18 C :   -0.041919
  19 C :   -0.063972
  20 C :   -0.121495
  21 H :    0.020362
  22 C :    0.020253
  23 H :    0.009595
  24 H :    0.024774
  25 C :   -0.060000
  26 H :    0.045103
  27 H :    0.031073
  28 C :   -0.024245
  29 H :    0.022778
  30 H :    0.045160
  31 H :    0.012213
  32 H :    0.068222
  33 H :    0.037860
Sum of atomic charges:    0.0000000

LOEWDIN ATOMIC CHARGES
----------------------
   0 S :    0.352781
   1 C :   -0.192038
   2 C :   -0.066590
   3 C :   -0.062300
   4 C :   -0.161851
   5 H :    0.026885
   6 C :   -0.031099
   7 H :    0.032926
   8 H :    0.022321
   9 C :   -0.050239
  10 H :    0.026687
  11 H :    0.025796
  12 C :   -0.056316
  13 H :    0.029038
  14 H :    0.021716
  15 H :    0.020726
  16 S :    0.438765
  17 C :   -0.176327
  18 C :   -0.069898
  19 C :   -0.060611
  20 C :   -0.215374
  21 H :    0.035178
  22 C :   -0.035703
  23 H :    0.023396
  24 H :    0.030464
  25 C :   -0.034237
  26 H :    0.030828
  27 H :    0.021616
  28 C :   -0.063772
  29 H :    0.024733
  30 H :    0.028313
  31 H :    0.018676
  32 H :    0.042635
  33 H :    0.022878

  Mayer bond orders larger than 0.100000
B(  0-S ,  1-C ) :   1.1276 B(  0-S ,  4-C ) :   1.1033 B(  1-C ,  2-C ) :   1.6509
B(  1-C , 32-H ) :   0.9561 B(  2-C ,  3-C ) :   1.2068 B(  2-C ,  6-C ) :   1.0192
B(  3-C ,  4-C ) :   1.6460 B(  3-C ,  5-H ) :   0.9844 B(  4-C , 20-C ) :   1.0160
B(  6-C ,  7-H ) :   0.9453 B(  6-C ,  8-H ) :   0.9376 B(  6-C ,  9-C ) :   1.0651
B(  9-C , 10-H ) :   0.9550 B(  9-C , 11-H ) :   0.9570 B(  9-C , 12-C ) :   1.0772
B( 12-C , 13-H ) :   0.9716 B( 12-C , 14-H ) :   0.9713 B( 12-C , 15-H ) :   0.9732
B( 16-S , 17-C ) :   1.1691 B( 16-S , 20-C ) :   1.1685 B( 17-C , 18-C ) :   1.5740
B( 17-C , 20-C ) :   0.1018 B( 17-C , 33-H ) :   0.9672 B( 18-C , 19-C ) :   1.2930
B( 18-C , 21-H ) :   0.9897 B( 19-C , 20-C ) :   1.5448 B( 19-C , 22-C ) :   1.0554
B( 22-C , 23-H ) :   0.9377 B( 22-C , 24-H ) :   0.9253 B( 22-C , 25-C ) :   1.0684
B( 25-C , 26-H ) :   0.9530 B( 25-C , 27-H ) :   0.9569 B( 25-C , 28-C ) :   1.0757
B( 28-C , 29-H ) :   0.9740 B( 28-C , 30-H ) :   0.9743 B( 28-C , 31-H ) :   0.9735

Dispersion correction           -0.013844914
FINAL SINGLE POINT ENERGY     -1339.851309658400

DIPOLE MOMENT
-------------
                                X             Y             Z
Electronic contribution:    -19.22315      18.02846       9.61454
Nuclear contribution   :     19.58800     -18.44526     -10.17473
                        -----------------------------------------
Total Dipole Moment    :      0.36485      -0.41680      -0.56019
                        -----------------------------------------
Magnitude (a.u.)       :      0.78781
Magnitude (Debye)      :      2.00246

Rotational constants in cm-1:     0.017554     0.008173     0.006755
Rotational constants in MHz :   526.268323   245.031791   202.508398

                             ****ORCA TERMINATED NORMALLY****
TOTAL RUN TIME: 0 days 0 hours 0 minutes 21 seconds 570 msec
