                         Program Version 4.2.1 -  RELEASE  -
|  1> ! wB97X-D3 SP def2-SVP
|  2> %pal
|  3> nprocs 24
|  4> end
|  5>
|  6> * xyz 0 1
|  7> S 	 -138.713 	 4.55222 	 5.05354
|  8> C 	 -138.963 	 3.85291 	 3.49746
|  9> C 	 -137.787 	 4.01024 	 2.74474
| 10> C 	 -136.676 	 4.52171 	 3.46081
| 11> C 	 -137.003 	 4.88289 	 4.77368
| 12> H 	 -135.707 	 4.82286 	 3.03477
| 13> C 	 -137.68 	 3.59974 	 1.25845
| 14> H 	 -138.209 	 2.7256 	 1.05061
| 15> H 	 -136.642 	 3.37479 	 1.12264
| 16> C 	 -138.017 	 4.69413 	 0.301033
| 17> H 	 -137.853 	 4.36954 	 -0.710273
| 18> H 	 -139.073 	 4.84317 	 0.33314
| 19> C 	 -137.348 	 6.02146 	 0.453372
| 20> H 	 -137.385 	 6.44132 	 1.50333
| 21> H 	 -136.213 	 6.02573 	 0.383134
| 22> H 	 -137.589 	 6.68717 	 -0.325371
| 23> S 	 -136.779 	 6.86747 	 6.57515
| 24> C 	 -135.355 	 7.05876 	 7.60487
| 25> C 	 -134.419 	 6.02703 	 7.30795
| 26> C 	 -134.868 	 5.13408 	 6.26926
| 27> C 	 -136.132 	 5.46973 	 5.81294
| 28> H 	 -133.531 	 6.03251 	 7.84638
| 29> C 	 -133.962 	 3.9546 	 5.80358
| 30> H 	 -133.921 	 3.79954 	 4.7699
| 31> H 	 -134.583 	 3.11332 	 6.30238
| 32> C 	 -132.448 	 4.13036 	 6.26176
| 33> H 	 -131.932 	 3.25265 	 5.89922
| 34> H 	 -132.317 	 4.12333 	 7.31908
| 35> C 	 -131.669 	 5.30639 	 5.64066
| 36> H 	 -131.64 	 5.22017 	 4.57259
| 37> H 	 -130.662 	 5.38887 	 6.05659
| 38> H 	 -132.06 	 6.30369 	 5.91091
| 39> H 	 -139.929 	 3.56061 	 3.04194
| 40> H 	 -135.289 	 7.95705 	 8.22392
| 41> *
| 42>
| 43>                          ****END OF INPUT****

CARTESIAN COORDINATES (ANGSTROEM)
---------------------------------
  S    -138.713000    4.552220    5.053540
  C    -138.963000    3.852910    3.497460
  C    -137.787000    4.010240    2.744740
  C    -136.676000    4.521710    3.460810
  C    -137.003000    4.882890    4.773680
  H    -135.707000    4.822860    3.034770
  C    -137.680000    3.599740    1.258450
  H    -138.209000    2.725600    1.050610
  H    -136.642000    3.374790    1.122640
  C    -138.017000    4.694130    0.301033
  H    -137.853000    4.369540   -0.710273
  H    -139.073000    4.843170    0.333140
  C    -137.348000    6.021460    0.453372
  H    -137.385000    6.441320    1.503330
  H    -136.213000    6.025730    0.383134
  H    -137.589000    6.687170   -0.325371
  S    -136.779000    6.867470    6.575150
  C    -135.355000    7.058760    7.604870
  C    -134.419000    6.027030    7.307950
  C    -134.868000    5.134080    6.269260
  C    -136.132000    5.469730    5.812940
  H    -133.531000    6.032510    7.846380
  C    -133.962000    3.954600    5.803580
  H    -133.921000    3.799540    4.769900
  H    -134.583000    3.113320    6.302380
  C    -132.448000    4.130360    6.261760
  H    -131.932000    3.252650    5.899220
  H    -132.317000    4.123330    7.319080
  C    -131.669000    5.306390    5.640660
  H    -131.640000    5.220170    4.572590
  H    -130.662000    5.388870    6.056590
  H    -132.060000    6.303690    5.910910
  H    -139.929000    3.560610    3.041940
  H    -135.289000    7.957050    8.223920

 Total Charge           Charge          ....    0
 Multiplicity           Mult            ....    1
 Number of Electrons    NEL             ....  134
 Basis Dimension        Dim             ....  322

ORBITAL ENERGIES
----------------

  NO   OCC          E(Eh)            E(eV)
   0   2.0000     -88.967318     -2420.9238
   1   2.0000     -88.963291     -2420.8142
   2   2.0000     -10.333696      -281.1942
   3   2.0000     -10.325585      -280.9735
   4   2.0000     -10.323832      -280.9257
   5   2.0000     -10.315675      -280.7038
   6   2.0000     -10.309307      -280.5305
   7   2.0000     -10.303698      -280.3779
   8   2.0000     -10.301551      -280.3194
   9   2.0000     -10.297961      -280.2218
  10   2.0000     -10.296377      -280.1787
  11   2.0000     -10.291253      -280.0392
  12   2.0000     -10.281575      -279.7759
  13   2.0000     -10.280199      -279.7384
  14   2.0000     -10.276056      -279.6257
  15   2.0000     -10.275722      -279.6166
  16   2.0000      -8.081868      -219.9188
  17   2.0000      -8.078520      -219.8277
  18   2.0000      -6.040340      -164.3660
  19   2.0000      -6.036925      -164.2731
  20   2.0000      -6.036216      -164.2538
  21   2.0000      -6.032845      -164.1621
  22   2.0000      -6.032777      -164.1602
  23   2.0000      -6.029539      -164.0721
  24   2.0000      -1.004828       -27.3428
  25   2.0000      -0.982053       -26.7230
  26   2.0000      -0.916391       -24.9363
  27   2.0000      -0.903041       -24.5730
  28   2.0000      -0.865095       -23.5404
  29   2.0000      -0.849458       -23.1149
  30   2.0000      -0.842884       -22.9360
  31   2.0000      -0.814180       -22.1550
  32   2.0000      -0.785533       -21.3754
  33   2.0000      -0.773739       -21.0545
  34   2.0000      -0.706951       -19.2371
  35   2.0000      -0.700264       -19.0552
  36   2.0000      -0.692659       -18.8482
  37   2.0000      -0.664290       -18.0762
  38   2.0000      -0.637966       -17.3599
  39   2.0000      -0.616180       -16.7671
  40   2.0000      -0.600862       -16.3503
  41   2.0000      -0.572819       -15.5872
  42   2.0000      -0.556240       -15.1361
  43   2.0000      -0.553202       -15.0534
  44   2.0000      -0.547328       -14.8936
  45   2.0000      -0.530225       -14.4282
  46   2.0000      -0.518779       -14.1167
  47   2.0000      -0.505825       -13.7642
  48   2.0000      -0.503314       -13.6959
  49   2.0000      -0.499646       -13.5961
  50   2.0000      -0.486680       -13.2432
  51   2.0000      -0.482622       -13.1328
  52   2.0000      -0.473826       -12.8935
  53   2.0000      -0.466260       -12.6876
  54   2.0000      -0.458172       -12.4675
  55   2.0000      -0.449083       -12.2202
  56   2.0000      -0.441057       -12.0018
  57   2.0000      -0.439376       -11.9560
  58   2.0000      -0.433012       -11.7828
  59   2.0000      -0.431267       -11.7354
  60   2.0000      -0.422000       -11.4832
  61   2.0000      -0.410134       -11.1603
  62   2.0000      -0.399333       -10.8664
  63   2.0000      -0.347330        -9.4513
  64   2.0000      -0.330510        -8.9936
  65   2.0000      -0.328095        -8.9279
  66   2.0000      -0.289183        -7.8691
  67   0.0000       0.029269         0.7964
  68   0.0000       0.067891         1.8474
  69   0.0000       0.113208         3.0806
  70   0.0000       0.123836         3.3697
  71   0.0000       0.135004         3.6736

MULLIKEN ATOMIC CHARGES
-----------------------
   0 S :    0.117854
   1 C :   -0.119507
   2 C :   -0.144596
   3 C :    0.026032
   4 C :   -0.158671
   5 H :    0.027738
   6 C :    0.129746
   7 H :    0.010185
   8 H :    0.004446
   9 C :   -0.023567
  10 H :    0.016542
  11 H :    0.012354
  12 C :   -0.081745
  13 H :    0.055110
  14 H :    0.012308
  15 H :    0.030364
  16 S :    0.100662
  17 C :   -0.114086
  18 C :   -0.026016
  19 C :   -0.034759
  20 C :   -0.164790
  21 H :    0.002579
  22 C :    0.074605
  23 H :    0.020826
  24 H :    0.070274
  25 C :   -0.079373
  26 H :    0.028759
  27 H :    0.026813
  28 C :   -0.054237
  29 H :    0.032225
  30 H :    0.033834
  31 H :    0.031893
  32 H :    0.064294
  33 H :    0.071904
Sum of atomic charges:    0.0000000

LOEWDIN ATOMIC CHARGES
----------------------
   0 S :    0.418343
   1 C :   -0.219929
   2 C :   -0.061815
   3 C :   -0.073593
   4 C :   -0.191698
   5 H :    0.036290
   6 C :   -0.020354
   7 H :    0.023506
   8 H :    0.025539
   9 C :   -0.041559
  10 H :    0.023594
  11 H :    0.020184
  12 C :   -0.075753
  13 H :    0.035700
  14 H :    0.025067
  15 H :    0.022247
  16 S :    0.414842
  17 C :   -0.183930
  18 C :   -0.061808
  19 C :   -0.056850
  20 C :   -0.215998
  21 H :    0.020098
  22 C :   -0.024917
  23 H :    0.019004
  24 H :    0.056686
  25 C :   -0.039619
  26 H :    0.027299
  27 H :    0.017547
  28 C :   -0.066014
  29 H :    0.022217
  30 H :    0.030657
  31 H :    0.025453
  32 H :    0.038918
  33 H :    0.030647

  Mayer bond orders larger than 0.100000
B(  0-S ,  1-C ) :   1.1492 B(  0-S ,  4-C ) :   1.1752 B(  1-C ,  2-C ) :   1.5782
B(  1-C ,  4-C ) :   0.1095 B(  1-C , 32-H ) :   0.9653 B(  2-C ,  3-C ) :   1.2770
B(  2-C ,  6-C ) :   1.0136 B(  3-C ,  4-C ) :   1.5403 B(  3-C ,  5-H ) :   0.9867
B(  4-C , 20-C ) :   1.0252 B(  6-C ,  7-H ) :   0.9410 B(  6-C ,  8-H ) :   0.9359
B(  6-C ,  9-C ) :   1.0856 B(  9-C , 10-H ) :   0.9489 B(  9-C , 11-H ) :   0.9475
B(  9-C , 12-C ) :   1.0893 B( 12-C , 13-H ) :   0.9662 B( 12-C , 14-H ) :   0.9686
B( 12-C , 15-H ) :   0.9704 B( 16-S , 17-C ) :   1.1677 B( 16-S , 20-C ) :   1.1650
B( 17-C , 18-C ) :   1.5602 B( 17-C , 20-C ) :   0.1068 B( 17-C , 33-H ) :   0.9701
B( 18-C , 19-C ) :   1.2506 B( 18-C , 21-H ) :   0.9977 B( 19-C , 20-C ) :   1.5912
B( 19-C , 22-C ) :   1.0028 B( 22-C , 23-H ) :   0.9463 B( 22-C , 24-H ) :   0.9357
B( 22-C , 25-C ) :   1.0717 B( 25-C , 26-H ) :   0.9553 B( 25-C , 27-H ) :   0.9531
B( 25-C , 28-C ) :   1.0763 B( 28-C , 29-H ) :   0.9755 B( 28-C , 30-H ) :   0.9714
B( 28-C , 31-H ) :   0.9728

Dispersion correction           -0.014536554
FINAL SINGLE POINT ENERGY     -1339.868103231391

DIPOLE MOMENT
-------------
                                X             Y             Z
Electronic contribution:    -17.45379       3.62937      16.67982
Nuclear contribution   :     17.99485      -3.72593     -17.04427
                        -----------------------------------------
Total Dipole Moment    :      0.54106      -0.09656      -0.36445
                        -----------------------------------------
Magnitude (a.u.)       :      0.65947
Magnitude (Debye)      :      1.67623

Rotational constants in cm-1:     0.019688     0.008251     0.006888
Rotational constants in MHz :   590.243013   247.373146   206.494825

                             ****ORCA TERMINATED NORMALLY****
TOTAL RUN TIME: 0 days 0 hours 0 minutes 21 seconds 453 msec
