                         Program Version 4.2.1 -  RELEASE  -
|  1> ! wB97X-D3 SP def2-SVP
|  2> %pal
|  3> nprocs 24
|  4> end
|  5>
|  6> * xyz 0 1
|  7> S 	 -31.2765 	 10.6456 	 14.3228
|  8> C 	 -31.5096 	 12.1116 	 13.4024
|  9> C 	 -32.7943 	 12.4644 	 13.257
| 10> C 	 -33.6699 	 11.5844 	 14.0133
| 11> C 	 -33.0109 	 10.5179 	 14.5755
| 12> H 	 -34.729 	 11.7228 	 14.05
| 13> C 	 -33.2722 	 13.524 	 12.2893
| 14> H 	 -34.0759 	 13.0843 	 11.6917
| 15> H 	 -32.4277 	 13.6561 	 11.5659
| 16> C 	 -33.8408 	 14.7994 	 12.9707
| 17> H 	 -34.3527 	 15.3546 	 12.1694
| 18> H 	 -34.7208 	 14.5311 	 13.5441
| 19> C 	 -32.7736 	 15.6774 	 13.6572
| 20> H 	 -33.2848 	 16.522 	 14.1218
| 21> H 	 -32.3018 	 15.1013 	 14.4575
| 22> H 	 -32.0392 	 16.0862 	 12.9605
| 23> S 	 -33.0788 	 9.27813 	 17.0275
| 24> C 	 -34.2183 	 7.93087 	 17.2229
| 25> C 	 -34.7731 	 7.5529 	 16.0643
| 26> C 	 -34.5407 	 8.45392 	 15.0045
| 27> C 	 -33.5941 	 9.37851 	 15.3178
| 28> H 	 -35.4092 	 6.7132 	 16.0407
| 29> C 	 -35.3298 	 8.36629 	 13.7422
| 30> H 	 -35.3074 	 7.36591 	 13.3485
| 31> H 	 -34.8793 	 8.97038 	 13.0023
| 32> C 	 -36.7223 	 9.06941 	 13.895
| 33> H 	 -36.6498 	 10.0097 	 14.3181
| 34> H 	 -37.3209 	 8.44563 	 14.5146
| 35> C 	 -37.3892 	 9.26853 	 12.5433
| 36> H 	 -37.67 	 8.29666 	 12.1681
| 37> H 	 -36.7682 	 9.67323 	 11.7312
| 38> H 	 -38.1895 	 9.89353 	 12.6678
| 39> H 	 -30.7034 	 12.6062 	 12.8468
| 40> H 	 -34.195 	 7.36115 	 18.129
| 41> *
| 42>
| 43>                          ****END OF INPUT****

CARTESIAN COORDINATES (ANGSTROEM)
---------------------------------
  S    -31.276500   10.645600   14.322800
  C    -31.509600   12.111600   13.402400
  C    -32.794300   12.464400   13.257000
  C    -33.669900   11.584400   14.013300
  C    -33.010900   10.517900   14.575500
  H    -34.729000   11.722800   14.050000
  C    -33.272200   13.524000   12.289300
  H    -34.075900   13.084300   11.691700
  H    -32.427700   13.656100   11.565900
  C    -33.840800   14.799400   12.970700
  H    -34.352700   15.354600   12.169400
  H    -34.720800   14.531100   13.544100
  C    -32.773600   15.677400   13.657200
  H    -33.284800   16.522000   14.121800
  H    -32.301800   15.101300   14.457500
  H    -32.039200   16.086200   12.960500
  S    -33.078800    9.278130   17.027500
  C    -34.218300    7.930870   17.222900
  C    -34.773100    7.552900   16.064300
  C    -34.540700    8.453920   15.004500
  C    -33.594100    9.378510   15.317800
  H    -35.409200    6.713200   16.040700
  C    -35.329800    8.366290   13.742200
  H    -35.307400    7.365910   13.348500
  H    -34.879300    8.970380   13.002300
  C    -36.722300    9.069410   13.895000
  H    -36.649800   10.009700   14.318100
  H    -37.320900    8.445630   14.514600
  C    -37.389200    9.268530   12.543300
  H    -37.670000    8.296660   12.168100
  H    -36.768200    9.673230   11.731200
  H    -38.189500    9.893530   12.667800
  H    -30.703400   12.606200   12.846800
  H    -34.195000    7.361150   18.129000

 Total Charge           Charge          ....    0
 Multiplicity           Mult            ....    1
 Number of Electrons    NEL             ....  134
 Basis Dimension        Dim             ....  322

ORBITAL ENERGIES
----------------

  NO   OCC          E(Eh)            E(eV)
   0   2.0000     -88.962295     -2420.7871
   1   2.0000     -88.959037     -2420.6985
   2   2.0000     -10.328976      -281.0657
   3   2.0000     -10.324255      -280.9373
   4   2.0000     -10.311956      -280.6026
   5   2.0000     -10.307242      -280.4743
   6   2.0000     -10.297233      -280.2020
   7   2.0000     -10.296076      -280.1705
   8   2.0000     -10.293960      -280.1129
   9   2.0000     -10.292803      -280.0814
  10   2.0000     -10.289981      -280.0046
  11   2.0000     -10.284709      -279.8612
  12   2.0000     -10.284403      -279.8528
  13   2.0000     -10.280312      -279.7415
  14   2.0000     -10.278647      -279.6962
  15   2.0000     -10.269890      -279.4579
  16   2.0000      -8.077284      -219.7941
  17   2.0000      -8.073486      -219.6907
  18   2.0000      -6.035832      -164.2433
  19   2.0000      -6.031992      -164.1388
  20   2.0000      -6.031915      -164.1367
  21   2.0000      -6.028257      -164.0372
  22   2.0000      -6.027831      -164.0256
  23   2.0000      -6.024044      -163.9226
  24   2.0000      -1.005471       -27.3603
  25   2.0000      -0.985750       -26.8236
  26   2.0000      -0.913195       -24.8493
  27   2.0000      -0.907871       -24.7044
  28   2.0000      -0.867870       -23.6159
  29   2.0000      -0.855151       -23.2698
  30   2.0000      -0.843027       -22.9399
  31   2.0000      -0.816954       -22.2305
  32   2.0000      -0.783838       -21.3293
  33   2.0000      -0.774488       -21.0749
  34   2.0000      -0.711290       -19.3552
  35   2.0000      -0.705261       -19.1911
  36   2.0000      -0.692129       -18.8338
  37   2.0000      -0.665446       -18.1077
  38   2.0000      -0.638112       -17.3639
  39   2.0000      -0.619800       -16.8656
  40   2.0000      -0.601488       -16.3673
  41   2.0000      -0.574093       -15.6219
  42   2.0000      -0.564148       -15.3512
  43   2.0000      -0.546255       -14.8643
  44   2.0000      -0.539914       -14.6918
  45   2.0000      -0.535209       -14.5638
  46   2.0000      -0.522066       -14.2061
  47   2.0000      -0.513746       -13.9797
  48   2.0000      -0.505604       -13.7582
  49   2.0000      -0.489991       -13.3333
  50   2.0000      -0.485721       -13.2171
  51   2.0000      -0.482489       -13.1292
  52   2.0000      -0.470817       -12.8116
  53   2.0000      -0.466413       -12.6917
  54   2.0000      -0.455255       -12.3881
  55   2.0000      -0.448606       -12.2072
  56   2.0000      -0.445098       -12.1117
  57   2.0000      -0.440459       -11.9855
  58   2.0000      -0.435084       -11.8392
  59   2.0000      -0.430509       -11.7147
  60   2.0000      -0.428302       -11.6547
  61   2.0000      -0.414952       -11.2914
  62   2.0000      -0.411597       -11.2001
  63   2.0000      -0.343388        -9.3441
  64   2.0000      -0.328755        -8.9459
  65   2.0000      -0.326217        -8.8768
  66   2.0000      -0.301460        -8.2031
  67   0.0000       0.041837         1.1385
  68   0.0000       0.068577         1.8661
  69   0.0000       0.112079         3.0498
  70   0.0000       0.118266         3.2182
  71   0.0000       0.134198         3.6517

MULLIKEN ATOMIC CHARGES
-----------------------
   0 S :    0.106558
   1 C :   -0.131282
   2 C :   -0.087525
   3 C :    0.049786
   4 C :   -0.145553
   5 H :   -0.004504
   6 C :    0.038885
   7 H :    0.028396
   8 H :    0.026034
   9 C :   -0.069262
  10 H :    0.019922
  11 H :    0.023399
  12 C :   -0.034411
  13 H :    0.033084
  14 H :    0.046196
  15 H :    0.036288
  16 S :    0.081582
  17 C :   -0.080540
  18 C :   -0.005230
  19 C :   -0.031365
  20 C :   -0.164667
  21 H :    0.000867
  22 C :    0.095632
  23 H :    0.026976
  24 H :   -0.002807
  25 C :   -0.045267
  26 H :    0.014284
  27 H :    0.020067
  28 C :   -0.007942
  29 H :    0.018478
  30 H :    0.027097
  31 H :    0.016645
  32 H :    0.048326
  33 H :    0.051853
Sum of atomic charges:    0.0000000

LOEWDIN ATOMIC CHARGES
----------------------
   0 S :    0.393878
   1 C :   -0.198787
   2 C :   -0.070112
   3 C :   -0.058237
   4 C :   -0.188069
   5 H :    0.024092
   6 C :   -0.032329
   7 H :    0.032153
   8 H :    0.032979
   9 C :   -0.044359
  10 H :    0.024036
  11 H :    0.023657
  12 C :   -0.063925
  13 H :    0.028113
  14 H :    0.029220
  15 H :    0.027555
  16 S :    0.367309
  17 C :   -0.160922
  18 C :   -0.065191
  19 C :   -0.052432
  20 C :   -0.182928
  21 H :    0.026585
  22 C :   -0.023503
  23 H :    0.030683
  24 H :    0.022704
  25 C :   -0.018495
  26 H :    0.014111
  27 H :    0.019437
  28 C :   -0.055272
  29 H :    0.023733
  30 H :    0.026758
  31 H :    0.014082
  32 H :    0.030320
  33 H :    0.023154

  Mayer bond orders larger than 0.100000
B(  0-S ,  1-C ) :   1.1177 B(  0-S ,  4-C ) :   1.1461 B(  1-C ,  2-C ) :   1.6674
B(  1-C , 32-H ) :   0.9581 B(  2-C ,  3-C ) :   1.2012 B(  2-C ,  6-C ) :   1.0153
B(  3-C ,  4-C ) :   1.6117 B(  3-C ,  5-H ) :   1.0006 B(  4-C , 20-C ) :   0.9937
B(  6-C ,  7-H ) :   0.9396 B(  6-C ,  8-H ) :   0.9483 B(  6-C ,  9-C ) :   1.0687
B(  9-C , 10-H ) :   0.9529 B(  9-C , 11-H ) :   0.9558 B(  9-C , 12-C ) :   1.0666
B( 12-C , 13-H ) :   0.9734 B( 12-C , 14-H ) :   0.9769 B( 12-C , 15-H ) :   0.9755
B( 16-S , 17-C ) :   1.1354 B( 16-S , 20-C ) :   1.1263 B( 17-C , 18-C ) :   1.6527
B( 17-C , 33-H ) :   0.9656 B( 18-C , 19-C ) :   1.1907 B( 18-C , 21-H ) :   0.9972
B( 19-C , 20-C ) :   1.6619 B( 19-C , 22-C ) :   1.0675 B( 22-C , 23-H ) :   0.9326
B( 22-C , 24-H ) :   0.9225 B( 22-C , 25-C ) :   1.0542 B( 25-C , 26-H ) :   0.9560
B( 25-C , 27-H ) :   0.9538 B( 25-C , 28-C ) :   1.0934 B( 28-C , 29-H ) :   0.9721
B( 28-C , 30-H ) :   0.9734 B( 28-C , 31-H ) :   0.9738

Dispersion correction           -0.014562252
FINAL SINGLE POINT ENERGY     -1339.882565481383

DIPOLE MOMENT
-------------
                                X             Y             Z
Electronic contribution:     17.48942     -13.54758      15.96395
Nuclear contribution   :    -18.13399      13.63371     -16.44229
                        -----------------------------------------
Total Dipole Moment    :     -0.64456       0.08613      -0.47834
                        -----------------------------------------
Magnitude (a.u.)       :      0.80727
Magnitude (Debye)      :      2.05192

Rotational constants in cm-1:     0.018208     0.008902     0.006877
Rotational constants in MHz :   545.874420   266.877941   206.176100

                             ****ORCA TERMINATED NORMALLY****
TOTAL RUN TIME: 0 days 0 hours 0 minutes 21 seconds 855 msec
