                         Program Version 4.2.1 -  RELEASE  -
|  1> ! wB97X-D3 SP def2-SVP
|  2> %pal
|  3> nprocs 24
|  4> end
|  5>
|  6> * xyz 0 1
|  7> S 	 -47.7389 	 12.7972 	 -18.0699
|  8> C 	 -47.4774 	 11.2949 	 -17.1642
|  9> C 	 -46.2645 	 11.3166 	 -16.448
| 10> C 	 -45.5356 	 12.5276 	 -16.6753
| 11> C 	 -46.2295 	 13.4846 	 -17.4442
| 12> H 	 -44.5756 	 12.7917 	 -16.2298
| 13> C 	 -45.8034 	 10.2193 	 -15.4547
| 14> H 	 -45.9376 	 9.29334 	 -16.0542
| 15> H 	 -46.51 	 10.0377 	 -14.6005
| 16> C 	 -44.3826 	 10.3252 	 -14.9906
| 17> H 	 -43.9218 	 10.3291 	 -15.9484
| 18> H 	 -44.1073 	 11.3123 	 -14.5876
| 19> C 	 -43.8347 	 9.17877 	 -14.1784
| 20> H 	 -43.7461 	 8.30586 	 -14.8483
| 21> H 	 -42.8713 	 9.50385 	 -13.774
| 22> H 	 -44.4637 	 9.00846 	 -13.281
| 23> S 	 -45.5709 	 15.2788 	 -19.4165
| 24> C 	 -45.1452 	 16.9044 	 -18.9464
| 25> C 	 -45.0475 	 17.0628 	 -17.5898
| 26> C 	 -45.3664 	 15.8735 	 -16.7941
| 27> C 	 -45.7953 	 14.8511 	 -17.6748
| 28> H 	 -44.7587 	 18.0035 	 -17.1305
| 29> C 	 -45.4658 	 15.8775 	 -15.258
| 30> H 	 -44.5661 	 16.1099 	 -14.6252
| 31> H 	 -45.7581 	 14.8847 	 -15.0243
| 32> C 	 -46.6247 	 16.7467 	 -14.753
| 33> H 	 -47.4986 	 16.4448 	 -15.2684
| 34> H 	 -46.5228 	 17.7507 	 -15.0002
| 35> C 	 -46.9279 	 16.7148 	 -13.2162
| 36> H 	 -47.7541 	 17.3729 	 -13.0779
| 37> H 	 -46.0522 	 17.0112 	 -12.7545
| 38> H 	 -47.1406 	 15.651 	 -12.9448
| 39> H 	 -48.0655 	 10.3916 	 -17.2441
| 40> H 	 -44.9292 	 17.7447 	 -19.6417
| 41> *
| 42>
| 43>                          ****END OF INPUT****

CARTESIAN COORDINATES (ANGSTROEM)
---------------------------------
  S    -47.738900   12.797200  -18.069900
  C    -47.477400   11.294900  -17.164200
  C    -46.264500   11.316600  -16.448000
  C    -45.535600   12.527600  -16.675300
  C    -46.229500   13.484600  -17.444200
  H    -44.575600   12.791700  -16.229800
  C    -45.803400   10.219300  -15.454700
  H    -45.937600    9.293340  -16.054200
  H    -46.510000   10.037700  -14.600500
  C    -44.382600   10.325200  -14.990600
  H    -43.921800   10.329100  -15.948400
  H    -44.107300   11.312300  -14.587600
  C    -43.834700    9.178770  -14.178400
  H    -43.746100    8.305860  -14.848300
  H    -42.871300    9.503850  -13.774000
  H    -44.463700    9.008460  -13.281000
  S    -45.570900   15.278800  -19.416500
  C    -45.145200   16.904400  -18.946400
  C    -45.047500   17.062800  -17.589800
  C    -45.366400   15.873500  -16.794100
  C    -45.795300   14.851100  -17.674800
  H    -44.758700   18.003500  -17.130500
  C    -45.465800   15.877500  -15.258000
  H    -44.566100   16.109900  -14.625200
  H    -45.758100   14.884700  -15.024300
  C    -46.624700   16.746700  -14.753000
  H    -47.498600   16.444800  -15.268400
  H    -46.522800   17.750700  -15.000200
  C    -46.927900   16.714800  -13.216200
  H    -47.754100   17.372900  -13.077900
  H    -46.052200   17.011200  -12.754500
  H    -47.140600   15.651000  -12.944800
  H    -48.065500   10.391600  -17.244100
  H    -44.929200   17.744700  -19.641700

 Total Charge           Charge          ....    0
 Multiplicity           Mult            ....    1
 Number of Electrons    NEL             ....  134
 Basis Dimension        Dim             ....  322

ORBITAL ENERGIES
----------------

  NO   OCC          E(Eh)            E(eV)
   0   2.0000     -88.971008     -2421.0242
   1   2.0000     -88.965890     -2420.8849
   2   2.0000     -10.334346      -281.2118
   3   2.0000     -10.332336      -281.1572
   4   2.0000     -10.319540      -280.8090
   5   2.0000     -10.318090      -280.7695
   6   2.0000     -10.315920      -280.7105
   7   2.0000     -10.307924      -280.4929
   8   2.0000     -10.298521      -280.2370
   9   2.0000     -10.298267      -280.2301
  10   2.0000     -10.295708      -280.1605
  11   2.0000     -10.295309      -280.1496
  12   2.0000     -10.284607      -279.8584
  13   2.0000     -10.281186      -279.7653
  14   2.0000     -10.274041      -279.5709
  15   2.0000     -10.273477      -279.5555
  16   2.0000      -8.084506      -219.9906
  17   2.0000      -8.080042      -219.8691
  18   2.0000      -6.043081      -164.4406
  19   2.0000      -6.039097      -164.3322
  20   2.0000      -6.038618      -164.3192
  21   2.0000      -6.035356      -164.2304
  22   2.0000      -6.034780      -164.2147
  23   2.0000      -6.030605      -164.1011
  24   2.0000      -0.996819       -27.1248
  25   2.0000      -0.974467       -26.5166
  26   2.0000      -0.916861       -24.9490
  27   2.0000      -0.907790       -24.7022
  28   2.0000      -0.867568       -23.6077
  29   2.0000      -0.849864       -23.1260
  30   2.0000      -0.843383       -22.9496
  31   2.0000      -0.810029       -22.0420
  32   2.0000      -0.784658       -21.3516
  33   2.0000      -0.771765       -21.0008
  34   2.0000      -0.710637       -19.3374
  35   2.0000      -0.698363       -19.0034
  36   2.0000      -0.686930       -18.6923
  37   2.0000      -0.653401       -17.7799
  38   2.0000      -0.637815       -17.3558
  39   2.0000      -0.616639       -16.7796
  40   2.0000      -0.596467       -16.2307
  41   2.0000      -0.574598       -15.6356
  42   2.0000      -0.568503       -15.4698
  43   2.0000      -0.559909       -15.2359
  44   2.0000      -0.530615       -14.4388
  45   2.0000      -0.525525       -14.3003
  46   2.0000      -0.510913       -13.9027
  47   2.0000      -0.504796       -13.7362
  48   2.0000      -0.503368       -13.6973
  49   2.0000      -0.496420       -13.5083
  50   2.0000      -0.494015       -13.4428
  51   2.0000      -0.482555       -13.1310
  52   2.0000      -0.473170       -12.8756
  53   2.0000      -0.461662       -12.5625
  54   2.0000      -0.455343       -12.3905
  55   2.0000      -0.452827       -12.3220
  56   2.0000      -0.444444       -12.0939
  57   2.0000      -0.437089       -11.8938
  58   2.0000      -0.432639       -11.7727
  59   2.0000      -0.425819       -11.5871
  60   2.0000      -0.423896       -11.5348
  61   2.0000      -0.417319       -11.3558
  62   2.0000      -0.411644       -11.2014
  63   2.0000      -0.339582        -9.2405
  64   2.0000      -0.331369        -9.0170
  65   2.0000      -0.328826        -8.9478
  66   2.0000      -0.292580        -7.9615
  67   0.0000       0.024997         0.6802
  68   0.0000       0.064014         1.7419
  69   0.0000       0.106904         2.9090
  70   0.0000       0.119564         3.2535
  71   0.0000       0.128251         3.4899

MULLIKEN ATOMIC CHARGES
-----------------------
   0 S :    0.122289
   1 C :   -0.120976
   2 C :   -0.096424
   3 C :    0.029974
   4 C :   -0.161168
   5 H :    0.021464
   6 C :    0.045965
   7 H :    0.025994
   8 H :    0.041637
   9 C :   -0.118094
  10 H :    0.020566
  11 H :    0.034102
  12 C :   -0.007027
  13 H :    0.042802
  14 H :    0.032475
  15 H :    0.034315
  16 S :    0.101258
  17 C :   -0.087978
  18 C :   -0.040901
  19 C :   -0.015600
  20 C :   -0.186047
  21 H :    0.018873
  22 C :    0.087541
  23 H :    0.039994
  24 H :    0.005293
  25 C :   -0.095145
  26 H :    0.019417
  27 H :    0.007596
  28 C :   -0.008856
  29 H :    0.039398
  30 H :    0.014762
  31 H :    0.035656
  32 H :    0.046933
  33 H :    0.069914
Sum of atomic charges:    0.0000000

LOEWDIN ATOMIC CHARGES
----------------------
   0 S :    0.399017
   1 C :   -0.195804
   2 C :   -0.060088
   3 C :   -0.063077
   4 C :   -0.200698
   5 H :    0.032848
   6 C :   -0.037193
   7 H :    0.034562
   8 H :    0.031408
   9 C :   -0.057316
  10 H :    0.024760
  11 H :    0.022499
  12 C :   -0.058796
  13 H :    0.031329
  14 H :    0.030475
  15 H :    0.027743
  16 S :    0.382861
  17 C :   -0.191105
  18 C :   -0.072731
  19 C :   -0.040724
  20 C :   -0.181546
  21 H :    0.030075
  22 C :   -0.032004
  23 H :    0.036020
  24 H :    0.024560
  25 C :   -0.033562
  26 H :    0.019947
  27 H :    0.009197
  28 C :   -0.048330
  29 H :    0.027061
  30 H :    0.011585
  31 H :    0.029809
  32 H :    0.028020
  33 H :    0.039197

  Mayer bond orders larger than 0.100000
B(  0-S ,  1-C ) :   1.1399 B(  0-S ,  4-C ) :   1.1510 B(  1-C ,  2-C ) :   1.6006
B(  1-C ,  4-C ) :   0.1082 B(  1-C , 32-H ) :   0.9702 B(  2-C ,  3-C ) :   1.2691
B(  2-C ,  6-C ) :   0.9930 B(  3-C ,  4-C ) :   1.5354 B(  3-C ,  5-H ) :   0.9865
B(  4-C , 20-C ) :   1.0485 B(  6-C ,  7-H ) :   0.9390 B(  6-C ,  8-H ) :   0.9402
B(  6-C ,  9-C ) :   1.0788 B(  9-C , 10-H ) :   0.9489 B(  9-C , 11-H ) :   0.9475
B(  9-C , 12-C ) :   1.0874 B( 12-C , 13-H ) :   0.9735 B( 12-C , 14-H ) :   0.9696
B( 12-C , 15-H ) :   0.9732 B( 16-S , 17-C ) :   1.1303 B( 16-S , 20-C ) :   1.1351
B( 17-C , 18-C ) :   1.6510 B( 17-C , 33-H ) :   0.9602 B( 18-C , 19-C ) :   1.2000
B( 18-C , 21-H ) :   0.9852 B( 19-C , 20-C ) :   1.6086 B( 19-C , 22-C ) :   1.0461
B( 22-C , 23-H ) :   0.9396 B( 22-C , 24-H ) :   0.9259 B( 22-C , 25-C ) :   1.0611
B( 25-C , 26-H ) :   0.9532 B( 25-C , 27-H ) :   0.9582 B( 25-C , 28-C ) :   1.0820
B( 28-C , 29-H ) :   0.9749 B( 28-C , 30-H ) :   0.9759 B( 28-C , 31-H ) :   0.9782

Dispersion correction           -0.013554839
FINAL SINGLE POINT ENERGY     -1339.869329483961

DIPOLE MOMENT
-------------
                                X             Y             Z
Electronic contribution:     -6.95349       5.96921     -27.37336
Nuclear contribution   :      7.22873      -5.99230      27.96465
                        -----------------------------------------
Total Dipole Moment    :      0.27524      -0.02310       0.59129
                        -----------------------------------------
Magnitude (a.u.)       :      0.65262
Magnitude (Debye)      :      1.65883

Rotational constants in cm-1:     0.016022     0.008410     0.006832
Rotational constants in MHz :   480.325847   252.136202   204.809794

                             ****ORCA TERMINATED NORMALLY****
TOTAL RUN TIME: 0 days 0 hours 0 minutes 21 seconds 132 msec
