                         Program Version 4.2.1 -  RELEASE  -
|  1> ! wB97X-D3 SP def2-SVP
|  2> %pal
|  3> nprocs 24
|  4> end
|  5>
|  6> * xyz 0 1
|  7> S 	 -116.115 	 34.4629 	 -15.5085
|  8> C 	 -115.237 	 33.0057 	 -15.7457
|  9> C 	 -115.973 	 31.9498 	 -15.2245
| 10> C 	 -117.187 	 32.3739 	 -14.666
| 11> C 	 -117.379 	 33.7248 	 -14.6874
| 12> H 	 -117.922 	 31.8048 	 -14.2301
| 13> C 	 -115.513 	 30.5098 	 -15.222
| 14> H 	 -115.904 	 30.1158 	 -14.2976
| 15> H 	 -114.398 	 30.4958 	 -15.1239
| 16> C 	 -115.942 	 29.5682 	 -16.4467
| 17> H 	 -117.017 	 29.6093 	 -16.6027
| 18> H 	 -115.683 	 29.993 	 -17.4259
| 19> C 	 -115.393 	 28.1254 	 -16.4174
| 20> H 	 -115.504 	 27.6513 	 -15.4619
| 21> H 	 -115.774 	 27.5547 	 -17.24
| 22> H 	 -114.282 	 28.1269 	 -16.6083
| 23> S 	 -118.659 	 34.7465 	 -12.4317
| 24> C 	 -119.993 	 35.7938 	 -12.6792
| 25> C 	 -120.233 	 36.0529 	 -14.0274
| 26> C 	 -119.383 	 35.3066 	 -14.9011
| 27> C 	 -118.535 	 34.5083 	 -14.1969
| 28> H 	 -121.041 	 36.6776 	 -14.3672
| 29> C 	 -119.645 	 35.292 	 -16.4159
| 30> H 	 -120.702 	 35.4215 	 -16.7848
| 31> H 	 -119.27 	 34.3457 	 -16.783
| 32> C 	 -118.798 	 36.3449 	 -17.2418
| 33> H 	 -117.737 	 36.4024 	 -16.9156
| 34> H 	 -119.174 	 37.3996 	 -17.187
| 35> C 	 -118.832 	 36.145 	 -18.7108
| 36> H 	 -119.814 	 35.9382 	 -19.0907
| 37> H 	 -118.264 	 35.2071 	 -18.9117
| 38> H 	 -118.388 	 36.9537 	 -19.2458
| 39> H 	 -114.322 	 32.9408 	 -16.2589
| 40> H 	 -120.522 	 36.4005 	 -11.9416
| 41> *
| 42>
| 43>                          ****END OF INPUT****

CARTESIAN COORDINATES (ANGSTROEM)
---------------------------------
  S    -116.115000   34.462900  -15.508500
  C    -115.237000   33.005700  -15.745700
  C    -115.973000   31.949800  -15.224500
  C    -117.187000   32.373900  -14.666000
  C    -117.379000   33.724800  -14.687400
  H    -117.922000   31.804800  -14.230100
  C    -115.513000   30.509800  -15.222000
  H    -115.904000   30.115800  -14.297600
  H    -114.398000   30.495800  -15.123900
  C    -115.942000   29.568200  -16.446700
  H    -117.017000   29.609300  -16.602700
  H    -115.683000   29.993000  -17.425900
  C    -115.393000   28.125400  -16.417400
  H    -115.504000   27.651300  -15.461900
  H    -115.774000   27.554700  -17.240000
  H    -114.282000   28.126900  -16.608300
  S    -118.659000   34.746500  -12.431700
  C    -119.993000   35.793800  -12.679200
  C    -120.233000   36.052900  -14.027400
  C    -119.383000   35.306600  -14.901100
  C    -118.535000   34.508300  -14.196900
  H    -121.041000   36.677600  -14.367200
  C    -119.645000   35.292000  -16.415900
  H    -120.702000   35.421500  -16.784800
  H    -119.270000   34.345700  -16.783000
  C    -118.798000   36.344900  -17.241800
  H    -117.737000   36.402400  -16.915600
  H    -119.174000   37.399600  -17.187000
  C    -118.832000   36.145000  -18.710800
  H    -119.814000   35.938200  -19.090700
  H    -118.264000   35.207100  -18.911700
  H    -118.388000   36.953700  -19.245800
  H    -114.322000   32.940800  -16.258900
  H    -120.522000   36.400500  -11.941600

 Total Charge           Charge          ....    0
 Multiplicity           Mult            ....    1
 Number of Electrons    NEL             ....  134
 Basis Dimension        Dim             ....  322

ORBITAL ENERGIES
----------------

  NO   OCC          E(Eh)            E(eV)
   0   2.0000     -88.969274     -2420.9770
   1   2.0000     -88.964868     -2420.8571
   2   2.0000     -10.327045      -281.0132
   3   2.0000     -10.320166      -280.8260
   4   2.0000     -10.316342      -280.7220
   5   2.0000     -10.308026      -280.4957
   6   2.0000     -10.304102      -280.3889
   7   2.0000     -10.300939      -280.3028
   8   2.0000     -10.298466      -280.2355
   9   2.0000     -10.297444      -280.2077
  10   2.0000     -10.291638      -280.0497
  11   2.0000     -10.291161      -280.0367
  12   2.0000     -10.283776      -279.8358
  13   2.0000     -10.281482      -279.7733
  14   2.0000     -10.280562      -279.7483
  15   2.0000     -10.268685      -279.4251
  16   2.0000      -8.083929      -219.9749
  17   2.0000      -8.081071      -219.8971
  18   2.0000      -6.042343      -164.4205
  19   2.0000      -6.039277      -164.3371
  20   2.0000      -6.038539      -164.3170
  21   2.0000      -6.035120      -164.2240
  22   2.0000      -6.034698      -164.2125
  23   2.0000      -6.032299      -164.1472
  24   2.0000      -1.016690       -27.6655
  25   2.0000      -0.990768       -26.9602
  26   2.0000      -0.906320       -24.6622
  27   2.0000      -0.901935       -24.5429
  28   2.0000      -0.867482       -23.6054
  29   2.0000      -0.856601       -23.3093
  30   2.0000      -0.852603       -23.2005
  31   2.0000      -0.815269       -22.1846
  32   2.0000      -0.783408       -21.3176
  33   2.0000      -0.770998       -20.9799
  34   2.0000      -0.706806       -19.2332
  35   2.0000      -0.697212       -18.9721
  36   2.0000      -0.685657       -18.6577
  37   2.0000      -0.666039       -18.1238
  38   2.0000      -0.651640       -17.7320
  39   2.0000      -0.617341       -16.7987
  40   2.0000      -0.599483       -16.3128
  41   2.0000      -0.569922       -15.5084
  42   2.0000      -0.562142       -15.2967
  43   2.0000      -0.547045       -14.8859
  44   2.0000      -0.529779       -14.4160
  45   2.0000      -0.526696       -14.3321
  46   2.0000      -0.519297       -14.1308
  47   2.0000      -0.514313       -13.9952
  48   2.0000      -0.501996       -13.6600
  49   2.0000      -0.499017       -13.5789
  50   2.0000      -0.494638       -13.4598
  51   2.0000      -0.481385       -13.0991
  52   2.0000      -0.472979       -12.8704
  53   2.0000      -0.465699       -12.6723
  54   2.0000      -0.460518       -12.5313
  55   2.0000      -0.450301       -12.2533
  56   2.0000      -0.445911       -12.1339
  57   2.0000      -0.442280       -12.0350
  58   2.0000      -0.431855       -11.7514
  59   2.0000      -0.427959       -11.6453
  60   2.0000      -0.422030       -11.4840
  61   2.0000      -0.408172       -11.1069
  62   2.0000      -0.401224       -10.9179
  63   2.0000      -0.338865        -9.2210
  64   2.0000      -0.333418        -9.0728
  65   2.0000      -0.328963        -8.9515
  66   2.0000      -0.304569        -8.2878
  67   0.0000       0.041090         1.1181
  68   0.0000       0.063749         1.7347
  69   0.0000       0.109840         2.9889
  70   0.0000       0.122115         3.3229
  71   0.0000       0.133211         3.6248

MULLIKEN ATOMIC CHARGES
-----------------------
   0 S :    0.129564
   1 C :   -0.112993
   2 C :   -0.071297
   3 C :    0.059757
   4 C :   -0.166267
   5 H :   -0.030829
   6 C :    0.064810
   7 H :    0.021154
   8 H :    0.029598
   9 C :   -0.067021
  10 H :    0.020578
  11 H :    0.016397
  12 C :   -0.042271
  13 H :    0.033460
  14 H :    0.035608
  15 H :    0.030096
  16 S :    0.124826
  17 C :   -0.082337
  18 C :   -0.045146
  19 C :    0.015107
  20 C :   -0.183914
  21 H :    0.014460
  22 C :    0.056004
  23 H :    0.043983
  24 H :    0.022878
  25 C :   -0.113293
  26 H :    0.035035
  27 H :    0.023880
  28 C :   -0.027482
  29 H :    0.015672
  30 H :    0.022642
  31 H :    0.035286
  32 H :    0.031589
  33 H :    0.060466
Sum of atomic charges:   -0.0000000

LOEWDIN ATOMIC CHARGES
----------------------
   0 S :    0.467842
   1 C :   -0.201174
   2 C :   -0.065054
   3 C :   -0.059969
   4 C :   -0.221374
   5 H :    0.018436
   6 C :   -0.030077
   7 H :    0.028237
   8 H :    0.034040
   9 C :   -0.045444
  10 H :    0.021701
  11 H :    0.024181
  12 C :   -0.066262
  13 H :    0.021503
  14 H :    0.026923
  15 H :    0.030544
  16 S :    0.413311
  17 C :   -0.198827
  18 C :   -0.068235
  19 C :   -0.053157
  20 C :   -0.192249
  21 H :    0.028747
  22 C :   -0.027083
  23 H :    0.039582
  24 H :    0.028861
  25 C :   -0.052204
  26 H :    0.016858
  27 H :    0.022730
  28 C :   -0.064899
  29 H :    0.018224
  30 H :    0.025107
  31 H :    0.024733
  32 H :    0.020280
  33 H :    0.034168

  Mayer bond orders larger than 0.100000
B(  0-S ,  1-C ) :   1.1695 B(  0-S ,  4-C ) :   1.1932 B(  1-C ,  2-C ) :   1.5516
B(  1-C , 32-H ) :   0.9834 B(  2-C ,  3-C ) :   1.2733 B(  2-C ,  6-C ) :   1.0248
B(  3-C ,  4-C ) :   1.5452 B(  3-C ,  5-H ) :   1.0162 B(  4-C , 20-C ) :   0.9836
B(  6-C ,  7-H ) :   0.9388 B(  6-C ,  8-H ) :   0.9466 B(  6-C ,  9-C ) :   1.0464
B(  9-C , 10-H ) :   0.9571 B(  9-C , 11-H ) :   0.9550 B(  9-C , 12-C ) :   1.0796
B( 12-C , 13-H ) :   0.9782 B( 12-C , 14-H ) :   0.9728 B( 12-C , 15-H ) :   0.9746
B( 16-S , 17-C ) :   1.1586 B( 16-S , 20-C ) :   1.1406 B( 17-C , 18-C ) :   1.6162
B( 17-C , 33-H ) :   0.9619 B( 18-C , 19-C ) :   1.2366 B( 18-C , 21-H ) :   0.9897
B( 19-C , 20-C ) :   1.6253 B( 19-C , 22-C ) :   1.0318 B( 22-C , 23-H ) :   0.9468
B( 22-C , 24-H ) :   0.9367 B( 22-C , 25-C ) :   1.0467 B( 25-C , 26-H ) :   0.9528
B( 25-C , 27-H ) :   0.9558 B( 25-C , 28-C ) :   1.0920 B( 28-C , 29-H ) :   0.9696
B( 28-C , 30-H ) :   0.9709 B( 28-C , 31-H ) :   0.9730

Dispersion correction           -0.014090818
FINAL SINGLE POINT ENERGY     -1339.880236853158

DIPOLE MOMENT
-------------
                                X             Y             Z
Electronic contribution:     -1.44906      13.08181      20.13498
Nuclear contribution   :      1.33785     -13.25368     -20.48938
                        -----------------------------------------
Total Dipole Moment    :     -0.11122      -0.17187      -0.35440
                        -----------------------------------------
Magnitude (a.u.)       :      0.40928
Magnitude (Debye)      :      1.04030

Rotational constants in cm-1:     0.019237     0.007875     0.006455
Rotational constants in MHz :   576.704765   236.096528   193.509265

                             ****ORCA TERMINATED NORMALLY****
TOTAL RUN TIME: 0 days 0 hours 0 minutes 20 seconds 22 msec
