                         Program Version 4.2.1 -  RELEASE  -
|  1> ! wB97X-D3 SP def2-SVP
|  2> %pal
|  3> nprocs 24
|  4> end
|  5>
|  6> * xyz 0 1
|  7> S 	 -88.8914 	 -31.4609 	 -56.9949
|  8> C 	 -87.5369 	 -31.4304 	 -58.0191
|  9> C 	 -86.6204 	 -30.5897 	 -57.4553
| 10> C 	 -87.0252 	 -29.9464 	 -56.2671
| 11> C 	 -88.292 	 -30.3666 	 -55.8505
| 12> H 	 -86.4678 	 -29.1827 	 -55.8244
| 13> C 	 -85.2632 	 -30.2271 	 -58.1189
| 14> H 	 -84.7897 	 -29.5278 	 -57.456
| 15> H 	 -85.4777 	 -29.6649 	 -59.0435
| 16> C 	 -84.3451 	 -31.4395 	 -58.3351
| 17> H 	 -84.6103 	 -32.1634 	 -57.5674
| 18> H 	 -84.5483 	 -31.9477 	 -59.2668
| 19> C 	 -82.8821 	 -31.2906 	 -58.2104
| 20> H 	 -82.5324 	 -31.0741 	 -57.2032
| 21> H 	 -82.4702 	 -32.2804 	 -58.5202
| 22> H 	 -82.3828 	 -30.5706 	 -58.9263
| 23> S 	 -90.5634 	 -29.1048 	 -55.0993
| 24> C 	 -90.8482 	 -28.692 	 -53.4825
| 25> C 	 -89.9071 	 -29.0742 	 -52.5755
| 26> C 	 -88.8087 	 -29.561 	 -53.3694
| 27> C 	 -89.0285 	 -29.7893 	 -54.6896
| 28> H 	 -89.9972 	 -28.9313 	 -51.5069
| 29> C 	 -87.5476 	 -29.8458 	 -52.6051
| 30> H 	 -87.3669 	 -29.0921 	 -51.9717
| 31> H 	 -86.7435 	 -29.8993 	 -53.3567
| 32> C 	 -87.5824 	 -31.1297 	 -51.7112
| 33> H 	 -87.8322 	 -32.0195 	 -52.3513
| 34> H 	 -88.4318 	 -30.9375 	 -50.9985
| 35> C 	 -86.1815 	 -31.211 	 -51.141
| 36> H 	 -86.029 	 -30.3687 	 -50.4246
| 37> H 	 -85.5066 	 -31.2503 	 -51.9075
| 38> H 	 -86.1537 	 -32.0991 	 -50.5001
| 39> H 	 -87.558 	 -31.6978 	 -59.0048
| 40> H 	 -91.702 	 -28.26 	 -53.0412
| 41> *
| 42>
| 43>                          ****END OF INPUT****

CARTESIAN COORDINATES (ANGSTROEM)
---------------------------------
  S    -88.891400  -31.460900  -56.994900
  C    -87.536900  -31.430400  -58.019100
  C    -86.620400  -30.589700  -57.455300
  C    -87.025200  -29.946400  -56.267100
  C    -88.292000  -30.366600  -55.850500
  H    -86.467800  -29.182700  -55.824400
  C    -85.263200  -30.227100  -58.118900
  H    -84.789700  -29.527800  -57.456000
  H    -85.477700  -29.664900  -59.043500
  C    -84.345100  -31.439500  -58.335100
  H    -84.610300  -32.163400  -57.567400
  H    -84.548300  -31.947700  -59.266800
  C    -82.882100  -31.290600  -58.210400
  H    -82.532400  -31.074100  -57.203200
  H    -82.470200  -32.280400  -58.520200
  H    -82.382800  -30.570600  -58.926300
  S    -90.563400  -29.104800  -55.099300
  C    -90.848200  -28.692000  -53.482500
  C    -89.907100  -29.074200  -52.575500
  C    -88.808700  -29.561000  -53.369400
  C    -89.028500  -29.789300  -54.689600
  H    -89.997200  -28.931300  -51.506900
  C    -87.547600  -29.845800  -52.605100
  H    -87.366900  -29.092100  -51.971700
  H    -86.743500  -29.899300  -53.356700
  C    -87.582400  -31.129700  -51.711200
  H    -87.832200  -32.019500  -52.351300
  H    -88.431800  -30.937500  -50.998500
  C    -86.181500  -31.211000  -51.141000
  H    -86.029000  -30.368700  -50.424600
  H    -85.506600  -31.250300  -51.907500
  H    -86.153700  -32.099100  -50.500100
  H    -87.558000  -31.697800  -59.004800
  H    -91.702000  -28.260000  -53.041200

 Total Charge           Charge          ....    0
 Multiplicity           Mult            ....    1
 Number of Electrons    NEL             ....  134
 Basis Dimension        Dim             ....  322

ORBITAL ENERGIES
----------------

  NO   OCC          E(Eh)            E(eV)
   0   2.0000     -88.966630     -2420.9051
   1   2.0000     -88.961746     -2420.7722
   2   2.0000     -10.331076      -281.1229
   3   2.0000     -10.322717      -280.8954
   4   2.0000     -10.306637      -280.4578
   5   2.0000     -10.300977      -280.3038
   6   2.0000     -10.297198      -280.2010
   7   2.0000     -10.295858      -280.1645
   8   2.0000     -10.289845      -280.0009
   9   2.0000     -10.289699      -279.9969
  10   2.0000     -10.289673      -279.9962
  11   2.0000     -10.286769      -279.9172
  12   2.0000     -10.280438      -279.7449
  13   2.0000     -10.279365      -279.7157
  14   2.0000     -10.274470      -279.5826
  15   2.0000     -10.273394      -279.5533
  16   2.0000      -8.082938      -219.9479
  17   2.0000      -8.078205      -219.8191
  18   2.0000      -6.041252      -164.3908
  19   2.0000      -6.036905      -164.2725
  20   2.0000      -6.036630      -164.2651
  21   2.0000      -6.034112      -164.1965
  22   2.0000      -6.032498      -164.1526
  23   2.0000      -6.028916      -164.0551
  24   2.0000      -1.018993       -27.7282
  25   2.0000      -0.999766       -27.2050
  26   2.0000      -0.913552       -24.8590
  27   2.0000      -0.911544       -24.8044
  28   2.0000      -0.874636       -23.8001
  29   2.0000      -0.855775       -23.2868
  30   2.0000      -0.851758       -23.1775
  31   2.0000      -0.821773       -22.3616
  32   2.0000      -0.781064       -21.2538
  33   2.0000      -0.771480       -20.9930
  34   2.0000      -0.705575       -19.1997
  35   2.0000      -0.696334       -18.9482
  36   2.0000      -0.690379       -18.7862
  37   2.0000      -0.668044       -18.1784
  38   2.0000      -0.651149       -17.7187
  39   2.0000      -0.619777       -16.8650
  40   2.0000      -0.594693       -16.1824
  41   2.0000      -0.578953       -15.7541
  42   2.0000      -0.571999       -15.5649
  43   2.0000      -0.567489       -15.4422
  44   2.0000      -0.528870       -14.3913
  45   2.0000      -0.525405       -14.2970
  46   2.0000      -0.522105       -14.2072
  47   2.0000      -0.516637       -14.0584
  48   2.0000      -0.511025       -13.9057
  49   2.0000      -0.502287       -13.6679
  50   2.0000      -0.492838       -13.4108
  51   2.0000      -0.485292       -13.2055
  52   2.0000      -0.477794       -13.0014
  53   2.0000      -0.471375       -12.8268
  54   2.0000      -0.464356       -12.6358
  55   2.0000      -0.452640       -12.3170
  56   2.0000      -0.442775       -12.0485
  57   2.0000      -0.428859       -11.6698
  58   2.0000      -0.425486       -11.5781
  59   2.0000      -0.422673       -11.5015
  60   2.0000      -0.418079       -11.3765
  61   2.0000      -0.409644       -11.1470
  62   2.0000      -0.408155       -11.1065
  63   2.0000      -0.347169        -9.4469
  64   2.0000      -0.331269        -9.0143
  65   2.0000      -0.326071        -8.8728
  66   2.0000      -0.298459        -8.1215
  67   0.0000       0.037554         1.0219
  68   0.0000       0.077174         2.1000
  69   0.0000       0.119501         3.2518
  70   0.0000       0.130788         3.5589
  71   0.0000       0.134811         3.6684

MULLIKEN ATOMIC CHARGES
-----------------------
   0 S :    0.123685
   1 C :   -0.085856
   2 C :   -0.130934
   3 C :    0.045019
   4 C :   -0.132695
   5 H :   -0.005166
   6 C :    0.102033
   7 H :   -0.000628
   8 H :    0.041742
   9 C :   -0.068700
  10 H :    0.030949
  11 H :    0.022941
  12 C :   -0.066392
  13 H :    0.034199
  14 H :    0.031416
  15 H :    0.033230
  16 S :    0.113229
  17 C :   -0.036718
  18 C :   -0.059092
  19 C :   -0.063223
  20 C :   -0.137354
  21 H :    0.027634
  22 C :    0.086528
  23 H :   -0.014899
  24 H :    0.007064
  25 C :   -0.122579
  26 H :    0.044681
  27 H :    0.032601
  28 C :    0.015331
  29 H :    0.029700
  30 H :    0.020676
  31 H :    0.030068
  32 H :    0.025901
  33 H :    0.025610
Sum of atomic charges:   -0.0000000

LOEWDIN ATOMIC CHARGES
----------------------
   0 S :    0.460929
   1 C :   -0.211036
   2 C :   -0.059842
   3 C :   -0.065992
   4 C :   -0.214023
   5 H :    0.020952
   6 C :   -0.028154
   7 H :    0.022121
   8 H :    0.034034
   9 C :   -0.051502
  10 H :    0.030315
  11 H :    0.022882
  12 C :   -0.069730
  13 H :    0.021803
  14 H :    0.033528
  15 H :    0.026201
  16 S :    0.432515
  17 C :   -0.186279
  18 C :   -0.072409
  19 C :   -0.050679
  20 C :   -0.209825
  21 H :    0.035781
  22 C :   -0.026686
  23 H :    0.009137
  24 H :    0.024789
  25 C :   -0.036012
  26 H :    0.029599
  27 H :    0.024568
  28 C :   -0.054703
  29 H :    0.030943
  30 H :    0.014019
  31 H :    0.026790
  32 H :    0.015534
  33 H :    0.020435

  Mayer bond orders larger than 0.100000
B(  0-S ,  1-C ) :   1.1582 B(  0-S ,  4-C ) :   1.2087 B(  1-C ,  2-C ) :   1.5516
B(  1-C ,  4-C ) :   0.1019 B(  1-C , 32-H ) :   0.9859 B(  2-C ,  3-C ) :   1.3184
B(  2-C ,  6-C ) :   1.0206 B(  3-C ,  4-C ) :   1.4933 B(  3-C ,  5-H ) :   1.0030
B(  4-C , 20-C ) :   0.9977 B(  6-C ,  7-H ) :   0.9440 B(  6-C ,  8-H ) :   0.9375
B(  6-C ,  9-C ) :   1.0494 B(  9-C , 10-H ) :   0.9570 B(  9-C , 11-H ) :   0.9509
B(  9-C , 12-C ) :   1.1080 B( 12-C , 13-H ) :   0.9730 B( 12-C , 14-H ) :   0.9701
B( 12-C , 15-H ) :   0.9720 B( 16-S , 17-C ) :   1.1758 B( 16-S , 20-C ) :   1.1186
B( 17-C , 18-C ) :   1.6277 B( 17-C , 33-H ) :   0.9611 B( 18-C , 19-C ) :   1.2080
B( 18-C , 21-H ) :   0.9918 B( 19-C , 20-C ) :   1.6546 B( 19-C , 22-C ) :   1.0497
B( 22-C , 23-H ) :   0.9246 B( 22-C , 24-H ) :   0.9370 B( 22-C , 25-C ) :   1.0603
B( 25-C , 26-H ) :   0.9564 B( 25-C , 27-H ) :   0.9548 B( 25-C , 28-C ) :   1.0800
B( 28-C , 29-H ) :   0.9711 B( 28-C , 30-H ) :   0.9732 B( 28-C , 31-H ) :   0.9715

Dispersion correction           -0.013326290
FINAL SINGLE POINT ENERGY     -1339.850637260936

DIPOLE MOMENT
-------------
                                X             Y             Z
Electronic contribution:    -27.99555       4.77548      -6.79731
Nuclear contribution   :     28.43830      -4.60331       7.03312
                        -----------------------------------------
Total Dipole Moment    :      0.44275       0.17217       0.23581
                        -----------------------------------------
Magnitude (a.u.)       :      0.53035
Magnitude (Debye)      :      1.34805

Rotational constants in cm-1:     0.018535     0.008161     0.006231
Rotational constants in MHz :   555.657492   244.650545   186.810503

                             ****ORCA TERMINATED NORMALLY****
TOTAL RUN TIME: 0 days 0 hours 0 minutes 20 seconds 955 msec
