                         Program Version 4.2.1 -  RELEASE  -
|  1> ! wB97X-D3 SP def2-SVP
|  2> %pal
|  3> nprocs 24
|  4> end
|  5>
|  6> * xyz 0 1
|  7> S 	 -93.8732 	 6.28218 	 -2.59823
|  8> C 	 -92.2517 	 6.3804 	 -3.10998
|  9> C 	 -91.3672 	 5.94077 	 -2.13096
| 10> C 	 -92.0721 	 5.41743 	 -0.97518
| 11> C 	 -93.4257 	 5.6406 	 -1.04009
| 12> H 	 -91.6224 	 4.99122 	 -0.0258145
| 13> C 	 -89.8954 	 5.89454 	 -2.17882
| 14> H 	 -89.4638 	 6.63836 	 -1.41201
| 15> H 	 -89.5839 	 6.29398 	 -3.14289
| 16> C 	 -89.2667 	 4.50946 	 -2.04695
| 17> H 	 -89.5472 	 3.86241 	 -1.16752
| 18> H 	 -89.6097 	 3.96891 	 -2.90987
| 19> C 	 -87.6341 	 4.55546 	 -2.14508
| 20> H 	 -87.1732 	 5.23014 	 -1.3589
| 21> H 	 -87.1298 	 3.57544 	 -1.90546
| 22> H 	 -87.2044 	 4.8844 	 -3.14367
| 23> S 	 -95.6032 	 6.4227 	 0.29022
| 24> C 	 -96.1914 	 5.46706 	 1.60888
| 25> C 	 -95.4671 	 4.33571 	 1.70115
| 26> C 	 -94.4969 	 4.11932 	 0.72947
| 27> C 	 -94.4274 	 5.17618 	 -0.074429
| 28> H 	 -95.5558 	 3.57088 	 2.47444
| 29> C 	 -93.5225 	 2.90815 	 0.727469
| 30> H 	 -92.6285 	 3.35481 	 1.17238
| 31> H 	 -93.2257 	 2.57439 	 -0.24072
| 32> C 	 -93.8885 	 1.6394 	 1.52374
| 33> H 	 -94.1451 	 1.87246 	 2.57347
| 34> H 	 -92.9148 	 1.08823 	 1.62969
| 35> C 	 -94.8794 	 0.723156 	 0.878784
| 36> H 	 -94.7232 	 0.459982 	 -0.163959
| 37> H 	 -95.8118 	 1.20252 	 0.847735
| 38> H 	 -95.0155 	 -0.218561 	 1.40963
| 39> H 	 -92.0407 	 6.89606 	 -4.09471
| 40> H 	 -97.0333 	 5.62828 	 2.27131
| 41> *
| 42>
| 43>                          ****END OF INPUT****

CARTESIAN COORDINATES (ANGSTROEM)
---------------------------------
  S    -93.873200    6.282180   -2.598230
  C    -92.251700    6.380400   -3.109980
  C    -91.367200    5.940770   -2.130960
  C    -92.072100    5.417430   -0.975180
  C    -93.425700    5.640600   -1.040090
  H    -91.622400    4.991220   -0.025815
  C    -89.895400    5.894540   -2.178820
  H    -89.463800    6.638360   -1.412010
  H    -89.583900    6.293980   -3.142890
  C    -89.266700    4.509460   -2.046950
  H    -89.547200    3.862410   -1.167520
  H    -89.609700    3.968910   -2.909870
  C    -87.634100    4.555460   -2.145080
  H    -87.173200    5.230140   -1.358900
  H    -87.129800    3.575440   -1.905460
  H    -87.204400    4.884400   -3.143670
  S    -95.603200    6.422700    0.290220
  C    -96.191400    5.467060    1.608880
  C    -95.467100    4.335710    1.701150
  C    -94.496900    4.119320    0.729470
  C    -94.427400    5.176180   -0.074429
  H    -95.555800    3.570880    2.474440
  C    -93.522500    2.908150    0.727469
  H    -92.628500    3.354810    1.172380
  H    -93.225700    2.574390   -0.240720
  C    -93.888500    1.639400    1.523740
  H    -94.145100    1.872460    2.573470
  H    -92.914800    1.088230    1.629690
  C    -94.879400    0.723156    0.878784
  H    -94.723200    0.459982   -0.163959
  H    -95.811800    1.202520    0.847735
  H    -95.015500   -0.218561    1.409630
  H    -92.040700    6.896060   -4.094710
  H    -97.033300    5.628280    2.271310

 Total Charge           Charge          ....    0
 Multiplicity           Mult            ....    1
 Number of Electrons    NEL             ....  134
 Basis Dimension        Dim             ....  322

ORBITAL ENERGIES
----------------

  NO   OCC          E(Eh)            E(eV)
   0   2.0000     -88.963361     -2420.8161
   1   2.0000     -88.962363     -2420.7890
   2   2.0000     -10.325144      -280.9615
   3   2.0000     -10.317823      -280.7622
   4   2.0000     -10.316976      -280.7392
   5   2.0000     -10.310712      -280.5687
   6   2.0000     -10.302883      -280.3557
   7   2.0000     -10.299344      -280.2594
   8   2.0000     -10.297399      -280.2065
   9   2.0000     -10.297070      -280.1975
  10   2.0000     -10.296979      -280.1950
  11   2.0000     -10.296394      -280.1791
  12   2.0000     -10.294632      -280.1312
  13   2.0000     -10.294094      -280.1165
  14   2.0000     -10.284101      -279.8446
  15   2.0000     -10.271321      -279.4969
  16   2.0000      -8.079288      -219.8486
  17   2.0000      -8.077783      -219.8077
  18   2.0000      -6.037747      -164.2955
  19   2.0000      -6.036282      -164.2556
  20   2.0000      -6.033568      -164.1817
  21   2.0000      -6.032265      -164.1463
  22   2.0000      -6.030103      -164.0875
  23   2.0000      -6.028422      -164.0417
  24   2.0000      -1.016201       -27.6522
  25   2.0000      -0.992400       -27.0046
  26   2.0000      -0.912454       -24.8291
  27   2.0000      -0.909067       -24.7370
  28   2.0000      -0.870417       -23.6852
  29   2.0000      -0.856448       -23.3051
  30   2.0000      -0.840356       -22.8673
  31   2.0000      -0.812973       -22.1221
  32   2.0000      -0.789871       -21.4935
  33   2.0000      -0.768886       -20.9225
  34   2.0000      -0.708620       -19.2825
  35   2.0000      -0.700885       -19.0720
  36   2.0000      -0.692727       -18.8500
  37   2.0000      -0.661762       -18.0075
  38   2.0000      -0.642348       -17.4792
  39   2.0000      -0.619660       -16.8618
  40   2.0000      -0.604195       -16.4410
  41   2.0000      -0.561347       -15.2750
  42   2.0000      -0.558419       -15.1954
  43   2.0000      -0.551250       -15.0003
  44   2.0000      -0.539365       -14.6769
  45   2.0000      -0.519654       -14.1405
  46   2.0000      -0.515006       -14.0140
  47   2.0000      -0.507621       -13.8131
  48   2.0000      -0.504518       -13.7286
  49   2.0000      -0.499836       -13.6012
  50   2.0000      -0.486910       -13.2495
  51   2.0000      -0.480338       -13.0707
  52   2.0000      -0.473799       -12.8927
  53   2.0000      -0.465192       -12.6585
  54   2.0000      -0.459970       -12.5164
  55   2.0000      -0.449028       -12.2187
  56   2.0000      -0.446833       -12.1589
  57   2.0000      -0.440800       -11.9948
  58   2.0000      -0.433927       -11.8078
  59   2.0000      -0.427925       -11.6444
  60   2.0000      -0.422245       -11.4899
  61   2.0000      -0.420258       -11.4358
  62   2.0000      -0.409146       -11.1334
  63   2.0000      -0.351009        -9.5514
  64   2.0000      -0.334161        -9.0930
  65   2.0000      -0.327752        -8.9186
  66   2.0000      -0.293421        -7.9844
  67   0.0000       0.036171         0.9843
  68   0.0000       0.078470         2.1353
  69   0.0000       0.111939         3.0460
  70   0.0000       0.119867         3.2618
  71   0.0000       0.128440         3.4950

MULLIKEN ATOMIC CHARGES
-----------------------
   0 S :    0.111699
   1 C :   -0.150394
   2 C :   -0.072250
   3 C :   -0.028000
   4 C :   -0.123315
   5 H :    0.037792
   6 C :    0.068060
   7 H :    0.050095
   8 H :    0.009309
   9 C :   -0.087048
  10 H :    0.047034
  11 H :    0.033521
  12 C :   -0.115428
  13 H :    0.038361
  14 H :    0.042148
  15 H :    0.046750
  16 S :    0.102544
  17 C :   -0.055338
  18 C :   -0.059007
  19 C :   -0.030409
  20 C :   -0.163853
  21 H :    0.005834
  22 C :    0.066835
  23 H :    0.037519
  24 H :    0.028457
  25 C :   -0.094809
  26 H :    0.030326
  27 H :    0.030559
  28 C :   -0.006896
  29 H :    0.024171
  30 H :    0.014641
  31 H :    0.035279
  32 H :    0.075576
  33 H :    0.050239
Sum of atomic charges:   -0.0000000

LOEWDIN ATOMIC CHARGES
----------------------
   0 S :    0.421624
   1 C :   -0.221799
   2 C :   -0.068444
   3 C :   -0.070452
   4 C :   -0.199579
   5 H :    0.041669
   6 C :   -0.041701
   7 H :    0.040921
   8 H :    0.029432
   9 C :   -0.039529
  10 H :    0.029525
  11 H :    0.025063
  12 C :   -0.086929
  13 H :    0.027645
  14 H :    0.029679
  15 H :    0.029491
  16 S :    0.409229
  17 C :   -0.190564
  18 C :   -0.076362
  19 C :   -0.064680
  20 C :   -0.189909
  21 H :    0.027877
  22 C :   -0.021913
  23 H :    0.034899
  24 H :    0.029428
  25 C :   -0.046913
  26 H :    0.023779
  27 H :    0.032003
  28 C :   -0.065851
  29 H :    0.027491
  30 H :    0.019768
  31 H :    0.029844
  32 H :    0.040976
  33 H :    0.034281

  Mayer bond orders larger than 0.100000
B(  0-S ,  1-C ) :   1.1506 B(  0-S ,  4-C ) :   1.1595 B(  1-C ,  2-C ) :   1.5945
B(  1-C , 32-H ) :   0.9598 B(  2-C ,  3-C ) :   1.2222 B(  2-C ,  6-C ) :   1.0505
B(  3-C ,  4-C ) :   1.6005 B(  3-C ,  5-H ) :   0.9817 B(  4-C , 20-C ) :   0.9910
B(  6-C ,  7-H ) :   0.9324 B(  6-C ,  8-H ) :   0.9371 B(  6-C ,  9-C ) :   1.0469
B(  9-C , 10-H ) :   0.9605 B(  9-C , 11-H ) :   0.9563 B(  9-C , 12-C ) :   1.0593
B( 12-C , 13-H ) :   0.9778 B( 12-C , 14-H ) :   0.9784 B( 12-C , 15-H ) :   0.9777
B( 16-S , 17-C ) :   1.1377 B( 16-S , 20-C ) :   1.1449 B( 17-C , 18-C ) :   1.6158
B( 17-C , 33-H ) :   0.9663 B( 18-C , 19-C ) :   1.2610 B( 18-C , 21-H ) :   0.9762
B( 19-C , 20-C ) :   1.6606 B( 19-C , 22-C ) :   1.0040 B( 22-C , 23-H ) :   0.9289
B( 22-C , 24-H ) :   0.9401 B( 22-C , 25-C ) :   1.0855 B( 25-C , 26-H ) :   0.9457
B( 25-C , 27-H ) :   0.9494 B( 25-C , 28-C ) :   1.0858 B( 28-C , 29-H ) :   0.9691
B( 28-C , 30-H ) :   0.9713 B( 28-C , 31-H ) :   0.9717

Dispersion correction           -0.013834739
FINAL SINGLE POINT ENERGY     -1339.877330524902

DIPOLE MOMENT
-------------
                                X             Y             Z
Electronic contribution:    -21.54452      20.52713      -3.82234
Nuclear contribution   :     22.03203     -21.02000       4.05652
                        -----------------------------------------
Total Dipole Moment    :      0.48750      -0.49287       0.23418
                        -----------------------------------------
Magnitude (a.u.)       :      0.73172
Magnitude (Debye)      :      1.85990

Rotational constants in cm-1:     0.017425     0.008612     0.006380
Rotational constants in MHz :   522.394066   258.190748   191.258910

                             ****ORCA TERMINATED NORMALLY****
TOTAL RUN TIME: 0 days 0 hours 0 minutes 20 seconds 260 msec
