                         Program Version 4.2.1 -  RELEASE  -
|  1> ! wB97X-D3 SP def2-SVP
|  2> %pal
|  3> nprocs 24
|  4> end
|  5>
|  6> * xyz 0 1
|  7> S 	 -50.1839 	 13.4004 	 28.2334
|  8> C 	 -48.9711 	 12.9251 	 26.9502
|  9> C 	 -49.4615 	 12.8812 	 25.672
| 10> C 	 -50.8417 	 13.2849 	 25.7209
| 11> C 	 -51.3795 	 13.6249 	 26.9616
| 12> H 	 -51.5077 	 13.3946 	 24.8681
| 13> C 	 -48.7378 	 12.5237 	 24.3585
| 14> H 	 -48.2065 	 13.381 	 23.9683
| 15> H 	 -49.4558 	 12.3252 	 23.5512
| 16> C 	 -47.901 	 11.2945 	 24.4203
| 17> H 	 -47.008 	 11.3329 	 25.0488
| 18> H 	 -48.5522 	 10.3908 	 24.5245
| 19> C 	 -47.1968 	 11.2594 	 22.9822
| 20> H 	 -47.9261 	 11.031 	 22.1933
| 21> H 	 -46.7662 	 12.2801 	 22.7703
| 22> H 	 -46.432 	 10.5194 	 22.8662
| 23> S 	 -52.9685 	 15.5476 	 28.0462
| 24> C 	 -54.6638 	 15.3904 	 27.8603
| 25> C 	 -55.0689 	 14.1255 	 27.4743
| 26> C 	 -53.9568 	 13.334 	 27.1349
| 27> C 	 -52.7369 	 13.9879 	 27.3696
| 28> H 	 -56.1462 	 13.8547 	 27.4158
| 29> C 	 -54.0218 	 12.0319 	 26.3761
| 30> H 	 -53.3475 	 12.0685 	 25.5422
| 31> H 	 -55.0751 	 12.0499 	 25.9106
| 32> C 	 -53.6785 	 10.8779 	 27.2316
| 33> H 	 -54.4092 	 10.8554 	 27.9959
| 34> H 	 -52.7071 	 11.1384 	 27.6054
| 35> C 	 -53.5969 	 9.44143 	 26.6363
| 36> H 	 -53.3954 	 8.7265 	 27.4478
| 37> H 	 -52.837 	 9.30259 	 25.8668
| 38> H 	 -54.5352 	 9.132 	 26.1463
| 39> H 	 -47.9449 	 12.8192 	 27.2238
| 40> H 	 -55.4029 	 16.172 	 27.9859
| 41> *
| 42>
| 43>                          ****END OF INPUT****

CARTESIAN COORDINATES (ANGSTROEM)
---------------------------------
  S    -50.183900   13.400400   28.233400
  C    -48.971100   12.925100   26.950200
  C    -49.461500   12.881200   25.672000
  C    -50.841700   13.284900   25.720900
  C    -51.379500   13.624900   26.961600
  H    -51.507700   13.394600   24.868100
  C    -48.737800   12.523700   24.358500
  H    -48.206500   13.381000   23.968300
  H    -49.455800   12.325200   23.551200
  C    -47.901000   11.294500   24.420300
  H    -47.008000   11.332900   25.048800
  H    -48.552200   10.390800   24.524500
  C    -47.196800   11.259400   22.982200
  H    -47.926100   11.031000   22.193300
  H    -46.766200   12.280100   22.770300
  H    -46.432000   10.519400   22.866200
  S    -52.968500   15.547600   28.046200
  C    -54.663800   15.390400   27.860300
  C    -55.068900   14.125500   27.474300
  C    -53.956800   13.334000   27.134900
  C    -52.736900   13.987900   27.369600
  H    -56.146200   13.854700   27.415800
  C    -54.021800   12.031900   26.376100
  H    -53.347500   12.068500   25.542200
  H    -55.075100   12.049900   25.910600
  C    -53.678500   10.877900   27.231600
  H    -54.409200   10.855400   27.995900
  H    -52.707100   11.138400   27.605400
  C    -53.596900    9.441430   26.636300
  H    -53.395400    8.726500   27.447800
  H    -52.837000    9.302590   25.866800
  H    -54.535200    9.132000   26.146300
  H    -47.944900   12.819200   27.223800
  H    -55.402900   16.172000   27.985900

 Total Charge           Charge          ....    0
 Multiplicity           Mult            ....    1
 Number of Electrons    NEL             ....  134
 Basis Dimension        Dim             ....  322

ORBITAL ENERGIES
----------------

  NO   OCC          E(Eh)            E(eV)
   0   2.0000     -88.968912     -2420.9672
   1   2.0000     -88.964138     -2420.8373
   2   2.0000     -10.330465      -281.1063
   3   2.0000     -10.320577      -280.8372
   4   2.0000     -10.316554      -280.7277
   5   2.0000     -10.314630      -280.6753
   6   2.0000     -10.306292      -280.4485
   7   2.0000     -10.300405      -280.2883
   8   2.0000     -10.298124      -280.2262
   9   2.0000     -10.295898      -280.1656
  10   2.0000     -10.295666      -280.1593
  11   2.0000     -10.295654      -280.1590
  12   2.0000     -10.286168      -279.9009
  13   2.0000     -10.284697      -279.8608
  14   2.0000     -10.276926      -279.6494
  15   2.0000     -10.273504      -279.5562
  16   2.0000      -8.084793      -219.9984
  17   2.0000      -8.077784      -219.8077
  18   2.0000      -6.043024      -164.4390
  19   2.0000      -6.039118      -164.3328
  20   2.0000      -6.036355      -164.2576
  21   2.0000      -6.035787      -164.2421
  22   2.0000      -6.032569      -164.1546
  23   2.0000      -6.028415      -164.0415
  24   2.0000      -1.010270       -27.4909
  25   2.0000      -0.980045       -26.6684
  26   2.0000      -0.917804       -24.9747
  27   2.0000      -0.914110       -24.8742
  28   2.0000      -0.869494       -23.6601
  29   2.0000      -0.849924       -23.1276
  30   2.0000      -0.839675       -22.8487
  31   2.0000      -0.808845       -22.0098
  32   2.0000      -0.782785       -21.3007
  33   2.0000      -0.771391       -20.9906
  34   2.0000      -0.706728       -19.2310
  35   2.0000      -0.701606       -19.0917
  36   2.0000      -0.687445       -18.7063
  37   2.0000      -0.661585       -18.0027
  38   2.0000      -0.643215       -17.5028
  39   2.0000      -0.615257       -16.7420
  40   2.0000      -0.595304       -16.1991
  41   2.0000      -0.580824       -15.8050
  42   2.0000      -0.568717       -15.4756
  43   2.0000      -0.564475       -15.3601
  44   2.0000      -0.523942       -14.2572
  45   2.0000      -0.519885       -14.1468
  46   2.0000      -0.517347       -14.0777
  47   2.0000      -0.506393       -13.7797
  48   2.0000      -0.501759       -13.6536
  49   2.0000      -0.495262       -13.4768
  50   2.0000      -0.491689       -13.3795
  51   2.0000      -0.478528       -13.0214
  52   2.0000      -0.471021       -12.8171
  53   2.0000      -0.457907       -12.4603
  54   2.0000      -0.456084       -12.4107
  55   2.0000      -0.450134       -12.2488
  56   2.0000      -0.446553       -12.1513
  57   2.0000      -0.438238       -11.9251
  58   2.0000      -0.433275       -11.7900
  59   2.0000      -0.430747       -11.7212
  60   2.0000      -0.420861       -11.4522
  61   2.0000      -0.415739       -11.3128
  62   2.0000      -0.409954       -11.1554
  63   2.0000      -0.341308        -9.2875
  64   2.0000      -0.334896        -9.1130
  65   2.0000      -0.327970        -8.9245
  66   2.0000      -0.294133        -8.0038
  67   0.0000       0.035333         0.9615
  68   0.0000       0.060489         1.6460
  69   0.0000       0.102511         2.7895
  70   0.0000       0.124047         3.3755
  71   0.0000       0.130784         3.5588

MULLIKEN ATOMIC CHARGES
-----------------------
   0 S :    0.087921
   1 C :   -0.134841
   2 C :   -0.026207
   3 C :    0.021671
   4 C :   -0.164665
   5 H :    0.013993
   6 C :    0.063037
   7 H :    0.037662
   8 H :    0.019204
   9 C :   -0.087805
  10 H :    0.045145
  11 H :    0.055324
  12 C :   -0.081918
  13 H :    0.029335
  14 H :    0.034809
  15 H :    0.030173
  16 S :    0.142881
  17 C :   -0.094769
  18 C :   -0.060862
  19 C :   -0.035782
  20 C :   -0.179624
  21 H :    0.034749
  22 C :    0.091353
  23 H :    0.002924
  24 H :    0.019853
  25 C :   -0.051817
  26 H :    0.014064
  27 H :    0.032295
  28 C :   -0.037879
  29 H :    0.039517
  30 H :    0.026522
  31 H :    0.023611
  32 H :    0.037238
  33 H :    0.052888
Sum of atomic charges:    0.0000000

LOEWDIN ATOMIC CHARGES
----------------------
   0 S :    0.364474
   1 C :   -0.162841
   2 C :   -0.059856
   3 C :   -0.066892
   4 C :   -0.190150
   5 H :    0.028033
   6 C :   -0.032240
   7 H :    0.033087
   8 H :    0.035347
   9 C :   -0.037426
  10 H :    0.026352
  11 H :    0.035867
  12 C :   -0.067956
  13 H :    0.021975
  14 H :    0.028831
  15 H :    0.017522
  16 S :    0.449185
  17 C :   -0.195860
  18 C :   -0.076843
  19 C :   -0.049171
  20 C :   -0.228774
  21 H :    0.041087
  22 C :   -0.032674
  23 H :    0.022486
  24 H :    0.031688
  25 C :   -0.036916
  26 H :    0.019882
  27 H :    0.026724
  28 C :   -0.066784
  29 H :    0.030721
  30 H :    0.021650
  31 H :    0.023195
  32 H :    0.017376
  33 H :    0.028900

  Mayer bond orders larger than 0.100000
B(  0-S ,  1-C ) :   1.1211 B(  0-S ,  4-C ) :   1.1343 B(  1-C ,  2-C ) :   1.6441
B(  1-C , 32-H ) :   0.9724 B(  2-C ,  3-C ) :   1.2153 B(  2-C ,  6-C ) :   0.9883
B(  3-C ,  4-C ) :   1.6247 B(  3-C ,  5-H ) :   0.9873 B(  4-C , 20-C ) :   0.9976
B(  6-C ,  7-H ) :   0.9382 B(  6-C ,  8-H ) :   0.9462 B(  6-C ,  9-C ) :   1.0724
B(  9-C , 10-H ) :   0.9557 B(  9-C , 11-H ) :   0.9584 B(  9-C , 12-C ) :   1.0645
B( 12-C , 13-H ) :   0.9761 B( 12-C , 14-H ) :   0.9752 B( 12-C , 15-H ) :   0.9768
B( 16-S , 17-C ) :   1.1855 B( 16-S , 20-C ) :   1.1649 B( 17-C , 18-C ) :   1.5804
B( 17-C , 20-C ) :   0.1049 B( 17-C , 33-H ) :   0.9656 B( 18-C , 19-C ) :   1.2797
B( 18-C , 21-H ) :   0.9860 B( 19-C , 20-C ) :   1.5602 B( 19-C , 22-C ) :   1.0375
B( 22-C , 23-H ) :   0.9290 B( 22-C , 24-H ) :   0.9301 B( 22-C , 25-C ) :   1.0616
B( 25-C , 26-H ) :   0.9523 B( 25-C , 27-H ) :   0.9548 B( 25-C , 28-C ) :   1.0854
B( 28-C , 29-H ) :   0.9749 B( 28-C , 30-H ) :   0.9742 B( 28-C , 31-H ) :   0.9738

Dispersion correction           -0.014099859
FINAL SINGLE POINT ENERGY     -1339.872401206927

DIPOLE MOMENT
-------------
                                X             Y             Z
Electronic contribution:     -6.01389      22.37322      19.15194
Nuclear contribution   :      5.96437     -22.60367     -19.78014
                        -----------------------------------------
Total Dipole Moment    :     -0.04952      -0.23045      -0.62820
                        -----------------------------------------
Magnitude (a.u.)       :      0.67097
Magnitude (Debye)      :      1.70547

Rotational constants in cm-1:     0.020065     0.008005     0.006625
Rotational constants in MHz :   601.530510   239.994002   198.600701

                             ****ORCA TERMINATED NORMALLY****
TOTAL RUN TIME: 0 days 0 hours 0 minutes 21 seconds 713 msec
