                         Program Version 4.2.1 -  RELEASE  -
|  1> ! wB97X-D3 SP def2-SVP
|  2> %pal
|  3> nprocs 24
|  4> end
|  5>
|  6> * xyz 0 1
|  7> S 	 -121.836 	 59.2259 	 -34.8175
|  8> C 	 -122.019 	 59.1581 	 -36.555
|  9> C 	 -122.337 	 60.3713 	 -37.1271
| 10> C 	 -122.23 	 61.4047 	 -36.2212
| 11> C 	 -121.852 	 61.0293 	 -34.9371
| 12> H 	 -122.52 	 62.3824 	 -36.5488
| 13> C 	 -122.814 	 60.611 	 -38.5427
| 14> H 	 -123.632 	 61.339 	 -38.5016
| 15> H 	 -123.316 	 59.7128 	 -38.932
| 16> C 	 -121.765 	 61.2022 	 -39.5314
| 17> H 	 -122.261 	 61.4903 	 -40.4563
| 18> H 	 -121.519 	 62.1149 	 -39.0387
| 19> C 	 -120.551 	 60.2902 	 -39.7967
| 20> H 	 -120.756 	 59.5688 	 -40.5388
| 21> H 	 -119.666 	 60.906 	 -39.8791
| 22> H 	 -120.306 	 59.7985 	 -38.88
| 23> S 	 -120.209 	 61.6469 	 -32.8319
| 24> C 	 -120.484 	 63.1443 	 -31.9005
| 25> C 	 -121.493 	 63.8839 	 -32.4862
| 26> C 	 -122.138 	 63.2144 	 -33.5592
| 27> C 	 -121.632 	 61.9608 	 -33.8325
| 28> H 	 -121.822 	 64.8378 	 -32.1397
| 29> C 	 -123.165 	 63.885 	 -34.3058
| 30> H 	 -123.847 	 64.3394 	 -33.5789
| 31> H 	 -123.761 	 63.2794 	 -34.9427
| 32> C 	 -122.654 	 65.0122 	 -35.2319
| 33> H 	 -121.863 	 64.7283 	 -35.8985
| 34> H 	 -122.19 	 65.7924 	 -34.5523
| 35> C 	 -123.729 	 65.6397 	 -36.0969
| 36> H 	 -124.026 	 65.0284 	 -36.9871
| 37> H 	 -123.416 	 66.6308 	 -36.4157
| 38> H 	 -124.668 	 65.7948 	 -35.5455
| 39> H 	 -122.107 	 58.1421 	 -36.9526
| 40> H 	 -119.916 	 63.4489 	 -31.014
| 41> *
| 42>
| 43>                          ****END OF INPUT****

CARTESIAN COORDINATES (ANGSTROEM)
---------------------------------
  S    -121.836000   59.225900  -34.817500
  C    -122.019000   59.158100  -36.555000
  C    -122.337000   60.371300  -37.127100
  C    -122.230000   61.404700  -36.221200
  C    -121.852000   61.029300  -34.937100
  H    -122.520000   62.382400  -36.548800
  C    -122.814000   60.611000  -38.542700
  H    -123.632000   61.339000  -38.501600
  H    -123.316000   59.712800  -38.932000
  C    -121.765000   61.202200  -39.531400
  H    -122.261000   61.490300  -40.456300
  H    -121.519000   62.114900  -39.038700
  C    -120.551000   60.290200  -39.796700
  H    -120.756000   59.568800  -40.538800
  H    -119.666000   60.906000  -39.879100
  H    -120.306000   59.798500  -38.880000
  S    -120.209000   61.646900  -32.831900
  C    -120.484000   63.144300  -31.900500
  C    -121.493000   63.883900  -32.486200
  C    -122.138000   63.214400  -33.559200
  C    -121.632000   61.960800  -33.832500
  H    -121.822000   64.837800  -32.139700
  C    -123.165000   63.885000  -34.305800
  H    -123.847000   64.339400  -33.578900
  H    -123.761000   63.279400  -34.942700
  C    -122.654000   65.012200  -35.231900
  H    -121.863000   64.728300  -35.898500
  H    -122.190000   65.792400  -34.552300
  C    -123.729000   65.639700  -36.096900
  H    -124.026000   65.028400  -36.987100
  H    -123.416000   66.630800  -36.415700
  H    -124.668000   65.794800  -35.545500
  H    -122.107000   58.142100  -36.952600
  H    -119.916000   63.448900  -31.014000

 Total Charge           Charge          ....    0
 Multiplicity           Mult            ....    1
 Number of Electrons    NEL             ....  134
 Basis Dimension        Dim             ....  322

ORBITAL ENERGIES
----------------

  NO   OCC          E(Eh)            E(eV)
   0   2.0000     -88.970256     -2421.0037
   1   2.0000     -88.962775     -2420.8002
   2   2.0000     -10.335531      -281.2441
   3   2.0000     -10.325685      -280.9762
   4   2.0000     -10.322472      -280.8887
   5   2.0000     -10.316651      -280.7303
   6   2.0000     -10.297132      -280.1992
   7   2.0000     -10.295509      -280.1550
   8   2.0000     -10.294155      -280.1182
   9   2.0000     -10.292728      -280.0794
  10   2.0000     -10.291004      -280.0325
  11   2.0000     -10.290338      -280.0143
  12   2.0000     -10.285462      -279.8816
  13   2.0000     -10.284198      -279.8473
  14   2.0000     -10.283597      -279.8309
  15   2.0000     -10.268409      -279.4176
  16   2.0000      -8.084157      -219.9811
  17   2.0000      -8.076865      -219.7827
  18   2.0000      -6.042624      -164.4282
  19   2.0000      -6.038987      -164.3292
  20   2.0000      -6.035454      -164.2331
  21   2.0000      -6.034817      -164.2157
  22   2.0000      -6.031527      -164.1262
  23   2.0000      -6.027513      -164.0170
  24   2.0000      -1.005636       -27.3648
  25   2.0000      -0.985346       -26.8126
  26   2.0000      -0.916679       -24.9441
  27   2.0000      -0.909068       -24.7370
  28   2.0000      -0.867998       -23.6194
  29   2.0000      -0.856711       -23.3123
  30   2.0000      -0.851402       -23.1678
  31   2.0000      -0.812584       -22.1115
  32   2.0000      -0.784512       -21.3477
  33   2.0000      -0.772057       -21.0087
  34   2.0000      -0.708127       -19.2691
  35   2.0000      -0.699893       -19.0450
  36   2.0000      -0.696816       -18.9613
  37   2.0000      -0.670531       -18.2461
  38   2.0000      -0.640359       -17.4251
  39   2.0000      -0.629173       -17.1207
  40   2.0000      -0.603703       -16.4276
  41   2.0000      -0.569331       -15.4923
  42   2.0000      -0.565367       -15.3844
  43   2.0000      -0.549515       -14.9531
  44   2.0000      -0.539404       -14.6779
  45   2.0000      -0.527729       -14.3602
  46   2.0000      -0.522664       -14.2224
  47   2.0000      -0.516373       -14.0512
  48   2.0000      -0.505936       -13.7672
  49   2.0000      -0.491200       -13.3662
  50   2.0000      -0.485985       -13.2243
  51   2.0000      -0.484716       -13.1898
  52   2.0000      -0.473256       -12.8780
  53   2.0000      -0.467046       -12.7090
  54   2.0000      -0.459799       -12.5118
  55   2.0000      -0.454659       -12.3719
  56   2.0000      -0.445651       -12.1268
  57   2.0000      -0.436065       -11.8659
  58   2.0000      -0.429799       -11.6954
  59   2.0000      -0.425911       -11.5896
  60   2.0000      -0.424920       -11.5627
  61   2.0000      -0.422177       -11.4880
  62   2.0000      -0.411712       -11.2032
  63   2.0000      -0.352436        -9.5903
  64   2.0000      -0.336040        -9.1441
  65   2.0000      -0.327407        -8.9092
  66   2.0000      -0.285787        -7.7767
  67   0.0000       0.020516         0.5583
  68   0.0000       0.072197         1.9646
  69   0.0000       0.095442         2.5971
  70   0.0000       0.113586         3.0908
  71   0.0000       0.125095         3.4040

MULLIKEN ATOMIC CHARGES
-----------------------
   0 S :    0.111324
   1 C :   -0.147278
   2 C :   -0.058238
   3 C :    0.021884
   4 C :   -0.120043
   5 H :   -0.015373
   6 C :    0.039368
   7 H :    0.022340
   8 H :    0.021388
   9 C :   -0.058407
  10 H :    0.029486
  11 H :    0.009314
  12 C :    0.002619
  13 H :    0.034822
  14 H :    0.028355
  15 H :    0.013508
  16 S :    0.084881
  17 C :   -0.091476
  18 C :   -0.014134
  19 C :   -0.028243
  20 C :   -0.120347
  21 H :    0.005883
  22 C :    0.061331
  23 H :    0.023649
  24 H :    0.005483
  25 C :   -0.100411
  26 H :    0.032121
  27 H :    0.027780
  28 C :   -0.040696
  29 H :    0.036777
  30 H :    0.034720
  31 H :    0.023191
  32 H :    0.057424
  33 H :    0.066996
Sum of atomic charges:    0.0000000

LOEWDIN ATOMIC CHARGES
----------------------
   0 S :    0.389341
   1 C :   -0.190194
   2 C :   -0.070153
   3 C :   -0.055209
   4 C :   -0.175736
   5 H :    0.026508
   6 C :   -0.031396
   7 H :    0.030973
   8 H :    0.026710
   9 C :   -0.033906
  10 H :    0.023394
  11 H :    0.017348
  12 C :   -0.061842
  13 H :    0.022405
  14 H :    0.031858
  15 H :    0.024424
  16 S :    0.381943
  17 C :   -0.171545
  18 C :   -0.062882
  19 C :   -0.061595
  20 C :   -0.187285
  21 H :    0.026806
  22 C :   -0.034680
  23 H :    0.034764
  24 H :    0.021210
  25 C :   -0.040987
  26 H :    0.020771
  27 H :    0.027356
  28 C :   -0.069449
  29 H :    0.027588
  30 H :    0.028259
  31 H :    0.024210
  32 H :    0.026372
  33 H :    0.034620

  Mayer bond orders larger than 0.100000
B(  0-S ,  1-C ) :   1.1502 B(  0-S ,  4-C ) :   1.1463 B(  1-C ,  2-C ) :   1.5637
B(  1-C ,  4-C ) :   0.1047 B(  1-C , 32-H ) :   0.9670 B(  2-C ,  3-C ) :   1.2950
B(  2-C ,  6-C ) :   1.0199 B(  3-C ,  4-C ) :   1.5248 B(  3-C ,  5-H ) :   0.9920
B(  4-C , 20-C ) :   1.0584 B(  6-C ,  7-H ) :   0.9408 B(  6-C ,  8-H ) :   0.9443
B(  6-C ,  9-C ) :   1.0669 B(  9-C , 10-H ) :   0.9571 B(  9-C , 11-H ) :   0.9559
B(  9-C , 12-C ) :   1.0744 B( 12-C , 13-H ) :   0.9771 B( 12-C , 14-H ) :   0.9706
B( 12-C , 15-H ) :   0.9715 B( 16-S , 17-C ) :   1.1447 B( 16-S , 20-C ) :   1.1238
B( 17-C , 18-C ) :   1.5947 B( 17-C , 33-H ) :   0.9675 B( 18-C , 19-C ) :   1.2385
B( 18-C , 21-H ) :   0.9931 B( 19-C , 20-C ) :   1.5953 B( 19-C , 22-C ) :   1.0824
B( 22-C , 23-H ) :   0.9143 B( 22-C , 24-H ) :   0.9347 B( 22-C , 25-C ) :   1.0561
B( 25-C , 26-H ) :   0.9540 B( 25-C , 27-H ) :   0.9507 B( 25-C , 28-C ) :   1.0886
B( 28-C , 29-H ) :   0.9727 B( 28-C , 30-H ) :   0.9717 B( 28-C , 31-H ) :   0.9708

Dispersion correction           -0.014655719
FINAL SINGLE POINT ENERGY     -1339.880637790284

DIPOLE MOMENT
-------------
                                X             Y             Z
Electronic contribution:      8.07134     -15.64027      23.36068
Nuclear contribution   :     -8.43966      16.16970     -23.77177
                        -----------------------------------------
Total Dipole Moment    :     -0.36832       0.52944      -0.41109
                        -----------------------------------------
Magnitude (a.u.)       :      0.76483
Magnitude (Debye)      :      1.94403

Rotational constants in cm-1:     0.017175     0.009716     0.007039
Rotational constants in MHz :   514.880247   291.270190   211.014364

                             ****ORCA TERMINATED NORMALLY****
TOTAL RUN TIME: 0 days 0 hours 0 minutes 22 seconds 319 msec
