                         Program Version 4.2.1 -  RELEASE  -
|  1> ! wB97X-D3 SP def2-SVP
|  2> %pal
|  3> nprocs 24
|  4> end
|  5>
|  6> * xyz 0 1
|  7> S 	 -100.08 	 -1.39961 	 -120.178
|  8> C 	 -101.608 	 -0.809665 	 -120.68
|  9> C 	 -102.343 	 -0.28189 	 -119.623
| 10> C 	 -101.538 	 -0.087304 	 -118.471
| 11> C 	 -100.312 	 -0.68042 	 -118.603
| 12> H 	 -101.843 	 0.319062 	 -117.483
| 13> C 	 -103.76 	 0.212367 	 -119.709
| 14> H 	 -104.175 	 -0.223436 	 -120.569
| 15> H 	 -103.69 	 1.24463 	 -119.933
| 16> C 	 -104.814 	 0.11455 	 -118.54
| 17> H 	 -105.032 	 -0.917531 	 -118.309
| 18> H 	 -104.24 	 0.405006 	 -117.673
| 19> C 	 -106.082 	 0.99508 	 -118.762
| 20> H 	 -106.763 	 0.586742 	 -119.486
| 21> H 	 -106.717 	 0.98159 	 -117.858
| 22> H 	 -105.865 	 1.93951 	 -119.17
| 23> S 	 -99.1919 	 0.705352 	 -116.485
| 24> C 	 -97.9119 	 0.00625118 	 -115.615
| 25> C 	 -97.704 	 -1.30785 	 -115.997
| 26> C 	 -98.4784 	 -1.7276 	 -117.116
| 27> C 	 -99.3876 	 -0.72737 	 -117.521
| 28> H 	 -96.9846 	 -1.89135 	 -115.376
| 29> C 	 -98.3273 	 -3.12702 	 -117.672
| 30> H 	 -99.1974 	 -3.31391 	 -118.299
| 31> H 	 -98.6503 	 -3.82546 	 -116.908
| 32> C 	 -97.0382 	 -3.38607 	 -118.535
| 33> H 	 -96.967 	 -2.51162 	 -119.233
| 34> H 	 -97.1904 	 -4.34535 	 -119.123
| 35> C 	 -95.6871 	 -3.59269 	 -117.837
| 36> H 	 -95.3804 	 -2.83013 	 -117.178
| 37> H 	 -94.8565 	 -3.71635 	 -118.494
| 38> H 	 -95.8062 	 -4.5318 	 -117.179
| 39> H 	 -101.881 	 -1.17807 	 -121.661
| 40> H 	 -97.3849 	 0.410467 	 -114.728
| 41> *
| 42>
| 43>                          ****END OF INPUT****

CARTESIAN COORDINATES (ANGSTROEM)
---------------------------------
  S    -100.080000   -1.399610  -120.178000
  C    -101.608000   -0.809665  -120.680000
  C    -102.343000   -0.281890  -119.623000
  C    -101.538000   -0.087304  -118.471000
  C    -100.312000   -0.680420  -118.603000
  H    -101.843000    0.319062  -117.483000
  C    -103.760000    0.212367  -119.709000
  H    -104.175000   -0.223436  -120.569000
  H    -103.690000    1.244630  -119.933000
  C    -104.814000    0.114550  -118.540000
  H    -105.032000   -0.917531  -118.309000
  H    -104.240000    0.405006  -117.673000
  C    -106.082000    0.995080  -118.762000
  H    -106.763000    0.586742  -119.486000
  H    -106.717000    0.981590  -117.858000
  H    -105.865000    1.939510  -119.170000
  S    -99.191900    0.705352  -116.485000
  C    -97.911900    0.006251  -115.615000
  C    -97.704000   -1.307850  -115.997000
  C    -98.478400   -1.727600  -117.116000
  C    -99.387600   -0.727370  -117.521000
  H    -96.984600   -1.891350  -115.376000
  C    -98.327300   -3.127020  -117.672000
  H    -99.197400   -3.313910  -118.299000
  H    -98.650300   -3.825460  -116.908000
  C    -97.038200   -3.386070  -118.535000
  H    -96.967000   -2.511620  -119.233000
  H    -97.190400   -4.345350  -119.123000
  C    -95.687100   -3.592690  -117.837000
  H    -95.380400   -2.830130  -117.178000
  H    -94.856500   -3.716350  -118.494000
  H    -95.806200   -4.531800  -117.179000
  H    -101.881000   -1.178070  -121.661000
  H    -97.384900    0.410467  -114.728000

 Total Charge           Charge          ....    0
 Multiplicity           Mult            ....    1
 Number of Electrons    NEL             ....  134
 Basis Dimension        Dim             ....  322

ORBITAL ENERGIES
----------------

  NO   OCC          E(Eh)            E(eV)
   0   2.0000     -88.967488     -2420.9284
   1   2.0000     -88.966422     -2420.8994
   2   2.0000     -10.326183      -280.9897
   3   2.0000     -10.323887      -280.9272
   4   2.0000     -10.313495      -280.6445
   5   2.0000     -10.311803      -280.5984
   6   2.0000     -10.304553      -280.4011
   7   2.0000     -10.302910      -280.3564
   8   2.0000     -10.298177      -280.2276
   9   2.0000     -10.291822      -280.0547
  10   2.0000     -10.291756      -280.0529
  11   2.0000     -10.291165      -280.0368
  12   2.0000     -10.290727      -280.0249
  13   2.0000     -10.282728      -279.8073
  14   2.0000     -10.280519      -279.7472
  15   2.0000     -10.275529      -279.6114
  16   2.0000      -8.082709      -219.9417
  17   2.0000      -8.081275      -219.9027
  18   2.0000      -6.041109      -164.3869
  19   2.0000      -6.039793      -164.3511
  20   2.0000      -6.037168      -164.2797
  21   2.0000      -6.035674      -164.2390
  22   2.0000      -6.033551      -164.1813
  23   2.0000      -6.032117      -164.1422
  24   2.0000      -1.011451       -27.5230
  25   2.0000      -0.987277       -26.8652
  26   2.0000      -0.907857       -24.7041
  27   2.0000      -0.901378       -24.5277
  28   2.0000      -0.874895       -23.8071
  29   2.0000      -0.854722       -23.2582
  30   2.0000      -0.846245       -23.0275
  31   2.0000      -0.812091       -22.0981
  32   2.0000      -0.787688       -21.4341
  33   2.0000      -0.771821       -21.0023
  34   2.0000      -0.716834       -19.5060
  35   2.0000      -0.700238       -19.0544
  36   2.0000      -0.688689       -18.7402
  37   2.0000      -0.665564       -18.1109
  38   2.0000      -0.636795       -17.3281
  39   2.0000      -0.616415       -16.7735
  40   2.0000      -0.595526       -16.2051
  41   2.0000      -0.568796       -15.4777
  42   2.0000      -0.555561       -15.1176
  43   2.0000      -0.546555       -14.8725
  44   2.0000      -0.536004       -14.5854
  45   2.0000      -0.524940       -14.2843
  46   2.0000      -0.513054       -13.9609
  47   2.0000      -0.510307       -13.8862
  48   2.0000      -0.508013       -13.8237
  49   2.0000      -0.496951       -13.5227
  50   2.0000      -0.486386       -13.2352
  51   2.0000      -0.478909       -13.0318
  52   2.0000      -0.477766       -13.0007
  53   2.0000      -0.471448       -12.8288
  54   2.0000      -0.464422       -12.6376
  55   2.0000      -0.453027       -12.3275
  56   2.0000      -0.439602       -11.9622
  57   2.0000      -0.437992       -11.9184
  58   2.0000      -0.434249       -11.8165
  59   2.0000      -0.423805       -11.5323
  60   2.0000      -0.416534       -11.3345
  61   2.0000      -0.412948       -11.2369
  62   2.0000      -0.410664       -11.1747
  63   2.0000      -0.358115        -9.7448
  64   2.0000      -0.331766        -9.0278
  65   2.0000      -0.329722        -8.9722
  66   2.0000      -0.280674        -7.6375
  67   0.0000       0.025702         0.6994
  68   0.0000       0.079067         2.1515
  69   0.0000       0.104164         2.8344
  70   0.0000       0.115925         3.1545
  71   0.0000       0.140425         3.8211

MULLIKEN ATOMIC CHARGES
-----------------------
   0 S :    0.116306
   1 C :   -0.139504
   2 C :   -0.047360
   3 C :   -0.050024
   4 C :   -0.103671
   5 H :    0.037395
   6 C :    0.077578
   7 H :   -0.000256
   8 H :    0.027723
   9 C :   -0.059124
  10 H :    0.026907
  11 H :    0.018236
  12 C :   -0.032589
  13 H :    0.022061
  14 H :    0.042379
  15 H :    0.024592
  16 S :    0.111426
  17 C :   -0.098825
  18 C :   -0.062738
  19 C :   -0.061598
  20 C :   -0.153732
  21 H :    0.033209
  22 C :    0.070728
  23 H :    0.002286
  24 H :    0.028991
  25 C :   -0.077870
  26 H :    0.040177
  27 H :    0.045482
  28 C :   -0.039595
  29 H :    0.019486
  30 H :    0.032516
  31 H :    0.030056
  32 H :    0.052236
  33 H :    0.067116
Sum of atomic charges:    0.0000000

LOEWDIN ATOMIC CHARGES
----------------------
   0 S :    0.431411
   1 C :   -0.210746
   2 C :   -0.054222
   3 C :   -0.073729
   4 C :   -0.191416
   5 H :    0.035088
   6 C :   -0.031689
   7 H :    0.020326
   8 H :    0.031347
   9 C :   -0.033159
  10 H :    0.022874
  11 H :    0.018998
  12 C :   -0.061034
  13 H :    0.025208
  14 H :    0.035449
  15 H :    0.019812
  16 S :    0.421185
  17 C :   -0.213937
  18 C :   -0.080381
  19 C :   -0.060895
  20 C :   -0.187353
  21 H :    0.036893
  22 C :   -0.046351
  23 H :    0.024022
  24 H :    0.035168
  25 C :   -0.039455
  26 H :    0.028767
  27 H :    0.034191
  28 C :   -0.070044
  29 H :    0.014088
  30 H :    0.024094
  31 H :    0.032639
  32 H :    0.022977
  33 H :    0.039874

  Mayer bond orders larger than 0.100000
B(  0-S ,  1-C ) :   1.1467 B(  0-S ,  4-C ) :   1.1530 B(  1-C ,  2-C ) :   1.5749
B(  1-C , 32-H ) :   0.9708 B(  2-C ,  3-C ) :   1.2433 B(  2-C ,  6-C ) :   1.0316
B(  3-C ,  4-C ) :   1.5392 B(  3-C ,  5-H ) :   0.9854 B(  4-C , 20-C ) :   1.0889
B(  6-C ,  7-H ) :   0.9358 B(  6-C ,  8-H ) :   0.9357 B(  6-C ,  9-C ) :   1.0539
B(  9-C , 10-H ) :   0.9574 B(  9-C , 11-H ) :   0.9569 B(  9-C , 12-C ) :   1.0749
B( 12-C , 13-H ) :   0.9749 B( 12-C , 14-H ) :   0.9736 B( 12-C , 15-H ) :   0.9768
B( 16-S , 17-C ) :   1.1631 B( 16-S , 20-C ) :   1.1399 B( 17-C , 18-C ) :   1.6048
B( 17-C , 33-H ) :   0.9591 B( 18-C , 19-C ) :   1.2508 B( 18-C , 21-H ) :   0.9818
B( 19-C , 20-C ) :   1.5489 B( 19-C , 22-C ) :   1.0487 B( 22-C , 23-H ) :   0.9194
B( 22-C , 24-H ) :   0.9333 B( 22-C , 25-C ) :   1.0485 B( 25-C , 26-H ) :   0.9520
B( 25-C , 27-H ) :   0.9583 B( 25-C , 28-C ) :   1.0807 B( 28-C , 29-H ) :   0.9730
B( 28-C , 30-H ) :   0.9722 B( 28-C , 31-H ) :   0.9750

Dispersion correction           -0.013980233
FINAL SINGLE POINT ENERGY     -1339.870123550389

DIPOLE MOMENT
-------------
                                X             Y             Z
Electronic contribution:      8.24898       6.97125       0.54392
Nuclear contribution   :     -8.54881      -7.22715      -0.44445
                        -----------------------------------------
Total Dipole Moment    :     -0.29983      -0.25590       0.09947
                        -----------------------------------------
Magnitude (a.u.)       :      0.40655
Magnitude (Debye)      :      1.03336

Rotational constants in cm-1:     0.024239     0.007254     0.006007
Rotational constants in MHz :   726.664021   217.455966   180.071474

                             ****ORCA TERMINATED NORMALLY****
TOTAL RUN TIME: 0 days 0 hours 0 minutes 20 seconds 935 msec
