                         Program Version 4.2.1 -  RELEASE  -
|  1> ! wB97X-D3 SP def2-SVP
|  2> %pal
|  3> nprocs 24
|  4> end
|  5>
|  6> * xyz 0 1
|  7> S 	 -118.548 	 64.4081 	 -64.8904
|  8> C 	 -119.884 	 63.3457 	 -65.2951
|  9> C 	 -120.777 	 63.3303 	 -64.224
| 10> C 	 -120.549 	 64.2556 	 -63.1455
| 11> C 	 -119.296 	 64.806 	 -63.3274
| 12> H 	 -121.169 	 64.5214 	 -62.2846
| 13> C 	 -122.031 	 62.5061 	 -64.2981
| 14> H 	 -122.355 	 62.4283 	 -65.3186
| 15> H 	 -122.731 	 63.2101 	 -63.8912
| 16> C 	 -122.039 	 61.1599 	 -63.5175
| 17> H 	 -121.165 	 60.5835 	 -63.865
| 18> H 	 -121.752 	 61.2658 	 -62.4952
| 19> C 	 -123.395 	 60.2881 	 -63.5752
| 20> H 	 -124.207 	 60.7452 	 -63.0173
| 21> H 	 -123.768 	 60.1484 	 -64.6211
| 22> H 	 -123.229 	 59.2441 	 -63.168
| 23> S 	 -118.479 	 67.4716 	 -63.0126
| 24> C 	 -117.766 	 67.9534 	 -61.471
| 25> C 	 -117.796 	 66.8808 	 -60.5843
| 26> C 	 -118.26 	 65.6757 	 -61.1458
| 27> C 	 -118.655 	 65.7605 	 -62.431
| 28> H 	 -117.462 	 66.9209 	 -59.5725
| 29> C 	 -118.35 	 64.3535 	 -60.4515
| 30> H 	 -119.299 	 63.971 	 -60.6503
| 31> H 	 -118.316 	 64.499 	 -59.3423
| 32> C 	 -117.359 	 63.4086 	 -60.9226
| 33> H 	 -117.527 	 63.048 	 -61.9448
| 34> H 	 -117.484 	 62.5241 	 -60.3202
| 35> C 	 -115.823 	 63.858 	 -60.7249
| 36> H 	 -115.58 	 64.8518 	 -61.1202
| 37> H 	 -115.266 	 62.9993 	 -61.1778
| 38> H 	 -115.527 	 63.8117 	 -59.7007
| 39> H 	 -119.949 	 62.898 	 -66.2336
| 40> H 	 -117.556 	 68.952 	 -61.165
| 41> *
| 42>
| 43>                          ****END OF INPUT****

CARTESIAN COORDINATES (ANGSTROEM)
---------------------------------
  S    -118.548000   64.408100  -64.890400
  C    -119.884000   63.345700  -65.295100
  C    -120.777000   63.330300  -64.224000
  C    -120.549000   64.255600  -63.145500
  C    -119.296000   64.806000  -63.327400
  H    -121.169000   64.521400  -62.284600
  C    -122.031000   62.506100  -64.298100
  H    -122.355000   62.428300  -65.318600
  H    -122.731000   63.210100  -63.891200
  C    -122.039000   61.159900  -63.517500
  H    -121.165000   60.583500  -63.865000
  H    -121.752000   61.265800  -62.495200
  C    -123.395000   60.288100  -63.575200
  H    -124.207000   60.745200  -63.017300
  H    -123.768000   60.148400  -64.621100
  H    -123.229000   59.244100  -63.168000
  S    -118.479000   67.471600  -63.012600
  C    -117.766000   67.953400  -61.471000
  C    -117.796000   66.880800  -60.584300
  C    -118.260000   65.675700  -61.145800
  C    -118.655000   65.760500  -62.431000
  H    -117.462000   66.920900  -59.572500
  C    -118.350000   64.353500  -60.451500
  H    -119.299000   63.971000  -60.650300
  H    -118.316000   64.499000  -59.342300
  C    -117.359000   63.408600  -60.922600
  H    -117.527000   63.048000  -61.944800
  H    -117.484000   62.524100  -60.320200
  C    -115.823000   63.858000  -60.724900
  H    -115.580000   64.851800  -61.120200
  H    -115.266000   62.999300  -61.177800
  H    -115.527000   63.811700  -59.700700
  H    -119.949000   62.898000  -66.233600
  H    -117.556000   68.952000  -61.165000

 Total Charge           Charge          ....    0
 Multiplicity           Mult            ....    1
 Number of Electrons    NEL             ....  134
 Basis Dimension        Dim             ....  322

ORBITAL ENERGIES
----------------

  NO   OCC          E(Eh)            E(eV)
   0   2.0000     -88.966462     -2420.9005
   1   2.0000     -88.962037     -2420.7801
   2   2.0000     -10.333329      -281.1842
   3   2.0000     -10.321284      -280.8564
   4   2.0000     -10.320134      -280.8251
   5   2.0000     -10.314066      -280.6600
   6   2.0000     -10.305794      -280.4349
   7   2.0000     -10.302496      -280.3452
   8   2.0000     -10.293445      -280.0989
   9   2.0000     -10.292896      -280.0839
  10   2.0000     -10.291992      -280.0593
  11   2.0000     -10.291536      -280.0469
  12   2.0000     -10.286359      -279.9061
  13   2.0000     -10.279770      -279.7267
  14   2.0000     -10.279033      -279.7067
  15   2.0000     -10.276151      -279.6283
  16   2.0000      -8.080745      -219.8883
  17   2.0000      -8.075747      -219.7522
  18   2.0000      -6.039193      -164.3348
  19   2.0000      -6.035291      -164.2286
  20   2.0000      -6.034315      -164.2021
  21   2.0000      -6.031611      -164.1285
  22   2.0000      -6.030417      -164.0960
  23   2.0000      -6.026481      -163.9889
  24   2.0000      -1.004934       -27.3456
  25   2.0000      -0.982367       -26.7316
  26   2.0000      -0.915154       -24.9026
  27   2.0000      -0.903326       -24.5808
  28   2.0000      -0.866859       -23.5884
  29   2.0000      -0.846095       -23.0234
  30   2.0000      -0.839095       -22.8329
  31   2.0000      -0.814507       -22.1639
  32   2.0000      -0.783767       -21.3274
  33   2.0000      -0.769463       -20.9381
  34   2.0000      -0.711397       -19.3581
  35   2.0000      -0.706376       -19.2215
  36   2.0000      -0.689769       -18.7696
  37   2.0000      -0.667660       -18.1680
  38   2.0000      -0.653050       -17.7704
  39   2.0000      -0.614256       -16.7148
  40   2.0000      -0.594306       -16.1719
  41   2.0000      -0.561970       -15.2920
  42   2.0000      -0.556605       -15.1460
  43   2.0000      -0.550702       -14.9854
  44   2.0000      -0.547947       -14.9104
  45   2.0000      -0.522884       -14.2284
  46   2.0000      -0.519184       -14.1277
  47   2.0000      -0.512284       -13.9400
  48   2.0000      -0.501760       -13.6536
  49   2.0000      -0.497565       -13.5394
  50   2.0000      -0.487962       -13.2781
  51   2.0000      -0.481393       -13.0994
  52   2.0000      -0.469777       -12.7833
  53   2.0000      -0.464004       -12.6262
  54   2.0000      -0.460081       -12.5194
  55   2.0000      -0.449139       -12.2217
  56   2.0000      -0.442985       -12.0542
  57   2.0000      -0.442246       -12.0341
  58   2.0000      -0.432678       -11.7738
  59   2.0000      -0.421726       -11.4758
  60   2.0000      -0.414025       -11.2662
  61   2.0000      -0.410016       -11.1571
  62   2.0000      -0.406345       -11.0572
  63   2.0000      -0.341961        -9.3052
  64   2.0000      -0.331985        -9.0338
  65   2.0000      -0.325646        -8.8613
  66   2.0000      -0.300194        -8.1687
  67   0.0000       0.030121         0.8196
  68   0.0000       0.059600         1.6218
  69   0.0000       0.111916         3.0454
  70   0.0000       0.118932         3.2363
  71   0.0000       0.123364         3.3569

MULLIKEN ATOMIC CHARGES
-----------------------
   0 S :    0.108971
   1 C :   -0.101237
   2 C :   -0.110328
   3 C :    0.052976
   4 C :   -0.182371
   5 H :    0.042789
   6 C :    0.092264
   7 H :    0.011798
   8 H :    0.009760
   9 C :   -0.048452
  10 H :    0.024133
  11 H :    0.015776
  12 C :   -0.083565
  13 H :    0.040453
  14 H :    0.038164
  15 H :    0.047725
  16 S :    0.091981
  17 C :   -0.069920
  18 C :   -0.036059
  19 C :   -0.046767
  20 C :   -0.178219
  21 H :    0.004745
  22 C :    0.162118
  23 H :   -0.009776
  24 H :    0.015019
  25 C :   -0.083794
  26 H :    0.041955
  27 H :    0.015801
  28 C :   -0.069058
  29 H :    0.057826
  30 H :    0.038468
  31 H :    0.018772
  32 H :    0.035660
  33 H :    0.052392
Sum of atomic charges:    0.0000000

LOEWDIN ATOMIC CHARGES
----------------------
   0 S :    0.394803
   1 C :   -0.187116
   2 C :   -0.057014
   3 C :   -0.057493
   4 C :   -0.179296
   5 H :    0.043880
   6 C :   -0.035422
   7 H :    0.026212
   8 H :    0.027003
   9 C :   -0.040431
  10 H :    0.026324
  11 H :    0.019348
  12 C :   -0.073854
  13 H :    0.023249
  14 H :    0.027406
  15 H :    0.034632
  16 S :    0.370920
  17 C :   -0.169596
  18 C :   -0.070606
  19 C :   -0.056326
  20 C :   -0.183580
  21 H :    0.026492
  22 C :   -0.031526
  23 H :    0.022178
  24 H :    0.032181
  25 C :   -0.036918
  26 H :    0.026004
  27 H :    0.023066
  28 C :   -0.067158
  29 H :    0.027676
  30 H :    0.033815
  31 H :    0.016845
  32 H :    0.018021
  33 H :    0.026280

  Mayer bond orders larger than 0.100000
B(  0-S ,  1-C ) :   1.1235 B(  0-S ,  4-C ) :   1.1572 B(  1-C ,  2-C ) :   1.6003
B(  1-C , 32-H ) :   0.9865 B(  2-C ,  3-C ) :   1.2171 B(  2-C ,  6-C ) :   1.0270
B(  3-C ,  4-C ) :   1.5871 B(  3-C ,  5-H ) :   0.9833 B(  4-C , 20-C ) :   1.0192
B(  6-C ,  7-H ) :   0.9432 B(  6-C ,  8-H ) :   0.9351 B(  6-C ,  9-C ) :   1.0473
B(  9-C , 10-H ) :   0.9569 B(  9-C , 11-H ) :   0.9569 B(  9-C , 12-C ) :   1.0637
B( 12-C , 13-H ) :   0.9790 B( 12-C , 14-H ) :   0.9788 B( 12-C , 15-H ) :   0.9768
B( 16-S , 17-C ) :   1.1568 B( 16-S , 20-C ) :   1.1180 B( 17-C , 18-C ) :   1.5890
B( 17-C , 20-C ) :   0.1037 B( 17-C , 33-H ) :   0.9699 B( 18-C , 19-C ) :   1.2511
B( 18-C , 21-H ) :   0.9910 B( 19-C , 20-C ) :   1.6259 B( 19-C , 22-C ) :   1.0404
B( 22-C , 23-H ) :   0.9070 B( 22-C , 24-H ) :   0.9247 B( 22-C , 25-C ) :   1.0994
B( 25-C , 26-H ) :   0.9543 B( 25-C , 27-H ) :   0.9473 B( 25-C , 28-C ) :   1.0623
B( 28-C , 29-H ) :   0.9770 B( 28-C , 30-H ) :   0.9762 B( 28-C , 31-H ) :   0.9768

Dispersion correction           -0.015090376
FINAL SINGLE POINT ENERGY     -1339.869782329858

DIPOLE MOMENT
-------------
                                X             Y             Z
Electronic contribution:      7.65120      22.74634     -10.44779
Nuclear contribution   :     -8.04044     -23.13361      10.88005
                        -----------------------------------------
Total Dipole Moment    :     -0.38924      -0.38728       0.43226
                        -----------------------------------------
Magnitude (a.u.)       :      0.69881
Magnitude (Debye)      :      1.77624

Rotational constants in cm-1:     0.021435     0.007992     0.007056
Rotational constants in MHz :   642.597508   239.593706   211.547451

                             ****ORCA TERMINATED NORMALLY****
TOTAL RUN TIME: 0 days 0 hours 0 minutes 22 seconds 37 msec
