                         Program Version 4.2.1 -  RELEASE  -
|  1> ! wB97X-D3 SP def2-SVP
|  2> %pal
|  3> nprocs 24
|  4> end
|  5>
|  6> * xyz 0 1
|  7> S 	 -100.374 	 12.4944 	 -118.078
|  8> C 	 -98.8818 	 13.4366 	 -117.739
|  9> C 	 -99.2542 	 14.8005 	 -117.593
| 10> C 	 -100.601 	 15.0787 	 -118.061
| 11> C 	 -101.34 	 13.9508 	 -118.352
| 12> H 	 -100.978 	 16.0487 	 -118.058
| 13> C 	 -98.2329 	 15.8866 	 -117.216
| 14> H 	 -98.7373 	 16.6922 	 -116.786
| 15> H 	 -97.793 	 16.3103 	 -118.098
| 16> C 	 -97.1003 	 15.4276 	 -116.253
| 17> H 	 -97.5146 	 15.2188 	 -115.23
| 18> H 	 -96.6726 	 14.5569 	 -116.728
| 19> C 	 -95.9407 	 16.4522 	 -116.188
| 20> H 	 -96.2262 	 17.4247 	 -115.822
| 21> H 	 -95.1447 	 16.1082 	 -115.469
| 22> H 	 -95.633 	 16.5687 	 -117.198
| 23> S 	 -103.103 	 15.1007 	 -120.163
| 24> C 	 -104.687 	 14.3217 	 -120.261
| 25> C 	 -104.89 	 13.3277 	 -119.321
| 26> C 	 -103.729 	 13.1545 	 -118.478
| 27> C 	 -102.648 	 13.871 	 -118.927
| 28> H 	 -105.843 	 12.8486 	 -119.167
| 29> C 	 -103.811 	 12.2321 	 -117.297
| 30> H 	 -102.828 	 12.1696 	 -116.965
| 31> H 	 -104.136 	 11.2948 	 -117.618
| 32> C 	 -104.709 	 12.5824 	 -116.089
| 33> H 	 -105.807 	 12.5835 	 -116.269
| 34> H 	 -104.367 	 13.5674 	 -115.739
| 35> C 	 -104.69 	 11.6033 	 -114.85
| 36> H 	 -103.697 	 11.5204 	 -114.511
| 37> H 	 -104.862 	 10.5672 	 -115.216
| 38> H 	 -105.345 	 11.8674 	 -114.012
| 39> H 	 -97.9699 	 13.0206 	 -117.217
| 40> H 	 -105.438 	 14.5282 	 -120.99
| 41> *
| 42>
| 43>                          ****END OF INPUT****

CARTESIAN COORDINATES (ANGSTROEM)
---------------------------------
  S    -100.374000   12.494400  -118.078000
  C    -98.881800   13.436600  -117.739000
  C    -99.254200   14.800500  -117.593000
  C    -100.601000   15.078700  -118.061000
  C    -101.340000   13.950800  -118.352000
  H    -100.978000   16.048700  -118.058000
  C    -98.232900   15.886600  -117.216000
  H    -98.737300   16.692200  -116.786000
  H    -97.793000   16.310300  -118.098000
  C    -97.100300   15.427600  -116.253000
  H    -97.514600   15.218800  -115.230000
  H    -96.672600   14.556900  -116.728000
  C    -95.940700   16.452200  -116.188000
  H    -96.226200   17.424700  -115.822000
  H    -95.144700   16.108200  -115.469000
  H    -95.633000   16.568700  -117.198000
  S    -103.103000   15.100700  -120.163000
  C    -104.687000   14.321700  -120.261000
  C    -104.890000   13.327700  -119.321000
  C    -103.729000   13.154500  -118.478000
  C    -102.648000   13.871000  -118.927000
  H    -105.843000   12.848600  -119.167000
  C    -103.811000   12.232100  -117.297000
  H    -102.828000   12.169600  -116.965000
  H    -104.136000   11.294800  -117.618000
  C    -104.709000   12.582400  -116.089000
  H    -105.807000   12.583500  -116.269000
  H    -104.367000   13.567400  -115.739000
  C    -104.690000   11.603300  -114.850000
  H    -103.697000   11.520400  -114.511000
  H    -104.862000   10.567200  -115.216000
  H    -105.345000   11.867400  -114.012000
  H    -97.969900   13.020600  -117.217000
  H    -105.438000   14.528200  -120.990000

 Total Charge           Charge          ....    0
 Multiplicity           Mult            ....    1
 Number of Electrons    NEL             ....  134
 Basis Dimension        Dim             ....  322

ORBITAL ENERGIES
----------------

  NO   OCC          E(Eh)            E(eV)
   0   2.0000     -88.970433     -2421.0086
   1   2.0000     -88.965611     -2420.8774
   2   2.0000     -10.331983      -281.1476
   3   2.0000     -10.328206      -281.0448
   4   2.0000     -10.321357      -280.8584
   5   2.0000     -10.320364      -280.8314
   6   2.0000     -10.309985      -280.5490
   7   2.0000     -10.304738      -280.4062
   8   2.0000     -10.295060      -280.1428
   9   2.0000     -10.292807      -280.0815
  10   2.0000     -10.292759      -280.0802
  11   2.0000     -10.292515      -280.0736
  12   2.0000     -10.288367      -279.9607
  13   2.0000     -10.283097      -279.8173
  14   2.0000     -10.280593      -279.7492
  15   2.0000     -10.279277      -279.7133
  16   2.0000      -8.084066      -219.9786
  17   2.0000      -8.078934      -219.8390
  18   2.0000      -6.042788      -164.4326
  19   2.0000      -6.039014      -164.3299
  20   2.0000      -6.037714      -164.2945
  21   2.0000      -6.034375      -164.2037
  22   2.0000      -6.033608      -164.1828
  23   2.0000      -6.029511      -164.0713
  24   2.0000      -1.002511       -27.2797
  25   2.0000      -0.975019       -26.5316
  26   2.0000      -0.910274       -24.7698
  27   2.0000      -0.907153       -24.6849
  28   2.0000      -0.868063       -23.6212
  29   2.0000      -0.851919       -23.1819
  30   2.0000      -0.843385       -22.9497
  31   2.0000      -0.812538       -22.1103
  32   2.0000      -0.787786       -21.4367
  33   2.0000      -0.769606       -20.9421
  34   2.0000      -0.710783       -19.3414
  35   2.0000      -0.700222       -19.0540
  36   2.0000      -0.694833       -18.9074
  37   2.0000      -0.664726       -18.0881
  38   2.0000      -0.634879       -17.2759
  39   2.0000      -0.612875       -16.6772
  40   2.0000      -0.596913       -16.2428
  41   2.0000      -0.576663       -15.6918
  42   2.0000      -0.573117       -15.5953
  43   2.0000      -0.561989       -15.2925
  44   2.0000      -0.527414       -14.3517
  45   2.0000      -0.522822       -14.2267
  46   2.0000      -0.517862       -14.0917
  47   2.0000      -0.513643       -13.9769
  48   2.0000      -0.507037       -13.7972
  49   2.0000      -0.504303       -13.7228
  50   2.0000      -0.484497       -13.1838
  51   2.0000      -0.478271       -13.0144
  52   2.0000      -0.468194       -12.7402
  53   2.0000      -0.461490       -12.5578
  54   2.0000      -0.460178       -12.5221
  55   2.0000      -0.454669       -12.3722
  56   2.0000      -0.446161       -12.1406
  57   2.0000      -0.439127       -11.9492
  58   2.0000      -0.434433       -11.8215
  59   2.0000      -0.422588       -11.4992
  60   2.0000      -0.420373       -11.4389
  61   2.0000      -0.417434       -11.3590
  62   2.0000      -0.409225       -11.1356
  63   2.0000      -0.350353        -9.5336
  64   2.0000      -0.332935        -9.0596
  65   2.0000      -0.328268        -8.9326
  66   2.0000      -0.289080        -7.8663
  67   0.0000       0.021183         0.5764
  68   0.0000       0.066560         1.8112
  69   0.0000       0.088968         2.4209
  70   0.0000       0.115003         3.1294
  71   0.0000       0.128820         3.5054

MULLIKEN ATOMIC CHARGES
-----------------------
   0 S :    0.094371
   1 C :   -0.149817
   2 C :   -0.114556
   3 C :    0.026951
   4 C :   -0.139969
   5 H :   -0.008664
   6 C :    0.087416
   7 H :    0.003653
   8 H :    0.031934
   9 C :   -0.122195
  10 H :    0.048126
  11 H :    0.034012
  12 C :   -0.037764
  13 H :    0.022575
  14 H :    0.046748
  15 H :    0.024709
  16 S :    0.107113
  17 C :   -0.073449
  18 C :   -0.012589
  19 C :   -0.071491
  20 C :   -0.119030
  21 H :    0.019946
  22 C :    0.163753
  23 H :   -0.012228
  24 H :    0.009399
  25 C :   -0.107989
  26 H :    0.035909
  27 H :    0.034270
  28 C :   -0.048784
  29 H :    0.014833
  30 H :    0.023212
  31 H :    0.052153
  32 H :    0.088623
  33 H :    0.048819
Sum of atomic charges:    0.0000000

LOEWDIN ATOMIC CHARGES
----------------------
   0 S :    0.386622
   1 C :   -0.213040
   2 C :   -0.048453
   3 C :   -0.067446
   4 C :   -0.175860
   5 H :    0.019718
   6 C :   -0.028599
   7 H :    0.019572
   8 H :    0.031839
   9 C :   -0.038629
  10 H :    0.029818
  11 H :    0.020170
  12 C :   -0.062800
  13 H :    0.019043
  14 H :    0.034967
  15 H :    0.020567
  16 S :    0.379898
  17 C :   -0.166032
  18 C :   -0.062075
  19 C :   -0.043684
  20 C :   -0.184982
  21 H :    0.031994
  22 C :   -0.024692
  23 H :    0.011866
  24 H :    0.024769
  25 C :   -0.037486
  26 H :    0.024837
  27 H :    0.024438
  28 C :   -0.066307
  29 H :    0.015240
  30 H :    0.026504
  31 H :    0.032098
  32 H :    0.041436
  33 H :    0.024686

  Mayer bond orders larger than 0.100000
B(  0-S ,  1-C ) :   1.1178 B(  0-S ,  4-C ) :   1.1403 B(  1-C ,  2-C ) :   1.6082
B(  1-C , 32-H ) :   0.9465 B(  2-C ,  3-C ) :   1.2419 B(  2-C ,  6-C ) :   1.0180
B(  3-C ,  4-C ) :   1.5590 B(  3-C ,  5-H ) :   1.0043 B(  4-C , 20-C ) :   1.0650
B(  6-C ,  7-H ) :   0.9384 B(  6-C ,  8-H ) :   0.9391 B(  6-C ,  9-C ) :   1.0599
B(  9-C , 10-H ) :   0.9618 B(  9-C , 11-H ) :   0.9515 B(  9-C , 12-C ) :   1.0812
B( 12-C , 13-H ) :   0.9769 B( 12-C , 14-H ) :   0.9739 B( 12-C , 15-H ) :   0.9752
B( 16-S , 17-C ) :   1.1344 B( 16-S , 20-C ) :   1.1017 B( 17-C , 18-C ) :   1.6485
B( 17-C , 33-H ) :   0.9659 B( 18-C , 19-C ) :   1.1998 B( 18-C , 21-H ) :   0.9896
B( 19-C , 20-C ) :   1.6144 B( 19-C , 22-C ) :   1.0595 B( 22-C , 23-H ) :   0.9101
B( 22-C , 24-H ) :   0.9243 B( 22-C , 25-C ) :   1.0615 B( 25-C , 26-H ) :   0.9601
B( 25-C , 27-H ) :   0.9570 B( 25-C , 28-C ) :   1.0754 B( 28-C , 29-H ) :   0.9755
B( 28-C , 30-H ) :   0.9730 B( 28-C , 31-H ) :   0.9766

Dispersion correction           -0.013331737
FINAL SINGLE POINT ENERGY     -1339.860845233104

DIPOLE MOMENT
-------------
                                X             Y             Z
Electronic contribution:     -7.74282      -1.34838     -20.05016
Nuclear contribution   :      7.62015       1.56273      20.49365
                        -----------------------------------------
Total Dipole Moment    :     -0.12267       0.21436       0.44349
                        -----------------------------------------
Magnitude (a.u.)       :      0.50762
Magnitude (Debye)      :      1.29028

Rotational constants in cm-1:     0.020254     0.007155     0.005932
Rotational constants in MHz :   607.202416   214.492556   177.842585

                             ****ORCA TERMINATED NORMALLY****
TOTAL RUN TIME: 0 days 0 hours 0 minutes 20 seconds 672 msec
