                         Program Version 4.2.1 -  RELEASE  -
|  1> ! wB97X-D3 SP def2-SVP
|  2> %pal
|  3> nprocs 24
|  4> end
|  5>
|  6> * xyz 0 1
|  7> S 	 -65.4536 	 11.946 	 -101.026
|  8> C 	 -65.1576 	 12.9503 	 -99.6222
|  9> C 	 -64.4551 	 12.2415 	 -98.6483
| 10> C 	 -63.9946 	 10.9751 	 -99.1137
| 11> C 	 -64.6538 	 10.5652 	 -100.273
| 12> H 	 -63.3181 	 10.3568 	 -98.5943
| 13> C 	 -64.0852 	 12.8928 	 -97.324
| 14> H 	 -63.5986 	 12.2566 	 -96.5965
| 15> H 	 -65.0939 	 13.0615 	 -96.8639
| 16> C 	 -63.1715 	 14.1784 	 -97.2823
| 17> H 	 -63.5884 	 14.8953 	 -97.9896
| 18> H 	 -63.0932 	 14.6205 	 -96.298
| 19> C 	 -61.7562 	 13.7635 	 -97.7583
| 20> H 	 -61.2566 	 13.1138 	 -97.1406
| 21> H 	 -61.8843 	 13.3922 	 -98.7674
| 22> H 	 -61.2271 	 14.6575 	 -97.7131
| 23> S 	 -64.7371 	 7.86602 	 -99.9026
| 24> C 	 -64.9094 	 6.80452 	 -101.356
| 25> C 	 -64.6323 	 7.47577 	 -102.493
| 26> C 	 -64.431 	 8.87934 	 -102.268
| 27> C 	 -64.5769 	 9.24618 	 -100.907
| 28> H 	 -64.7563 	 6.95139 	 -103.394
| 29> C 	 -64.1001 	 9.90419 	 -103.351
| 30> H 	 -64.9712 	 10.4533 	 -103.597
| 31> H 	 -63.9673 	 9.34437 	 -104.314
| 32> C 	 -62.789 	 10.787 	 -103.113
| 33> H 	 -61.999 	 10.2006 	 -102.568
| 34> H 	 -63.0012 	 11.6555 	 -102.521
| 35> C 	 -62.3005 	 11.4111 	 -104.417
| 36> H 	 -61.5232 	 12.0967 	 -104.397
| 37> H 	 -63.0821 	 12.0658 	 -104.716
| 38> H 	 -62.1968 	 10.7925 	 -105.266
| 39> H 	 -65.5329 	 13.9306 	 -99.3894
| 40> H 	 -65.2404 	 5.78872 	 -101.305
| 41> *
| 42>
| 43>                          ****END OF INPUT****

CARTESIAN COORDINATES (ANGSTROEM)
---------------------------------
  S    -65.453600   11.946000  -101.026000
  C    -65.157600   12.950300  -99.622200
  C    -64.455100   12.241500  -98.648300
  C    -63.994600   10.975100  -99.113700
  C    -64.653800   10.565200  -100.273000
  H    -63.318100   10.356800  -98.594300
  C    -64.085200   12.892800  -97.324000
  H    -63.598600   12.256600  -96.596500
  H    -65.093900   13.061500  -96.863900
  C    -63.171500   14.178400  -97.282300
  H    -63.588400   14.895300  -97.989600
  H    -63.093200   14.620500  -96.298000
  C    -61.756200   13.763500  -97.758300
  H    -61.256600   13.113800  -97.140600
  H    -61.884300   13.392200  -98.767400
  H    -61.227100   14.657500  -97.713100
  S    -64.737100    7.866020  -99.902600
  C    -64.909400    6.804520  -101.356000
  C    -64.632300    7.475770  -102.493000
  C    -64.431000    8.879340  -102.268000
  C    -64.576900    9.246180  -100.907000
  H    -64.756300    6.951390  -103.394000
  C    -64.100100    9.904190  -103.351000
  H    -64.971200   10.453300  -103.597000
  H    -63.967300    9.344370  -104.314000
  C    -62.789000   10.787000  -103.113000
  H    -61.999000   10.200600  -102.568000
  H    -63.001200   11.655500  -102.521000
  C    -62.300500   11.411100  -104.417000
  H    -61.523200   12.096700  -104.397000
  H    -63.082100   12.065800  -104.716000
  H    -62.196800   10.792500  -105.266000
  H    -65.532900   13.930600  -99.389400
  H    -65.240400    5.788720  -101.305000

 Total Charge           Charge          ....    0
 Multiplicity           Mult            ....    1
 Number of Electrons    NEL             ....  134
 Basis Dimension        Dim             ....  322

ORBITAL ENERGIES
----------------

  NO   OCC          E(Eh)            E(eV)
   0   2.0000     -88.971591     -2421.0401
   1   2.0000     -88.964734     -2420.8535
   2   2.0000     -10.334249      -281.2092
   3   2.0000     -10.326835      -281.0075
   4   2.0000     -10.316634      -280.7299
   5   2.0000     -10.313514      -280.6450
   6   2.0000     -10.306759      -280.4612
   7   2.0000     -10.303459      -280.3714
   8   2.0000     -10.294126      -280.1174
   9   2.0000     -10.293706      -280.1060
  10   2.0000     -10.293300      -280.0949
  11   2.0000     -10.292487      -280.0728
  12   2.0000     -10.289388      -279.9885
  13   2.0000     -10.287224      -279.9296
  14   2.0000     -10.262985      -279.2700
  15   2.0000     -10.260430      -279.2005
  16   2.0000      -8.085026      -220.0048
  17   2.0000      -8.079369      -219.8508
  18   2.0000      -6.043650      -164.4561
  19   2.0000      -6.039705      -164.3487
  20   2.0000      -6.037923      -164.3002
  21   2.0000      -6.035755      -164.2412
  22   2.0000      -6.033960      -164.1924
  23   2.0000      -6.030019      -164.0852
  24   2.0000      -1.004942       -27.3459
  25   2.0000      -0.982402       -26.7325
  26   2.0000      -0.907328       -24.6897
  27   2.0000      -0.898209       -24.4415
  28   2.0000      -0.873207       -23.7612
  29   2.0000      -0.852603       -23.2005
  30   2.0000      -0.844450       -22.9787
  31   2.0000      -0.820134       -22.3170
  32   2.0000      -0.781669       -21.2703
  33   2.0000      -0.766826       -20.8664
  34   2.0000      -0.710710       -19.3394
  35   2.0000      -0.703016       -19.1300
  36   2.0000      -0.695183       -18.9169
  37   2.0000      -0.664572       -18.0839
  38   2.0000      -0.638165       -17.3654
  39   2.0000      -0.612977       -16.6800
  40   2.0000      -0.592624       -16.1261
  41   2.0000      -0.581589       -15.8258
  42   2.0000      -0.559671       -15.2294
  43   2.0000      -0.556289       -15.1374
  44   2.0000      -0.540559       -14.7093
  45   2.0000      -0.525257       -14.2930
  46   2.0000      -0.519864       -14.1462
  47   2.0000      -0.512003       -13.9323
  48   2.0000      -0.504797       -13.7362
  49   2.0000      -0.492180       -13.3929
  50   2.0000      -0.487168       -13.2565
  51   2.0000      -0.477904       -13.0044
  52   2.0000      -0.473760       -12.8917
  53   2.0000      -0.465693       -12.6722
  54   2.0000      -0.460759       -12.5379
  55   2.0000      -0.451099       -12.2750
  56   2.0000      -0.446246       -12.1430
  57   2.0000      -0.433262       -11.7897
  58   2.0000      -0.427975       -11.6458
  59   2.0000      -0.421625       -11.4730
  60   2.0000      -0.419298       -11.4097
  61   2.0000      -0.416965       -11.3462
  62   2.0000      -0.410653       -11.1744
  63   2.0000      -0.355016        -9.6605
  64   2.0000      -0.332210        -9.0399
  65   2.0000      -0.326019        -8.8714
  66   2.0000      -0.284169        -7.7326
  67   0.0000       0.020675         0.5626
  68   0.0000       0.068707         1.8696
  69   0.0000       0.103537         2.8174
  70   0.0000       0.120236         3.2718
  71   0.0000       0.131601         3.5811

MULLIKEN ATOMIC CHARGES
-----------------------
   0 S :    0.113517
   1 C :   -0.108046
   2 C :   -0.095363
   3 C :    0.036676
   4 C :   -0.136756
   5 H :    0.001123
   6 C :    0.021585
   7 H :    0.014208
   8 H :    0.042595
   9 C :   -0.073043
  10 H :    0.024567
  11 H :    0.032820
  12 C :   -0.005908
  13 H :    0.010999
  14 H :    0.044280
  15 H :    0.016272
  16 S :    0.098807
  17 C :   -0.100166
  18 C :    0.007978
  19 C :   -0.058830
  20 C :   -0.132927
  21 H :    0.006616
  22 C :    0.047484
  23 H :    0.030029
  24 H :    0.014049
  25 C :   -0.053505
  26 H :    0.045650
  27 H :    0.032321
  28 C :   -0.001699
  29 H :    0.012947
  30 H :    0.001089
  31 H :    0.013881
  32 H :    0.045207
  33 H :    0.051541
Sum of atomic charges:   -0.0000000

LOEWDIN ATOMIC CHARGES
----------------------
   0 S :    0.418736
   1 C :   -0.202023
   2 C :   -0.061040
   3 C :   -0.060172
   4 C :   -0.180356
   5 H :    0.023228
   6 C :   -0.043861
   7 H :    0.024964
   8 H :    0.037763
   9 C :   -0.028682
  10 H :    0.018846
  11 H :    0.022837
  12 C :   -0.050532
  13 H :    0.011682
  14 H :    0.030338
  15 H :    0.019464
  16 S :    0.397838
  17 C :   -0.160260
  18 C :   -0.061765
  19 C :   -0.058631
  20 C :   -0.207540
  21 H :    0.029250
  22 C :   -0.040023
  23 H :    0.023152
  24 H :    0.034371
  25 C :   -0.033844
  26 H :    0.029338
  27 H :    0.017734
  28 C :   -0.064845
  29 H :    0.018713
  30 H :    0.025480
  31 H :    0.015911
  32 H :    0.027750
  33 H :    0.026177

  Mayer bond orders larger than 0.100000
B(  0-S ,  1-C ) :   1.1337 B(  0-S ,  4-C ) :   1.1512 B(  1-C ,  2-C ) :   1.5956
B(  1-C ,  4-C ) :   0.1021 B(  1-C , 32-H ) :   0.9681 B(  2-C ,  3-C ) :   1.2493
B(  2-C ,  6-C ) :   1.0210 B(  3-C ,  4-C ) :   1.5466 B(  3-C ,  5-H ) :   0.9963
B(  4-C , 20-C ) :   1.0545 B(  6-C ,  7-H ) :   0.9500 B(  6-C ,  8-H ) :   0.9372
B(  6-C ,  9-C ) :   1.0635 B(  9-C , 10-H ) :   0.9593 B(  9-C , 11-H ) :   0.9568
B(  9-C , 12-C ) :   1.0739 B( 12-C , 13-H ) :   0.9762 B( 12-C , 14-H ) :   0.9773
B( 12-C , 15-H ) :   0.9721 B( 16-S , 17-C ) :   1.1340 B( 16-S , 20-C ) :   1.1494
B( 17-C , 18-C ) :   1.6321 B( 17-C , 33-H ) :   0.9684 B( 18-C , 19-C ) :   1.2317
B( 18-C , 21-H ) :   0.9979 B( 19-C , 20-C ) :   1.5584 B( 19-C , 22-C ) :   1.0418
B( 22-C , 23-H ) :   0.9286 B( 22-C , 24-H ) :   0.9378 B( 22-C , 25-C ) :   1.0370
B( 25-C , 26-H ) :   0.9661 B( 25-C , 27-H ) :   0.9497 B( 25-C , 28-C ) :   1.0805
B( 28-C , 29-H ) :   0.9718 B( 28-C , 30-H ) :   0.9659 B( 28-C , 31-H ) :   0.9768

Dispersion correction           -0.014867640
FINAL SINGLE POINT ENERGY     -1339.854781059543

DIPOLE MOMENT
-------------
                                X             Y             Z
Electronic contribution:    -14.86558     -16.26089       1.49464
Nuclear contribution   :     15.01480      16.45781      -1.52365
                        -----------------------------------------
Total Dipole Moment    :      0.14922       0.19692      -0.02901
                        -----------------------------------------
Magnitude (a.u.)       :      0.24877
Magnitude (Debye)      :      0.63232

Rotational constants in cm-1:     0.019408     0.008748     0.007132
Rotational constants in MHz :   581.851192   262.249569   213.804131

                             ****ORCA TERMINATED NORMALLY****
TOTAL RUN TIME: 0 days 0 hours 0 minutes 22 seconds 858 msec
