                         Program Version 4.2.1 -  RELEASE  -
|  1> ! wB97X-D3 SP def2-SVP
|  2> %pal
|  3> nprocs 24
|  4> end
|  5>
|  6> * xyz 0 1
|  7> S 	 -102.635 	 22.9007 	 -121.429
|  8> C 	 -101.068 	 23.3269 	 -121.013
|  9> C 	 -100.157 	 22.2611 	 -120.86
| 10> C 	 -100.822 	 21.0798 	 -121.144
| 11> C 	 -102.182 	 21.1832 	 -121.406
| 12> H 	 -100.234 	 20.1439 	 -121.116
| 13> C 	 -98.7494 	 22.3895 	 -120.315
| 14> H 	 -98.9039 	 22.4164 	 -119.226
| 15> H 	 -98.3271 	 23.4037 	 -120.671
| 16> C 	 -97.6896 	 21.3427 	 -120.709
| 17> H 	 -97.7915 	 21.1246 	 -121.722
| 18> H 	 -96.7412 	 21.8092 	 -120.432
| 19> C 	 -97.768 	 20.05 	 -119.886
| 20> H 	 -97.2073 	 19.2906 	 -120.439
| 21> H 	 -97.2387 	 20.1045 	 -118.904
| 22> H 	 -98.768 	 19.6887 	 -119.714
| 23> S 	 -104.875 	 20.1951 	 -121.472
| 24> C 	 -105.138 	 18.624 	 -122.103
| 25> C 	 -104.001 	 18.0685 	 -122.6
| 26> C 	 -102.828 	 18.8682 	 -122.375
| 27> C 	 -103.095 	 20.0537 	 -121.677
| 28> H 	 -104.011 	 17.0825 	 -123.069
| 29> C 	 -101.526 	 18.3363 	 -122.905
| 30> H 	 -100.906 	 19.2568 	 -123.046
| 31> H 	 -101.665 	 17.8109 	 -123.817
| 32> C 	 -100.635 	 17.4981 	 -121.971
| 33> H 	 -101.013 	 16.4956 	 -121.964
| 34> H 	 -100.863 	 17.8032 	 -120.959
| 35> C 	 -99.1485 	 17.5283 	 -122.244
| 36> H 	 -98.5745 	 17.0995 	 -121.414
| 37> H 	 -98.875 	 18.6044 	 -122.437
| 38> H 	 -98.9711 	 16.9849 	 -123.165
| 39> H 	 -100.684 	 24.3727 	 -120.789
| 40> H 	 -106.127 	 18.1642 	 -122.156
| 41> *
| 42>
| 43>                          ****END OF INPUT****

CARTESIAN COORDINATES (ANGSTROEM)
---------------------------------
  S    -102.635000   22.900700  -121.429000
  C    -101.068000   23.326900  -121.013000
  C    -100.157000   22.261100  -120.860000
  C    -100.822000   21.079800  -121.144000
  C    -102.182000   21.183200  -121.406000
  H    -100.234000   20.143900  -121.116000
  C    -98.749400   22.389500  -120.315000
  H    -98.903900   22.416400  -119.226000
  H    -98.327100   23.403700  -120.671000
  C    -97.689600   21.342700  -120.709000
  H    -97.791500   21.124600  -121.722000
  H    -96.741200   21.809200  -120.432000
  C    -97.768000   20.050000  -119.886000
  H    -97.207300   19.290600  -120.439000
  H    -97.238700   20.104500  -118.904000
  H    -98.768000   19.688700  -119.714000
  S    -104.875000   20.195100  -121.472000
  C    -105.138000   18.624000  -122.103000
  C    -104.001000   18.068500  -122.600000
  C    -102.828000   18.868200  -122.375000
  C    -103.095000   20.053700  -121.677000
  H    -104.011000   17.082500  -123.069000
  C    -101.526000   18.336300  -122.905000
  H    -100.906000   19.256800  -123.046000
  H    -101.665000   17.810900  -123.817000
  C    -100.635000   17.498100  -121.971000
  H    -101.013000   16.495600  -121.964000
  H    -100.863000   17.803200  -120.959000
  C    -99.148500   17.528300  -122.244000
  H    -98.574500   17.099500  -121.414000
  H    -98.875000   18.604400  -122.437000
  H    -98.971100   16.984900  -123.165000
  H    -100.684000   24.372700  -120.789000
  H    -106.127000   18.164200  -122.156000

 Total Charge           Charge          ....    0
 Multiplicity           Mult            ....    1
 Number of Electrons    NEL             ....  134
 Basis Dimension        Dim             ....  322

ORBITAL ENERGIES
----------------

  NO   OCC          E(Eh)            E(eV)
   0   2.0000     -88.973623     -2421.0954
   1   2.0000     -88.964847     -2420.8566
   2   2.0000     -10.333808      -281.1972
   3   2.0000     -10.333156      -281.1795
   4   2.0000     -10.314438      -280.6701
   5   2.0000     -10.312978      -280.6304
   6   2.0000     -10.303681      -280.3774
   7   2.0000     -10.300829      -280.2998
   8   2.0000     -10.295699      -280.1602
   9   2.0000     -10.291765      -280.0532
  10   2.0000     -10.290278      -280.0127
  11   2.0000     -10.288205      -279.9563
  12   2.0000     -10.287433      -279.9353
  13   2.0000     -10.284665      -279.8600
  14   2.0000     -10.280840      -279.7559
  15   2.0000     -10.280372      -279.7432
  16   2.0000      -8.088622      -220.1026
  17   2.0000      -8.079645      -219.8583
  18   2.0000      -6.046994      -164.5471
  19   2.0000      -6.043089      -164.4408
  20   2.0000      -6.039534      -164.3441
  21   2.0000      -6.038231      -164.3086
  22   2.0000      -6.034213      -164.1993
  23   2.0000      -6.030266      -164.0919
  24   2.0000      -1.007556       -27.4170
  25   2.0000      -0.988141       -26.8887
  26   2.0000      -0.914633       -24.8884
  27   2.0000      -0.912761       -24.8375
  28   2.0000      -0.867734       -23.6123
  29   2.0000      -0.857608       -23.3367
  30   2.0000      -0.850415       -23.1410
  31   2.0000      -0.813989       -22.1498
  32   2.0000      -0.783431       -21.3182
  33   2.0000      -0.770582       -20.9686
  34   2.0000      -0.708353       -19.2753
  35   2.0000      -0.699159       -19.0251
  36   2.0000      -0.690452       -18.7881
  37   2.0000      -0.661045       -17.9879
  38   2.0000      -0.630495       -17.1566
  39   2.0000      -0.628153       -17.0929
  40   2.0000      -0.598682       -16.2910
  41   2.0000      -0.574404       -15.6303
  42   2.0000      -0.570621       -15.5274
  43   2.0000      -0.543093       -14.7783
  44   2.0000      -0.541353       -14.7310
  45   2.0000      -0.528723       -14.3873
  46   2.0000      -0.521549       -14.1921
  47   2.0000      -0.513816       -13.9816
  48   2.0000      -0.506033       -13.7699
  49   2.0000      -0.496868       -13.5205
  50   2.0000      -0.485134       -13.2012
  51   2.0000      -0.481931       -13.1140
  52   2.0000      -0.479012       -13.0346
  53   2.0000      -0.466153       -12.6847
  54   2.0000      -0.461277       -12.5520
  55   2.0000      -0.450420       -12.2566
  56   2.0000      -0.441899       -12.0247
  57   2.0000      -0.439622       -11.9627
  58   2.0000      -0.431957       -11.7542
  59   2.0000      -0.427547       -11.6342
  60   2.0000      -0.421470       -11.4688
  61   2.0000      -0.416780       -11.3412
  62   2.0000      -0.413484       -11.2515
  63   2.0000      -0.359063        -9.7706
  64   2.0000      -0.335698        -9.1348
  65   2.0000      -0.329115        -8.9557
  66   2.0000      -0.278623        -7.5817
  67   0.0000       0.024092         0.6556
  68   0.0000       0.077932         2.1206
  69   0.0000       0.109073         2.9680
  70   0.0000       0.122666         3.3379
  71   0.0000       0.130368         3.5475

MULLIKEN ATOMIC CHARGES
-----------------------
   0 S :    0.145423
   1 C :   -0.140359
   2 C :   -0.092381
   3 C :   -0.004489
   4 C :   -0.122454
   5 H :   -0.019546
   6 C :    0.014125
   7 H :    0.053984
   8 H :    0.039392
   9 C :   -0.038279
  10 H :    0.027542
  11 H :    0.037235
  12 C :   -0.080243
  13 H :    0.032440
  14 H :    0.037655
  15 H :    0.039911
  16 S :    0.092437
  17 C :   -0.086991
  18 C :   -0.026174
  19 C :   -0.067303
  20 C :   -0.126750
  21 H :    0.021426
  22 C :    0.058698
  23 H :    0.017468
  24 H :    0.021623
  25 C :   -0.058589
  26 H :    0.011205
  27 H :    0.019735
  28 C :   -0.044577
  29 H :    0.052144
  30 H :    0.030630
  31 H :    0.033071
  32 H :    0.058979
  33 H :    0.063012
Sum of atomic charges:    0.0000000

LOEWDIN ATOMIC CHARGES
----------------------
   0 S :    0.438924
   1 C :   -0.232491
   2 C :   -0.074661
   3 C :   -0.072765
   4 C :   -0.188860
   5 H :    0.031392
   6 C :   -0.035197
   7 H :    0.038490
   8 H :    0.039441
   9 C :   -0.035872
  10 H :    0.016496
  11 H :    0.034247
  12 C :   -0.070502
  13 H :    0.027179
  14 H :    0.031178
  15 H :    0.018120
  16 S :    0.393393
  17 C :   -0.191415
  18 C :   -0.077621
  19 C :   -0.051694
  20 C :   -0.184519
  21 H :    0.034025
  22 C :   -0.031689
  23 H :    0.032303
  24 H :    0.025419
  25 C :   -0.046196
  26 H :    0.018709
  27 H :    0.019631
  28 C :   -0.062748
  29 H :    0.032075
  30 H :    0.025813
  31 H :    0.026116
  32 H :    0.039129
  33 H :    0.034153

  Mayer bond orders larger than 0.100000
B(  0-S ,  1-C ) :   1.1772 B(  0-S ,  4-C ) :   1.1504 B(  1-C ,  2-C ) :   1.5641
B(  1-C , 32-H ) :   0.9520 B(  2-C ,  3-C ) :   1.3340 B(  2-C ,  6-C ) :   1.0098
B(  3-C ,  4-C ) :   1.5060 B(  3-C ,  5-H ) :   0.9775 B(  4-C , 20-C ) :   1.0908
B(  6-C ,  7-H ) :   0.9383 B(  6-C ,  8-H ) :   0.9425 B(  6-C ,  9-C ) :   1.0720
B(  9-C , 10-H ) :   0.9629 B(  9-C , 11-H ) :   0.9535 B(  9-C , 12-C ) :   1.0729
B( 12-C , 13-H ) :   0.9713 B( 12-C , 14-H ) :   0.9701 B( 12-C , 15-H ) :   0.9760
B( 16-S , 17-C ) :   1.1596 B( 16-S , 20-C ) :   1.1184 B( 17-C , 18-C ) :   1.6066
B( 17-C , 33-H ) :   0.9639 B( 18-C , 19-C ) :   1.2451 B( 18-C , 21-H ) :   0.9914
B( 19-C , 20-C ) :   1.5705 B( 19-C , 22-C ) :   1.0603 B( 22-C , 23-H ) :   0.9236
B( 22-C , 24-H ) :   0.9344 B( 22-C , 25-C ) :   1.0577 B( 25-C , 26-H ) :   0.9445
B( 25-C , 27-H ) :   0.9517 B( 25-C , 28-C ) :   1.0824 B( 28-C , 29-H ) :   0.9702
B( 28-C , 30-H ) :   0.9697 B( 28-C , 31-H ) :   0.9709

Dispersion correction           -0.016021492
FINAL SINGLE POINT ENERGY     -1339.882213367357

DIPOLE MOMENT
-------------
                                X             Y             Z
Electronic contribution:    -30.42116      14.11866      -1.67700
Nuclear contribution   :     31.04811     -14.51505       1.65778
                        -----------------------------------------
Total Dipole Moment    :      0.62695      -0.39639      -0.01922
                        -----------------------------------------
Magnitude (a.u.)       :      0.74200
Magnitude (Debye)      :      1.88601

Rotational constants in cm-1:     0.017608     0.010847     0.007059
Rotational constants in MHz :   527.874510   325.186162   211.629937

                             ****ORCA TERMINATED NORMALLY****
TOTAL RUN TIME: 0 days 0 hours 0 minutes 23 seconds 573 msec
