                         Program Version 4.2.1 -  RELEASE  -
|  1> ! wB97X-D3 SP def2-SVP
|  2> %pal
|  3> nprocs 24
|  4> end
|  5>
|  6> * xyz 0 1
|  7> S 	 -127.672 	 25.0393 	 -112.41
|  8> C 	 -126.533 	 24.3933 	 -113.645
|  9> C 	 -125.437 	 25.1993 	 -113.703
| 10> C 	 -125.495 	 26.3285 	 -112.773
| 11> C 	 -126.663 	 26.4344 	 -112.055
| 12> H 	 -124.746 	 27.0541 	 -112.593
| 13> C 	 -124.189 	 24.9357 	 -114.621
| 14> H 	 -124.221 	 25.795 	 -115.341
| 15> H 	 -124.372 	 24.061 	 -115.236
| 16> C 	 -122.844 	 24.8426 	 -113.945
| 17> H 	 -122.624 	 25.8119 	 -113.499
| 18> H 	 -122.904 	 24.1377 	 -113.165
| 19> C 	 -121.808 	 24.3504 	 -114.997
| 20> H 	 -120.803 	 24.539 	 -114.556
| 21> H 	 -121.895 	 23.302 	 -115.299
| 22> H 	 -121.743 	 24.9665 	 -115.907
| 23> S 	 -128.417 	 28.5125 	 -112.187
| 24> C 	 -128.393 	 29.7531 	 -110.948
| 25> C 	 -127.403 	 29.4891 	 -109.988
| 26> C 	 -126.578 	 28.3268 	 -110.32
| 27> C 	 -127.146 	 27.6288 	 -111.359
| 28> H 	 -127.384 	 30.1017 	 -109.135
| 29> C 	 -125.449 	 27.8719 	 -109.466
| 30> H 	 -124.991 	 28.7126 	 -108.879
| 31> H 	 -124.734 	 27.3491 	 -110.224
| 32> C 	 -125.924 	 26.7694 	 -108.497
| 33> H 	 -126.525 	 25.9269 	 -109.014
| 34> H 	 -126.56 	 27.2406 	 -107.715
| 35> C 	 -124.759 	 26.102 	 -107.688
| 36> H 	 -124.275 	 25.2656 	 -108.222
| 37> H 	 -125.105 	 25.6621 	 -106.78
| 38> H 	 -124.008 	 26.7115 	 -107.243
| 39> H 	 -126.721 	 23.6331 	 -114.359
| 40> H 	 -129.196 	 30.4414 	 -110.779
| 41> *
| 42>
| 43>                          ****END OF INPUT****

CARTESIAN COORDINATES (ANGSTROEM)
---------------------------------
  S    -127.672000   25.039300  -112.410000
  C    -126.533000   24.393300  -113.645000
  C    -125.437000   25.199300  -113.703000
  C    -125.495000   26.328500  -112.773000
  C    -126.663000   26.434400  -112.055000
  H    -124.746000   27.054100  -112.593000
  C    -124.189000   24.935700  -114.621000
  H    -124.221000   25.795000  -115.341000
  H    -124.372000   24.061000  -115.236000
  C    -122.844000   24.842600  -113.945000
  H    -122.624000   25.811900  -113.499000
  H    -122.904000   24.137700  -113.165000
  C    -121.808000   24.350400  -114.997000
  H    -120.803000   24.539000  -114.556000
  H    -121.895000   23.302000  -115.299000
  H    -121.743000   24.966500  -115.907000
  S    -128.417000   28.512500  -112.187000
  C    -128.393000   29.753100  -110.948000
  C    -127.403000   29.489100  -109.988000
  C    -126.578000   28.326800  -110.320000
  C    -127.146000   27.628800  -111.359000
  H    -127.384000   30.101700  -109.135000
  C    -125.449000   27.871900  -109.466000
  H    -124.991000   28.712600  -108.879000
  H    -124.734000   27.349100  -110.224000
  C    -125.924000   26.769400  -108.497000
  H    -126.525000   25.926900  -109.014000
  H    -126.560000   27.240600  -107.715000
  C    -124.759000   26.102000  -107.688000
  H    -124.275000   25.265600  -108.222000
  H    -125.105000   25.662100  -106.780000
  H    -124.008000   26.711500  -107.243000
  H    -126.721000   23.633100  -114.359000
  H    -129.196000   30.441400  -110.779000

 Total Charge           Charge          ....    0
 Multiplicity           Mult            ....    1
 Number of Electrons    NEL             ....  134
 Basis Dimension        Dim             ....  322

ORBITAL ENERGIES
----------------

  NO   OCC          E(Eh)            E(eV)
   0   2.0000     -88.964617     -2420.8503
   1   2.0000     -88.962867     -2420.8027
   2   2.0000     -10.330067      -281.0954
   3   2.0000     -10.325842      -280.9804
   4   2.0000     -10.316729      -280.7325
   5   2.0000     -10.314674      -280.6765
   6   2.0000     -10.305639      -280.4307
   7   2.0000     -10.305628      -280.4304
   8   2.0000     -10.303194      -280.3642
   9   2.0000     -10.297793      -280.2172
  10   2.0000     -10.296028      -280.1692
  11   2.0000     -10.295812      -280.1633
  12   2.0000     -10.294302      -280.1222
  13   2.0000     -10.287210      -279.9292
  14   2.0000     -10.285897      -279.8935
  15   2.0000     -10.272038      -279.5164
  16   2.0000      -8.079212      -219.8465
  17   2.0000      -8.076830      -219.7817
  18   2.0000      -6.037822      -164.2975
  19   2.0000      -6.035565      -164.2361
  20   2.0000      -6.033687      -164.1850
  21   2.0000      -6.031382      -164.1223
  22   2.0000      -6.029917      -164.0824
  23   2.0000      -6.027438      -164.0149
  24   2.0000      -1.003459       -27.3055
  25   2.0000      -0.978031       -26.6136
  26   2.0000      -0.910910       -24.7871
  27   2.0000      -0.905963       -24.6525
  28   2.0000      -0.869783       -23.6680
  29   2.0000      -0.846794       -23.0424
  30   2.0000      -0.837476       -22.7889
  31   2.0000      -0.814543       -22.1648
  32   2.0000      -0.780192       -21.2301
  33   2.0000      -0.772388       -21.0177
  34   2.0000      -0.710547       -19.3350
  35   2.0000      -0.699124       -19.0241
  36   2.0000      -0.689321       -18.7574
  37   2.0000      -0.665089       -18.0980
  38   2.0000      -0.644235       -17.5305
  39   2.0000      -0.616124       -16.7656
  40   2.0000      -0.588817       -16.0225
  41   2.0000      -0.570596       -15.5267
  42   2.0000      -0.569384       -15.4937
  43   2.0000      -0.559946       -15.2369
  44   2.0000      -0.521384       -14.1876
  45   2.0000      -0.519003       -14.1228
  46   2.0000      -0.515083       -14.0161
  47   2.0000      -0.509383       -13.8610
  48   2.0000      -0.507596       -13.8124
  49   2.0000      -0.496022       -13.4974
  50   2.0000      -0.489756       -13.3269
  51   2.0000      -0.482594       -13.1321
  52   2.0000      -0.476520       -12.9668
  53   2.0000      -0.462585       -12.5876
  54   2.0000      -0.456274       -12.4158
  55   2.0000      -0.444856       -12.1052
  56   2.0000      -0.442320       -12.0361
  57   2.0000      -0.435225       -11.8431
  58   2.0000      -0.431573       -11.7437
  59   2.0000      -0.428635       -11.6638
  60   2.0000      -0.427238       -11.6257
  61   2.0000      -0.413936       -11.2638
  62   2.0000      -0.405309       -11.0290
  63   2.0000      -0.339587        -9.2406
  64   2.0000      -0.328554        -8.9404
  65   2.0000      -0.324006        -8.8166
  66   2.0000      -0.302195        -8.2231
  67   0.0000       0.031169         0.8482
  68   0.0000       0.065960         1.7949
  69   0.0000       0.111887         3.0446
  70   0.0000       0.119679         3.2566
  71   0.0000       0.127513         3.4698

MULLIKEN ATOMIC CHARGES
-----------------------
   0 S :    0.087909
   1 C :   -0.107705
   2 C :   -0.084264
   3 C :    0.057885
   4 C :   -0.182434
   5 H :    0.003610
   6 C :    0.039481
   7 H :    0.040790
   8 H :    0.009881
   9 C :   -0.035086
  10 H :    0.032216
  11 H :    0.026266
  12 C :   -0.073565
  13 H :    0.033375
  14 H :    0.047156
  15 H :    0.030485
  16 S :    0.116335
  17 C :   -0.090569
  18 C :   -0.027009
  19 C :   -0.019081
  20 C :   -0.153708
  21 H :    0.004267
  22 C :    0.046587
  23 H :    0.042053
  24 H :    0.041121
  25 C :   -0.110263
  26 H :    0.060814
  27 H :    0.032428
  28 C :   -0.032495
  29 H :    0.038445
  30 H :    0.012777
  31 H :    0.015412
  32 H :    0.039798
  33 H :    0.057086
Sum of atomic charges:    0.0000000

LOEWDIN ATOMIC CHARGES
----------------------
   0 S :    0.372917
   1 C :   -0.179399
   2 C :   -0.059048
   3 C :   -0.059678
   4 C :   -0.194884
   5 H :    0.021967
   6 C :   -0.031868
   7 H :    0.035627
   8 H :    0.023586
   9 C :   -0.034461
  10 H :    0.025485
  11 H :    0.021490
  12 C :   -0.068642
  13 H :    0.030506
  14 H :    0.028502
  15 H :    0.026320
  16 S :    0.407810
  17 C :   -0.184675
  18 C :   -0.060120
  19 C :   -0.053667
  20 C :   -0.199778
  21 H :    0.022205
  22 C :   -0.043061
  23 H :    0.039175
  24 H :    0.043336
  25 C :   -0.041635
  26 H :    0.039807
  27 H :    0.025572
  28 C :   -0.077177
  29 H :    0.028396
  30 H :    0.023348
  31 H :    0.020047
  32 H :    0.026134
  33 H :    0.025863

  Mayer bond orders larger than 0.100000
B(  0-S ,  1-C ) :   1.1054 B(  0-S ,  4-C ) :   1.1355 B(  1-C ,  2-C ) :   1.6638
B(  1-C , 32-H ) :   0.9708 B(  2-C ,  3-C ) :   1.1981 B(  2-C ,  6-C ) :   1.0078
B(  3-C ,  4-C ) :   1.6119 B(  3-C ,  5-H ) :   0.9926 B(  4-C , 20-C ) :   1.0106
B(  6-C ,  7-H ) :   0.9379 B(  6-C ,  8-H ) :   0.9493 B(  6-C ,  9-C ) :   1.0629
B(  9-C , 10-H ) :   0.9516 B(  9-C , 11-H ) :   0.9566 B(  9-C , 12-C ) :   1.0815
B( 12-C , 13-H ) :   0.9743 B( 12-C , 14-H ) :   0.9757 B( 12-C , 15-H ) :   0.9753
B( 16-S , 17-C ) :   1.1472 B( 16-S , 20-C ) :   1.1456 B( 17-C , 18-C ) :   1.6371
B( 17-C , 33-H ) :   0.9653 B( 18-C , 19-C ) :   1.1979 B( 18-C , 21-H ) :   0.9951
B( 19-C , 20-C ) :   1.6114 B( 19-C , 22-C ) :   1.0613 B( 22-C , 23-H ) :   0.9317
B( 22-C , 24-H ) :   0.9239 B( 22-C , 25-C ) :   1.0643 B( 25-C , 26-H ) :   0.9567
B( 25-C , 27-H ) :   0.9574 B( 25-C , 28-C ) :   1.0721 B( 28-C , 29-H ) :   0.9778
B( 28-C , 30-H ) :   0.9720 B( 28-C , 31-H ) :   0.9726

Dispersion correction           -0.014030460
FINAL SINGLE POINT ENERGY     -1339.868461933166

DIPOLE MOMENT
-------------
                                X             Y             Z
Electronic contribution:    -25.91542       7.89221      -4.95878
Nuclear contribution   :     26.51540      -7.82883       5.08930
                        -----------------------------------------
Total Dipole Moment    :      0.59998       0.06337       0.13052
                        -----------------------------------------
Magnitude (a.u.)       :      0.61728
Magnitude (Debye)      :      1.56899

Rotational constants in cm-1:     0.017629     0.008264     0.006887
Rotational constants in MHz :   528.497061   247.752181   206.477768

                             ****ORCA TERMINATED NORMALLY****
TOTAL RUN TIME: 0 days 0 hours 0 minutes 21 seconds 240 msec
