                         Program Version 4.2.1 -  RELEASE  -
|  1> ! wB97X-D3 SP def2-SVP
|  2> %pal
|  3> nprocs 24
|  4> end
|  5>
|  6> * xyz 0 1
|  7> S 	 -88.6345 	 -5.2756 	 -113.745
|  8> C 	 -87.9156 	 -4.74479 	 -115.194
|  9> C 	 -88.4216 	 -3.51444 	 -115.619
| 10> C 	 -89.5461 	 -3.04567 	 -114.869
| 11> C 	 -89.7997 	 -3.87208 	 -113.789
| 12> H 	 -90.0889 	 -2.14783 	 -115.132
| 13> C 	 -87.8437 	 -2.64276 	 -116.732
| 14> H 	 -86.8923 	 -3.21799 	 -116.852
| 15> H 	 -87.5337 	 -1.68309 	 -116.31
| 16> C 	 -88.7089 	 -2.45848 	 -117.987
| 17> H 	 -88.8526 	 -3.48076 	 -118.436
| 18> H 	 -89.6431 	 -1.99782 	 -117.538
| 19> C 	 -88.2413 	 -1.51707 	 -119.077
| 20> H 	 -88.2129 	 -0.454597 	 -118.766
| 21> H 	 -87.2184 	 -1.68561 	 -119.408
| 22> H 	 -88.9369 	 -1.53615 	 -119.947
| 23> S 	 -90.9554 	 -5.14 	 -111.704
| 24> C 	 -92.5175 	 -4.64654 	 -111.003
| 25> C 	 -92.9248 	 -3.50135 	 -111.705
| 26> C 	 -92.0717 	 -3.0418 	 -112.712
| 27> C 	 -90.9949 	 -3.89404 	 -112.936
| 28> H 	 -93.9261 	 -3.13145 	 -111.424
| 29> C 	 -92.481 	 -1.87401 	 -113.554
| 30> H 	 -91.6815 	 -1.19673 	 -113.726
| 31> H 	 -93.2479 	 -1.3644 	 -112.894
| 32> C 	 -93.088 	 -2.27748 	 -114.881
| 33> H 	 -92.4742 	 -3.00473 	 -115.447
| 34> H 	 -93.1952 	 -1.43479 	 -115.579
| 35> C 	 -94.4537 	 -2.83311 	 -114.8
| 36> H 	 -94.6664 	 -3.24868 	 -115.716
| 37> H 	 -95.0073 	 -1.94133 	 -114.515
| 38> H 	 -94.4796 	 -3.70874 	 -114.095
| 39> H 	 -87.1936 	 -5.34272 	 -115.769
| 40> H 	 -92.9518 	 -5.03166 	 -110.064
| 41> *
| 42>
| 43>                          ****END OF INPUT****

CARTESIAN COORDINATES (ANGSTROEM)
---------------------------------
  S    -88.634500   -5.275600  -113.745000
  C    -87.915600   -4.744790  -115.194000
  C    -88.421600   -3.514440  -115.619000
  C    -89.546100   -3.045670  -114.869000
  C    -89.799700   -3.872080  -113.789000
  H    -90.088900   -2.147830  -115.132000
  C    -87.843700   -2.642760  -116.732000
  H    -86.892300   -3.217990  -116.852000
  H    -87.533700   -1.683090  -116.310000
  C    -88.708900   -2.458480  -117.987000
  H    -88.852600   -3.480760  -118.436000
  H    -89.643100   -1.997820  -117.538000
  C    -88.241300   -1.517070  -119.077000
  H    -88.212900   -0.454597  -118.766000
  H    -87.218400   -1.685610  -119.408000
  H    -88.936900   -1.536150  -119.947000
  S    -90.955400   -5.140000  -111.704000
  C    -92.517500   -4.646540  -111.003000
  C    -92.924800   -3.501350  -111.705000
  C    -92.071700   -3.041800  -112.712000
  C    -90.994900   -3.894040  -112.936000
  H    -93.926100   -3.131450  -111.424000
  C    -92.481000   -1.874010  -113.554000
  H    -91.681500   -1.196730  -113.726000
  H    -93.247900   -1.364400  -112.894000
  C    -93.088000   -2.277480  -114.881000
  H    -92.474200   -3.004730  -115.447000
  H    -93.195200   -1.434790  -115.579000
  C    -94.453700   -2.833110  -114.800000
  H    -94.666400   -3.248680  -115.716000
  H    -95.007300   -1.941330  -114.515000
  H    -94.479600   -3.708740  -114.095000
  H    -87.193600   -5.342720  -115.769000
  H    -92.951800   -5.031660  -110.064000

 Total Charge           Charge          ....    0
 Multiplicity           Mult            ....    1
 Number of Electrons    NEL             ....  134
 Basis Dimension        Dim             ....  322

ORBITAL ENERGIES
----------------

  NO   OCC          E(Eh)            E(eV)
   0   2.0000     -88.969947     -2420.9953
   1   2.0000     -88.963512     -2420.8202
   2   2.0000     -10.339043      -281.3397
   3   2.0000     -10.331406      -281.1318
   4   2.0000     -10.323079      -280.9053
   5   2.0000     -10.317760      -280.7605
   6   2.0000     -10.301798      -280.3262
   7   2.0000     -10.301185      -280.3095
   8   2.0000     -10.297911      -280.2204
   9   2.0000     -10.297309      -280.2040
  10   2.0000     -10.296794      -280.1900
  11   2.0000     -10.294105      -280.1169
  12   2.0000     -10.292508      -280.0734
  13   2.0000     -10.283730      -279.8345
  14   2.0000     -10.280610      -279.7496
  15   2.0000     -10.267023      -279.3799
  16   2.0000      -8.084346      -219.9863
  17   2.0000      -8.077894      -219.8107
  18   2.0000      -6.043018      -164.4389
  19   2.0000      -6.038933      -164.3277
  20   2.0000      -6.036434      -164.2597
  21   2.0000      -6.034917      -164.2185
  22   2.0000      -6.032312      -164.1476
  23   2.0000      -6.028803      -164.0521
  24   2.0000      -1.006449       -27.3869
  25   2.0000      -0.983930       -26.7741
  26   2.0000      -0.920914       -25.0593
  27   2.0000      -0.908346       -24.7173
  28   2.0000      -0.870002       -23.6739
  29   2.0000      -0.859446       -23.3867
  30   2.0000      -0.850247       -23.1364
  31   2.0000      -0.816747       -22.2248
  32   2.0000      -0.782983       -21.3060
  33   2.0000      -0.769332       -20.9346
  34   2.0000      -0.707768       -19.2593
  35   2.0000      -0.695721       -18.9315
  36   2.0000      -0.684767       -18.6335
  37   2.0000      -0.665757       -18.1162
  38   2.0000      -0.636928       -17.3317
  39   2.0000      -0.623369       -16.9627
  40   2.0000      -0.594836       -16.1863
  41   2.0000      -0.571388       -15.5483
  42   2.0000      -0.568571       -15.4716
  43   2.0000      -0.557154       -15.1609
  44   2.0000      -0.550959       -14.9924
  45   2.0000      -0.529627       -14.4119
  46   2.0000      -0.519782       -14.1440
  47   2.0000      -0.510052       -13.8792
  48   2.0000      -0.505102       -13.7445
  49   2.0000      -0.498398       -13.5621
  50   2.0000      -0.496645       -13.5144
  51   2.0000      -0.483124       -13.1465
  52   2.0000      -0.473645       -12.8885
  53   2.0000      -0.465376       -12.6635
  54   2.0000      -0.458584       -12.4787
  55   2.0000      -0.446563       -12.1516
  56   2.0000      -0.441797       -12.0219
  57   2.0000      -0.433936       -11.8080
  58   2.0000      -0.426795       -11.6137
  59   2.0000      -0.424657       -11.5555
  60   2.0000      -0.418847       -11.3974
  61   2.0000      -0.408715       -11.1217
  62   2.0000      -0.405421       -11.0321
  63   2.0000      -0.365142        -9.9360
  64   2.0000      -0.338947        -9.2232
  65   2.0000      -0.326562        -8.8862
  66   2.0000      -0.277426        -7.5492
  67   0.0000       0.012038         0.3276
  68   0.0000       0.079893         2.1740
  69   0.0000       0.089421         2.4333
  70   0.0000       0.118256         3.2179
  71   0.0000       0.129770         3.5312

MULLIKEN ATOMIC CHARGES
-----------------------
   0 S :    0.099821
   1 C :   -0.118532
   2 C :   -0.111674
   3 C :   -0.013787
   4 C :   -0.072299
   5 H :    0.018830
   6 C :    0.050466
   7 H :    0.012496
   8 H :    0.031788
   9 C :   -0.086563
  10 H :    0.044864
  11 H :    0.034314
  12 C :   -0.044648
  13 H :    0.025290
  14 H :    0.029272
  15 H :    0.044994
  16 S :    0.066736
  17 C :   -0.107881
  18 C :   -0.058985
  19 C :   -0.058982
  20 C :   -0.102698
  21 H :    0.031181
  22 C :    0.075133
  23 H :    0.023570
  24 H :    0.025749
  25 C :   -0.097558
  26 H :    0.033162
  27 H :    0.018785
  28 C :   -0.014409
  29 H :    0.012375
  30 H :    0.030446
  31 H :    0.042315
  32 H :    0.061772
  33 H :    0.074656
Sum of atomic charges:    0.0000000

LOEWDIN ATOMIC CHARGES
----------------------
   0 S :    0.393101
   1 C :   -0.213384
   2 C :   -0.066103
   3 C :   -0.060291
   4 C :   -0.162835
   5 H :    0.032111
   6 C :   -0.041207
   7 H :    0.029810
   8 H :    0.030051
   9 C :   -0.048783
  10 H :    0.033971
  11 H :    0.030982
  12 C :   -0.074139
  13 H :    0.026010
  14 H :    0.023553
  15 H :    0.033701
  16 S :    0.389904
  17 C :   -0.188070
  18 C :   -0.075501
  19 C :   -0.069820
  20 C :   -0.180786
  21 H :    0.035644
  22 C :   -0.030396
  23 H :    0.023474
  24 H :    0.038007
  25 C :   -0.048013
  26 H :    0.024520
  27 H :    0.022116
  28 C :   -0.057408
  29 H :    0.015898
  30 H :    0.027055
  31 H :    0.031858
  32 H :    0.035595
  33 H :    0.039373

  Mayer bond orders larger than 0.100000
B(  0-S ,  1-C ) :   1.1435 B(  0-S ,  4-C ) :   1.1232 B(  1-C ,  2-C ) :   1.6165
B(  1-C , 32-H ) :   0.9585 B(  2-C ,  3-C ) :   1.2409 B(  2-C ,  6-C ) :   1.0177
B(  3-C ,  4-C ) :   1.5811 B(  3-C ,  5-H ) :   0.9861 B(  4-C , 20-C ) :   1.0803
B(  6-C ,  7-H ) :   0.9381 B(  6-C ,  8-H ) :   0.9434 B(  6-C ,  9-C ) :   1.0507
B(  9-C , 10-H ) :   0.9546 B(  9-C , 11-H ) :   0.9542 B(  9-C , 12-C ) :   1.0887
B( 12-C , 13-H ) :   0.9708 B( 12-C , 14-H ) :   0.9730 B( 12-C , 15-H ) :   0.9734
B( 16-S , 17-C ) :   1.1555 B( 16-S , 20-C ) :   1.1433 B( 17-C , 18-C ) :   1.5810
B( 17-C , 20-C ) :   0.1079 B( 17-C , 33-H ) :   0.9660 B( 18-C , 19-C ) :   1.2786
B( 18-C , 21-H ) :   0.9811 B( 19-C , 20-C ) :   1.5429 B( 19-C , 22-C ) :   1.0478
B( 22-C , 23-H ) :   0.9249 B( 22-C , 24-H ) :   0.9340 B( 22-C , 25-C ) :   1.0696
B( 25-C , 26-H ) :   0.9521 B( 25-C , 27-H ) :   0.9555 B( 25-C , 28-C ) :   1.0833
B( 28-C , 29-H ) :   0.9667 B( 28-C , 30-H ) :   0.9784 B( 28-C , 31-H ) :   0.9720

Dispersion correction           -0.014419896
FINAL SINGLE POINT ENERGY     -1339.864339788759

DIPOLE MOMENT
-------------
                                X             Y             Z
Electronic contribution:      7.53951     -17.96873      23.73032
Nuclear contribution   :     -7.72696      18.44966     -24.20057
                        -----------------------------------------
Total Dipole Moment    :     -0.18745       0.48093      -0.47025
                        -----------------------------------------
Magnitude (a.u.)       :      0.69826
Magnitude (Debye)      :      1.77483

Rotational constants in cm-1:     0.019289     0.009058     0.006496
Rotational constants in MHz :   578.263855   271.544039   194.730335

                             ****ORCA TERMINATED NORMALLY****
TOTAL RUN TIME: 0 days 0 hours 0 minutes 20 seconds 889 msec
