                         Program Version 4.2.1 -  RELEASE  -
|  1> ! wB97X-D3 SP def2-SVP
|  2> %pal
|  3> nprocs 24
|  4> end
|  5>
|  6> * xyz 0 1
|  7> S 	 -111.31 	 69.8419 	 -10.0127
|  8> C 	 -110.301 	 71.113 	 -10.7055
|  9> C 	 -109.011 	 70.6808 	 -11.0511
| 10> C 	 -108.827 	 69.3159 	 -10.6222
| 11> C 	 -110.008 	 68.7003 	 -10.2172
| 12> H 	 -107.932 	 68.7386 	 -10.6533
| 13> C 	 -108.037 	 71.3902 	 -12.001
| 14> H 	 -108.718 	 72.0982 	 -12.479
| 15> H 	 -107.791 	 70.6208 	 -12.7707
| 16> C 	 -106.879 	 72.1163 	 -11.3694
| 17> H 	 -107.332 	 73.1044 	 -10.9165
| 18> H 	 -106.466 	 71.4663 	 -10.5198
| 19> C 	 -105.799 	 72.5314 	 -12.4123
| 20> H 	 -106.104 	 73.2782 	 -13.1002
| 21> H 	 -105.011 	 73.1368 	 -11.9648
| 22> H 	 -105.39 	 71.6073 	 -12.9136
| 23> S 	 -108.645 	 66.5474 	 -9.22084
| 24> C 	 -109.414 	 65.0284 	 -8.88883
| 25> C 	 -110.682 	 65.0548 	 -9.41668
| 26> C 	 -111.025 	 66.2945 	 -10.0439
| 27> C 	 -110.063 	 67.2646 	 -9.96736
| 28> H 	 -111.298 	 64.2278 	 -9.24245
| 29> C 	 -112.39 	 66.5282 	 -10.6604
| 30> H 	 -112.552 	 65.9287 	 -11.485
| 31> H 	 -112.342 	 67.532 	 -11.1081
| 32> C 	 -113.645 	 66.475 	 -9.67346
| 33> H 	 -113.923 	 65.4393 	 -9.31415
| 34> H 	 -114.5 	 66.7803 	 -10.3601
| 35> C 	 -113.611 	 67.4766 	 -8.48141
| 36> H 	 -112.9 	 67.1454 	 -7.67988
| 37> H 	 -114.622 	 67.6781 	 -8.09627
| 38> H 	 -113.162 	 68.3785 	 -8.86009
| 39> H 	 -110.626 	 72.0764 	 -11.0442
| 40> H 	 -109.199 	 64.2571 	 -8.22423
| 41> *
| 42>
| 43>                          ****END OF INPUT****

CARTESIAN COORDINATES (ANGSTROEM)
---------------------------------
  S    -111.310000   69.841900  -10.012700
  C    -110.301000   71.113000  -10.705500
  C    -109.011000   70.680800  -11.051100
  C    -108.827000   69.315900  -10.622200
  C    -110.008000   68.700300  -10.217200
  H    -107.932000   68.738600  -10.653300
  C    -108.037000   71.390200  -12.001000
  H    -108.718000   72.098200  -12.479000
  H    -107.791000   70.620800  -12.770700
  C    -106.879000   72.116300  -11.369400
  H    -107.332000   73.104400  -10.916500
  H    -106.466000   71.466300  -10.519800
  C    -105.799000   72.531400  -12.412300
  H    -106.104000   73.278200  -13.100200
  H    -105.011000   73.136800  -11.964800
  H    -105.390000   71.607300  -12.913600
  S    -108.645000   66.547400   -9.220840
  C    -109.414000   65.028400   -8.888830
  C    -110.682000   65.054800   -9.416680
  C    -111.025000   66.294500  -10.043900
  C    -110.063000   67.264600   -9.967360
  H    -111.298000   64.227800   -9.242450
  C    -112.390000   66.528200  -10.660400
  H    -112.552000   65.928700  -11.485000
  H    -112.342000   67.532000  -11.108100
  C    -113.645000   66.475000   -9.673460
  H    -113.923000   65.439300   -9.314150
  H    -114.500000   66.780300  -10.360100
  C    -113.611000   67.476600   -8.481410
  H    -112.900000   67.145400   -7.679880
  H    -114.622000   67.678100   -8.096270
  H    -113.162000   68.378500   -8.860090
  H    -110.626000   72.076400  -11.044200
  H    -109.199000   64.257100   -8.224230

 Total Charge           Charge          ....    0
 Multiplicity           Mult            ....    1
 Number of Electrons    NEL             ....  134
 Basis Dimension        Dim             ....  322

ORBITAL ENERGIES
----------------

  NO   OCC          E(Eh)            E(eV)
   0   2.0000     -88.976691     -2421.1788
   1   2.0000     -88.962412     -2420.7903
   2   2.0000     -10.334067      -281.2043
   3   2.0000     -10.326930      -281.0100
   4   2.0000     -10.315382      -280.6958
   5   2.0000     -10.310890      -280.5736
   6   2.0000     -10.306725      -280.4602
   7   2.0000     -10.304249      -280.3929
   8   2.0000     -10.300078      -280.2794
   9   2.0000     -10.297732      -280.2155
  10   2.0000     -10.297159      -280.1999
  11   2.0000     -10.293336      -280.0959
  12   2.0000     -10.287112      -279.9266
  13   2.0000     -10.287017      -279.9240
  14   2.0000     -10.283225      -279.8208
  15   2.0000     -10.276913      -279.6490
  16   2.0000      -8.089775      -220.1340
  17   2.0000      -8.077324      -219.7952
  18   2.0000      -6.048485      -164.5876
  19   2.0000      -6.044551      -164.4806
  20   2.0000      -6.040392      -164.3674
  21   2.0000      -6.036006      -164.2481
  22   2.0000      -6.031732      -164.1318
  23   2.0000      -6.027949      -164.0288
  24   2.0000      -1.009374       -27.4665
  25   2.0000      -0.984839       -26.7988
  26   2.0000      -0.911774       -24.8106
  27   2.0000      -0.897831       -24.4312
  28   2.0000      -0.873123       -23.7589
  29   2.0000      -0.851113       -23.1600
  30   2.0000      -0.840889       -22.8817
  31   2.0000      -0.815414       -22.1885
  32   2.0000      -0.784932       -21.3591
  33   2.0000      -0.773308       -21.0428
  34   2.0000      -0.708951       -19.2915
  35   2.0000      -0.698005       -18.9937
  36   2.0000      -0.689930       -18.7739
  37   2.0000      -0.666171       -18.1274
  38   2.0000      -0.636210       -17.3122
  39   2.0000      -0.616305       -16.7705
  40   2.0000      -0.592273       -16.1166
  41   2.0000      -0.574196       -15.6247
  42   2.0000      -0.564604       -15.3637
  43   2.0000      -0.549078       -14.9412
  44   2.0000      -0.534986       -14.5577
  45   2.0000      -0.521471       -14.1899
  46   2.0000      -0.520153       -14.1541
  47   2.0000      -0.509711       -13.8699
  48   2.0000      -0.505515       -13.7558
  49   2.0000      -0.503660       -13.7053
  50   2.0000      -0.493567       -13.4306
  51   2.0000      -0.476318       -12.9613
  52   2.0000      -0.474340       -12.9074
  53   2.0000      -0.467356       -12.7174
  54   2.0000      -0.452902       -12.3241
  55   2.0000      -0.451514       -12.2863
  56   2.0000      -0.438991       -11.9455
  57   2.0000      -0.436474       -11.8771
  58   2.0000      -0.433692       -11.8014
  59   2.0000      -0.427230       -11.6255
  60   2.0000      -0.415771       -11.3137
  61   2.0000      -0.408854       -11.1255
  62   2.0000      -0.405168       -11.0252
  63   2.0000      -0.358124        -9.7451
  64   2.0000      -0.333089        -9.0638
  65   2.0000      -0.327618        -8.9149
  66   2.0000      -0.285738        -7.7753
  67   0.0000       0.023437         0.6377
  68   0.0000       0.075117         2.0440
  69   0.0000       0.100502         2.7348
  70   0.0000       0.110603         3.0097
  71   0.0000       0.133249         3.6259

MULLIKEN ATOMIC CHARGES
-----------------------
   0 S :    0.109327
   1 C :   -0.086170
   2 C :   -0.101226
   3 C :   -0.007447
   4 C :   -0.098654
   5 H :    0.012168
   6 C :    0.057066
   7 H :    0.015940
   8 H :    0.045541
   9 C :   -0.114366
  10 H :    0.044343
  11 H :    0.053825
  12 C :   -0.035408
  13 H :    0.022522
  14 H :    0.028687
  15 H :    0.048054
  16 S :    0.079232
  17 C :   -0.045211
  18 C :   -0.033560
  19 C :   -0.069131
  20 C :   -0.131376
  21 H :   -0.001267
  22 C :    0.087662
  23 H :    0.017133
  24 H :    0.011737
  25 C :   -0.124930
  26 H :    0.039670
  27 H :    0.037823
  28 C :   -0.041769
  29 H :    0.048130
  30 H :    0.045022
  31 H :    0.014228
  32 H :    0.035025
  33 H :    0.037380
Sum of atomic charges:   -0.0000000

LOEWDIN ATOMIC CHARGES
----------------------
   0 S :    0.427519
   1 C :   -0.200848
   2 C :   -0.052604
   3 C :   -0.064503
   4 C :   -0.188501
   5 H :    0.019970
   6 C :   -0.038111
   7 H :    0.030773
   8 H :    0.037662
   9 C :   -0.051150
  10 H :    0.037645
  11 H :    0.033235
  12 C :   -0.073886
  13 H :    0.022297
  14 H :    0.029080
  15 H :    0.033160
  16 S :    0.408253
  17 C :   -0.180650
  18 C :   -0.062367
  19 C :   -0.065966
  20 C :   -0.187426
  21 H :    0.022173
  22 C :   -0.031158
  23 H :    0.022636
  24 H :    0.023105
  25 C :   -0.045627
  26 H :    0.022385
  27 H :    0.030353
  28 C :   -0.073285
  29 H :    0.032817
  30 H :    0.030380
  31 H :    0.005618
  32 H :    0.021990
  33 H :    0.025032

  Mayer bond orders larger than 0.100000
B(  0-S ,  1-C ) :   1.1204 B(  0-S ,  4-C ) :   1.1347 B(  1-C ,  2-C ) :   1.6409
B(  1-C , 32-H ) :   0.9591 B(  2-C ,  3-C ) :   1.2328 B(  2-C ,  6-C ) :   1.0052
B(  3-C ,  4-C ) :   1.5588 B(  3-C ,  5-H ) :   0.9925 B(  4-C , 20-C ) :   1.0670
B(  6-C ,  7-H ) :   0.9377 B(  6-C ,  8-H ) :   0.9491 B(  6-C ,  9-C ) :   1.0491
B(  9-C , 10-H ) :   0.9506 B(  9-C , 11-H ) :   0.9630 B(  9-C , 12-C ) :   1.0761
B( 12-C , 13-H ) :   0.9714 B( 12-C , 14-H ) :   0.9715 B( 12-C , 15-H ) :   0.9752
B( 16-S , 17-C ) :   1.1470 B( 16-S , 20-C ) :   1.1242 B( 17-C , 18-C ) :   1.6273
B( 17-C , 33-H ) :   0.9707 B( 18-C , 19-C ) :   1.2200 B( 18-C , 21-H ) :   1.0016
B( 19-C , 20-C ) :   1.6009 B( 19-C , 22-C ) :   1.0468 B( 22-C , 23-H ) :   0.9319
B( 22-C , 24-H ) :   0.9316 B( 22-C , 25-C ) :   1.0598 B( 25-C , 26-H ) :   0.9594
B( 25-C , 27-H ) :   0.9574 B( 25-C , 28-C ) :   1.0629 B( 28-C , 29-H ) :   0.9719
B( 28-C , 30-H ) :   0.9735 B( 28-C , 31-H ) :   0.9735

Dispersion correction           -0.014508581
FINAL SINGLE POINT ENERGY     -1339.861450739123

DIPOLE MOMENT
-------------
                                X             Y             Z
Electronic contribution:      0.17002      -9.57048       6.28451
Nuclear contribution   :     -0.23198       9.68501      -6.56716
                        -----------------------------------------
Total Dipole Moment    :     -0.06196       0.11453      -0.28266
                        -----------------------------------------
Magnitude (a.u.)       :      0.31121
Magnitude (Debye)      :      0.79103

Rotational constants in cm-1:     0.024163     0.007636     0.006167
Rotational constants in MHz :   724.402168   228.912756   184.873909

                             ****ORCA TERMINATED NORMALLY****
TOTAL RUN TIME: 0 days 0 hours 0 minutes 20 seconds 236 msec
