                         Program Version 4.2.1 -  RELEASE  -
|  1> ! wB97X-D3 SP def2-SVP
|  2> %pal
|  3> nprocs 24
|  4> end
|  5>
|  6> * xyz 0 1
|  7> S 	 -57.2857 	 10.5067 	 -91.1842
|  8> C 	 -56.374 	 9.22576 	 -91.9102
|  9> C 	 -55.2628 	 9.70407 	 -92.6031
| 10> C 	 -55.2276 	 11.098 	 -92.6614
| 11> C 	 -56.223 	 11.7356 	 -91.9508
| 12> H 	 -54.5419 	 11.7613 	 -93.1769
| 13> C 	 -54.3338 	 8.88942 	 -93.4271
| 14> H 	 -53.9503 	 9.37054 	 -94.31
| 15> H 	 -54.885 	 8.02182 	 -93.7001
| 16> C 	 -53.0743 	 8.24992 	 -92.7236
| 17> H 	 -52.4829 	 9.00464 	 -92.1388
| 18> H 	 -53.3557 	 7.47083 	 -92.0827
| 19> C 	 -52.2207 	 7.54801 	 -93.7695
| 20> H 	 -51.58 	 8.19093 	 -94.3046
| 21> H 	 -51.5265 	 6.82649 	 -93.2461
| 22> H 	 -52.9015 	 7.00108 	 -94.4003
| 23> S 	 -57.4392 	 13.6028 	 -90.3257
| 24> C 	 -57.4077 	 15.2973 	 -90.7527
| 25> C 	 -56.7574 	 15.5341 	 -91.9811
| 26> C 	 -56.1626 	 14.3182 	 -92.5081
| 27> C 	 -56.4794 	 13.1796 	 -91.7599
| 28> H 	 -56.7645 	 16.4642 	 -92.4682
| 29> C 	 -55.6744 	 14.3251 	 -93.9424
| 30> H 	 -56.0964 	 15.2558 	 -94.4004
| 31> H 	 -56.1551 	 13.5784 	 -94.4737
| 32> C 	 -54.1443 	 14.5809 	 -94.0441
| 33> H 	 -53.5825 	 13.7359 	 -93.6978
| 34> H 	 -53.9862 	 15.4286 	 -93.3514
| 35> C 	 -53.6612 	 15.1271 	 -95.3949
| 36> H 	 -54.4093 	 15.8215 	 -95.8934
| 37> H 	 -53.4051 	 14.4334 	 -96.2351
| 38> H 	 -52.6928 	 15.6676 	 -95.3332
| 39> H 	 -56.6302 	 8.18469 	 -91.889
| 40> H 	 -57.9831 	 16.0346 	 -90.1979
| 41> *
| 42>
| 43>                          ****END OF INPUT****

CARTESIAN COORDINATES (ANGSTROEM)
---------------------------------
  S    -57.285700   10.506700  -91.184200
  C    -56.374000    9.225760  -91.910200
  C    -55.262800    9.704070  -92.603100
  C    -55.227600   11.098000  -92.661400
  C    -56.223000   11.735600  -91.950800
  H    -54.541900   11.761300  -93.176900
  C    -54.333800    8.889420  -93.427100
  H    -53.950300    9.370540  -94.310000
  H    -54.885000    8.021820  -93.700100
  C    -53.074300    8.249920  -92.723600
  H    -52.482900    9.004640  -92.138800
  H    -53.355700    7.470830  -92.082700
  C    -52.220700    7.548010  -93.769500
  H    -51.580000    8.190930  -94.304600
  H    -51.526500    6.826490  -93.246100
  H    -52.901500    7.001080  -94.400300
  S    -57.439200   13.602800  -90.325700
  C    -57.407700   15.297300  -90.752700
  C    -56.757400   15.534100  -91.981100
  C    -56.162600   14.318200  -92.508100
  C    -56.479400   13.179600  -91.759900
  H    -56.764500   16.464200  -92.468200
  C    -55.674400   14.325100  -93.942400
  H    -56.096400   15.255800  -94.400400
  H    -56.155100   13.578400  -94.473700
  C    -54.144300   14.580900  -94.044100
  H    -53.582500   13.735900  -93.697800
  H    -53.986200   15.428600  -93.351400
  C    -53.661200   15.127100  -95.394900
  H    -54.409300   15.821500  -95.893400
  H    -53.405100   14.433400  -96.235100
  H    -52.692800   15.667600  -95.333200
  H    -56.630200    8.184690  -91.889000
  H    -57.983100   16.034600  -90.197900

 Total Charge           Charge          ....    0
 Multiplicity           Mult            ....    1
 Number of Electrons    NEL             ....  134
 Basis Dimension        Dim             ....  322

ORBITAL ENERGIES
----------------

  NO   OCC          E(Eh)            E(eV)
   0   2.0000     -88.969171     -2420.9742
   1   2.0000     -88.968068     -2420.9442
   2   2.0000     -10.334495      -281.2159
   3   2.0000     -10.334276      -281.2099
   4   2.0000     -10.321958      -280.8747
   5   2.0000     -10.314265      -280.6654
   6   2.0000     -10.306623      -280.4575
   7   2.0000     -10.298712      -280.2422
   8   2.0000     -10.298600      -280.2391
   9   2.0000     -10.293988      -280.1137
  10   2.0000     -10.291331      -280.0414
  11   2.0000     -10.291250      -280.0391
  12   2.0000     -10.288625      -279.9677
  13   2.0000     -10.287310      -279.9319
  14   2.0000     -10.283839      -279.8375
  15   2.0000     -10.276127      -279.6276
  16   2.0000      -8.083267      -219.9569
  17   2.0000      -8.082407      -219.9335
  18   2.0000      -6.041886      -164.4081
  19   2.0000      -6.040974      -164.3833
  20   2.0000      -6.037842      -164.2980
  21   2.0000      -6.036990      -164.2748
  22   2.0000      -6.033993      -164.1933
  23   2.0000      -6.033134      -164.1699
  24   2.0000      -1.003805       -27.3149
  25   2.0000      -0.981735       -26.7144
  26   2.0000      -0.912862       -24.8402
  27   2.0000      -0.909093       -24.7377
  28   2.0000      -0.867810       -23.6143
  29   2.0000      -0.856321       -23.3017
  30   2.0000      -0.848066       -23.0771
  31   2.0000      -0.815425       -22.1889
  32   2.0000      -0.780917       -21.2498
  33   2.0000      -0.767817       -20.8934
  34   2.0000      -0.707428       -19.2501
  35   2.0000      -0.699745       -19.0410
  36   2.0000      -0.695189       -18.9171
  37   2.0000      -0.671276       -18.2664
  38   2.0000      -0.644840       -17.5470
  39   2.0000      -0.621329       -16.9072
  40   2.0000      -0.595560       -16.2060
  41   2.0000      -0.575200       -15.6520
  42   2.0000      -0.570153       -15.5146
  43   2.0000      -0.562177       -15.2976
  44   2.0000      -0.528158       -14.3719
  45   2.0000      -0.524716       -14.2783
  46   2.0000      -0.515507       -14.0277
  47   2.0000      -0.510730       -13.8977
  48   2.0000      -0.500931       -13.6310
  49   2.0000      -0.499259       -13.5855
  50   2.0000      -0.497883       -13.5481
  51   2.0000      -0.479480       -13.0473
  52   2.0000      -0.469812       -12.7842
  53   2.0000      -0.465079       -12.6554
  54   2.0000      -0.457567       -12.4510
  55   2.0000      -0.455346       -12.3906
  56   2.0000      -0.443475       -12.0676
  57   2.0000      -0.432208       -11.7610
  58   2.0000      -0.430567       -11.7163
  59   2.0000      -0.427611       -11.6359
  60   2.0000      -0.425013       -11.5652
  61   2.0000      -0.418494       -11.3878
  62   2.0000      -0.416629       -11.3371
  63   2.0000      -0.359451        -9.7812
  64   2.0000      -0.335408        -9.1269
  65   2.0000      -0.329604        -8.9690
  66   2.0000      -0.280204        -7.6247
  67   0.0000       0.018775         0.5109
  68   0.0000       0.072651         1.9769
  69   0.0000       0.097652         2.6573
  70   0.0000       0.117238         3.1902
  71   0.0000       0.129542         3.5250

MULLIKEN ATOMIC CHARGES
-----------------------
   0 S :    0.102879
   1 C :   -0.103673
   2 C :   -0.038754
   3 C :    0.009287
   4 C :   -0.119657
   5 H :   -0.012722
   6 C :    0.054291
   7 H :    0.024867
   8 H :    0.008805
   9 C :   -0.072534
  10 H :    0.036759
  11 H :    0.016389
  12 C :   -0.043752
  13 H :    0.027252
  14 H :    0.035754
  15 H :    0.024593
  16 S :    0.094521
  17 C :   -0.091899
  18 C :   -0.012083
  19 C :   -0.063639
  20 C :   -0.120646
  21 H :    0.009883
  22 C :    0.044249
  23 H :    0.011416
  24 H :    0.026427
  25 C :   -0.042532
  26 H :    0.040847
  27 H :    0.035325
  28 C :   -0.093196
  29 H :    0.034521
  30 H :    0.033087
  31 H :    0.038942
  32 H :    0.041104
  33 H :    0.063890
Sum of atomic charges:    0.0000000

LOEWDIN ATOMIC CHARGES
----------------------
   0 S :    0.393596
   1 C :   -0.196396
   2 C :   -0.064929
   3 C :   -0.064234
   4 C :   -0.173123
   5 H :    0.031793
   6 C :   -0.029346
   7 H :    0.028873
   8 H :    0.027486
   9 C :   -0.034062
  10 H :    0.025679
  11 H :    0.014729
  12 C :   -0.061356
  13 H :    0.015955
  14 H :    0.033221
  15 H :    0.022022
  16 S :    0.395171
  17 C :   -0.185099
  18 C :   -0.060090
  19 C :   -0.059703
  20 C :   -0.183388
  21 H :    0.024325
  22 C :   -0.027659
  23 H :    0.034759
  24 H :    0.020153
  25 C :   -0.037576
  26 H :    0.018404
  27 H :    0.034997
  28 C :   -0.085960
  29 H :    0.029931
  30 H :    0.026489
  31 H :    0.029899
  32 H :    0.026427
  33 H :    0.029015

  Mayer bond orders larger than 0.100000
B(  0-S ,  1-C ) :   1.1440 B(  0-S ,  4-C ) :   1.1370 B(  1-C ,  2-C ) :   1.5894
B(  1-C ,  4-C ) :   0.1034 B(  1-C , 32-H ) :   0.9678 B(  2-C ,  3-C ) :   1.2451
B(  2-C ,  6-C ) :   1.0339 B(  3-C ,  4-C ) :   1.5762 B(  3-C ,  5-H ) :   0.9956
B(  4-C , 20-C ) :   1.0614 B(  6-C ,  7-H ) :   0.9542 B(  6-C ,  8-H ) :   0.9282
B(  6-C ,  9-C ) :   1.0590 B(  9-C , 10-H ) :   0.9584 B(  9-C , 11-H ) :   0.9578
B(  9-C , 12-C ) :   1.0806 B( 12-C , 13-H ) :   0.9772 B( 12-C , 14-H ) :   0.9752
B( 12-C , 15-H ) :   0.9707 B( 16-S , 17-C ) :   1.1588 B( 16-S , 20-C ) :   1.1305
B( 17-C , 18-C ) :   1.5983 B( 17-C , 33-H ) :   0.9670 B( 18-C , 19-C ) :   1.2445
B( 18-C , 21-H ) :   0.9926 B( 19-C , 20-C ) :   1.5886 B( 19-C , 22-C ) :   1.0403
B( 22-C , 23-H ) :   0.9401 B( 22-C , 24-H ) :   0.9507 B( 22-C , 25-C ) :   1.0374
B( 25-C , 26-H ) :   0.9561 B( 25-C , 27-H ) :   0.9536 B( 25-C , 28-C ) :   1.0697
B( 28-C , 29-H ) :   0.9729 B( 28-C , 30-H ) :   0.9747 B( 28-C , 31-H ) :   0.9770

Dispersion correction           -0.013316447
FINAL SINGLE POINT ENERGY     -1339.869926220793

DIPOLE MOMENT
-------------
                                X             Y             Z
Electronic contribution:    -23.81780       4.21720      21.13965
Nuclear contribution   :     24.11859      -4.15752     -21.71522
                        -----------------------------------------
Total Dipole Moment    :      0.30079       0.05968      -0.57557
                        -----------------------------------------
Magnitude (a.u.)       :      0.65216
Magnitude (Debye)      :      1.65766

Rotational constants in cm-1:     0.017073     0.008614     0.005999
Rotational constants in MHz :   511.830175   258.239494   179.855343

                             ****ORCA TERMINATED NORMALLY****
TOTAL RUN TIME: 0 days 0 hours 0 minutes 20 seconds 40 msec
