                         Program Version 4.2.1 -  RELEASE  -
|  1> ! wB97X-D3 SP def2-SVP
|  2> %pal
|  3> nprocs 24
|  4> end
|  5>
|  6> * xyz 0 1
|  7> S 	 26.6993 	 -30.4144 	 -131.295
|  8> C 	 25.3693 	 -29.3084 	 -131.488
|  9> C 	 25.7246 	 -27.9362 	 -131.361
| 10> C 	 27.1619 	 -27.8395 	 -131.118
| 11> C 	 27.8127 	 -29.0557 	 -131.037
| 12> H 	 27.6779 	 -26.9605 	 -130.823
| 13> C 	 24.7877 	 -26.7403 	 -131.32
| 14> H 	 25.2447 	 -25.9753 	 -130.723
| 15> H 	 23.8632 	 -27.0157 	 -130.792
| 16> C 	 24.3714 	 -26.2746 	 -132.702
| 17> H 	 25.2363 	 -25.9763 	 -133.344
| 18> H 	 24.0163 	 -27.1601 	 -133.219
| 19> C 	 23.4664 	 -25.0007 	 -132.765
| 20> H 	 24.0158 	 -24.1378 	 -132.394
| 21> H 	 23.1146 	 -24.8575 	 -133.781
| 22> H 	 22.626 	 -25.268 	 -132.117
| 23> S 	 29.1092 	 -29.9361 	 -128.842
| 24> C 	 30.7863 	 -29.599 	 -128.591
| 25> C 	 31.2792 	 -28.82 	 -129.659
| 26> C 	 30.3873 	 -28.5944 	 -130.752
| 27> C 	 29.135 	 -29.2074 	 -130.463
| 28> H 	 32.2478 	 -28.4971 	 -129.586
| 29> C 	 30.7427 	 -27.8236 	 -132.021
| 30> H 	 30.8641 	 -26.8116 	 -131.728
| 31> H 	 29.8625 	 -27.6925 	 -132.664
| 32> C 	 31.7199 	 -28.4045 	 -133.002
| 33> H 	 31.3439 	 -29.3884 	 -133.143
| 34> H 	 32.6766 	 -28.4123 	 -132.493
| 35> C 	 31.8796 	 -27.5749 	 -134.296
| 36> H 	 30.954 	 -27.4058 	 -134.931
| 37> H 	 32.74 	 -27.7386 	 -134.877
| 38> H 	 32.0552 	 -26.5004 	 -133.874
| 39> H 	 24.3545 	 -29.6321 	 -131.457
| 40> H 	 31.343 	 -30.0935 	 -127.83
| 41> *
| 42>
| 43>                          ****END OF INPUT****

CARTESIAN COORDINATES (ANGSTROEM)
---------------------------------
  S     26.699300  -30.414400  -131.295000
  C     25.369300  -29.308400  -131.488000
  C     25.724600  -27.936200  -131.361000
  C     27.161900  -27.839500  -131.118000
  C     27.812700  -29.055700  -131.037000
  H     27.677900  -26.960500  -130.823000
  C     24.787700  -26.740300  -131.320000
  H     25.244700  -25.975300  -130.723000
  H     23.863200  -27.015700  -130.792000
  C     24.371400  -26.274600  -132.702000
  H     25.236300  -25.976300  -133.344000
  H     24.016300  -27.160100  -133.219000
  C     23.466400  -25.000700  -132.765000
  H     24.015800  -24.137800  -132.394000
  H     23.114600  -24.857500  -133.781000
  H     22.626000  -25.268000  -132.117000
  S     29.109200  -29.936100  -128.842000
  C     30.786300  -29.599000  -128.591000
  C     31.279200  -28.820000  -129.659000
  C     30.387300  -28.594400  -130.752000
  C     29.135000  -29.207400  -130.463000
  H     32.247800  -28.497100  -129.586000
  C     30.742700  -27.823600  -132.021000
  H     30.864100  -26.811600  -131.728000
  H     29.862500  -27.692500  -132.664000
  C     31.719900  -28.404500  -133.002000
  H     31.343900  -29.388400  -133.143000
  H     32.676600  -28.412300  -132.493000
  C     31.879600  -27.574900  -134.296000
  H     30.954000  -27.405800  -134.931000
  H     32.740000  -27.738600  -134.877000
  H     32.055200  -26.500400  -133.874000
  H     24.354500  -29.632100  -131.457000
  H     31.343000  -30.093500  -127.830000

 Total Charge           Charge          ....    0
 Multiplicity           Mult            ....    1
 Number of Electrons    NEL             ....  134
 Basis Dimension        Dim             ....  322

ORBITAL ENERGIES
----------------

  NO   OCC          E(Eh)            E(eV)
   0   2.0000     -88.969319     -2420.9783
   1   2.0000     -88.963009     -2420.8066
   2   2.0000     -10.329353      -281.0760
   3   2.0000     -10.327487      -281.0252
   4   2.0000     -10.316840      -280.7355
   5   2.0000     -10.316215      -280.7185
   6   2.0000     -10.311088      -280.5790
   7   2.0000     -10.309659      -280.5401
   8   2.0000     -10.295267      -280.1485
   9   2.0000     -10.294244      -280.1206
  10   2.0000     -10.291265      -280.0395
  11   2.0000     -10.288757      -279.9713
  12   2.0000     -10.286912      -279.9211
  13   2.0000     -10.286427      -279.9079
  14   2.0000     -10.284279      -279.8495
  15   2.0000     -10.281762      -279.7810
  16   2.0000      -8.083590      -219.9657
  17   2.0000      -8.077881      -219.8103
  18   2.0000      -6.042103      -164.4140
  19   2.0000      -6.038163      -164.3068
  20   2.0000      -6.036238      -164.2544
  21   2.0000      -6.034386      -164.2040
  22   2.0000      -6.032264      -164.1463
  23   2.0000      -6.028879      -164.0541
  24   2.0000      -1.000756       -27.2320
  25   2.0000      -0.976309       -26.5667
  26   2.0000      -0.914122       -24.8745
  27   2.0000      -0.911061       -24.7912
  28   2.0000      -0.866494       -23.5785
  29   2.0000      -0.851316       -23.1655
  30   2.0000      -0.846176       -23.0256
  31   2.0000      -0.809388       -22.0246
  32   2.0000      -0.783748       -21.3269
  33   2.0000      -0.770462       -20.9653
  34   2.0000      -0.706233       -19.2176
  35   2.0000      -0.699257       -19.0277
  36   2.0000      -0.694206       -18.8903
  37   2.0000      -0.662189       -18.0191
  38   2.0000      -0.645988       -17.5782
  39   2.0000      -0.618474       -16.8295
  40   2.0000      -0.600788       -16.3483
  41   2.0000      -0.571944       -15.5634
  42   2.0000      -0.567868       -15.4525
  43   2.0000      -0.556658       -15.1474
  44   2.0000      -0.527297       -14.3485
  45   2.0000      -0.525064       -14.2877
  46   2.0000      -0.522224       -14.2104
  47   2.0000      -0.507755       -13.8167
  48   2.0000      -0.502030       -13.6609
  49   2.0000      -0.498965       -13.5775
  50   2.0000      -0.496919       -13.5219
  51   2.0000      -0.479239       -13.0408
  52   2.0000      -0.469628       -12.7792
  53   2.0000      -0.463649       -12.6165
  54   2.0000      -0.457528       -12.4500
  55   2.0000      -0.451278       -12.2799
  56   2.0000      -0.447824       -12.1859
  57   2.0000      -0.439822       -11.9682
  58   2.0000      -0.429224       -11.6798
  59   2.0000      -0.427144       -11.6232
  60   2.0000      -0.421758       -11.4766
  61   2.0000      -0.410394       -11.1674
  62   2.0000      -0.406782       -11.0691
  63   2.0000      -0.342215        -9.3121
  64   2.0000      -0.331043        -9.0081
  65   2.0000      -0.323677        -8.8077
  66   2.0000      -0.293519        -7.9871
  67   0.0000       0.025988         0.7072
  68   0.0000       0.064268         1.7488
  69   0.0000       0.114439         3.1141
  70   0.0000       0.118122         3.2143
  71   0.0000       0.124517         3.3883

MULLIKEN ATOMIC CHARGES
-----------------------
   0 S :    0.114591
   1 C :   -0.105360
   2 C :   -0.116762
   3 C :    0.063377
   4 C :   -0.166739
   5 H :    0.006236
   6 C :    0.094214
   7 H :    0.015770
   8 H :    0.025570
   9 C :   -0.119224
  10 H :    0.026514
  11 H :    0.024577
  12 C :   -0.020388
  13 H :    0.041007
  14 H :    0.041208
  15 H :    0.026162
  16 S :    0.104727
  17 C :   -0.094661
  18 C :   -0.014910
  19 C :   -0.020853
  20 C :   -0.166080
  21 H :   -0.015566
  22 C :    0.050075
  23 H :    0.016068
  24 H :    0.009383
  25 C :   -0.012752
  26 H :    0.031903
  27 H :    0.025083
  28 C :   -0.076468
  29 H :    0.050158
  30 H :    0.036825
  31 H :    0.022379
  32 H :    0.044378
  33 H :    0.059558
Sum of atomic charges:   -0.0000000

LOEWDIN ATOMIC CHARGES
----------------------
   0 S :    0.402295
   1 C :   -0.198012
   2 C :   -0.052424
   3 C :   -0.046514
   4 C :   -0.202485
   5 H :    0.026780
   6 C :   -0.031892
   7 H :    0.026358
   8 H :    0.032990
   9 C :   -0.048624
  10 H :    0.024713
  11 H :    0.021719
  12 C :   -0.060089
  13 H :    0.027201
  14 H :    0.028576
  15 H :    0.022955
  16 S :    0.411137
  17 C :   -0.190324
  18 C :   -0.060228
  19 C :   -0.049423
  20 C :   -0.190645
  21 H :    0.013565
  22 C :   -0.039305
  23 H :    0.024329
  24 H :    0.032572
  25 C :   -0.033805
  26 H :    0.024156
  27 H :    0.023157
  28 C :   -0.072686
  29 H :    0.033379
  30 H :    0.019988
  31 H :    0.034835
  32 H :    0.020887
  33 H :    0.024866

  Mayer bond orders larger than 0.100000
B(  0-S ,  1-C ) :   1.1502 B(  0-S ,  4-C ) :   1.1362 B(  1-C ,  2-C ) :   1.6031
B(  1-C , 32-H ) :   0.9673 B(  2-C ,  3-C ) :   1.2433 B(  2-C ,  6-C ) :   1.0290
B(  3-C ,  4-C ) :   1.5827 B(  3-C ,  5-H ) :   0.9914 B(  4-C , 20-C ) :   1.0333
B(  6-C ,  7-H ) :   0.9403 B(  6-C ,  8-H ) :   0.9363 B(  6-C ,  9-C ) :   1.0571
B(  9-C , 10-H ) :   0.9571 B(  9-C , 11-H ) :   0.9577 B(  9-C , 12-C ) :   1.0688
B( 12-C , 13-H ) :   0.9757 B( 12-C , 14-H ) :   0.9749 B( 12-C , 15-H ) :   0.9771
B( 16-S , 17-C ) :   1.1691 B( 16-S , 20-C ) :   1.1662 B( 17-C , 18-C ) :   1.5655
B( 17-C , 20-C ) :   0.1103 B( 17-C , 33-H ) :   0.9737 B( 18-C , 19-C ) :   1.2586
B( 18-C , 21-H ) :   1.0065 B( 19-C , 20-C ) :   1.5485 B( 19-C , 22-C ) :   1.0440
B( 22-C , 23-H ) :   0.9250 B( 22-C , 24-H ) :   0.9331 B( 22-C , 25-C ) :   1.0543
B( 25-C , 26-H ) :   0.9530 B( 25-C , 27-H ) :   0.9549 B( 25-C , 28-C ) :   1.0763
B( 28-C , 29-H ) :   0.9741 B( 28-C , 30-H ) :   0.9759 B( 28-C , 31-H ) :   0.9707

Dispersion correction           -0.013366600
FINAL SINGLE POINT ENERGY     -1339.862278762172

DIPOLE MOMENT
-------------
                                X             Y             Z
Electronic contribution:      1.52454     -21.66509      17.65101
Nuclear contribution   :     -1.49417      22.24495     -17.71518
                        -----------------------------------------
Total Dipole Moment    :      0.03038       0.57986      -0.06417
                        -----------------------------------------
Magnitude (a.u.)       :      0.58419
Magnitude (Debye)      :      1.48489

Rotational constants in cm-1:     0.016908     0.007847     0.006223
Rotational constants in MHz :   506.893291   235.260439   186.564015

                             ****ORCA TERMINATED NORMALLY****
TOTAL RUN TIME: 0 days 0 hours 0 minutes 20 seconds 562 msec
