                         Program Version 4.2.1 -  RELEASE  -
|  1> ! wB97X-D3 SP def2-SVP
|  2> %pal
|  3> nprocs 24
|  4> end
|  5>
|  6> * xyz 0 1
|  7> S 	 -122.066 	 64.6029 	 -35.146
|  8> C 	 -121.061 	 65.7071 	 -34.3156
|  9> C 	 -121.35 	 67.0064 	 -34.6727
| 10> C 	 -122.542 	 67.0948 	 -35.5424
| 11> C 	 -123.011 	 65.86 	 -35.9801
| 12> H 	 -123.149 	 67.9995 	 -35.7481
| 13> C 	 -120.634 	 68.2014 	 -34.1505
| 14> H 	 -120.757 	 69.0759 	 -34.7749
| 15> H 	 -119.613 	 67.9497 	 -34.1532
| 16> C 	 -121.016 	 68.7072 	 -32.7651
| 17> H 	 -120.703 	 69.6967 	 -32.5889
| 18> H 	 -122.105 	 68.6657 	 -32.6722
| 19> C 	 -120.351 	 67.8413 	 -31.7
| 20> H 	 -120.788 	 66.7958 	 -31.6897
| 21> H 	 -119.288 	 67.8083 	 -31.8338
| 22> H 	 -120.653 	 68.2732 	 -30.7531
| 23> S 	 -123.74 	 66.0123 	 -38.5481
| 24> C 	 -125.223 	 65.3155 	 -39.1192
| 25> C 	 -125.794 	 64.5186 	 -38.1634
| 26> C 	 -125.131 	 64.5986 	 -36.8842
| 27> C 	 -124.042 	 65.456 	 -36.9698
| 28> H 	 -126.712 	 63.9054 	 -38.321
| 29> C 	 -125.517 	 63.7694 	 -35.6518
| 30> H 	 -126.601 	 63.6993 	 -35.6261
| 31> H 	 -125.159 	 64.251 	 -34.7257
| 32> C 	 -125.042 	 62.3675 	 -35.7487
| 33> H 	 -123.985 	 62.4774 	 -35.9194
| 34> H 	 -125.509 	 61.9453 	 -36.5856
| 35> C 	 -125.236 	 61.4926 	 -34.4873
| 36> H 	 -126.266 	 61.3633 	 -34.2063
| 37> H 	 -124.705 	 61.7272 	 -33.4934
| 38> H 	 -124.78 	 60.516 	 -34.6384
| 39> H 	 -120.275 	 65.5276 	 -33.6083
| 40> H 	 -125.778 	 65.4046 	 -40.0501
| 41> *
| 42>
| 43>                          ****END OF INPUT****

CARTESIAN COORDINATES (ANGSTROEM)
---------------------------------
  S    -122.066000   64.602900  -35.146000
  C    -121.061000   65.707100  -34.315600
  C    -121.350000   67.006400  -34.672700
  C    -122.542000   67.094800  -35.542400
  C    -123.011000   65.860000  -35.980100
  H    -123.149000   67.999500  -35.748100
  C    -120.634000   68.201400  -34.150500
  H    -120.757000   69.075900  -34.774900
  H    -119.613000   67.949700  -34.153200
  C    -121.016000   68.707200  -32.765100
  H    -120.703000   69.696700  -32.588900
  H    -122.105000   68.665700  -32.672200
  C    -120.351000   67.841300  -31.700000
  H    -120.788000   66.795800  -31.689700
  H    -119.288000   67.808300  -31.833800
  H    -120.653000   68.273200  -30.753100
  S    -123.740000   66.012300  -38.548100
  C    -125.223000   65.315500  -39.119200
  C    -125.794000   64.518600  -38.163400
  C    -125.131000   64.598600  -36.884200
  C    -124.042000   65.456000  -36.969800
  H    -126.712000   63.905400  -38.321000
  C    -125.517000   63.769400  -35.651800
  H    -126.601000   63.699300  -35.626100
  H    -125.159000   64.251000  -34.725700
  C    -125.042000   62.367500  -35.748700
  H    -123.985000   62.477400  -35.919400
  H    -125.509000   61.945300  -36.585600
  C    -125.236000   61.492600  -34.487300
  H    -126.266000   61.363300  -34.206300
  H    -124.705000   61.727200  -33.493400
  H    -124.780000   60.516000  -34.638400
  H    -120.275000   65.527600  -33.608300
  H    -125.778000   65.404600  -40.050100

 Total Charge           Charge          ....    0
 Multiplicity           Mult            ....    1
 Number of Electrons    NEL             ....  134
 Basis Dimension        Dim             ....  322

ORBITAL ENERGIES
----------------

  NO   OCC          E(Eh)            E(eV)
   0   2.0000     -88.968541     -2420.9571
   1   2.0000     -88.963851     -2420.8295
   2   2.0000     -10.334972      -281.2289
   3   2.0000     -10.325639      -280.9749
   4   2.0000     -10.314784      -280.6795
   5   2.0000     -10.312000      -280.6038
   6   2.0000     -10.303807      -280.3808
   7   2.0000     -10.303345      -280.3683
   8   2.0000     -10.302405      -280.3427
   9   2.0000     -10.296275      -280.1759
  10   2.0000     -10.286601      -279.9126
  11   2.0000     -10.281177      -279.7650
  12   2.0000     -10.280121      -279.7363
  13   2.0000     -10.279612      -279.7225
  14   2.0000     -10.277342      -279.6607
  15   2.0000     -10.276088      -279.6266
  16   2.0000      -8.084083      -219.9791
  17   2.0000      -8.078446      -219.8257
  18   2.0000      -6.042611      -164.4278
  19   2.0000      -6.038426      -164.3139
  20   2.0000      -6.036954      -164.2739
  21   2.0000      -6.034804      -164.2154
  22   2.0000      -6.032862      -164.1625
  23   2.0000      -6.029324      -164.0663
  24   2.0000      -1.010139       -27.4873
  25   2.0000      -0.987049       -26.8590
  26   2.0000      -0.918128       -24.9835
  27   2.0000      -0.914558       -24.8864
  28   2.0000      -0.870777       -23.6950
  29   2.0000      -0.847896       -23.0724
  30   2.0000      -0.842817       -22.9342
  31   2.0000      -0.817244       -22.2384
  32   2.0000      -0.782869       -21.3030
  33   2.0000      -0.773614       -21.0511
  34   2.0000      -0.708178       -19.2705
  35   2.0000      -0.696190       -18.9443
  36   2.0000      -0.690539       -18.7905
  37   2.0000      -0.663222       -18.0472
  38   2.0000      -0.639250       -17.3949
  39   2.0000      -0.615760       -16.7557
  40   2.0000      -0.595794       -16.2124
  41   2.0000      -0.578714       -15.7476
  42   2.0000      -0.572676       -15.5833
  43   2.0000      -0.547749       -14.9050
  44   2.0000      -0.544162       -14.8074
  45   2.0000      -0.525378       -14.2963
  46   2.0000      -0.519571       -14.1382
  47   2.0000      -0.515019       -14.0144
  48   2.0000      -0.503127       -13.6908
  49   2.0000      -0.500126       -13.6091
  50   2.0000      -0.484717       -13.1898
  51   2.0000      -0.480549       -13.0764
  52   2.0000      -0.474672       -12.9165
  53   2.0000      -0.467999       -12.7349
  54   2.0000      -0.462357       -12.5814
  55   2.0000      -0.445121       -12.1124
  56   2.0000      -0.441430       -12.0119
  57   2.0000      -0.434404       -11.8207
  58   2.0000      -0.430455       -11.7133
  59   2.0000      -0.426738       -11.6121
  60   2.0000      -0.418818       -11.3966
  61   2.0000      -0.415646       -11.3103
  62   2.0000      -0.410642       -11.1741
  63   2.0000      -0.342846        -9.3293
  64   2.0000      -0.334197        -9.0940
  65   2.0000      -0.321198        -8.7402
  66   2.0000      -0.301472        -8.2035
  67   0.0000       0.033891         0.9222
  68   0.0000       0.072562         1.9745
  69   0.0000       0.113488         3.0882
  70   0.0000       0.117089         3.1861
  71   0.0000       0.125181         3.4064

MULLIKEN ATOMIC CHARGES
-----------------------
   0 S :    0.098468
   1 C :   -0.080148
   2 C :   -0.132587
   3 C :    0.025060
   4 C :   -0.160185
   5 H :    0.034891
   6 C :    0.085413
   7 H :    0.018096
   8 H :    0.008566
   9 C :   -0.043029
  10 H :    0.019680
  11 H :    0.028058
  12 C :   -0.071812
  13 H :    0.039024
  14 H :    0.030711
  15 H :    0.028935
  16 S :    0.142342
  17 C :   -0.079525
  18 C :   -0.064342
  19 C :   -0.043759
  20 C :   -0.172557
  21 H :    0.032758
  22 C :    0.079170
  23 H :    0.010403
  24 H :    0.031426
  25 C :   -0.029635
  26 H :    0.019782
  27 H :    0.013396
  28 C :   -0.058004
  29 H :    0.025970
  30 H :    0.036267
  31 H :    0.029864
  32 H :    0.042624
  33 H :    0.054682
Sum of atomic charges:   -0.0000000

LOEWDIN ATOMIC CHARGES
----------------------
   0 S :    0.412765
   1 C :   -0.205785
   2 C :   -0.062906
   3 C :   -0.065742
   4 C :   -0.189904
   5 H :    0.039568
   6 C :   -0.034009
   7 H :    0.031553
   8 H :    0.023815
   9 C :   -0.031676
  10 H :    0.017331
  11 H :    0.026566
  12 C :   -0.066689
  13 H :    0.029825
  14 H :    0.018932
  15 H :    0.024543
  16 S :    0.446593
  17 C :   -0.200573
  18 C :   -0.074643
  19 C :   -0.053512
  20 C :   -0.220988
  21 H :    0.037051
  22 C :   -0.031840
  23 H :    0.025490
  24 H :    0.030058
  25 C :   -0.035444
  26 H :    0.017271
  27 H :    0.018803
  28 C :   -0.074481
  29 H :    0.018855
  30 H :    0.035873
  31 H :    0.027755
  32 H :    0.028960
  33 H :    0.036588

  Mayer bond orders larger than 0.100000
B(  0-S ,  1-C ) :   1.1398 B(  0-S ,  4-C ) :   1.1399 B(  1-C ,  2-C ) :   1.6234
B(  1-C , 32-H ) :   0.9623 B(  2-C ,  3-C ) :   1.2147 B(  2-C ,  6-C ) :   1.0430
B(  3-C ,  4-C ) :   1.6072 B(  3-C ,  5-H ) :   0.9885 B(  4-C , 20-C ) :   0.9966
B(  6-C ,  7-H ) :   0.9362 B(  6-C ,  8-H ) :   0.9363 B(  6-C ,  9-C ) :   1.0720
B(  9-C , 10-H ) :   0.9552 B(  9-C , 11-H ) :   0.9519 B(  9-C , 12-C ) :   1.0881
B( 12-C , 13-H ) :   0.9701 B( 12-C , 14-H ) :   0.9764 B( 12-C , 15-H ) :   0.9719
B( 16-S , 17-C ) :   1.1469 B( 16-S , 20-C ) :   1.1719 B( 17-C , 18-C ) :   1.6193
B( 17-C , 33-H ) :   0.9641 B( 18-C , 19-C ) :   1.2520 B( 18-C , 21-H ) :   0.9761
B( 19-C , 20-C ) :   1.5831 B( 19-C , 22-C ) :   1.0575 B( 22-C , 23-H ) :   0.9237
B( 22-C , 24-H ) :   0.9330 B( 22-C , 25-C ) :   1.0711 B( 25-C , 26-H ) :   0.9491
B( 25-C , 27-H ) :   0.9511 B( 25-C , 28-C ) :   1.0822 B( 28-C , 29-H ) :   0.9751
B( 28-C , 30-H ) :   0.9736 B( 28-C , 31-H ) :   0.9725

Dispersion correction           -0.014528357
FINAL SINGLE POINT ENERGY     -1339.876672419345

DIPOLE MOMENT
-------------
                                X             Y             Z
Electronic contribution:     -0.44611       1.74453     -20.24725
Nuclear contribution   :      0.30497      -1.58521      20.52710
                        -----------------------------------------
Total Dipole Moment    :     -0.14114       0.15932       0.27985
                        -----------------------------------------
Magnitude (a.u.)       :      0.35159
Magnitude (Debye)      :      0.89368

Rotational constants in cm-1:     0.021130     0.008139     0.006395
Rotational constants in MHz :   633.456123   244.001666   191.706337

                             ****ORCA TERMINATED NORMALLY****
TOTAL RUN TIME: 0 days 0 hours 0 minutes 21 seconds 286 msec
