                         Program Version 4.2.1 -  RELEASE  -
|  1> ! wB97X-D3 SP def2-SVP
|  2> %pal
|  3> nprocs 24
|  4> end
|  5>
|  6> * xyz 0 1
|  7> S 	 -80.412 	 -0.117135 	 6.95571
|  8> C 	 -81.1752 	 0.946296 	 8.11166
|  9> C 	 -80.8796 	 2.28878 	 7.85709
| 10> C 	 -80.0871 	 2.38913 	 6.65181
| 11> C 	 -79.7061 	 1.22657 	 6.01482
| 12> H 	 -79.8242 	 3.24102 	 5.99429
| 13> C 	 -81.1538 	 3.51187 	 8.66629
| 14> H 	 -82.1158 	 3.94755 	 8.28879
| 15> H 	 -80.4618 	 4.26631 	 8.41717
| 16> C 	 -81.187 	 3.20612 	 10.1866
| 17> H 	 -81.5947 	 4.0902 	 10.6462
| 18> H 	 -81.8481 	 2.42355 	 10.5034
| 19> C 	 -79.8141 	 3.01192 	 10.8146
| 20> H 	 -79.2323 	 2.14587 	 10.4152
| 21> H 	 -79.1634 	 3.8993 	 10.656
| 22> H 	 -79.925 	 3.05508 	 11.8811
| 23> S 	 -77.6583 	 2.00795 	 4.3903
| 24> C 	 -77.4903 	 1.29196 	 2.76164
| 25> C 	 -78.4169 	 0.255115 	 2.59369
| 26> C 	 -79.4115 	 0.227528 	 3.61099
| 27> C 	 -79.0757 	 1.0465 	 4.74144
| 28> H 	 -78.5011 	 -0.277537 	 1.6654
| 29> C 	 -80.3703 	 -0.899897 	 3.5403
| 30> H 	 -80.4523 	 -1.38367 	 4.41828
| 31> H 	 -80 	 -1.66587 	 2.86787
| 32> C 	 -81.7885 	 -0.504962 	 2.99285
| 33> H 	 -81.7075 	 -0.411348 	 1.94227
| 34> H 	 -81.9693 	 0.488264 	 3.35688
| 35> C 	 -82.9173 	 -1.50163 	 3.48919
| 36> H 	 -82.8706 	 -2.49432 	 3.10061
| 37> H 	 -83.8855 	 -1.02918 	 3.25073
| 38> H 	 -82.9165 	 -1.50438 	 4.57234
| 39> H 	 -81.73 	 0.678723 	 8.95945
| 40> H 	 -76.779 	 1.5411 	 2.01316
| 41> *
| 42>
| 43>                          ****END OF INPUT****

CARTESIAN COORDINATES (ANGSTROEM)
---------------------------------
  S    -80.412000   -0.117135    6.955710
  C    -81.175200    0.946296    8.111660
  C    -80.879600    2.288780    7.857090
  C    -80.087100    2.389130    6.651810
  C    -79.706100    1.226570    6.014820
  H    -79.824200    3.241020    5.994290
  C    -81.153800    3.511870    8.666290
  H    -82.115800    3.947550    8.288790
  H    -80.461800    4.266310    8.417170
  C    -81.187000    3.206120   10.186600
  H    -81.594700    4.090200   10.646200
  H    -81.848100    2.423550   10.503400
  C    -79.814100    3.011920   10.814600
  H    -79.232300    2.145870   10.415200
  H    -79.163400    3.899300   10.656000
  H    -79.925000    3.055080   11.881100
  S    -77.658300    2.007950    4.390300
  C    -77.490300    1.291960    2.761640
  C    -78.416900    0.255115    2.593690
  C    -79.411500    0.227528    3.610990
  C    -79.075700    1.046500    4.741440
  H    -78.501100   -0.277537    1.665400
  C    -80.370300   -0.899897    3.540300
  H    -80.452300   -1.383670    4.418280
  H    -80.000000   -1.665870    2.867870
  C    -81.788500   -0.504962    2.992850
  H    -81.707500   -0.411348    1.942270
  H    -81.969300    0.488264    3.356880
  C    -82.917300   -1.501630    3.489190
  H    -82.870600   -2.494320    3.100610
  H    -83.885500   -1.029180    3.250730
  H    -82.916500   -1.504380    4.572340
  H    -81.730000    0.678723    8.959450
  H    -76.779000    1.541100    2.013160

 Total Charge           Charge          ....    0
 Multiplicity           Mult            ....    1
 Number of Electrons    NEL             ....  134
 Basis Dimension        Dim             ....  322

ORBITAL ENERGIES
----------------

  NO   OCC          E(Eh)            E(eV)
   0   2.0000     -88.971660     -2421.0420
   1   2.0000     -88.965799     -2420.8825
   2   2.0000     -10.332769      -281.1689
   3   2.0000     -10.329834      -281.0891
   4   2.0000     -10.320881      -280.8455
   5   2.0000     -10.315210      -280.6911
   6   2.0000     -10.305228      -280.4195
   7   2.0000     -10.303778      -280.3800
   8   2.0000     -10.295470      -280.1540
   9   2.0000     -10.294360      -280.1238
  10   2.0000     -10.294332      -280.1230
  11   2.0000     -10.287248      -279.9302
  12   2.0000     -10.279916      -279.7307
  13   2.0000     -10.278417      -279.6899
  14   2.0000     -10.275671      -279.6152
  15   2.0000     -10.274226      -279.5759
  16   2.0000      -8.085297      -220.0121
  17   2.0000      -8.079528      -219.8551
  18   2.0000      -6.043883      -164.4624
  19   2.0000      -6.039820      -164.3518
  20   2.0000      -6.038171      -164.3070
  21   2.0000      -6.036185      -164.2529
  22   2.0000      -6.034070      -164.1954
  23   2.0000      -6.030313      -164.0932
  24   2.0000      -1.002598       -27.2821
  25   2.0000      -0.979404       -26.6509
  26   2.0000      -0.914425       -24.8828
  27   2.0000      -0.904675       -24.6175
  28   2.0000      -0.872169       -23.7329
  29   2.0000      -0.849249       -23.1092
  30   2.0000      -0.842432       -22.9237
  31   2.0000      -0.812738       -22.1157
  32   2.0000      -0.783178       -21.3113
  33   2.0000      -0.769503       -20.9392
  34   2.0000      -0.714738       -19.4490
  35   2.0000      -0.706834       -19.2339
  36   2.0000      -0.696230       -18.9454
  37   2.0000      -0.668317       -18.1858
  38   2.0000      -0.640150       -17.4194
  39   2.0000      -0.607618       -16.5341
  40   2.0000      -0.593828       -16.1589
  41   2.0000      -0.580928       -15.8079
  42   2.0000      -0.560605       -15.2548
  43   2.0000      -0.555510       -15.1162
  44   2.0000      -0.539231       -14.6732
  45   2.0000      -0.519125       -14.1261
  46   2.0000      -0.518122       -14.0988
  47   2.0000      -0.512559       -13.9474
  48   2.0000      -0.504428       -13.7262
  49   2.0000      -0.496778       -13.5180
  50   2.0000      -0.489417       -13.3177
  51   2.0000      -0.483961       -13.1692
  52   2.0000      -0.469656       -12.7800
  53   2.0000      -0.467202       -12.7132
  54   2.0000      -0.464262       -12.6332
  55   2.0000      -0.444347       -12.0913
  56   2.0000      -0.440583       -11.9889
  57   2.0000      -0.436214       -11.8700
  58   2.0000      -0.429818       -11.6959
  59   2.0000      -0.427545       -11.6341
  60   2.0000      -0.420979       -11.4554
  61   2.0000      -0.413065       -11.2401
  62   2.0000      -0.412495       -11.2246
  63   2.0000      -0.351145        -9.5551
  64   2.0000      -0.332562        -9.0495
  65   2.0000      -0.323397        -8.8001
  66   2.0000      -0.286362        -7.7923
  67   0.0000       0.019421         0.5285
  68   0.0000       0.072314         1.9678
  69   0.0000       0.108493         2.9523
  70   0.0000       0.118473         3.2238
  71   0.0000       0.120764         3.2861

MULLIKEN ATOMIC CHARGES
-----------------------
   0 S :    0.093921
   1 C :   -0.089475
   2 C :   -0.097779
   3 C :   -0.001244
   4 C :   -0.144550
   5 H :    0.023193
   6 C :    0.100305
   7 H :    0.044275
   8 H :    0.014344
   9 C :   -0.071620
  10 H :    0.016086
  11 H :    0.028385
  12 C :   -0.056308
  13 H :    0.056788
  14 H :    0.021525
  15 H :    0.030368
  16 S :    0.112935
  17 C :   -0.085435
  18 C :   -0.028948
  19 C :   -0.037275
  20 C :   -0.152970
  21 H :    0.024571
  22 C :    0.083516
  23 H :   -0.013102
  24 H :    0.015498
  25 C :   -0.064013
  26 H :    0.016164
  27 H :    0.028170
  28 C :   -0.041179
  29 H :    0.037162
  30 H :    0.030975
  31 H :    0.030259
  32 H :    0.025969
  33 H :    0.049486
Sum of atomic charges:   -0.0000000

LOEWDIN ATOMIC CHARGES
----------------------
   0 S :    0.395068
   1 C :   -0.189219
   2 C :   -0.061381
   3 C :   -0.070302
   4 C :   -0.190619
   5 H :    0.033673
   6 C :   -0.028167
   7 H :    0.042246
   8 H :    0.027112
   9 C :   -0.039168
  10 H :    0.024722
  11 H :    0.020588
  12 C :   -0.069480
  13 H :    0.032288
  14 H :    0.026999
  15 H :    0.025026
  16 S :    0.409424
  17 C :   -0.174548
  18 C :   -0.062568
  19 C :   -0.052089
  20 C :   -0.202434
  21 H :    0.030865
  22 C :   -0.028933
  23 H :    0.002690
  24 H :    0.031190
  25 C :   -0.025408
  26 H :    0.014593
  27 H :    0.021838
  28 C :   -0.061981
  29 H :    0.020491
  30 H :    0.029343
  31 H :    0.024953
  32 H :    0.018540
  33 H :    0.024649

  Mayer bond orders larger than 0.100000
B(  0-S ,  1-C ) :   1.1408 B(  0-S ,  4-C ) :   1.1152 B(  1-C ,  2-C ) :   1.6113
B(  1-C , 32-H ) :   0.9729 B(  2-C ,  3-C ) :   1.2196 B(  2-C ,  6-C ) :   1.0172
B(  3-C ,  4-C ) :   1.6158 B(  3-C ,  5-H ) :   0.9779 B(  4-C , 20-C ) :   1.0678
B(  6-C ,  7-H ) :   0.9252 B(  6-C ,  8-H ) :   0.9450 B(  6-C ,  9-C ) :   1.0764
B(  9-C , 10-H ) :   0.9490 B(  9-C , 11-H ) :   0.9575 B(  9-C , 12-C ) :   1.0806
B( 12-C , 13-H ) :   0.9755 B( 12-C , 14-H ) :   0.9713 B( 12-C , 15-H ) :   0.9726
B( 16-S , 17-C ) :   1.1507 B( 16-S , 20-C ) :   1.1496 B( 17-C , 18-C ) :   1.5849
B( 17-C , 20-C ) :   0.1091 B( 17-C , 33-H ) :   0.9722 B( 18-C , 19-C ) :   1.2813
B( 18-C , 21-H ) :   0.9796 B( 19-C , 20-C ) :   1.5130 B( 19-C , 22-C ) :   1.0552
B( 22-C , 23-H ) :   0.9408 B( 22-C , 24-H ) :   0.9380 B( 22-C , 25-C ) :   1.0293
B( 25-C , 26-H ) :   0.9584 B( 25-C , 27-H ) :   0.9660 B( 25-C , 28-C ) :   1.0735
B( 28-C , 29-H ) :   0.9786 B( 28-C , 30-H ) :   0.9754 B( 28-C , 31-H ) :   0.9756

Dispersion correction           -0.014374633
FINAL SINGLE POINT ENERGY     -1339.861087474691

DIPOLE MOMENT
-------------
                                X             Y             Z
Electronic contribution:     14.15191      -0.60465      -7.31957
Nuclear contribution   :    -14.44643       0.84480       7.32369
                        -----------------------------------------
Total Dipole Moment    :     -0.29452       0.24014       0.00412
                        -----------------------------------------
Magnitude (a.u.)       :      0.38004
Magnitude (Debye)      :      0.96597

Rotational constants in cm-1:     0.020679     0.008266     0.006443
Rotational constants in MHz :   619.926277   247.796430   193.141308

                             ****ORCA TERMINATED NORMALLY****
TOTAL RUN TIME: 0 days 0 hours 0 minutes 21 seconds 323 msec
