                         Program Version 4.2.1 -  RELEASE  -
|  1> ! wB97X-D3 SP def2-SVP
|  2> %pal
|  3> nprocs 24
|  4> end
|  5>
|  6> * xyz 0 1
|  7> S 	 -143.311 	 1.046 	 13.3287
|  8> C 	 -144.426 	 -0.0248799 	 12.4578
|  9> C 	 -145.345 	 0.705702 	 11.7486
| 10> C 	 -144.971 	 2.08971 	 11.6318
| 11> C 	 -143.838 	 2.38997 	 12.4078
| 12> H 	 -145.497 	 2.85739 	 11.1376
| 13> C 	 -146.451 	 0.109606 	 10.9532
| 14> H 	 -147.264 	 -0.2313 	 11.5204
| 15> H 	 -146.022 	 -0.807321 	 10.4692
| 16> C 	 -147.032 	 1.02185 	 9.83798
| 17> H 	 -147.397 	 1.91567 	 10.3204
| 18> H 	 -146.232 	 1.07606 	 9.04121
| 19> C 	 -148.304 	 0.435383 	 9.24181
| 20> H 	 -148.195 	 -0.612512 	 9.07292
| 21> H 	 -149.247 	 0.587891 	 9.82837
| 22> H 	 -148.641 	 0.89111 	 8.33943
| 23> S 	 -141.545 	 3.91551 	 12.0745
| 24> C 	 -141.598 	 5.65742 	 11.919
| 25> C 	 -142.927 	 6.05216 	 12.0078
| 26> C 	 -143.845 	 5.03898 	 12.4527
| 27> C 	 -143.27 	 3.7752 	 12.4313
| 28> H 	 -143.143 	 7.03225 	 11.8394
| 29> C 	 -145.265 	 5.43944 	 12.913
| 30> H 	 -145.927 	 4.56233 	 12.7245
| 31> H 	 -145.807 	 6.28736 	 12.5038
| 32> C 	 -145.249 	 5.5766 	 14.4326
| 33> H 	 -144.798 	 6.56688 	 14.5733
| 34> H 	 -144.52 	 4.98314 	 15.0364
| 35> C 	 -146.658 	 5.61109 	 14.8924
| 36> H 	 -147.255 	 4.72728 	 14.664
| 37> H 	 -147.115 	 6.62585 	 14.5727
| 38> H 	 -146.867 	 5.69574 	 15.9811
| 39> H 	 -144.671 	 -1.08912 	 12.677
| 40> H 	 -140.65 	 6.22222 	 11.6354
| 41> *
| 42>
| 43>                          ****END OF INPUT****

CARTESIAN COORDINATES (ANGSTROEM)
---------------------------------
  S    -143.311000    1.046000   13.328700
  C    -144.426000   -0.024880   12.457800
  C    -145.345000    0.705702   11.748600
  C    -144.971000    2.089710   11.631800
  C    -143.838000    2.389970   12.407800
  H    -145.497000    2.857390   11.137600
  C    -146.451000    0.109606   10.953200
  H    -147.264000   -0.231300   11.520400
  H    -146.022000   -0.807321   10.469200
  C    -147.032000    1.021850    9.837980
  H    -147.397000    1.915670   10.320400
  H    -146.232000    1.076060    9.041210
  C    -148.304000    0.435383    9.241810
  H    -148.195000   -0.612512    9.072920
  H    -149.247000    0.587891    9.828370
  H    -148.641000    0.891110    8.339430
  S    -141.545000    3.915510   12.074500
  C    -141.598000    5.657420   11.919000
  C    -142.927000    6.052160   12.007800
  C    -143.845000    5.038980   12.452700
  C    -143.270000    3.775200   12.431300
  H    -143.143000    7.032250   11.839400
  C    -145.265000    5.439440   12.913000
  H    -145.927000    4.562330   12.724500
  H    -145.807000    6.287360   12.503800
  C    -145.249000    5.576600   14.432600
  H    -144.798000    6.566880   14.573300
  H    -144.520000    4.983140   15.036400
  C    -146.658000    5.611090   14.892400
  H    -147.255000    4.727280   14.664000
  H    -147.115000    6.625850   14.572700
  H    -146.867000    5.695740   15.981100
  H    -144.671000   -1.089120   12.677000
  H    -140.650000    6.222220   11.635400

 Total Charge           Charge          ....    0
 Multiplicity           Mult            ....    1
 Number of Electrons    NEL             ....  134
 Basis Dimension        Dim             ....  322

ORBITAL ENERGIES
----------------

  NO   OCC          E(Eh)            E(eV)
   0   2.0000     -88.970698     -2421.0158
   1   2.0000     -88.959645     -2420.7150
   2   2.0000     -10.331734      -281.1408
   3   2.0000     -10.331168      -281.1254
   4   2.0000     -10.323777      -280.9243
   5   2.0000     -10.313396      -280.6418
   6   2.0000     -10.309403      -280.5331
   7   2.0000     -10.298619      -280.2397
   8   2.0000     -10.296320      -280.1771
   9   2.0000     -10.292442      -280.0716
  10   2.0000     -10.290257      -280.0121
  11   2.0000     -10.289367      -279.9879
  12   2.0000     -10.288873      -279.9745
  13   2.0000     -10.283082      -279.8169
  14   2.0000     -10.282655      -279.8053
  15   2.0000     -10.275472      -279.6098
  16   2.0000      -8.085181      -220.0090
  17   2.0000      -8.074549      -219.7196
  18   2.0000      -6.043732      -164.4583
  19   2.0000      -6.039745      -164.3498
  20   2.0000      -6.035885      -164.2448
  21   2.0000      -6.033020      -164.1668
  22   2.0000      -6.028929      -164.0555
  23   2.0000      -6.025434      -163.9604
  24   2.0000      -1.003914       -27.3179
  25   2.0000      -0.983274       -26.7562
  26   2.0000      -0.916124       -24.9290
  27   2.0000      -0.914542       -24.8859
  28   2.0000      -0.867415       -23.6036
  29   2.0000      -0.850451       -23.1420
  30   2.0000      -0.844172       -22.9711
  31   2.0000      -0.811784       -22.0898
  32   2.0000      -0.780763       -21.2456
  33   2.0000      -0.770948       -20.9785
  34   2.0000      -0.709045       -19.2941
  35   2.0000      -0.695283       -18.9196
  36   2.0000      -0.684558       -18.6278
  37   2.0000      -0.663123       -18.0445
  38   2.0000      -0.634771       -17.2730
  39   2.0000      -0.621583       -16.9141
  40   2.0000      -0.600962       -16.3530
  41   2.0000      -0.580280       -15.7902
  42   2.0000      -0.572222       -15.5710
  43   2.0000      -0.562917       -15.3178
  44   2.0000      -0.527382       -14.3508
  45   2.0000      -0.518391       -14.1061
  46   2.0000      -0.515016       -14.0143
  47   2.0000      -0.508659       -13.8413
  48   2.0000      -0.504892       -13.7388
  49   2.0000      -0.498276       -13.5588
  50   2.0000      -0.494153       -13.4466
  51   2.0000      -0.481403       -13.0996
  52   2.0000      -0.472727       -12.8635
  53   2.0000      -0.465371       -12.6634
  54   2.0000      -0.455871       -12.4049
  55   2.0000      -0.453367       -12.3367
  56   2.0000      -0.438208       -11.9242
  57   2.0000      -0.432908       -11.7800
  58   2.0000      -0.426935       -11.6175
  59   2.0000      -0.423869       -11.5341
  60   2.0000      -0.416472       -11.3328
  61   2.0000      -0.412392       -11.2218
  62   2.0000      -0.407326       -11.0839
  63   2.0000      -0.341702        -9.2982
  64   2.0000      -0.330833        -9.0024
  65   2.0000      -0.326279        -8.8785
  66   2.0000      -0.292809        -7.9677
  67   0.0000       0.028048         0.7632
  68   0.0000       0.070145         1.9088
  69   0.0000       0.111468         3.0332
  70   0.0000       0.121504         3.3063
  71   0.0000       0.138529         3.7696

MULLIKEN ATOMIC CHARGES
-----------------------
   0 S :    0.130250
   1 C :   -0.137458
   2 C :   -0.076349
   3 C :    0.027357
   4 C :   -0.127268
   5 H :    0.004262
   6 C :    0.043803
   7 H :    0.020925
   8 H :    0.037302
   9 C :   -0.099127
  10 H :    0.039794
  11 H :    0.055991
  12 C :   -0.034280
  13 H :    0.020254
  14 H :    0.028171
  15 H :    0.020493
  16 S :    0.086990
  17 C :   -0.125673
  18 C :    0.003256
  19 C :   -0.035645
  20 C :   -0.150841
  21 H :   -0.016836
  22 C :    0.052416
  23 H :    0.015051
  24 H :    0.030907
  25 C :   -0.062148
  26 H :    0.015657
  27 H :    0.048820
  28 C :   -0.076151
  29 H :    0.042169
  30 H :    0.035824
  31 H :    0.027507
  32 H :    0.061197
  33 H :    0.093382
Sum of atomic charges:   -0.0000000

LOEWDIN ATOMIC CHARGES
----------------------
   0 S :    0.420020
   1 C :   -0.207194
   2 C :   -0.061758
   3 C :   -0.058221
   4 C :   -0.204973
   5 H :    0.022701
   6 C :   -0.035801
   7 H :    0.023144
   8 H :    0.039664
   9 C :   -0.040366
  10 H :    0.025564
  11 H :    0.037559
  12 C :   -0.069670
  13 H :    0.018474
  14 H :    0.030234
  15 H :    0.022763
  16 S :    0.396151
  17 C :   -0.194045
  18 C :   -0.064664
  19 C :   -0.052240
  20 C :   -0.191956
  21 H :    0.012882
  22 C :   -0.028044
  23 H :    0.026991
  24 H :    0.031597
  25 C :   -0.051987
  26 H :    0.025183
  27 H :    0.032943
  28 C :   -0.080475
  29 H :    0.025492
  30 H :    0.036836
  31 H :    0.027340
  32 H :    0.038624
  33 H :    0.047234

  Mayer bond orders larger than 0.100000
B(  0-S ,  1-C ) :   1.1224 B(  0-S ,  4-C ) :   1.1783 B(  1-C ,  2-C ) :   1.6244
B(  1-C , 32-H ) :   0.9618 B(  2-C ,  3-C ) :   1.2542 B(  2-C ,  6-C ) :   1.0158
B(  3-C ,  4-C ) :   1.5373 B(  3-C ,  5-H ) :   0.9943 B(  4-C , 20-C ) :   1.0118
B(  6-C ,  7-H ) :   0.9279 B(  6-C ,  8-H ) :   0.9392 B(  6-C ,  9-C ) :   1.0988
B(  9-C , 10-H ) :   0.9460 B(  9-C , 11-H ) :   0.9533 B(  9-C , 12-C ) :   1.0870
B( 12-C , 13-H ) :   0.9729 B( 12-C , 14-H ) :   0.9725 B( 12-C , 15-H ) :   0.9696
B( 16-S , 17-C ) :   1.1619 B( 16-S , 20-C ) :   1.1472 B( 17-C , 18-C ) :   1.5789
B( 17-C , 20-C ) :   0.1020 B( 17-C , 33-H ) :   0.9611 B( 18-C , 19-C ) :   1.2439
B( 18-C , 21-H ) :   1.0078 B( 19-C , 20-C ) :   1.5950 B( 19-C , 22-C ) :   1.0264
B( 22-C , 23-H ) :   0.9428 B( 22-C , 24-H ) :   0.9477 B( 22-C , 25-C ) :   1.0365
B( 25-C , 26-H ) :   0.9498 B( 25-C , 27-H ) :   0.9604 B( 25-C , 28-C ) :   1.0823
B( 28-C , 29-H ) :   0.9760 B( 28-C , 30-H ) :   0.9673 B( 28-C , 31-H ) :   0.9694

Dispersion correction           -0.013746258
FINAL SINGLE POINT ENERGY     -1339.847720284988

DIPOLE MOMENT
-------------
                                X             Y             Z
Electronic contribution:     27.93245      -3.37057       4.03470
Nuclear contribution   :    -28.64892       3.61600      -4.19045
                        -----------------------------------------
Total Dipole Moment    :     -0.71647       0.24543      -0.15574
                        -----------------------------------------
Magnitude (a.u.)       :      0.77319
Magnitude (Debye)      :      1.96528

Rotational constants in cm-1:     0.016534     0.008558     0.007222
Rotational constants in MHz :   495.682575   256.576345   216.512820

                             ****ORCA TERMINATED NORMALLY****
TOTAL RUN TIME: 0 days 0 hours 0 minutes 21 seconds 403 msec
