                         Program Version 4.2.1 -  RELEASE  -
|  1> ! wB97X-D3 SP def2-SVP
|  2> %pal
|  3> nprocs 24
|  4> end
|  5>
|  6> * xyz 0 1
|  7> S 	 -97.2177 	 41.0136 	 -86.2094
|  8> C 	 -97.3557 	 39.3721 	 -85.6058
|  9> C 	 -98.5425 	 38.8373 	 -85.9182
| 10> C 	 -99.2922 	 39.6184 	 -86.8295
| 11> C 	 -98.7808 	 40.8953 	 -87.0063
| 12> H 	 -100.196 	 39.2496 	 -87.2428
| 13> C 	 -99.0019 	 37.4257 	 -85.5195
| 14> H 	 -98.2392 	 36.8363 	 -86.0387
| 15> H 	 -99.9903 	 37.1153 	 -85.8973
| 16> C 	 -98.9665 	 37.0492 	 -84.04
| 17> H 	 -97.9867 	 37.2386 	 -83.6079
| 18> H 	 -99.7186 	 37.6859 	 -83.563
| 19> C 	 -99.2031 	 35.4833 	 -83.8885
| 20> H 	 -100.019 	 35.0394 	 -84.4843
| 21> H 	 -98.2547 	 34.9384 	 -84.0493
| 22> H 	 -99.4647 	 35.2935 	 -82.8743
| 23> S 	 -100.035 	 43.4131 	 -86.7319
| 24> C 	 -101.179 	 43.7851 	 -87.9274
| 25> C 	 -101.062 	 42.9883 	 -89.0955
| 26> C 	 -100.176 	 41.9264 	 -88.9161
| 27> C 	 -99.4792 	 42.0003 	 -87.6747
| 28> H 	 -101.636 	 43.1259 	 -89.9566
| 29> C 	 -100.116 	 40.7626 	 -89.9258
| 30> H 	 -99.5611 	 39.843 	 -89.4975
| 31> H 	 -99.5215 	 41.1624 	 -90.7336
| 32> C 	 -101.38 	 40.2422 	 -90.5851
| 33> H 	 -101.673 	 40.9139 	 -91.4349
| 34> H 	 -102.265 	 40.2245 	 -89.9729
| 35> C 	 -101.224 	 38.93 	 -91.3197
| 36> H 	 -102.064 	 38.7567 	 -92.0044
| 37> H 	 -101.257 	 38.1307 	 -90.5865
| 38> H 	 -100.309 	 38.786 	 -91.8554
| 39> H 	 -96.679 	 38.884 	 -84.9841
| 40> H 	 -101.916 	 44.5358 	 -87.7804
| 41> *
| 42>
| 43>                          ****END OF INPUT****

CARTESIAN COORDINATES (ANGSTROEM)
---------------------------------
  S    -97.217700   41.013600  -86.209400
  C    -97.355700   39.372100  -85.605800
  C    -98.542500   38.837300  -85.918200
  C    -99.292200   39.618400  -86.829500
  C    -98.780800   40.895300  -87.006300
  H    -100.196000   39.249600  -87.242800
  C    -99.001900   37.425700  -85.519500
  H    -98.239200   36.836300  -86.038700
  H    -99.990300   37.115300  -85.897300
  C    -98.966500   37.049200  -84.040000
  H    -97.986700   37.238600  -83.607900
  H    -99.718600   37.685900  -83.563000
  C    -99.203100   35.483300  -83.888500
  H    -100.019000   35.039400  -84.484300
  H    -98.254700   34.938400  -84.049300
  H    -99.464700   35.293500  -82.874300
  S    -100.035000   43.413100  -86.731900
  C    -101.179000   43.785100  -87.927400
  C    -101.062000   42.988300  -89.095500
  C    -100.176000   41.926400  -88.916100
  C    -99.479200   42.000300  -87.674700
  H    -101.636000   43.125900  -89.956600
  C    -100.116000   40.762600  -89.925800
  H    -99.561100   39.843000  -89.497500
  H    -99.521500   41.162400  -90.733600
  C    -101.380000   40.242200  -90.585100
  H    -101.673000   40.913900  -91.434900
  H    -102.265000   40.224500  -89.972900
  C    -101.224000   38.930000  -91.319700
  H    -102.064000   38.756700  -92.004400
  H    -101.257000   38.130700  -90.586500
  H    -100.309000   38.786000  -91.855400
  H    -96.679000   38.884000  -84.984100
  H    -101.916000   44.535800  -87.780400

 Total Charge           Charge          ....    0
 Multiplicity           Mult            ....    1
 Number of Electrons    NEL             ....  134
 Basis Dimension        Dim             ....  322

ORBITAL ENERGIES
----------------

  NO   OCC          E(Eh)            E(eV)
   0   2.0000     -88.970632     -2421.0140
   1   2.0000     -88.963039     -2420.8074
   2   2.0000     -10.328933      -281.0646
   3   2.0000     -10.327819      -281.0343
   4   2.0000     -10.318312      -280.7755
   5   2.0000     -10.306767      -280.4614
   6   2.0000     -10.300801      -280.2990
   7   2.0000     -10.297701      -280.2147
   8   2.0000     -10.291393      -280.0430
   9   2.0000     -10.291309      -280.0408
  10   2.0000     -10.291149      -280.0364
  11   2.0000     -10.290818      -280.0274
  12   2.0000     -10.287221      -279.9295
  13   2.0000     -10.286056      -279.8978
  14   2.0000     -10.283080      -279.8168
  15   2.0000     -10.276842      -279.6471
  16   2.0000      -8.085586      -220.0200
  17   2.0000      -8.077550      -219.8013
  18   2.0000      -6.043858      -164.4617
  19   2.0000      -6.039996      -164.3566
  20   2.0000      -6.036651      -164.2656
  21   2.0000      -6.036120      -164.2512
  22   2.0000      -6.032160      -164.1434
  23   2.0000      -6.028208      -164.0359
  24   2.0000      -1.003973       -27.3195
  25   2.0000      -0.985439       -26.8152
  26   2.0000      -0.912688       -24.8355
  27   2.0000      -0.907064       -24.6825
  28   2.0000      -0.865340       -23.5471
  29   2.0000      -0.859073       -23.3766
  30   2.0000      -0.844269       -22.9737
  31   2.0000      -0.807932       -21.9849
  32   2.0000      -0.784605       -21.3502
  33   2.0000      -0.771927       -21.0052
  34   2.0000      -0.705818       -19.2063
  35   2.0000      -0.702138       -19.1062
  36   2.0000      -0.695252       -18.9188
  37   2.0000      -0.659239       -17.9388
  38   2.0000      -0.638719       -17.3804
  39   2.0000      -0.617202       -16.7949
  40   2.0000      -0.600903       -16.3514
  41   2.0000      -0.577948       -15.7268
  42   2.0000      -0.568084       -15.4584
  43   2.0000      -0.559810       -15.2332
  44   2.0000      -0.528308       -14.3760
  45   2.0000      -0.520880       -14.1739
  46   2.0000      -0.512217       -13.9381
  47   2.0000      -0.510155       -13.8820
  48   2.0000      -0.504381       -13.7249
  49   2.0000      -0.496120       -13.5001
  50   2.0000      -0.491632       -13.3780
  51   2.0000      -0.483259       -13.1501
  52   2.0000      -0.475217       -12.9313
  53   2.0000      -0.464439       -12.6380
  54   2.0000      -0.461405       -12.5555
  55   2.0000      -0.454916       -12.3789
  56   2.0000      -0.444696       -12.1008
  57   2.0000      -0.438015       -11.9190
  58   2.0000      -0.432804       -11.7772
  59   2.0000      -0.431446       -11.7402
  60   2.0000      -0.423636       -11.5277
  61   2.0000      -0.414359       -11.2753
  62   2.0000      -0.405065       -11.0224
  63   2.0000      -0.341713        -9.2985
  64   2.0000      -0.334726        -9.1084
  65   2.0000      -0.327216        -8.9040
  66   2.0000      -0.284782        -7.7493
  67   0.0000       0.032988         0.8977
  68   0.0000       0.060562         1.6480
  69   0.0000       0.120366         3.2753
  70   0.0000       0.123752         3.3675
  71   0.0000       0.128801         3.5048

MULLIKEN ATOMIC CHARGES
-----------------------
   0 S :    0.103474
   1 C :   -0.105111
   2 C :   -0.064012
   3 C :    0.038446
   4 C :   -0.149504
   5 H :   -0.007495
   6 C :    0.036721
   7 H :    0.036693
   8 H :    0.022114
   9 C :   -0.082419
  10 H :    0.028242
  11 H :    0.041907
  12 C :   -0.058805
  13 H :    0.037292
  14 H :    0.040731
  15 H :    0.024728
  16 S :    0.130191
  17 C :   -0.093391
  18 C :   -0.010090
  19 C :   -0.028471
  20 C :   -0.144296
  21 H :   -0.002995
  22 C :    0.045790
  23 H :    0.048120
  24 H :    0.038591
  25 C :   -0.088196
  26 H :    0.023894
  27 H :    0.028569
  28 C :   -0.044611
  29 H :    0.035392
  30 H :    0.021056
  31 H :    0.029278
  32 H :    0.015351
  33 H :    0.052817
Sum of atomic charges:    0.0000000

LOEWDIN ATOMIC CHARGES
----------------------
   0 S :    0.395935
   1 C :   -0.191337
   2 C :   -0.064465
   3 C :   -0.059295
   4 C :   -0.187956
   5 H :    0.022896
   6 C :   -0.035339
   7 H :    0.034602
   8 H :    0.027798
   9 C :   -0.035303
  10 H :    0.021567
  11 H :    0.026126
  12 C :   -0.066592
  13 H :    0.026363
  14 H :    0.030327
  15 H :    0.021461
  16 S :    0.431686
  17 C :   -0.188896
  18 C :   -0.067403
  19 C :   -0.043158
  20 C :   -0.206761
  21 H :    0.021954
  22 C :   -0.038489
  23 H :    0.040692
  24 H :    0.038250
  25 C :   -0.050461
  26 H :    0.025557
  27 H :    0.021014
  28 C :   -0.061255
  29 H :    0.030372
  30 H :    0.020928
  31 H :    0.022834
  32 H :    0.014625
  33 H :    0.021722

  Mayer bond orders larger than 0.100000
B(  0-S ,  1-C ) :   1.1187 B(  0-S ,  4-C ) :   1.1504 B(  1-C ,  2-C ) :   1.6361
B(  1-C , 32-H ) :   0.9750 B(  2-C ,  3-C ) :   1.2604 B(  2-C ,  6-C ) :   0.9932
B(  3-C ,  4-C ) :   1.5509 B(  3-C ,  5-H ) :   0.9996 B(  4-C , 20-C ) :   1.0294
B(  6-C ,  7-H ) :   0.9442 B(  6-C ,  8-H ) :   0.9519 B(  6-C ,  9-C ) :   1.0615
B(  9-C , 10-H ) :   0.9558 B(  9-C , 11-H ) :   0.9628 B(  9-C , 12-C ) :   1.0700
B( 12-C , 13-H ) :   0.9777 B( 12-C , 14-H ) :   0.9768 B( 12-C , 15-H ) :   0.9756
B( 16-S , 17-C ) :   1.2081 B( 16-S , 20-C ) :   1.1463 B( 17-C , 18-C ) :   1.5262
B( 17-C , 20-C ) :   0.1073 B( 17-C , 33-H ) :   0.9727 B( 18-C , 19-C ) :   1.2995
B( 18-C , 21-H ) :   1.0026 B( 19-C , 20-C ) :   1.5485 B( 19-C , 22-C ) :   1.0275
B( 22-C , 23-H ) :   0.9480 B( 22-C , 24-H ) :   0.9195 B( 22-C , 25-C ) :   1.0615
B( 25-C , 26-H ) :   0.9467 B( 25-C , 27-H ) :   0.9604 B( 25-C , 28-C ) :   1.0891
B( 28-C , 29-H ) :   0.9743 B( 28-C , 30-H ) :   0.9726 B( 28-C , 31-H ) :   0.9737

Dispersion correction           -0.013601680
FINAL SINGLE POINT ENERGY     -1339.867534419604

DIPOLE MOMENT
-------------
                                X             Y             Z
Electronic contribution:      9.54027      27.90620       6.25778
Nuclear contribution   :    -10.07574     -28.47243      -6.46021
                        -----------------------------------------
Total Dipole Moment    :     -0.53548      -0.56622      -0.20243
                        -----------------------------------------
Magnitude (a.u.)       :      0.80518
Magnitude (Debye)      :      2.04662

Rotational constants in cm-1:     0.016983     0.008058     0.006270
Rotational constants in MHz :   509.132578   241.567740   187.968752

                             ****ORCA TERMINATED NORMALLY****
TOTAL RUN TIME: 0 days 0 hours 0 minutes 21 seconds 48 msec
