                         Program Version 4.2.1 -  RELEASE  -
|  1> ! wB97X-D3 SP def2-SVP
|  2> %pal
|  3> nprocs 24
|  4> end
|  5>
|  6> * xyz 0 1
|  7> S 	 -124.431 	 67.6884 	 -39.9594
|  8> C 	 -125.924 	 68.3737 	 -39.6087
|  9> C 	 -125.852 	 69.7183 	 -39.726
| 10> C 	 -124.561 	 70.1844 	 -40.144
| 11> C 	 -123.668 	 69.2178 	 -40.377
| 12> H 	 -124.363 	 71.2277 	 -40.2902
| 13> C 	 -127.016 	 70.67 	 -39.2814
| 14> H 	 -127.898 	 70.0827 	 -38.9491
| 15> H 	 -127.376 	 71.1052 	 -40.2138
| 16> C 	 -126.571 	 71.7073 	 -38.2467
| 17> H 	 -126.106 	 71.1952 	 -37.4478
| 18> H 	 -125.734 	 72.1187 	 -38.7093
| 19> C 	 -127.668 	 72.7116 	 -37.8109
| 20> H 	 -128.079 	 73.4194 	 -38.4641
| 21> H 	 -128.473 	 72.1742 	 -37.3224
| 22> H 	 -127.299 	 73.2998 	 -37.0251
| 23> S 	 -120.986 	 69.7019 	 -39.8356
| 24> C 	 -119.794 	 69.8063 	 -41.1426
| 25> C 	 -120.4 	 69.3621 	 -42.2929
| 26> C 	 -121.822 	 69.3583 	 -42.2726
| 27> C 	 -122.323 	 69.3285 	 -40.9682
| 28> H 	 -119.787 	 69.3923 	 -43.1371
| 29> C 	 -122.694 	 69.2136 	 -43.4657
| 30> H 	 -123.502 	 68.556 	 -43.2089
| 31> H 	 -122.01 	 68.6143 	 -44.0346
| 32> C 	 -123.059 	 70.5061 	 -44.086
| 33> H 	 -122.373 	 71.264 	 -43.6005
| 34> H 	 -124.121 	 70.6922 	 -43.8993
| 35> C 	 -122.847 	 70.6524 	 -45.5534
| 36> H 	 -121.822 	 70.3563 	 -45.8151
| 37> H 	 -122.956 	 71.7191 	 -45.795
| 38> H 	 -123.497 	 69.9962 	 -46.0517
| 39> H 	 -126.813 	 67.8739 	 -39.1654
| 40> H 	 -118.664 	 69.9583 	 -41.1862
| 41> *
| 42>
| 43>                          ****END OF INPUT****

CARTESIAN COORDINATES (ANGSTROEM)
---------------------------------
  S    -124.431000   67.688400  -39.959400
  C    -125.924000   68.373700  -39.608700
  C    -125.852000   69.718300  -39.726000
  C    -124.561000   70.184400  -40.144000
  C    -123.668000   69.217800  -40.377000
  H    -124.363000   71.227700  -40.290200
  C    -127.016000   70.670000  -39.281400
  H    -127.898000   70.082700  -38.949100
  H    -127.376000   71.105200  -40.213800
  C    -126.571000   71.707300  -38.246700
  H    -126.106000   71.195200  -37.447800
  H    -125.734000   72.118700  -38.709300
  C    -127.668000   72.711600  -37.810900
  H    -128.079000   73.419400  -38.464100
  H    -128.473000   72.174200  -37.322400
  H    -127.299000   73.299800  -37.025100
  S    -120.986000   69.701900  -39.835600
  C    -119.794000   69.806300  -41.142600
  C    -120.400000   69.362100  -42.292900
  C    -121.822000   69.358300  -42.272600
  C    -122.323000   69.328500  -40.968200
  H    -119.787000   69.392300  -43.137100
  C    -122.694000   69.213600  -43.465700
  H    -123.502000   68.556000  -43.208900
  H    -122.010000   68.614300  -44.034600
  C    -123.059000   70.506100  -44.086000
  H    -122.373000   71.264000  -43.600500
  H    -124.121000   70.692200  -43.899300
  C    -122.847000   70.652400  -45.553400
  H    -121.822000   70.356300  -45.815100
  H    -122.956000   71.719100  -45.795000
  H    -123.497000   69.996200  -46.051700
  H    -126.813000   67.873900  -39.165400
  H    -118.664000   69.958300  -41.186200

 Total Charge           Charge          ....    0
 Multiplicity           Mult            ....    1
 Number of Electrons    NEL             ....  134
 Basis Dimension        Dim             ....  322

ORBITAL ENERGIES
----------------

  NO   OCC          E(Eh)            E(eV)
   0   2.0000     -88.962853     -2420.8023
   1   2.0000     -88.961273     -2420.7593
   2   2.0000     -10.328296      -281.0472
   3   2.0000     -10.327488      -281.0252
   4   2.0000     -10.324349      -280.9398
   5   2.0000     -10.309576      -280.5378
   6   2.0000     -10.303001      -280.3589
   7   2.0000     -10.295733      -280.1611
   8   2.0000     -10.292908      -280.0843
   9   2.0000     -10.290789      -280.0266
  10   2.0000     -10.287013      -279.9239
  11   2.0000     -10.280658      -279.7509
  12   2.0000     -10.280378      -279.7433
  13   2.0000     -10.277489      -279.6647
  14   2.0000     -10.272203      -279.5209
  15   2.0000     -10.271502      -279.5018
  16   2.0000      -8.077351      -219.7959
  17   2.0000      -8.076502      -219.7728
  18   2.0000      -6.035795      -164.2423
  19   2.0000      -6.035246      -164.2274
  20   2.0000      -6.031565      -164.1272
  21   2.0000      -6.031005      -164.1120
  22   2.0000      -6.028168      -164.0348
  23   2.0000      -6.027205      -164.0086
  24   2.0000      -1.012554       -27.5530
  25   2.0000      -0.987911       -26.8824
  26   2.0000      -0.920743       -25.0547
  27   2.0000      -0.907959       -24.7068
  28   2.0000      -0.874729       -23.8026
  29   2.0000      -0.853507       -23.2251
  30   2.0000      -0.846705       -23.0400
  31   2.0000      -0.822059       -22.3694
  32   2.0000      -0.785357       -21.3707
  33   2.0000      -0.773302       -21.0426
  34   2.0000      -0.717246       -19.5173
  35   2.0000      -0.699757       -19.0414
  36   2.0000      -0.688235       -18.7278
  37   2.0000      -0.658350       -17.9146
  38   2.0000      -0.644757       -17.5447
  39   2.0000      -0.625636       -17.0244
  40   2.0000      -0.595306       -16.1991
  41   2.0000      -0.571711       -15.5570
  42   2.0000      -0.563192       -15.3252
  43   2.0000      -0.558421       -15.1954
  44   2.0000      -0.535710       -14.5774
  45   2.0000      -0.528965       -14.3939
  46   2.0000      -0.521369       -14.1872
  47   2.0000      -0.516975       -14.0676
  48   2.0000      -0.509368       -13.8606
  49   2.0000      -0.499896       -13.6029
  50   2.0000      -0.498937       -13.5768
  51   2.0000      -0.475805       -12.9473
  52   2.0000      -0.472677       -12.8622
  53   2.0000      -0.469092       -12.7646
  54   2.0000      -0.465380       -12.6636
  55   2.0000      -0.450498       -12.2587
  56   2.0000      -0.441098       -12.0029
  57   2.0000      -0.439299       -11.9539
  58   2.0000      -0.429852       -11.6969
  59   2.0000      -0.420299       -11.4369
  60   2.0000      -0.419023       -11.4022
  61   2.0000      -0.409140       -11.1333
  62   2.0000      -0.403973       -10.9927
  63   2.0000      -0.340817        -9.2741
  64   2.0000      -0.329147        -8.9566
  65   2.0000      -0.318431        -8.6649
  66   2.0000      -0.314206        -8.5500
  67   0.0000       0.044647         1.2149
  68   0.0000       0.056284         1.5316
  69   0.0000       0.117621         3.2006
  70   0.0000       0.127141         3.4597
  71   0.0000       0.135418         3.6849

MULLIKEN ATOMIC CHARGES
-----------------------
   0 S :    0.114850
   1 C :   -0.123921
   2 C :   -0.123457
   3 C :    0.053008
   4 C :   -0.155490
   5 H :    0.011257
   6 C :    0.062654
   7 H :    0.010145
   8 H :    0.027391
   9 C :   -0.035650
  10 H :    0.019849
  11 H :    0.002558
  12 C :    0.005584
  13 H :    0.026253
  14 H :    0.022390
  15 H :    0.012972
  16 S :    0.096276
  17 C :   -0.115507
  18 C :   -0.012351
  19 C :   -0.095578
  20 C :   -0.164045
  21 H :   -0.001259
  22 C :    0.125423
  23 H :    0.025812
  24 H :    0.005738
  25 C :   -0.075385
  26 H :    0.041468
  27 H :    0.034815
  28 C :   -0.023215
  29 H :    0.017889
  30 H :    0.039164
  31 H :    0.023229
  32 H :    0.063387
  33 H :    0.083747
Sum of atomic charges:   -0.0000000

LOEWDIN ATOMIC CHARGES
----------------------
   0 S :    0.424965
   1 C :   -0.219429
   2 C :   -0.074051
   3 C :   -0.056872
   4 C :   -0.201268
   5 H :    0.030317
   6 C :   -0.028069
   7 H :    0.023724
   8 H :    0.027490
   9 C :   -0.033201
  10 H :    0.025442
  11 H :    0.014982
  12 C :   -0.057758
  13 H :    0.021165
  14 H :    0.028169
  15 H :    0.023974
  16 S :    0.381786
  17 C :   -0.188355
  18 C :   -0.080080
  19 C :   -0.045332
  20 C :   -0.191397
  21 H :    0.019466
  22 C :   -0.034537
  23 H :    0.031286
  24 H :    0.029966
  25 C :   -0.045777
  26 H :    0.033356
  27 H :    0.029969
  28 C :   -0.055829
  29 H :    0.021400
  30 H :    0.031294
  31 H :    0.016751
  32 H :    0.042836
  33 H :    0.053615

  Mayer bond orders larger than 0.100000
B(  0-S ,  1-C ) :   1.1547 B(  0-S ,  4-C ) :   1.1447 B(  1-C ,  2-C ) :   1.6295
B(  1-C , 32-H ) :   0.9590 B(  2-C ,  3-C ) :   1.2412 B(  2-C ,  6-C ) :   1.0093
B(  3-C ,  4-C ) :   1.6002 B(  3-C ,  5-H ) :   1.0010 B(  4-C , 20-C ) :   0.9962
B(  6-C ,  7-H ) :   0.9477 B(  6-C ,  8-H ) :   0.9385 B(  6-C ,  9-C ) :   1.0536
B(  9-C , 10-H ) :   0.9536 B(  9-C , 11-H ) :   0.9532 B(  9-C , 12-C ) :   1.0788
B( 12-C , 13-H ) :   0.9775 B( 12-C , 14-H ) :   0.9730 B( 12-C , 15-H ) :   0.9699
B( 16-S , 17-C ) :   1.1519 B( 16-S , 20-C ) :   1.1283 B( 17-C , 18-C ) :   1.6395
B( 17-C , 20-C ) :   0.1065 B( 17-C , 33-H ) :   0.9529 B( 18-C , 19-C ) :   1.2386
B( 18-C , 21-H ) :   0.9786 B( 19-C , 20-C ) :   1.6044 B( 19-C , 22-C ) :   1.0405
B( 22-C , 23-H ) :   0.9244 B( 22-C , 24-H ) :   0.9333 B( 22-C , 25-C ) :   1.0354
B( 25-C , 26-H ) :   0.9643 B( 25-C , 27-H ) :   0.9460 B( 25-C , 28-C ) :   1.0930
B( 28-C , 29-H ) :   0.9732 B( 28-C , 30-H ) :   0.9732 B( 28-C , 31-H ) :   0.9753

Dispersion correction           -0.014064398
FINAL SINGLE POINT ENERGY     -1339.848023312821

DIPOLE MOMENT
-------------
                                X             Y             Z
Electronic contribution:     14.54848     -15.96477       9.21492
Nuclear contribution   :    -14.81719      16.39946      -9.52410
                        -----------------------------------------
Total Dipole Moment    :     -0.26871       0.43470      -0.30918
                        -----------------------------------------
Magnitude (a.u.)       :      0.59729
Magnitude (Debye)      :      1.51819

Rotational constants in cm-1:     0.018279     0.007642     0.006901
Rotational constants in MHz :   547.996911   229.088572   206.883861

                             ****ORCA TERMINATED NORMALLY****
TOTAL RUN TIME: 0 days 0 hours 0 minutes 21 seconds 439 msec
