                         Program Version 4.2.1 -  RELEASE  -
|  1> ! wB97X-D3 SP def2-SVP
|  2> %pal
|  3> nprocs 24
|  4> end
|  5>
|  6> * xyz 0 1
|  7> S 	 -88.1389 	 -2.9993 	 6.72214
|  8> C 	 -87.6354 	 -1.44452 	 6.04549
|  9> C 	 -86.2981 	 -1.28478 	 6.22851
| 10> C 	 -85.6139 	 -2.39802 	 6.74881
| 11> C 	 -86.476 	 -3.39945 	 7.17238
| 12> H 	 -84.5718 	 -2.41566 	 6.94336
| 13> C 	 -85.4971 	 0.00159107 	 6.03646
| 14> H 	 -85.3482 	 0.558278 	 6.96671
| 15> H 	 -86.0508 	 0.648316 	 5.34715
| 16> C 	 -84.0463 	 -0.0159179 	 5.40243
| 17> H 	 -83.4786 	 0.911194 	 5.56401
| 18> H 	 -83.4887 	 -0.76613 	 5.96672
| 19> C 	 -84.1502 	 -0.412838 	 3.96795
| 20> H 	 -84.7389 	 0.324305 	 3.37611
| 21> H 	 -83.2042 	 -0.740196 	 3.51432
| 22> H 	 -84.647 	 -1.42972 	 3.96252
| 23> S 	 -85.8401 	 -5.96621 	 6.54484
| 24> C 	 -85.2154 	 -7.06622 	 7.73543
| 25> C 	 -85.0467 	 -6.36894 	 8.91347
| 26> C 	 -85.5542 	 -5.02776 	 8.90482
| 27> C 	 -86.0757 	 -4.66576 	 7.72467
| 28> H 	 -84.5546 	 -6.78838 	 9.7185
| 29> C 	 -85.5382 	 -4.24097 	 10.2053
| 30> H 	 -85.3145 	 -4.80905 	 11.0616
| 31> H 	 -86.5945 	 -4.03287 	 10.4963
| 32> C 	 -84.6799 	 -3.0006 	 10.2217
| 33> H 	 -84.8851 	 -2.44609 	 9.3248
| 34> H 	 -83.6116 	 -3.25191 	 9.97418
| 35> C 	 -84.7707 	 -2.04529 	 11.3129
| 36> H 	 -84.3053 	 -2.36231 	 12.2121
| 37> H 	 -85.8291 	 -1.7581 	 11.4114
| 38> H 	 -84.2342 	 -1.1393 	 11.1111
| 39> H 	 -88.304 	 -0.639089 	 5.82214
| 40> H 	 -84.7415 	 -8.01082 	 7.64744
| 41> *
| 42>
| 43>                          ****END OF INPUT****

CARTESIAN COORDINATES (ANGSTROEM)
---------------------------------
  S    -88.138900   -2.999300    6.722140
  C    -87.635400   -1.444520    6.045490
  C    -86.298100   -1.284780    6.228510
  C    -85.613900   -2.398020    6.748810
  C    -86.476000   -3.399450    7.172380
  H    -84.571800   -2.415660    6.943360
  C    -85.497100    0.001591    6.036460
  H    -85.348200    0.558278    6.966710
  H    -86.050800    0.648316    5.347150
  C    -84.046300   -0.015918    5.402430
  H    -83.478600    0.911194    5.564010
  H    -83.488700   -0.766130    5.966720
  C    -84.150200   -0.412838    3.967950
  H    -84.738900    0.324305    3.376110
  H    -83.204200   -0.740196    3.514320
  H    -84.647000   -1.429720    3.962520
  S    -85.840100   -5.966210    6.544840
  C    -85.215400   -7.066220    7.735430
  C    -85.046700   -6.368940    8.913470
  C    -85.554200   -5.027760    8.904820
  C    -86.075700   -4.665760    7.724670
  H    -84.554600   -6.788380    9.718500
  C    -85.538200   -4.240970   10.205300
  H    -85.314500   -4.809050   11.061600
  H    -86.594500   -4.032870   10.496300
  C    -84.679900   -3.000600   10.221700
  H    -84.885100   -2.446090    9.324800
  H    -83.611600   -3.251910    9.974180
  C    -84.770700   -2.045290   11.312900
  H    -84.305300   -2.362310   12.212100
  H    -85.829100   -1.758100   11.411400
  H    -84.234200   -1.139300   11.111100
  H    -88.304000   -0.639089    5.822140
  H    -84.741500   -8.010820    7.647440

 Total Charge           Charge          ....    0
 Multiplicity           Mult            ....    1
 Number of Electrons    NEL             ....  134
 Basis Dimension        Dim             ....  322

ORBITAL ENERGIES
----------------

  NO   OCC          E(Eh)            E(eV)
   0   2.0000     -88.968614     -2420.9591
   1   2.0000     -88.962824     -2420.8015
   2   2.0000     -10.332827      -281.1705
   3   2.0000     -10.322712      -280.8953
   4   2.0000     -10.314928      -280.6835
   5   2.0000     -10.313975      -280.6575
   6   2.0000     -10.300883      -280.3013
   7   2.0000     -10.300745      -280.2975
   8   2.0000     -10.294702      -280.1331
   9   2.0000     -10.292606      -280.0760
  10   2.0000     -10.289394      -279.9887
  11   2.0000     -10.287553      -279.9386
  12   2.0000     -10.285284      -279.8768
  13   2.0000     -10.279548      -279.7207
  14   2.0000     -10.275779      -279.6182
  15   2.0000     -10.268759      -279.4271
  16   2.0000      -8.082718      -219.9419
  17   2.0000      -8.077587      -219.8023
  18   2.0000      -6.041275      -164.3915
  19   2.0000      -6.037239      -164.2816
  20   2.0000      -6.036288      -164.2557
  21   2.0000      -6.033520      -164.1804
  22   2.0000      -6.031999      -164.1390
  23   2.0000      -6.028194      -164.0355
  24   2.0000      -1.010905       -27.5081
  25   2.0000      -0.987994       -26.8847
  26   2.0000      -0.916346       -24.9350
  27   2.0000      -0.910759       -24.7830
  28   2.0000      -0.876343       -23.8465
  29   2.0000      -0.857176       -23.3250
  30   2.0000      -0.848632       -23.0925
  31   2.0000      -0.817067       -22.2335
  32   2.0000      -0.786479       -21.4012
  33   2.0000      -0.773962       -21.0606
  34   2.0000      -0.714611       -19.4456
  35   2.0000      -0.698779       -19.0147
  36   2.0000      -0.692228       -18.8365
  37   2.0000      -0.668975       -18.2037
  38   2.0000      -0.643575       -17.5126
  39   2.0000      -0.627436       -17.0734
  40   2.0000      -0.601515       -16.3681
  41   2.0000      -0.570777       -15.5316
  42   2.0000      -0.564987       -15.3741
  43   2.0000      -0.555058       -15.1039
  44   2.0000      -0.541899       -14.7458
  45   2.0000      -0.527426       -14.3520
  46   2.0000      -0.522661       -14.2223
  47   2.0000      -0.519559       -14.1379
  48   2.0000      -0.513245       -13.9661
  49   2.0000      -0.504445       -13.7267
  50   2.0000      -0.495510       -13.4835
  51   2.0000      -0.483485       -13.1563
  52   2.0000      -0.474252       -12.9050
  53   2.0000      -0.471151       -12.8207
  54   2.0000      -0.456958       -12.4345
  55   2.0000      -0.444977       -12.1084
  56   2.0000      -0.440936       -11.9985
  57   2.0000      -0.437427       -11.9030
  58   2.0000      -0.427565       -11.6346
  59   2.0000      -0.423003       -11.5105
  60   2.0000      -0.416257       -11.3269
  61   2.0000      -0.410356       -11.1664
  62   2.0000      -0.398945       -10.8558
  63   2.0000      -0.338611        -9.2141
  64   2.0000      -0.330496        -8.9933
  65   2.0000      -0.326475        -8.8838
  66   2.0000      -0.312865        -8.5135
  67   0.0000       0.038474         1.0469
  68   0.0000       0.050860         1.3840
  69   0.0000       0.115983         3.1561
  70   0.0000       0.124319         3.3829
  71   0.0000       0.126994         3.4557

MULLIKEN ATOMIC CHARGES
-----------------------
   0 S :    0.110814
   1 C :   -0.109172
   2 C :   -0.071240
   3 C :    0.072595
   4 C :   -0.183474
   5 H :    0.010724
   6 C :    0.031611
   7 H :    0.047292
   8 H :    0.011134
   9 C :   -0.078663
  10 H :    0.035040
  11 H :    0.018591
  12 C :   -0.062992
  13 H :    0.045242
  14 H :    0.031920
  15 H :    0.035883
  16 S :    0.105674
  17 C :   -0.053279
  18 C :   -0.037262
  19 C :   -0.007371
  20 C :   -0.170800
  21 H :   -0.012233
  22 C :    0.115978
  23 H :   -0.008669
  24 H :    0.024988
  25 C :   -0.095761
  26 H :    0.007816
  27 H :    0.013826
  28 C :    0.012224
  29 H :    0.018358
  30 H :    0.029801
  31 H :    0.017158
  32 H :    0.046354
  33 H :    0.047893
Sum of atomic charges:   -0.0000000

LOEWDIN ATOMIC CHARGES
----------------------
   0 S :    0.398816
   1 C :   -0.186944
   2 C :   -0.066511
   3 C :   -0.050363
   4 C :   -0.188113
   5 H :    0.026192
   6 C :   -0.031582
   7 H :    0.034031
   8 H :    0.024254
   9 C :   -0.046027
  10 H :    0.026361
  11 H :    0.018439
  12 C :   -0.077247
  13 H :    0.029109
  14 H :    0.026328
  15 H :    0.035842
  16 S :    0.406389
  17 C :   -0.184102
  18 C :   -0.062964
  19 C :   -0.049647
  20 C :   -0.195247
  21 H :    0.016231
  22 C :   -0.029145
  23 H :    0.020715
  24 H :    0.038319
  25 C :   -0.056555
  26 H :    0.020956
  27 H :    0.025429
  28 C :   -0.059119
  29 H :    0.018075
  30 H :    0.031205
  31 H :    0.028050
  32 H :    0.028810
  33 H :    0.030015

  Mayer bond orders larger than 0.100000
B(  0-S ,  1-C ) :   1.1284 B(  0-S ,  4-C ) :   1.1602 B(  1-C ,  2-C ) :   1.6306
B(  1-C , 32-H ) :   0.9665 B(  2-C ,  3-C ) :   1.2401 B(  2-C ,  6-C ) :   1.0118
B(  3-C ,  4-C ) :   1.5673 B(  3-C ,  5-H ) :   0.9913 B(  4-C , 20-C ) :   1.0139
B(  6-C ,  7-H ) :   0.9422 B(  6-C ,  8-H ) :   0.9444 B(  6-C ,  9-C ) :   1.0659
B(  9-C , 10-H ) :   0.9541 B(  9-C , 11-H ) :   0.9500 B(  9-C , 12-C ) :   1.0847
B( 12-C , 13-H ) :   0.9738 B( 12-C , 14-H ) :   0.9702 B( 12-C , 15-H ) :   0.9688
B( 16-S , 17-C ) :   1.1499 B( 16-S , 20-C ) :   1.1304 B( 17-C , 18-C ) :   1.6173
B( 17-C , 33-H ) :   0.9674 B( 18-C , 19-C ) :   1.2422 B( 18-C , 21-H ) :   0.9968
B( 19-C , 20-C ) :   1.6450 B( 19-C , 22-C ) :   1.0314 B( 22-C , 23-H ) :   0.9286
B( 22-C , 24-H ) :   0.9298 B( 22-C , 25-C ) :   1.0593 B( 25-C , 26-H ) :   0.9480
B( 25-C , 27-H ) :   0.9409 B( 25-C , 28-C ) :   1.1102 B( 28-C , 29-H ) :   0.9704
B( 28-C , 30-H ) :   0.9666 B( 28-C , 31-H ) :   0.9634

Dispersion correction           -0.014834545
FINAL SINGLE POINT ENERGY     -1339.862698096890

DIPOLE MOMENT
-------------
                                X             Y             Z
Electronic contribution:    -15.28946     -19.35743      -6.81042
Nuclear contribution   :     15.83965      19.76486       7.19434
                        -----------------------------------------
Total Dipole Moment    :      0.55018       0.40743       0.38392
                        -----------------------------------------
Magnitude (a.u.)       :      0.78492
Magnitude (Debye)      :      1.99510

Rotational constants in cm-1:     0.016752     0.009445     0.008001
Rotational constants in MHz :   502.215005   283.162264   239.851404

                             ****ORCA TERMINATED NORMALLY****
TOTAL RUN TIME: 0 days 0 hours 0 minutes 21 seconds 189 msec
