                         Program Version 4.2.1 -  RELEASE  -
|  1> ! wB97X-D3 SP def2-SVP
|  2> %pal
|  3> nprocs 24
|  4> end
|  5>
|  6> * xyz 0 1
|  7> S 	 -101.371 	 -0.181792 	 -113.909
|  8> C 	 -101.735 	 1.29075 	 -114.782
|  9> C 	 -103.088 	 1.61136 	 -114.617
| 10> C 	 -103.66 	 0.708637 	 -113.702
| 11> C 	 -102.946 	 -0.309581 	 -113.171
| 12> H 	 -104.723 	 0.849617 	 -113.333
| 13> C 	 -103.941 	 2.70885 	 -115.266
| 14> H 	 -103.427 	 3.61284 	 -115.427
| 15> H 	 -104.765 	 2.86014 	 -114.576
| 16> C 	 -104.411 	 2.41736 	 -116.714
| 17> H 	 -103.493 	 2.367 	 -117.356
| 18> H 	 -104.935 	 1.45465 	 -116.724
| 19> C 	 -105.264 	 3.54373 	 -117.299
| 20> H 	 -106.117 	 3.66619 	 -116.638
| 21> H 	 -104.593 	 4.44508 	 -117.217
| 22> H 	 -105.57 	 3.41908 	 -118.333
| 23> S 	 -102.77 	 -2.97934 	 -112.214
| 24> C 	 -103.324 	 -3.30227 	 -110.64
| 25> C 	 -103.962 	 -2.20708 	 -110.067
| 26> C 	 -103.829 	 -1.03212 	 -110.839
| 27> C 	 -103.227 	 -1.29661 	 -112.108
| 28> H 	 -104.405 	 -2.35888 	 -109.092
| 29> C 	 -104.368 	 0.278079 	 -110.308
| 30> H 	 -103.798 	 1.07569 	 -110.791
| 31> H 	 -104.279 	 0.229695 	 -109.187
| 32> C 	 -105.846 	 0.558377 	 -110.639
| 33> H 	 -105.985 	 0.257853 	 -111.704
| 34> H 	 -105.965 	 1.65112 	 -110.552
| 35> C 	 -106.869 	 -0.183647 	 -109.734
| 36> H 	 -106.449 	 -0.364964 	 -108.749
| 37> H 	 -107.157 	 -1.21418 	 -109.965
| 38> H 	 -107.748 	 0.517145 	 -109.573
| 39> H 	 -101.123 	 1.89656 	 -115.442
| 40> H 	 -103.324 	 -4.28465 	 -110.148
| 41> *
| 42>
| 43>                          ****END OF INPUT****

CARTESIAN COORDINATES (ANGSTROEM)
---------------------------------
  S    -101.371000   -0.181792  -113.909000
  C    -101.735000    1.290750  -114.782000
  C    -103.088000    1.611360  -114.617000
  C    -103.660000    0.708637  -113.702000
  C    -102.946000   -0.309581  -113.171000
  H    -104.723000    0.849617  -113.333000
  C    -103.941000    2.708850  -115.266000
  H    -103.427000    3.612840  -115.427000
  H    -104.765000    2.860140  -114.576000
  C    -104.411000    2.417360  -116.714000
  H    -103.493000    2.367000  -117.356000
  H    -104.935000    1.454650  -116.724000
  C    -105.264000    3.543730  -117.299000
  H    -106.117000    3.666190  -116.638000
  H    -104.593000    4.445080  -117.217000
  H    -105.570000    3.419080  -118.333000
  S    -102.770000   -2.979340  -112.214000
  C    -103.324000   -3.302270  -110.640000
  C    -103.962000   -2.207080  -110.067000
  C    -103.829000   -1.032120  -110.839000
  C    -103.227000   -1.296610  -112.108000
  H    -104.405000   -2.358880  -109.092000
  C    -104.368000    0.278079  -110.308000
  H    -103.798000    1.075690  -110.791000
  H    -104.279000    0.229695  -109.187000
  C    -105.846000    0.558377  -110.639000
  H    -105.985000    0.257853  -111.704000
  H    -105.965000    1.651120  -110.552000
  C    -106.869000   -0.183647  -109.734000
  H    -106.449000   -0.364964  -108.749000
  H    -107.157000   -1.214180  -109.965000
  H    -107.748000    0.517145  -109.573000
  H    -101.123000    1.896560  -115.442000
  H    -103.324000   -4.284650  -110.148000

 Total Charge           Charge          ....    0
 Multiplicity           Mult            ....    1
 Number of Electrons    NEL             ....  134
 Basis Dimension        Dim             ....  322

ORBITAL ENERGIES
----------------

  NO   OCC          E(Eh)            E(eV)
   0   2.0000     -88.972527     -2421.0655
   1   2.0000     -88.964416     -2420.8448
   2   2.0000     -10.333765      -281.1961
   3   2.0000     -10.329253      -281.0733
   4   2.0000     -10.318312      -280.7755
   5   2.0000     -10.317134      -280.7435
   6   2.0000     -10.306470      -280.4533
   7   2.0000     -10.301835      -280.3272
   8   2.0000     -10.294062      -280.1157
   9   2.0000     -10.293986      -280.1136
  10   2.0000     -10.293198      -280.0921
  11   2.0000     -10.292335      -280.0687
  12   2.0000     -10.292081      -280.0618
  13   2.0000     -10.290095      -280.0077
  14   2.0000     -10.284435      -279.8537
  15   2.0000     -10.283260      -279.8217
  16   2.0000      -8.087699      -220.0775
  17   2.0000      -8.079229      -219.8470
  18   2.0000      -6.046029      -164.5208
  19   2.0000      -6.042037      -164.4122
  20   2.0000      -6.038739      -164.3224
  21   2.0000      -6.037793      -164.2967
  22   2.0000      -6.033588      -164.1823
  23   2.0000      -6.030018      -164.0851
  24   2.0000      -1.009994       -27.4833
  25   2.0000      -0.990608       -26.9558
  26   2.0000      -0.913082       -24.8462
  27   2.0000      -0.910162       -24.7668
  28   2.0000      -0.869154       -23.6509
  29   2.0000      -0.850216       -23.1355
  30   2.0000      -0.845261       -23.0007
  31   2.0000      -0.814207       -22.1557
  32   2.0000      -0.784947       -21.3595
  33   2.0000      -0.773462       -21.0470
  34   2.0000      -0.708455       -19.2780
  35   2.0000      -0.695256       -18.9189
  36   2.0000      -0.689222       -18.7547
  37   2.0000      -0.659393       -17.9430
  38   2.0000      -0.642916       -17.4946
  39   2.0000      -0.620544       -16.8859
  40   2.0000      -0.593419       -16.1477
  41   2.0000      -0.573593       -15.6083
  42   2.0000      -0.568806       -15.4780
  43   2.0000      -0.550368       -14.9763
  44   2.0000      -0.546137       -14.8611
  45   2.0000      -0.526351       -14.3227
  46   2.0000      -0.516112       -14.0441
  47   2.0000      -0.509765       -13.8714
  48   2.0000      -0.504947       -13.7403
  49   2.0000      -0.497942       -13.5497
  50   2.0000      -0.491463       -13.3734
  51   2.0000      -0.484783       -13.1916
  52   2.0000      -0.469540       -12.7768
  53   2.0000      -0.463321       -12.6076
  54   2.0000      -0.462642       -12.5891
  55   2.0000      -0.449666       -12.2360
  56   2.0000      -0.443310       -12.0631
  57   2.0000      -0.431749       -11.7485
  58   2.0000      -0.429838       -11.6965
  59   2.0000      -0.426801       -11.6139
  60   2.0000      -0.424404       -11.5486
  61   2.0000      -0.417244       -11.3538
  62   2.0000      -0.411873       -11.2076
  63   2.0000      -0.348718        -9.4891
  64   2.0000      -0.333973        -9.0879
  65   2.0000      -0.330963        -9.0060
  66   2.0000      -0.291329        -7.9275
  67   0.0000       0.028782         0.7832
  68   0.0000       0.069752         1.8981
  69   0.0000       0.116525         3.1708
  70   0.0000       0.124215         3.3801
  71   0.0000       0.129330         3.5192

MULLIKEN ATOMIC CHARGES
-----------------------
   0 S :    0.104250
   1 C :   -0.106903
   2 C :   -0.093276
   3 C :   -0.026744
   4 C :   -0.122172
   5 H :    0.011384
   6 C :    0.089614
   7 H :    0.004393
   8 H :    0.020913
   9 C :   -0.103819
  10 H :    0.032494
  11 H :    0.034987
  12 C :   -0.036782
  13 H :    0.029929
  14 H :    0.027171
  15 H :    0.047552
  16 S :    0.138211
  17 C :   -0.104910
  18 C :   -0.045882
  19 C :   -0.034799
  20 C :   -0.157745
  21 H :    0.017619
  22 C :    0.048511
  23 H :    0.036316
  24 H :    0.037269
  25 C :   -0.089402
  26 H :    0.050928
  27 H :    0.039257
  28 C :   -0.054691
  29 H :    0.008621
  30 H :    0.042544
  31 H :    0.047481
  32 H :    0.042489
  33 H :    0.065193
Sum of atomic charges:   -0.0000000

LOEWDIN ATOMIC CHARGES
----------------------
   0 S :    0.411299
   1 C :   -0.193426
   2 C :   -0.067879
   3 C :   -0.080736
   4 C :   -0.198513
   5 H :    0.032659
   6 C :   -0.024804
   7 H :    0.022313
   8 H :    0.028473
   9 C :   -0.041054
  10 H :    0.026225
  11 H :    0.020919
  12 C :   -0.065222
  13 H :    0.023072
  14 H :    0.028812
  15 H :    0.028035
  16 S :    0.440931
  17 C :   -0.205075
  18 C :   -0.077615
  19 C :   -0.048429
  20 C :   -0.214170
  21 H :    0.031719
  22 C :   -0.034615
  23 H :    0.034107
  24 H :    0.035286
  25 C :   -0.042437
  26 H :    0.027089
  27 H :    0.028506
  28 C :   -0.077600
  29 H :    0.018653
  30 H :    0.028909
  31 H :    0.037456
  32 H :    0.031175
  33 H :    0.035936

  Mayer bond orders larger than 0.100000
B(  0-S ,  1-C ) :   1.1579 B(  0-S ,  4-C ) :   1.1405 B(  1-C ,  2-C ) :   1.5823
B(  1-C ,  4-C ) :   0.1030 B(  1-C , 32-H ) :   0.9676 B(  2-C ,  3-C ) :   1.2782
B(  2-C ,  6-C ) :   1.0251 B(  3-C ,  4-C ) :   1.5814 B(  3-C ,  5-H ) :   0.9781
B(  4-C , 20-C ) :   1.0338 B(  6-C ,  7-H ) :   0.9363 B(  6-C ,  8-H ) :   0.9402
B(  6-C ,  9-C ) :   1.0569 B(  9-C , 10-H ) :   0.9575 B(  9-C , 11-H ) :   0.9571
B(  9-C , 12-C ) :   1.0772 B( 12-C , 13-H ) :   0.9756 B( 12-C , 14-H ) :   0.9720
B( 12-C , 15-H ) :   0.9740 B( 16-S , 17-C ) :   1.1850 B( 16-S , 20-C ) :   1.1611
B( 17-C , 18-C ) :   1.5769 B( 17-C , 20-C ) :   0.1046 B( 17-C , 33-H ) :   0.9618
B( 18-C , 19-C ) :   1.2799 B( 18-C , 21-H ) :   0.9896 B( 19-C , 20-C ) :   1.5274
B( 19-C , 22-C ) :   1.0558 B( 22-C , 23-H ) :   0.9214 B( 22-C , 24-H ) :   0.9386
B( 22-C , 25-C ) :   1.0766 B( 25-C , 26-H ) :   0.9444 B( 25-C , 27-H ) :   0.9614
B( 25-C , 28-C ) :   1.0641 B( 28-C , 29-H ) :   0.9738 B( 28-C , 30-H ) :   0.9739
B( 28-C , 31-H ) :   0.9754

Dispersion correction           -0.014197793
FINAL SINGLE POINT ENERGY     -1339.879781244605

DIPOLE MOMENT
-------------
                                X             Y             Z
Electronic contribution:     21.33819     -20.14195       2.30779
Nuclear contribution   :    -21.84847      20.51763      -2.14028
                        -----------------------------------------
Total Dipole Moment    :     -0.51028       0.37568       0.16751
                        -----------------------------------------
Magnitude (a.u.)       :      0.65543
Magnitude (Debye)      :      1.66596

Rotational constants in cm-1:     0.019249     0.008131     0.006262
Rotational constants in MHz :   577.076871   243.769912   187.719546

                             ****ORCA TERMINATED NORMALLY****
TOTAL RUN TIME: 0 days 0 hours 0 minutes 21 seconds 408 msec
