                         Program Version 4.2.1 -  RELEASE  -
|  1> ! wB97X-D3 SP def2-SVP
|  2> %pal
|  3> nprocs 24
|  4> end
|  5>
|  6> * xyz 0 1
|  7> S 	 -38.989 	 -2.38679 	 14.471
|  8> C 	 -39.2129 	 -2.06129 	 16.1672
|  9> C 	 -40.3805 	 -1.4012 	 16.4534
| 10> C 	 -41.1106 	 -1.15921 	 15.2558
| 11> C 	 -40.5736 	 -1.79178 	 14.1104
| 12> H 	 -42.1274 	 -0.842247 	 15.1217
| 13> C 	 -40.8695 	 -1.1118 	 17.8666
| 14> H 	 -40.1332 	 -1.49714 	 18.6684
| 15> H 	 -41.6779 	 -1.74717 	 18.0141
| 16> C 	 -41.2619 	 0.339598 	 18.287
| 17> H 	 -41.4052 	 0.263676 	 19.3249
| 18> H 	 -40.364 	 0.891758 	 18.1099
| 19> C 	 -42.5122 	 0.959623 	 17.648
| 20> H 	 -42.7929 	 2.01645 	 17.8593
| 21> H 	 -42.3985 	 0.782903 	 16.5735
| 22> H 	 -43.3657 	 0.315688 	 17.9618
| 23> S 	 -41.3817 	 -3.50572 	 12.0821
| 24> C 	 -42.3215 	 -2.98758 	 10.7372
| 25> C 	 -42.7142 	 -1.68994 	 10.9404
| 26> C 	 -41.9643 	 -1.04476 	 12.0271
| 27> C 	 -41.3008 	 -1.92616 	 12.8589
| 28> H 	 -43.2928 	 -1.17516 	 10.1381
| 29> C 	 -42.0159 	 0.468604 	 12.0524
| 30> H 	 -41.4991 	 0.837229 	 11.1672
| 31> H 	 -41.4235 	 0.866002 	 12.8979
| 32> C 	 -43.501 	 0.909494 	 12.2652
| 33> H 	 -43.976 	 0.333132 	 13.0276
| 34> H 	 -44.1115 	 0.74383 	 11.36
| 35> C 	 -43.6379 	 2.3922 	 12.6546
| 36> H 	 -43.0291 	 3.11726 	 12.0151
| 37> H 	 -43.277 	 2.56657 	 13.6498
| 38> H 	 -44.7473 	 2.5713 	 12.6683
| 39> H 	 -38.4726 	 -2.17445 	 17.0111
| 40> H 	 -42.539 	 -3.57033 	 9.87445
| 41> *
| 42>
| 43>                          ****END OF INPUT****

CARTESIAN COORDINATES (ANGSTROEM)
---------------------------------
  S    -38.989000   -2.386790   14.471000
  C    -39.212900   -2.061290   16.167200
  C    -40.380500   -1.401200   16.453400
  C    -41.110600   -1.159210   15.255800
  C    -40.573600   -1.791780   14.110400
  H    -42.127400   -0.842247   15.121700
  C    -40.869500   -1.111800   17.866600
  H    -40.133200   -1.497140   18.668400
  H    -41.677900   -1.747170   18.014100
  C    -41.261900    0.339598   18.287000
  H    -41.405200    0.263676   19.324900
  H    -40.364000    0.891758   18.109900
  C    -42.512200    0.959623   17.648000
  H    -42.792900    2.016450   17.859300
  H    -42.398500    0.782903   16.573500
  H    -43.365700    0.315688   17.961800
  S    -41.381700   -3.505720   12.082100
  C    -42.321500   -2.987580   10.737200
  C    -42.714200   -1.689940   10.940400
  C    -41.964300   -1.044760   12.027100
  C    -41.300800   -1.926160   12.858900
  H    -43.292800   -1.175160   10.138100
  C    -42.015900    0.468604   12.052400
  H    -41.499100    0.837229   11.167200
  H    -41.423500    0.866002   12.897900
  C    -43.501000    0.909494   12.265200
  H    -43.976000    0.333132   13.027600
  H    -44.111500    0.743830   11.360000
  C    -43.637900    2.392200   12.654600
  H    -43.029100    3.117260   12.015100
  H    -43.277000    2.566570   13.649800
  H    -44.747300    2.571300   12.668300
  H    -38.472600   -2.174450   17.011100
  H    -42.539000   -3.570330    9.874450

 Total Charge           Charge          ....    0
 Multiplicity           Mult            ....    1
 Number of Electrons    NEL             ....  134
 Basis Dimension        Dim             ....  322

ORBITAL ENERGIES
----------------

  NO   OCC          E(Eh)            E(eV)
   0   2.0000     -88.971893     -2421.0483
   1   2.0000     -88.958329     -2420.6792
   2   2.0000     -10.332857      -281.1713
   3   2.0000     -10.328110      -281.0422
   4   2.0000     -10.316297      -280.7207
   5   2.0000     -10.315383      -280.6958
   6   2.0000     -10.306115      -280.4436
   7   2.0000     -10.303323      -280.3677
   8   2.0000     -10.298041      -280.2239
   9   2.0000     -10.295986      -280.1680
  10   2.0000     -10.295808      -280.1632
  11   2.0000     -10.293181      -280.0917
  12   2.0000     -10.288286      -279.9585
  13   2.0000     -10.285353      -279.8787
  14   2.0000     -10.284255      -279.8488
  15   2.0000     -10.283934      -279.8401
  16   2.0000      -8.086638      -220.0486
  17   2.0000      -8.073895      -219.7018
  18   2.0000      -6.045086      -164.4951
  19   2.0000      -6.041124      -164.3874
  20   2.0000      -6.037467      -164.2878
  21   2.0000      -6.032475      -164.1520
  22   2.0000      -6.028195      -164.0355
  23   2.0000      -6.024580      -163.9372
  24   2.0000      -1.008547       -27.4440
  25   2.0000      -0.987642       -26.8751
  26   2.0000      -0.911622       -24.8065
  27   2.0000      -0.906000       -24.6535
  28   2.0000      -0.872912       -23.7532
  29   2.0000      -0.850806       -23.1516
  30   2.0000      -0.842282       -22.9197
  31   2.0000      -0.815602       -22.1937
  32   2.0000      -0.783895       -21.3309
  33   2.0000      -0.769805       -20.9475
  34   2.0000      -0.707024       -19.2391
  35   2.0000      -0.700969       -19.0743
  36   2.0000      -0.698424       -19.0051
  37   2.0000      -0.658553       -17.9201
  38   2.0000      -0.638356       -17.3705
  39   2.0000      -0.616374       -16.7724
  40   2.0000      -0.595441       -16.2028
  41   2.0000      -0.577935       -15.7264
  42   2.0000      -0.560245       -15.2451
  43   2.0000      -0.543864       -14.7993
  44   2.0000      -0.539550       -14.6819
  45   2.0000      -0.531155       -14.4535
  46   2.0000      -0.517938       -14.0938
  47   2.0000      -0.512686       -13.9509
  48   2.0000      -0.505055       -13.7433
  49   2.0000      -0.496636       -13.5142
  50   2.0000      -0.487620       -13.2688
  51   2.0000      -0.484755       -13.1909
  52   2.0000      -0.471474       -12.8295
  53   2.0000      -0.465567       -12.6687
  54   2.0000      -0.462422       -12.5831
  55   2.0000      -0.445154       -12.1133
  56   2.0000      -0.440485       -11.9862
  57   2.0000      -0.438845       -11.9416
  58   2.0000      -0.429811       -11.6958
  59   2.0000      -0.426722       -11.6117
  60   2.0000      -0.423653       -11.5282
  61   2.0000      -0.419073       -11.4036
  62   2.0000      -0.406607       -11.0643
  63   2.0000      -0.349060        -9.4984
  64   2.0000      -0.334540        -9.1033
  65   2.0000      -0.322256        -8.7690
  66   2.0000      -0.293393        -7.9836
  67   0.0000       0.027227         0.7409
  68   0.0000       0.076131         2.0716
  69   0.0000       0.117568         3.1992
  70   0.0000       0.120777         3.2865
  71   0.0000       0.126737         3.4487

MULLIKEN ATOMIC CHARGES
-----------------------
   0 S :    0.140528
   1 C :   -0.140341
   2 C :   -0.061925
   3 C :    0.023281
   4 C :   -0.170575
   5 H :    0.016986
   6 C :    0.020985
   7 H :    0.030217
   8 H :    0.022124
   9 C :   -0.033138
  10 H :    0.020341
  11 H :    0.027907
  12 C :   -0.068308
  13 H :    0.054196
  14 H :    0.029470
  15 H :    0.028216
  16 S :    0.088306
  17 C :   -0.078430
  18 C :   -0.047670
  19 C :   -0.084077
  20 C :   -0.136048
  21 H :    0.040553
  22 C :    0.075156
  23 H :    0.042958
  24 H :    0.021103
  25 C :   -0.099914
  26 H :    0.030327
  27 H :    0.035392
  28 C :   -0.055631
  29 H :    0.041844
  30 H :    0.025443
  31 H :    0.041232
  32 H :    0.063448
  33 H :    0.056046
Sum of atomic charges:    0.0000000

LOEWDIN ATOMIC CHARGES
----------------------
   0 S :    0.425982
   1 C :   -0.211287
   2 C :   -0.066697
   3 C :   -0.063082
   4 C :   -0.201386
   5 H :    0.026529
   6 C :   -0.028383
   7 H :    0.041782
   8 H :    0.021681
   9 C :   -0.034280
  10 H :    0.018585
  11 H :    0.021367
  12 C :   -0.073831
  13 H :    0.033697
  14 H :    0.023857
  15 H :    0.028775
  16 S :    0.401190
  17 C :   -0.181398
  18 C :   -0.083108
  19 C :   -0.053983
  20 C :   -0.203649
  21 H :    0.036845
  22 C :   -0.032619
  23 H :    0.034700
  24 H :    0.029559
  25 C :   -0.038860
  26 H :    0.023085
  27 H :    0.023782
  28 C :   -0.071663
  29 H :    0.031762
  30 H :    0.017591
  31 H :    0.032982
  32 H :    0.041848
  33 H :    0.028630

  Mayer bond orders larger than 0.100000
B(  0-S ,  1-C ) :   1.1377 B(  0-S ,  4-C ) :   1.1623 B(  1-C ,  2-C ) :   1.6229
B(  1-C , 32-H ) :   0.9525 B(  2-C ,  3-C ) :   1.2508 B(  2-C ,  6-C ) :   1.0129
B(  3-C ,  4-C ) :   1.5518 B(  3-C ,  5-H ) :   0.9817 B(  4-C , 20-C ) :   1.0632
B(  6-C ,  7-H ) :   0.9426 B(  6-C ,  8-H ) :   0.9384 B(  6-C ,  9-C ) :   1.0672
B(  9-C , 10-H ) :   0.9550 B(  9-C , 11-H ) :   0.9580 B(  9-C , 12-C ) :   1.0663
B( 12-C , 13-H ) :   0.9729 B( 12-C , 14-H ) :   0.9745 B( 12-C , 15-H ) :   0.9743
B( 16-S , 17-C ) :   1.1653 B( 16-S , 20-C ) :   1.1090 B( 17-C , 18-C ) :   1.6180
B( 17-C , 33-H ) :   0.9721 B( 18-C , 19-C ) :   1.2123 B( 18-C , 21-H ) :   0.9789
B( 19-C , 20-C ) :   1.6128 B( 19-C , 22-C ) :   1.0515 B( 22-C , 23-H ) :   0.9337
B( 22-C , 24-H ) :   0.9413 B( 22-C , 25-C ) :   1.0444 B( 25-C , 26-H ) :   0.9582
B( 25-C , 27-H ) :   0.9549 B( 25-C , 28-C ) :   1.0873 B( 28-C , 29-H ) :   0.9727
B( 28-C , 30-H ) :   0.9750 B( 28-C , 31-H ) :   0.9739

Dispersion correction           -0.014307632
FINAL SINGLE POINT ENERGY     -1339.867635628727

DIPOLE MOMENT
-------------
                                X             Y             Z
Electronic contribution:     15.33996     -24.30554     -11.99067
Nuclear contribution   :    -15.68899      24.76482      12.17745
                        -----------------------------------------
Total Dipole Moment    :     -0.34903       0.45928       0.18678
                        -----------------------------------------
Magnitude (a.u.)       :      0.60634
Magnitude (Debye)      :      1.54120

Rotational constants in cm-1:     0.015939     0.010073     0.006758
Rotational constants in MHz :   477.825918   301.979976   202.607254

                             ****ORCA TERMINATED NORMALLY****
TOTAL RUN TIME: 0 days 0 hours 0 minutes 21 seconds 858 msec
