                         Program Version 4.2.1 -  RELEASE  -
|  1> ! wB97X-D3 SP def2-SVP
|  2> %pal
|  3> nprocs 24
|  4> end
|  5>
|  6> * xyz 0 1
|  7> S 	 -38.6786 	 12.0334 	 -10.1491
|  8> C 	 -38.0665 	 10.4776 	 -10.6622
|  9> C 	 -38.1797 	 9.49722 	 -9.64863
| 10> C 	 -38.6892 	 10.0659 	 -8.4564
| 11> C 	 -38.9572 	 11.4087 	 -8.4952
| 12> H 	 -38.9555 	 9.50655 	 -7.60129
| 13> C 	 -37.7602 	 8.09961 	 -9.80771
| 14> H 	 -37.3124 	 7.6675 	 -8.85454
| 15> H 	 -36.7412 	 8.03741 	 -10.3829
| 16> C 	 -38.7429 	 7.09843 	 -10.3861
| 17> H 	 -39.7601 	 7.22155 	 -10.0745
| 18> H 	 -38.8811 	 7.35196 	 -11.4561
| 19> C 	 -38.3735 	 5.55205 	 -10.3001
| 20> H 	 -38.6057 	 5.17636 	 -9.32766
| 21> H 	 -39.0036 	 4.97051 	 -10.9429
| 22> H 	 -37.317 	 5.28505 	 -10.6004
| 23> S 	 -41.1638 	 12.3972 	 -7.39477
| 24> C 	 -41.1077 	 13.4989 	 -6.07408
| 25> C 	 -39.8143 	 13.5532 	 -5.59538
| 26> C 	 -38.7975 	 12.7875 	 -6.31894
| 27> C 	 -39.4496 	 12.2233 	 -7.38307
| 28> H 	 -39.735 	 14.2989 	 -4.75321
| 29> C 	 -37.2989 	 12.8503 	 -5.96451
| 30> H 	 -36.7708 	 12.0765 	 -6.58757
| 31> H 	 -37.1839 	 12.5286 	 -4.99216
| 32> C 	 -36.585 	 14.2375 	 -6.2624
| 33> H 	 -37.0551 	 15.1374 	 -5.83118
| 34> H 	 -36.5646 	 14.2812 	 -7.3517
| 35> C 	 -35.111 	 14.1309 	 -5.78265
| 36> H 	 -34.5778 	 13.22 	 -6.18641
| 37> H 	 -35.1495 	 14.0495 	 -4.68638
| 38> H 	 -34.5417 	 15.0322 	 -5.97648
| 39> H 	 -37.7361 	 10.1656 	 -11.6635
| 40> H 	 -42.0139 	 13.9098 	 -5.70081
| 41> *
| 42>
| 43>                          ****END OF INPUT****

CARTESIAN COORDINATES (ANGSTROEM)
---------------------------------
  S    -38.678600   12.033400  -10.149100
  C    -38.066500   10.477600  -10.662200
  C    -38.179700    9.497220   -9.648630
  C    -38.689200   10.065900   -8.456400
  C    -38.957200   11.408700   -8.495200
  H    -38.955500    9.506550   -7.601290
  C    -37.760200    8.099610   -9.807710
  H    -37.312400    7.667500   -8.854540
  H    -36.741200    8.037410  -10.382900
  C    -38.742900    7.098430  -10.386100
  H    -39.760100    7.221550  -10.074500
  H    -38.881100    7.351960  -11.456100
  C    -38.373500    5.552050  -10.300100
  H    -38.605700    5.176360   -9.327660
  H    -39.003600    4.970510  -10.942900
  H    -37.317000    5.285050  -10.600400
  S    -41.163800   12.397200   -7.394770
  C    -41.107700   13.498900   -6.074080
  C    -39.814300   13.553200   -5.595380
  C    -38.797500   12.787500   -6.318940
  C    -39.449600   12.223300   -7.383070
  H    -39.735000   14.298900   -4.753210
  C    -37.298900   12.850300   -5.964510
  H    -36.770800   12.076500   -6.587570
  H    -37.183900   12.528600   -4.992160
  C    -36.585000   14.237500   -6.262400
  H    -37.055100   15.137400   -5.831180
  H    -36.564600   14.281200   -7.351700
  C    -35.111000   14.130900   -5.782650
  H    -34.577800   13.220000   -6.186410
  H    -35.149500   14.049500   -4.686380
  H    -34.541700   15.032200   -5.976480
  H    -37.736100   10.165600  -11.663500
  H    -42.013900   13.909800   -5.700810

 Total Charge           Charge          ....    0
 Multiplicity           Mult            ....    1
 Number of Electrons    NEL             ....  134
 Basis Dimension        Dim             ....  322

ORBITAL ENERGIES
----------------

  NO   OCC          E(Eh)            E(eV)
   0   2.0000     -88.969075     -2420.9716
   1   2.0000     -88.958932     -2420.6956
   2   2.0000     -10.326552      -280.9998
   3   2.0000     -10.322722      -280.8955
   4   2.0000     -10.318328      -280.7760
   5   2.0000     -10.310909      -280.5741
   6   2.0000     -10.310427      -280.5610
   7   2.0000     -10.300586      -280.2932
   8   2.0000     -10.299440      -280.2620
   9   2.0000     -10.298598      -280.2391
  10   2.0000     -10.296853      -280.1916
  11   2.0000     -10.293134      -280.0904
  12   2.0000     -10.289611      -279.9945
  13   2.0000     -10.288303      -279.9590
  14   2.0000     -10.283263      -279.8218
  15   2.0000     -10.282438      -279.7994
  16   2.0000      -8.082753      -219.9429
  17   2.0000      -8.075279      -219.7395
  18   2.0000      -6.041251      -164.3908
  19   2.0000      -6.037399      -164.2860
  20   2.0000      -6.033630      -164.1834
  21   2.0000      -6.033602      -164.1827
  22   2.0000      -6.029511      -164.0713
  23   2.0000      -6.026162      -163.9802
  24   2.0000      -1.007614       -27.4186
  25   2.0000      -0.982841       -26.7445
  26   2.0000      -0.906587       -24.6695
  27   2.0000      -0.902233       -24.5510
  28   2.0000      -0.865947       -23.5636
  29   2.0000      -0.848712       -23.0946
  30   2.0000      -0.847093       -23.0506
  31   2.0000      -0.812183       -22.1006
  32   2.0000      -0.780562       -21.2402
  33   2.0000      -0.769850       -20.9487
  34   2.0000      -0.705311       -19.1925
  35   2.0000      -0.701073       -19.0772
  36   2.0000      -0.695036       -18.9129
  37   2.0000      -0.658245       -17.9118
  38   2.0000      -0.641053       -17.4439
  39   2.0000      -0.619926       -16.8691
  40   2.0000      -0.596614       -16.2347
  41   2.0000      -0.566496       -15.4152
  42   2.0000      -0.563486       -15.3332
  43   2.0000      -0.545248       -14.8370
  44   2.0000      -0.526279       -14.3208
  45   2.0000      -0.522119       -14.2076
  46   2.0000      -0.520349       -14.1594
  47   2.0000      -0.509589       -13.8666
  48   2.0000      -0.497778       -13.5452
  49   2.0000      -0.495354       -13.4793
  50   2.0000      -0.491922       -13.3859
  51   2.0000      -0.473745       -12.8913
  52   2.0000      -0.467810       -12.7298
  53   2.0000      -0.462513       -12.5856
  54   2.0000      -0.456398       -12.4192
  55   2.0000      -0.448292       -12.1986
  56   2.0000      -0.442653       -12.0452
  57   2.0000      -0.435972       -11.8634
  58   2.0000      -0.435100       -11.8397
  59   2.0000      -0.429293       -11.6816
  60   2.0000      -0.425091       -11.5673
  61   2.0000      -0.422081       -11.4854
  62   2.0000      -0.396870       -10.7994
  63   2.0000      -0.338000        -9.1975
  64   2.0000      -0.327107        -8.9010
  65   2.0000      -0.322572        -8.7776
  66   2.0000      -0.308373        -8.3912
  67   0.0000       0.044822         1.2197
  68   0.0000       0.057226         1.5572
  69   0.0000       0.116720         3.1761
  70   0.0000       0.123312         3.3555
  71   0.0000       0.127045         3.4571

MULLIKEN ATOMIC CHARGES
-----------------------
   0 S :    0.122272
   1 C :   -0.112101
   2 C :   -0.066786
   3 C :    0.072667
   4 C :   -0.172871
   5 H :   -0.001963
   6 C :   -0.004128
   7 H :    0.026545
   8 H :    0.037504
   9 C :   -0.055001
  10 H :    0.023093
  11 H :    0.018608
  12 C :   -0.049823
  13 H :    0.030399
  14 H :    0.025385
  15 H :    0.040953
  16 S :    0.110601
  17 C :   -0.094522
  18 C :   -0.068840
  19 C :    0.028067
  20 C :   -0.222411
  21 H :    0.034921
  22 C :    0.083913
  23 H :    0.032901
  24 H :    0.011030
  25 C :   -0.078890
  26 H :    0.044856
  27 H :    0.039679
  28 C :   -0.067705
  29 H :    0.043276
  30 H :    0.027312
  31 H :    0.038895
  32 H :    0.052853
  33 H :    0.049311
Sum of atomic charges:    0.0000000

LOEWDIN ATOMIC CHARGES
----------------------
   0 S :    0.397060
   1 C :   -0.196326
   2 C :   -0.071113
   3 C :   -0.050474
   4 C :   -0.195163
   5 H :    0.027724
   6 C :   -0.054349
   7 H :    0.034030
   8 H :    0.042680
   9 C :   -0.044390
  10 H :    0.023057
  11 H :    0.024357
  12 C :   -0.065251
  13 H :    0.020736
  14 H :    0.024587
  15 H :    0.031318
  16 S :    0.423441
  17 C :   -0.193158
  18 C :   -0.078583
  19 C :   -0.049787
  20 C :   -0.207659
  21 H :    0.037127
  22 C :   -0.021789
  23 H :    0.039732
  24 H :    0.017861
  25 C :   -0.033181
  26 H :    0.026994
  27 H :    0.026827
  28 C :   -0.071965
  29 H :    0.031858
  30 H :    0.023649
  31 H :    0.024351
  32 H :    0.033381
  33 H :    0.022420

  Mayer bond orders larger than 0.100000
B(  0-S ,  1-C ) :   1.1528 B(  0-S ,  4-C ) :   1.1338 B(  1-C ,  2-C ) :   1.5925
B(  1-C ,  4-C ) :   0.1015 B(  1-C , 32-H ) :   0.9619 B(  2-C ,  3-C ) :   1.2542
B(  2-C ,  6-C ) :   1.0313 B(  3-C ,  4-C ) :   1.5906 B(  3-C ,  5-H ) :   1.0002
B(  4-C , 20-C ) :   0.9951 B(  6-C ,  7-H ) :   0.9450 B(  6-C ,  8-H ) :   0.9365
B(  6-C ,  9-C ) :   1.0492 B(  9-C , 10-H ) :   0.9574 B(  9-C , 11-H ) :   0.9534
B(  9-C , 12-C ) :   1.0728 B( 12-C , 13-H ) :   0.9775 B( 12-C , 14-H ) :   0.9745
B( 12-C , 15-H ) :   0.9773 B( 16-S , 17-C ) :   1.1438 B( 16-S , 20-C ) :   1.1802
B( 17-C , 18-C ) :   1.6331 B( 17-C , 33-H ) :   0.9764 B( 18-C , 19-C ) :   1.1817
B( 18-C , 21-H ) :   0.9804 B( 19-C , 20-C ) :   1.6219 B( 19-C , 22-C ) :   1.0446
B( 22-C , 23-H ) :   0.9329 B( 22-C , 24-H ) :   0.9344 B( 22-C , 25-C ) :   1.0515
B( 25-C , 26-H ) :   0.9609 B( 25-C , 27-H ) :   0.9566 B( 25-C , 28-C ) :   1.0773
B( 28-C , 29-H ) :   0.9735 B( 28-C , 30-H ) :   0.9767 B( 28-C , 31-H ) :   0.9743

Dispersion correction           -0.013554817
FINAL SINGLE POINT ENERGY     -1339.869953789124

DIPOLE MOMENT
-------------
                                X             Y             Z
Electronic contribution:    -17.43674      13.29331      -3.30581
Nuclear contribution   :     17.67736     -13.53892       3.57160
                        -----------------------------------------
Total Dipole Moment    :      0.24063      -0.24560       0.26578
                        -----------------------------------------
Magnitude (a.u.)       :      0.43458
Magnitude (Debye)      :      1.10462

Rotational constants in cm-1:     0.019101     0.007232     0.006264
Rotational constants in MHz :   572.620537   216.795220   187.777756

                             ****ORCA TERMINATED NORMALLY****
TOTAL RUN TIME: 0 days 0 hours 0 minutes 19 seconds 519 msec
