                         Program Version 4.2.1 -  RELEASE  -
|  1> ! wB97X-D3 SP def2-SVP
|  2> %pal
|  3> nprocs 24
|  4> end
|  5>
|  6> * xyz 0 1
|  7> S 	 -125.175 	 59.9278 	 -58.6441
|  8> C 	 -123.684 	 60.7376 	 -58.6054
|  9> C 	 -123.735 	 61.9846 	 -57.9414
| 10> C 	 -125.047 	 62.3116 	 -57.5086
| 11> C 	 -125.872 	 61.1949 	 -57.6643
| 12> H 	 -125.414 	 63.184 	 -56.9149
| 13> C 	 -122.6 	 63.033 	 -57.9531
| 14> H 	 -121.697 	 62.7328 	 -58.5232
| 15> H 	 -122.23 	 63.0081 	 -56.8989
| 16> C 	 -122.967 	 64.4908 	 -58.4286
| 17> H 	 -123.279 	 64.4229 	 -59.4858
| 18> H 	 -123.808 	 64.7911 	 -57.8489
| 19> C 	 -121.848 	 65.4206 	 -58.0667
| 20> H 	 -121.681 	 65.4565 	 -56.9787
| 21> H 	 -120.858 	 65.1797 	 -58.4459
| 22> H 	 -121.998 	 66.4006 	 -58.4865
| 23> S 	 -128.512 	 61.156 	 -58.3389
| 24> C 	 -129.736 	 61.3047 	 -57.0863
| 25> C 	 -129.131 	 61.0662 	 -55.8751
| 26> C 	 -127.736 	 60.9787 	 -55.9315
| 27> C 	 -127.222 	 61.0803 	 -57.1821
| 28> H 	 -129.792 	 61.0283 	 -55.0539
| 29> C 	 -126.911 	 60.7889 	 -54.6581
| 30> H 	 -126.48 	 61.7908 	 -54.445
| 31> H 	 -126.122 	 60.077 	 -54.8269
| 32> C 	 -127.612 	 60.1589 	 -53.5053
| 33> H 	 -128.16 	 59.3103 	 -53.8663
| 34> H 	 -128.32 	 60.9199 	 -53.1413
| 35> C 	 -126.744 	 59.7373 	 -52.34
| 36> H 	 -127.423 	 59.4902 	 -51.4597
| 37> H 	 -126.237 	 60.6192 	 -51.9448
| 38> H 	 -126.072 	 58.9511 	 -52.5515
| 39> H 	 -122.819 	 60.2285 	 -58.9184
| 40> H 	 -130.798 	 61.3189 	 -57.2024
| 41> *
| 42>
| 43>                          ****END OF INPUT****

CARTESIAN COORDINATES (ANGSTROEM)
---------------------------------
  S    -125.175000   59.927800  -58.644100
  C    -123.684000   60.737600  -58.605400
  C    -123.735000   61.984600  -57.941400
  C    -125.047000   62.311600  -57.508600
  C    -125.872000   61.194900  -57.664300
  H    -125.414000   63.184000  -56.914900
  C    -122.600000   63.033000  -57.953100
  H    -121.697000   62.732800  -58.523200
  H    -122.230000   63.008100  -56.898900
  C    -122.967000   64.490800  -58.428600
  H    -123.279000   64.422900  -59.485800
  H    -123.808000   64.791100  -57.848900
  C    -121.848000   65.420600  -58.066700
  H    -121.681000   65.456500  -56.978700
  H    -120.858000   65.179700  -58.445900
  H    -121.998000   66.400600  -58.486500
  S    -128.512000   61.156000  -58.338900
  C    -129.736000   61.304700  -57.086300
  C    -129.131000   61.066200  -55.875100
  C    -127.736000   60.978700  -55.931500
  C    -127.222000   61.080300  -57.182100
  H    -129.792000   61.028300  -55.053900
  C    -126.911000   60.788900  -54.658100
  H    -126.480000   61.790800  -54.445000
  H    -126.122000   60.077000  -54.826900
  C    -127.612000   60.158900  -53.505300
  H    -128.160000   59.310300  -53.866300
  H    -128.320000   60.919900  -53.141300
  C    -126.744000   59.737300  -52.340000
  H    -127.423000   59.490200  -51.459700
  H    -126.237000   60.619200  -51.944800
  H    -126.072000   58.951100  -52.551500
  H    -122.819000   60.228500  -58.918400
  H    -130.798000   61.318900  -57.202400

 Total Charge           Charge          ....    0
 Multiplicity           Mult            ....    1
 Number of Electrons    NEL             ....  134
 Basis Dimension        Dim             ....  322

ORBITAL ENERGIES
----------------

  NO   OCC          E(Eh)            E(eV)
   0   2.0000     -88.968424     -2420.9539
   1   2.0000     -88.958619     -2420.6871
   2   2.0000     -10.325407      -280.9686
   3   2.0000     -10.315082      -280.6876
   4   2.0000     -10.311563      -280.5919
   5   2.0000     -10.308295      -280.5030
   6   2.0000     -10.305230      -280.4196
   7   2.0000     -10.299634      -280.2673
   8   2.0000     -10.296647      -280.1860
   9   2.0000     -10.294641      -280.1314
  10   2.0000     -10.288237      -279.9572
  11   2.0000     -10.283809      -279.8367
  12   2.0000     -10.283653      -279.8324
  13   2.0000     -10.278601      -279.6949
  14   2.0000     -10.277947      -279.6771
  15   2.0000     -10.276898      -279.6486
  16   2.0000      -8.084215      -219.9827
  17   2.0000      -8.073799      -219.6993
  18   2.0000      -6.042365      -164.4211
  19   2.0000      -6.038623      -164.3193
  20   2.0000      -6.035263      -164.2279
  21   2.0000      -6.032326      -164.1479
  22   2.0000      -6.028130      -164.0338
  23   2.0000      -6.024641      -163.9388
  24   2.0000      -1.011634       -27.5280
  25   2.0000      -0.988139       -26.8886
  26   2.0000      -0.915102       -24.9012
  27   2.0000      -0.907621       -24.6976
  28   2.0000      -0.872641       -23.7458
  29   2.0000      -0.855916       -23.2907
  30   2.0000      -0.848008       -23.0755
  31   2.0000      -0.813763       -22.1436
  32   2.0000      -0.779754       -21.2182
  33   2.0000      -0.768836       -20.9211
  34   2.0000      -0.709452       -19.3052
  35   2.0000      -0.697881       -18.9903
  36   2.0000      -0.693965       -18.8837
  37   2.0000      -0.651942       -17.7402
  38   2.0000      -0.647371       -17.6158
  39   2.0000      -0.618987       -16.8435
  40   2.0000      -0.596932       -16.2433
  41   2.0000      -0.581567       -15.8252
  42   2.0000      -0.565609       -15.3910
  43   2.0000      -0.564221       -15.3532
  44   2.0000      -0.526767       -14.3341
  45   2.0000      -0.521300       -14.1853
  46   2.0000      -0.517576       -14.0840
  47   2.0000      -0.507631       -13.8133
  48   2.0000      -0.502916       -13.6850
  49   2.0000      -0.501282       -13.6406
  50   2.0000      -0.495373       -13.4798
  51   2.0000      -0.481984       -13.1155
  52   2.0000      -0.475544       -12.9402
  53   2.0000      -0.466072       -12.6825
  54   2.0000      -0.459346       -12.4995
  55   2.0000      -0.452777       -12.3207
  56   2.0000      -0.444818       -12.1041
  57   2.0000      -0.434481       -11.8228
  58   2.0000      -0.430020       -11.7014
  59   2.0000      -0.427619       -11.6361
  60   2.0000      -0.414028       -11.2663
  61   2.0000      -0.411329       -11.1928
  62   2.0000      -0.411017       -11.1843
  63   2.0000      -0.341332        -9.2881
  64   2.0000      -0.330852        -9.0030
  65   2.0000      -0.324259        -8.8235
  66   2.0000      -0.294956        -8.0261
  67   0.0000       0.040287         1.0963
  68   0.0000       0.058018         1.5788
  69   0.0000       0.117039         3.1848
  70   0.0000       0.126331         3.4376
  71   0.0000       0.132684         3.6105

MULLIKEN ATOMIC CHARGES
-----------------------
   0 S :    0.134381
   1 C :   -0.107136
   2 C :   -0.054550
   3 C :    0.019476
   4 C :   -0.194735
   5 H :    0.045194
   6 C :   -0.002608
   7 H :    0.022968
   8 H :    0.033729
   9 C :   -0.045751
  10 H :    0.049268
  11 H :    0.023875
  12 C :   -0.039055
  13 H :    0.031813
  14 H :    0.017185
  15 H :    0.030409
  16 S :    0.099431
  17 C :   -0.079164
  18 C :   -0.054019
  19 C :   -0.018525
  20 C :   -0.176429
  21 H :    0.003122
  22 C :    0.110451
  23 H :    0.033675
  24 H :    0.017613
  25 C :   -0.115926
  26 H :    0.029590
  27 H :    0.026198
  28 C :   -0.018518
  29 H :    0.036173
  30 H :    0.021816
  31 H :    0.036169
  32 H :    0.037141
  33 H :    0.046739
Sum of atomic charges:   -0.0000000

LOEWDIN ATOMIC CHARGES
----------------------
   0 S :    0.438319
   1 C :   -0.210959
   2 C :   -0.062629
   3 C :   -0.059879
   4 C :   -0.197421
   5 H :    0.045125
   6 C :   -0.038686
   7 H :    0.027757
   8 H :    0.032588
   9 C :   -0.035605
  10 H :    0.032622
  11 H :    0.019757
  12 C :   -0.066566
  13 H :    0.030365
  14 H :    0.021831
  15 H :    0.025719
  16 S :    0.404929
  17 C :   -0.178721
  18 C :   -0.072719
  19 C :   -0.061289
  20 C :   -0.212009
  21 H :    0.025077
  22 C :   -0.030924
  23 H :    0.034428
  24 H :    0.028239
  25 C :   -0.048586
  26 H :    0.023125
  27 H :    0.022950
  28 C :   -0.061029
  29 H :    0.037408
  30 H :    0.025520
  31 H :    0.018566
  32 H :    0.015929
  33 H :    0.026768

  Mayer bond orders larger than 0.100000
B(  0-S ,  1-C ) :   1.1617 B(  0-S ,  4-C ) :   1.1808 B(  1-C ,  2-C ) :   1.5793
B(  1-C ,  4-C ) :   0.1056 B(  1-C , 32-H ) :   0.9734 B(  2-C ,  3-C ) :   1.2515
B(  2-C ,  6-C ) :   1.0092 B(  3-C ,  4-C ) :   1.5699 B(  3-C ,  5-H ) :   0.9802
B(  4-C , 20-C ) :   1.0169 B(  6-C ,  7-H ) :   0.9549 B(  6-C ,  8-H ) :   0.9376
B(  6-C ,  9-C ) :   1.0572 B(  9-C , 10-H ) :   0.9575 B(  9-C , 11-H ) :   0.9486
B(  9-C , 12-C ) :   1.0838 B( 12-C , 13-H ) :   0.9726 B( 12-C , 14-H ) :   0.9738
B( 12-C , 15-H ) :   0.9709 B( 16-S , 17-C ) :   1.1592 B( 16-S , 20-C ) :   1.1473
B( 17-C , 18-C ) :   1.5998 B( 17-C , 20-C ) :   0.1044 B( 17-C , 33-H ) :   0.9662
B( 18-C , 19-C ) :   1.2420 B( 18-C , 21-H ) :   0.9996 B( 19-C , 20-C ) :   1.6200
B( 19-C , 22-C ) :   1.0211 B( 22-C , 23-H ) :   0.9206 B( 22-C , 24-H ) :   0.9361
B( 22-C , 25-C ) :   1.0895 B( 25-C , 26-H ) :   0.9549 B( 25-C , 27-H ) :   0.9382
B( 25-C , 28-C ) :   1.0994 B( 28-C , 29-H ) :   0.9700 B( 28-C , 30-H ) :   0.9690
B( 28-C , 31-H ) :   0.9738

Dispersion correction           -0.013490624
FINAL SINGLE POINT ENERGY     -1339.871764383377

DIPOLE MOMENT
-------------
                                X             Y             Z
Electronic contribution:    -13.78381     -11.65916     -18.30928
Nuclear contribution   :     14.02979      11.89673      18.81721
                        -----------------------------------------
Total Dipole Moment    :      0.24598       0.23756       0.50793
                        -----------------------------------------
Magnitude (a.u.)       :      0.61232
Magnitude (Debye)      :      1.55640

Rotational constants in cm-1:     0.017555     0.007652     0.006659
Rotational constants in MHz :   526.282427   229.409586   199.640023

                             ****ORCA TERMINATED NORMALLY****
TOTAL RUN TIME: 0 days 0 hours 0 minutes 20 seconds 30 msec
