                         Program Version 4.2.1 -  RELEASE  -
|  1> ! wB97X-D3 SP def2-SVP
|  2> %pal
|  3> nprocs 24
|  4> end
|  5>
|  6> * xyz 0 1
|  7> S 	 48.9184 	 -24.4173 	 -117.241
|  8> C 	 47.3338 	 -24.572 	 -117.897
|  9> C 	 46.6715 	 -23.3767 	 -117.883
| 10> C 	 47.4253 	 -22.3154 	 -117.306
| 11> C 	 48.6983 	 -22.7294 	 -116.87
| 12> H 	 47.1491 	 -21.3059 	 -116.996
| 13> C 	 45.2781 	 -23.0803 	 -118.45
| 14> H 	 44.8392 	 -24.0817 	 -118.764
| 15> H 	 45.2287 	 -22.4657 	 -119.352
| 16> C 	 44.2458 	 -22.4687 	 -117.461
| 17> H 	 44.2542 	 -21.3253 	 -117.427
| 18> H 	 43.322 	 -22.7011 	 -117.986
| 19> C 	 44.3432 	 -22.9407 	 -116.011
| 20> H 	 45.1869 	 -22.4572 	 -115.495
| 21> H 	 43.5304 	 -22.7378 	 -115.403
| 22> H 	 44.477 	 -23.9755 	 -116.025
| 23> S 	 50.9942 	 -21.3063 	 -117.168
| 24> C 	 51.8256 	 -20.802 	 -115.767
| 25> C 	 51.0176 	 -20.889 	 -114.653
| 26> C 	 49.7053 	 -21.4155 	 -114.898
| 27> C 	 49.6831 	 -21.9368 	 -116.197
| 28> H 	 51.4226 	 -20.7355 	 -113.731
| 29> C 	 48.6212 	 -21.5899 	 -113.839
| 30> H 	 47.7593 	 -21.0956 	 -114.29
| 31> H 	 48.7998 	 -21.1217 	 -112.962
| 32> C 	 48.2423 	 -23.0393 	 -113.461
| 33> H 	 49.0782 	 -23.6736 	 -113.183
| 34> H 	 47.8174 	 -23.4721 	 -114.322
| 35> C 	 47.1756 	 -23.0931 	 -112.385
| 36> H 	 46.4187 	 -22.338 	 -112.418
| 37> H 	 47.6105 	 -22.9623 	 -111.369
| 38> H 	 46.7163 	 -24.059 	 -112.173
| 39> H 	 46.8469 	 -25.5221 	 -117.967
| 40> H 	 52.8595 	 -20.579 	 -115.636
| 41> *
| 42>
| 43>                          ****END OF INPUT****

CARTESIAN COORDINATES (ANGSTROEM)
---------------------------------
  S     48.918400  -24.417300  -117.241000
  C     47.333800  -24.572000  -117.897000
  C     46.671500  -23.376700  -117.883000
  C     47.425300  -22.315400  -117.306000
  C     48.698300  -22.729400  -116.870000
  H     47.149100  -21.305900  -116.996000
  C     45.278100  -23.080300  -118.450000
  H     44.839200  -24.081700  -118.764000
  H     45.228700  -22.465700  -119.352000
  C     44.245800  -22.468700  -117.461000
  H     44.254200  -21.325300  -117.427000
  H     43.322000  -22.701100  -117.986000
  C     44.343200  -22.940700  -116.011000
  H     45.186900  -22.457200  -115.495000
  H     43.530400  -22.737800  -115.403000
  H     44.477000  -23.975500  -116.025000
  S     50.994200  -21.306300  -117.168000
  C     51.825600  -20.802000  -115.767000
  C     51.017600  -20.889000  -114.653000
  C     49.705300  -21.415500  -114.898000
  C     49.683100  -21.936800  -116.197000
  H     51.422600  -20.735500  -113.731000
  C     48.621200  -21.589900  -113.839000
  H     47.759300  -21.095600  -114.290000
  H     48.799800  -21.121700  -112.962000
  C     48.242300  -23.039300  -113.461000
  H     49.078200  -23.673600  -113.183000
  H     47.817400  -23.472100  -114.322000
  C     47.175600  -23.093100  -112.385000
  H     46.418700  -22.338000  -112.418000
  H     47.610500  -22.962300  -111.369000
  H     46.716300  -24.059000  -112.173000
  H     46.846900  -25.522100  -117.967000
  H     52.859500  -20.579000  -115.636000

 Total Charge           Charge          ....    0
 Multiplicity           Mult            ....    1
 Number of Electrons    NEL             ....  134
 Basis Dimension        Dim             ....  322

ORBITAL ENERGIES
----------------

  NO   OCC          E(Eh)            E(eV)
   0   2.0000     -88.965833     -2420.8834
   1   2.0000     -88.963135     -2420.8100
   2   2.0000     -10.325866      -280.9811
   3   2.0000     -10.321499      -280.8623
   4   2.0000     -10.311425      -280.5882
   5   2.0000     -10.307237      -280.4742
   6   2.0000     -10.306690      -280.4593
   7   2.0000     -10.302663      -280.3497
   8   2.0000     -10.299505      -280.2638
   9   2.0000     -10.295773      -280.1622
  10   2.0000     -10.291807      -280.0543
  11   2.0000     -10.287034      -279.9244
  12   2.0000     -10.283587      -279.8306
  13   2.0000     -10.278974      -279.7051
  14   2.0000     -10.274690      -279.5885
  15   2.0000     -10.267626      -279.3963
  16   2.0000      -8.081079      -219.8973
  17   2.0000      -8.078763      -219.8343
  18   2.0000      -6.039456      -164.3419
  19   2.0000      -6.037210      -164.2808
  20   2.0000      -6.035356      -164.2304
  21   2.0000      -6.033179      -164.1712
  22   2.0000      -6.032083      -164.1413
  23   2.0000      -6.029503      -164.0711
  24   2.0000      -1.010260       -27.4906
  25   2.0000      -0.988318       -26.8935
  26   2.0000      -0.911614       -24.8063
  27   2.0000      -0.908313       -24.7165
  28   2.0000      -0.872407       -23.7394
  29   2.0000      -0.852510       -23.1980
  30   2.0000      -0.845437       -23.0055
  31   2.0000      -0.813698       -22.1418
  32   2.0000      -0.789633       -21.4870
  33   2.0000      -0.777417       -21.1546
  34   2.0000      -0.713403       -19.4127
  35   2.0000      -0.699331       -19.0298
  36   2.0000      -0.693265       -18.8647
  37   2.0000      -0.662421       -18.0254
  38   2.0000      -0.644855       -17.5474
  39   2.0000      -0.616389       -16.7728
  40   2.0000      -0.598705       -16.2916
  41   2.0000      -0.572900       -15.5894
  42   2.0000      -0.566850       -15.4248
  43   2.0000      -0.556524       -15.1438
  44   2.0000      -0.533162       -14.5081
  45   2.0000      -0.529265       -14.4020
  46   2.0000      -0.518661       -14.1135
  47   2.0000      -0.512657       -13.9501
  48   2.0000      -0.501860       -13.6563
  49   2.0000      -0.500368       -13.6157
  50   2.0000      -0.497907       -13.5487
  51   2.0000      -0.483191       -13.1483
  52   2.0000      -0.476677       -12.9710
  53   2.0000      -0.467381       -12.7181
  54   2.0000      -0.455097       -12.3838
  55   2.0000      -0.447195       -12.1688
  56   2.0000      -0.444463       -12.0944
  57   2.0000      -0.441425       -12.0118
  58   2.0000      -0.437469       -11.9041
  59   2.0000      -0.429187       -11.6788
  60   2.0000      -0.420520       -11.4429
  61   2.0000      -0.408430       -11.1139
  62   2.0000      -0.405586       -11.0366
  63   2.0000      -0.335143        -9.1197
  64   2.0000      -0.326855        -8.8942
  65   2.0000      -0.325355        -8.8534
  66   2.0000      -0.302506        -8.2316
  67   0.0000       0.035881         0.9764
  68   0.0000       0.055548         1.5115
  69   0.0000       0.113356         3.0846
  70   0.0000       0.117696         3.2027
  71   0.0000       0.130672         3.5558

MULLIKEN ATOMIC CHARGES
-----------------------
   0 S :    0.124383
   1 C :   -0.111440
   2 C :   -0.086719
   3 C :    0.060844
   4 C :   -0.216105
   5 H :    0.019288
   6 C :    0.059299
   7 H :    0.019078
   8 H :    0.049480
   9 C :   -0.136477
  10 H :    0.034451
  11 H :    0.030496
  12 C :    0.021410
  13 H :    0.028833
  14 H :    0.018697
  15 H :    0.011680
  16 S :    0.129640
  17 C :   -0.069195
  18 C :   -0.023500
  19 C :   -0.006471
  20 C :   -0.205253
  21 H :   -0.020734
  22 C :    0.135022
  23 H :    0.020386
  24 H :   -0.015922
  25 C :   -0.037484
  26 H :    0.032410
  27 H :    0.026267
  28 C :   -0.054213
  29 H :    0.020811
  30 H :    0.014480
  31 H :    0.028680
  32 H :    0.052221
  33 H :    0.045659
Sum of atomic charges:   -0.0000000

LOEWDIN ATOMIC CHARGES
----------------------
   0 S :    0.428556
   1 C :   -0.205033
   2 C :   -0.067972
   3 C :   -0.057399
   4 C :   -0.208544
   5 H :    0.033928
   6 C :   -0.032835
   7 H :    0.031085
   8 H :    0.037345
   9 C :   -0.049093
  10 H :    0.025020
  11 H :    0.024701
  12 C :   -0.058433
  13 H :    0.030734
  14 H :    0.018601
  15 H :    0.017929
  16 S :    0.427218
  17 C :   -0.199943
  18 C :   -0.061207
  19 C :   -0.041216
  20 C :   -0.208316
  21 H :    0.013049
  22 C :   -0.017294
  23 H :    0.036019
  24 H :    0.012531
  25 C :   -0.031508
  26 H :    0.027741
  27 H :    0.017376
  28 C :   -0.072666
  29 H :    0.018908
  30 H :    0.025882
  31 H :    0.028788
  32 H :    0.028487
  33 H :    0.027558

  Mayer bond orders larger than 0.100000
B(  0-S ,  1-C ) :   1.1537 B(  0-S ,  4-C ) :   1.1648 B(  1-C ,  2-C ) :   1.6104
B(  1-C , 32-H ) :   0.9623 B(  2-C ,  3-C ) :   1.2292 B(  2-C ,  6-C ) :   1.0251
B(  3-C ,  4-C ) :   1.5724 B(  3-C ,  5-H ) :   0.9928 B(  4-C , 20-C ) :   1.0373
B(  6-C ,  7-H ) :   0.9433 B(  6-C ,  8-H ) :   0.9444 B(  6-C ,  9-C ) :   1.0577
B(  9-C , 10-H ) :   0.9548 B(  9-C , 11-H ) :   0.9601 B(  9-C , 12-C ) :   1.0874
B( 12-C , 13-H ) :   0.9635 B( 12-C , 14-H ) :   0.9701 B( 12-C , 15-H ) :   0.9719
B( 16-S , 17-C ) :   1.1504 B( 16-S , 20-C ) :   1.1624 B( 17-C , 18-C ) :   1.6215
B( 17-C , 20-C ) :   0.1012 B( 17-C , 33-H ) :   0.9672 B( 18-C , 19-C ) :   1.2272
B( 18-C , 21-H ) :   1.0019 B( 19-C , 20-C ) :   1.5736 B( 19-C , 22-C ) :   1.0472
B( 22-C , 23-H ) :   0.9178 B( 22-C , 24-H ) :   0.9359 B( 22-C , 25-C ) :   1.0654
B( 25-C , 26-H ) :   0.9569 B( 25-C , 27-H ) :   0.9502 B( 25-C , 28-C ) :   1.0875
B( 28-C , 29-H ) :   0.9739 B( 28-C , 30-H ) :   0.9700 B( 28-C , 31-H ) :   0.9721

Dispersion correction           -0.016247182
FINAL SINGLE POINT ENERGY     -1339.857607084155

DIPOLE MOMENT
-------------
                                X             Y             Z
Electronic contribution:     24.63473       0.42615     -14.92985
Nuclear contribution   :    -25.14763      -0.42698      15.39719
                        -----------------------------------------
Total Dipole Moment    :     -0.51290      -0.00083       0.46734
                        -----------------------------------------
Magnitude (a.u.)       :      0.69388
Magnitude (Debye)      :      1.76371

Rotational constants in cm-1:     0.018242     0.010181     0.007999
Rotational constants in MHz :   546.873478   305.212297   239.799677

                             ****ORCA TERMINATED NORMALLY****
TOTAL RUN TIME: 0 days 0 hours 0 minutes 23 seconds 278 msec
