                         Program Version 4.2.1 -  RELEASE  -
|  1> ! wB97X-D3 SP def2-SVP
|  2> %pal
|  3> nprocs 24
|  4> end
|  5>
|  6> * xyz 0 1
|  7> S 	 -125.884 	 63.4647 	 -58.543
|  8> C 	 -125.489 	 63.6124 	 -60.217
|  9> C 	 -126.283 	 64.4902 	 -60.9281
| 10> C 	 -127.174 	 65.1148 	 -60.0146
| 11> C 	 -127.133 	 64.7501 	 -58.6592
| 12> H 	 -127.684 	 65.997 	 -60.2944
| 13> C 	 -126.092 	 64.8793 	 -62.3989
| 14> H 	 -126.978 	 64.6043 	 -62.9333
| 15> H 	 -125.371 	 64.1723 	 -62.7223
| 16> C 	 -125.573 	 66.2917 	 -62.8284
| 17> H 	 -125.955 	 66.4904 	 -63.8501
| 18> H 	 -125.991 	 67.0341 	 -62.1488
| 19> C 	 -124.062 	 66.3883 	 -62.863
| 20> H 	 -123.616 	 65.7485 	 -63.6564
| 21> H 	 -123.633 	 67.3404 	 -63.1909
| 22> H 	 -123.639 	 66.114 	 -61.913
| 23> S 	 -126.715 	 65.7265 	 -56.0718
| 24> C 	 -127.939 	 66.631 	 -55.2751
| 25> C 	 -129.135 	 66.3672 	 -55.9092
| 26> C 	 -129.053 	 65.6651 	 -57.1641
| 27> C 	 -127.759 	 65.3109 	 -57.4555
| 28> H 	 -130.159 	 66.6653 	 -55.5656
| 29> C 	 -130.328 	 65.4834 	 -57.9799
| 30> H 	 -129.942 	 65.1941 	 -59.005
| 31> H 	 -130.758 	 66.4665 	 -58.2062
| 32> C 	 -131.431 	 64.4746 	 -57.473
| 33> H 	 -131.61 	 64.6599 	 -56.3669
| 34> H 	 -130.993 	 63.4216 	 -57.4853
| 35> C 	 -132.684 	 64.5425 	 -58.3468
| 36> H 	 -133.015 	 65.5606 	 -58.3419
| 37> H 	 -133.557 	 63.9685 	 -57.9161
| 38> H 	 -132.553 	 64.2553 	 -59.396
| 39> H 	 -124.715 	 63.0863 	 -60.7611
| 40> H 	 -127.848 	 66.9522 	 -54.2573
| 41> *
| 42>
| 43>                          ****END OF INPUT****

CARTESIAN COORDINATES (ANGSTROEM)
---------------------------------
  S    -125.884000   63.464700  -58.543000
  C    -125.489000   63.612400  -60.217000
  C    -126.283000   64.490200  -60.928100
  C    -127.174000   65.114800  -60.014600
  C    -127.133000   64.750100  -58.659200
  H    -127.684000   65.997000  -60.294400
  C    -126.092000   64.879300  -62.398900
  H    -126.978000   64.604300  -62.933300
  H    -125.371000   64.172300  -62.722300
  C    -125.573000   66.291700  -62.828400
  H    -125.955000   66.490400  -63.850100
  H    -125.991000   67.034100  -62.148800
  C    -124.062000   66.388300  -62.863000
  H    -123.616000   65.748500  -63.656400
  H    -123.633000   67.340400  -63.190900
  H    -123.639000   66.114000  -61.913000
  S    -126.715000   65.726500  -56.071800
  C    -127.939000   66.631000  -55.275100
  C    -129.135000   66.367200  -55.909200
  C    -129.053000   65.665100  -57.164100
  C    -127.759000   65.310900  -57.455500
  H    -130.159000   66.665300  -55.565600
  C    -130.328000   65.483400  -57.979900
  H    -129.942000   65.194100  -59.005000
  H    -130.758000   66.466500  -58.206200
  C    -131.431000   64.474600  -57.473000
  H    -131.610000   64.659900  -56.366900
  H    -130.993000   63.421600  -57.485300
  C    -132.684000   64.542500  -58.346800
  H    -133.015000   65.560600  -58.341900
  H    -133.557000   63.968500  -57.916100
  H    -132.553000   64.255300  -59.396000
  H    -124.715000   63.086300  -60.761100
  H    -127.848000   66.952200  -54.257300

 Total Charge           Charge          ....    0
 Multiplicity           Mult            ....    1
 Number of Electrons    NEL             ....  134
 Basis Dimension        Dim             ....  322

ORBITAL ENERGIES
----------------

  NO   OCC          E(Eh)            E(eV)
   0   2.0000     -88.967509     -2420.9290
   1   2.0000     -88.962830     -2420.8017
   2   2.0000     -10.337336      -281.2932
   3   2.0000     -10.333312      -281.1837
   4   2.0000     -10.317181      -280.7448
   5   2.0000     -10.314066      -280.6600
   6   2.0000     -10.304284      -280.3938
   7   2.0000     -10.301972      -280.3309
   8   2.0000     -10.300679      -280.2957
   9   2.0000     -10.299329      -280.2590
  10   2.0000     -10.297070      -280.1975
  11   2.0000     -10.294059      -280.1156
  12   2.0000     -10.293869      -280.1104
  13   2.0000     -10.292536      -280.0741
  14   2.0000     -10.283178      -279.8195
  15   2.0000     -10.278269      -279.6859
  16   2.0000      -8.081834      -219.9179
  17   2.0000      -8.078019      -219.8141
  18   2.0000      -6.040386      -164.3673
  19   2.0000      -6.036637      -164.2653
  20   2.0000      -6.036306      -164.2562
  21   2.0000      -6.032664      -164.1571
  22   2.0000      -6.032461      -164.1516
  23   2.0000      -6.028598      -164.0465
  24   2.0000      -1.005191       -27.3526
  25   2.0000      -0.985555       -26.8183
  26   2.0000      -0.909649       -24.7528
  27   2.0000      -0.902130       -24.5482
  28   2.0000      -0.870151       -23.6780
  29   2.0000      -0.852847       -23.2071
  30   2.0000      -0.844507       -22.9802
  31   2.0000      -0.813902       -22.1474
  32   2.0000      -0.782108       -21.2822
  33   2.0000      -0.773495       -21.0479
  34   2.0000      -0.711397       -19.3581
  35   2.0000      -0.698466       -19.0062
  36   2.0000      -0.695259       -18.9190
  37   2.0000      -0.660635       -17.9768
  38   2.0000      -0.639732       -17.4080
  39   2.0000      -0.621168       -16.9028
  40   2.0000      -0.598204       -16.2780
  41   2.0000      -0.570676       -15.5289
  42   2.0000      -0.553412       -15.0591
  43   2.0000      -0.551947       -15.0192
  44   2.0000      -0.538036       -14.6407
  45   2.0000      -0.525328       -14.2949
  46   2.0000      -0.512988       -13.9591
  47   2.0000      -0.512211       -13.9380
  48   2.0000      -0.505465       -13.7544
  49   2.0000      -0.496776       -13.5180
  50   2.0000      -0.488426       -13.2908
  51   2.0000      -0.477619       -12.9967
  52   2.0000      -0.470894       -12.8137
  53   2.0000      -0.466990       -12.7074
  54   2.0000      -0.455315       -12.3897
  55   2.0000      -0.448763       -12.2115
  56   2.0000      -0.446363       -12.1462
  57   2.0000      -0.437277       -11.8989
  58   2.0000      -0.432789       -11.7768
  59   2.0000      -0.424681       -11.5562
  60   2.0000      -0.420313       -11.4373
  61   2.0000      -0.416739       -11.3400
  62   2.0000      -0.411643       -11.2014
  63   2.0000      -0.352266        -9.5857
  64   2.0000      -0.332202        -9.0397
  65   2.0000      -0.327717        -8.9176
  66   2.0000      -0.292980        -7.9724
  67   0.0000       0.025215         0.6861
  68   0.0000       0.067830         1.8457
  69   0.0000       0.114850         3.1252
  70   0.0000       0.120655         3.2832
  71   0.0000       0.128898         3.5075

MULLIKEN ATOMIC CHARGES
-----------------------
   0 S :    0.107867
   1 C :   -0.103301
   2 C :   -0.132135
   3 C :    0.051163
   4 C :   -0.166255
   5 H :   -0.002431
   6 C :    0.098227
   7 H :    0.031244
   8 H :   -0.006298
   9 C :   -0.046455
  10 H :    0.031938
  11 H :    0.035392
  12 C :   -0.063469
  13 H :    0.024835
  14 H :    0.031620
  15 H :    0.038372
  16 S :    0.096396
  17 C :   -0.071904
  18 C :   -0.049062
  19 C :   -0.034294
  20 C :   -0.147741
  21 H :    0.029650
  22 C :    0.030690
  23 H :    0.021417
  24 H :    0.029995
  25 C :   -0.093222
  26 H :    0.039701
  27 H :    0.047973
  28 C :   -0.043785
  29 H :    0.019193
  30 H :    0.044881
  31 H :    0.042836
  32 H :    0.041192
  33 H :    0.065773
Sum of atomic charges:    0.0000000

LOEWDIN ATOMIC CHARGES
----------------------
   0 S :    0.397459
   1 C :   -0.196602
   2 C :   -0.071402
   3 C :   -0.057343
   4 C :   -0.181164
   5 H :    0.021002
   6 C :   -0.026655
   7 H :    0.032212
   8 H :    0.024735
   9 C :   -0.036293
  10 H :    0.029890
  11 H :    0.024636
  12 C :   -0.070825
  13 H :    0.027192
  14 H :    0.027613
  15 H :    0.023848
  16 S :    0.403423
  17 C :   -0.193896
  18 C :   -0.073173
  19 C :   -0.060710
  20 C :   -0.189723
  21 H :    0.033274
  22 C :   -0.040885
  23 H :    0.034589
  24 H :    0.029646
  25 C :   -0.045888
  26 H :    0.028532
  27 H :    0.033637
  28 C :   -0.071049
  29 H :    0.020392
  30 H :    0.035374
  31 H :    0.029507
  32 H :    0.027685
  33 H :    0.030960

  Mayer bond orders larger than 0.100000
B(  0-S ,  1-C ) :   1.1573 B(  0-S ,  4-C ) :   1.1296 B(  1-C ,  2-C ) :   1.6131
B(  1-C , 32-H ) :   0.9553 B(  2-C ,  3-C ) :   1.2631 B(  2-C ,  6-C ) :   1.0228
B(  3-C ,  4-C ) :   1.5769 B(  3-C ,  5-H ) :   0.9905 B(  4-C , 20-C ) :   1.0471
B(  6-C ,  7-H ) :   0.9348 B(  6-C ,  8-H ) :   0.9344 B(  6-C ,  9-C ) :   1.0503
B(  9-C , 10-H ) :   0.9534 B(  9-C , 11-H ) :   0.9619 B(  9-C , 12-C ) :   1.0847
B( 12-C , 13-H ) :   0.9707 B( 12-C , 14-H ) :   0.9728 B( 12-C , 15-H ) :   0.9787
B( 16-S , 17-C ) :   1.1553 B( 16-S , 20-C ) :   1.1327 B( 17-C , 18-C ) :   1.5895
B( 17-C , 33-H ) :   0.9678 B( 18-C , 19-C ) :   1.2549 B( 18-C , 21-H ) :   0.9770
B( 19-C , 20-C ) :   1.5981 B( 19-C , 22-C ) :   1.0380 B( 22-C , 23-H ) :   0.9305
B( 22-C , 24-H ) :   0.9421 B( 22-C , 25-C ) :   1.0436 B( 25-C , 26-H ) :   0.9592
B( 25-C , 27-H ) :   0.9543 B( 25-C , 28-C ) :   1.0739 B( 28-C , 29-H ) :   0.9735
B( 28-C , 30-H ) :   0.9729 B( 28-C , 31-H ) :   0.9750

Dispersion correction           -0.013352778
FINAL SINGLE POINT ENERGY     -1339.877801767953

DIPOLE MOMENT
-------------
                                X             Y             Z
Electronic contribution:     12.04540      -5.01346      19.64499
Nuclear contribution   :    -12.42815       5.26563     -20.10674
                        -----------------------------------------
Total Dipole Moment    :     -0.38275       0.25217      -0.46175
                        -----------------------------------------
Magnitude (a.u.)       :      0.65062
Magnitude (Debye)      :      1.65374

Rotational constants in cm-1:     0.018043     0.007551     0.006348
Rotational constants in MHz :   540.904963   226.381847   190.300054

                             ****ORCA TERMINATED NORMALLY****
TOTAL RUN TIME: 0 days 0 hours 0 minutes 20 seconds 670 msec
