                         Program Version 4.2.1 -  RELEASE  -
|  1> ! wB97X-D3 SP def2-SVP
|  2> %pal
|  3> nprocs 24
|  4> end
|  5>
|  6> * xyz 0 1
|  7> S 	 -57.5412 	 14.484 	 -89.6418
|  8> C 	 -58.2589 	 15.5382 	 -90.876
|  9> C 	 -58.4942 	 16.7925 	 -90.331
| 10> C 	 -57.8355 	 16.9801 	 -89.1208
| 11> C 	 -57.3534 	 15.8264 	 -88.5545
| 12> H 	 -57.7779 	 17.8799 	 -88.5123
| 13> C 	 -59.1696 	 17.8961 	 -91.1412
| 14> H 	 -59.8586 	 18.4254 	 -90.4394
| 15> H 	 -59.8482 	 17.4918 	 -91.9113
| 16> C 	 -58.2503 	 18.7841 	 -92.0018
| 17> H 	 -57.4348 	 19.0813 	 -91.3538
| 18> H 	 -57.6878 	 18.2529 	 -92.7542
| 19> C 	 -58.9494 	 19.9468 	 -92.6038
| 20> H 	 -59.4414 	 20.3873 	 -91.811
| 21> H 	 -58.1918 	 20.6653 	 -92.9712
| 22> H 	 -59.653 	 19.7189 	 -93.4646
| 23> S 	 -57.7213 	 16.0394 	 -85.7985
| 24> C 	 -56.3783 	 15.5397 	 -84.7463
| 25> C 	 -55.3295 	 15.1717 	 -85.4918
| 26> C 	 -55.4933 	 15.2848 	 -86.9
| 27> C 	 -56.7319 	 15.7006 	 -87.2176
| 28> H 	 -54.4144 	 14.9838 	 -84.9622
| 29> C 	 -54.4678 	 14.8026 	 -87.9097
| 30> H 	 -55.0059 	 14.203 	 -88.5645
| 31> H 	 -53.7608 	 14.2483 	 -87.2921
| 32> C 	 -53.7185 	 15.8632 	 -88.6188
| 33> H 	 -53.2561 	 16.4775 	 -87.8505
| 34> H 	 -54.3747 	 16.5568 	 -89.1194
| 35> C 	 -52.7211 	 15.3478 	 -89.659
| 36> H 	 -53.1716 	 15.0037 	 -90.5752
| 37> H 	 -52.099 	 14.5786 	 -89.1744
| 38> H 	 -52.0254 	 16.2007 	 -89.9881
| 39> H 	 -58.4984 	 15.2536 	 -91.8604
| 40> H 	 -56.3899 	 15.6568 	 -83.6889
| 41> *
| 42>
| 43>                          ****END OF INPUT****

CARTESIAN COORDINATES (ANGSTROEM)
---------------------------------
  S    -57.541200   14.484000  -89.641800
  C    -58.258900   15.538200  -90.876000
  C    -58.494200   16.792500  -90.331000
  C    -57.835500   16.980100  -89.120800
  C    -57.353400   15.826400  -88.554500
  H    -57.777900   17.879900  -88.512300
  C    -59.169600   17.896100  -91.141200
  H    -59.858600   18.425400  -90.439400
  H    -59.848200   17.491800  -91.911300
  C    -58.250300   18.784100  -92.001800
  H    -57.434800   19.081300  -91.353800
  H    -57.687800   18.252900  -92.754200
  C    -58.949400   19.946800  -92.603800
  H    -59.441400   20.387300  -91.811000
  H    -58.191800   20.665300  -92.971200
  H    -59.653000   19.718900  -93.464600
  S    -57.721300   16.039400  -85.798500
  C    -56.378300   15.539700  -84.746300
  C    -55.329500   15.171700  -85.491800
  C    -55.493300   15.284800  -86.900000
  C    -56.731900   15.700600  -87.217600
  H    -54.414400   14.983800  -84.962200
  C    -54.467800   14.802600  -87.909700
  H    -55.005900   14.203000  -88.564500
  H    -53.760800   14.248300  -87.292100
  C    -53.718500   15.863200  -88.618800
  H    -53.256100   16.477500  -87.850500
  H    -54.374700   16.556800  -89.119400
  C    -52.721100   15.347800  -89.659000
  H    -53.171600   15.003700  -90.575200
  H    -52.099000   14.578600  -89.174400
  H    -52.025400   16.200700  -89.988100
  H    -58.498400   15.253600  -91.860400
  H    -56.389900   15.656800  -83.688900

 Total Charge           Charge          ....    0
 Multiplicity           Mult            ....    1
 Number of Electrons    NEL             ....  134
 Basis Dimension        Dim             ....  322

ORBITAL ENERGIES
----------------

  NO   OCC          E(Eh)            E(eV)
   0   2.0000     -88.968572     -2420.9579
   1   2.0000     -88.961893     -2420.7762
   2   2.0000     -10.327272      -281.0193
   3   2.0000     -10.321976      -280.8753
   4   2.0000     -10.313684      -280.6496
   5   2.0000     -10.313679      -280.6495
   6   2.0000     -10.300700      -280.2963
   7   2.0000     -10.295753      -280.1617
   8   2.0000     -10.295561      -280.1565
   9   2.0000     -10.290637      -280.0225
  10   2.0000     -10.288188      -279.9558
  11   2.0000     -10.280975      -279.7596
  12   2.0000     -10.280135      -279.7367
  13   2.0000     -10.279465      -279.7185
  14   2.0000     -10.275906      -279.6216
  15   2.0000     -10.275357      -279.6067
  16   2.0000      -8.082664      -219.9405
  17   2.0000      -8.076374      -219.7693
  18   2.0000      -6.041105      -164.3868
  19   2.0000      -6.037196      -164.2805
  20   2.0000      -6.034992      -164.2205
  21   2.0000      -6.033613      -164.1830
  22   2.0000      -6.031000      -164.1118
  23   2.0000      -6.026954      -164.0018
  24   2.0000      -1.010082       -27.4857
  25   2.0000      -0.988720       -26.9044
  26   2.0000      -0.916197       -24.9310
  27   2.0000      -0.913905       -24.8686
  28   2.0000      -0.872625       -23.7453
  29   2.0000      -0.853283       -23.2190
  30   2.0000      -0.847353       -23.0577
  31   2.0000      -0.819537       -22.3007
  32   2.0000      -0.782320       -21.2880
  33   2.0000      -0.772206       -21.0128
  34   2.0000      -0.706736       -19.2313
  35   2.0000      -0.701337       -19.0843
  36   2.0000      -0.692291       -18.8382
  37   2.0000      -0.669469       -18.2172
  38   2.0000      -0.642290       -17.4776
  39   2.0000      -0.620112       -16.8741
  40   2.0000      -0.597602       -16.2616
  41   2.0000      -0.574136       -15.6230
  42   2.0000      -0.572008       -15.5651
  43   2.0000      -0.562401       -15.3037
  44   2.0000      -0.529515       -14.4088
  45   2.0000      -0.523836       -14.2543
  46   2.0000      -0.517879       -14.0922
  47   2.0000      -0.515614       -14.0306
  48   2.0000      -0.508587       -13.8394
  49   2.0000      -0.502707       -13.6793
  50   2.0000      -0.489693       -13.3252
  51   2.0000      -0.479683       -13.0528
  52   2.0000      -0.475707       -12.9446
  53   2.0000      -0.465975       -12.6798
  54   2.0000      -0.460833       -12.5399
  55   2.0000      -0.450011       -12.2454
  56   2.0000      -0.441727       -12.0200
  57   2.0000      -0.440449       -11.9852
  58   2.0000      -0.431825       -11.7506
  59   2.0000      -0.427091       -11.6217
  60   2.0000      -0.422174       -11.4879
  61   2.0000      -0.411237       -11.1903
  62   2.0000      -0.402633       -10.9562
  63   2.0000      -0.339235        -9.2310
  64   2.0000      -0.336457        -9.1555
  65   2.0000      -0.329629        -8.9696
  66   2.0000      -0.303407        -8.2561
  67   0.0000       0.034258         0.9322
  68   0.0000       0.069230         1.8839
  69   0.0000       0.109829         2.9886
  70   0.0000       0.121404         3.3036
  71   0.0000       0.131226         3.5709

MULLIKEN ATOMIC CHARGES
-----------------------
   0 S :    0.114354
   1 C :   -0.112843
   2 C :   -0.054244
   3 C :    0.024705
   4 C :   -0.166116
   5 H :    0.014705
   6 C :    0.025980
   7 H :    0.036332
   8 H :    0.017969
   9 C :   -0.054452
  10 H :    0.013588
  11 H :    0.015586
  12 C :   -0.019843
  13 H :    0.011720
  14 H :    0.035635
  15 H :    0.045443
  16 S :    0.094607
  17 C :   -0.083648
  18 C :   -0.028067
  19 C :   -0.046795
  20 C :   -0.169618
  21 H :    0.012595
  22 C :    0.158760
  23 H :   -0.000922
  24 H :    0.007397
  25 C :   -0.070545
  26 H :    0.015773
  27 H :    0.023927
  28 C :   -0.049720
  29 H :    0.038477
  30 H :    0.029325
  31 H :    0.039743
  32 H :    0.032576
  33 H :    0.047614
Sum of atomic charges:   -0.0000000

LOEWDIN ATOMIC CHARGES
----------------------
   0 S :    0.410622
   1 C :   -0.178473
   2 C :   -0.062868
   3 C :   -0.067361
   4 C :   -0.193421
   5 H :    0.034298
   6 C :   -0.035900
   7 H :    0.034517
   8 H :    0.029990
   9 C :   -0.044867
  10 H :    0.021379
  11 H :    0.021709
  12 C :   -0.062342
  13 H :    0.014551
  14 H :    0.033250
  15 H :    0.033103
  16 S :    0.379624
  17 C :   -0.163742
  18 C :   -0.072279
  19 C :   -0.054201
  20 C :   -0.191912
  21 H :    0.030554
  22 C :   -0.021249
  23 H :    0.011136
  24 H :    0.030002
  25 C :   -0.043618
  26 H :    0.023101
  27 H :    0.022405
  28 C :   -0.065942
  29 H :    0.023706
  30 H :    0.023849
  31 H :    0.035565
  32 H :    0.018948
  33 H :    0.025863

  Mayer bond orders larger than 0.100000
B(  0-S ,  1-C ) :   1.1438 B(  0-S ,  4-C ) :   1.1585 B(  1-C ,  2-C ) :   1.5791
B(  1-C ,  4-C ) :   0.1074 B(  1-C , 32-H ) :   0.9784 B(  2-C ,  3-C ) :   1.2464
B(  2-C ,  6-C ) :   1.0360 B(  3-C ,  4-C ) :   1.5819 B(  3-C ,  5-H ) :   0.9937
B(  4-C , 20-C ) :   1.0056 B(  6-C ,  7-H ) :   0.9409 B(  6-C ,  8-H ) :   0.9420
B(  6-C ,  9-C ) :   1.0549 B(  9-C , 10-H ) :   0.9525 B(  9-C , 11-H ) :   0.9502
B(  9-C , 12-C ) :   1.0875 B( 12-C , 13-H ) :   0.9726 B( 12-C , 14-H ) :   0.9686
B( 12-C , 15-H ) :   0.9733 B( 16-S , 17-C ) :   1.1302 B( 16-S , 20-C ) :   1.1301
B( 17-C , 18-C ) :   1.6527 B( 17-C , 33-H ) :   0.9690 B( 18-C , 19-C ) :   1.2188
B( 18-C , 21-H ) :   0.9857 B( 19-C , 20-C ) :   1.6366 B( 19-C , 22-C ) :   1.0293
B( 22-C , 23-H ) :   0.9193 B( 22-C , 24-H ) :   0.9218 B( 22-C , 25-C ) :   1.0808
B( 25-C , 26-H ) :   0.9488 B( 25-C , 27-H ) :   0.9532 B( 25-C , 28-C ) :   1.0853
B( 28-C , 29-H ) :   0.9751 B( 28-C , 30-H ) :   0.9731 B( 28-C , 31-H ) :   0.9737

Dispersion correction           -0.014261465
FINAL SINGLE POINT ENERGY     -1339.879714302109

DIPOLE MOMENT
-------------
                                X             Y             Z
Electronic contribution:     -9.96337     -13.31123      18.48330
Nuclear contribution   :     10.25483      13.65961     -18.69886
                        -----------------------------------------
Total Dipole Moment    :      0.29146       0.34837      -0.21556
                        -----------------------------------------
Magnitude (a.u.)       :      0.50277
Magnitude (Debye)      :      1.27795

Rotational constants in cm-1:     0.018711     0.008182     0.006929
Rotational constants in MHz :   560.935200   245.286119   207.731830

                             ****ORCA TERMINATED NORMALLY****
TOTAL RUN TIME: 0 days 0 hours 0 minutes 20 seconds 336 msec
