                         Program Version 4.2.1 -  RELEASE  -
|  1> ! wB97X-D3 SP def2-SVP
|  2> %pal
|  3> nprocs 24
|  4> end
|  5>
|  6> * xyz 0 1
|  7> S 	 -108.693 	 64.7021 	 -13.5523
|  8> C 	 -109.21 	 64.9972 	 -11.8862
|  9> C 	 -108.258 	 64.6918 	 -10.9248
| 10> C 	 -107.062 	 64.2764 	 -11.6238
| 11> C 	 -107.031 	 64.4926 	 -12.9869
| 12> H 	 -106.233 	 63.9493 	 -11.1239
| 13> C 	 -108.485 	 64.6303 	 -9.4103
| 14> H 	 -107.585 	 64.2625 	 -8.85047
| 15> H 	 -109.328 	 63.9398 	 -9.15901
| 16> C 	 -108.924 	 65.9834 	 -8.82715
| 17> H 	 -108.284 	 66.7793 	 -8.94562
| 18> H 	 -109.886 	 66.2767 	 -9.30751
| 19> C 	 -109.256 	 65.8408 	 -7.39702
| 20> H 	 -110.076 	 65.0923 	 -7.14073
| 21> H 	 -108.284 	 65.6542 	 -6.84131
| 22> H 	 -109.571 	 66.7943 	 -6.97274
| 23> S 	 -104.382 	 64.9712 	 -13.437
| 24> C 	 -103.585 	 64.2988 	 -14.7557
| 25> C 	 -104.42 	 63.6154 	 -15.5823
| 26> C 	 -105.766 	 63.6014 	 -15.0925
| 27> C 	 -105.896 	 64.2504 	 -13.9322
| 28> H 	 -103.925 	 63.2578 	 -16.5045
| 29> C 	 -106.81 	 62.7513 	 -15.7133
| 30> H 	 -106.499 	 62.3921 	 -16.6744
| 31> H 	 -107.659 	 63.3418 	 -15.9006
| 32> C 	 -107.114 	 61.4663 	 -14.9096
| 33> H 	 -107.925 	 61.0395 	 -15.3526
| 34> H 	 -107.385 	 61.7157 	 -13.8769
| 35> C 	 -105.874 	 60.5288 	 -14.702
| 36> H 	 -106.14 	 59.644 	 -14.117
| 37> H 	 -105.211 	 61.0843 	 -14.008
| 38> H 	 -105.294 	 60.2337 	 -15.6476
| 39> H 	 -110.075 	 65.5963 	 -11.6411
| 40> H 	 -102.53 	 64.427 	 -14.8758
| 41> *
| 42>
| 43>                          ****END OF INPUT****

CARTESIAN COORDINATES (ANGSTROEM)
---------------------------------
  S    -108.693000   64.702100  -13.552300
  C    -109.210000   64.997200  -11.886200
  C    -108.258000   64.691800  -10.924800
  C    -107.062000   64.276400  -11.623800
  C    -107.031000   64.492600  -12.986900
  H    -106.233000   63.949300  -11.123900
  C    -108.485000   64.630300   -9.410300
  H    -107.585000   64.262500   -8.850470
  H    -109.328000   63.939800   -9.159010
  C    -108.924000   65.983400   -8.827150
  H    -108.284000   66.779300   -8.945620
  H    -109.886000   66.276700   -9.307510
  C    -109.256000   65.840800   -7.397020
  H    -110.076000   65.092300   -7.140730
  H    -108.284000   65.654200   -6.841310
  H    -109.571000   66.794300   -6.972740
  S    -104.382000   64.971200  -13.437000
  C    -103.585000   64.298800  -14.755700
  C    -104.420000   63.615400  -15.582300
  C    -105.766000   63.601400  -15.092500
  C    -105.896000   64.250400  -13.932200
  H    -103.925000   63.257800  -16.504500
  C    -106.810000   62.751300  -15.713300
  H    -106.499000   62.392100  -16.674400
  H    -107.659000   63.341800  -15.900600
  C    -107.114000   61.466300  -14.909600
  H    -107.925000   61.039500  -15.352600
  H    -107.385000   61.715700  -13.876900
  C    -105.874000   60.528800  -14.702000
  H    -106.140000   59.644000  -14.117000
  H    -105.211000   61.084300  -14.008000
  H    -105.294000   60.233700  -15.647600
  H    -110.075000   65.596300  -11.641100
  H    -102.530000   64.427000  -14.875800

 Total Charge           Charge          ....    0
 Multiplicity           Mult            ....    1
 Number of Electrons    NEL             ....  134
 Basis Dimension        Dim             ....  322

ORBITAL ENERGIES
----------------

  NO   OCC          E(Eh)            E(eV)
   0   2.0000     -88.966193     -2420.8932
   1   2.0000     -88.959896     -2420.7218
   2   2.0000     -10.334106      -281.2053
   3   2.0000     -10.321695      -280.8676
   4   2.0000     -10.313729      -280.6508
   5   2.0000     -10.306238      -280.4470
   6   2.0000     -10.305307      -280.4217
   7   2.0000     -10.304417      -280.3974
   8   2.0000     -10.294940      -280.1396
   9   2.0000     -10.290606      -280.0216
  10   2.0000     -10.290169      -280.0097
  11   2.0000     -10.284384      -279.8523
  12   2.0000     -10.281844      -279.7832
  13   2.0000     -10.281286      -279.7680
  14   2.0000     -10.280212      -279.7388
  15   2.0000     -10.276809      -279.6462
  16   2.0000      -8.080146      -219.8720
  17   2.0000      -8.076493      -219.7725
  18   2.0000      -6.038790      -164.3238
  19   2.0000      -6.034973      -164.2200
  20   2.0000      -6.034867      -164.2171
  21   2.0000      -6.030694      -164.1035
  22   2.0000      -6.030626      -164.1017
  23   2.0000      -6.027331      -164.0120
  24   2.0000      -1.013395       -27.5759
  25   2.0000      -0.986164       -26.8349
  26   2.0000      -0.919093       -25.0098
  27   2.0000      -0.911214       -24.7954
  28   2.0000      -0.868813       -23.6416
  29   2.0000      -0.850002       -23.1297
  30   2.0000      -0.844300       -22.9746
  31   2.0000      -0.813961       -22.1490
  32   2.0000      -0.783396       -21.3173
  33   2.0000      -0.772913       -21.0320
  34   2.0000      -0.705893       -19.2083
  35   2.0000      -0.699472       -19.0336
  36   2.0000      -0.687757       -18.7148
  37   2.0000      -0.667349       -18.1595
  38   2.0000      -0.639185       -17.3931
  39   2.0000      -0.621860       -16.9217
  40   2.0000      -0.594906       -16.1882
  41   2.0000      -0.577429       -15.7126
  42   2.0000      -0.569954       -15.5092
  43   2.0000      -0.553609       -15.0645
  44   2.0000      -0.547895       -14.9090
  45   2.0000      -0.522446       -14.2165
  46   2.0000      -0.513997       -13.9866
  47   2.0000      -0.512659       -13.9502
  48   2.0000      -0.509756       -13.8712
  49   2.0000      -0.491012       -13.3611
  50   2.0000      -0.482445       -13.1280
  51   2.0000      -0.476736       -12.9726
  52   2.0000      -0.470050       -12.7907
  53   2.0000      -0.463458       -12.6113
  54   2.0000      -0.458155       -12.4670
  55   2.0000      -0.448902       -12.2152
  56   2.0000      -0.442847       -12.0505
  57   2.0000      -0.437138       -11.8951
  58   2.0000      -0.434753       -11.8302
  59   2.0000      -0.428269       -11.6538
  60   2.0000      -0.418267       -11.3816
  61   2.0000      -0.415218       -11.2987
  62   2.0000      -0.411330       -11.1929
  63   2.0000      -0.350790        -9.5455
  64   2.0000      -0.330567        -8.9952
  65   2.0000      -0.329289        -8.9604
  66   2.0000      -0.290710        -7.9106
  67   0.0000       0.028548         0.7768
  68   0.0000       0.074611         2.0303
  69   0.0000       0.098924         2.6919
  70   0.0000       0.125702         3.4205
  71   0.0000       0.132245         3.5986

MULLIKEN ATOMIC CHARGES
-----------------------
   0 S :    0.093747
   1 C :   -0.120173
   2 C :   -0.057415
   3 C :    0.047405
   4 C :   -0.129955
   5 H :   -0.026638
   6 C :    0.043333
   7 H :    0.032595
   8 H :    0.046955
   9 C :   -0.062774
  10 H :    0.018372
  11 H :    0.024702
  12 C :   -0.073106
  13 H :    0.045551
  14 H :    0.031395
  15 H :    0.026987
  16 S :    0.106825
  17 C :   -0.090951
  18 C :   -0.052483
  19 C :   -0.052485
  20 C :   -0.155977
  21 H :    0.028046
  22 C :    0.108679
  23 H :    0.002362
  24 H :    0.018036
  25 C :   -0.026037
  26 H :    0.009267
  27 H :    0.030344
  28 C :   -0.092290
  29 H :    0.036457
  30 H :    0.044947
  31 H :    0.042972
  32 H :    0.053428
  33 H :    0.047878
Sum of atomic charges:   -0.0000000

LOEWDIN ATOMIC CHARGES
----------------------
   0 S :    0.388209
   1 C :   -0.187119
   2 C :   -0.057905
   3 C :   -0.055152
   4 C :   -0.180197
   5 H :    0.010427
   6 C :   -0.029763
   7 H :    0.033682
   8 H :    0.041103
   9 C :   -0.040865
  10 H :    0.015755
  11 H :    0.026222
  12 C :   -0.072825
  13 H :    0.031730
  14 H :    0.028864
  15 H :    0.024093
  16 S :    0.430933
  17 C :   -0.198732
  18 C :   -0.078139
  19 C :   -0.065503
  20 C :   -0.194042
  21 H :    0.039922
  22 C :   -0.026831
  23 H :    0.027021
  24 H :    0.019664
  25 C :   -0.024277
  26 H :    0.007873
  27 H :    0.026293
  28 C :   -0.073808
  29 H :    0.026380
  30 H :    0.030618
  31 H :    0.028141
  32 H :    0.023899
  33 H :    0.024326

  Mayer bond orders larger than 0.100000
B(  0-S ,  1-C ) :   1.1367 B(  0-S ,  4-C ) :   1.1335 B(  1-C ,  2-C ) :   1.6264
B(  1-C , 32-H ) :   0.9592 B(  2-C ,  3-C ) :   1.2328 B(  2-C ,  6-C ) :   1.0118
B(  3-C ,  4-C ) :   1.5830 B(  3-C ,  5-H ) :   1.0006 B(  4-C , 20-C ) :   1.0094
B(  6-C ,  7-H ) :   0.9474 B(  6-C ,  8-H ) :   0.9423 B(  6-C ,  9-C ) :   1.0582
B(  9-C , 10-H ) :   0.9557 B(  9-C , 11-H ) :   0.9500 B(  9-C , 12-C ) :   1.1034
B( 12-C , 13-H ) :   0.9708 B( 12-C , 14-H ) :   0.9684 B( 12-C , 15-H ) :   0.9695
B( 16-S , 17-C ) :   1.1722 B( 16-S , 20-C ) :   1.1460 B( 17-C , 18-C ) :   1.6213
B( 17-C , 33-H ) :   0.9680 B( 18-C , 19-C ) :   1.2039 B( 18-C , 21-H ) :   0.9946
B( 19-C , 20-C ) :   1.6251 B( 19-C , 22-C ) :   1.0555 B( 22-C , 23-H ) :   0.9259
B( 22-C , 24-H ) :   0.9243 B( 22-C , 25-C ) :   1.0718 B( 25-C , 26-H ) :   0.9602
B( 25-C , 27-H ) :   0.9562 B( 25-C , 28-C ) :   1.0626 B( 28-C , 29-H ) :   0.9745
B( 28-C , 30-H ) :   0.9740 B( 28-C , 31-H ) :   0.9759

Dispersion correction           -0.014852490
FINAL SINGLE POINT ENERGY     -1339.863495351487

DIPOLE MOMENT
-------------
                                X             Y             Z
Electronic contribution:      7.38571       8.73399     -13.27407
Nuclear contribution   :     -7.39605      -8.86420      13.57434
                        -----------------------------------------
Total Dipole Moment    :     -0.01034      -0.13020       0.30027
                        -----------------------------------------
Magnitude (a.u.)       :      0.32745
Magnitude (Debye)      :      0.83231

Rotational constants in cm-1:     0.024487     0.007349     0.006561
Rotational constants in MHz :   734.106788   220.318328   196.697428

                             ****ORCA TERMINATED NORMALLY****
TOTAL RUN TIME: 0 days 0 hours 0 minutes 21 seconds 856 msec
