                         Program Version 4.2.1 -  RELEASE  -
|  1> ! wB97X-D3 SP def2-SVP
|  2> %pal
|  3> nprocs 24
|  4> end
|  5>
|  6> * xyz 0 1
|  7> S 	 -40.8921 	 -47.0155 	 -71.299
|  8> C 	 -40.8464 	 -45.3077 	 -71.6341
|  9> C 	 -41.7072 	 -44.5833 	 -70.8419
| 10> C 	 -42.479 	 -45.504 	 -70.0066
| 11> C 	 -42.2453 	 -46.8236 	 -70.175
| 12> H 	 -43.0222 	 -45.1966 	 -69.1435
| 13> C 	 -41.7263 	 -43.0536 	 -70.7395
| 14> H 	 -40.8367 	 -42.6446 	 -71.2293
| 15> H 	 -41.6069 	 -42.8204 	 -69.6865
| 16> C 	 -43.05 	 -42.448 	 -71.2157
| 17> H 	 -42.8906 	 -41.4368 	 -71.4111
| 18> H 	 -43.1881 	 -42.9322 	 -72.2045
| 19> C 	 -44.2667 	 -42.7831 	 -70.2653
| 20> H 	 -45.1365 	 -42.2225 	 -70.4758
| 21> H 	 -44.546 	 -43.8176 	 -70.074
| 22> H 	 -44.0172 	 -42.3405 	 -69.2573
| 23> S 	 -41.2744 	 -48.9285 	 -68.6411
| 24> C 	 -42.4164 	 -49.9931 	 -67.8641
| 25> C 	 -43.7233 	 -49.6066 	 -68.158
| 26> C 	 -43.8273 	 -48.5052 	 -69.0381
| 27> C 	 -42.6207 	 -47.9381 	 -69.3331
| 28> H 	 -44.5293 	 -50.1159 	 -67.6722
| 29> C 	 -45.1759 	 -47.8254 	 -69.4733
| 30> H 	 -45.0247 	 -46.8251 	 -69.9154
| 31> H 	 -45.841 	 -47.6533 	 -68.6003
| 32> C 	 -46.1244 	 -48.6896 	 -70.3528
| 33> H 	 -46.1919 	 -49.6841 	 -69.8699
| 34> H 	 -45.6994 	 -48.9649 	 -71.3665
| 35> C 	 -47.6059 	 -48.1279 	 -70.4954
| 36> H 	 -48.0865 	 -48.0427 	 -69.4802
| 37> H 	 -48.2278 	 -48.8975 	 -70.9853
| 38> H 	 -47.6371 	 -47.1795 	 -71.0276
| 39> H 	 -40.2217 	 -44.8783 	 -72.3477
| 40> H 	 -42.0777 	 -50.8494 	 -67.1635
| 41> *
| 42>
| 43>                          ****END OF INPUT****

CARTESIAN COORDINATES (ANGSTROEM)
---------------------------------
  S    -40.892100  -47.015500  -71.299000
  C    -40.846400  -45.307700  -71.634100
  C    -41.707200  -44.583300  -70.841900
  C    -42.479000  -45.504000  -70.006600
  C    -42.245300  -46.823600  -70.175000
  H    -43.022200  -45.196600  -69.143500
  C    -41.726300  -43.053600  -70.739500
  H    -40.836700  -42.644600  -71.229300
  H    -41.606900  -42.820400  -69.686500
  C    -43.050000  -42.448000  -71.215700
  H    -42.890600  -41.436800  -71.411100
  H    -43.188100  -42.932200  -72.204500
  C    -44.266700  -42.783100  -70.265300
  H    -45.136500  -42.222500  -70.475800
  H    -44.546000  -43.817600  -70.074000
  H    -44.017200  -42.340500  -69.257300
  S    -41.274400  -48.928500  -68.641100
  C    -42.416400  -49.993100  -67.864100
  C    -43.723300  -49.606600  -68.158000
  C    -43.827300  -48.505200  -69.038100
  C    -42.620700  -47.938100  -69.333100
  H    -44.529300  -50.115900  -67.672200
  C    -45.175900  -47.825400  -69.473300
  H    -45.024700  -46.825100  -69.915400
  H    -45.841000  -47.653300  -68.600300
  C    -46.124400  -48.689600  -70.352800
  H    -46.191900  -49.684100  -69.869900
  H    -45.699400  -48.964900  -71.366500
  C    -47.605900  -48.127900  -70.495400
  H    -48.086500  -48.042700  -69.480200
  H    -48.227800  -48.897500  -70.985300
  H    -47.637100  -47.179500  -71.027600
  H    -40.221700  -44.878300  -72.347700
  H    -42.077700  -50.849400  -67.163500

 Total Charge           Charge          ....    0
 Multiplicity           Mult            ....    1
 Number of Electrons    NEL             ....  134
 Basis Dimension        Dim             ....  322

ORBITAL ENERGIES
----------------

  NO   OCC          E(Eh)            E(eV)
   0   2.0000     -88.964832     -2420.8562
   1   2.0000     -88.961623     -2420.7688
   2   2.0000     -10.328684      -281.0578
   3   2.0000     -10.327148      -281.0160
   4   2.0000     -10.326893      -281.0090
   5   2.0000     -10.309396      -280.5329
   6   2.0000     -10.307217      -280.4736
   7   2.0000     -10.303200      -280.3643
   8   2.0000     -10.300439      -280.2892
   9   2.0000     -10.295140      -280.1450
  10   2.0000     -10.294786      -280.1354
  11   2.0000     -10.294433      -280.1258
  12   2.0000     -10.292451      -280.0718
  13   2.0000     -10.289302      -279.9861
  14   2.0000     -10.287668      -279.9417
  15   2.0000     -10.283661      -279.8326
  16   2.0000      -8.078971      -219.8400
  17   2.0000      -8.076540      -219.7738
  18   2.0000      -6.037468      -164.2878
  19   2.0000      -6.035116      -164.2239
  20   2.0000      -6.033572      -164.1818
  21   2.0000      -6.031100      -164.1146
  22   2.0000      -6.029746      -164.0777
  23   2.0000      -6.027118      -164.0062
  24   2.0000      -1.006117       -27.3778
  25   2.0000      -0.982083       -26.7238
  26   2.0000      -0.910812       -24.7845
  27   2.0000      -0.895741       -24.3743
  28   2.0000      -0.870502       -23.6876
  29   2.0000      -0.846241       -23.0274
  30   2.0000      -0.837259       -22.7830
  31   2.0000      -0.815788       -22.1987
  32   2.0000      -0.784058       -21.3353
  33   2.0000      -0.773121       -21.0377
  34   2.0000      -0.708724       -19.2854
  35   2.0000      -0.700386       -19.0585
  36   2.0000      -0.690543       -18.7906
  37   2.0000      -0.658616       -17.9219
  38   2.0000      -0.647441       -17.6178
  39   2.0000      -0.619157       -16.8481
  40   2.0000      -0.595055       -16.1923
  41   2.0000      -0.571882       -15.5617
  42   2.0000      -0.555305       -15.1106
  43   2.0000      -0.547914       -14.9095
  44   2.0000      -0.540330       -14.7031
  45   2.0000      -0.518856       -14.1188
  46   2.0000      -0.511827       -13.9275
  47   2.0000      -0.508917       -13.8483
  48   2.0000      -0.499684       -13.5971
  49   2.0000      -0.497878       -13.5479
  50   2.0000      -0.487000       -13.2519
  51   2.0000      -0.483378       -13.1534
  52   2.0000      -0.472199       -12.8492
  53   2.0000      -0.466593       -12.6966
  54   2.0000      -0.455640       -12.3986
  55   2.0000      -0.446361       -12.1461
  56   2.0000      -0.443844       -12.0776
  57   2.0000      -0.439341       -11.9551
  58   2.0000      -0.431307       -11.7365
  59   2.0000      -0.425753       -11.5853
  60   2.0000      -0.417434       -11.3590
  61   2.0000      -0.416101       -11.3227
  62   2.0000      -0.413109       -11.2413
  63   2.0000      -0.351521        -9.5654
  64   2.0000      -0.334345        -9.0980
  65   2.0000      -0.324251        -8.8233
  66   2.0000      -0.294423        -8.0116
  67   0.0000       0.031752         0.8640
  68   0.0000       0.064908         1.7662
  69   0.0000       0.109311         2.9745
  70   0.0000       0.121860         3.3160
  71   0.0000       0.126795         3.4503

MULLIKEN ATOMIC CHARGES
-----------------------
   0 S :    0.093024
   1 C :   -0.100360
   2 C :   -0.105349
   3 C :    0.033133
   4 C :   -0.137615
   5 H :    0.015009
   6 C :    0.064208
   7 H :    0.021856
   8 H :    0.027336
   9 C :   -0.029948
  10 H :    0.020910
  11 H :    0.031834
  12 C :   -0.062566
  13 H :    0.025871
  14 H :    0.049920
  15 H :    0.020014
  16 S :    0.096649
  17 C :   -0.131027
  18 C :   -0.027391
  19 C :    0.019177
  20 C :   -0.174315
  21 H :    0.014582
  22 C :    0.057719
  23 H :    0.033995
  24 H :    0.025383
  25 C :   -0.121343
  26 H :    0.025866
  27 H :    0.042210
  28 C :   -0.073829
  29 H :    0.035215
  30 H :    0.042415
  31 H :    0.048603
  32 H :    0.023621
  33 H :    0.095195
Sum of atomic charges:   -0.0000000

LOEWDIN ATOMIC CHARGES
----------------------
   0 S :    0.391932
   1 C :   -0.183283
   2 C :   -0.058668
   3 C :   -0.059805
   4 C :   -0.186972
   5 H :    0.027147
   6 C :   -0.028441
   7 H :    0.031286
   8 H :    0.028818
   9 C :   -0.032846
  10 H :    0.017253
  11 H :    0.028894
  12 C :   -0.069171
  13 H :    0.021629
  14 H :    0.026888
  15 H :    0.029381
  16 S :    0.381632
  17 C :   -0.196331
  18 C :   -0.074427
  19 C :   -0.054969
  20 C :   -0.177573
  21 H :    0.028679
  22 C :   -0.032440
  23 H :    0.029261
  24 H :    0.033143
  25 C :   -0.049754
  26 H :    0.022334
  27 H :    0.027573
  28 C :   -0.072198
  29 H :    0.028485
  30 H :    0.031105
  31 H :    0.025239
  32 H :    0.014993
  33 H :    0.051206

  Mayer bond orders larger than 0.100000
B(  0-S ,  1-C ) :   1.1376 B(  0-S ,  4-C ) :   1.1239 B(  1-C ,  2-C ) :   1.6359
B(  1-C , 32-H ) :   0.9749 B(  2-C ,  3-C ) :   1.2174 B(  2-C ,  6-C ) :   1.0232
B(  3-C ,  4-C ) :   1.6123 B(  3-C ,  5-H ) :   0.9824 B(  4-C , 20-C ) :   1.0457
B(  6-C ,  7-H ) :   0.9422 B(  6-C ,  8-H ) :   0.9419 B(  6-C ,  9-C ) :   1.0608
B(  9-C , 10-H ) :   0.9579 B(  9-C , 11-H ) :   0.9554 B(  9-C , 12-C ) :   1.0660
B( 12-C , 13-H ) :   0.9732 B( 12-C , 14-H ) :   0.9729 B( 12-C , 15-H ) :   0.9722
B( 16-S , 17-C ) :   1.1564 B( 16-S , 20-C ) :   1.1241 B( 17-C , 18-C ) :   1.6044
B( 17-C , 20-C ) :   0.1003 B( 17-C , 33-H ) :   0.9554 B( 18-C , 19-C ) :   1.2314
B( 18-C , 21-H ) :   0.9936 B( 19-C , 20-C ) :   1.6228 B( 19-C , 22-C ) :   1.0284
B( 22-C , 23-H ) :   0.9411 B( 22-C , 24-H ) :   0.9429 B( 22-C , 25-C ) :   1.0449
B( 25-C , 26-H ) :   0.9592 B( 25-C , 27-H ) :   0.9560 B( 25-C , 28-C ) :   1.0751
B( 28-C , 29-H ) :   0.9726 B( 28-C , 30-H ) :   0.9751 B( 28-C , 31-H ) :   0.9785

Dispersion correction           -0.014041445
FINAL SINGLE POINT ENERGY     -1339.876546903110

DIPOLE MOMENT
-------------
                                X             Y             Z
Electronic contribution:     24.81857     -15.28071       2.34859
Nuclear contribution   :    -25.24738      15.71895      -2.12245
                        -----------------------------------------
Total Dipole Moment    :     -0.42881       0.43824       0.22613
                        -----------------------------------------
Magnitude (a.u.)       :      0.65351
Magnitude (Debye)      :      1.66108

Rotational constants in cm-1:     0.015924     0.009625     0.006814
Rotational constants in MHz :   477.395535   288.560805   204.287394

                             ****ORCA TERMINATED NORMALLY****
TOTAL RUN TIME: 0 days 0 hours 0 minutes 20 seconds 178 msec
