                         Program Version 4.2.1 -  RELEASE  -
|  1> ! wB97X-D3 SP def2-SVP
|  2> %pal
|  3> nprocs 24
|  4> end
|  5>
|  6> * xyz 0 1
|  7> S 	 -70.2109 	 -40.2433 	 -92.9937
|  8> C 	 -69.0182 	 -39.8353 	 -94.1942
|  9> C 	 -68.6711 	 -40.9318 	 -94.9974
| 10> C 	 -69.2712 	 -42.1223 	 -94.5377
| 11> C 	 -70.093 	 -41.9203 	 -93.4402
| 12> H 	 -69.1239 	 -43.0775 	 -94.9591
| 13> C 	 -67.8556 	 -40.8507 	 -96.2717
| 14> H 	 -68.0047 	 -39.8483 	 -96.7312
| 15> H 	 -68.4086 	 -41.6102 	 -96.8227
| 16> C 	 -66.4319 	 -41.2197 	 -96.0583
| 17> H 	 -65.9503 	 -41.22 	 -97.0138
| 18> H 	 -65.9372 	 -40.4412 	 -95.5205
| 19> C 	 -66.0112 	 -42.6677 	 -95.5085
| 20> H 	 -65.0134 	 -42.7879 	 -95.7288
| 21> H 	 -66.258 	 -42.73 	 -94.3867
| 22> H 	 -66.5137 	 -43.5306 	 -95.9332
| 23> S 	 -70.6372 	 -43.0584 	 -91.0945
| 24> C 	 -71.9126 	 -44.2559 	 -90.9862
| 25> C 	 -72.4525 	 -44.4859 	 -92.2174
| 26> C 	 -71.8347 	 -43.8268 	 -93.309
| 27> C 	 -70.854 	 -42.9104 	 -92.7771
| 28> H 	 -73.2326 	 -45.2307 	 -92.2167
| 29> C 	 -72.1937 	 -44.1081 	 -94.7498
| 30> H 	 -71.8872 	 -43.1994 	 -95.2542
| 31> H 	 -73.2141 	 -44.4024 	 -94.7657
| 32> C 	 -71.4349 	 -45.3482 	 -95.3
| 33> H 	 -71.8727 	 -46.1924 	 -94.8625
| 34> H 	 -70.4232 	 -45.3278 	 -94.8286
| 35> C 	 -71.2402 	 -45.5005 	 -96.8397
| 36> H 	 -72.2972 	 -45.4315 	 -97.1241
| 37> H 	 -70.8723 	 -46.5198 	 -97.189
| 38> H 	 -70.5461 	 -44.7745 	 -97.2974
| 39> H 	 -68.6134 	 -38.8693 	 -94.3274
| 40> H 	 -72.3666 	 -44.6154 	 -90.055
| 41> *
| 42>
| 43>                          ****END OF INPUT****

CARTESIAN COORDINATES (ANGSTROEM)
---------------------------------
  S    -70.210900  -40.243300  -92.993700
  C    -69.018200  -39.835300  -94.194200
  C    -68.671100  -40.931800  -94.997400
  C    -69.271200  -42.122300  -94.537700
  C    -70.093000  -41.920300  -93.440200
  H    -69.123900  -43.077500  -94.959100
  C    -67.855600  -40.850700  -96.271700
  H    -68.004700  -39.848300  -96.731200
  H    -68.408600  -41.610200  -96.822700
  C    -66.431900  -41.219700  -96.058300
  H    -65.950300  -41.220000  -97.013800
  H    -65.937200  -40.441200  -95.520500
  C    -66.011200  -42.667700  -95.508500
  H    -65.013400  -42.787900  -95.728800
  H    -66.258000  -42.730000  -94.386700
  H    -66.513700  -43.530600  -95.933200
  S    -70.637200  -43.058400  -91.094500
  C    -71.912600  -44.255900  -90.986200
  C    -72.452500  -44.485900  -92.217400
  C    -71.834700  -43.826800  -93.309000
  C    -70.854000  -42.910400  -92.777100
  H    -73.232600  -45.230700  -92.216700
  C    -72.193700  -44.108100  -94.749800
  H    -71.887200  -43.199400  -95.254200
  H    -73.214100  -44.402400  -94.765700
  C    -71.434900  -45.348200  -95.300000
  H    -71.872700  -46.192400  -94.862500
  H    -70.423200  -45.327800  -94.828600
  C    -71.240200  -45.500500  -96.839700
  H    -72.297200  -45.431500  -97.124100
  H    -70.872300  -46.519800  -97.189000
  H    -70.546100  -44.774500  -97.297400
  H    -68.613400  -38.869300  -94.327400
  H    -72.366600  -44.615400  -90.055000

 Total Charge           Charge          ....    0
 Multiplicity           Mult            ....    1
 Number of Electrons    NEL             ....  134
 Basis Dimension        Dim             ....  322

ORBITAL ENERGIES
----------------

  NO   OCC          E(Eh)            E(eV)
   0   2.0000     -88.967377     -2420.9254
   1   2.0000     -88.965204     -2420.8663
   2   2.0000     -10.321876      -280.8725
   3   2.0000     -10.321541      -280.8634
   4   2.0000     -10.311344      -280.5859
   5   2.0000     -10.307947      -280.4935
   6   2.0000     -10.305579      -280.4291
   7   2.0000     -10.296652      -280.1861
   8   2.0000     -10.292302      -280.0678
   9   2.0000     -10.290799      -280.0269
  10   2.0000     -10.289381      -279.9883
  11   2.0000     -10.288132      -279.9543
  12   2.0000     -10.288116      -279.9539
  13   2.0000     -10.285114      -279.8722
  14   2.0000     -10.284022      -279.8425
  15   2.0000     -10.282077      -279.7895
  16   2.0000      -8.082281      -219.9300
  17   2.0000      -8.080663      -219.8860
  18   2.0000      -6.040670      -164.3750
  19   2.0000      -6.038957      -164.3284
  20   2.0000      -6.036779      -164.2691
  21   2.0000      -6.034948      -164.2193
  22   2.0000      -6.033154      -164.1705
  23   2.0000      -6.031731      -164.1318
  24   2.0000      -1.010890       -27.5077
  25   2.0000      -0.984622       -26.7929
  26   2.0000      -0.915337       -24.9076
  27   2.0000      -0.908891       -24.7322
  28   2.0000      -0.871232       -23.7074
  29   2.0000      -0.850222       -23.1357
  30   2.0000      -0.845689       -23.0124
  31   2.0000      -0.814620       -22.1669
  32   2.0000      -0.787602       -21.4317
  33   2.0000      -0.769689       -20.9443
  34   2.0000      -0.708150       -19.2697
  35   2.0000      -0.706147       -19.2152
  36   2.0000      -0.693987       -18.8843
  37   2.0000      -0.659999       -17.9595
  38   2.0000      -0.640931       -17.4406
  39   2.0000      -0.617650       -16.8071
  40   2.0000      -0.589448       -16.0397
  41   2.0000      -0.574991       -15.6463
  42   2.0000      -0.567045       -15.4301
  43   2.0000      -0.549142       -14.9429
  44   2.0000      -0.543762       -14.7965
  45   2.0000      -0.527505       -14.3541
  46   2.0000      -0.515917       -14.0388
  47   2.0000      -0.513969       -13.9858
  48   2.0000      -0.505695       -13.7607
  49   2.0000      -0.500390       -13.6163
  50   2.0000      -0.484578       -13.1860
  51   2.0000      -0.483841       -13.1660
  52   2.0000      -0.477972       -13.0063
  53   2.0000      -0.464346       -12.6355
  54   2.0000      -0.457725       -12.4553
  55   2.0000      -0.452353       -12.3091
  56   2.0000      -0.443070       -12.0565
  57   2.0000      -0.441810       -12.0222
  58   2.0000      -0.436524       -11.8784
  59   2.0000      -0.431128       -11.7316
  60   2.0000      -0.424443       -11.5497
  61   2.0000      -0.405843       -11.0436
  62   2.0000      -0.404461       -11.0059
  63   2.0000      -0.344745        -9.3810
  64   2.0000      -0.330505        -8.9935
  65   2.0000      -0.325717        -8.8632
  66   2.0000      -0.287826        -7.8321
  67   0.0000       0.029508         0.8030
  68   0.0000       0.071316         1.9406
  69   0.0000       0.107517         2.9257
  70   0.0000       0.123107         3.3499
  71   0.0000       0.129695         3.5292

MULLIKEN ATOMIC CHARGES
-----------------------
   0 S :    0.132041
   1 C :   -0.114563
   2 C :   -0.105162
   3 C :    0.036470
   4 C :   -0.154473
   5 H :   -0.014169
   6 C :    0.090670
   7 H :    0.036236
   8 H :    0.020876
   9 C :   -0.052878
  10 H :    0.019628
  11 H :    0.023122
  12 C :   -0.063311
  13 H :    0.026469
  14 H :    0.058316
  15 H :    0.026539
  16 S :    0.124713
  17 C :   -0.106707
  18 C :   -0.042378
  19 C :   -0.040924
  20 C :   -0.198016
  21 H :    0.009757
  22 C :    0.140537
  23 H :    0.029840
  24 H :    0.018137
  25 C :   -0.093238
  26 H :    0.010944
  27 H :    0.027372
  28 C :   -0.060512
  29 H :    0.035978
  30 H :    0.044574
  31 H :    0.046229
  32 H :    0.026972
  33 H :    0.060910
Sum of atomic charges:    0.0000000

LOEWDIN ATOMIC CHARGES
----------------------
   0 S :    0.421720
   1 C :   -0.202410
   2 C :   -0.058106
   3 C :   -0.059831
   4 C :   -0.203487
   5 H :    0.023274
   6 C :   -0.032051
   7 H :    0.038744
   8 H :    0.032743
   9 C :   -0.038222
  10 H :    0.021191
  11 H :    0.023169
  12 C :   -0.062948
  13 H :    0.016532
  14 H :    0.037373
  15 H :    0.022426
  16 S :    0.433370
  17 C :   -0.198500
  18 C :   -0.074048
  19 C :   -0.047121
  20 C :   -0.221227
  21 H :    0.029043
  22 C :   -0.023456
  23 H :    0.032839
  24 H :    0.028717
  25 C :   -0.042434
  26 H :    0.015479
  27 H :    0.020378
  28 C :   -0.072776
  29 H :    0.028020
  30 H :    0.034674
  31 H :    0.026878
  32 H :    0.016525
  33 H :    0.033525

  Mayer bond orders larger than 0.100000
B(  0-S ,  1-C ) :   1.1439 B(  0-S ,  4-C ) :   1.1678 B(  1-C ,  2-C ) :   1.5878
B(  1-C ,  4-C ) :   0.1004 B(  1-C , 32-H ) :   0.9740 B(  2-C ,  3-C ) :   1.2642
B(  2-C ,  6-C ) :   0.9931 B(  3-C ,  4-C ) :   1.5354 B(  3-C ,  5-H ) :   1.0056
B(  4-C , 20-C ) :   1.0645 B(  6-C ,  7-H ) :   0.9409 B(  6-C ,  8-H ) :   0.9383
B(  6-C ,  9-C ) :   1.0858 B(  9-C , 10-H ) :   0.9547 B(  9-C , 11-H ) :   0.9519
B(  9-C , 12-C ) :   1.0697 B( 12-C , 13-H ) :   0.9760 B( 12-C , 14-H ) :   0.9735
B( 12-C , 15-H ) :   0.9754 B( 16-S , 17-C ) :   1.1456 B( 16-S , 20-C ) :   1.1889
B( 17-C , 18-C ) :   1.6149 B( 17-C , 20-C ) :   0.1067 B( 17-C , 33-H ) :   0.9627
B( 18-C , 19-C ) :   1.2569 B( 18-C , 21-H ) :   0.9871 B( 19-C , 20-C ) :   1.5070
B( 19-C , 22-C ) :   1.0651 B( 22-C , 23-H ) :   0.9228 B( 22-C , 24-H ) :   0.9253
B( 22-C , 25-C ) :   1.0522 B( 25-C , 26-H ) :   0.9547 B( 25-C , 27-H ) :   0.9586
B( 25-C , 28-C ) :   1.0667 B( 28-C , 29-H ) :   0.9759 B( 28-C , 30-H ) :   0.9745
B( 28-C , 31-H ) :   0.9771

Dispersion correction           -0.015000537
FINAL SINGLE POINT ENERGY     -1339.861831282196

DIPOLE MOMENT
-------------
                                X             Y             Z
Electronic contribution:     -9.43844      12.28891      23.85631
Nuclear contribution   :      9.50496     -12.57572     -24.38889
                        -----------------------------------------
Total Dipole Moment    :      0.06652      -0.28681      -0.53258
                        -----------------------------------------
Magnitude (a.u.)       :      0.60855
Magnitude (Debye)      :      1.54681

Rotational constants in cm-1:     0.016773     0.009987     0.007442
Rotational constants in MHz :   502.850576   299.417593   223.101792

                             ****ORCA TERMINATED NORMALLY****
TOTAL RUN TIME: 0 days 0 hours 0 minutes 21 seconds 79 msec
