                         Program Version 4.2.1 -  RELEASE  -
|  1> ! wB97X-D3 SP def2-SVP
|  2> %pal
|  3> nprocs 24
|  4> end
|  5>
|  6> * xyz 0 1
|  7> S 	 -134.334 	 27.5949 	 -18.693
|  8> C 	 -133.052 	 27.214 	 -17.5333
|  9> C 	 -131.78 	 27.4446 	 -18.0984
| 10> C 	 -131.844 	 28.0521 	 -19.4234
| 11> C 	 -133.15 	 28.1716 	 -19.8239
| 12> H 	 -130.981 	 28.4407 	 -19.9908
| 13> C 	 -130.384 	 27.1728 	 -17.3991
| 14> H 	 -129.608 	 27.2037 	 -18.1465
| 15> H 	 -130.316 	 26.1227 	 -17.017
| 16> C 	 -129.956 	 28.2311 	 -16.3215
| 17> H 	 -129.027 	 27.7874 	 -15.9196
| 18> H 	 -129.631 	 29.173 	 -16.8319
| 19> C 	 -130.887 	 28.4699 	 -15.1761
| 20> H 	 -130.384 	 28.9992 	 -14.3913
| 21> H 	 -131.784 	 28.9922 	 -15.4987
| 22> H 	 -131.152 	 27.4826 	 -14.8871
| 23> S 	 -133.934 	 27.1859 	 -22.3005
| 24> C 	 -134.05 	 28.267 	 -23.6703
| 25> C 	 -133.827 	 29.5553 	 -23.2767
| 26> C 	 -133.695 	 29.7158 	 -21.8552
| 27> C 	 -133.532 	 28.5179 	 -21.1908
| 28> H 	 -133.682 	 30.2787 	 -24.0731
| 29> C 	 -133.364 	 31.0141 	 -21.2064
| 30> H 	 -133.595 	 31.0305 	 -20.1217
| 31> H 	 -134.084 	 31.7212 	 -21.6279
| 32> C 	 -132.034 	 31.6151 	 -21.4383
| 33> H 	 -131.783 	 31.5268 	 -22.4719
| 34> H 	 -131.249 	 31.0133 	 -20.925
| 35> C 	 -131.93 	 33.1374 	 -21.172
| 36> H 	 -131.017 	 33.5114 	 -21.5272
| 37> H 	 -132.114 	 33.3918 	 -20.0886
| 38> H 	 -132.712 	 33.6395 	 -21.7671
| 39> H 	 -133.193 	 26.8604 	 -16.5657
| 40> H 	 -134.188 	 27.9888 	 -24.7637
| 41> *
| 42>
| 43>                          ****END OF INPUT****

CARTESIAN COORDINATES (ANGSTROEM)
---------------------------------
  S    -134.334000   27.594900  -18.693000
  C    -133.052000   27.214000  -17.533300
  C    -131.780000   27.444600  -18.098400
  C    -131.844000   28.052100  -19.423400
  C    -133.150000   28.171600  -19.823900
  H    -130.981000   28.440700  -19.990800
  C    -130.384000   27.172800  -17.399100
  H    -129.608000   27.203700  -18.146500
  H    -130.316000   26.122700  -17.017000
  C    -129.956000   28.231100  -16.321500
  H    -129.027000   27.787400  -15.919600
  H    -129.631000   29.173000  -16.831900
  C    -130.887000   28.469900  -15.176100
  H    -130.384000   28.999200  -14.391300
  H    -131.784000   28.992200  -15.498700
  H    -131.152000   27.482600  -14.887100
  S    -133.934000   27.185900  -22.300500
  C    -134.050000   28.267000  -23.670300
  C    -133.827000   29.555300  -23.276700
  C    -133.695000   29.715800  -21.855200
  C    -133.532000   28.517900  -21.190800
  H    -133.682000   30.278700  -24.073100
  C    -133.364000   31.014100  -21.206400
  H    -133.595000   31.030500  -20.121700
  H    -134.084000   31.721200  -21.627900
  C    -132.034000   31.615100  -21.438300
  H    -131.783000   31.526800  -22.471900
  H    -131.249000   31.013300  -20.925000
  C    -131.930000   33.137400  -21.172000
  H    -131.017000   33.511400  -21.527200
  H    -132.114000   33.391800  -20.088600
  H    -132.712000   33.639500  -21.767100
  H    -133.193000   26.860400  -16.565700
  H    -134.188000   27.988800  -24.763700

 Total Charge           Charge          ....    0
 Multiplicity           Mult            ....    1
 Number of Electrons    NEL             ....  134
 Basis Dimension        Dim             ....  322

ORBITAL ENERGIES
----------------

  NO   OCC          E(Eh)            E(eV)
   0   2.0000     -88.971183     -2421.0290
   1   2.0000     -88.959537     -2420.7121
   2   2.0000     -10.328713      -281.0586
   3   2.0000     -10.324545      -280.9452
   4   2.0000     -10.318792      -280.7886
   5   2.0000     -10.316533      -280.7271
   6   2.0000     -10.311672      -280.5949
   7   2.0000     -10.301146      -280.3084
   8   2.0000     -10.301055      -280.3060
   9   2.0000     -10.301015      -280.3049
  10   2.0000     -10.291492      -280.0457
  11   2.0000     -10.289473      -279.9908
  12   2.0000     -10.283028      -279.8154
  13   2.0000     -10.281263      -279.7674
  14   2.0000     -10.280314      -279.7416
  15   2.0000     -10.270438      -279.4728
  16   2.0000      -8.085573      -220.0196
  17   2.0000      -8.074131      -219.7083
  18   2.0000      -6.044097      -164.4683
  19   2.0000      -6.040136      -164.3605
  20   2.0000      -6.036315      -164.2565
  21   2.0000      -6.032739      -164.1592
  22   2.0000      -6.028627      -164.0473
  23   2.0000      -6.024810      -163.9434
  24   2.0000      -1.004738       -27.3403
  25   2.0000      -0.980666       -26.6853
  26   2.0000      -0.913990       -24.8709
  27   2.0000      -0.906572       -24.6691
  28   2.0000      -0.867863       -23.6157
  29   2.0000      -0.849762       -23.1232
  30   2.0000      -0.846181       -23.0258
  31   2.0000      -0.813106       -22.1257
  32   2.0000      -0.786084       -21.3904
  33   2.0000      -0.773147       -21.0384
  34   2.0000      -0.704918       -19.1818
  35   2.0000      -0.692437       -18.8422
  36   2.0000      -0.690890       -18.8001
  37   2.0000      -0.654053       -17.7977
  38   2.0000      -0.643731       -17.5168
  39   2.0000      -0.614820       -16.7301
  40   2.0000      -0.596338       -16.2272
  41   2.0000      -0.569282       -15.4910
  42   2.0000      -0.560577       -15.2541
  43   2.0000      -0.554367       -15.0851
  44   2.0000      -0.543180       -14.7807
  45   2.0000      -0.526633       -14.3304
  46   2.0000      -0.518102       -14.0983
  47   2.0000      -0.510869       -13.9015
  48   2.0000      -0.505079       -13.7439
  49   2.0000      -0.499142       -13.5823
  50   2.0000      -0.488589       -13.2952
  51   2.0000      -0.475693       -12.9443
  52   2.0000      -0.469193       -12.7674
  53   2.0000      -0.463379       -12.6092
  54   2.0000      -0.461123       -12.5478
  55   2.0000      -0.453342       -12.3361
  56   2.0000      -0.445832       -12.1317
  57   2.0000      -0.436750       -11.8846
  58   2.0000      -0.435916       -11.8619
  59   2.0000      -0.423890       -11.5346
  60   2.0000      -0.414296       -11.2736
  61   2.0000      -0.410870       -11.1803
  62   2.0000      -0.407995       -11.1021
  63   2.0000      -0.338990        -9.2244
  64   2.0000      -0.325104        -8.8465
  65   2.0000      -0.323967        -8.8156
  66   2.0000      -0.309344        -8.4177
  67   0.0000       0.042729         1.1627
  68   0.0000       0.054940         1.4950
  69   0.0000       0.113236         3.0813
  70   0.0000       0.121024         3.2932
  71   0.0000       0.127254         3.4628

MULLIKEN ATOMIC CHARGES
-----------------------
   0 S :    0.132416
   1 C :   -0.100366
   2 C :   -0.095002
   3 C :    0.035407
   4 C :   -0.163388
   5 H :    0.037704
   6 C :    0.042981
   7 H :    0.015298
   8 H :    0.043292
   9 C :   -0.102924
  10 H :    0.026431
  11 H :    0.030536
  12 C :   -0.004953
  13 H :    0.036560
  14 H :    0.043140
  15 H :    0.010852
  16 S :    0.098930
  17 C :   -0.114359
  18 C :   -0.050435
  19 C :   -0.003184
  20 C :   -0.174947
  21 H :    0.023262
  22 C :    0.061646
  23 H :    0.032058
  24 H :    0.007003
  25 C :   -0.058868
  26 H :    0.007038
  27 H :    0.022405
  28 C :   -0.038560
  29 H :    0.026021
  30 H :    0.042294
  31 H :    0.026223
  32 H :    0.025975
  33 H :    0.079514
Sum of atomic charges:   -0.0000000

LOEWDIN ATOMIC CHARGES
----------------------
   0 S :    0.414512
   1 C :   -0.186259
   2 C :   -0.054505
   3 C :   -0.055562
   4 C :   -0.205030
   5 H :    0.041058
   6 C :   -0.034240
   7 H :    0.027254
   8 H :    0.034380
   9 C :   -0.043006
  10 H :    0.025284
  11 H :    0.023227
  12 C :   -0.060566
  13 H :    0.027591
  14 H :    0.026922
  15 H :    0.019545
  16 S :    0.385669
  17 C :   -0.194544
  18 C :   -0.079175
  19 C :   -0.057313
  20 C :   -0.187636
  21 H :    0.032580
  22 C :   -0.041472
  23 H :    0.034504
  24 H :    0.030032
  25 C :   -0.043077
  26 H :    0.018638
  27 H :    0.023193
  28 C :   -0.058632
  29 H :    0.018686
  30 H :    0.030137
  31 H :    0.026523
  32 H :    0.013779
  33 H :    0.047502

  Mayer bond orders larger than 0.100000
B(  0-S ,  1-C ) :   1.1296 B(  0-S ,  4-C ) :   1.1591 B(  1-C ,  2-C ) :   1.6175
B(  1-C , 32-H ) :   0.9786 B(  2-C ,  3-C ) :   1.2302 B(  2-C ,  6-C ) :   1.0096
B(  3-C ,  4-C ) :   1.5937 B(  3-C ,  5-H ) :   0.9839 B(  4-C , 20-C ) :   1.0129
B(  6-C ,  7-H ) :   0.9427 B(  6-C ,  8-H ) :   0.9476 B(  6-C ,  9-C ) :   1.0720
B(  9-C , 10-H ) :   0.9530 B(  9-C , 11-H ) :   0.9558 B(  9-C , 12-C ) :   1.0860
B( 12-C , 13-H ) :   0.9702 B( 12-C , 14-H ) :   0.9699 B( 12-C , 15-H ) :   0.9710
B( 16-S , 17-C ) :   1.1456 B( 16-S , 20-C ) :   1.1280 B( 17-C , 18-C ) :   1.6513
B( 17-C , 33-H ) :   0.9562 B( 18-C , 19-C ) :   1.1955 B( 18-C , 21-H ) :   0.9884
B( 19-C , 20-C ) :   1.6236 B( 19-C , 22-C ) :   1.0750 B( 22-C , 23-H ) :   0.9253
B( 22-C , 24-H ) :   0.9166 B( 22-C , 25-C ) :   1.0787 B( 25-C , 26-H ) :   0.9495
B( 25-C , 27-H ) :   0.9453 B( 25-C , 28-C ) :   1.0807 B( 28-C , 29-H ) :   0.9743
B( 28-C , 30-H ) :   0.9773 B( 28-C , 31-H ) :   0.9720

Dispersion correction           -0.014472351
FINAL SINGLE POINT ENERGY     -1339.877524309737

DIPOLE MOMENT
-------------
                                X             Y             Z
Electronic contribution:    -17.92225     -17.66196     -11.80379
Nuclear contribution   :     18.53418      18.02041      11.87122
                        -----------------------------------------
Total Dipole Moment    :      0.61193       0.35845       0.06743
                        -----------------------------------------
Magnitude (a.u.)       :      0.71238
Magnitude (Debye)      :      1.81073

Rotational constants in cm-1:     0.018355     0.008659     0.006711
Rotational constants in MHz :   550.261607   259.583122   201.195786

                             ****ORCA TERMINATED NORMALLY****
TOTAL RUN TIME: 0 days 0 hours 0 minutes 20 seconds 322 msec
