                         Program Version 4.2.1 -  RELEASE  -
|  1> ! wB97X-D3 SP def2-SVP
|  2> %pal
|  3> nprocs 24
|  4> end
|  5>
|  6> * xyz 0 1
|  7> S 	 -106.227 	 63.0016 	 -96.0273
|  8> C 	 -107.704 	 62.6162 	 -96.9067
|  9> C 	 -107.426 	 62.2748 	 -98.2448
| 10> C 	 -106.048 	 62.3836 	 -98.4925
| 11> C 	 -105.218 	 62.7606 	 -97.4591
| 12> H 	 -105.639 	 62.1912 	 -99.4177
| 13> C 	 -108.425 	 61.6311 	 -99.1926
| 14> H 	 -109.202 	 61.2977 	 -98.5648
| 15> H 	 -108.035 	 60.7965 	 -99.7478
| 16> C 	 -109.159 	 62.6474 	 -100.154
| 17> H 	 -109.888 	 62.0344 	 -100.732
| 18> H 	 -109.756 	 63.2781 	 -99.5002
| 19> C 	 -108.295 	 63.4249 	 -101.17
| 20> H 	 -107.516 	 63.947 	 -100.687
| 21> H 	 -107.802 	 62.8372 	 -101.941
| 22> H 	 -108.929 	 64.1755 	 -101.64
| 23> S 	 -102.983 	 64.2632 	 -98.2148
| 24> C 	 -101.458 	 63.8611 	 -97.4692
| 25> C 	 -101.517 	 62.5431 	 -96.9066
| 26> C 	 -102.835 	 61.9487 	 -96.9175
| 27> C 	 -103.779 	 62.8146 	 -97.4871
| 28> H 	 -100.581 	 62.1562 	 -96.5151
| 29> C 	 -103.201 	 60.6445 	 -96.271
| 30> H 	 -104.309 	 60.4442 	 -96.3385
| 31> H 	 -102.904 	 60.8087 	 -95.1759
| 32> C 	 -102.562 	 59.3841 	 -96.8516
| 33> H 	 -101.477 	 59.6123 	 -96.9815
| 34> H 	 -103.044 	 59.1446 	 -97.8231
| 35> C 	 -102.669 	 58.0963 	 -96.002
| 36> H 	 -102.184 	 57.2755 	 -96.4095
| 37> H 	 -103.743 	 57.8251 	 -95.8611
| 38> H 	 -102.234 	 58.1812 	 -95.0226
| 39> H 	 -108.64 	 62.6224 	 -96.3519
| 40> H 	 -100.503 	 64.3715 	 -97.5903
| 41> *
| 42>
| 43>                          ****END OF INPUT****

CARTESIAN COORDINATES (ANGSTROEM)
---------------------------------
  S    -106.227000   63.001600  -96.027300
  C    -107.704000   62.616200  -96.906700
  C    -107.426000   62.274800  -98.244800
  C    -106.048000   62.383600  -98.492500
  C    -105.218000   62.760600  -97.459100
  H    -105.639000   62.191200  -99.417700
  C    -108.425000   61.631100  -99.192600
  H    -109.202000   61.297700  -98.564800
  H    -108.035000   60.796500  -99.747800
  C    -109.159000   62.647400  -100.154000
  H    -109.888000   62.034400  -100.732000
  H    -109.756000   63.278100  -99.500200
  C    -108.295000   63.424900  -101.170000
  H    -107.516000   63.947000  -100.687000
  H    -107.802000   62.837200  -101.941000
  H    -108.929000   64.175500  -101.640000
  S    -102.983000   64.263200  -98.214800
  C    -101.458000   63.861100  -97.469200
  C    -101.517000   62.543100  -96.906600
  C    -102.835000   61.948700  -96.917500
  C    -103.779000   62.814600  -97.487100
  H    -100.581000   62.156200  -96.515100
  C    -103.201000   60.644500  -96.271000
  H    -104.309000   60.444200  -96.338500
  H    -102.904000   60.808700  -95.175900
  C    -102.562000   59.384100  -96.851600
  H    -101.477000   59.612300  -96.981500
  H    -103.044000   59.144600  -97.823100
  C    -102.669000   58.096300  -96.002000
  H    -102.184000   57.275500  -96.409500
  H    -103.743000   57.825100  -95.861100
  H    -102.234000   58.181200  -95.022600
  H    -108.640000   62.622400  -96.351900
  H    -100.503000   64.371500  -97.590300

 Total Charge           Charge          ....    0
 Multiplicity           Mult            ....    1
 Number of Electrons    NEL             ....  134
 Basis Dimension        Dim             ....  322

ORBITAL ENERGIES
----------------

  NO   OCC          E(Eh)            E(eV)
   0   2.0000     -88.966535     -2420.9025
   1   2.0000     -88.966065     -2420.8897
   2   2.0000     -10.328548      -281.0541
   3   2.0000     -10.326257      -280.9917
   4   2.0000     -10.324426      -280.9419
   5   2.0000     -10.320462      -280.8340
   6   2.0000     -10.310687      -280.5680
   7   2.0000     -10.302405      -280.3427
   8   2.0000     -10.301309      -280.3129
   9   2.0000     -10.298117      -280.2260
  10   2.0000     -10.291518      -280.0464
  11   2.0000     -10.291157      -280.0366
  12   2.0000     -10.290102      -280.0079
  13   2.0000     -10.285019      -279.8696
  14   2.0000     -10.273612      -279.5592
  15   2.0000     -10.272603      -279.5317
  16   2.0000      -8.080332      -219.8770
  17   2.0000      -8.080088      -219.8704
  18   2.0000      -6.038896      -164.3267
  19   2.0000      -6.038532      -164.3168
  20   2.0000      -6.034915      -164.2184
  21   2.0000      -6.034576      -164.2091
  22   2.0000      -6.031137      -164.1156
  23   2.0000      -6.031078      -164.1140
  24   2.0000      -1.000126       -27.2148
  25   2.0000      -0.976485       -26.5715
  26   2.0000      -0.906180       -24.6584
  27   2.0000      -0.905072       -24.6283
  28   2.0000      -0.865379       -23.5482
  29   2.0000      -0.848848       -23.0983
  30   2.0000      -0.845675       -23.0120
  31   2.0000      -0.811432       -22.0802
  32   2.0000      -0.786538       -21.4028
  33   2.0000      -0.771714       -20.9994
  34   2.0000      -0.703541       -19.1443
  35   2.0000      -0.699177       -19.0256
  36   2.0000      -0.691098       -18.8057
  37   2.0000      -0.656271       -17.8580
  38   2.0000      -0.646593       -17.5947
  39   2.0000      -0.616904       -16.7868
  40   2.0000      -0.591835       -16.1047
  41   2.0000      -0.572895       -15.5893
  42   2.0000      -0.563080       -15.3222
  43   2.0000      -0.544879       -14.8269
  44   2.0000      -0.536511       -14.5992
  45   2.0000      -0.520466       -14.1626
  46   2.0000      -0.516940       -14.0667
  47   2.0000      -0.513205       -13.9650
  48   2.0000      -0.509963       -13.8768
  49   2.0000      -0.497360       -13.5339
  50   2.0000      -0.493234       -13.4216
  51   2.0000      -0.476793       -12.9742
  52   2.0000      -0.469969       -12.7885
  53   2.0000      -0.465491       -12.6666
  54   2.0000      -0.458248       -12.4696
  55   2.0000      -0.450276       -12.2526
  56   2.0000      -0.439099       -11.9485
  57   2.0000      -0.433699       -11.8015
  58   2.0000      -0.427858       -11.6426
  59   2.0000      -0.427544       -11.6341
  60   2.0000      -0.418189       -11.3795
  61   2.0000      -0.416938       -11.3455
  62   2.0000      -0.413979       -11.2649
  63   2.0000      -0.335523        -9.1301
  64   2.0000      -0.328415        -8.9366
  65   2.0000      -0.322926        -8.7873
  66   2.0000      -0.300328        -8.1724
  67   0.0000       0.035276         0.9599
  68   0.0000       0.048429         1.3178
  69   0.0000       0.104221         2.8360
  70   0.0000       0.121097         3.2952
  71   0.0000       0.124257         3.3812

MULLIKEN ATOMIC CHARGES
-----------------------
   0 S :    0.114568
   1 C :   -0.152146
   2 C :   -0.061196
   3 C :    0.061191
   4 C :   -0.168378
   5 H :   -0.027864
   6 C :    0.093342
   7 H :    0.007518
   8 H :    0.032406
   9 C :   -0.089149
  10 H :    0.029541
  11 H :    0.025323
  12 C :   -0.030788
  13 H :    0.025206
  14 H :    0.030123
  15 H :    0.034511
  16 S :    0.114344
  17 C :   -0.102297
  18 C :   -0.061866
  19 C :    0.021945
  20 C :   -0.192990
  21 H :    0.023409
  22 C :    0.031350
  23 H :    0.044459
  24 H :    0.048803
  25 C :   -0.102615
  26 H :    0.031171
  27 H :    0.039968
  28 C :   -0.017768
  29 H :    0.020841
  30 H :    0.030108
  31 H :    0.020161
  32 H :    0.059726
  33 H :    0.067041
Sum of atomic charges:   -0.0000000

LOEWDIN ATOMIC CHARGES
----------------------
   0 S :    0.402124
   1 C :   -0.187963
   2 C :   -0.065454
   3 C :   -0.050470
   4 C :   -0.200592
   5 H :    0.016285
   6 C :   -0.023949
   7 H :    0.027196
   8 H :    0.028751
   9 C :   -0.034759
  10 H :    0.024669
  11 H :    0.021824
  12 C :   -0.066469
  13 H :    0.018999
  14 H :    0.025600
  15 H :    0.030414
  16 S :    0.391622
  17 C :   -0.189128
  18 C :   -0.074399
  19 C :   -0.047026
  20 C :   -0.191226
  21 H :    0.029340
  22 C :   -0.043244
  23 H :    0.036697
  24 H :    0.042636
  25 C :   -0.042817
  26 H :    0.023570
  27 H :    0.030435
  28 C :   -0.062414
  29 H :    0.017924
  30 H :    0.029283
  31 H :    0.021601
  32 H :    0.027389
  33 H :    0.033549

  Mayer bond orders larger than 0.100000
B(  0-S ,  1-C ) :   1.1730 B(  0-S ,  4-C ) :   1.1307 B(  1-C ,  2-C ) :   1.5569
B(  1-C ,  4-C ) :   0.1060 B(  1-C , 32-H ) :   0.9682 B(  2-C ,  3-C ) :   1.2682
B(  2-C ,  6-C ) :   1.0165 B(  3-C ,  4-C ) :   1.5646 B(  3-C ,  5-H ) :   1.0068
B(  4-C , 20-C ) :   1.0470 B(  6-C ,  7-H ) :   0.9348 B(  6-C ,  8-H ) :   0.9511
B(  6-C ,  9-C ) :   1.0711 B(  9-C , 10-H ) :   0.9579 B(  9-C , 11-H ) :   0.9589
B(  9-C , 12-C ) :   1.0761 B( 12-C , 13-H ) :   0.9742 B( 12-C , 14-H ) :   0.9758
B( 12-C , 15-H ) :   0.9729 B( 16-S , 17-C ) :   1.1641 B( 16-S , 20-C ) :   1.1269
B( 17-C , 18-C ) :   1.6042 B( 17-C , 20-C ) :   0.1064 B( 17-C , 33-H ) :   0.9647
B( 18-C , 19-C ) :   1.2192 B( 18-C , 21-H ) :   0.9886 B( 19-C , 20-C ) :   1.5853
B( 19-C , 22-C ) :   1.0448 B( 22-C , 23-H ) :   0.9302 B( 22-C , 24-H ) :   0.9352
B( 22-C , 25-C ) :   1.0603 B( 25-C , 26-H ) :   0.9604 B( 25-C , 27-H ) :   0.9525
B( 25-C , 28-C ) :   1.0884 B( 28-C , 29-H ) :   0.9734 B( 28-C , 30-H ) :   0.9730
B( 28-C , 31-H ) :   0.9731

Dispersion correction           -0.014141198
FINAL SINGLE POINT ENERGY     -1339.877223475567

DIPOLE MOMENT
-------------
                                X             Y             Z
Electronic contribution:      6.98980      17.13048       7.71779
Nuclear contribution   :     -7.04465     -17.66288      -7.83848
                        -----------------------------------------
Total Dipole Moment    :     -0.05485      -0.53240      -0.12070
                        -----------------------------------------
Magnitude (a.u.)       :      0.54866
Magnitude (Debye)      :      1.39458

Rotational constants in cm-1:     0.017867     0.008076     0.006815
Rotational constants in MHz :   535.628495   242.117067   204.320975

                             ****ORCA TERMINATED NORMALLY****
TOTAL RUN TIME: 0 days 0 hours 0 minutes 19 seconds 932 msec
