                         Program Version 4.2.1 -  RELEASE  -
|  1> ! wB97X-D3 SP def2-SVP
|  2> %pal
|  3> nprocs 24
|  4> end
|  5>
|  6> * xyz 0 1
|  7> S 	 -70.7821 	 4.25249 	 14.2067
|  8> C 	 -69.3108 	 5.14658 	 13.9161
|  9> C 	 -68.5618 	 5.37205 	 15.0881
| 10> C 	 -69.2368 	 4.81658 	 16.2097
| 11> C 	 -70.4874 	 4.27698 	 15.9327
| 12> H 	 -68.9427 	 5.0072 	 17.233
| 13> C 	 -67.2646 	 6.20532 	 15.1904
| 14> H 	 -67.4001 	 7.05547 	 15.8447
| 15> H 	 -67.1135 	 6.69401 	 14.1851
| 16> C 	 -65.9544 	 5.45086 	 15.4749
| 17> H 	 -65.1148 	 6.11192 	 15.4371
| 18> H 	 -66.0478 	 5.13744 	 16.534
| 19> C 	 -65.6991 	 4.19311 	 14.6815
| 20> H 	 -66.5253 	 3.48465 	 14.6697
| 21> H 	 -65.4614 	 4.41578 	 13.6505
| 22> H 	 -64.8191 	 3.54555 	 15.0883
| 23> S 	 -73.0933 	 3.87425 	 16.8772
| 24> C 	 -73.4524 	 2.88828 	 18.2127
| 25> C 	 -72.2685 	 2.19398 	 18.4785
| 26> C 	 -71.1301 	 2.57112 	 17.6734
| 27> C 	 -71.3833 	 3.55939 	 16.8156
| 28> H 	 -72.3307 	 1.47934 	 19.2837
| 29> C 	 -69.7708 	 2.00714 	 17.9218
| 30> H 	 -69.1391 	 2.16296 	 17.0291
| 31> H 	 -69.7533 	 0.914529 	 17.8514
| 32> C 	 -69.0249 	 2.40683 	 19.2023
| 33> H 	 -69.6857 	 2.22401 	 20.101
| 34> H 	 -69.0149 	 3.47658 	 19.0233
| 35> C 	 -67.5684 	 1.73135 	 19.3027
| 36> H 	 -67.024 	 2.19298 	 20.107
| 37> H 	 -66.9444 	 1.90183 	 18.4205
| 38> H 	 -67.5147 	 0.664642 	 19.3621
| 39> H 	 -68.9992 	 5.42831 	 12.9541
| 40> H 	 -74.3381 	 2.60381 	 18.6822
| 41> *
| 42>
| 43>                          ****END OF INPUT****

CARTESIAN COORDINATES (ANGSTROEM)
---------------------------------
  S    -70.782100    4.252490   14.206700
  C    -69.310800    5.146580   13.916100
  C    -68.561800    5.372050   15.088100
  C    -69.236800    4.816580   16.209700
  C    -70.487400    4.276980   15.932700
  H    -68.942700    5.007200   17.233000
  C    -67.264600    6.205320   15.190400
  H    -67.400100    7.055470   15.844700
  H    -67.113500    6.694010   14.185100
  C    -65.954400    5.450860   15.474900
  H    -65.114800    6.111920   15.437100
  H    -66.047800    5.137440   16.534000
  C    -65.699100    4.193110   14.681500
  H    -66.525300    3.484650   14.669700
  H    -65.461400    4.415780   13.650500
  H    -64.819100    3.545550   15.088300
  S    -73.093300    3.874250   16.877200
  C    -73.452400    2.888280   18.212700
  C    -72.268500    2.193980   18.478500
  C    -71.130100    2.571120   17.673400
  C    -71.383300    3.559390   16.815600
  H    -72.330700    1.479340   19.283700
  C    -69.770800    2.007140   17.921800
  H    -69.139100    2.162960   17.029100
  H    -69.753300    0.914529   17.851400
  C    -69.024900    2.406830   19.202300
  H    -69.685700    2.224010   20.101000
  H    -69.014900    3.476580   19.023300
  C    -67.568400    1.731350   19.302700
  H    -67.024000    2.192980   20.107000
  H    -66.944400    1.901830   18.420500
  H    -67.514700    0.664642   19.362100
  H    -68.999200    5.428310   12.954100
  H    -74.338100    2.603810   18.682200

 Total Charge           Charge          ....    0
 Multiplicity           Mult            ....    1
 Number of Electrons    NEL             ....  134
 Basis Dimension        Dim             ....  322

ORBITAL ENERGIES
----------------

  NO   OCC          E(Eh)            E(eV)
   0   2.0000     -88.971005     -2421.0241
   1   2.0000     -88.961457     -2420.7643
   2   2.0000     -10.332403      -281.1590
   3   2.0000     -10.321708      -280.8679
   4   2.0000     -10.316476      -280.7256
   5   2.0000     -10.313505      -280.6448
   6   2.0000     -10.308690      -280.5137
   7   2.0000     -10.300961      -280.3034
   8   2.0000     -10.298118      -280.2260
   9   2.0000     -10.297686      -280.2143
  10   2.0000     -10.296303      -280.1767
  11   2.0000     -10.292548      -280.0745
  12   2.0000     -10.288390      -279.9613
  13   2.0000     -10.283589      -279.8307
  14   2.0000     -10.282640      -279.8048
  15   2.0000     -10.281341      -279.7695
  16   2.0000      -8.085653      -220.0218
  17   2.0000      -8.077363      -219.7962
  18   2.0000      -6.044024      -164.4663
  19   2.0000      -6.040139      -164.3605
  20   2.0000      -6.036598      -164.2642
  21   2.0000      -6.035888      -164.2449
  22   2.0000      -6.031525      -164.1261
  23   2.0000      -6.028154      -164.0344
  24   2.0000      -1.015635       -27.6368
  25   2.0000      -0.989209       -26.9178
  26   2.0000      -0.911675       -24.8079
  27   2.0000      -0.906316       -24.6621
  28   2.0000      -0.873161       -23.7599
  29   2.0000      -0.851040       -23.1580
  30   2.0000      -0.841138       -22.8885
  31   2.0000      -0.816607       -22.2210
  32   2.0000      -0.784388       -21.3443
  33   2.0000      -0.778202       -21.1759
  34   2.0000      -0.711721       -19.3669
  35   2.0000      -0.704052       -19.1582
  36   2.0000      -0.697212       -18.9721
  37   2.0000      -0.662221       -18.0200
  38   2.0000      -0.645395       -17.5621
  39   2.0000      -0.624731       -16.9998
  40   2.0000      -0.596646       -16.2356
  41   2.0000      -0.572586       -15.5809
  42   2.0000      -0.555276       -15.1098
  43   2.0000      -0.552252       -15.0275
  44   2.0000      -0.546272       -14.8648
  45   2.0000      -0.527057       -14.3420
  46   2.0000      -0.522704       -14.2235
  47   2.0000      -0.512275       -13.9397
  48   2.0000      -0.510435       -13.8896
  49   2.0000      -0.496303       -13.5051
  50   2.0000      -0.492683       -13.4066
  51   2.0000      -0.476516       -12.9667
  52   2.0000      -0.473592       -12.8871
  53   2.0000      -0.463891       -12.6231
  54   2.0000      -0.457364       -12.4455
  55   2.0000      -0.452048       -12.3008
  56   2.0000      -0.442395       -12.0382
  57   2.0000      -0.441094       -12.0028
  58   2.0000      -0.438478       -11.9316
  59   2.0000      -0.426956       -11.6181
  60   2.0000      -0.413357       -11.2480
  61   2.0000      -0.407453       -11.0874
  62   2.0000      -0.405149       -11.0247
  63   2.0000      -0.349509        -9.5106
  64   2.0000      -0.337987        -9.1971
  65   2.0000      -0.324940        -8.8421
  66   2.0000      -0.298793        -8.1306
  67   0.0000       0.030722         0.8360
  68   0.0000       0.068827         1.8729
  69   0.0000       0.118136         3.2146
  70   0.0000       0.119417         3.2495
  71   0.0000       0.121812         3.3147

MULLIKEN ATOMIC CHARGES
-----------------------
   0 S :    0.122376
   1 C :   -0.094618
   2 C :   -0.097212
   3 C :    0.017680
   4 C :   -0.149649
   5 H :    0.021023
   6 C :    0.054211
   7 H :    0.041385
   8 H :    0.018683
   9 C :   -0.052182
  10 H :    0.030829
  11 H :    0.024225
  12 C :   -0.076024
  13 H :    0.041677
  14 H :    0.025010
  15 H :    0.041967
  16 S :    0.105281
  17 C :   -0.055322
  18 C :   -0.060534
  19 C :   -0.007765
  20 C :   -0.146068
  21 H :    0.012453
  22 C :    0.026302
  23 H :    0.021804
  24 H :    0.011132
  25 C :   -0.057242
  26 H :    0.042893
  27 H :    0.016616
  28 C :   -0.037546
  29 H :    0.036370
  30 H :    0.023438
  31 H :    0.032297
  32 H :    0.027328
  33 H :    0.039183
Sum of atomic charges:    0.0000000

LOEWDIN ATOMIC CHARGES
----------------------
   0 S :    0.419304
   1 C :   -0.185712
   2 C :   -0.060878
   3 C :   -0.059274
   4 C :   -0.188047
   5 H :    0.030834
   6 C :   -0.031446
   7 H :    0.032759
   8 H :    0.032102
   9 C :   -0.044487
  10 H :    0.023690
  11 H :    0.024556
  12 C :   -0.072731
  13 H :    0.025404
  14 H :    0.019637
  15 H :    0.037967
  16 S :    0.426227
  17 C :   -0.192694
  18 C :   -0.070465
  19 C :   -0.062892
  20 C :   -0.207573
  21 H :    0.025206
  22 C :   -0.047549
  23 H :    0.031082
  24 H :    0.026019
  25 C :   -0.035077
  26 H :    0.030227
  27 H :    0.019575
  28 C :   -0.065629
  29 H :    0.026372
  30 H :    0.028210
  31 H :    0.024023
  32 H :    0.014974
  33 H :    0.026284

  Mayer bond orders larger than 0.100000
B(  0-S ,  1-C ) :   1.1589 B(  0-S ,  4-C ) :   1.1641 B(  1-C ,  2-C ) :   1.5862
B(  1-C ,  4-C ) :   0.1079 B(  1-C , 32-H ) :   0.9714 B(  2-C ,  3-C ) :   1.2558
B(  2-C ,  6-C ) :   1.0171 B(  3-C ,  4-C ) :   1.5651 B(  3-C ,  5-H ) :   0.9925
B(  4-C , 20-C ) :   1.0310 B(  6-C ,  7-H ) :   0.9468 B(  6-C ,  8-H ) :   0.9411
B(  6-C ,  9-C ) :   1.0663 B(  9-C , 10-H ) :   0.9567 B(  9-C , 11-H ) :   0.9541
B(  9-C , 12-C ) :   1.0807 B( 12-C , 13-H ) :   0.9700 B( 12-C , 14-H ) :   0.9755
B( 12-C , 15-H ) :   0.9727 B( 16-S , 17-C ) :   1.1675 B( 16-S , 20-C ) :   1.1297
B( 17-C , 18-C ) :   1.5941 B( 17-C , 33-H ) :   0.9772 B( 18-C , 19-C ) :   1.2263
B( 18-C , 21-H ) :   0.9961 B( 19-C , 20-C ) :   1.5973 B( 19-C , 22-C ) :   1.0678
B( 22-C , 23-H ) :   0.9259 B( 22-C , 24-H ) :   0.9246 B( 22-C , 25-C ) :   1.0460
B( 25-C , 26-H ) :   0.9574 B( 25-C , 27-H ) :   0.9558 B( 25-C , 28-C ) :   1.0606
B( 28-C , 29-H ) :   0.9777 B( 28-C , 30-H ) :   0.9746 B( 28-C , 31-H ) :   0.9784

Dispersion correction           -0.014981560
FINAL SINGLE POINT ENERGY     -1339.872913281650

DIPOLE MOMENT
-------------
                                X             Y             Z
Electronic contribution:    -30.13067       4.12854      -8.78278
Nuclear contribution   :     30.73658      -4.23689       9.04232
                        -----------------------------------------
Total Dipole Moment    :      0.60592      -0.10835       0.25954
                        -----------------------------------------
Magnitude (a.u.)       :      0.66801
Magnitude (Debye)      :      1.69795

Rotational constants in cm-1:     0.018212     0.009818     0.006915
Rotational constants in MHz :   545.990479   294.322318   207.314317

                             ****ORCA TERMINATED NORMALLY****
TOTAL RUN TIME: 0 days 0 hours 0 minutes 21 seconds 26 msec
