                         Program Version 4.2.1 -  RELEASE  -
|  1> ! wB97X-D3 SP def2-SVP
|  2> %pal
|  3> nprocs 24
|  4> end
|  5>
|  6> * xyz 0 1
|  7> S 	 -48.4592 	 2.42794 	 -17.596
|  8> C 	 -49.078 	 0.960597 	 -18.1971
|  9> C 	 -50.0683 	 0.403314 	 -17.4396
| 10> C 	 -50.3798 	 1.2869 	 -16.3799
| 11> C 	 -49.4734 	 2.33596 	 -16.2614
| 12> H 	 -51.2406 	 1.21623 	 -15.7414
| 13> C 	 -50.9499 	 -0.789578 	 -17.8174
| 14> H 	 -50.9471 	 -1.33258 	 -16.8849
| 15> H 	 -50.403 	 -1.35331 	 -18.6156
| 16> C 	 -52.404 	 -0.474543 	 -18.1224
| 17> H 	 -52.7917 	 0.00656732 	 -17.2279
| 18> H 	 -52.4153 	 0.252358 	 -18.972
| 19> C 	 -53.3048 	 -1.73051 	 -18.3218
| 20> H 	 -54.3802 	 -1.58009 	 -18.3997
| 21> H 	 -53.1992 	 -2.19374 	 -19.2951
| 22> H 	 -52.9872 	 -2.53448 	 -17.5948
| 23> S 	 -50.1701 	 4.82117 	 -15.618
| 24> C 	 -49.9615 	 5.46118 	 -13.9264
| 25> C 	 -49.5475 	 4.44853 	 -13.1063
| 26> C 	 -49.2385 	 3.19643 	 -13.7948
| 27> C 	 -49.4976 	 3.31773 	 -15.1994
| 28> H 	 -49.6224 	 4.62747 	 -11.9944
| 29> C 	 -48.7144 	 1.93795 	 -13.12
| 30> H 	 -47.8691 	 2.27375 	 -12.5097
| 31> H 	 -48.2433 	 1.20411 	 -13.8218
| 32> C 	 -49.8001 	 1.15962 	 -12.2944
| 33> H 	 -50.3896 	 0.58803 	 -13.0743
| 34> H 	 -50.4594 	 1.88295 	 -11.7929
| 35> C 	 -49.2508 	 0.218182 	 -11.2613
| 36> H 	 -49.1452 	 -0.770306 	 -11.5898
| 37> H 	 -49.8931 	 0.248962 	 -10.387
| 38> H 	 -48.2475 	 0.57027 	 -11.1207
| 39> H 	 -48.663 	 0.567799 	 -19.1488
| 40> H 	 -50.4017 	 6.41405 	 -13.5512
| 41> *
| 42>
| 43>                          ****END OF INPUT****

CARTESIAN COORDINATES (ANGSTROEM)
---------------------------------
  S    -48.459200    2.427940  -17.596000
  C    -49.078000    0.960597  -18.197100
  C    -50.068300    0.403314  -17.439600
  C    -50.379800    1.286900  -16.379900
  C    -49.473400    2.335960  -16.261400
  H    -51.240600    1.216230  -15.741400
  C    -50.949900   -0.789578  -17.817400
  H    -50.947100   -1.332580  -16.884900
  H    -50.403000   -1.353310  -18.615600
  C    -52.404000   -0.474543  -18.122400
  H    -52.791700    0.006567  -17.227900
  H    -52.415300    0.252358  -18.972000
  C    -53.304800   -1.730510  -18.321800
  H    -54.380200   -1.580090  -18.399700
  H    -53.199200   -2.193740  -19.295100
  H    -52.987200   -2.534480  -17.594800
  S    -50.170100    4.821170  -15.618000
  C    -49.961500    5.461180  -13.926400
  C    -49.547500    4.448530  -13.106300
  C    -49.238500    3.196430  -13.794800
  C    -49.497600    3.317730  -15.199400
  H    -49.622400    4.627470  -11.994400
  C    -48.714400    1.937950  -13.120000
  H    -47.869100    2.273750  -12.509700
  H    -48.243300    1.204110  -13.821800
  C    -49.800100    1.159620  -12.294400
  H    -50.389600    0.588030  -13.074300
  H    -50.459400    1.882950  -11.792900
  C    -49.250800    0.218182  -11.261300
  H    -49.145200   -0.770306  -11.589800
  H    -49.893100    0.248962  -10.387000
  H    -48.247500    0.570270  -11.120700
  H    -48.663000    0.567799  -19.148800
  H    -50.401700    6.414050  -13.551200

 Total Charge           Charge          ....    0
 Multiplicity           Mult            ....    1
 Number of Electrons    NEL             ....  134
 Basis Dimension        Dim             ....  322

ORBITAL ENERGIES
----------------

  NO   OCC          E(Eh)            E(eV)
   0   2.0000     -88.966272     -2420.8954
   1   2.0000     -88.962466     -2420.7918
   2   2.0000     -10.324499      -280.9439
   3   2.0000     -10.321230      -280.8549
   4   2.0000     -10.320153      -280.8256
   5   2.0000     -10.310558      -280.5645
   6   2.0000     -10.310179      -280.5542
   7   2.0000     -10.302446      -280.3438
   8   2.0000     -10.297504      -280.2093
   9   2.0000     -10.295748      -280.1615
  10   2.0000     -10.293956      -280.1128
  11   2.0000     -10.293899      -280.1112
  12   2.0000     -10.290291      -280.0131
  13   2.0000     -10.287503      -279.9372
  14   2.0000     -10.285098      -279.8717
  15   2.0000     -10.267232      -279.3856
  16   2.0000      -8.083403      -219.9606
  17   2.0000      -8.077191      -219.7916
  18   2.0000      -6.041505      -164.3977
  19   2.0000      -6.037577      -164.2908
  20   2.0000      -6.035777      -164.2418
  21   2.0000      -6.034446      -164.2056
  22   2.0000      -6.031637      -164.1292
  23   2.0000      -6.027931      -164.0283
  24   2.0000      -1.017491       -27.6873
  25   2.0000      -0.982664       -26.7397
  26   2.0000      -0.914702       -24.8903
  27   2.0000      -0.904362       -24.6089
  28   2.0000      -0.872035       -23.7293
  29   2.0000      -0.852889       -23.2083
  30   2.0000      -0.846306       -23.0292
  31   2.0000      -0.814191       -22.1553
  32   2.0000      -0.784537       -21.3483
  33   2.0000      -0.764664       -20.8076
  34   2.0000      -0.707503       -19.2521
  35   2.0000      -0.695230       -18.9182
  36   2.0000      -0.687585       -18.7101
  37   2.0000      -0.653658       -17.7869
  38   2.0000      -0.644147       -17.5281
  39   2.0000      -0.620453       -16.8834
  40   2.0000      -0.592320       -16.1178
  41   2.0000      -0.574431       -15.6311
  42   2.0000      -0.561109       -15.2685
  43   2.0000      -0.555543       -15.1171
  44   2.0000      -0.531803       -14.4711
  45   2.0000      -0.525804       -14.3079
  46   2.0000      -0.515761       -14.0346
  47   2.0000      -0.509313       -13.8591
  48   2.0000      -0.504280       -13.7222
  49   2.0000      -0.498824       -13.5737
  50   2.0000      -0.488655       -13.2970
  51   2.0000      -0.475716       -12.9449
  52   2.0000      -0.471001       -12.8166
  53   2.0000      -0.466906       -12.7052
  54   2.0000      -0.458343       -12.4722
  55   2.0000      -0.451903       -12.2969
  56   2.0000      -0.444659       -12.0998
  57   2.0000      -0.441072       -12.0022
  58   2.0000      -0.426386       -11.6025
  59   2.0000      -0.423401       -11.5213
  60   2.0000      -0.419631       -11.4187
  61   2.0000      -0.419253       -11.4085
  62   2.0000      -0.411506       -11.1976
  63   2.0000      -0.341121        -9.2824
  64   2.0000      -0.333256        -9.0684
  65   2.0000      -0.319037        -8.6814
  66   2.0000      -0.300291        -8.1713
  67   0.0000       0.041701         1.1347
  68   0.0000       0.063780         1.7355
  69   0.0000       0.110226         2.9994
  70   0.0000       0.123442         3.3590
  71   0.0000       0.129161         3.5146

MULLIKEN ATOMIC CHARGES
-----------------------
   0 S :    0.143976
   1 C :   -0.151526
   2 C :   -0.063943
   3 C :    0.019344
   4 C :   -0.184357
   5 H :    0.014520
   6 C :    0.072445
   7 H :    0.020561
   8 H :    0.031368
   9 C :   -0.070847
  10 H :    0.030055
  11 H :    0.043377
  12 C :   -0.057487
  13 H :    0.038757
  14 H :    0.019231
  15 H :    0.039911
  16 S :    0.099179
  17 C :   -0.115824
  18 C :   -0.054848
  19 C :   -0.018060
  20 C :   -0.171195
  21 H :    0.047269
  22 C :    0.033876
  23 H :    0.029477
  24 H :    0.041616
  25 C :   -0.118007
  26 H :    0.035976
  27 H :    0.030290
  28 C :    0.013455
  29 H :    0.020109
  30 H :    0.037634
  31 H :    0.015494
  32 H :    0.054957
  33 H :    0.073218
Sum of atomic charges:   -0.0000000

LOEWDIN ATOMIC CHARGES
----------------------
   0 S :    0.462398
   1 C :   -0.213528
   2 C :   -0.069555
   3 C :   -0.055829
   4 C :   -0.232536
   5 H :    0.027230
   6 C :   -0.030442
   7 H :    0.029684
   8 H :    0.032626
   9 C :   -0.040511
  10 H :    0.024672
  11 H :    0.030126
  12 C :   -0.077397
  13 H :    0.029801
  14 H :    0.023097
  15 H :    0.033830
  16 S :    0.400222
  17 C :   -0.183818
  18 C :   -0.075531
  19 C :   -0.056102
  20 C :   -0.215086
  21 H :    0.043964
  22 C :   -0.041097
  23 H :    0.028112
  24 H :    0.036892
  25 C :   -0.043833
  26 H :    0.028665
  27 H :    0.022009
  28 C :   -0.061316
  29 H :    0.019222
  30 H :    0.030733
  31 H :    0.024767
  32 H :    0.029540
  33 H :    0.038989

  Mayer bond orders larger than 0.100000
B(  0-S ,  1-C ) :   1.1710 B(  0-S ,  4-C ) :   1.1893 B(  1-C ,  2-C ) :   1.5868
B(  1-C , 32-H ) :   0.9626 B(  2-C ,  3-C ) :   1.2586 B(  2-C ,  6-C ) :   1.0207
B(  3-C ,  4-C ) :   1.5511 B(  3-C ,  5-H ) :   0.9954 B(  4-C , 20-C ) :   1.0052
B(  6-C ,  7-H ) :   0.9230 B(  6-C ,  8-H ) :   0.9459 B(  6-C ,  9-C ) :   1.0729
B(  9-C , 10-H ) :   0.9505 B(  9-C , 11-H ) :   0.9586 B(  9-C , 12-C ) :   1.0700
B( 12-C , 13-H ) :   0.9749 B( 12-C , 14-H ) :   0.9732 B( 12-C , 15-H ) :   0.9728
B( 16-S , 17-C ) :   1.1215 B( 16-S , 20-C ) :   1.1794 B( 17-C , 18-C ) :   1.6511
B( 17-C , 33-H ) :   0.9612 B( 18-C , 19-C ) :   1.2226 B( 18-C , 21-H ) :   0.9731
B( 19-C , 20-C ) :   1.5810 B( 19-C , 22-C ) :   1.0517 B( 22-C , 23-H ) :   0.9354
B( 22-C , 24-H ) :   0.9369 B( 22-C , 25-C ) :   1.0581 B( 25-C , 26-H ) :   0.9525
B( 25-C , 27-H ) :   0.9686 B( 25-C , 28-C ) :   1.0691 B( 28-C , 29-H ) :   0.9723
B( 28-C , 30-H ) :   0.9759 B( 28-C , 31-H ) :   0.9751

Dispersion correction           -0.013917403
FINAL SINGLE POINT ENERGY     -1339.869353034651

DIPOLE MOMENT
-------------
                                X             Y             Z
Electronic contribution:     11.12010      24.09845      -9.52985
Nuclear contribution   :    -11.48077     -24.58949       9.75047
                        -----------------------------------------
Total Dipole Moment    :     -0.36067      -0.49105       0.22063
                        -----------------------------------------
Magnitude (a.u.)       :      0.64799
Magnitude (Debye)      :      1.64705

Rotational constants in cm-1:     0.016467     0.008520     0.006867
Rotational constants in MHz :   493.660361   255.431378   205.853584

                             ****ORCA TERMINATED NORMALLY****
TOTAL RUN TIME: 0 days 0 hours 0 minutes 22 seconds 248 msec
