                         Program Version 4.2.1 -  RELEASE  -
|  1> ! wB97X-D3 SP def2-SVP
|  2> %pal
|  3> nprocs 24
|  4> end
|  5>
|  6> * xyz 0 1
|  7> S 	 -100.694 	 66.6189 	 -8.41675
|  8> C 	 -100.153 	 66.8427 	 -6.76217
|  9> C 	 -100.911 	 66.1388 	 -5.8569
| 10> C 	 -102.084 	 65.6478 	 -6.42163
| 11> C 	 -102.142 	 65.8766 	 -7.81667
| 12> H 	 -102.753 	 65.0024 	 -5.88356
| 13> C 	 -100.467 	 66.0062 	 -4.38211
| 14> H 	 -99.3757 	 66.1294 	 -4.35276
| 15> H 	 -100.749 	 64.9898 	 -4.07407
| 16> C 	 -101.119 	 67.0013 	 -3.37221
| 17> H 	 -100.949 	 67.9664 	 -3.8
| 18> H 	 -102.268 	 66.8152 	 -3.43442
| 19> C 	 -100.427 	 67.1366 	 -1.97238
| 20> H 	 -100.431 	 66.2026 	 -1.35357
| 21> H 	 -99.4699 	 67.4671 	 -2.25873
| 22> H 	 -100.881 	 67.8853 	 -1.23792
| 23> S 	 -102.435 	 64.2163 	 -9.97014
| 24> C 	 -104.001 	 63.8415 	 -10.6242
| 25> C 	 -104.968 	 64.4715 	 -9.9275
| 26> C 	 -104.499 	 65.3045 	 -8.87411
| 27> C 	 -103.085 	 65.3172 	 -8.83512
| 28> H 	 -106.027 	 64.4299 	 -10.1258
| 29> C 	 -105.406 	 65.9799 	 -7.91848
| 30> H 	 -104.786 	 66.4207 	 -7.1937
| 31> H 	 -105.937 	 65.0905 	 -7.44941
| 32> C 	 -106.45 	 67.0403 	 -8.47663
| 33> H 	 -107.067 	 67.2757 	 -7.63255
| 34> H 	 -107.173 	 66.7014 	 -9.2707
| 35> C 	 -105.879 	 68.2903 	 -9.12462
| 36> H 	 -106.573 	 69.0432 	 -9.56878
| 37> H 	 -105.207 	 68.1148 	 -9.9692
| 38> H 	 -105.246 	 68.7796 	 -8.40149
| 39> H 	 -99.247 	 67.422 	 -6.56195
| 40> H 	 -104.34 	 63.2186 	 -11.3785
| 41> *
| 42>
| 43>                          ****END OF INPUT****

CARTESIAN COORDINATES (ANGSTROEM)
---------------------------------
  S    -100.694000   66.618900   -8.416750
  C    -100.153000   66.842700   -6.762170
  C    -100.911000   66.138800   -5.856900
  C    -102.084000   65.647800   -6.421630
  C    -102.142000   65.876600   -7.816670
  H    -102.753000   65.002400   -5.883560
  C    -100.467000   66.006200   -4.382110
  H    -99.375700   66.129400   -4.352760
  H    -100.749000   64.989800   -4.074070
  C    -101.119000   67.001300   -3.372210
  H    -100.949000   67.966400   -3.800000
  H    -102.268000   66.815200   -3.434420
  C    -100.427000   67.136600   -1.972380
  H    -100.431000   66.202600   -1.353570
  H    -99.469900   67.467100   -2.258730
  H    -100.881000   67.885300   -1.237920
  S    -102.435000   64.216300   -9.970140
  C    -104.001000   63.841500  -10.624200
  C    -104.968000   64.471500   -9.927500
  C    -104.499000   65.304500   -8.874110
  C    -103.085000   65.317200   -8.835120
  H    -106.027000   64.429900  -10.125800
  C    -105.406000   65.979900   -7.918480
  H    -104.786000   66.420700   -7.193700
  H    -105.937000   65.090500   -7.449410
  C    -106.450000   67.040300   -8.476630
  H    -107.067000   67.275700   -7.632550
  H    -107.173000   66.701400   -9.270700
  C    -105.879000   68.290300   -9.124620
  H    -106.573000   69.043200   -9.568780
  H    -105.207000   68.114800   -9.969200
  H    -105.246000   68.779600   -8.401490
  H    -99.247000   67.422000   -6.561950
  H    -104.340000   63.218600  -11.378500

 Total Charge           Charge          ....    0
 Multiplicity           Mult            ....    1
 Number of Electrons    NEL             ....  134
 Basis Dimension        Dim             ....  322

ORBITAL ENERGIES
----------------

  NO   OCC          E(Eh)            E(eV)
   0   2.0000     -88.969390     -2420.9802
   1   2.0000     -88.966004     -2420.8881
   2   2.0000     -10.335746      -281.2499
   3   2.0000     -10.324490      -280.9437
   4   2.0000     -10.313732      -280.6509
   5   2.0000     -10.306223      -280.4466
   6   2.0000     -10.300952      -280.3032
   7   2.0000     -10.299863      -280.2735
   8   2.0000     -10.297491      -280.2090
   9   2.0000     -10.296605      -280.1849
  10   2.0000     -10.296257      -280.1754
  11   2.0000     -10.293939      -280.1123
  12   2.0000     -10.291837      -280.0551
  13   2.0000     -10.289863      -280.0014
  14   2.0000     -10.283761      -279.8354
  15   2.0000     -10.272898      -279.5398
  16   2.0000      -8.084386      -219.9873
  17   2.0000      -8.081301      -219.9034
  18   2.0000      -6.042618      -164.4280
  19   2.0000      -6.039882      -164.3535
  20   2.0000      -6.038922      -164.3274
  21   2.0000      -6.035643      -164.2382
  22   2.0000      -6.035364      -164.2306
  23   2.0000      -6.032034      -164.1400
  24   2.0000      -1.010630       -27.5006
  25   2.0000      -0.989613       -26.9287
  26   2.0000      -0.906914       -24.6784
  27   2.0000      -0.904395       -24.6098
  28   2.0000      -0.868010       -23.6198
  29   2.0000      -0.851637       -23.1742
  30   2.0000      -0.848331       -23.0842
  31   2.0000      -0.816505       -22.2182
  32   2.0000      -0.782786       -21.3007
  33   2.0000      -0.769445       -20.9377
  34   2.0000      -0.706151       -19.2153
  35   2.0000      -0.698949       -19.0194
  36   2.0000      -0.693335       -18.8666
  37   2.0000      -0.657936       -17.9034
  38   2.0000      -0.641072       -17.4444
  39   2.0000      -0.624334       -16.9890
  40   2.0000      -0.593204       -16.1419
  41   2.0000      -0.570488       -15.5238
  42   2.0000      -0.562082       -15.2950
  43   2.0000      -0.548222       -14.9179
  44   2.0000      -0.534110       -14.5339
  45   2.0000      -0.521589       -14.1932
  46   2.0000      -0.517045       -14.0695
  47   2.0000      -0.507901       -13.8207
  48   2.0000      -0.504612       -13.7312
  49   2.0000      -0.495613       -13.4863
  50   2.0000      -0.492459       -13.4005
  51   2.0000      -0.476733       -12.9726
  52   2.0000      -0.472590       -12.8598
  53   2.0000      -0.467373       -12.7179
  54   2.0000      -0.457625       -12.4526
  55   2.0000      -0.451403       -12.2833
  56   2.0000      -0.448576       -12.2064
  57   2.0000      -0.437322       -11.9001
  58   2.0000      -0.433819       -11.8048
  59   2.0000      -0.425793       -11.5864
  60   2.0000      -0.417499       -11.3607
  61   2.0000      -0.414234       -11.2719
  62   2.0000      -0.410711       -11.1760
  63   2.0000      -0.347785        -9.4637
  64   2.0000      -0.337912        -9.1951
  65   2.0000      -0.324475        -8.8294
  66   2.0000      -0.289935        -7.8895
  67   0.0000       0.032099         0.8735
  68   0.0000       0.069237         1.8840
  69   0.0000       0.104549         2.8449
  70   0.0000       0.122114         3.3229
  71   0.0000       0.136291         3.7087

MULLIKEN ATOMIC CHARGES
-----------------------
   0 S :    0.115156
   1 C :   -0.139284
   2 C :   -0.083790
   3 C :    0.052070
   4 C :   -0.170687
   5 H :    0.010256
   6 C :    0.061117
   7 H :    0.022529
   8 H :    0.029453
   9 C :   -0.086680
  10 H :    0.020851
  11 H :    0.041265
  12 C :   -0.062086
  13 H :    0.041990
  14 H :    0.027330
  15 H :    0.050457
  16 S :    0.118624
  17 C :   -0.034947
  18 C :   -0.040692
  19 C :   -0.071707
  20 C :   -0.148363
  21 H :    0.009337
  22 C :    0.074828
  23 H :    0.009338
  24 H :    0.049472
  25 C :   -0.063513
  26 H :    0.029085
  27 H :    0.032346
  28 C :   -0.064671
  29 H :    0.040442
  30 H :    0.034246
  31 H :    0.021474
  32 H :    0.052819
  33 H :    0.021933
Sum of atomic charges:   -0.0000000

LOEWDIN ATOMIC CHARGES
----------------------
   0 S :    0.419896
   1 C :   -0.195977
   2 C :   -0.065072
   3 C :   -0.062573
   4 C :   -0.193863
   5 H :    0.030961
   6 C :   -0.026724
   7 H :    0.028585
   8 H :    0.030004
   9 C :   -0.048477
  10 H :    0.019026
  11 H :    0.029770
  12 C :   -0.070290
  13 H :    0.027507
  14 H :    0.019354
  15 H :    0.038078
  16 S :    0.429464
  17 C :   -0.186101
  18 C :   -0.067536
  19 C :   -0.063852
  20 C :   -0.223451
  21 H :    0.028882
  22 C :   -0.029646
  23 H :    0.022761
  24 H :    0.047158
  25 C :   -0.042227
  26 H :    0.022651
  27 H :    0.027933
  28 C :   -0.075827
  29 H :    0.032376
  30 H :    0.027915
  31 H :    0.020496
  32 H :    0.026734
  33 H :    0.022065

  Mayer bond orders larger than 0.100000
B(  0-S ,  1-C ) :   1.1516 B(  0-S ,  4-C ) :   1.1877 B(  1-C ,  2-C ) :   1.5807
B(  1-C ,  4-C ) :   0.1084 B(  1-C , 32-H ) :   0.9698 B(  2-C ,  3-C ) :   1.2914
B(  2-C ,  6-C ) :   1.0189 B(  3-C ,  4-C ) :   1.5163 B(  3-C ,  5-H ) :   0.9965
B(  4-C , 20-C ) :   0.9954 B(  6-C ,  7-H ) :   0.9434 B(  6-C ,  8-H ) :   0.9383
B(  6-C ,  9-C ) :   1.0576 B(  9-C , 10-H ) :   0.9601 B(  9-C , 11-H ) :   0.9568
B(  9-C , 12-C ) :   1.0568 B( 12-C , 13-H ) :   0.9794 B( 12-C , 14-H ) :   0.9750
B( 12-C , 15-H ) :   0.9761 B( 16-S , 17-C ) :   1.1408 B( 16-S , 20-C ) :   1.1604
B( 17-C , 18-C ) :   1.6058 B( 17-C , 33-H ) :   0.9717 B( 18-C , 19-C ) :   1.2698
B( 18-C , 21-H ) :   0.9874 B( 19-C , 20-C ) :   1.5678 B( 19-C , 22-C ) :   1.0519
B( 22-C , 23-H ) :   0.9292 B( 22-C , 24-H ) :   0.9306 B( 22-C , 25-C ) :   1.0573
B( 25-C , 26-H ) :   0.9559 B( 25-C , 27-H ) :   0.9610 B( 25-C , 28-C ) :   1.0672
B( 28-C , 29-H ) :   0.9747 B( 28-C , 30-H ) :   0.9733 B( 28-C , 31-H ) :   0.9751

Dispersion correction           -0.013828153
FINAL SINGLE POINT ENERGY     -1339.865194600059

DIPOLE MOMENT
-------------
                                X             Y             Z
Electronic contribution:     10.25034     -11.34493     -21.48517
Nuclear contribution   :    -10.49826      11.35603      21.97897
                        -----------------------------------------
Total Dipole Moment    :     -0.24792       0.01111       0.49379
                        -----------------------------------------
Magnitude (a.u.)       :      0.55265
Magnitude (Debye)      :      1.40472

Rotational constants in cm-1:     0.019992     0.007561     0.006360
Rotational constants in MHz :   599.354583   226.685433   190.656358

                             ****ORCA TERMINATED NORMALLY****
TOTAL RUN TIME: 0 days 0 hours 0 minutes 20 seconds 954 msec
