                         Program Version 4.2.1 -  RELEASE  -
|  1> ! wB97X-D3 SP def2-SVP
|  2> %pal
|  3> nprocs 24
|  4> end
|  5>
|  6> * xyz 0 1
|  7> S 	 -115.218 	 28.8195 	 -18.3416
|  8> C 	 -114.99 	 28.4178 	 -20.0145
|  9> C 	 -115.922 	 29.0705 	 -20.839
| 10> C 	 -116.685 	 30.0052 	 -20.1009
| 11> C 	 -116.387 	 30.0453 	 -18.7332
| 12> H 	 -117.345 	 30.7611 	 -20.3621
| 13> C 	 -116.25 	 28.6707 	 -22.2707
| 14> H 	 -115.426 	 28.2334 	 -22.8677
| 15> H 	 -116.817 	 29.4788 	 -22.7985
| 16> C 	 -117.176 	 27.4831 	 -22.2618
| 17> H 	 -118.213 	 27.681 	 -21.8906
| 18> H 	 -117.409 	 27.2113 	 -23.3273
| 19> C 	 -116.764 	 26.2098 	 -21.5603
| 20> H 	 -117.677 	 25.5914 	 -21.5034
| 21> H 	 -115.952 	 25.6711 	 -22.1062
| 22> H 	 -116.341 	 26.3382 	 -20.5636
| 23> S 	 -118.647 	 30.471 	 -17.1979
| 24> C 	 -118.72 	 31.9121 	 -16.1466
| 25> C 	 -117.542 	 32.6221 	 -16.2157
| 26> C 	 -116.63 	 32.0929 	 -17.1562
| 27> C 	 -117.061 	 30.8937 	 -17.7553
| 28> H 	 -117.378 	 33.5343 	 -15.5688
| 29> C 	 -115.367 	 32.8788 	 -17.4885
| 30> H 	 -115.487 	 33.8986 	 -17.2136
| 31> H 	 -115.313 	 32.7999 	 -18.5215
| 32> C 	 -114.143 	 32.4787 	 -16.6432
| 33> H 	 -113.281 	 32.9542 	 -17.0884
| 34> H 	 -114.031 	 31.4144 	 -16.8727
| 35> C 	 -114.185 	 32.6913 	 -15.1665
| 36> H 	 -114.974 	 32.2434 	 -14.6066
| 37> H 	 -114.283 	 33.8367 	 -14.9891
| 38> H 	 -113.226 	 32.4927 	 -14.7592
| 39> H 	 -114.368 	 27.7112 	 -20.502
| 40> H 	 -119.642 	 32.3802 	 -15.855
| 41> *
| 42>
| 43>                          ****END OF INPUT****

CARTESIAN COORDINATES (ANGSTROEM)
---------------------------------
  S    -115.218000   28.819500  -18.341600
  C    -114.990000   28.417800  -20.014500
  C    -115.922000   29.070500  -20.839000
  C    -116.685000   30.005200  -20.100900
  C    -116.387000   30.045300  -18.733200
  H    -117.345000   30.761100  -20.362100
  C    -116.250000   28.670700  -22.270700
  H    -115.426000   28.233400  -22.867700
  H    -116.817000   29.478800  -22.798500
  C    -117.176000   27.483100  -22.261800
  H    -118.213000   27.681000  -21.890600
  H    -117.409000   27.211300  -23.327300
  C    -116.764000   26.209800  -21.560300
  H    -117.677000   25.591400  -21.503400
  H    -115.952000   25.671100  -22.106200
  H    -116.341000   26.338200  -20.563600
  S    -118.647000   30.471000  -17.197900
  C    -118.720000   31.912100  -16.146600
  C    -117.542000   32.622100  -16.215700
  C    -116.630000   32.092900  -17.156200
  C    -117.061000   30.893700  -17.755300
  H    -117.378000   33.534300  -15.568800
  C    -115.367000   32.878800  -17.488500
  H    -115.487000   33.898600  -17.213600
  H    -115.313000   32.799900  -18.521500
  C    -114.143000   32.478700  -16.643200
  H    -113.281000   32.954200  -17.088400
  H    -114.031000   31.414400  -16.872700
  C    -114.185000   32.691300  -15.166500
  H    -114.974000   32.243400  -14.606600
  H    -114.283000   33.836700  -14.989100
  H    -113.226000   32.492700  -14.759200
  H    -114.368000   27.711200  -20.502000
  H    -119.642000   32.380200  -15.855000

 Total Charge           Charge          ....    0
 Multiplicity           Mult            ....    1
 Number of Electrons    NEL             ....  134
 Basis Dimension        Dim             ....  322

ORBITAL ENERGIES
----------------

  NO   OCC          E(Eh)            E(eV)
   0   2.0000     -88.973155     -2421.0826
   1   2.0000     -88.966039     -2420.8890
   2   2.0000     -10.327804      -281.0338
   3   2.0000     -10.326861      -281.0082
   4   2.0000     -10.316789      -280.7341
   5   2.0000     -10.314541      -280.6729
   6   2.0000     -10.304662      -280.4041
   7   2.0000     -10.301750      -280.3249
   8   2.0000     -10.300243      -280.2839
   9   2.0000     -10.297027      -280.1964
  10   2.0000     -10.291215      -280.0382
  11   2.0000     -10.286900      -279.9208
  12   2.0000     -10.279305      -279.7141
  13   2.0000     -10.278403      -279.6896
  14   2.0000     -10.276613      -279.6409
  15   2.0000     -10.276492      -279.6376
  16   2.0000      -8.087305      -220.0667
  17   2.0000      -8.080438      -219.8799
  18   2.0000      -6.045674      -164.5112
  19   2.0000      -6.041792      -164.4055
  20   2.0000      -6.038907      -164.3270
  21   2.0000      -6.038324      -164.3111
  22   2.0000      -6.034848      -164.2166
  23   2.0000      -6.031399      -164.1227
  24   2.0000      -1.007040       -27.4030
  25   2.0000      -0.985110       -26.8062
  26   2.0000      -0.917669       -24.9711
  27   2.0000      -0.910099       -24.7651
  28   2.0000      -0.869253       -23.6536
  29   2.0000      -0.850435       -23.1415
  30   2.0000      -0.847587       -23.0640
  31   2.0000      -0.814427       -22.1617
  32   2.0000      -0.788990       -21.4695
  33   2.0000      -0.776303       -21.1243
  34   2.0000      -0.709139       -19.2966
  35   2.0000      -0.689621       -18.7655
  36   2.0000      -0.685734       -18.6598
  37   2.0000      -0.661385       -17.9972
  38   2.0000      -0.647873       -17.6295
  39   2.0000      -0.616015       -16.7626
  40   2.0000      -0.591758       -16.1026
  41   2.0000      -0.571574       -15.5533
  42   2.0000      -0.558246       -15.1906
  43   2.0000      -0.552472       -15.0335
  44   2.0000      -0.551542       -15.0082
  45   2.0000      -0.544777       -14.8241
  46   2.0000      -0.519226       -14.1289
  47   2.0000      -0.511349       -13.9145
  48   2.0000      -0.501692       -13.6517
  49   2.0000      -0.488339       -13.2884
  50   2.0000      -0.485794       -13.2191
  51   2.0000      -0.481520       -13.1028
  52   2.0000      -0.477759       -13.0005
  53   2.0000      -0.466240       -12.6870
  54   2.0000      -0.462643       -12.5892
  55   2.0000      -0.450591       -12.2612
  56   2.0000      -0.440716       -11.9925
  57   2.0000      -0.437657       -11.9093
  58   2.0000      -0.435484       -11.8501
  59   2.0000      -0.422998       -11.5104
  60   2.0000      -0.416879       -11.3438
  61   2.0000      -0.405342       -11.0299
  62   2.0000      -0.402108       -10.9419
  63   2.0000      -0.339310        -9.2331
  64   2.0000      -0.332328        -9.0431
  65   2.0000      -0.314766        -8.5652
  66   2.0000      -0.309113        -8.4114
  67   0.0000       0.033738         0.9181
  68   0.0000       0.053636         1.4595
  69   0.0000       0.112881         3.0716
  70   0.0000       0.120169         3.2700
  71   0.0000       0.125632         3.4186

MULLIKEN ATOMIC CHARGES
-----------------------
   0 S :    0.145465
   1 C :   -0.096496
   2 C :   -0.081031
   3 C :    0.064013
   4 C :   -0.196241
   5 H :   -0.012959
   6 C :    0.092280
   7 H :    0.030495
   8 H :    0.040174
   9 C :   -0.115246
  10 H :    0.025275
  11 H :    0.030306
  12 C :   -0.074400
  13 H :    0.043405
  14 H :    0.024482
  15 H :    0.046166
  16 S :    0.113106
  17 C :   -0.098331
  18 C :   -0.059713
  19 C :   -0.054522
  20 C :   -0.194402
  21 H :    0.046328
  22 C :    0.137018
  23 H :   -0.001503
  24 H :    0.016580
  25 C :   -0.057535
  26 H :    0.024692
  27 H :    0.012248
  28 C :   -0.036976
  29 H :    0.044565
  30 H :    0.016438
  31 H :    0.031268
  32 H :    0.031101
  33 H :    0.063948
Sum of atomic charges:   -0.0000000

LOEWDIN ATOMIC CHARGES
----------------------
   0 S :    0.433877
   1 C :   -0.200176
   2 C :   -0.060264
   3 C :   -0.049587
   4 C :   -0.209055
   5 H :    0.022491
   6 C :   -0.035400
   7 H :    0.036315
   8 H :    0.041329
   9 C :   -0.054572
  10 H :    0.023250
  11 H :    0.027561
  12 C :   -0.074047
  13 H :    0.034371
  14 H :    0.022190
  15 H :    0.023218
  16 S :    0.405955
  17 C :   -0.182749
  18 C :   -0.075352
  19 C :   -0.051024
  20 C :   -0.218430
  21 H :    0.043925
  22 C :   -0.020472
  23 H :    0.022334
  24 H :    0.024803
  25 C :   -0.039529
  26 H :    0.024266
  27 H :    0.016242
  28 C :   -0.062627
  29 H :    0.023041
  30 H :    0.029325
  31 H :    0.026487
  32 H :    0.022789
  33 H :    0.029512

  Mayer bond orders larger than 0.100000
B(  0-S ,  1-C ) :   1.1543 B(  0-S ,  4-C ) :   1.1559 B(  1-C ,  2-C ) :   1.5796
B(  1-C ,  4-C ) :   0.1025 B(  1-C , 32-H ) :   0.9653 B(  2-C ,  3-C ) :   1.2357
B(  2-C ,  6-C ) :   1.0463 B(  3-C ,  4-C ) :   1.5694 B(  3-C ,  5-H ) :   1.0062
B(  4-C , 20-C ) :   1.0296 B(  6-C ,  7-H ) :   0.9380 B(  6-C ,  8-H ) :   0.9363
B(  6-C ,  9-C ) :   1.0630 B(  9-C , 10-H ) :   0.9547 B(  9-C , 11-H ) :   0.9530
B(  9-C , 12-C ) :   1.0824 B( 12-C , 13-H ) :   0.9717 B( 12-C , 14-H ) :   0.9728
B( 12-C , 15-H ) :   0.9661 B( 16-S , 17-C ) :   1.1579 B( 16-S , 20-C ) :   1.1546
B( 17-C , 18-C ) :   1.5951 B( 17-C , 20-C ) :   0.1070 B( 17-C , 33-H ) :   0.9618
B( 18-C , 19-C ) :   1.2800 B( 18-C , 21-H ) :   0.9741 B( 19-C , 20-C ) :   1.5644
B( 19-C , 22-C ) :   1.0335 B( 22-C , 23-H ) :   0.9338 B( 22-C , 24-H ) :   0.9263
B( 22-C , 25-C ) :   1.0686 B( 25-C , 26-H ) :   0.9534 B( 25-C , 27-H ) :   0.9481
B( 25-C , 28-C ) :   1.0876 B( 28-C , 29-H ) :   0.9722 B( 28-C , 30-H ) :   0.9682
B( 28-C , 31-H ) :   0.9685

Dispersion correction           -0.015301203
FINAL SINGLE POINT ENERGY     -1339.861759442822

DIPOLE MOMENT
-------------
                                X             Y             Z
Electronic contribution:     -7.85317      -0.54082       7.43315
Nuclear contribution   :      7.88595       0.81583      -7.79143
                        -----------------------------------------
Total Dipole Moment    :      0.03277       0.27500      -0.35828
                        -----------------------------------------
Magnitude (a.u.)       :      0.45285
Magnitude (Debye)      :      1.15104

Rotational constants in cm-1:     0.024511     0.008019     0.006856
Rotational constants in MHz :   734.827065   240.391709   205.534218

                             ****ORCA TERMINATED NORMALLY****
TOTAL RUN TIME: 0 days 0 hours 0 minutes 22 seconds 69 msec
