                         Program Version 4.2.1 -  RELEASE  -
|  1> ! wB97X-D3 SP def2-SVP
|  2> %pal
|  3> nprocs 24
|  4> end
|  5>
|  6> * xyz 0 1
|  7> S 	 -49.6186 	 16.4307 	 26.4561
|  8> C 	 -50.0534 	 17.0164 	 24.8619
|  9> C 	 -48.979 	 17.3702 	 24.1121
| 10> C 	 -47.7778 	 17.212 	 24.8702
| 11> C 	 -47.9964 	 16.9003 	 26.2331
| 12> H 	 -46.7885 	 17.4157 	 24.5734
| 13> C 	 -48.9502 	 17.6072 	 22.6001
| 14> H 	 -49.6893 	 16.9116 	 22.2496
| 15> H 	 -48.0108 	 17.3464 	 22.1435
| 16> C 	 -49.3954 	 18.998 	 22.1648
| 17> H 	 -48.5734 	 19.6499 	 22.0027
| 18> H 	 -49.8941 	 18.8346 	 21.2065
| 19> C 	 -50.56 	 19.7107 	 22.9137
| 20> H 	 -50.9676 	 20.4228 	 22.2071
| 21> H 	 -51.4573 	 19.1128 	 23.2301
| 22> H 	 -50.0844 	 20.0993 	 23.8134
| 23> S 	 -46.6975 	 14.9232 	 27.7658
| 24> C 	 -45.1587 	 15.3358 	 28.4915
| 25> C 	 -44.9766 	 16.7005 	 28.3988
| 26> C 	 -45.9106 	 17.4402 	 27.6436
| 27> C 	 -46.9867 	 16.6418 	 27.1707
| 28> H 	 -44.2129 	 17.1252 	 28.9504
| 29> C 	 -45.7986 	 18.9409 	 27.341
| 30> H 	 -46.1406 	 19.0061 	 26.2394
| 31> H 	 -44.8266 	 19.3327 	 27.439
| 32> C 	 -46.8502 	 19.8747 	 28.0351
| 33> H 	 -47.8837 	 19.6414 	 27.6416
| 34> H 	 -46.7665 	 20.925 	 27.8278
| 35> C 	 -46.995 	 19.7442 	 29.5556
| 36> H 	 -46.0949 	 19.7631 	 30.1586
| 37> H 	 -47.4061 	 18.7799 	 29.7252
| 38> H 	 -47.752 	 20.424 	 29.9374
| 39> H 	 -51.0681 	 17.0157 	 24.4506
| 40> H 	 -44.4792 	 14.6307 	 29.0363
| 41> *
| 42>
| 43>                          ****END OF INPUT****

CARTESIAN COORDINATES (ANGSTROEM)
---------------------------------
  S    -49.618600   16.430700   26.456100
  C    -50.053400   17.016400   24.861900
  C    -48.979000   17.370200   24.112100
  C    -47.777800   17.212000   24.870200
  C    -47.996400   16.900300   26.233100
  H    -46.788500   17.415700   24.573400
  C    -48.950200   17.607200   22.600100
  H    -49.689300   16.911600   22.249600
  H    -48.010800   17.346400   22.143500
  C    -49.395400   18.998000   22.164800
  H    -48.573400   19.649900   22.002700
  H    -49.894100   18.834600   21.206500
  C    -50.560000   19.710700   22.913700
  H    -50.967600   20.422800   22.207100
  H    -51.457300   19.112800   23.230100
  H    -50.084400   20.099300   23.813400
  S    -46.697500   14.923200   27.765800
  C    -45.158700   15.335800   28.491500
  C    -44.976600   16.700500   28.398800
  C    -45.910600   17.440200   27.643600
  C    -46.986700   16.641800   27.170700
  H    -44.212900   17.125200   28.950400
  C    -45.798600   18.940900   27.341000
  H    -46.140600   19.006100   26.239400
  H    -44.826600   19.332700   27.439000
  C    -46.850200   19.874700   28.035100
  H    -47.883700   19.641400   27.641600
  H    -46.766500   20.925000   27.827800
  C    -46.995000   19.744200   29.555600
  H    -46.094900   19.763100   30.158600
  H    -47.406100   18.779900   29.725200
  H    -47.752000   20.424000   29.937400
  H    -51.068100   17.015700   24.450600
  H    -44.479200   14.630700   29.036300

 Total Charge           Charge          ....    0
 Multiplicity           Mult            ....    1
 Number of Electrons    NEL             ....  134
 Basis Dimension        Dim             ....  322

ORBITAL ENERGIES
----------------

  NO   OCC          E(Eh)            E(eV)
   0   2.0000     -88.968633     -2420.9596
   1   2.0000     -88.963571     -2420.8218
   2   2.0000     -10.330390      -281.1042
   3   2.0000     -10.323908      -280.9278
   4   2.0000     -10.323447      -280.9153
   5   2.0000     -10.313212      -280.6368
   6   2.0000     -10.309115      -280.5253
   7   2.0000     -10.299543      -280.2648
   8   2.0000     -10.298154      -280.2270
   9   2.0000     -10.292682      -280.0781
  10   2.0000     -10.291854      -280.0556
  11   2.0000     -10.286932      -279.9217
  12   2.0000     -10.285456      -279.8815
  13   2.0000     -10.284105      -279.8447
  14   2.0000     -10.282304      -279.7957
  15   2.0000     -10.263833      -279.2931
  16   2.0000      -8.084074      -219.9788
  17   2.0000      -8.077088      -219.7887
  18   2.0000      -6.042473      -164.4241
  19   2.0000      -6.038508      -164.3161
  20   2.0000      -6.035671      -164.2390
  21   2.0000      -6.034885      -164.2176
  22   2.0000      -6.031693      -164.1307
  23   2.0000      -6.027896      -164.0274
  24   2.0000      -1.009108       -27.4592
  25   2.0000      -0.979684       -26.6586
  26   2.0000      -0.915793       -24.9200
  27   2.0000      -0.899320       -24.4717
  28   2.0000      -0.872841       -23.7512
  29   2.0000      -0.850055       -23.1312
  30   2.0000      -0.842558       -22.9272
  31   2.0000      -0.808269       -21.9941
  32   2.0000      -0.790739       -21.5171
  33   2.0000      -0.775721       -21.1084
  34   2.0000      -0.713817       -19.4239
  35   2.0000      -0.696582       -18.9550
  36   2.0000      -0.686920       -18.6920
  37   2.0000      -0.660012       -17.9598
  38   2.0000      -0.642550       -17.4847
  39   2.0000      -0.614157       -16.7121
  40   2.0000      -0.587726       -15.9928
  41   2.0000      -0.571230       -15.5439
  42   2.0000      -0.563727       -15.3398
  43   2.0000      -0.553773       -15.0689
  44   2.0000      -0.543422       -14.7873
  45   2.0000      -0.536873       -14.6091
  46   2.0000      -0.518131       -14.0991
  47   2.0000      -0.512363       -13.9421
  48   2.0000      -0.505603       -13.7582
  49   2.0000      -0.492972       -13.4145
  50   2.0000      -0.490700       -13.3526
  51   2.0000      -0.482420       -13.1273
  52   2.0000      -0.479509       -13.0481
  53   2.0000      -0.464887       -12.6502
  54   2.0000      -0.459810       -12.5121
  55   2.0000      -0.445701       -12.1281
  56   2.0000      -0.436074       -11.8662
  57   2.0000      -0.434783       -11.8311
  58   2.0000      -0.431890       -11.7523
  59   2.0000      -0.423419       -11.5218
  60   2.0000      -0.418143       -11.3782
  61   2.0000      -0.409172       -11.1341
  62   2.0000      -0.402706       -10.9582
  63   2.0000      -0.341577        -9.2948
  64   2.0000      -0.332943        -9.0598
  65   2.0000      -0.329360        -8.9623
  66   2.0000      -0.287865        -7.8332
  67   0.0000       0.023778         0.6470
  68   0.0000       0.056449         1.5361
  69   0.0000       0.107440         2.9236
  70   0.0000       0.121612         3.3092
  71   0.0000       0.128610         3.4996

MULLIKEN ATOMIC CHARGES
-----------------------
   0 S :    0.125418
   1 C :   -0.132485
   2 C :   -0.088880
   3 C :    0.045112
   4 C :   -0.193543
   5 H :    0.000172
   6 C :    0.125091
   7 H :    0.018345
   8 H :    0.026099
   9 C :   -0.094679
  10 H :    0.031813
  11 H :    0.021682
  12 C :   -0.064309
  13 H :    0.038774
  14 H :    0.029641
  15 H :    0.049067
  16 S :    0.090447
  17 C :   -0.108987
  18 C :   -0.015738
  19 C :   -0.028897
  20 C :   -0.147456
  21 H :   -0.011265
  22 C :    0.085862
  23 H :    0.040433
  24 H :    0.019608
  25 C :   -0.090719
  26 H :    0.034006
  27 H :    0.025691
  28 C :   -0.037714
  29 H :    0.024710
  30 H :    0.022604
  31 H :    0.029315
  32 H :    0.050235
  33 H :    0.080547
Sum of atomic charges:   -0.0000000

LOEWDIN ATOMIC CHARGES
----------------------
   0 S :    0.432759
   1 C :   -0.197242
   2 C :   -0.065372
   3 C :   -0.047008
   4 C :   -0.221552
   5 H :    0.020329
   6 C :   -0.022528
   7 H :    0.031785
   8 H :    0.032370
   9 C :   -0.041641
  10 H :    0.020027
  11 H :    0.025959
  12 C :   -0.068226
  13 H :    0.027976
  14 H :    0.027586
  15 H :    0.027289
  16 S :    0.369194
  17 C :   -0.186648
  18 C :   -0.074358
  19 C :   -0.048081
  20 C :   -0.179262
  21 H :    0.018221
  22 C :   -0.029408
  23 H :    0.047524
  24 H :    0.021197
  25 C :   -0.042273
  26 H :    0.031205
  27 H :    0.019090
  28 C :   -0.070339
  29 H :    0.019543
  30 H :    0.021285
  31 H :    0.027348
  32 H :    0.028422
  33 H :    0.044828

  Mayer bond orders larger than 0.100000
B(  0-S ,  1-C ) :   1.1467 B(  0-S ,  4-C ) :   1.1603 B(  1-C ,  2-C ) :   1.6049
B(  1-C , 32-H ) :   0.9611 B(  2-C ,  3-C ) :   1.2527 B(  2-C ,  6-C ) :   1.0087
B(  3-C ,  4-C ) :   1.5292 B(  3-C ,  5-H ) :   0.9961 B(  4-C , 20-C ) :   1.0903
B(  6-C ,  7-H ) :   0.9359 B(  6-C ,  8-H ) :   0.9500 B(  6-C ,  9-C ) :   1.0681
B(  9-C , 10-H ) :   0.9594 B(  9-C , 11-H ) :   0.9600 B(  9-C , 12-C ) :   1.0798
B( 12-C , 13-H ) :   0.9757 B( 12-C , 14-H ) :   0.9725 B( 12-C , 15-H ) :   0.9722
B( 16-S , 17-C ) :   1.1591 B( 16-S , 20-C ) :   1.1181 B( 17-C , 18-C ) :   1.5879
B( 17-C , 20-C ) :   0.1126 B( 17-C , 33-H ) :   0.9607 B( 18-C , 19-C ) :   1.2586
B( 18-C , 21-H ) :   1.0005 B( 19-C , 20-C ) :   1.5542 B( 19-C , 22-C ) :   1.0378
B( 22-C , 23-H ) :   0.9294 B( 22-C , 24-H ) :   0.9446 B( 22-C , 25-C ) :   1.0578
B( 25-C , 26-H ) :   0.9562 B( 25-C , 27-H ) :   0.9630 B( 25-C , 28-C ) :   1.0787
B( 28-C , 29-H ) :   0.9776 B( 28-C , 30-H ) :   0.9704 B( 28-C , 31-H ) :   0.9729

Dispersion correction           -0.015104691
FINAL SINGLE POINT ENERGY     -1339.854963306729

DIPOLE MOMENT
-------------
                                X             Y             Z
Electronic contribution:      2.35441     -22.61835       9.20835
Nuclear contribution   :     -2.18198      22.99414      -9.66606
                        -----------------------------------------
Total Dipole Moment    :      0.17243       0.37579      -0.45771
                        -----------------------------------------
Magnitude (a.u.)       :      0.61680
Magnitude (Debye)      :      1.56779

Rotational constants in cm-1:     0.021068     0.008464     0.007234
Rotational constants in MHz :   631.588411   253.751282   216.871347

                             ****ORCA TERMINATED NORMALLY****
TOTAL RUN TIME: 0 days 0 hours 0 minutes 22 seconds 224 msec
