                         Program Version 4.2.1 -  RELEASE  -
|  1> ! wB97X-D3 SP def2-SVP
|  2> %pal
|  3> nprocs 24
|  4> end
|  5>
|  6> * xyz 0 1
|  7> S 	 -38.1891 	 18.6167 	 14.6387
|  8> C 	 -39.763 	 18.3104 	 15.1694
|  9> C 	 -40.0699 	 18.8584 	 16.37
| 10> C 	 -38.8666 	 19.492 	 16.8104
| 11> C 	 -37.7895 	 19.6248 	 15.9806
| 12> H 	 -38.6562 	 19.8479 	 17.805
| 13> C 	 -41.4143 	 18.6663 	 17.1072
| 14> H 	 -42.2465 	 19.0545 	 16.5068
| 15> H 	 -41.4149 	 19.3298 	 17.909
| 16> C 	 -41.6406 	 17.2198 	 17.6393
| 17> H 	 -41.6828 	 16.4306 	 16.8283
| 18> H 	 -40.8548 	 16.973 	 18.3628
| 19> C 	 -42.9129 	 16.9943 	 18.3173
| 20> H 	 -43.7386 	 16.8576 	 17.6154
| 21> H 	 -42.8657 	 16.0998 	 18.9094
| 22> H 	 -43.1969 	 17.8206 	 18.9614
| 23> S 	 -35.08 	 19.6598 	 16.208
| 24> C 	 -34.3248 	 21.2452 	 16.6556
| 25> C 	 -35.2191 	 22.2851 	 16.6332
| 26> C 	 -36.5403 	 21.85 	 16.2528
| 27> C 	 -36.6335 	 20.4541 	 16.1137
| 28> H 	 -34.7628 	 23.3042 	 16.8164
| 29> C 	 -37.6726 	 22.8543 	 16.217
| 30> H 	 -38.2691 	 22.3737 	 16.981
| 31> H 	 -38.1825 	 22.6254 	 15.3229
| 32> C 	 -37.4149 	 24.4012 	 16.3453
| 33> H 	 -36.7895 	 24.6284 	 17.2353
| 34> H 	 -38.305 	 24.8036 	 16.7158
| 35> C 	 -36.8283 	 24.9805 	 15.04
| 36> H 	 -37.6504 	 25.0275 	 14.318
| 37> H 	 -36.0373 	 24.4054 	 14.5496
| 38> H 	 -36.4493 	 25.971 	 15.1974
| 39> H 	 -40.5718 	 17.8891 	 14.5981
| 40> H 	 -33.2723 	 21.465 	 16.7694
| 41> *
| 42>
| 43>                          ****END OF INPUT****

CARTESIAN COORDINATES (ANGSTROEM)
---------------------------------
  S    -38.189100   18.616700   14.638700
  C    -39.763000   18.310400   15.169400
  C    -40.069900   18.858400   16.370000
  C    -38.866600   19.492000   16.810400
  C    -37.789500   19.624800   15.980600
  H    -38.656200   19.847900   17.805000
  C    -41.414300   18.666300   17.107200
  H    -42.246500   19.054500   16.506800
  H    -41.414900   19.329800   17.909000
  C    -41.640600   17.219800   17.639300
  H    -41.682800   16.430600   16.828300
  H    -40.854800   16.973000   18.362800
  C    -42.912900   16.994300   18.317300
  H    -43.738600   16.857600   17.615400
  H    -42.865700   16.099800   18.909400
  H    -43.196900   17.820600   18.961400
  S    -35.080000   19.659800   16.208000
  C    -34.324800   21.245200   16.655600
  C    -35.219100   22.285100   16.633200
  C    -36.540300   21.850000   16.252800
  C    -36.633500   20.454100   16.113700
  H    -34.762800   23.304200   16.816400
  C    -37.672600   22.854300   16.217000
  H    -38.269100   22.373700   16.981000
  H    -38.182500   22.625400   15.322900
  C    -37.414900   24.401200   16.345300
  H    -36.789500   24.628400   17.235300
  H    -38.305000   24.803600   16.715800
  C    -36.828300   24.980500   15.040000
  H    -37.650400   25.027500   14.318000
  H    -36.037300   24.405400   14.549600
  H    -36.449300   25.971000   15.197400
  H    -40.571800   17.889100   14.598100
  H    -33.272300   21.465000   16.769400

 Total Charge           Charge          ....    0
 Multiplicity           Mult            ....    1
 Number of Electrons    NEL             ....  134
 Basis Dimension        Dim             ....  322

ORBITAL ENERGIES
----------------

  NO   OCC          E(Eh)            E(eV)
   0   2.0000     -88.964454     -2420.8459
   1   2.0000     -88.959641     -2420.7149
   2   2.0000     -10.323897      -280.9275
   3   2.0000     -10.318659      -280.7850
   4   2.0000     -10.317878      -280.7637
   5   2.0000     -10.308905      -280.5196
   6   2.0000     -10.303706      -280.3781
   7   2.0000     -10.296962      -280.1946
   8   2.0000     -10.296852      -280.1916
   9   2.0000     -10.296188      -280.1735
  10   2.0000     -10.293345      -280.0962
  11   2.0000     -10.288798      -279.9724
  12   2.0000     -10.287634      -279.9407
  13   2.0000     -10.285830      -279.8917
  14   2.0000     -10.281682      -279.7788
  15   2.0000     -10.270983      -279.4877
  16   2.0000      -8.078293      -219.8215
  17   2.0000      -8.076155      -219.7633
  18   2.0000      -6.036971      -164.2743
  19   2.0000      -6.034443      -164.2055
  20   2.0000      -6.033040      -164.1674
  21   2.0000      -6.030327      -164.0935
  22   2.0000      -6.028822      -164.0526
  23   2.0000      -6.027102      -164.0058
  24   2.0000      -1.013546       -27.5800
  25   2.0000      -0.982995       -26.7487
  26   2.0000      -0.915845       -24.9214
  27   2.0000      -0.904762       -24.6198
  28   2.0000      -0.877638       -23.8817
  29   2.0000      -0.851706       -23.1761
  30   2.0000      -0.846391       -23.0315
  31   2.0000      -0.819178       -22.2910
  32   2.0000      -0.787421       -21.4268
  33   2.0000      -0.772174       -21.0119
  34   2.0000      -0.717238       -19.5170
  35   2.0000      -0.700366       -19.0579
  36   2.0000      -0.695557       -18.9271
  37   2.0000      -0.652549       -17.7568
  38   2.0000      -0.644678       -17.5426
  39   2.0000      -0.614393       -16.7185
  40   2.0000      -0.587623       -15.9900
  41   2.0000      -0.575852       -15.6697
  42   2.0000      -0.565812       -15.3965
  43   2.0000      -0.555638       -15.1197
  44   2.0000      -0.535488       -14.5714
  45   2.0000      -0.527629       -14.3575
  46   2.0000      -0.520692       -14.1688
  47   2.0000      -0.517707       -14.0875
  48   2.0000      -0.504810       -13.7366
  49   2.0000      -0.502090       -13.6626
  50   2.0000      -0.498004       -13.5514
  51   2.0000      -0.480237       -13.0679
  52   2.0000      -0.471313       -12.8251
  53   2.0000      -0.460888       -12.5414
  54   2.0000      -0.453501       -12.3404
  55   2.0000      -0.448112       -12.1937
  56   2.0000      -0.442786       -12.0488
  57   2.0000      -0.437916       -11.9163
  58   2.0000      -0.431900       -11.7526
  59   2.0000      -0.428877       -11.6703
  60   2.0000      -0.419727       -11.4214
  61   2.0000      -0.414873       -11.2893
  62   2.0000      -0.412056       -11.2126
  63   2.0000      -0.343110        -9.3365
  64   2.0000      -0.327072        -8.9001
  65   2.0000      -0.324420        -8.8279
  66   2.0000      -0.292969        -7.9721
  67   0.0000       0.035619         0.9692
  68   0.0000       0.065176         1.7735
  69   0.0000       0.109737         2.9861
  70   0.0000       0.127848         3.4789
  71   0.0000       0.138404         3.7662

MULLIKEN ATOMIC CHARGES
-----------------------
   0 S :    0.121160
   1 C :   -0.100379
   2 C :   -0.099199
   3 C :    0.013416
   4 C :   -0.183205
   5 H :    0.000892
   6 C :    0.117436
   7 H :    0.031246
   8 H :   -0.005025
   9 C :   -0.090222
  10 H :    0.035630
  11 H :    0.036617
  12 C :   -0.027704
  13 H :    0.024331
  14 H :    0.031086
  15 H :    0.018420
  16 S :    0.103385
  17 C :   -0.083690
  18 C :   -0.078500
  19 C :   -0.054623
  20 C :   -0.168638
  21 H :    0.048044
  22 C :    0.088833
  23 H :    0.027622
  24 H :    0.020072
  25 C :   -0.017361
  26 H :    0.020077
  27 H :    0.013971
  28 C :   -0.045475
  29 H :    0.034198
  30 H :    0.046086
  31 H :    0.032924
  32 H :    0.039439
  33 H :    0.049135
Sum of atomic charges:   -0.0000000

LOEWDIN ATOMIC CHARGES
----------------------
   0 S :    0.434852
   1 C :   -0.202874
   2 C :   -0.072078
   3 C :   -0.063649
   4 C :   -0.221233
   5 H :    0.023083
   6 C :   -0.023495
   7 H :    0.034998
   8 H :    0.021179
   9 C :   -0.044230
  10 H :    0.031662
  11 H :    0.029151
  12 C :   -0.066561
  13 H :    0.023191
  14 H :    0.027594
  15 H :    0.020153
  16 S :    0.381610
  17 C :   -0.166313
  18 C :   -0.083735
  19 C :   -0.038371
  20 C :   -0.215681
  21 H :    0.047203
  22 C :   -0.034346
  23 H :    0.038276
  24 H :    0.029822
  25 C :   -0.035506
  26 H :    0.025107
  27 H :    0.021823
  28 C :   -0.062867
  29 H :    0.029696
  30 H :    0.030834
  31 H :    0.024300
  32 H :    0.028377
  33 H :    0.028031

  Mayer bond orders larger than 0.100000
B(  0-S ,  1-C ) :   1.1792 B(  0-S ,  4-C ) :   1.1372 B(  1-C ,  2-C ) :   1.6006
B(  1-C , 32-H ) :   0.9603 B(  2-C ,  3-C ) :   1.2585 B(  2-C ,  6-C ) :   1.0206
B(  3-C ,  4-C ) :   1.5908 B(  3-C ,  5-H ) :   0.9909 B(  4-C , 20-C ) :   1.0429
B(  6-C ,  7-H ) :   0.9393 B(  6-C ,  8-H ) :   0.9265 B(  6-C ,  9-C ) :   1.0654
B(  9-C , 10-H ) :   0.9562 B(  9-C , 11-H ) :   0.9563 B(  9-C , 12-C ) :   1.0958
B( 12-C , 13-H ) :   0.9733 B( 12-C , 14-H ) :   0.9709 B( 12-C , 15-H ) :   0.9688
B( 16-S , 17-C ) :   1.1360 B( 16-S , 20-C ) :   1.1244 B( 17-C , 18-C ) :   1.6595
B( 17-C , 20-C ) :   0.1016 B( 17-C , 33-H ) :   0.9602 B( 18-C , 19-C ) :   1.2146
B( 18-C , 21-H ) :   0.9735 B( 19-C , 20-C ) :   1.6049 B( 19-C , 22-C ) :   1.0083
B( 22-C , 23-H ) :   0.9226 B( 22-C , 24-H ) :   0.9222 B( 22-C , 25-C ) :   1.0710
B( 25-C , 26-H ) :   0.9506 B( 25-C , 27-H ) :   0.9517 B( 25-C , 28-C ) :   1.0568
B( 28-C , 29-H ) :   0.9750 B( 28-C , 30-H ) :   0.9804 B( 28-C , 31-H ) :   0.9756

Dispersion correction           -0.013784321
FINAL SINGLE POINT ENERGY     -1339.848231467828

DIPOLE MOMENT
-------------
                                X             Y             Z
Electronic contribution:     19.58404     -10.34757      -8.48962
Nuclear contribution   :    -20.08660      10.89777       8.81452
                        -----------------------------------------
Total Dipole Moment    :     -0.50256       0.55021       0.32490
                        -----------------------------------------
Magnitude (a.u.)       :      0.81293
Magnitude (Debye)      :      2.06630

Rotational constants in cm-1:     0.021436     0.006929     0.005996
Rotational constants in MHz :   642.638047   207.723681   179.760487

                             ****ORCA TERMINATED NORMALLY****
TOTAL RUN TIME: 0 days 0 hours 0 minutes 20 seconds 935 msec
