                         Program Version 4.2.1 -  RELEASE  -
|  1> ! wB97X-D3 SP def2-SVP
|  2> %pal
|  3> nprocs 24
|  4> end
|  5>
|  6> * xyz 0 1
|  7> S 	 -93.1423 	 -30.6438 	 -64.0839
|  8> C 	 -94.3543 	 -30.5612 	 -65.3398
|  9> C 	 -95.0229 	 -29.3753 	 -65.478
| 10> C 	 -94.6401 	 -28.4594 	 -64.4798
| 11> C 	 -93.6007 	 -28.9389 	 -63.6697
| 12> H 	 -95.0466 	 -27.4552 	 -64.3049
| 13> C 	 -96.1779 	 -29.0121 	 -66.3879
| 14> H 	 -97.0059 	 -28.7488 	 -65.6896
| 15> H 	 -96.5969 	 -29.9302 	 -66.8551
| 16> C 	 -95.9567 	 -27.8262 	 -67.3685
| 17> H 	 -95.3995 	 -26.976 	 -66.9246
| 18> H 	 -95.3186 	 -28.2413 	 -68.2009
| 19> C 	 -97.3009 	 -27.3591 	 -67.8762
| 20> H 	 -97.9138 	 -28.2022 	 -68.1142
| 21> H 	 -97.76 	 -26.6202 	 -67.2744
| 22> H 	 -97.1471 	 -26.8873 	 -68.8234
| 23> S 	 -91.888 	 -29.1359 	 -61.4786
| 24> C 	 -91.3359 	 -27.7743 	 -60.523
| 25> C 	 -91.9935 	 -26.6939 	 -61.0302
| 26> C 	 -92.7695 	 -26.8806 	 -62.2212
| 27> C 	 -92.8521 	 -28.1978 	 -62.6325
| 28> H 	 -91.8453 	 -25.7258 	 -60.4988
| 29> C 	 -93.6205 	 -25.7076 	 -62.7019
| 30> H 	 -93.4657 	 -24.8113 	 -62.0851
| 31> H 	 -94.6374 	 -26.0919 	 -62.5325
| 32> C 	 -93.3887 	 -25.3864 	 -64.2416
| 33> H 	 -93.3142 	 -26.1909 	 -64.9252
| 34> H 	 -92.3894 	 -24.9063 	 -64.4286
| 35> C 	 -94.5463 	 -24.483 	 -64.7667
| 36> H 	 -94.5267 	 -23.3419 	 -64.5751
| 37> H 	 -95.5216 	 -24.9927 	 -64.5905
| 38> H 	 -94.3997 	 -24.5513 	 -65.8541
| 39> H 	 -94.6548 	 -31.4268 	 -65.9409
| 40> H 	 -90.6564 	 -27.8202 	 -59.6745
| 41> *
| 42>
| 43>                          ****END OF INPUT****

CARTESIAN COORDINATES (ANGSTROEM)
---------------------------------
  S    -93.142300  -30.643800  -64.083900
  C    -94.354300  -30.561200  -65.339800
  C    -95.022900  -29.375300  -65.478000
  C    -94.640100  -28.459400  -64.479800
  C    -93.600700  -28.938900  -63.669700
  H    -95.046600  -27.455200  -64.304900
  C    -96.177900  -29.012100  -66.387900
  H    -97.005900  -28.748800  -65.689600
  H    -96.596900  -29.930200  -66.855100
  C    -95.956700  -27.826200  -67.368500
  H    -95.399500  -26.976000  -66.924600
  H    -95.318600  -28.241300  -68.200900
  C    -97.300900  -27.359100  -67.876200
  H    -97.913800  -28.202200  -68.114200
  H    -97.760000  -26.620200  -67.274400
  H    -97.147100  -26.887300  -68.823400
  S    -91.888000  -29.135900  -61.478600
  C    -91.335900  -27.774300  -60.523000
  C    -91.993500  -26.693900  -61.030200
  C    -92.769500  -26.880600  -62.221200
  C    -92.852100  -28.197800  -62.632500
  H    -91.845300  -25.725800  -60.498800
  C    -93.620500  -25.707600  -62.701900
  H    -93.465700  -24.811300  -62.085100
  H    -94.637400  -26.091900  -62.532500
  C    -93.388700  -25.386400  -64.241600
  H    -93.314200  -26.190900  -64.925200
  H    -92.389400  -24.906300  -64.428600
  C    -94.546300  -24.483000  -64.766700
  H    -94.526700  -23.341900  -64.575100
  H    -95.521600  -24.992700  -64.590500
  H    -94.399700  -24.551300  -65.854100
  H    -94.654800  -31.426800  -65.940900
  H    -90.656400  -27.820200  -59.674500

 Total Charge           Charge          ....    0
 Multiplicity           Mult            ....    1
 Number of Electrons    NEL             ....  134
 Basis Dimension        Dim             ....  322

ORBITAL ENERGIES
----------------

  NO   OCC          E(Eh)            E(eV)
   0   2.0000     -88.971927     -2421.0492
   1   2.0000     -88.958112     -2420.6733
   2   2.0000     -10.340184      -281.3707
   3   2.0000     -10.331816      -281.1430
   4   2.0000     -10.318037      -280.7681
   5   2.0000     -10.314597      -280.6744
   6   2.0000     -10.302775      -280.3528
   7   2.0000     -10.300166      -280.2818
   8   2.0000     -10.299324      -280.2588
   9   2.0000     -10.298814      -280.2450
  10   2.0000     -10.298126      -280.2263
  11   2.0000     -10.296294      -280.1764
  12   2.0000     -10.293311      -280.0952
  13   2.0000     -10.292786      -280.0809
  14   2.0000     -10.291398      -280.0432
  15   2.0000     -10.272229      -279.5216
  16   2.0000      -8.085459      -220.0165
  17   2.0000      -8.072883      -219.6743
  18   2.0000      -6.044029      -164.4664
  19   2.0000      -6.040380      -164.3671
  20   2.0000      -6.035982      -164.2474
  21   2.0000      -6.031572      -164.1274
  22   2.0000      -6.027268      -164.0103
  23   2.0000      -6.023555      -163.9093
  24   2.0000      -1.003596       -27.3092
  25   2.0000      -0.983766       -26.7696
  26   2.0000      -0.912694       -24.8357
  27   2.0000      -0.901774       -24.5385
  28   2.0000      -0.870208       -23.6796
  29   2.0000      -0.855265       -23.2730
  30   2.0000      -0.844545       -22.9813
  31   2.0000      -0.814902       -22.1746
  32   2.0000      -0.778402       -21.1814
  33   2.0000      -0.769075       -20.9276
  34   2.0000      -0.708576       -19.2813
  35   2.0000      -0.701753       -19.0957
  36   2.0000      -0.694331       -18.8937
  37   2.0000      -0.663253       -18.0480
  38   2.0000      -0.636326       -17.3153
  39   2.0000      -0.623623       -16.9696
  40   2.0000      -0.591717       -16.1014
  41   2.0000      -0.566445       -15.4137
  42   2.0000      -0.564770       -15.3682
  43   2.0000      -0.558762       -15.2047
  44   2.0000      -0.527004       -14.3405
  45   2.0000      -0.522933       -14.2297
  46   2.0000      -0.519135       -14.1264
  47   2.0000      -0.510740       -13.8980
  48   2.0000      -0.504288       -13.7224
  49   2.0000      -0.500758       -13.6263
  50   2.0000      -0.491906       -13.3854
  51   2.0000      -0.480222       -13.0675
  52   2.0000      -0.475794       -12.9470
  53   2.0000      -0.466418       -12.6919
  54   2.0000      -0.461132       -12.5480
  55   2.0000      -0.446564       -12.1516
  56   2.0000      -0.445718       -12.1286
  57   2.0000      -0.443166       -12.0592
  58   2.0000      -0.432039       -11.7564
  59   2.0000      -0.428050       -11.6478
  60   2.0000      -0.418663       -11.3924
  61   2.0000      -0.414365       -11.2754
  62   2.0000      -0.402096       -10.9416
  63   2.0000      -0.361264        -9.8305
  64   2.0000      -0.336351        -9.1526
  65   2.0000      -0.323219        -8.7952
  66   2.0000      -0.282519        -7.6877
  67   0.0000       0.017067         0.4644
  68   0.0000       0.084538         2.3004
  69   0.0000       0.094680         2.5764
  70   0.0000       0.119790         3.2596
  71   0.0000       0.123336         3.3561

MULLIKEN ATOMIC CHARGES
-----------------------
   0 S :    0.116026
   1 C :   -0.119195
   2 C :   -0.046937
   3 C :   -0.018577
   4 C :   -0.104661
   5 H :    0.005119
   6 C :    0.023672
   7 H :    0.036101
   8 H :    0.022068
   9 C :   -0.098271
  10 H :    0.037212
  11 H :    0.043316
  12 C :   -0.003522
  13 H :    0.025839
  14 H :    0.033616
  15 H :    0.017527
  16 S :    0.057509
  17 C :   -0.084576
  18 C :   -0.056412
  19 C :   -0.056231
  20 C :   -0.101655
  21 H :    0.028659
  22 C :    0.044861
  23 H :    0.033329
  24 H :    0.044709
  25 C :   -0.098273
  26 H :    0.034889
  27 H :    0.034740
  28 C :   -0.091546
  29 H :    0.060865
  30 H :    0.038687
  31 H :    0.030769
  32 H :    0.043452
  33 H :    0.066890
Sum of atomic charges:   -0.0000000

LOEWDIN ATOMIC CHARGES
----------------------
   0 S :    0.383017
   1 C :   -0.194629
   2 C :   -0.071018
   3 C :   -0.057918
   4 C :   -0.164486
   5 H :    0.033534
   6 C :   -0.038424
   7 H :    0.035776
   8 H :    0.030854
   9 C :   -0.041430
  10 H :    0.026509
  11 H :    0.032076
  12 C :   -0.059575
  13 H :    0.024623
  14 H :    0.023017
  15 H :    0.026274
  16 S :    0.381438
  17 C :   -0.182900
  18 C :   -0.083542
  19 C :   -0.069338
  20 C :   -0.185925
  21 H :    0.034860
  22 C :   -0.027161
  23 H :    0.034174
  24 H :    0.032101
  25 C :   -0.044074
  26 H :    0.018684
  27 H :    0.032972
  28 C :   -0.083428
  29 H :    0.037926
  30 H :    0.023634
  31 H :    0.025546
  32 H :    0.029040
  33 H :    0.037793

  Mayer bond orders larger than 0.100000
B(  0-S ,  1-C ) :   1.1253 B(  0-S ,  4-C ) :   1.1298 B(  1-C ,  2-C ) :   1.6468
B(  1-C , 32-H ) :   0.9548 B(  2-C ,  3-C ) :   1.2270 B(  2-C ,  6-C ) :   1.0156
B(  3-C ,  4-C ) :   1.5808 B(  3-C ,  5-H ) :   0.9822 B(  4-C , 20-C ) :   1.0798
B(  6-C ,  7-H ) :   0.9480 B(  6-C ,  8-H ) :   0.9364 B(  6-C ,  9-C ) :   1.0455
B(  9-C , 10-H ) :   0.9581 B(  9-C , 11-H ) :   0.9550 B(  9-C , 12-C ) :   1.0832
B( 12-C , 13-H ) :   0.9709 B( 12-C , 14-H ) :   0.9745 B( 12-C , 15-H ) :   0.9686
B( 16-S , 17-C ) :   1.1466 B( 16-S , 20-C ) :   1.1271 B( 17-C , 18-C ) :   1.5973
B( 17-C , 33-H ) :   0.9717 B( 18-C , 19-C ) :   1.2603 B( 18-C , 21-H ) :   0.9825
B( 19-C , 20-C ) :   1.5738 B( 19-C , 22-C ) :   1.0278 B( 22-C , 23-H ) :   0.9424
B( 22-C , 24-H ) :   0.9479 B( 22-C , 25-C ) :   1.0387 B( 25-C , 26-H ) :   0.9659
B( 25-C , 27-H ) :   0.9486 B( 25-C , 28-C ) :   1.0731 B( 28-C , 29-H ) :   0.9726
B( 28-C , 30-H ) :   0.9710 B( 28-C , 31-H ) :   0.9724

Dispersion correction           -0.014966793
FINAL SINGLE POINT ENERGY     -1339.869216828221

DIPOLE MOMENT
-------------
                                X             Y             Z
Electronic contribution:     18.36153     -21.69032      19.60837
Nuclear contribution   :    -18.80364      22.28777     -19.92197
                        -----------------------------------------
Total Dipole Moment    :     -0.44211       0.59745      -0.31360
                        -----------------------------------------
Magnitude (a.u.)       :      0.80669
Magnitude (Debye)      :      2.05045

Rotational constants in cm-1:     0.019499     0.009507     0.006583
Rotational constants in MHz :   584.568021   285.023858   197.352277

                             ****ORCA TERMINATED NORMALLY****
TOTAL RUN TIME: 0 days 0 hours 0 minutes 22 seconds 486 msec
