                         Program Version 4.2.1 -  RELEASE  -
|  1> ! wB97X-D3 SP def2-SVP
|  2> %pal
|  3> nprocs 24
|  4> end
|  5>
|  6> * xyz 0 1
|  7> S 	 -34.5396 	 2.23631 	 5.99475
|  8> C 	 -34.999 	 3.57055 	 7.04108
|  9> C 	 -35.0833 	 4.75918 	 6.3404
| 10> C 	 -34.9251 	 4.56504 	 4.94771
| 11> C 	 -34.4996 	 3.31934 	 4.60993
| 12> H 	 -35.1304 	 5.25412 	 4.14932
| 13> C 	 -35.4789 	 6.10437 	 6.94332
| 14> H 	 -36.4041 	 6.06147 	 7.54685
| 15> H 	 -35.6755 	 6.88485 	 6.21563
| 16> C 	 -34.3186 	 6.78774 	 7.73471
| 17> H 	 -33.4729 	 6.6582 	 7.07566
| 18> H 	 -34.4732 	 7.82145 	 7.87951
| 19> C 	 -34.126 	 6.12422 	 9.06737
| 20> H 	 -33.3796 	 6.6777 	 9.50493
| 21> H 	 -35.0129 	 6.28187 	 9.70491
| 22> H 	 -33.8803 	 5.0803 	 9.12781
| 23> S 	 -35.0429 	 1.31247 	 2.87153
| 24> C 	 -34.5064 	 1.43308 	 1.21783
| 25> C 	 -33.9001 	 2.61202 	 0.988267
| 26> C 	 -33.7136 	 3.39134 	 2.11693
| 27> C 	 -34.2713 	 2.87121 	 3.27595
| 28> H 	 -33.5438 	 2.79718 	 -0.00030157
| 29> C 	 -32.9034 	 4.7044 	 2.06829
| 30> H 	 -33.254 	 5.35297 	 2.94115
| 31> H 	 -33.1667 	 5.23262 	 1.09606
| 32> C 	 -31.379 	 4.44417 	 2.23322
| 33> H 	 -30.8854 	 5.41574 	 2.13849
| 34> H 	 -31.1252 	 3.86453 	 1.32591
| 35> C 	 -30.988 	 3.71603 	 3.56671
| 36> H 	 -31.1975 	 2.64352 	 3.56383
| 37> H 	 -31.5046 	 4.20749 	 4.4158
| 38> H 	 -30.0504 	 3.90776 	 3.9429
| 39> H 	 -35.2803 	 3.50611 	 8.02917
| 40> H 	 -34.7334 	 0.727252 	 0.436551
| 41> *
| 42>
| 43>                          ****END OF INPUT****

CARTESIAN COORDINATES (ANGSTROEM)
---------------------------------
  S    -34.539600    2.236310    5.994750
  C    -34.999000    3.570550    7.041080
  C    -35.083300    4.759180    6.340400
  C    -34.925100    4.565040    4.947710
  C    -34.499600    3.319340    4.609930
  H    -35.130400    5.254120    4.149320
  C    -35.478900    6.104370    6.943320
  H    -36.404100    6.061470    7.546850
  H    -35.675500    6.884850    6.215630
  C    -34.318600    6.787740    7.734710
  H    -33.472900    6.658200    7.075660
  H    -34.473200    7.821450    7.879510
  C    -34.126000    6.124220    9.067370
  H    -33.379600    6.677700    9.504930
  H    -35.012900    6.281870    9.704910
  H    -33.880300    5.080300    9.127810
  S    -35.042900    1.312470    2.871530
  C    -34.506400    1.433080    1.217830
  C    -33.900100    2.612020    0.988267
  C    -33.713600    3.391340    2.116930
  C    -34.271300    2.871210    3.275950
  H    -33.543800    2.797180   -0.000302
  C    -32.903400    4.704400    2.068290
  H    -33.254000    5.352970    2.941150
  H    -33.166700    5.232620    1.096060
  C    -31.379000    4.444170    2.233220
  H    -30.885400    5.415740    2.138490
  H    -31.125200    3.864530    1.325910
  C    -30.988000    3.716030    3.566710
  H    -31.197500    2.643520    3.563830
  H    -31.504600    4.207490    4.415800
  H    -30.050400    3.907760    3.942900
  H    -35.280300    3.506110    8.029170
  H    -34.733400    0.727252    0.436551

 Total Charge           Charge          ....    0
 Multiplicity           Mult            ....    1
 Number of Electrons    NEL             ....  134
 Basis Dimension        Dim             ....  322

ORBITAL ENERGIES
----------------

  NO   OCC          E(Eh)            E(eV)
   0   2.0000     -88.968355     -2420.9520
   1   2.0000     -88.961128     -2420.7554
   2   2.0000     -10.325321      -280.9663
   3   2.0000     -10.324998      -280.9575
   4   2.0000     -10.312045      -280.6050
   5   2.0000     -10.309971      -280.5486
   6   2.0000     -10.301695      -280.3234
   7   2.0000     -10.301172      -280.3091
   8   2.0000     -10.300381      -280.2876
   9   2.0000     -10.291395      -280.0431
  10   2.0000     -10.290795      -280.0268
  11   2.0000     -10.288420      -279.9621
  12   2.0000     -10.284380      -279.8522
  13   2.0000     -10.280679      -279.7515
  14   2.0000     -10.270773      -279.4820
  15   2.0000     -10.265595      -279.3410
  16   2.0000      -8.082710      -219.9417
  17   2.0000      -8.075867      -219.7555
  18   2.0000      -6.041299      -164.3921
  19   2.0000      -6.037343      -164.2845
  20   2.0000      -6.034314      -164.2020
  21   2.0000      -6.033338      -164.1755
  22   2.0000      -6.030372      -164.0948
  23   2.0000      -6.026689      -163.9945
  24   2.0000      -1.011156       -27.5149
  25   2.0000      -0.987731       -26.8775
  26   2.0000      -0.914146       -24.8752
  27   2.0000      -0.899789       -24.4845
  28   2.0000      -0.876131       -23.8407
  29   2.0000      -0.852747       -23.2044
  30   2.0000      -0.841454       -22.8971
  31   2.0000      -0.815322       -22.1860
  32   2.0000      -0.785179       -21.3658
  33   2.0000      -0.776426       -21.1276
  34   2.0000      -0.713348       -19.4112
  35   2.0000      -0.699041       -19.0219
  36   2.0000      -0.693383       -18.8679
  37   2.0000      -0.662445       -18.0260
  38   2.0000      -0.646680       -17.5970
  39   2.0000      -0.619080       -16.8460
  40   2.0000      -0.591643       -16.0994
  41   2.0000      -0.578655       -15.7460
  42   2.0000      -0.553516       -15.0619
  43   2.0000      -0.548502       -14.9255
  44   2.0000      -0.544489       -14.8163
  45   2.0000      -0.536476       -14.5983
  46   2.0000      -0.519157       -14.1270
  47   2.0000      -0.510348       -13.8873
  48   2.0000      -0.502660       -13.6781
  49   2.0000      -0.495753       -13.4901
  50   2.0000      -0.489351       -13.3159
  51   2.0000      -0.481568       -13.1041
  52   2.0000      -0.474424       -12.9097
  53   2.0000      -0.467149       -12.7118
  54   2.0000      -0.461401       -12.5554
  55   2.0000      -0.450844       -12.2681
  56   2.0000      -0.444471       -12.0947
  57   2.0000      -0.435764       -11.8577
  58   2.0000      -0.431437       -11.7400
  59   2.0000      -0.424123       -11.5410
  60   2.0000      -0.416706       -11.3391
  61   2.0000      -0.410434       -11.1685
  62   2.0000      -0.405024       -11.0213
  63   2.0000      -0.353288        -9.6135
  64   2.0000      -0.334304        -9.0969
  65   2.0000      -0.331628        -9.0240
  66   2.0000      -0.286368        -7.7925
  67   0.0000       0.023178         0.6307
  68   0.0000       0.075794         2.0624
  69   0.0000       0.105558         2.8724
  70   0.0000       0.124430         3.3859
  71   0.0000       0.133340         3.6284

MULLIKEN ATOMIC CHARGES
-----------------------
   0 S :    0.114142
   1 C :   -0.085010
   2 C :   -0.067975
   3 C :    0.009267
   4 C :   -0.131943
   5 H :    0.020724
   6 C :    0.041000
   7 H :    0.034394
   8 H :    0.013679
   9 C :   -0.054953
  10 H :    0.025038
  11 H :    0.022718
  12 C :   -0.020176
  13 H :    0.009218
  14 H :    0.018722
  15 H :    0.034428
  16 S :    0.083805
  17 C :   -0.078601
  18 C :   -0.034751
  19 C :   -0.024069
  20 C :   -0.152623
  21 H :    0.005204
  22 C :    0.009586
  23 H :    0.027037
  24 H :    0.040508
  25 C :   -0.055500
  26 H :    0.033837
  27 H :    0.028172
  28 C :   -0.028157
  29 H :    0.058063
  30 H :    0.022912
  31 H :    0.009587
  32 H :    0.019959
  33 H :    0.051759
Sum of atomic charges:    0.0000000

LOEWDIN ATOMIC CHARGES
----------------------
   0 S :    0.399543
   1 C :   -0.180368
   2 C :   -0.057576
   3 C :   -0.059192
   4 C :   -0.191958
   5 H :    0.032282
   6 C :   -0.033411
   7 H :    0.028805
   8 H :    0.027496
   9 C :   -0.028528
  10 H :    0.024089
  11 H :    0.019607
  12 C :   -0.062304
  13 H :    0.016081
  14 H :    0.026385
  15 H :    0.022708
  16 S :    0.387927
  17 C :   -0.177089
  18 C :   -0.076582
  19 C :   -0.060530
  20 C :   -0.181129
  21 H :    0.029839
  22 C :   -0.038029
  23 H :    0.029319
  24 H :    0.035665
  25 C :   -0.037726
  26 H :    0.024691
  27 H :    0.023639
  28 C :   -0.068209
  29 H :    0.032892
  30 H :    0.033969
  31 H :    0.016215
  32 H :    0.011897
  33 H :    0.029583

  Mayer bond orders larger than 0.100000
B(  0-S ,  1-C ) :   1.1277 B(  0-S ,  4-C ) :   1.1339 B(  1-C ,  2-C ) :   1.6134
B(  1-C , 32-H ) :   0.9699 B(  2-C ,  3-C ) :   1.2429 B(  2-C ,  6-C ) :   1.0223
B(  3-C ,  4-C ) :   1.5863 B(  3-C ,  5-H ) :   0.9885 B(  4-C , 20-C ) :   1.0705
B(  6-C ,  7-H ) :   0.9483 B(  6-C ,  8-H ) :   0.9455 B(  6-C ,  9-C ) :   1.0637
B(  9-C , 10-H ) :   0.9508 B(  9-C , 11-H ) :   0.9563 B(  9-C , 12-C ) :   1.0924
B( 12-C , 13-H ) :   0.9693 B( 12-C , 14-H ) :   0.9715 B( 12-C , 15-H ) :   0.9704
B( 16-S , 17-C ) :   1.1543 B( 16-S , 20-C ) :   1.1288 B( 17-C , 18-C ) :   1.6126
B( 17-C , 20-C ) :   0.1055 B( 17-C , 33-H ) :   0.9661 B( 18-C , 19-C ) :   1.2496
B( 18-C , 21-H ) :   0.9965 B( 19-C , 20-C ) :   1.5918 B( 19-C , 22-C ) :   1.0263
B( 22-C , 23-H ) :   0.9367 B( 22-C , 24-H ) :   0.9398 B( 22-C , 25-C ) :   1.0689
B( 25-C , 26-H ) :   0.9579 B( 25-C , 27-H ) :   0.9582 B( 25-C , 28-C ) :   1.0659
B( 28-C , 29-H ) :   0.9746 B( 28-C , 30-H ) :   0.9680 B( 28-C , 31-H ) :   0.9717

Dispersion correction           -0.015431101
FINAL SINGLE POINT ENERGY     -1339.870603337366

DIPOLE MOMENT
-------------
                                X             Y             Z
Electronic contribution:    -11.17168     -21.37307      -8.13706
Nuclear contribution   :     11.27894      22.03342       8.02216
                        -----------------------------------------
Total Dipole Moment    :      0.10726       0.66035      -0.11490
                        -----------------------------------------
Magnitude (a.u.)       :      0.67880
Magnitude (Debye)      :      1.72536

Rotational constants in cm-1:     0.022727     0.008632     0.007228
Rotational constants in MHz :   681.324868   258.776983   216.684535

                             ****ORCA TERMINATED NORMALLY****
TOTAL RUN TIME: 0 days 0 hours 0 minutes 22 seconds 717 msec
