                         Program Version 4.2.1 -  RELEASE  -
|  1> ! wB97X-D3 SP def2-SVP
|  2> %pal
|  3> nprocs 24
|  4> end
|  5>
|  6> * xyz 0 1
|  7> S 	 -120.604 	 48.5519 	 -27.7501
|  8> C 	 -120.577 	 47.2162 	 -26.6055
|  9> C 	 -120.573 	 45.9626 	 -27.2994
| 10> C 	 -120.631 	 46.1589 	 -28.7173
| 11> C 	 -120.721 	 47.4711 	 -29.1081
| 12> H 	 -120.725 	 45.4507 	 -29.5801
| 13> C 	 -120.533 	 44.5553 	 -26.6905
| 14> H 	 -120.799 	 44.5985 	 -25.6153
| 15> H 	 -119.474 	 44.2201 	 -26.6908
| 16> C 	 -121.527 	 43.4695 	 -27.2944
| 17> H 	 -122.495 	 43.9134 	 -27.1993
| 18> H 	 -121.424 	 43.3432 	 -28.3916
| 19> C 	 -121.271 	 42.1659 	 -26.676
| 20> H 	 -121.952 	 41.3095 	 -26.8495
| 21> H 	 -120.274 	 41.7637 	 -26.9381
| 22> H 	 -121.185 	 42.3147 	 -25.6597
| 23> S 	 -122.947 	 48.1876 	 -30.4695
| 24> C 	 -122.868 	 48.1115 	 -32.229
| 25> C 	 -121.64 	 47.9712 	 -32.7715
| 26> C 	 -120.668 	 47.799 	 -31.7275
| 27> C 	 -121.2 	 47.8171 	 -30.4344
| 28> H 	 -121.442 	 47.9958 	 -33.8135
| 29> C 	 -119.139 	 47.8498 	 -31.9748
| 30> H 	 -118.975 	 47.6901 	 -33.0237
| 31> H 	 -118.581 	 46.9706 	 -31.5552
| 32> C 	 -118.431 	 49.1426 	 -31.4139
| 33> H 	 -118.729 	 49.3534 	 -30.365
| 34> H 	 -118.806 	 50.0386 	 -31.9801
| 35> C 	 -116.93 	 49.1144 	 -31.6204
| 36> H 	 -116.476 	 48.3302 	 -30.9911
| 37> H 	 -116.441 	 50.0482 	 -31.2007
| 38> H 	 -116.735 	 48.9009 	 -32.6736
| 39> H 	 -120.685 	 47.33 	 -25.5544
| 40> H 	 -123.835 	 48.1094 	 -32.7489
| 41> *
| 42>
| 43>                          ****END OF INPUT****

CARTESIAN COORDINATES (ANGSTROEM)
---------------------------------
  S    -120.604000   48.551900  -27.750100
  C    -120.577000   47.216200  -26.605500
  C    -120.573000   45.962600  -27.299400
  C    -120.631000   46.158900  -28.717300
  C    -120.721000   47.471100  -29.108100
  H    -120.725000   45.450700  -29.580100
  C    -120.533000   44.555300  -26.690500
  H    -120.799000   44.598500  -25.615300
  H    -119.474000   44.220100  -26.690800
  C    -121.527000   43.469500  -27.294400
  H    -122.495000   43.913400  -27.199300
  H    -121.424000   43.343200  -28.391600
  C    -121.271000   42.165900  -26.676000
  H    -121.952000   41.309500  -26.849500
  H    -120.274000   41.763700  -26.938100
  H    -121.185000   42.314700  -25.659700
  S    -122.947000   48.187600  -30.469500
  C    -122.868000   48.111500  -32.229000
  C    -121.640000   47.971200  -32.771500
  C    -120.668000   47.799000  -31.727500
  C    -121.200000   47.817100  -30.434400
  H    -121.442000   47.995800  -33.813500
  C    -119.139000   47.849800  -31.974800
  H    -118.975000   47.690100  -33.023700
  H    -118.581000   46.970600  -31.555200
  C    -118.431000   49.142600  -31.413900
  H    -118.729000   49.353400  -30.365000
  H    -118.806000   50.038600  -31.980100
  C    -116.930000   49.114400  -31.620400
  H    -116.476000   48.330200  -30.991100
  H    -116.441000   50.048200  -31.200700
  H    -116.735000   48.900900  -32.673600
  H    -120.685000   47.330000  -25.554400
  H    -123.835000   48.109400  -32.748900

 Total Charge           Charge          ....    0
 Multiplicity           Mult            ....    1
 Number of Electrons    NEL             ....  134
 Basis Dimension        Dim             ....  322

ORBITAL ENERGIES
----------------

  NO   OCC          E(Eh)            E(eV)
   0   2.0000     -88.968880     -2420.9663
   1   2.0000     -88.961751     -2420.7723
   2   2.0000     -10.326446      -280.9969
   3   2.0000     -10.323648      -280.9207
   4   2.0000     -10.319551      -280.8093
   5   2.0000     -10.317704      -280.7590
   6   2.0000     -10.311584      -280.5925
   7   2.0000     -10.308308      -280.5033
   8   2.0000     -10.301397      -280.3153
   9   2.0000     -10.295978      -280.1678
  10   2.0000     -10.293857      -280.1101
  11   2.0000     -10.293609      -280.1033
  12   2.0000     -10.288466      -279.9634
  13   2.0000     -10.287053      -279.9250
  14   2.0000     -10.280146      -279.7370
  15   2.0000     -10.272611      -279.5320
  16   2.0000      -8.083166      -219.9541
  17   2.0000      -8.076448      -219.7713
  18   2.0000      -6.041663      -164.4020
  19   2.0000      -6.037621      -164.2920
  20   2.0000      -6.034833      -164.2162
  21   2.0000      -6.034104      -164.1963
  22   2.0000      -6.031183      -164.1168
  23   2.0000      -6.027112      -164.0061
  24   2.0000      -1.003569       -27.3085
  25   2.0000      -0.979170       -26.6446
  26   2.0000      -0.911178       -24.7944
  27   2.0000      -0.898279       -24.4434
  28   2.0000      -0.872116       -23.7315
  29   2.0000      -0.851070       -23.1588
  30   2.0000      -0.846697       -23.0398
  31   2.0000      -0.812813       -22.1178
  32   2.0000      -0.776987       -21.1429
  33   2.0000      -0.764000       -20.7895
  34   2.0000      -0.708181       -19.2706
  35   2.0000      -0.697390       -18.9770
  36   2.0000      -0.686902       -18.6916
  37   2.0000      -0.662847       -18.0370
  38   2.0000      -0.644006       -17.5243
  39   2.0000      -0.611991       -16.6531
  40   2.0000      -0.596669       -16.2362
  41   2.0000      -0.566710       -15.4210
  42   2.0000      -0.563885       -15.3441
  43   2.0000      -0.554823       -15.0975
  44   2.0000      -0.530785       -14.4434
  45   2.0000      -0.523987       -14.2584
  46   2.0000      -0.508866       -13.8470
  47   2.0000      -0.507251       -13.8030
  48   2.0000      -0.501545       -13.6477
  49   2.0000      -0.496920       -13.5219
  50   2.0000      -0.492113       -13.3911
  51   2.0000      -0.480369       -13.0715
  52   2.0000      -0.466938       -12.7060
  53   2.0000      -0.463394       -12.6096
  54   2.0000      -0.453954       -12.3527
  55   2.0000      -0.451127       -12.2758
  56   2.0000      -0.444000       -12.0819
  57   2.0000      -0.434186       -11.8148
  58   2.0000      -0.432553       -11.7704
  59   2.0000      -0.423678       -11.5289
  60   2.0000      -0.419535       -11.4161
  61   2.0000      -0.415003       -11.2928
  62   2.0000      -0.408172       -11.1069
  63   2.0000      -0.343701        -9.3526
  64   2.0000      -0.328464        -8.9380
  65   2.0000      -0.320629        -8.7247
  66   2.0000      -0.299140        -8.1400
  67   0.0000       0.036625         0.9966
  68   0.0000       0.053140         1.4460
  69   0.0000       0.110926         3.0184
  70   0.0000       0.118460         3.2235
  71   0.0000       0.131263         3.5718

MULLIKEN ATOMIC CHARGES
-----------------------
   0 S :    0.114393
   1 C :   -0.116265
   2 C :   -0.067478
   3 C :    0.034682
   4 C :   -0.178166
   5 H :    0.036801
   6 C :    0.008860
   7 H :    0.023949
   8 H :    0.049421
   9 C :   -0.069221
  10 H :    0.032411
  11 H :    0.033469
  12 C :   -0.009929
  13 H :    0.042507
  14 H :    0.021473
  15 H :    0.000222
  16 S :    0.100878
  17 C :   -0.100183
  18 C :    0.006398
  19 C :   -0.030468
  20 C :   -0.181871
  21 H :    0.010611
  22 C :    0.055818
  23 H :    0.004034
  24 H :    0.029833
  25 C :   -0.080246
  26 H :    0.033763
  27 H :    0.031323
  28 C :   -0.057884
  29 H :    0.030285
  30 H :    0.045929
  31 H :    0.036465
  32 H :    0.043697
  33 H :    0.064487
Sum of atomic charges:    0.0000000

LOEWDIN ATOMIC CHARGES
----------------------
   0 S :    0.408144
   1 C :   -0.196000
   2 C :   -0.058395
   3 C :   -0.062788
   4 C :   -0.215648
   5 H :    0.043590
   6 C :   -0.033640
   7 H :    0.030451
   8 H :    0.036046
   9 C :   -0.040436
  10 H :    0.024039
  11 H :    0.024847
  12 C :   -0.066455
  13 H :    0.032238
  14 H :    0.030621
  15 H :    0.012691
  16 S :    0.383991
  17 C :   -0.167985
  18 C :   -0.070675
  19 C :   -0.050426
  20 C :   -0.185582
  21 H :    0.031820
  22 C :   -0.035312
  23 H :    0.021188
  24 H :    0.034351
  25 C :   -0.044452
  26 H :    0.023408
  27 H :    0.026759
  28 C :   -0.072739
  29 H :    0.024384
  30 H :    0.035853
  31 H :    0.025687
  32 H :    0.022375
  33 H :    0.028053

  Mayer bond orders larger than 0.100000
B(  0-S ,  1-C ) :   1.1441 B(  0-S ,  4-C ) :   1.1489 B(  1-C ,  2-C ) :   1.5825
B(  1-C , 32-H ) :   0.9755 B(  2-C ,  3-C ) :   1.2362 B(  2-C ,  6-C ) :   1.0229
B(  3-C ,  4-C ) :   1.5967 B(  3-C ,  5-H ) :   0.9795 B(  4-C , 20-C ) :   1.0206
B(  6-C ,  7-H ) :   0.9439 B(  6-C ,  8-H ) :   0.9435 B(  6-C ,  9-C ) :   1.0447
B(  9-C , 10-H ) :   0.9583 B(  9-C , 11-H ) :   0.9538 B(  9-C , 12-C ) :   1.0843
B( 12-C , 13-H ) :   0.9711 B( 12-C , 14-H ) :   0.9684 B( 12-C , 15-H ) :   0.9680
B( 16-S , 17-C ) :   1.1582 B( 16-S , 20-C ) :   1.1251 B( 17-C , 18-C ) :   1.6189
B( 17-C , 33-H ) :   0.9618 B( 18-C , 19-C ) :   1.2214 B( 18-C , 21-H ) :   1.0014
B( 19-C , 20-C ) :   1.6243 B( 19-C , 22-C ) :   1.0431 B( 22-C , 23-H ) :   0.9351
B( 22-C , 24-H ) :   0.9371 B( 22-C , 25-C ) :   1.0475 B( 25-C , 26-H ) :   0.9556
B( 25-C , 27-H ) :   0.9547 B( 25-C , 28-C ) :   1.0829 B( 28-C , 29-H ) :   0.9738
B( 28-C , 30-H ) :   0.9714 B( 28-C , 31-H ) :   0.9738

Dispersion correction           -0.014030200
FINAL SINGLE POINT ENERGY     -1339.869110182088

DIPOLE MOMENT
-------------
                                X             Y             Z
Electronic contribution:    -13.91193      15.39244       0.15357
Nuclear contribution   :     14.01092     -15.86662      -0.29517
                        -----------------------------------------
Total Dipole Moment    :      0.09898      -0.47418      -0.14160
                        -----------------------------------------
Magnitude (a.u.)       :      0.50467
Magnitude (Debye)      :      1.28278

Rotational constants in cm-1:     0.017587     0.008023     0.007231
Rotational constants in MHz :   527.237982   240.518338   216.770308

                             ****ORCA TERMINATED NORMALLY****
TOTAL RUN TIME: 0 days 0 hours 0 minutes 22 seconds 258 msec
