                         Program Version 4.2.1 -  RELEASE  -
|  1> ! wB97X-D3 SP def2-SVP
|  2> %pal
|  3> nprocs 24
|  4> end
|  5>
|  6> * xyz 0 1
|  7> S 	 -106.272 	 35.967 	 -16.5711
|  8> C 	 -104.725 	 35.1844 	 -16.5197
|  9> C 	 -104.331 	 34.7158 	 -17.7534
| 10> C 	 -105.444 	 34.7615 	 -18.7033
| 11> C 	 -106.549 	 35.3015 	 -18.1866
| 12> H 	 -105.3 	 34.4235 	 -19.7242
| 13> C 	 -102.957 	 34.3495 	 -18.0889
| 14> H 	 -102.433 	 34.9963 	 -17.4321
| 15> H 	 -102.788 	 34.7295 	 -19.1153
| 16> C 	 -102.728 	 32.8475 	 -18.0681
| 17> H 	 -102.975 	 32.4015 	 -17.107
| 18> H 	 -103.386 	 32.4015 	 -18.8095
| 19> C 	 -101.322 	 32.4923 	 -18.394
| 20> H 	 -100.839 	 33.0267 	 -19.2399
| 21> H 	 -100.826 	 32.6995 	 -17.4616
| 22> H 	 -101.232 	 31.4587 	 -18.5255
| 23> S 	 -108.664 	 37.1476 	 -18.3496
| 24> C 	 -109.799 	 37.0304 	 -19.6783
| 25> C 	 -109.578 	 35.8728 	 -20.443
| 26> C 	 -108.331 	 35.198 	 -20.1683
| 27> C 	 -107.761 	 35.7095 	 -18.9585
| 28> H 	 -110.292 	 35.6446 	 -21.2136
| 29> C 	 -107.909 	 33.9555 	 -20.9093
| 30> H 	 -108.735 	 33.2264 	 -20.9248
| 31> H 	 -107.109 	 33.3894 	 -20.3548
| 32> C 	 -107.445 	 34.1858 	 -22.348
| 33> H 	 -106.695 	 34.9268 	 -22.1659
| 34> H 	 -108.268 	 34.6018 	 -22.8786
| 35> C 	 -106.86 	 32.9111 	 -23.1284
| 36> H 	 -106.644 	 33.1936 	 -24.2004
| 37> H 	 -107.494 	 32.0599 	 -23.1345
| 38> H 	 -105.961 	 32.5845 	 -22.6558
| 39> H 	 -103.996 	 35.3433 	 -15.7465
| 40> H 	 -110.638 	 37.7125 	 -19.7845
| 41> *
| 42>
| 43>                          ****END OF INPUT****

CARTESIAN COORDINATES (ANGSTROEM)
---------------------------------
  S    -106.272000   35.967000  -16.571100
  C    -104.725000   35.184400  -16.519700
  C    -104.331000   34.715800  -17.753400
  C    -105.444000   34.761500  -18.703300
  C    -106.549000   35.301500  -18.186600
  H    -105.300000   34.423500  -19.724200
  C    -102.957000   34.349500  -18.088900
  H    -102.433000   34.996300  -17.432100
  H    -102.788000   34.729500  -19.115300
  C    -102.728000   32.847500  -18.068100
  H    -102.975000   32.401500  -17.107000
  H    -103.386000   32.401500  -18.809500
  C    -101.322000   32.492300  -18.394000
  H    -100.839000   33.026700  -19.239900
  H    -100.826000   32.699500  -17.461600
  H    -101.232000   31.458700  -18.525500
  S    -108.664000   37.147600  -18.349600
  C    -109.799000   37.030400  -19.678300
  C    -109.578000   35.872800  -20.443000
  C    -108.331000   35.198000  -20.168300
  C    -107.761000   35.709500  -18.958500
  H    -110.292000   35.644600  -21.213600
  C    -107.909000   33.955500  -20.909300
  H    -108.735000   33.226400  -20.924800
  H    -107.109000   33.389400  -20.354800
  C    -107.445000   34.185800  -22.348000
  H    -106.695000   34.926800  -22.165900
  H    -108.268000   34.601800  -22.878600
  C    -106.860000   32.911100  -23.128400
  H    -106.644000   33.193600  -24.200400
  H    -107.494000   32.059900  -23.134500
  H    -105.961000   32.584500  -22.655800
  H    -103.996000   35.343300  -15.746500
  H    -110.638000   37.712500  -19.784500

 Total Charge           Charge          ....    0
 Multiplicity           Mult            ....    1
 Number of Electrons    NEL             ....  134
 Basis Dimension        Dim             ....  322

ORBITAL ENERGIES
----------------

  NO   OCC          E(Eh)            E(eV)
   0   2.0000     -88.967830     -2420.9377
   1   2.0000     -88.964723     -2420.8532
   2   2.0000     -10.339259      -281.3455
   3   2.0000     -10.330480      -281.1067
   4   2.0000     -10.320399      -280.8323
   5   2.0000     -10.312235      -280.6102
   6   2.0000     -10.307870      -280.4914
   7   2.0000     -10.298684      -280.2414
   8   2.0000     -10.296249      -280.1752
   9   2.0000     -10.295427      -280.1528
  10   2.0000     -10.291628      -280.0494
  11   2.0000     -10.287209      -279.9292
  12   2.0000     -10.286728      -279.9161
  13   2.0000     -10.285398      -279.8799
  14   2.0000     -10.284277      -279.8494
  15   2.0000     -10.270513      -279.4749
  16   2.0000      -8.081630      -219.9123
  17   2.0000      -8.079614      -219.8575
  18   2.0000      -6.040180      -164.3616
  19   2.0000      -6.038332      -164.3114
  20   2.0000      -6.036286      -164.2557
  21   2.0000      -6.034422      -164.2050
  22   2.0000      -6.032405      -164.1501
  23   2.0000      -6.029836      -164.0802
  24   2.0000      -1.004427       -27.3319
  25   2.0000      -0.978144       -26.6167
  26   2.0000      -0.924548       -25.1582
  27   2.0000      -0.907491       -24.6941
  28   2.0000      -0.870246       -23.6806
  29   2.0000      -0.855333       -23.2748
  30   2.0000      -0.844008       -22.9666
  31   2.0000      -0.817267       -22.2390
  32   2.0000      -0.784302       -21.3420
  33   2.0000      -0.770488       -20.9660
  34   2.0000      -0.709165       -19.2974
  35   2.0000      -0.701394       -19.0859
  36   2.0000      -0.693742       -18.8777
  37   2.0000      -0.659406       -17.9434
  38   2.0000      -0.636696       -17.3254
  39   2.0000      -0.626455       -17.0467
  40   2.0000      -0.595537       -16.2054
  41   2.0000      -0.579807       -15.7773
  42   2.0000      -0.569045       -15.4845
  43   2.0000      -0.558691       -15.2028
  44   2.0000      -0.535358       -14.5678
  45   2.0000      -0.524420       -14.2702
  46   2.0000      -0.515204       -14.0194
  47   2.0000      -0.510709       -13.8971
  48   2.0000      -0.507857       -13.8195
  49   2.0000      -0.496122       -13.5002
  50   2.0000      -0.491477       -13.3738
  51   2.0000      -0.485727       -13.2173
  52   2.0000      -0.473600       -12.8873
  53   2.0000      -0.461381       -12.5548
  54   2.0000      -0.455314       -12.3897
  55   2.0000      -0.453290       -12.3347
  56   2.0000      -0.447958       -12.1896
  57   2.0000      -0.441991       -12.0272
  58   2.0000      -0.430854       -11.7241
  59   2.0000      -0.428356       -11.6561
  60   2.0000      -0.423514       -11.5244
  61   2.0000      -0.417419       -11.3585
  62   2.0000      -0.416916       -11.3448
  63   2.0000      -0.360242        -9.8027
  64   2.0000      -0.333242        -9.0680
  65   2.0000      -0.323100        -8.7920
  66   2.0000      -0.282016        -7.6740
  67   0.0000       0.021822         0.5938
  68   0.0000       0.071055         1.9335
  69   0.0000       0.099624         2.7109
  70   0.0000       0.112942         3.0733
  71   0.0000       0.129816         3.5325

MULLIKEN ATOMIC CHARGES
-----------------------
   0 S :    0.085859
   1 C :   -0.094978
   2 C :   -0.140611
   3 C :   -0.009418
   4 C :   -0.058768
   5 H :    0.010394
   6 C :    0.082577
   7 H :    0.010948
   8 H :    0.023777
   9 C :   -0.069377
  10 H :    0.027761
  11 H :    0.019945
  12 C :    0.003627
  13 H :    0.036959
  14 H :    0.019077
  15 H :    0.018281
  16 S :    0.089496
  17 C :   -0.102252
  18 C :   -0.024833
  19 C :   -0.027280
  20 C :   -0.136058
  21 H :    0.020824
  22 C :    0.007572
  23 H :    0.030660
  24 H :    0.025296
  25 C :   -0.069188
  26 H :    0.027296
  27 H :    0.026401
  28 C :   -0.035021
  29 H :    0.048889
  30 H :    0.026976
  31 H :    0.021781
  32 H :    0.039238
  33 H :    0.064149
Sum of atomic charges:   -0.0000000

LOEWDIN ATOMIC CHARGES
----------------------
   0 S :    0.388495
   1 C :   -0.203324
   2 C :   -0.054043
   3 C :   -0.065895
   4 C :   -0.176474
   5 H :    0.029995
   6 C :   -0.033642
   7 H :    0.026931
   8 H :    0.037271
   9 C :   -0.035011
  10 H :    0.026913
  11 H :    0.021708
  12 C :   -0.062154
  13 H :    0.028818
  14 H :    0.026240
  15 H :    0.018546
  16 S :    0.380542
  17 C :   -0.187766
  18 C :   -0.065011
  19 C :   -0.057364
  20 C :   -0.168490
  21 H :    0.029360
  22 C :   -0.041526
  23 H :    0.030227
  24 H :    0.030536
  25 C :   -0.033285
  26 H :    0.021986
  27 H :    0.018089
  28 C :   -0.061439
  29 H :    0.036803
  30 H :    0.019580
  31 H :    0.019825
  32 H :    0.023610
  33 H :    0.029951

  Mayer bond orders larger than 0.100000
B(  0-S ,  1-C ) :   1.1180 B(  0-S ,  4-C ) :   1.1278 B(  1-C ,  2-C ) :   1.6545
B(  1-C , 32-H ) :   0.9631 B(  2-C ,  3-C ) :   1.2147 B(  2-C ,  6-C ) :   1.0260
B(  3-C ,  4-C ) :   1.5932 B(  3-C ,  5-H ) :   0.9912 B(  4-C , 20-C ) :   1.0567
B(  6-C ,  7-H ) :   0.9381 B(  6-C ,  8-H ) :   0.9311 B(  6-C ,  9-C ) :   1.0613
B(  9-C , 10-H ) :   0.9563 B(  9-C , 11-H ) :   0.9527 B(  9-C , 12-C ) :   1.0896
B( 12-C , 13-H ) :   0.9719 B( 12-C , 14-H ) :   0.9733 B( 12-C , 15-H ) :   0.9700
B( 16-S , 17-C ) :   1.1483 B( 16-S , 20-C ) :   1.1392 B( 17-C , 18-C ) :   1.6126
B( 17-C , 20-C ) :   0.1019 B( 17-C , 33-H ) :   0.9677 B( 18-C , 19-C ) :   1.2320
B( 18-C , 21-H ) :   0.9874 B( 19-C , 20-C ) :   1.5740 B( 19-C , 22-C ) :   1.0477
B( 22-C , 23-H ) :   0.9362 B( 22-C , 24-H ) :   0.9415 B( 22-C , 25-C ) :   1.0420
B( 25-C , 26-H ) :   0.9593 B( 25-C , 27-H ) :   0.9607 B( 25-C , 28-C ) :   1.0725
B( 28-C , 29-H ) :   0.9771 B( 28-C , 30-H ) :   0.9775 B( 28-C , 31-H ) :   0.9755

Dispersion correction           -0.013549140
FINAL SINGLE POINT ENERGY     -1339.867166056883

DIPOLE MOMENT
-------------
                                X             Y             Z
Electronic contribution:    -18.22924      20.44680      17.96155
Nuclear contribution   :     18.59838     -20.80964     -18.48786
                        -----------------------------------------
Total Dipole Moment    :      0.36913      -0.36284      -0.52631
                        -----------------------------------------
Magnitude (a.u.)       :      0.73819
Magnitude (Debye)      :      1.87632

Rotational constants in cm-1:     0.016701     0.009061     0.006034
Rotational constants in MHz :   500.672330   271.636360   180.902718

                             ****ORCA TERMINATED NORMALLY****
TOTAL RUN TIME: 0 days 0 hours 0 minutes 20 seconds 209 msec
