                         Program Version 4.2.1 -  RELEASE  -
|  1> ! wB97X-D3 SP def2-SVP
|  2> %pal
|  3> nprocs 24
|  4> end
|  5>
|  6> * xyz 0 1
|  7> S 	 38.6752 	 -28.4924 	 -126.341
|  8> C 	 37.9833 	 -26.8843 	 -126.174
|  9> C 	 38.9224 	 -25.9653 	 -126.558
| 10> C 	 40.2101 	 -26.5116 	 -126.973
| 11> C 	 40.2732 	 -27.863 	 -126.668
| 12> H 	 41.1463 	 -26.1049 	 -127.372
| 13> C 	 38.6995 	 -24.4436 	 -126.659
| 14> H 	 39.139 	 -23.9962 	 -125.822
| 15> H 	 37.5787 	 -24.2862 	 -126.428
| 16> C 	 39.1919 	 -23.8091 	 -127.98
| 17> H 	 40.2545 	 -23.993 	 -128.127
| 18> H 	 38.7384 	 -24.3086 	 -128.844
| 19> C 	 38.673 	 -22.3261 	 -128.007
| 20> H 	 39.1118 	 -21.7407 	 -128.805
| 21> H 	 37.6337 	 -22.1369 	 -127.952
| 22> H 	 39.0085 	 -21.6755 	 -127.202
| 23> S 	 41.0601 	 -29.8241 	 -128.501
| 24> C 	 42.6365 	 -30.5662 	 -128.209
| 25> C 	 43.3949 	 -29.8694 	 -127.274
| 26> C 	 42.5986 	 -28.8983 	 -126.601
| 27> C 	 41.2997 	 -28.8204 	 -127.075
| 28> H 	 44.368 	 -30.1312 	 -127.033
| 29> C 	 43.0839 	 -28.2818 	 -125.243
| 30> H 	 42.832 	 -28.8116 	 -124.322
| 31> H 	 42.5163 	 -27.3778 	 -125.104
| 32> C 	 44.548 	 -27.8465 	 -125.15
| 33> H 	 44.8266 	 -27.0735 	 -125.879
| 34> H 	 45.1997 	 -28.7455 	 -125.203
| 35> C 	 44.7829 	 -27.1982 	 -123.767
| 36> H 	 44.0172 	 -26.4827 	 -123.59
| 37> H 	 45.7603 	 -26.634 	 -123.856
| 38> H 	 44.9472 	 -27.9182 	 -122.956
| 39> H 	 36.9704 	 -26.7783 	 -125.891
| 40> H 	 43.0045 	 -31.4265 	 -128.641
| 41> *
| 42>
| 43>                          ****END OF INPUT****

CARTESIAN COORDINATES (ANGSTROEM)
---------------------------------
  S     38.675200  -28.492400  -126.341000
  C     37.983300  -26.884300  -126.174000
  C     38.922400  -25.965300  -126.558000
  C     40.210100  -26.511600  -126.973000
  C     40.273200  -27.863000  -126.668000
  H     41.146300  -26.104900  -127.372000
  C     38.699500  -24.443600  -126.659000
  H     39.139000  -23.996200  -125.822000
  H     37.578700  -24.286200  -126.428000
  C     39.191900  -23.809100  -127.980000
  H     40.254500  -23.993000  -128.127000
  H     38.738400  -24.308600  -128.844000
  C     38.673000  -22.326100  -128.007000
  H     39.111800  -21.740700  -128.805000
  H     37.633700  -22.136900  -127.952000
  H     39.008500  -21.675500  -127.202000
  S     41.060100  -29.824100  -128.501000
  C     42.636500  -30.566200  -128.209000
  C     43.394900  -29.869400  -127.274000
  C     42.598600  -28.898300  -126.601000
  C     41.299700  -28.820400  -127.075000
  H     44.368000  -30.131200  -127.033000
  C     43.083900  -28.281800  -125.243000
  H     42.832000  -28.811600  -124.322000
  H     42.516300  -27.377800  -125.104000
  C     44.548000  -27.846500  -125.150000
  H     44.826600  -27.073500  -125.879000
  H     45.199700  -28.745500  -125.203000
  C     44.782900  -27.198200  -123.767000
  H     44.017200  -26.482700  -123.590000
  H     45.760300  -26.634000  -123.856000
  H     44.947200  -27.918200  -122.956000
  H     36.970400  -26.778300  -125.891000
  H     43.004500  -31.426500  -128.641000

 Total Charge           Charge          ....    0
 Multiplicity           Mult            ....    1
 Number of Electrons    NEL             ....  134
 Basis Dimension        Dim             ....  322

ORBITAL ENERGIES
----------------

  NO   OCC          E(Eh)            E(eV)
   0   2.0000     -88.968174     -2420.9471
   1   2.0000     -88.958745     -2420.6905
   2   2.0000     -10.326630      -281.0019
   3   2.0000     -10.323415      -280.9144
   4   2.0000     -10.313950      -280.6568
   5   2.0000     -10.313673      -280.6493
   6   2.0000     -10.306838      -280.4633
   7   2.0000     -10.302967      -280.3580
   8   2.0000     -10.300158      -280.2816
   9   2.0000     -10.295976      -280.1678
  10   2.0000     -10.293805      -280.1087
  11   2.0000     -10.289500      -279.9915
  12   2.0000     -10.288984      -279.9775
  13   2.0000     -10.288728      -279.9705
  14   2.0000     -10.279854      -279.7290
  15   2.0000     -10.276885      -279.6483
  16   2.0000      -8.082323      -219.9312
  17   2.0000      -8.073964      -219.7037
  18   2.0000      -6.040823      -164.3792
  19   2.0000      -6.037058      -164.2767
  20   2.0000      -6.032981      -164.1658
  21   2.0000      -6.032439      -164.1510
  22   2.0000      -6.028451      -164.0425
  23   2.0000      -6.024679      -163.9398
  24   2.0000      -1.004453       -27.3326
  25   2.0000      -0.980830       -26.6897
  26   2.0000      -0.906564       -24.6689
  27   2.0000      -0.905043       -24.6275
  28   2.0000      -0.869627       -23.6637
  29   2.0000      -0.848766       -23.0961
  30   2.0000      -0.840661       -22.8755
  31   2.0000      -0.815194       -22.1826
  32   2.0000      -0.779324       -21.2065
  33   2.0000      -0.769606       -20.9420
  34   2.0000      -0.715987       -19.4830
  35   2.0000      -0.698064       -18.9953
  36   2.0000      -0.694379       -18.8950
  37   2.0000      -0.657975       -17.9044
  38   2.0000      -0.652446       -17.7540
  39   2.0000      -0.611892       -16.6504
  40   2.0000      -0.598450       -16.2847
  41   2.0000      -0.572567       -15.5803
  42   2.0000      -0.565128       -15.3779
  43   2.0000      -0.556825       -15.1520
  44   2.0000      -0.529021       -14.3954
  45   2.0000      -0.522836       -14.2271
  46   2.0000      -0.514166       -13.9912
  47   2.0000      -0.508753       -13.8439
  48   2.0000      -0.506055       -13.7705
  49   2.0000      -0.497298       -13.5322
  50   2.0000      -0.486541       -13.2395
  51   2.0000      -0.482201       -13.1213
  52   2.0000      -0.471054       -12.8180
  53   2.0000      -0.461862       -12.5679
  54   2.0000      -0.456523       -12.4226
  55   2.0000      -0.453718       -12.3463
  56   2.0000      -0.443086       -12.0570
  57   2.0000      -0.439268       -11.9531
  58   2.0000      -0.431154       -11.7323
  59   2.0000      -0.423253       -11.5173
  60   2.0000      -0.419952       -11.4275
  61   2.0000      -0.414331       -11.2745
  62   2.0000      -0.407879       -11.0990
  63   2.0000      -0.339520        -9.2388
  64   2.0000      -0.332181        -9.0391
  65   2.0000      -0.322791        -8.7836
  66   2.0000      -0.300333        -8.1725
  67   0.0000       0.031422         0.8550
  68   0.0000       0.062296         1.6952
  69   0.0000       0.113070         3.0768
  70   0.0000       0.117435         3.1956
  71   0.0000       0.130178         3.5423

MULLIKEN ATOMIC CHARGES
-----------------------
   0 S :    0.080677
   1 C :   -0.107525
   2 C :   -0.066345
   3 C :    0.030539
   4 C :   -0.186695
   5 H :    0.031242
   6 C :    0.056078
   7 H :    0.025860
   8 H :    0.021801
   9 C :   -0.066089
  10 H :    0.041079
  11 H :    0.039923
  12 C :   -0.035504
  13 H :    0.023752
  14 H :    0.028911
  15 H :    0.010860
  16 S :    0.123632
  17 C :   -0.058346
  18 C :   -0.004422
  19 C :   -0.009337
  20 C :   -0.151342
  21 H :   -0.007833
  22 C :    0.056117
  23 H :    0.042081
  24 H :    0.006608
  25 C :   -0.110604
  26 H :    0.038269
  27 H :    0.036493
  28 C :   -0.061273
  29 H :    0.028087
  30 H :    0.034490
  31 H :    0.042946
  32 H :    0.040727
  33 H :    0.025144
Sum of atomic charges:    0.0000000

LOEWDIN ATOMIC CHARGES
----------------------
   0 S :    0.394622
   1 C :   -0.186066
   2 C :   -0.060358
   3 C :   -0.062599
   4 C :   -0.191241
   5 H :    0.039072
   6 C :   -0.032342
   7 H :    0.022124
   8 H :    0.034981
   9 C :   -0.034088
  10 H :    0.026380
  11 H :    0.030657
  12 C :   -0.071870
  13 H :    0.025903
  14 H :    0.023134
  15 H :    0.025212
  16 S :    0.398539
  17 C :   -0.160937
  18 C :   -0.054852
  19 C :   -0.055898
  20 C :   -0.206532
  21 H :    0.019035
  22 C :   -0.035208
  23 H :    0.035611
  24 H :    0.023745
  25 C :   -0.043938
  26 H :    0.026483
  27 H :    0.023071
  28 C :   -0.065025
  29 H :    0.018517
  30 H :    0.032603
  31 H :    0.026213
  32 H :    0.022768
  33 H :    0.012285

  Mayer bond orders larger than 0.100000
B(  0-S ,  1-C ) :   1.1259 B(  0-S ,  4-C ) :   1.1583 B(  1-C ,  2-C ) :   1.6245
B(  1-C , 32-H ) :   0.9833 B(  2-C ,  3-C ) :   1.1926 B(  2-C ,  6-C ) :   1.0096
B(  3-C ,  4-C ) :   1.5986 B(  3-C ,  5-H ) :   0.9878 B(  4-C , 20-C ) :   1.0171
B(  6-C ,  7-H ) :   0.9392 B(  6-C ,  8-H ) :   0.9495 B(  6-C ,  9-C ) :   1.0510
B(  9-C , 10-H ) :   0.9533 B(  9-C , 11-H ) :   0.9605 B(  9-C , 12-C ) :   1.0676
B( 12-C , 13-H ) :   0.9735 B( 12-C , 14-H ) :   0.9783 B( 12-C , 15-H ) :   0.9717
B( 16-S , 17-C ) :   1.1462 B( 16-S , 20-C ) :   1.1363 B( 17-C , 18-C ) :   1.6188
B( 17-C , 33-H ) :   0.9745 B( 18-C , 19-C ) :   1.2346 B( 18-C , 21-H ) :   1.0013
B( 19-C , 20-C ) :   1.6208 B( 19-C , 22-C ) :   1.0200 B( 22-C , 23-H ) :   0.9469
B( 22-C , 24-H ) :   0.9268 B( 22-C , 25-C ) :   1.0703 B( 25-C , 26-H ) :   0.9601
B( 25-C , 27-H ) :   0.9501 B( 25-C , 28-C ) :   1.0840 B( 28-C , 29-H ) :   0.9749
B( 28-C , 30-H ) :   0.9751 B( 28-C , 31-H ) :   0.9756

Dispersion correction           -0.013384856
FINAL SINGLE POINT ENERGY     -1339.855094068362

DIPOLE MOMENT
-------------
                                X             Y             Z
Electronic contribution:    -10.64939     -24.22340      -8.41495
Nuclear contribution   :     10.97032      24.71808       8.56033
                        -----------------------------------------
Total Dipole Moment    :      0.32092       0.49468       0.14538
                        -----------------------------------------
Magnitude (a.u.)       :      0.60731
Magnitude (Debye)      :      1.54367

Rotational constants in cm-1:     0.016456     0.008107     0.006565
Rotational constants in MHz :   493.325300   243.049494   196.803674

                             ****ORCA TERMINATED NORMALLY****
TOTAL RUN TIME: 0 days 0 hours 0 minutes 20 seconds 886 msec
