                         Program Version 4.2.1 -  RELEASE  -
|  1> ! wB97X-D3 SP def2-SVP
|  2> %pal
|  3> nprocs 24
|  4> end
|  5>
|  6> * xyz 0 1
|  7> S 	 -87.998 	 -4.69027 	 -119.213
|  8> C 	 -87.2156 	 -5.49848 	 -120.568
|  9> C 	 -87.4248 	 -6.90668 	 -120.486
| 10> C 	 -88.3466 	 -7.17705 	 -119.435
| 11> C 	 -88.8622 	 -6.09734 	 -118.73
| 12> H 	 -88.7328 	 -8.15625 	 -119.194
| 13> C 	 -86.9493 	 -8.01939 	 -121.328
| 14> H 	 -86.6611 	 -8.87333 	 -120.661
| 15> H 	 -85.8795 	 -7.82285 	 -121.561
| 16> C 	 -87.8509 	 -8.482 	 -122.541
| 17> H 	 -88.8671 	 -8.71492 	 -122.181
| 18> H 	 -87.9873 	 -7.58262 	 -123.14
| 19> C 	 -87.3459 	 -9.72807 	 -123.345
| 20> H 	 -87.0492 	 -10.5788 	 -122.75
| 21> H 	 -87.9925 	 -10.0142 	 -124.171
| 22> H 	 -86.5334 	 -9.60836 	 -123.981
| 23> S 	 -89.8431 	 -4.64113 	 -116.62
| 24> C 	 -91.3219 	 -5.09062 	 -115.886
| 25> C 	 -91.678 	 -6.39835 	 -116.206
| 26> C 	 -90.749 	 -6.99687 	 -117.102
| 27> C 	 -89.805 	 -6.08966 	 -117.637
| 28> H 	 -92.6028 	 -6.7112 	 -115.842
| 29> C 	 -90.9627 	 -8.3855 	 -117.67
| 30> H 	 -90.1275 	 -9.01096 	 -117.308
| 31> H 	 -90.798 	 -8.25619 	 -118.753
| 32> C 	 -92.3018 	 -9.05383 	 -117.27
| 33> H 	 -93.0678 	 -8.40694 	 -117.608
| 34> H 	 -92.3501 	 -9.22916 	 -116.239
| 35> C 	 -92.6481 	 -10.4966 	 -117.775
| 36> H 	 -93.6894 	 -10.8451 	 -117.54
| 37> H 	 -92.0167 	 -11.2472 	 -117.335
| 38> H 	 -92.4079 	 -10.5978 	 -118.789
| 39> H 	 -86.7886 	 -5.01449 	 -121.42
| 40> H 	 -91.9276 	 -4.36384 	 -115.395
| 41> *
| 42>
| 43>                          ****END OF INPUT****

CARTESIAN COORDINATES (ANGSTROEM)
---------------------------------
  S    -87.998000   -4.690270  -119.213000
  C    -87.215600   -5.498480  -120.568000
  C    -87.424800   -6.906680  -120.486000
  C    -88.346600   -7.177050  -119.435000
  C    -88.862200   -6.097340  -118.730000
  H    -88.732800   -8.156250  -119.194000
  C    -86.949300   -8.019390  -121.328000
  H    -86.661100   -8.873330  -120.661000
  H    -85.879500   -7.822850  -121.561000
  C    -87.850900   -8.482000  -122.541000
  H    -88.867100   -8.714920  -122.181000
  H    -87.987300   -7.582620  -123.140000
  C    -87.345900   -9.728070  -123.345000
  H    -87.049200  -10.578800  -122.750000
  H    -87.992500  -10.014200  -124.171000
  H    -86.533400   -9.608360  -123.981000
  S    -89.843100   -4.641130  -116.620000
  C    -91.321900   -5.090620  -115.886000
  C    -91.678000   -6.398350  -116.206000
  C    -90.749000   -6.996870  -117.102000
  C    -89.805000   -6.089660  -117.637000
  H    -92.602800   -6.711200  -115.842000
  C    -90.962700   -8.385500  -117.670000
  H    -90.127500   -9.010960  -117.308000
  H    -90.798000   -8.256190  -118.753000
  C    -92.301800   -9.053830  -117.270000
  H    -93.067800   -8.406940  -117.608000
  H    -92.350100   -9.229160  -116.239000
  C    -92.648100  -10.496600  -117.775000
  H    -93.689400  -10.845100  -117.540000
  H    -92.016700  -11.247200  -117.335000
  H    -92.407900  -10.597800  -118.789000
  H    -86.788600   -5.014490  -121.420000
  H    -91.927600   -4.363840  -115.395000

 Total Charge           Charge          ....    0
 Multiplicity           Mult            ....    1
 Number of Electrons    NEL             ....  134
 Basis Dimension        Dim             ....  322

ORBITAL ENERGIES
----------------

  NO   OCC          E(Eh)            E(eV)
   0   2.0000     -88.968124     -2420.9457
   1   2.0000     -88.961844     -2420.7748
   2   2.0000     -10.330982      -281.1203
   3   2.0000     -10.329952      -281.0923
   4   2.0000     -10.319930      -280.8196
   5   2.0000     -10.312883      -280.6278
   6   2.0000     -10.309600      -280.5385
   7   2.0000     -10.306075      -280.4426
   8   2.0000     -10.300688      -280.2960
   9   2.0000     -10.298623      -280.2398
  10   2.0000     -10.297675      -280.2140
  11   2.0000     -10.291546      -280.0472
  12   2.0000     -10.290353      -280.0147
  13   2.0000     -10.284746      -279.8622
  14   2.0000     -10.278354      -279.6882
  15   2.0000     -10.277563      -279.6667
  16   2.0000      -8.082952      -219.9483
  17   2.0000      -8.077362      -219.7962
  18   2.0000      -6.041535      -164.3985
  19   2.0000      -6.037374      -164.2853
  20   2.0000      -6.035811      -164.2428
  21   2.0000      -6.033685      -164.1849
  22   2.0000      -6.031697      -164.1308
  23   2.0000      -6.028228      -164.0364
  24   2.0000      -1.009728       -27.4761
  25   2.0000      -0.985620       -26.8201
  26   2.0000      -0.910006       -24.7625
  27   2.0000      -0.907075       -24.6828
  28   2.0000      -0.869604       -23.6631
  29   2.0000      -0.855149       -23.2698
  30   2.0000      -0.845774       -23.0147
  31   2.0000      -0.814657       -22.1680
  32   2.0000      -0.787016       -21.4158
  33   2.0000      -0.775671       -21.1071
  34   2.0000      -0.720228       -19.5984
  35   2.0000      -0.712184       -19.3795
  36   2.0000      -0.701930       -19.1005
  37   2.0000      -0.656735       -17.8707
  38   2.0000      -0.639045       -17.3893
  39   2.0000      -0.622974       -16.9520
  40   2.0000      -0.595550       -16.2057
  41   2.0000      -0.576187       -15.6788
  42   2.0000      -0.572968       -15.5913
  43   2.0000      -0.553806       -15.0698
  44   2.0000      -0.530927       -14.4473
  45   2.0000      -0.526240       -14.3197
  46   2.0000      -0.516446       -14.0532
  47   2.0000      -0.512870       -13.9559
  48   2.0000      -0.511257       -13.9120
  49   2.0000      -0.505753       -13.7622
  50   2.0000      -0.486283       -13.2324
  51   2.0000      -0.482699       -13.1349
  52   2.0000      -0.474583       -12.9141
  53   2.0000      -0.465825       -12.6757
  54   2.0000      -0.457993       -12.4626
  55   2.0000      -0.455195       -12.3865
  56   2.0000      -0.451203       -12.2779
  57   2.0000      -0.438253       -11.9255
  58   2.0000      -0.433957       -11.8086
  59   2.0000      -0.429157       -11.6780
  60   2.0000      -0.419164       -11.4060
  61   2.0000      -0.414479       -11.2785
  62   2.0000      -0.403750       -10.9866
  63   2.0000      -0.358258        -9.7487
  64   2.0000      -0.333820        -9.0837
  65   2.0000      -0.327628        -8.9152
  66   2.0000      -0.276160        -7.5147
  67   0.0000       0.011023         0.2999
  68   0.0000       0.078621         2.1394
  69   0.0000       0.099506         2.7077
  70   0.0000       0.124157         3.3785
  71   0.0000       0.134641         3.6638

MULLIKEN ATOMIC CHARGES
-----------------------
   0 S :    0.107591
   1 C :   -0.110716
   2 C :   -0.077669
   3 C :   -0.020068
   4 C :   -0.103690
   5 H :   -0.004333
   6 C :    0.024544
   7 H :    0.025036
   8 H :    0.021668
   9 C :   -0.032221
  10 H :    0.034138
  11 H :    0.030731
  12 C :   -0.027444
  13 H :    0.034124
  14 H :    0.027162
  15 H :    0.004734
  16 S :    0.087134
  17 C :   -0.077878
  18 C :   -0.032472
  19 C :   -0.042371
  20 C :   -0.129433
  21 H :    0.001543
  22 C :    0.018302
  23 H :    0.044119
  24 H :    0.048578
  25 C :   -0.066674
  26 H :    0.032104
  27 H :    0.031074
  28 C :   -0.023936
  29 H :    0.044434
  30 H :    0.015651
  31 H :    0.013949
  32 H :    0.048560
  33 H :    0.053728
Sum of atomic charges:   -0.0000000

LOEWDIN ATOMIC CHARGES
----------------------
   0 S :    0.417165
   1 C :   -0.192044
   2 C :   -0.061275
   3 C :   -0.069297
   4 C :   -0.202036
   5 H :    0.023637
   6 C :   -0.052871
   7 H :    0.037728
   8 H :    0.034923
   9 C :   -0.030200
  10 H :    0.028133
  11 H :    0.026662
  12 C :   -0.074308
  13 H :    0.027499
  14 H :    0.033908
  15 H :    0.018606
  16 S :    0.404656
  17 C :   -0.186469
  18 C :   -0.068700
  19 C :   -0.052703
  20 C :   -0.187282
  21 H :    0.024377
  22 C :   -0.037631
  23 H :    0.035186
  24 H :    0.035122
  25 C :   -0.035331
  26 H :    0.021374
  27 H :    0.021650
  28 C :   -0.061939
  29 H :    0.035694
  30 H :    0.020837
  31 H :    0.014512
  32 H :    0.026231
  33 H :    0.024185

  Mayer bond orders larger than 0.100000
B(  0-S ,  1-C ) :   1.1502 B(  0-S ,  4-C ) :   1.1476 B(  1-C ,  2-C ) :   1.5555
B(  1-C ,  4-C ) :   0.1022 B(  1-C , 32-H ) :   0.9751 B(  2-C ,  3-C ) :   1.2701
B(  2-C ,  6-C ) :   1.0481 B(  3-C ,  4-C ) :   1.5205 B(  3-C ,  5-H ) :   0.9913
B(  4-C , 20-C ) :   1.1161 B(  6-C ,  7-H ) :   0.9331 B(  6-C ,  8-H ) :   0.9343
B(  6-C ,  9-C ) :   1.0361 B(  9-C , 10-H ) :   0.9600 B(  9-C , 11-H ) :   0.9581
B(  9-C , 12-C ) :   1.0692 B( 12-C , 13-H ) :   0.9772 B( 12-C , 14-H ) :   0.9697
B( 12-C , 15-H ) :   0.9703 B( 16-S , 17-C ) :   1.1747 B( 16-S , 20-C ) :   1.1357
B( 17-C , 18-C ) :   1.5738 B( 17-C , 20-C ) :   0.1036 B( 17-C , 33-H ) :   0.9671
B( 18-C , 19-C ) :   1.2521 B( 18-C , 21-H ) :   1.0056 B( 19-C , 20-C ) :   1.5444
B( 19-C , 22-C ) :   1.0334 B( 22-C , 23-H ) :   0.9209 B( 22-C , 24-H ) :   0.9299
B( 22-C , 25-C ) :   1.0925 B( 25-C , 26-H ) :   0.9504 B( 25-C , 27-H ) :   0.9492
B( 25-C , 28-C ) :   1.0786 B( 28-C , 29-H ) :   0.9745 B( 28-C , 30-H ) :   0.9736
B( 28-C , 31-H ) :   0.9749

Dispersion correction           -0.013214718
FINAL SINGLE POINT ENERGY     -1339.847716012201

DIPOLE MOMENT
-------------
                                X             Y             Z
Electronic contribution:      5.79449      29.62160      14.71478
Nuclear contribution   :     -6.05667     -30.28385     -15.07898
                        -----------------------------------------
Total Dipole Moment    :     -0.26218      -0.66225      -0.36420
                        -----------------------------------------
Magnitude (a.u.)       :      0.79998
Magnitude (Debye)      :      2.03338

Rotational constants in cm-1:     0.015890     0.008930     0.005841
Rotational constants in MHz :   476.358641   267.715088   175.120316

                             ****ORCA TERMINATED NORMALLY****
TOTAL RUN TIME: 0 days 0 hours 0 minutes 21 seconds 56 msec
