                         Program Version 4.2.1 -  RELEASE  -
|  1> ! wB97X-D3 SP def2-SVP
|  2> %pal
|  3> nprocs 24
|  4> end
|  5>
|  6> * xyz 0 1
|  7> S 	 -120.061 	 65.8856 	 -63.1098
|  8> C 	 -120.435 	 64.6139 	 -64.3419
|  9> C 	 -120.669 	 63.4236 	 -63.6864
| 10> C 	 -120.668 	 63.5645 	 -62.2691
| 11> C 	 -120.375 	 64.8193 	 -61.8085
| 12> H 	 -120.745 	 62.7852 	 -61.5234
| 13> C 	 -121.014 	 62.0731 	 -64.3458
| 14> H 	 -120.21 	 61.3066 	 -64.3375
| 15> H 	 -121.273 	 62.2492 	 -65.3555
| 16> C 	 -122.275 	 61.4031 	 -63.7355
| 17> H 	 -122.225 	 61.2283 	 -62.6753
| 18> H 	 -123.125 	 62.1445 	 -63.744
| 19> C 	 -122.802 	 60.1143 	 -64.5044
| 20> H 	 -123.054 	 60.4116 	 -65.5891
| 21> H 	 -122.075 	 59.3205 	 -64.5393
| 22> H 	 -123.696 	 59.6123 	 -64.0872
| 23> S 	 -121.409 	 65.6483 	 -59.3543
| 24> C 	 -120.352 	 65.7529 	 -58.0109
| 25> C 	 -119.065 	 65.3348 	 -58.3691
| 26> C 	 -118.901 	 64.8256 	 -59.7257
| 27> C 	 -120.088 	 65.1003 	 -60.3959
| 28> H 	 -118.373 	 65.1797 	 -57.5346
| 29> C 	 -117.676 	 64.1983 	 -60.2604
| 30> H 	 -118.005 	 63.3905 	 -60.8977
| 31> H 	 -117.11 	 63.7184 	 -59.4592
| 32> C 	 -116.656 	 65.0891 	 -60.9545
| 33> H 	 -117.2 	 65.6455 	 -61.6954
| 34> H 	 -115.928 	 64.3482 	 -61.3855
| 35> C 	 -115.93 	 66.1999 	 -60.0858
| 36> H 	 -116.799 	 66.7068 	 -59.6771
| 37> H 	 -115.262 	 66.7599 	 -60.685
| 38> H 	 -115.453 	 65.7118 	 -59.1726
| 39> H 	 -120.52 	 64.7609 	 -65.4581
| 40> H 	 -120.813 	 65.8903 	 -57.0156
| 41> *
| 42>
| 43>                          ****END OF INPUT****

CARTESIAN COORDINATES (ANGSTROEM)
---------------------------------
  S    -120.061000   65.885600  -63.109800
  C    -120.435000   64.613900  -64.341900
  C    -120.669000   63.423600  -63.686400
  C    -120.668000   63.564500  -62.269100
  C    -120.375000   64.819300  -61.808500
  H    -120.745000   62.785200  -61.523400
  C    -121.014000   62.073100  -64.345800
  H    -120.210000   61.306600  -64.337500
  H    -121.273000   62.249200  -65.355500
  C    -122.275000   61.403100  -63.735500
  H    -122.225000   61.228300  -62.675300
  H    -123.125000   62.144500  -63.744000
  C    -122.802000   60.114300  -64.504400
  H    -123.054000   60.411600  -65.589100
  H    -122.075000   59.320500  -64.539300
  H    -123.696000   59.612300  -64.087200
  S    -121.409000   65.648300  -59.354300
  C    -120.352000   65.752900  -58.010900
  C    -119.065000   65.334800  -58.369100
  C    -118.901000   64.825600  -59.725700
  C    -120.088000   65.100300  -60.395900
  H    -118.373000   65.179700  -57.534600
  C    -117.676000   64.198300  -60.260400
  H    -118.005000   63.390500  -60.897700
  H    -117.110000   63.718400  -59.459200
  C    -116.656000   65.089100  -60.954500
  H    -117.200000   65.645500  -61.695400
  H    -115.928000   64.348200  -61.385500
  C    -115.930000   66.199900  -60.085800
  H    -116.799000   66.706800  -59.677100
  H    -115.262000   66.759900  -60.685000
  H    -115.453000   65.711800  -59.172600
  H    -120.520000   64.760900  -65.458100
  H    -120.813000   65.890300  -57.015600

 Total Charge           Charge          ....    0
 Multiplicity           Mult            ....    1
 Number of Electrons    NEL             ....  134
 Basis Dimension        Dim             ....  322

ORBITAL ENERGIES
----------------

  NO   OCC          E(Eh)            E(eV)
   0   2.0000     -88.968173     -2420.9471
   1   2.0000     -88.966127     -2420.8914
   2   2.0000     -10.327578      -281.0277
   3   2.0000     -10.325198      -280.9629
   4   2.0000     -10.324208      -280.9360
   5   2.0000     -10.320457      -280.8339
   6   2.0000     -10.308370      -280.5050
   7   2.0000     -10.306282      -280.4482
   8   2.0000     -10.299233      -280.2564
   9   2.0000     -10.297801      -280.2174
  10   2.0000     -10.293337      -280.0959
  11   2.0000     -10.290060      -280.0068
  12   2.0000     -10.289841      -280.0008
  13   2.0000     -10.288643      -279.9682
  14   2.0000     -10.285762      -279.8898
  15   2.0000     -10.279328      -279.7147
  16   2.0000      -8.082285      -219.9301
  17   2.0000      -8.081400      -219.9061
  18   2.0000      -6.040948      -164.3826
  19   2.0000      -6.039772      -164.3505
  20   2.0000      -6.036764      -164.2687
  21   2.0000      -6.035776      -164.2418
  22   2.0000      -6.032990      -164.1660
  23   2.0000      -6.032344      -164.1484
  24   2.0000      -1.007938       -27.4274
  25   2.0000      -0.984599       -26.7923
  26   2.0000      -0.912994       -24.8438
  27   2.0000      -0.905157       -24.6306
  28   2.0000      -0.865205       -23.5434
  29   2.0000      -0.846222       -23.0269
  30   2.0000      -0.840862       -22.8810
  31   2.0000      -0.808824       -22.0092
  32   2.0000      -0.787316       -21.4239
  33   2.0000      -0.775025       -21.0895
  34   2.0000      -0.707948       -19.2642
  35   2.0000      -0.696049       -18.9405
  36   2.0000      -0.684884       -18.6366
  37   2.0000      -0.659860       -17.9557
  38   2.0000      -0.641354       -17.4521
  39   2.0000      -0.617998       -16.8166
  40   2.0000      -0.598402       -16.2833
  41   2.0000      -0.566769       -15.4226
  42   2.0000      -0.558028       -15.1847
  43   2.0000      -0.552122       -15.0240
  44   2.0000      -0.549025       -14.9397
  45   2.0000      -0.518953       -14.1214
  46   2.0000      -0.515162       -14.0183
  47   2.0000      -0.508296       -13.8314
  48   2.0000      -0.499726       -13.5982
  49   2.0000      -0.492291       -13.3959
  50   2.0000      -0.488528       -13.2935
  51   2.0000      -0.476580       -12.9684
  52   2.0000      -0.473452       -12.8833
  53   2.0000      -0.462514       -12.5856
  54   2.0000      -0.459594       -12.5062
  55   2.0000      -0.451326       -12.2812
  56   2.0000      -0.448157       -12.1950
  57   2.0000      -0.436536       -11.8787
  58   2.0000      -0.432213       -11.7611
  59   2.0000      -0.423306       -11.5188
  60   2.0000      -0.418905       -11.3990
  61   2.0000      -0.416347       -11.3294
  62   2.0000      -0.405399       -11.0315
  63   2.0000      -0.335957        -9.1419
  64   2.0000      -0.328748        -8.9457
  65   2.0000      -0.321323        -8.7436
  66   2.0000      -0.316883        -8.6228
  67   0.0000       0.047467         1.2917
  68   0.0000       0.049036         1.3343
  69   0.0000       0.108402         2.9498
  70   0.0000       0.116734         3.1765
  71   0.0000       0.129447         3.5224

MULLIKEN ATOMIC CHARGES
-----------------------
   0 S :    0.108670
   1 C :   -0.156791
   2 C :   -0.063341
   3 C :    0.036377
   4 C :   -0.153616
   5 H :    0.013648
   6 C :    0.107920
   7 H :    0.046457
   8 H :    0.003489
   9 C :   -0.124069
  10 H :    0.030249
  11 H :    0.035255
  12 C :   -0.075824
  13 H :    0.040897
  14 H :    0.028112
  15 H :    0.042886
  16 S :    0.117383
  17 C :   -0.117211
  18 C :   -0.037989
  19 C :   -0.037497
  20 C :   -0.211972
  21 H :    0.025150
  22 C :    0.109108
  23 H :    0.025507
  24 H :    0.013350
  25 C :   -0.084521
  26 H :    0.020884
  27 H :    0.039295
  28 C :   -0.048897
  29 H :    0.038196
  30 H :    0.048194
  31 H :    0.028795
  32 H :    0.072910
  33 H :    0.078996
Sum of atomic charges:   -0.0000000

LOEWDIN ATOMIC CHARGES
----------------------
   0 S :    0.405456
   1 C :   -0.190964
   2 C :   -0.062274
   3 C :   -0.065389
   4 C :   -0.210248
   5 H :    0.030491
   6 C :   -0.025252
   7 H :    0.035788
   8 H :    0.022736
   9 C :   -0.047326
  10 H :    0.016623
  11 H :    0.029953
  12 C :   -0.074443
  13 H :    0.032570
  14 H :    0.017877
  15 H :    0.030956
  16 S :    0.417240
  17 C :   -0.203511
  18 C :   -0.078698
  19 C :   -0.047675
  20 C :   -0.199323
  21 H :    0.029908
  22 C :   -0.037474
  23 H :    0.036420
  24 H :    0.032279
  25 C :   -0.034184
  26 H :    0.014381
  27 H :    0.027640
  28 C :   -0.063522
  29 H :    0.028156
  30 H :    0.022890
  31 H :    0.027548
  32 H :    0.044760
  33 H :    0.036612

  Mayer bond orders larger than 0.100000
B(  0-S ,  1-C ) :   1.1269 B(  0-S ,  4-C ) :   1.1580 B(  1-C ,  2-C ) :   1.6234
B(  1-C , 32-H ) :   0.9619 B(  2-C ,  3-C ) :   1.2235 B(  2-C ,  6-C ) :   1.0222
B(  3-C ,  4-C ) :   1.5986 B(  3-C ,  5-H ) :   0.9921 B(  4-C , 20-C ) :   0.9990
B(  6-C ,  7-H ) :   0.9405 B(  6-C ,  8-H ) :   0.9413 B(  6-C ,  9-C ) :   1.0487
B(  9-C , 10-H ) :   0.9569 B(  9-C , 11-H ) :   0.9592 B(  9-C , 12-C ) :   1.0702
B( 12-C , 13-H ) :   0.9763 B( 12-C , 14-H ) :   0.9777 B( 12-C , 15-H ) :   0.9764
B( 16-S , 17-C ) :   1.1691 B( 16-S , 20-C ) :   1.1610 B( 17-C , 18-C ) :   1.5968
B( 17-C , 33-H ) :   0.9647 B( 18-C , 19-C ) :   1.2312 B( 18-C , 21-H ) :   0.9802
B( 19-C , 20-C ) :   1.5877 B( 19-C , 22-C ) :   1.0606 B( 22-C , 23-H ) :   0.9143
B( 22-C , 24-H ) :   0.9218 B( 22-C , 25-C ) :   1.0752 B( 25-C , 26-H ) :   0.9545
B( 25-C , 27-H ) :   0.9546 B( 25-C , 28-C ) :   1.0646 B( 28-C , 29-H ) :   0.9743
B( 28-C , 30-H ) :   0.9760 B( 28-C , 31-H ) :   0.9758

Dispersion correction           -0.014895003
FINAL SINGLE POINT ENERGY     -1339.873939067840

DIPOLE MOMENT
-------------
                                X             Y             Z
Electronic contribution:     -7.65913      16.91073       6.79682
Nuclear contribution   :      7.79244     -17.55686      -6.78161
                        -----------------------------------------
Total Dipole Moment    :      0.13331      -0.64613       0.01521
                        -----------------------------------------
Magnitude (a.u.)       :      0.65992
Magnitude (Debye)      :      1.67737

Rotational constants in cm-1:     0.019914     0.007878     0.006990
Rotational constants in MHz :   597.009502   236.184623   209.557894

                             ****ORCA TERMINATED NORMALLY****
TOTAL RUN TIME: 0 days 0 hours 0 minutes 20 seconds 424 msec
