                         Program Version 4.2.1 -  RELEASE  -
|  1> ! wB97X-D3 SP def2-SVP
|  2> %pal
|  3> nprocs 24
|  4> end
|  5>
|  6> * xyz 0 1
|  7> S 	 -118.015 	 17.3414 	 -109.359
|  8> C 	 -116.598 	 18.3033 	 -109.016
|  9> C 	 -115.528 	 17.7288 	 -109.672
| 10> C 	 -115.798 	 16.4426 	 -110.223
| 11> C 	 -117.161 	 16.2345 	 -110.378
| 12> H 	 -115.167 	 15.6984 	 -110.679
| 13> C 	 -114.189 	 18.4598 	 -109.883
| 14> H 	 -113.506 	 18.0543 	 -109.19
| 15> H 	 -114.154 	 19.5042 	 -109.621
| 16> C 	 -113.547 	 18.4357 	 -111.314
| 17> H 	 -113.73 	 17.4174 	 -111.759
| 18> H 	 -114.005 	 19.171 	 -111.929
| 19> C 	 -112.023 	 18.5325 	 -111.337
| 20> H 	 -111.437 	 17.7214 	 -111.005
| 21> H 	 -111.477 	 18.6299 	 -112.313
| 22> H 	 -111.68 	 19.341 	 -110.756
| 23> S 	 -118.678 	 14.0344 	 -109.768
| 24> C 	 -118.92 	 12.8263 	 -110.952
| 25> C 	 -118.3 	 13.1374 	 -112.162
| 26> C 	 -117.71 	 14.41 	 -112.138
| 27> C 	 -117.745 	 14.962 	 -110.876
| 28> H 	 -118.439 	 12.43 	 -112.96
| 29> C 	 -117.075 	 15.0763 	 -113.368
| 30> H 	 -115.996 	 14.6859 	 -113.456
| 31> H 	 -117.062 	 16.1469 	 -113.277
| 32> C 	 -117.754 	 14.7972 	 -114.715
| 33> H 	 -118.746 	 15.1858 	 -114.512
| 34> H 	 -117.801 	 13.6441 	 -114.789
| 35> C 	 -117.253 	 15.5165 	 -115.989
| 36> H 	 -116.18 	 15.6884 	 -115.914
| 37> H 	 -117.863 	 16.3605 	 -116.092
| 38> H 	 -117.402 	 14.9174 	 -116.879
| 39> H 	 -116.494 	 19.2299 	 -108.48
| 40> H 	 -119.295 	 11.8196 	 -110.802
| 41> *
| 42>
| 43>                          ****END OF INPUT****

CARTESIAN COORDINATES (ANGSTROEM)
---------------------------------
  S    -118.015000   17.341400  -109.359000
  C    -116.598000   18.303300  -109.016000
  C    -115.528000   17.728800  -109.672000
  C    -115.798000   16.442600  -110.223000
  C    -117.161000   16.234500  -110.378000
  H    -115.167000   15.698400  -110.679000
  C    -114.189000   18.459800  -109.883000
  H    -113.506000   18.054300  -109.190000
  H    -114.154000   19.504200  -109.621000
  C    -113.547000   18.435700  -111.314000
  H    -113.730000   17.417400  -111.759000
  H    -114.005000   19.171000  -111.929000
  C    -112.023000   18.532500  -111.337000
  H    -111.437000   17.721400  -111.005000
  H    -111.477000   18.629900  -112.313000
  H    -111.680000   19.341000  -110.756000
  S    -118.678000   14.034400  -109.768000
  C    -118.920000   12.826300  -110.952000
  C    -118.300000   13.137400  -112.162000
  C    -117.710000   14.410000  -112.138000
  C    -117.745000   14.962000  -110.876000
  H    -118.439000   12.430000  -112.960000
  C    -117.075000   15.076300  -113.368000
  H    -115.996000   14.685900  -113.456000
  H    -117.062000   16.146900  -113.277000
  C    -117.754000   14.797200  -114.715000
  H    -118.746000   15.185800  -114.512000
  H    -117.801000   13.644100  -114.789000
  C    -117.253000   15.516500  -115.989000
  H    -116.180000   15.688400  -115.914000
  H    -117.863000   16.360500  -116.092000
  H    -117.402000   14.917400  -116.879000
  H    -116.494000   19.229900  -108.480000
  H    -119.295000   11.819600  -110.802000

 Total Charge           Charge          ....    0
 Multiplicity           Mult            ....    1
 Number of Electrons    NEL             ....  134
 Basis Dimension        Dim             ....  322

ORBITAL ENERGIES
----------------

  NO   OCC          E(Eh)            E(eV)
   0   2.0000     -88.968219     -2420.9483
   1   2.0000     -88.965486     -2420.8740
   2   2.0000     -10.328237      -281.0456
   3   2.0000     -10.324161      -280.9347
   4   2.0000     -10.312694      -280.6227
   5   2.0000     -10.312456      -280.6162
   6   2.0000     -10.304015      -280.3865
   7   2.0000     -10.303328      -280.3678
   8   2.0000     -10.295010      -280.1415
   9   2.0000     -10.293321      -280.0955
  10   2.0000     -10.290883      -280.0292
  11   2.0000     -10.290267      -280.0124
  12   2.0000     -10.289167      -279.9825
  13   2.0000     -10.289064      -279.9797
  14   2.0000     -10.276458      -279.6366
  15   2.0000     -10.272946      -279.5411
  16   2.0000      -8.084019      -219.9773
  17   2.0000      -8.080367      -219.8780
  18   2.0000      -6.042262      -164.4183
  19   2.0000      -6.038950      -164.3282
  20   2.0000      -6.038318      -164.3110
  21   2.0000      -6.035052      -164.2221
  22   2.0000      -6.034727      -164.2133
  23   2.0000      -6.031152      -164.1160
  24   2.0000      -1.014056       -27.5939
  25   2.0000      -0.991319       -26.9752
  26   2.0000      -0.907789       -24.7022
  27   2.0000      -0.905668       -24.6445
  28   2.0000      -0.869651       -23.6644
  29   2.0000      -0.855164       -23.2702
  30   2.0000      -0.845249       -23.0004
  31   2.0000      -0.817105       -22.2346
  32   2.0000      -0.786388       -21.3987
  33   2.0000      -0.776910       -21.1408
  34   2.0000      -0.709784       -19.3142
  35   2.0000      -0.695718       -18.9314
  36   2.0000      -0.692377       -18.8405
  37   2.0000      -0.652812       -17.7639
  38   2.0000      -0.644898       -17.5486
  39   2.0000      -0.619314       -16.8524
  40   2.0000      -0.597059       -16.2468
  41   2.0000      -0.571592       -15.5538
  42   2.0000      -0.570743       -15.5307
  43   2.0000      -0.557354       -15.1664
  44   2.0000      -0.527884       -14.3645
  45   2.0000      -0.523738       -14.2516
  46   2.0000      -0.514544       -14.0015
  47   2.0000      -0.512495       -13.9457
  48   2.0000      -0.505948       -13.7675
  49   2.0000      -0.503438       -13.6993
  50   2.0000      -0.494604       -13.4589
  51   2.0000      -0.484317       -13.1789
  52   2.0000      -0.472523       -12.8580
  53   2.0000      -0.467866       -12.7313
  54   2.0000      -0.463123       -12.6022
  55   2.0000      -0.455203       -12.3867
  56   2.0000      -0.449921       -12.2430
  57   2.0000      -0.434608       -11.8263
  58   2.0000      -0.428622       -11.6634
  59   2.0000      -0.418402       -11.3853
  60   2.0000      -0.414170       -11.2701
  61   2.0000      -0.412646       -11.2287
  62   2.0000      -0.409503       -11.1431
  63   2.0000      -0.343969        -9.3599
  64   2.0000      -0.334575        -9.1042
  65   2.0000      -0.323267        -8.7965
  66   2.0000      -0.296575        -8.0702
  67   0.0000       0.035106         0.9553
  68   0.0000       0.067961         1.8493
  69   0.0000       0.116519         3.1706
  70   0.0000       0.120557         3.2805
  71   0.0000       0.131711         3.5841

MULLIKEN ATOMIC CHARGES
-----------------------
   0 S :    0.103076
   1 C :   -0.107162
   2 C :   -0.071302
   3 C :    0.024878
   4 C :   -0.155690
   5 H :    0.024031
   6 C :    0.083520
   7 H :    0.019568
   8 H :    0.013331
   9 C :   -0.063487
  10 H :    0.033862
  11 H :    0.036093
  12 C :   -0.054274
  13 H :    0.014699
  14 H :    0.029219
  15 H :    0.012478
  16 S :    0.137968
  17 C :   -0.096220
  18 C :   -0.062711
  19 C :   -0.016209
  20 C :   -0.180283
  21 H :    0.019576
  22 C :    0.071069
  23 H :    0.041172
  24 H :    0.029002
  25 C :   -0.163470
  26 H :    0.031019
  27 H :    0.041014
  28 C :    0.012550
  29 H :    0.033006
  30 H :    0.029246
  31 H :    0.030550
  32 H :    0.045013
  33 H :    0.054869
Sum of atomic charges:    0.0000000

LOEWDIN ATOMIC CHARGES
----------------------
   0 S :    0.410839
   1 C :   -0.201275
   2 C :   -0.059425
   3 C :   -0.057752
   4 C :   -0.200228
   5 H :    0.032431
   6 C :   -0.030148
   7 H :    0.026440
   8 H :    0.027198
   9 C :   -0.034203
  10 H :    0.028372
  11 H :    0.021860
  12 C :   -0.075521
  13 H :    0.020406
  14 H :    0.035372
  15 H :    0.014875
  16 S :    0.444070
  17 C :   -0.202333
  18 C :   -0.072243
  19 C :   -0.058661
  20 C :   -0.210295
  21 H :    0.030322
  22 C :   -0.034282
  23 H :    0.034919
  24 H :    0.025887
  25 C :   -0.051929
  26 H :    0.023445
  27 H :    0.025016
  28 C :   -0.057239
  29 H :    0.027269
  30 H :    0.023307
  31 H :    0.030823
  32 H :    0.032063
  33 H :    0.030619

  Mayer bond orders larger than 0.100000
B(  0-S ,  1-C ) :   1.1306 B(  0-S ,  4-C ) :   1.1592 B(  1-C ,  2-C ) :   1.6147
B(  1-C , 32-H ) :   0.9725 B(  2-C ,  3-C ) :   1.2273 B(  2-C ,  6-C ) :   1.0165
B(  3-C ,  4-C ) :   1.5736 B(  3-C ,  5-H ) :   0.9877 B(  4-C , 20-C ) :   1.0142
B(  6-C ,  7-H ) :   0.9387 B(  6-C ,  8-H ) :   0.9465 B(  6-C ,  9-C ) :   1.0474
B(  9-C , 10-H ) :   0.9600 B(  9-C , 11-H ) :   0.9638 B(  9-C , 12-C ) :   1.0706
B( 12-C , 13-H ) :   0.9732 B( 12-C , 14-H ) :   0.9716 B( 12-C , 15-H ) :   0.9762
B( 16-S , 17-C ) :   1.1754 B( 16-S , 20-C ) :   1.1665 B( 17-C , 18-C ) :   1.6042
B( 17-C , 33-H ) :   0.9614 B( 18-C , 19-C ) :   1.2533 B( 18-C , 21-H ) :   0.9906
B( 19-C , 20-C ) :   1.5961 B( 19-C , 22-C ) :   1.0373 B( 22-C , 23-H ) :   0.9253
B( 22-C , 24-H ) :   0.9395 B( 22-C , 25-C ) :   1.0625 B( 25-C , 26-H ) :   0.9679
B( 25-C , 27-H ) :   0.9529 B( 25-C , 28-C ) :   1.0686 B( 28-C , 29-H ) :   0.9760
B( 28-C , 30-H ) :   0.9772 B( 28-C , 31-H ) :   0.9735

Dispersion correction           -0.013510975
FINAL SINGLE POINT ENERGY     -1339.853017994316

DIPOLE MOMENT
-------------
                                X             Y             Z
Electronic contribution:    -20.84804      -7.33696      22.35104
Nuclear contribution   :     21.35413       7.32186     -22.78793
                        -----------------------------------------
Total Dipole Moment    :      0.50609      -0.01510      -0.43689
                        -----------------------------------------
Magnitude (a.u.)       :      0.66876
Magnitude (Debye)      :      1.69984

Rotational constants in cm-1:     0.015486     0.009127     0.006495
Rotational constants in MHz :   464.263895   273.625402   194.715567

                             ****ORCA TERMINATED NORMALLY****
TOTAL RUN TIME: 0 days 0 hours 0 minutes 20 seconds 29 msec
