                         Program Version 4.2.1 -  RELEASE  -
|  1> ! wB97X-D3 SP def2-SVP
|  2> %pal
|  3> nprocs 24
|  4> end
|  5>
|  6> * xyz 0 1
|  7> S 	 -111.902 	 56.7555 	 -90.7
|  8> C 	 -113.315 	 56.4654 	 -91.6911
|  9> C 	 -113.8 	 55.2139 	 -91.4028
| 10> C 	 -113.143 	 54.5524 	 -90.2898
| 11> C 	 -112.107 	 55.2781 	 -89.7147
| 12> H 	 -113.316 	 53.6013 	 -89.8656
| 13> C 	 -114.765 	 54.4873 	 -92.3304
| 14> H 	 -115.795 	 54.5883 	 -91.9483
| 15> H 	 -114.559 	 53.4399 	 -92.3286
| 16> C 	 -114.853 	 54.949 	 -93.7636
| 17> H 	 -114.861 	 56.0481 	 -93.8375
| 18> H 	 -113.813 	 54.9072 	 -94.1174
| 19> C 	 -115.772 	 54.1507 	 -94.6533
| 20> H 	 -116.77 	 53.9803 	 -94.3813
| 21> H 	 -115.962 	 54.696 	 -95.5706
| 22> H 	 -115.356 	 53.1916 	 -94.8784
| 23> S 	 -110.521 	 56.2568 	 -87.7367
| 24> C 	 -109.372 	 55.3524 	 -86.8972
| 25> C 	 -109.46 	 54.0264 	 -87.2499
| 26> C 	 -110.391 	 53.7722 	 -88.3036
| 27> C 	 -111.128 	 54.9072 	 -88.6818
| 28> H 	 -108.823 	 53.2489 	 -86.7912
| 29> C 	 -110.669 	 52.456 	 -88.9408
| 30> H 	 -110.887 	 52.6933 	 -89.9835
| 31> H 	 -111.603 	 52.0982 	 -88.5022
| 32> C 	 -109.54 	 51.4291 	 -88.8767
| 33> H 	 -109.953 	 50.6023 	 -89.4239
| 34> H 	 -109.273 	 51.0668 	 -87.8924
| 35> C 	 -108.236 	 51.7134 	 -89.6608
| 36> H 	 -108.389 	 51.7922 	 -90.6993
| 37> H 	 -107.533 	 50.9456 	 -89.5098
| 38> H 	 -107.826 	 52.6479 	 -89.4889
| 39> H 	 -113.658 	 57.1039 	 -92.5055
| 40> H 	 -108.631 	 55.7321 	 -86.216
| 41> *
| 42>
| 43>                          ****END OF INPUT****

CARTESIAN COORDINATES (ANGSTROEM)
---------------------------------
  S    -111.902000   56.755500  -90.700000
  C    -113.315000   56.465400  -91.691100
  C    -113.800000   55.213900  -91.402800
  C    -113.143000   54.552400  -90.289800
  C    -112.107000   55.278100  -89.714700
  H    -113.316000   53.601300  -89.865600
  C    -114.765000   54.487300  -92.330400
  H    -115.795000   54.588300  -91.948300
  H    -114.559000   53.439900  -92.328600
  C    -114.853000   54.949000  -93.763600
  H    -114.861000   56.048100  -93.837500
  H    -113.813000   54.907200  -94.117400
  C    -115.772000   54.150700  -94.653300
  H    -116.770000   53.980300  -94.381300
  H    -115.962000   54.696000  -95.570600
  H    -115.356000   53.191600  -94.878400
  S    -110.521000   56.256800  -87.736700
  C    -109.372000   55.352400  -86.897200
  C    -109.460000   54.026400  -87.249900
  C    -110.391000   53.772200  -88.303600
  C    -111.128000   54.907200  -88.681800
  H    -108.823000   53.248900  -86.791200
  C    -110.669000   52.456000  -88.940800
  H    -110.887000   52.693300  -89.983500
  H    -111.603000   52.098200  -88.502200
  C    -109.540000   51.429100  -88.876700
  H    -109.953000   50.602300  -89.423900
  H    -109.273000   51.066800  -87.892400
  C    -108.236000   51.713400  -89.660800
  H    -108.389000   51.792200  -90.699300
  H    -107.533000   50.945600  -89.509800
  H    -107.826000   52.647900  -89.488900
  H    -113.658000   57.103900  -92.505500
  H    -108.631000   55.732100  -86.216000

 Total Charge           Charge          ....    0
 Multiplicity           Mult            ....    1
 Number of Electrons    NEL             ....  134
 Basis Dimension        Dim             ....  322

ORBITAL ENERGIES
----------------

  NO   OCC          E(Eh)            E(eV)
   0   2.0000     -88.962438     -2420.7910
   1   2.0000     -88.962132     -2420.7827
   2   2.0000     -10.337549      -281.2990
   3   2.0000     -10.328051      -281.0406
   4   2.0000     -10.316121      -280.7159
   5   2.0000     -10.314334      -280.6673
   6   2.0000     -10.304925      -280.4113
   7   2.0000     -10.304626      -280.4031
   8   2.0000     -10.296508      -280.1822
   9   2.0000     -10.294535      -280.1285
  10   2.0000     -10.291652      -280.0501
  11   2.0000     -10.287895      -279.9479
  12   2.0000     -10.286746      -279.9166
  13   2.0000     -10.285813      -279.8912
  14   2.0000     -10.274679      -279.5882
  15   2.0000     -10.263449      -279.2827
  16   2.0000      -8.078045      -219.8148
  17   2.0000      -8.076625      -219.7762
  18   2.0000      -6.036389      -164.2585
  19   2.0000      -6.035260      -164.2278
  20   2.0000      -6.032101      -164.1418
  21   2.0000      -6.031202      -164.1174
  22   2.0000      -6.029175      -164.0622
  23   2.0000      -6.027237      -164.0095
  24   2.0000      -1.008515       -27.4431
  25   2.0000      -0.985680       -26.8217
  26   2.0000      -0.916087       -24.9280
  27   2.0000      -0.914674       -24.8895
  28   2.0000      -0.872773       -23.7493
  29   2.0000      -0.853510       -23.2252
  30   2.0000      -0.843702       -22.9583
  31   2.0000      -0.820749       -22.3337
  32   2.0000      -0.789664       -21.4879
  33   2.0000      -0.776402       -21.1270
  34   2.0000      -0.716809       -19.5054
  35   2.0000      -0.713107       -19.4046
  36   2.0000      -0.696561       -18.9544
  37   2.0000      -0.656260       -17.8578
  38   2.0000      -0.642525       -17.4840
  39   2.0000      -0.614649       -16.7254
  40   2.0000      -0.599802       -16.3214
  41   2.0000      -0.577392       -15.7116
  42   2.0000      -0.563695       -15.3389
  43   2.0000      -0.559641       -15.2286
  44   2.0000      -0.538095       -14.6423
  45   2.0000      -0.527509       -14.3542
  46   2.0000      -0.523613       -14.2482
  47   2.0000      -0.516807       -14.0630
  48   2.0000      -0.513094       -13.9620
  49   2.0000      -0.504822       -13.7369
  50   2.0000      -0.493602       -13.4316
  51   2.0000      -0.489169       -13.3110
  52   2.0000      -0.480210       -13.0672
  53   2.0000      -0.467656       -12.7256
  54   2.0000      -0.462205       -12.5773
  55   2.0000      -0.454015       -12.3544
  56   2.0000      -0.446246       -12.1430
  57   2.0000      -0.437797       -11.9131
  58   2.0000      -0.431880       -11.7520
  59   2.0000      -0.428658       -11.6644
  60   2.0000      -0.416618       -11.3368
  61   2.0000      -0.406227       -11.0540
  62   2.0000      -0.404426       -11.0050
  63   2.0000      -0.353697        -9.6246
  64   2.0000      -0.329061        -8.9542
  65   2.0000      -0.324312        -8.8250
  66   2.0000      -0.291811        -7.9406
  67   0.0000       0.024780         0.6743
  68   0.0000       0.077609         2.1119
  69   0.0000       0.110962         3.0194
  70   0.0000       0.126181         3.4336
  71   0.0000       0.134956         3.6723

MULLIKEN ATOMIC CHARGES
-----------------------
   0 S :    0.094407
   1 C :   -0.128434
   2 C :   -0.074910
   3 C :    0.021482
   4 C :   -0.114454
   5 H :   -0.006422
   6 C :    0.088068
   7 H :    0.033260
   8 H :    0.017463
   9 C :   -0.115695
  10 H :    0.016520
  11 H :    0.017613
  12 C :    0.015368
  13 H :    0.013799
  14 H :    0.022546
  15 H :    0.029636
  16 S :    0.105071
  17 C :   -0.070360
  18 C :   -0.047652
  19 C :   -0.057951
  20 C :   -0.170949
  21 H :    0.026402
  22 C :    0.056112
  23 H :    0.030109
  24 H :    0.049727
  25 C :   -0.069350
  26 H :    0.020828
  27 H :    0.028741
  28 C :    0.003954
  29 H :    0.008128
  30 H :    0.026436
  31 H :    0.012187
  32 H :    0.061017
  33 H :    0.057302
Sum of atomic charges:   -0.0000000

LOEWDIN ATOMIC CHARGES
----------------------
   0 S :    0.386387
   1 C :   -0.198519
   2 C :   -0.061929
   3 C :   -0.063799
   4 C :   -0.178379
   5 H :    0.023507
   6 C :   -0.032934
   7 H :    0.033171
   8 H :    0.026026
   9 C :   -0.055206
  10 H :    0.021028
  11 H :    0.027099
  12 C :   -0.058100
  13 H :    0.019813
  14 H :    0.033489
  15 H :    0.027115
  16 S :    0.436302
  17 C :   -0.199242
  18 C :   -0.083926
  19 C :   -0.054707
  20 C :   -0.206645
  21 H :    0.035677
  22 C :   -0.034609
  23 H :    0.036309
  24 H :    0.037547
  25 C :   -0.038123
  26 H :    0.027824
  27 H :    0.020600
  28 C :   -0.054005
  29 H :    0.021845
  30 H :    0.023947
  31 H :    0.015351
  32 H :    0.034222
  33 H :    0.032866

  Mayer bond orders larger than 0.100000
B(  0-S ,  1-C ) :   1.1263 B(  0-S ,  4-C ) :   1.1414 B(  1-C ,  2-C ) :   1.6231
B(  1-C , 32-H ) :   0.9643 B(  2-C ,  3-C ) :   1.2175 B(  2-C ,  6-C ) :   1.0128
B(  3-C ,  4-C ) :   1.5794 B(  3-C ,  5-H ) :   1.0094 B(  4-C , 20-C ) :   1.0613
B(  6-C ,  7-H ) :   0.9254 B(  6-C ,  8-H ) :   0.9506 B(  6-C ,  9-C ) :   1.0785
B(  9-C , 10-H ) :   0.9465 B(  9-C , 11-H ) :   0.9476 B(  9-C , 12-C ) :   1.0796
B( 12-C , 13-H ) :   0.9753 B( 12-C , 14-H ) :   0.9668 B( 12-C , 15-H ) :   0.9723
B( 16-S , 17-C ) :   1.1934 B( 16-S , 20-C ) :   1.1493 B( 17-C , 18-C ) :   1.5531
B( 17-C , 20-C ) :   0.1005 B( 17-C , 33-H ) :   0.9682 B( 18-C , 19-C ) :   1.2829
B( 18-C , 21-H ) :   0.9853 B( 19-C , 20-C ) :   1.5413 B( 19-C , 22-C ) :   1.0333
B( 22-C , 23-H ) :   0.9289 B( 22-C , 24-H ) :   0.9301 B( 22-C , 25-C ) :   1.0853
B( 25-C , 26-H ) :   0.9507 B( 25-C , 27-H ) :   0.9541 B( 25-C , 28-C ) :   1.0776
B( 28-C , 29-H ) :   0.9681 B( 28-C , 30-H ) :   0.9744 B( 28-C , 31-H ) :   0.9744

Dispersion correction           -0.013633655
FINAL SINGLE POINT ENERGY     -1339.868127111026

DIPOLE MOMENT
-------------
                                X             Y             Z
Electronic contribution:      5.46762      20.82249      16.71489
Nuclear contribution   :     -5.49046     -21.53732     -17.04658
                        -----------------------------------------
Total Dipole Moment    :     -0.02284      -0.71483      -0.33169
                        -----------------------------------------
Magnitude (a.u.)       :      0.78836
Magnitude (Debye)      :      2.00386

Rotational constants in cm-1:     0.021677     0.007325     0.005879
Rotational constants in MHz :   649.848017   219.600557   176.235497

                             ****ORCA TERMINATED NORMALLY****
TOTAL RUN TIME: 0 days 0 hours 0 minutes 21 seconds 108 msec
