                         Program Version 4.2.1 -  RELEASE  -
|  1> ! wB97X-D3 SP def2-SVP
|  2> %pal
|  3> nprocs 24
|  4> end
|  5>
|  6> * xyz 0 1
|  7> S 	 -112.208 	 58.4063 	 -16.5418
|  8> C 	 -112.042 	 60.085 	 -15.9357
|  9> C 	 -112.369 	 61.0041 	 -16.9467
| 10> C 	 -112.308 	 60.3924 	 -18.2304
| 11> C 	 -112.049 	 59.0413 	 -18.1978
| 12> H 	 -112.454 	 60.8956 	 -19.2062
| 13> C 	 -112.584 	 62.3782 	 -16.731
| 14> H 	 -112.693 	 62.5224 	 -15.6956
| 15> H 	 -113.568 	 62.4841 	 -17.1787
| 16> C 	 -111.481 	 63.2775 	 -17.2825
| 17> H 	 -110.473 	 63.0425 	 -16.8435
| 18> H 	 -111.237 	 63.0476 	 -18.3438
| 19> C 	 -111.81 	 64.7673 	 -17.07
| 20> H 	 -112.091 	 64.9491 	 -16.0531
| 21> H 	 -111.181 	 65.5559 	 -17.4663
| 22> H 	 -112.736 	 64.8942 	 -17.514
| 23> S 	 -113.061 	 56.7617 	 -19.2404
| 24> C 	 -112.335 	 56.1312 	 -20.7707
| 25> C 	 -111.566 	 57.0515 	 -21.3935
| 26> C 	 -111.262 	 58.2083 	 -20.5896
| 27> C 	 -111.988 	 58.2136 	 -19.3985
| 28> H 	 -111.219 	 56.7845 	 -22.3538
| 29> C 	 -110.349 	 59.2864 	 -21.0506
| 30> H 	 -109.44 	 58.874 	 -21.4159
| 31> H 	 -110.135 	 59.8888 	 -20.1547
| 32> C 	 -111.031 	 60.154 	 -22.1626
| 33> H 	 -111.845 	 60.7177 	 -21.7616
| 34> H 	 -111.404 	 59.4378 	 -22.8395
| 35> C 	 -110.019 	 61.0783 	 -22.8776
| 36> H 	 -110.45 	 61.6678 	 -23.7425
| 37> H 	 -109.09 	 60.5927 	 -23.1672
| 38> H 	 -109.708 	 61.83 	 -22.1235
| 39> H 	 -112.024 	 60.3542 	 -14.9026
| 40> H 	 -112.504 	 55.2416 	 -21.3348
| 41> *
| 42>
| 43>                          ****END OF INPUT****

CARTESIAN COORDINATES (ANGSTROEM)
---------------------------------
  S    -112.208000   58.406300  -16.541800
  C    -112.042000   60.085000  -15.935700
  C    -112.369000   61.004100  -16.946700
  C    -112.308000   60.392400  -18.230400
  C    -112.049000   59.041300  -18.197800
  H    -112.454000   60.895600  -19.206200
  C    -112.584000   62.378200  -16.731000
  H    -112.693000   62.522400  -15.695600
  H    -113.568000   62.484100  -17.178700
  C    -111.481000   63.277500  -17.282500
  H    -110.473000   63.042500  -16.843500
  H    -111.237000   63.047600  -18.343800
  C    -111.810000   64.767300  -17.070000
  H    -112.091000   64.949100  -16.053100
  H    -111.181000   65.555900  -17.466300
  H    -112.736000   64.894200  -17.514000
  S    -113.061000   56.761700  -19.240400
  C    -112.335000   56.131200  -20.770700
  C    -111.566000   57.051500  -21.393500
  C    -111.262000   58.208300  -20.589600
  C    -111.988000   58.213600  -19.398500
  H    -111.219000   56.784500  -22.353800
  C    -110.349000   59.286400  -21.050600
  H    -109.440000   58.874000  -21.415900
  H    -110.135000   59.888800  -20.154700
  C    -111.031000   60.154000  -22.162600
  H    -111.845000   60.717700  -21.761600
  H    -111.404000   59.437800  -22.839500
  C    -110.019000   61.078300  -22.877600
  H    -110.450000   61.667800  -23.742500
  H    -109.090000   60.592700  -23.167200
  H    -109.708000   61.830000  -22.123500
  H    -112.024000   60.354200  -14.902600
  H    -112.504000   55.241600  -21.334800

 Total Charge           Charge          ....    0
 Multiplicity           Mult            ....    1
 Number of Electrons    NEL             ....  134
 Basis Dimension        Dim             ....  322

ORBITAL ENERGIES
----------------

  NO   OCC          E(Eh)            E(eV)
   0   2.0000     -88.966651     -2420.9056
   1   2.0000     -88.963075     -2420.8083
   2   2.0000     -10.331405      -281.1318
   3   2.0000     -10.331218      -281.1267
   4   2.0000     -10.314979      -280.6848
   5   2.0000     -10.313937      -280.6565
   6   2.0000     -10.305372      -280.4234
   7   2.0000     -10.298134      -280.2265
   8   2.0000     -10.295932      -280.1665
   9   2.0000     -10.295522      -280.1554
  10   2.0000     -10.289097      -279.9806
  11   2.0000     -10.288594      -279.9669
  12   2.0000     -10.285902      -279.8936
  13   2.0000     -10.285466      -279.8818
  14   2.0000     -10.284834      -279.8646
  15   2.0000     -10.271521      -279.5023
  16   2.0000      -8.080145      -219.8719
  17   2.0000      -8.076219      -219.7651
  18   2.0000      -6.038852      -164.3255
  19   2.0000      -6.035217      -164.2266
  20   2.0000      -6.035030      -164.2215
  21   2.0000      -6.031178      -164.1167
  22   2.0000      -6.030356      -164.0943
  23   2.0000      -6.026511      -163.9897
  24   2.0000      -1.001600       -27.2549
  25   2.0000      -0.978889       -26.6369
  26   2.0000      -0.925463       -25.1831
  27   2.0000      -0.908435       -24.7198
  28   2.0000      -0.870890       -23.6981
  29   2.0000      -0.852159       -23.1884
  30   2.0000      -0.844647       -22.9840
  31   2.0000      -0.821114       -22.3437
  32   2.0000      -0.781108       -21.2550
  33   2.0000      -0.767596       -20.8873
  34   2.0000      -0.717619       -19.5274
  35   2.0000      -0.707388       -19.2490
  36   2.0000      -0.701354       -19.0848
  37   2.0000      -0.660616       -17.9763
  38   2.0000      -0.641313       -17.4510
  39   2.0000      -0.623051       -16.9541
  40   2.0000      -0.589530       -16.0419
  41   2.0000      -0.573236       -15.5985
  42   2.0000      -0.568568       -15.4715
  43   2.0000      -0.558190       -15.1891
  44   2.0000      -0.537720       -14.6321
  45   2.0000      -0.521760       -14.1978
  46   2.0000      -0.518677       -14.1139
  47   2.0000      -0.511997       -13.9322
  48   2.0000      -0.507434       -13.8080
  49   2.0000      -0.498081       -13.5535
  50   2.0000      -0.495207       -13.4753
  51   2.0000      -0.485503       -13.2112
  52   2.0000      -0.464760       -12.6468
  53   2.0000      -0.459467       -12.5027
  54   2.0000      -0.456737       -12.4284
  55   2.0000      -0.451828       -12.2949
  56   2.0000      -0.447343       -12.1728
  57   2.0000      -0.444301       -12.0901
  58   2.0000      -0.438770       -11.9395
  59   2.0000      -0.432326       -11.7642
  60   2.0000      -0.422549       -11.4981
  61   2.0000      -0.419945       -11.4273
  62   2.0000      -0.410808       -11.1787
  63   2.0000      -0.346825        -9.4376
  64   2.0000      -0.329422        -8.9640
  65   2.0000      -0.325825        -8.8662
  66   2.0000      -0.286719        -7.8020
  67   0.0000       0.022311         0.6071
  68   0.0000       0.063439         1.7263
  69   0.0000       0.090647         2.4666
  70   0.0000       0.121941         3.3182
  71   0.0000       0.125291         3.4093

MULLIKEN ATOMIC CHARGES
-----------------------
   0 S :    0.101962
   1 C :   -0.100556
   2 C :   -0.112258
   3 C :   -0.002246
   4 C :   -0.107652
   5 H :    0.025105
   6 C :    0.121948
   7 H :   -0.002984
   8 H :    0.036818
   9 C :   -0.106494
  10 H :    0.033698
  11 H :    0.027617
  12 C :    0.025327
  13 H :    0.011903
  14 H :    0.042443
  15 H :   -0.006329
  16 S :    0.070130
  17 C :   -0.059209
  18 C :   -0.037857
  19 C :   -0.040300
  20 C :   -0.163434
  21 H :    0.004959
  22 C :    0.077446
  23 H :    0.015054
  24 H :    0.027384
  25 C :   -0.049827
  26 H :    0.026838
  27 H :    0.017127
  28 C :   -0.060950
  29 H :    0.049010
  30 H :    0.032077
  31 H :    0.027296
  32 H :    0.037472
  33 H :    0.038479
Sum of atomic charges:   -0.0000000

LOEWDIN ATOMIC CHARGES
----------------------
   0 S :    0.370769
   1 C :   -0.181905
   2 C :   -0.056380
   3 C :   -0.062699
   4 C :   -0.184093
   5 H :    0.036189
   6 C :   -0.034950
   7 H :    0.026492
   8 H :    0.043931
   9 C :   -0.037675
  10 H :    0.029643
  11 H :    0.024321
  12 C :   -0.065604
  13 H :    0.023962
  14 H :    0.029029
  15 H :    0.016908
  16 S :    0.343316
  17 C :   -0.160946
  18 C :   -0.066578
  19 C :   -0.053931
  20 C :   -0.163896
  21 H :    0.026059
  22 C :   -0.025696
  23 H :    0.025153
  24 H :    0.031420
  25 C :   -0.028031
  26 H :    0.020708
  27 H :    0.016170
  28 C :   -0.073153
  29 H :    0.033248
  30 H :    0.022865
  31 H :    0.027094
  32 H :    0.020432
  33 H :    0.027829

  Mayer bond orders larger than 0.100000
B(  0-S ,  1-C ) :   1.1115 B(  0-S ,  4-C ) :   1.1293 B(  1-C ,  2-C ) :   1.6049
B(  1-C , 32-H ) :   0.9698 B(  2-C ,  3-C ) :   1.2086 B(  2-C ,  6-C ) :   1.0598
B(  3-C ,  4-C ) :   1.5681 B(  3-C ,  5-H ) :   0.9924 B(  4-C , 20-C ) :   1.0593
B(  6-C ,  7-H ) :   0.9203 B(  6-C ,  8-H ) :   0.9144 B(  6-C ,  9-C ) :   1.0535
B(  9-C , 10-H ) :   0.9545 B(  9-C , 11-H ) :   0.9585 B(  9-C , 12-C ) :   1.0716
B( 12-C , 13-H ) :   0.9684 B( 12-C , 14-H ) :   0.9751 B( 12-C , 15-H ) :   0.9660
B( 16-S , 17-C ) :   1.1039 B( 16-S , 20-C ) :   1.1013 B( 17-C , 18-C ) :   1.7108
B( 17-C , 33-H ) :   0.9612 B( 18-C , 19-C ) :   1.1646 B( 18-C , 21-H ) :   0.9874
B( 19-C , 20-C ) :   1.6509 B( 19-C , 22-C ) :   1.0654 B( 22-C , 23-H ) :   0.9291
B( 22-C , 24-H ) :   0.9265 B( 22-C , 25-C ) :   1.0545 B( 25-C , 26-H ) :   0.9542
B( 25-C , 27-H ) :   0.9598 B( 25-C , 28-C ) :   1.0771 B( 28-C , 29-H ) :   0.9744
B( 28-C , 30-H ) :   0.9758 B( 28-C , 31-H ) :   0.9736

Dispersion correction           -0.013994981
FINAL SINGLE POINT ENERGY     -1339.850435167317

DIPOLE MOMENT
-------------
                                X             Y             Z
Electronic contribution:     -9.03142     -28.82257      11.10669
Nuclear contribution   :      9.11657      29.51678     -11.50294
                        -----------------------------------------
Total Dipole Moment    :      0.08515       0.69421      -0.39625
                        -----------------------------------------
Magnitude (a.u.)       :      0.80386
Magnitude (Debye)      :      2.04326

Rotational constants in cm-1:     0.016517     0.009529     0.006354
Rotational constants in MHz :   495.172564   285.664838   190.495658

                             ****ORCA TERMINATED NORMALLY****
TOTAL RUN TIME: 0 days 0 hours 0 minutes 21 seconds 694 msec
