                         Program Version 4.2.1 -  RELEASE  -
|  1> ! wB97X-D3 SP def2-SVP
|  2> %pal
|  3> nprocs 24
|  4> end
|  5>
|  6> * xyz 0 1
|  7> S 	 34.9404 	 -33.5139 	 -130.146
|  8> C 	 35.1378 	 -31.9537 	 -129.463
|  9> C 	 34.0873 	 -31.6024 	 -128.625
| 10> C 	 33.1181 	 -32.6104 	 -128.55
| 11> C 	 33.3965 	 -33.6665 	 -129.386
| 12> H 	 32.1805 	 -32.6938 	 -128.032
| 13> C 	 33.9368 	 -30.1971 	 -128.026
| 14> H 	 32.9088 	 -29.9951 	 -128.189
| 15> H 	 34.47 	 -29.5064 	 -128.662
| 16> C 	 34.2733 	 -29.9748 	 -126.495
| 17> H 	 33.7421 	 -30.6491 	 -125.857
| 18> H 	 35.2342 	 -30.3157 	 -126.184
| 19> C 	 34.1545 	 -28.5758 	 -125.922
| 20> H 	 33.3205 	 -27.9777 	 -126.386
| 21> H 	 33.8577 	 -28.6714 	 -124.891
| 22> H 	 35.0534 	 -27.8938 	 -126.127
| 23> S 	 33.469 	 -36.469 	 -129.477
| 24> C 	 32.0316 	 -37.3672 	 -130.074
| 25> C 	 30.9173 	 -36.5809 	 -129.993
| 26> C 	 31.1951 	 -35.1604 	 -129.702
| 27> C 	 32.5827 	 -34.8654 	 -129.586
| 28> H 	 29.9621 	 -37.0463 	 -130.26
| 29> C 	 30.0666 	 -34.1622 	 -129.929
| 30> H 	 29.3511 	 -34.2125 	 -130.757
| 31> H 	 30.5614 	 -33.2243 	 -130.293
| 32> C 	 29.3107 	 -33.8875 	 -128.667
| 33> H 	 28.828 	 -32.9099 	 -128.738
| 34> H 	 29.9499 	 -33.9223 	 -127.782
| 35> C 	 28.2106 	 -34.8521 	 -128.413
| 36> H 	 27.4064 	 -34.6245 	 -129.126
| 37> H 	 27.8416 	 -34.8577 	 -127.395
| 38> H 	 28.422 	 -35.9532 	 -128.665
| 39> H 	 35.8885 	 -31.2698 	 -129.707
| 40> H 	 31.8954 	 -38.4007 	 -129.951
| 41> *
| 42>
| 43>                          ****END OF INPUT****

CARTESIAN COORDINATES (ANGSTROEM)
---------------------------------
  S     34.940400  -33.513900  -130.146000
  C     35.137800  -31.953700  -129.463000
  C     34.087300  -31.602400  -128.625000
  C     33.118100  -32.610400  -128.550000
  C     33.396500  -33.666500  -129.386000
  H     32.180500  -32.693800  -128.032000
  C     33.936800  -30.197100  -128.026000
  H     32.908800  -29.995100  -128.189000
  H     34.470000  -29.506400  -128.662000
  C     34.273300  -29.974800  -126.495000
  H     33.742100  -30.649100  -125.857000
  H     35.234200  -30.315700  -126.184000
  C     34.154500  -28.575800  -125.922000
  H     33.320500  -27.977700  -126.386000
  H     33.857700  -28.671400  -124.891000
  H     35.053400  -27.893800  -126.127000
  S     33.469000  -36.469000  -129.477000
  C     32.031600  -37.367200  -130.074000
  C     30.917300  -36.580900  -129.993000
  C     31.195100  -35.160400  -129.702000
  C     32.582700  -34.865400  -129.586000
  H     29.962100  -37.046300  -130.260000
  C     30.066600  -34.162200  -129.929000
  H     29.351100  -34.212500  -130.757000
  H     30.561400  -33.224300  -130.293000
  C     29.310700  -33.887500  -128.667000
  H     28.828000  -32.909900  -128.738000
  H     29.949900  -33.922300  -127.782000
  C     28.210600  -34.852100  -128.413000
  H     27.406400  -34.624500  -129.126000
  H     27.841600  -34.857700  -127.395000
  H     28.422000  -35.953200  -128.665000
  H     35.888500  -31.269800  -129.707000
  H     31.895400  -38.400700  -129.951000

 Total Charge           Charge          ....    0
 Multiplicity           Mult            ....    1
 Number of Electrons    NEL             ....  134
 Basis Dimension        Dim             ....  322

ORBITAL ENERGIES
----------------

  NO   OCC          E(Eh)            E(eV)
   0   2.0000     -88.971189     -2421.0291
   1   2.0000     -88.961765     -2420.7727
   2   2.0000     -10.343845      -281.4703
   3   2.0000     -10.329556      -281.0815
   4   2.0000     -10.316872      -280.7363
   5   2.0000     -10.313087      -280.6334
   6   2.0000     -10.309684      -280.5408
   7   2.0000     -10.303075      -280.3609
   8   2.0000     -10.299379      -280.2604
   9   2.0000     -10.295684      -280.1598
  10   2.0000     -10.293786      -280.1082
  11   2.0000     -10.292892      -280.0838
  12   2.0000     -10.286026      -279.8970
  13   2.0000     -10.284885      -279.8660
  14   2.0000     -10.281316      -279.7688
  15   2.0000     -10.277999      -279.6786
  16   2.0000      -8.086726      -220.0510
  17   2.0000      -8.074837      -219.7275
  18   2.0000      -6.045046      -164.4941
  19   2.0000      -6.041107      -164.3869
  20   2.0000      -6.037626      -164.2921
  21   2.0000      -6.033656      -164.1841
  22   2.0000      -6.029707      -164.0767
  23   2.0000      -6.025211      -163.9543
  24   2.0000      -1.011540       -27.5254
  25   2.0000      -0.975331       -26.5401
  26   2.0000      -0.916952       -24.9515
  27   2.0000      -0.906941       -24.6791
  28   2.0000      -0.872446       -23.7405
  29   2.0000      -0.859266       -23.3818
  30   2.0000      -0.840416       -22.8689
  31   2.0000      -0.820277       -22.3209
  32   2.0000      -0.783238       -21.3130
  33   2.0000      -0.771883       -21.0040
  34   2.0000      -0.711027       -19.3480
  35   2.0000      -0.705037       -19.1850
  36   2.0000      -0.686627       -18.6841
  37   2.0000      -0.661871       -18.0104
  38   2.0000      -0.648283       -17.6407
  39   2.0000      -0.620666       -16.8892
  40   2.0000      -0.604678       -16.4541
  41   2.0000      -0.568338       -15.4653
  42   2.0000      -0.555915       -15.1272
  43   2.0000      -0.551366       -15.0034
  44   2.0000      -0.543026       -14.7765
  45   2.0000      -0.530348       -14.4315
  46   2.0000      -0.518202       -14.1010
  47   2.0000      -0.509751       -13.8710
  48   2.0000      -0.505841       -13.7646
  49   2.0000      -0.502774       -13.6812
  50   2.0000      -0.494360       -13.4522
  51   2.0000      -0.482722       -13.1355
  52   2.0000      -0.471651       -12.8343
  53   2.0000      -0.466292       -12.6884
  54   2.0000      -0.464179       -12.6309
  55   2.0000      -0.445207       -12.1147
  56   2.0000      -0.440177       -11.9778
  57   2.0000      -0.439967       -11.9721
  58   2.0000      -0.429893       -11.6980
  59   2.0000      -0.423691       -11.5292
  60   2.0000      -0.413100       -11.2410
  61   2.0000      -0.409529       -11.1438
  62   2.0000      -0.403928       -10.9914
  63   2.0000      -0.354596        -9.6491
  64   2.0000      -0.337667        -9.1884
  65   2.0000      -0.326429        -8.8826
  66   2.0000      -0.290870        -7.9150
  67   0.0000       0.019529         0.5314
  68   0.0000       0.066185         1.8010
  69   0.0000       0.101663         2.7664
  70   0.0000       0.117407         3.1948
  71   0.0000       0.130750         3.5579

MULLIKEN ATOMIC CHARGES
-----------------------
   0 S :    0.137977
   1 C :   -0.087261
   2 C :   -0.090526
   3 C :    0.042706
   4 C :   -0.169857
   5 H :    0.000163
   6 C :    0.108327
   7 H :    0.016729
   8 H :    0.015185
   9 C :   -0.034297
  10 H :    0.007701
  11 H :    0.011854
  12 C :   -0.082812
  13 H :    0.025012
  14 H :    0.038506
  15 H :    0.050656
  16 S :    0.058368
  17 C :   -0.055568
  18 C :   -0.062471
  19 C :   -0.002622
  20 C :   -0.133038
  21 H :    0.038735
  22 C :    0.007794
  23 H :    0.029147
  24 H :    0.026654
  25 C :   -0.054143
  26 H :    0.028595
  27 H :    0.034667
  28 C :   -0.067976
  29 H :    0.020499
  30 H :    0.037780
  31 H :    0.025902
  32 H :    0.024781
  33 H :    0.052829
Sum of atomic charges:   -0.0000000

LOEWDIN ATOMIC CHARGES
----------------------
   0 S :    0.442425
   1 C :   -0.195942
   2 C :   -0.061184
   3 C :   -0.057429
   4 C :   -0.205899
   5 H :    0.033377
   6 C :   -0.020183
   7 H :    0.027819
   8 H :    0.027854
   9 C :   -0.046932
  10 H :    0.022282
  11 H :    0.023315
  12 C :   -0.075806
  13 H :    0.025976
  14 H :    0.028882
  15 H :    0.033782
  16 S :    0.339908
  17 C :   -0.173723
  18 C :   -0.064789
  19 C :   -0.053505
  20 C :   -0.156081
  21 H :    0.035177
  22 C :   -0.043772
  23 H :    0.032941
  24 H :    0.035759
  25 C :   -0.048090
  26 H :    0.027242
  27 H :    0.022253
  28 C :   -0.072281
  29 H :    0.022624
  30 H :    0.024878
  31 H :    0.027950
  32 H :    0.017515
  33 H :    0.023653

  Mayer bond orders larger than 0.100000
B(  0-S ,  1-C ) :   1.1533 B(  0-S ,  4-C ) :   1.1661 B(  1-C ,  2-C ) :   1.5915
B(  1-C , 32-H ) :   0.9738 B(  2-C ,  3-C ) :   1.2487 B(  2-C ,  6-C ) :   1.0130
B(  3-C ,  4-C ) :   1.5537 B(  3-C ,  5-H ) :   1.0014 B(  4-C , 20-C ) :   1.0508
B(  6-C ,  7-H ) :   0.9372 B(  6-C ,  8-H ) :   0.9462 B(  6-C ,  9-C ) :   1.0488
B(  9-C , 10-H ) :   0.9557 B(  9-C , 11-H ) :   0.9511 B(  9-C , 12-C ) :   1.0829
B( 12-C , 13-H ) :   0.9752 B( 12-C , 14-H ) :   0.9738 B( 12-C , 15-H ) :   0.9755
B( 16-S , 17-C ) :   1.1091 B( 16-S , 20-C ) :   1.1238 B( 17-C , 18-C ) :   1.6814
B( 17-C , 33-H ) :   0.9584 B( 18-C , 19-C ) :   1.1943 B( 18-C , 21-H ) :   0.9776
B( 19-C , 20-C ) :   1.6131 B( 19-C , 22-C ) :   1.0292 B( 22-C , 23-H ) :   0.9532
B( 22-C , 24-H ) :   0.9391 B( 22-C , 25-C ) :   1.0638 B( 25-C , 26-H ) :   0.9509
B( 25-C , 27-H ) :   0.9523 B( 25-C , 28-C ) :   1.0827 B( 28-C , 29-H ) :   0.9725
B( 28-C , 30-H ) :   0.9733 B( 28-C , 31-H ) :   0.9709

Dispersion correction           -0.013785213
FINAL SINGLE POINT ENERGY     -1339.847503340683

DIPOLE MOMENT
-------------
                                X             Y             Z
Electronic contribution:     17.12296     -19.57368     -13.82491
Nuclear contribution   :    -17.65718      20.08302      14.04064
                        -----------------------------------------
Total Dipole Moment    :     -0.53423       0.50934       0.21573
                        -----------------------------------------
Magnitude (a.u.)       :      0.76900
Magnitude (Debye)      :      1.95465

Rotational constants in cm-1:     0.018800     0.007957     0.006034
Rotational constants in MHz :   563.613682   238.554143   180.902145

                             ****ORCA TERMINATED NORMALLY****
TOTAL RUN TIME: 0 days 0 hours 0 minutes 22 seconds 235 msec
