                         Program Version 4.2.1 -  RELEASE  -
|  1> ! wB97X-D3 SP def2-SVP
|  2> %pal
|  3> nprocs 24
|  4> end
|  5>
|  6> * xyz 0 1
|  7> S 	 -134.177 	 24.913 	 -17.5373
|  8> C 	 -133.336 	 25.9407 	 -16.4012
|  9> C 	 -132.006 	 25.5353 	 -16.2017
| 10> C 	 -131.595 	 24.6085 	 -17.1855
| 11> C 	 -132.653 	 24.2138 	 -18.0443
| 12> H 	 -130.588 	 24.2449 	 -17.2279
| 13> C 	 -131.111 	 25.8887 	 -15.0394
| 14> H 	 -130.92 	 26.9359 	 -15.0894
| 15> H 	 -130.116 	 25.4093 	 -15.1505
| 16> C 	 -131.735 	 25.3669 	 -13.7117
| 17> H 	 -132.538 	 25.957 	 -13.3942
| 18> H 	 -132.221 	 24.4054 	 -13.9273
| 19> C 	 -130.761 	 25.2242 	 -12.5391
| 20> H 	 -129.961 	 24.5391 	 -12.7747
| 21> H 	 -130.258 	 26.1293 	 -12.2883
| 22> H 	 -131.327 	 24.8452 	 -11.6628
| 23> S 	 -133.406 	 23.8111 	 -20.6365
| 24> C 	 -132.941 	 22.3841 	 -21.5312
| 25> C 	 -132.095 	 21.6132 	 -20.7582
| 26> C 	 -131.889 	 22.1217 	 -19.3986
| 27> C 	 -132.542 	 23.3326 	 -19.1903
| 28> H 	 -131.635 	 20.732 	 -21.112
| 29> C 	 -131.004 	 21.3956 	 -18.3594
| 30> H 	 -131.261 	 20.3132 	 -18.5317
| 31> H 	 -131.256 	 21.6024 	 -17.3874
| 32> C 	 -129.517 	 21.6209 	 -18.6993
| 33> H 	 -129.296 	 22.6282 	 -18.7361
| 34> H 	 -129.387 	 21.1426 	 -19.7371
| 35> C 	 -128.637 	 21.0725 	 -17.6038
| 36> H 	 -129.001 	 20.0795 	 -17.4286
| 37> H 	 -128.514 	 21.7362 	 -16.7419
| 38> H 	 -127.535 	 20.9358 	 -17.9102
| 39> H 	 -133.934 	 26.462 	 -15.6815
| 40> H 	 -133.207 	 22.2074 	 -22.5523
| 41> *
| 42>
| 43>                          ****END OF INPUT****

CARTESIAN COORDINATES (ANGSTROEM)
---------------------------------
  S    -134.177000   24.913000  -17.537300
  C    -133.336000   25.940700  -16.401200
  C    -132.006000   25.535300  -16.201700
  C    -131.595000   24.608500  -17.185500
  C    -132.653000   24.213800  -18.044300
  H    -130.588000   24.244900  -17.227900
  C    -131.111000   25.888700  -15.039400
  H    -130.920000   26.935900  -15.089400
  H    -130.116000   25.409300  -15.150500
  C    -131.735000   25.366900  -13.711700
  H    -132.538000   25.957000  -13.394200
  H    -132.221000   24.405400  -13.927300
  C    -130.761000   25.224200  -12.539100
  H    -129.961000   24.539100  -12.774700
  H    -130.258000   26.129300  -12.288300
  H    -131.327000   24.845200  -11.662800
  S    -133.406000   23.811100  -20.636500
  C    -132.941000   22.384100  -21.531200
  C    -132.095000   21.613200  -20.758200
  C    -131.889000   22.121700  -19.398600
  C    -132.542000   23.332600  -19.190300
  H    -131.635000   20.732000  -21.112000
  C    -131.004000   21.395600  -18.359400
  H    -131.261000   20.313200  -18.531700
  H    -131.256000   21.602400  -17.387400
  C    -129.517000   21.620900  -18.699300
  H    -129.296000   22.628200  -18.736100
  H    -129.387000   21.142600  -19.737100
  C    -128.637000   21.072500  -17.603800
  H    -129.001000   20.079500  -17.428600
  H    -128.514000   21.736200  -16.741900
  H    -127.535000   20.935800  -17.910200
  H    -133.934000   26.462000  -15.681500
  H    -133.207000   22.207400  -22.552300

 Total Charge           Charge          ....    0
 Multiplicity           Mult            ....    1
 Number of Electrons    NEL             ....  134
 Basis Dimension        Dim             ....  322

ORBITAL ENERGIES
----------------

  NO   OCC          E(Eh)            E(eV)
   0   2.0000     -88.970306     -2421.0051
   1   2.0000     -88.960789     -2420.7461
   2   2.0000     -10.333392      -281.1859
   3   2.0000     -10.324757      -280.9509
   4   2.0000     -10.317601      -280.7562
   5   2.0000     -10.311918      -280.6016
   6   2.0000     -10.306180      -280.4454
   7   2.0000     -10.302360      -280.3415
   8   2.0000     -10.295360      -280.1510
   9   2.0000     -10.294887      -280.1381
  10   2.0000     -10.294305      -280.1223
  11   2.0000     -10.291199      -280.0378
  12   2.0000     -10.286452      -279.9086
  13   2.0000     -10.284964      -279.8681
  14   2.0000     -10.282489      -279.8008
  15   2.0000     -10.277718      -279.6709
  16   2.0000      -8.084766      -219.9977
  17   2.0000      -8.075784      -219.7532
  18   2.0000      -6.043156      -164.4426
  19   2.0000      -6.039345      -164.3389
  20   2.0000      -6.035647      -164.2383
  21   2.0000      -6.034388      -164.2040
  22   2.0000      -6.030117      -164.0878
  23   2.0000      -6.026554      -163.9909
  24   2.0000      -1.003981       -27.3197
  25   2.0000      -0.981039       -26.6954
  26   2.0000      -0.913463       -24.8566
  27   2.0000      -0.911698       -24.8086
  28   2.0000      -0.867848       -23.6153
  29   2.0000      -0.854598       -23.2548
  30   2.0000      -0.845479       -23.0067
  31   2.0000      -0.812028       -22.0964
  32   2.0000      -0.781740       -21.2722
  33   2.0000      -0.769617       -20.9423
  34   2.0000      -0.710661       -19.3381
  35   2.0000      -0.701147       -19.0792
  36   2.0000      -0.695961       -18.9380
  37   2.0000      -0.666532       -18.1373
  38   2.0000      -0.640540       -17.4300
  39   2.0000      -0.620280       -16.8787
  40   2.0000      -0.597674       -16.2635
  41   2.0000      -0.577080       -15.7031
  42   2.0000      -0.568644       -15.4736
  43   2.0000      -0.561875       -15.2894
  44   2.0000      -0.528920       -14.3926
  45   2.0000      -0.527062       -14.3421
  46   2.0000      -0.515465       -14.0265
  47   2.0000      -0.511690       -13.9238
  48   2.0000      -0.503988       -13.7142
  49   2.0000      -0.501604       -13.6493
  50   2.0000      -0.489806       -13.3283
  51   2.0000      -0.482468       -13.1286
  52   2.0000      -0.473686       -12.8896
  53   2.0000      -0.467450       -12.7200
  54   2.0000      -0.456177       -12.4132
  55   2.0000      -0.455216       -12.3871
  56   2.0000      -0.445635       -12.1264
  57   2.0000      -0.437665       -11.9095
  58   2.0000      -0.433685       -11.8012
  59   2.0000      -0.429401       -11.6846
  60   2.0000      -0.424654       -11.5554
  61   2.0000      -0.420193       -11.4340
  62   2.0000      -0.407009       -11.0753
  63   2.0000      -0.349460        -9.5093
  64   2.0000      -0.332311        -9.0426
  65   2.0000      -0.325627        -8.8608
  66   2.0000      -0.287011        -7.8100
  67   0.0000       0.023662         0.6439
  68   0.0000       0.073137         1.9902
  69   0.0000       0.104087         2.8323
  70   0.0000       0.122071         3.3217
  71   0.0000       0.125255         3.4084

MULLIKEN ATOMIC CHARGES
-----------------------
   0 S :    0.123043
   1 C :   -0.116960
   2 C :   -0.112722
   3 C :    0.032471
   4 C :   -0.144999
   5 H :   -0.002948
   6 C :    0.091382
   7 H :    0.034816
   8 H :    0.014625
   9 C :   -0.079861
  10 H :    0.017465
  11 H :    0.035889
  12 C :   -0.035071
  13 H :    0.024011
  14 H :    0.024069
  15 H :    0.041018
  16 S :    0.094890
  17 C :   -0.081186
  18 C :   -0.016850
  19 C :   -0.060492
  20 C :   -0.151090
  21 H :    0.002793
  22 C :    0.080473
  23 H :    0.030999
  24 H :    0.005299
  25 C :   -0.065093
  26 H :    0.016457
  27 H :    0.040911
  28 C :   -0.047963
  29 H :    0.026249
  30 H :    0.039280
  31 H :    0.035600
  32 H :    0.046747
  33 H :    0.056747
Sum of atomic charges:   -0.0000000

LOEWDIN ATOMIC CHARGES
----------------------
   0 S :    0.419661
   1 C :   -0.204991
   2 C :   -0.055412
   3 C :   -0.061104
   4 C :   -0.191377
   5 H :    0.026478
   6 C :   -0.027469
   7 H :    0.029890
   8 H :    0.030201
   9 C :   -0.036684
  10 H :    0.015096
  11 H :    0.029490
  12 C :   -0.062920
  13 H :    0.021127
  14 H :    0.020217
  15 H :    0.033589
  16 S :    0.401592
  17 C :   -0.180971
  18 C :   -0.066962
  19 C :   -0.050643
  20 C :   -0.203572
  21 H :    0.021421
  22 C :   -0.022073
  23 H :    0.036803
  24 H :    0.013125
  25 C :   -0.038024
  26 H :    0.010464
  27 H :    0.035216
  28 C :   -0.070583
  29 H :    0.021075
  30 H :    0.027062
  31 H :    0.033854
  32 H :    0.018068
  33 H :    0.028358

  Mayer bond orders larger than 0.100000
B(  0-S ,  1-C ) :   1.1465 B(  0-S ,  4-C ) :   1.1821 B(  1-C ,  2-C ) :   1.5636
B(  1-C ,  4-C ) :   0.1076 B(  1-C , 32-H ) :   0.9691 B(  2-C ,  3-C ) :   1.2957
B(  2-C ,  6-C ) :   1.0264 B(  3-C ,  4-C ) :   1.5045 B(  3-C ,  5-H ) :   0.9959
B(  4-C , 20-C ) :   1.0590 B(  6-C ,  7-H ) :   0.9302 B(  6-C ,  8-H ) :   0.9479
B(  6-C ,  9-C ) :   1.0464 B(  9-C , 10-H ) :   0.9532 B(  9-C , 11-H ) :   0.9600
B(  9-C , 12-C ) :   1.0929 B( 12-C , 13-H ) :   0.9753 B( 12-C , 14-H ) :   0.9734
B( 12-C , 15-H ) :   0.9734 B( 16-S , 17-C ) :   1.1500 B( 16-S , 20-C ) :   1.1376
B( 17-C , 18-C ) :   1.5995 B( 17-C , 33-H ) :   0.9740 B( 18-C , 19-C ) :   1.2363
B( 18-C , 21-H ) :   0.9932 B( 19-C , 20-C ) :   1.5959 B( 19-C , 22-C ) :   1.0427
B( 22-C , 23-H ) :   0.9297 B( 22-C , 24-H ) :   0.9405 B( 22-C , 25-C ) :   1.0571
B( 25-C , 26-H ) :   0.9590 B( 25-C , 27-H ) :   0.9520 B( 25-C , 28-C ) :   1.0844
B( 28-C , 29-H ) :   0.9710 B( 28-C , 30-H ) :   0.9737 B( 28-C , 31-H ) :   0.9717

Dispersion correction           -0.014172666
FINAL SINGLE POINT ENERGY     -1339.876356487165

DIPOLE MOMENT
-------------
                                X             Y             Z
Electronic contribution:    -22.37090       6.87340     -21.58218
Nuclear contribution   :     22.89589      -7.17455      22.03581
                        -----------------------------------------
Total Dipole Moment    :      0.52499      -0.30115       0.45363
                        -----------------------------------------
Magnitude (a.u.)       :      0.75637
Magnitude (Debye)      :      1.92253

Rotational constants in cm-1:     0.018258     0.008975     0.006320
Rotational constants in MHz :   547.348328   269.067080   189.469577

                             ****ORCA TERMINATED NORMALLY****
TOTAL RUN TIME: 0 days 0 hours 0 minutes 21 seconds 513 msec
