                         Program Version 4.2.1 -  RELEASE  -
|  1> ! wB97X-D3 SP def2-SVP
|  2> %pal
|  3> nprocs 24
|  4> end
|  5>
|  6> * xyz 0 1
|  7> S 	 -123.642 	 58.2084 	 -30.7044
|  8> C 	 -122.07 	 57.8238 	 -30.1177
|  9> C 	 -121.158 	 57.5525 	 -31.1364
| 10> C 	 -121.819 	 57.7444 	 -32.391
| 11> C 	 -123.113 	 58.1182 	 -32.3516
| 12> H 	 -121.391 	 57.6743 	 -33.4263
| 13> C 	 -119.773 	 56.9763 	 -30.9941
| 14> H 	 -119.508 	 56.7729 	 -30.0001
| 15> H 	 -119.139 	 57.7413 	 -31.4156
| 16> C 	 -119.704 	 55.5519 	 -31.5742
| 17> H 	 -120.034 	 55.667 	 -32.6223
| 18> H 	 -118.62 	 55.3892 	 -31.6342
| 19> C 	 -120.453 	 54.4412 	 -30.7437
| 20> H 	 -120.108 	 53.4223 	 -31.1218
| 21> H 	 -120.278 	 54.3945 	 -29.704
| 22> H 	 -121.494 	 54.2153 	 -30.9506
| 23> S 	 -125.355 	 57.3228 	 -33.427
| 24> C 	 -126.009 	 57.9489 	 -34.9824
| 25> C 	 -125.036 	 58.8307 	 -35.5534
| 26> C 	 -123.931 	 59.06 	 -34.6573
| 27> C 	 -123.991 	 58.4084 	 -33.4361
| 28> H 	 -125.291 	 59.3663 	 -36.466
| 29> C 	 -122.835 	 59.965 	 -35.0844
| 30> H 	 -122.464 	 59.4956 	 -36.048
| 31> H 	 -122.05 	 59.9294 	 -34.3388
| 32> C 	 -123.174 	 61.4635 	 -35.3124
| 33> H 	 -123.723 	 61.839 	 -34.3206
| 34> H 	 -123.884 	 61.4593 	 -36.1775
| 35> C 	 -122.025 	 62.2512 	 -35.9742
| 36> H 	 -122.186 	 63.3378 	 -35.9918
| 37> H 	 -121.723 	 61.9084 	 -36.9639
| 38> H 	 -121.166 	 62.181 	 -35.324
| 39> H 	 -121.906 	 57.6786 	 -29.0856
| 40> H 	 -126.813 	 57.6518 	 -35.5765
| 41> *
| 42>
| 43>                          ****END OF INPUT****

CARTESIAN COORDINATES (ANGSTROEM)
---------------------------------
  S    -123.642000   58.208400  -30.704400
  C    -122.070000   57.823800  -30.117700
  C    -121.158000   57.552500  -31.136400
  C    -121.819000   57.744400  -32.391000
  C    -123.113000   58.118200  -32.351600
  H    -121.391000   57.674300  -33.426300
  C    -119.773000   56.976300  -30.994100
  H    -119.508000   56.772900  -30.000100
  H    -119.139000   57.741300  -31.415600
  C    -119.704000   55.551900  -31.574200
  H    -120.034000   55.667000  -32.622300
  H    -118.620000   55.389200  -31.634200
  C    -120.453000   54.441200  -30.743700
  H    -120.108000   53.422300  -31.121800
  H    -120.278000   54.394500  -29.704000
  H    -121.494000   54.215300  -30.950600
  S    -125.355000   57.322800  -33.427000
  C    -126.009000   57.948900  -34.982400
  C    -125.036000   58.830700  -35.553400
  C    -123.931000   59.060000  -34.657300
  C    -123.991000   58.408400  -33.436100
  H    -125.291000   59.366300  -36.466000
  C    -122.835000   59.965000  -35.084400
  H    -122.464000   59.495600  -36.048000
  H    -122.050000   59.929400  -34.338800
  C    -123.174000   61.463500  -35.312400
  H    -123.723000   61.839000  -34.320600
  H    -123.884000   61.459300  -36.177500
  C    -122.025000   62.251200  -35.974200
  H    -122.186000   63.337800  -35.991800
  H    -121.723000   61.908400  -36.963900
  H    -121.166000   62.181000  -35.324000
  H    -121.906000   57.678600  -29.085600
  H    -126.813000   57.651800  -35.576500

 Total Charge           Charge          ....    0
 Multiplicity           Mult            ....    1
 Number of Electrons    NEL             ....  134
 Basis Dimension        Dim             ....  322

ORBITAL ENERGIES
----------------

  NO   OCC          E(Eh)            E(eV)
   0   2.0000     -88.964003     -2420.8336
   1   2.0000     -88.962272     -2420.7865
   2   2.0000     -10.324462      -280.9429
   3   2.0000     -10.321919      -280.8737
   4   2.0000     -10.321176      -280.8535
   5   2.0000     -10.309408      -280.5333
   6   2.0000     -10.303974      -280.3854
   7   2.0000     -10.301103      -280.3073
   8   2.0000     -10.300799      -280.2990
   9   2.0000     -10.299973      -280.2765
  10   2.0000     -10.296463      -280.1810
  11   2.0000     -10.292585      -280.0755
  12   2.0000     -10.290710      -280.0245
  13   2.0000     -10.287144      -279.9274
  14   2.0000     -10.284632      -279.8591
  15   2.0000     -10.281129      -279.7637
  16   2.0000      -8.078111      -219.8166
  17   2.0000      -8.077996      -219.8134
  18   2.0000      -6.036723      -164.2676
  19   2.0000      -6.036532      -164.2624
  20   2.0000      -6.032442      -164.1511
  21   2.0000      -6.032374      -164.1492
  22   2.0000      -6.028915      -164.0551
  23   2.0000      -6.028763      -164.0510
  24   2.0000      -1.012541       -27.5526
  25   2.0000      -0.981575       -26.7100
  26   2.0000      -0.914476       -24.8842
  27   2.0000      -0.904510       -24.6130
  28   2.0000      -0.871669       -23.7193
  29   2.0000      -0.849561       -23.1177
  30   2.0000      -0.841965       -22.9110
  31   2.0000      -0.815766       -22.1981
  32   2.0000      -0.785825       -21.3834
  33   2.0000      -0.769659       -20.9435
  34   2.0000      -0.712675       -19.3929
  35   2.0000      -0.698040       -18.9946
  36   2.0000      -0.692758       -18.8509
  37   2.0000      -0.662844       -18.0369
  38   2.0000      -0.649183       -17.6652
  39   2.0000      -0.622639       -16.9429
  40   2.0000      -0.587867       -15.9967
  41   2.0000      -0.567567       -15.4443
  42   2.0000      -0.563415       -15.3313
  43   2.0000      -0.558821       -15.2063
  44   2.0000      -0.535358       -14.5678
  45   2.0000      -0.525010       -14.2862
  46   2.0000      -0.516695       -14.0600
  47   2.0000      -0.509693       -13.8694
  48   2.0000      -0.503655       -13.7051
  49   2.0000      -0.501443       -13.6450
  50   2.0000      -0.489541       -13.3211
  51   2.0000      -0.483826       -13.1656
  52   2.0000      -0.473110       -12.8740
  53   2.0000      -0.464554       -12.6412
  54   2.0000      -0.457969       -12.4620
  55   2.0000      -0.448684       -12.2093
  56   2.0000      -0.442128       -12.0309
  57   2.0000      -0.435300       -11.8451
  58   2.0000      -0.428296       -11.6545
  59   2.0000      -0.424877       -11.5615
  60   2.0000      -0.417674       -11.3655
  61   2.0000      -0.406669       -11.0660
  62   2.0000      -0.404258       -11.0004
  63   2.0000      -0.347966        -9.4686
  64   2.0000      -0.329200        -8.9580
  65   2.0000      -0.324834        -8.8392
  66   2.0000      -0.293196        -7.9783
  67   0.0000       0.032171         0.8754
  68   0.0000       0.068734         1.8703
  69   0.0000       0.106259         2.8914
  70   0.0000       0.125531         3.4159
  71   0.0000       0.130886         3.5616

MULLIKEN ATOMIC CHARGES
-----------------------
   0 S :    0.115948
   1 C :   -0.105449
   2 C :   -0.093141
   3 C :    0.005663
   4 C :   -0.170848
   5 H :    0.027726
   6 C :    0.104099
   7 H :   -0.000729
   8 H :    0.039014
   9 C :   -0.080593
  10 H :    0.033705
  11 H :    0.035391
  12 C :   -0.047646
  13 H :    0.025456
  14 H :    0.030360
  15 H :    0.042686
  16 S :    0.087426
  17 C :   -0.063641
  18 C :   -0.059812
  19 C :   -0.040965
  20 C :   -0.112405
  21 H :    0.034011
  22 C :    0.033035
  23 H :    0.035656
  24 H :    0.013968
  25 C :   -0.115987
  26 H :    0.068069
  27 H :    0.028583
  28 C :   -0.034702
  29 H :    0.039595
  30 H :    0.036461
  31 H :    0.017157
  32 H :    0.032623
  33 H :    0.039283
Sum of atomic charges:   -0.0000000

LOEWDIN ATOMIC CHARGES
----------------------
   0 S :    0.420732
   1 C :   -0.194411
   2 C :   -0.061864
   3 C :   -0.069468
   4 C :   -0.214920
   5 H :    0.038187
   6 C :   -0.028813
   7 H :    0.020781
   8 H :    0.034485
   9 C :   -0.034131
  10 H :    0.025539
  11 H :    0.027120
  12 C :   -0.074146
  13 H :    0.038823
  14 H :    0.019486
  15 H :    0.032748
  16 S :    0.398563
  17 C :   -0.166601
  18 C :   -0.065922
  19 C :   -0.062574
  20 C :   -0.198425
  21 H :    0.033590
  22 C :   -0.042009
  23 H :    0.038131
  24 H :    0.021564
  25 C :   -0.052729
  26 H :    0.045780
  27 H :    0.023090
  28 C :   -0.068666
  29 H :    0.031624
  30 H :    0.028027
  31 H :    0.019469
  32 H :    0.017262
  33 H :    0.019678

  Mayer bond orders larger than 0.100000
B(  0-S ,  1-C ) :   1.1542 B(  0-S ,  4-C ) :   1.1442 B(  1-C ,  2-C ) :   1.5982
B(  1-C , 32-H ) :   0.9748 B(  2-C ,  3-C ) :   1.2250 B(  2-C ,  6-C ) :   1.0253
B(  3-C ,  4-C ) :   1.6151 B(  3-C ,  5-H ) :   0.9805 B(  4-C , 20-C ) :   1.0054
B(  6-C ,  7-H ) :   0.9404 B(  6-C ,  8-H ) :   0.9349 B(  6-C ,  9-C ) :   1.0689
B(  9-C , 10-H ) :   0.9586 B(  9-C , 11-H ) :   0.9604 B(  9-C , 12-C ) :   1.0557
B( 12-C , 13-H ) :   0.9698 B( 12-C , 14-H ) :   0.9783 B( 12-C , 15-H ) :   0.9753
B( 16-S , 17-C ) :   1.1503 B( 16-S , 20-C ) :   1.1326 B( 17-C , 18-C ) :   1.6105
B( 17-C , 20-C ) :   0.1066 B( 17-C , 33-H ) :   0.9728 B( 18-C , 19-C ) :   1.2289
B( 18-C , 21-H ) :   0.9843 B( 19-C , 20-C ) :   1.6065 B( 19-C , 22-C ) :   1.0570
B( 22-C , 23-H ) :   0.9306 B( 22-C , 24-H ) :   0.9350 B( 22-C , 25-C ) :   1.0563
B( 25-C , 26-H ) :   0.9527 B( 25-C , 27-H ) :   0.9568 B( 25-C , 28-C ) :   1.0658
B( 28-C , 29-H ) :   0.9734 B( 28-C , 30-H ) :   0.9737 B( 28-C , 31-H ) :   0.9753

Dispersion correction           -0.013974901
FINAL SINGLE POINT ENERGY     -1339.849319764942

DIPOLE MOMENT
-------------
                                X             Y             Z
Electronic contribution:    -19.73261      -3.07217       8.10573
Nuclear contribution   :     20.30992       3.01562      -8.45534
                        -----------------------------------------
Total Dipole Moment    :      0.57730      -0.05655      -0.34961
                        -----------------------------------------
Magnitude (a.u.)       :      0.67727
Magnitude (Debye)      :      1.72149

Rotational constants in cm-1:     0.018676     0.008241     0.006919
Rotational constants in MHz :   559.901157   247.047267   207.439304

                             ****ORCA TERMINATED NORMALLY****
TOTAL RUN TIME: 0 days 0 hours 0 minutes 21 seconds 288 msec
