                         Program Version 4.2.1 -  RELEASE  -
|  1> ! wB97X-D3 SP def2-SVP
|  2> %pal
|  3> nprocs 24
|  4> end
|  5>
|  6> * xyz 0 1
|  7> S 	 -51.9546 	 27.4644 	 26.7098
|  8> C 	 -50.9123 	 27.7017 	 25.3124
|  9> C 	 -49.599 	 27.753 	 25.6519
| 10> C 	 -49.3443 	 27.4483 	 26.9881
| 11> C 	 -50.4969 	 27.4367 	 27.7304
| 12> H 	 -48.2979 	 27.3278 	 27.3411
| 13> C 	 -48.5288 	 27.9184 	 24.6397
| 14> H 	 -47.6846 	 28.4062 	 25.0095
| 15> H 	 -48.9026 	 28.5488 	 23.7898
| 16> C 	 -47.9484 	 26.5895 	 24.1251
| 17> H 	 -47.7845 	 25.8281 	 24.9219
| 18> H 	 -48.6929 	 26.0248 	 23.5185
| 19> C 	 -46.5717 	 26.6922 	 23.5004
| 20> H 	 -46.5723 	 27.4885 	 22.7328
| 21> H 	 -45.7911 	 26.8896 	 24.3037
| 22> H 	 -46.3237 	 25.8068 	 22.9477
| 23> S 	 -51.0059 	 25.5752 	 29.6764
| 24> C 	 -50.7629 	 26.0433 	 31.3949
| 25> C 	 -50.4703 	 27.3653 	 31.5306
| 26> C 	 -50.3469 	 28.0744 	 30.2696
| 27> C 	 -50.5528 	 27.2245 	 29.1405
| 28> H 	 -50.2804 	 27.749 	 32.538
| 29> C 	 -49.9269 	 29.5438 	 30.1429
| 30> H 	 -50.7101 	 30.1632 	 30.3605
| 31> H 	 -49.9968 	 29.7722 	 29.0902
| 32> C 	 -48.6087 	 29.8563 	 30.8211
| 33> H 	 -48.5789 	 29.6968 	 31.9074
| 34> H 	 -48.4593 	 30.9073 	 30.696
| 35> C 	 -47.3779 	 29.1063 	 30.3189
| 36> H 	 -47.341 	 29.2984 	 29.2785
| 37> H 	 -47.3627 	 28.0173 	 30.4674
| 38> H 	 -46.4438 	 29.4868 	 30.6653
| 39> H 	 -51.3553 	 27.9892 	 24.394
| 40> H 	 -50.8018 	 25.3899 	 32.2624
| 41> *
| 42>
| 43>                          ****END OF INPUT****

CARTESIAN COORDINATES (ANGSTROEM)
---------------------------------
  S    -51.954600   27.464400   26.709800
  C    -50.912300   27.701700   25.312400
  C    -49.599000   27.753000   25.651900
  C    -49.344300   27.448300   26.988100
  C    -50.496900   27.436700   27.730400
  H    -48.297900   27.327800   27.341100
  C    -48.528800   27.918400   24.639700
  H    -47.684600   28.406200   25.009500
  H    -48.902600   28.548800   23.789800
  C    -47.948400   26.589500   24.125100
  H    -47.784500   25.828100   24.921900
  H    -48.692900   26.024800   23.518500
  C    -46.571700   26.692200   23.500400
  H    -46.572300   27.488500   22.732800
  H    -45.791100   26.889600   24.303700
  H    -46.323700   25.806800   22.947700
  S    -51.005900   25.575200   29.676400
  C    -50.762900   26.043300   31.394900
  C    -50.470300   27.365300   31.530600
  C    -50.346900   28.074400   30.269600
  C    -50.552800   27.224500   29.140500
  H    -50.280400   27.749000   32.538000
  C    -49.926900   29.543800   30.142900
  H    -50.710100   30.163200   30.360500
  H    -49.996800   29.772200   29.090200
  C    -48.608700   29.856300   30.821100
  H    -48.578900   29.696800   31.907400
  H    -48.459300   30.907300   30.696000
  C    -47.377900   29.106300   30.318900
  H    -47.341000   29.298400   29.278500
  H    -47.362700   28.017300   30.467400
  H    -46.443800   29.486800   30.665300
  H    -51.355300   27.989200   24.394000
  H    -50.801800   25.389900   32.262400

 Total Charge           Charge          ....    0
 Multiplicity           Mult            ....    1
 Number of Electrons    NEL             ....  134
 Basis Dimension        Dim             ....  322

ORBITAL ENERGIES
----------------

  NO   OCC          E(Eh)            E(eV)
   0   2.0000     -88.965435     -2420.8726
   1   2.0000     -88.961182     -2420.7568
   2   2.0000     -10.327833      -281.0346
   3   2.0000     -10.326673      -281.0031
   4   2.0000     -10.317754      -280.7604
   5   2.0000     -10.309674      -280.5405
   6   2.0000     -10.308853      -280.5182
   7   2.0000     -10.294639      -280.1314
   8   2.0000     -10.294149      -280.1180
   9   2.0000     -10.292240      -280.0661
  10   2.0000     -10.288519      -279.9648
  11   2.0000     -10.287688      -279.9422
  12   2.0000     -10.284937      -279.8674
  13   2.0000     -10.283017      -279.8151
  14   2.0000     -10.282566      -279.8029
  15   2.0000     -10.268675      -279.4248
  16   2.0000      -8.079935      -219.8662
  17   2.0000      -8.074685      -219.7233
  18   2.0000      -6.038423      -164.3138
  19   2.0000      -6.034613      -164.2102
  20   2.0000      -6.033382      -164.1767
  21   2.0000      -6.030591      -164.1007
  22   2.0000      -6.029402      -164.0684
  23   2.0000      -6.025278      -163.9562
  24   2.0000      -1.005009       -27.3477
  25   2.0000      -0.975466       -26.5438
  26   2.0000      -0.914768       -24.8921
  27   2.0000      -0.908709       -24.7272
  28   2.0000      -0.871834       -23.7238
  29   2.0000      -0.852643       -23.2016
  30   2.0000      -0.841173       -22.8895
  31   2.0000      -0.817681       -22.2502
  32   2.0000      -0.786252       -21.3950
  33   2.0000      -0.770567       -20.9682
  34   2.0000      -0.711399       -19.3582
  35   2.0000      -0.700486       -19.0612
  36   2.0000      -0.695687       -18.9306
  37   2.0000      -0.649143       -17.6641
  38   2.0000      -0.645138       -17.5551
  39   2.0000      -0.625116       -17.0103
  40   2.0000      -0.598320       -16.2811
  41   2.0000      -0.572709       -15.5842
  42   2.0000      -0.555901       -15.1268
  43   2.0000      -0.553219       -15.0539
  44   2.0000      -0.540028       -14.6949
  45   2.0000      -0.525910       -14.3107
  46   2.0000      -0.518115       -14.0986
  47   2.0000      -0.513451       -13.9717
  48   2.0000      -0.505299       -13.7499
  49   2.0000      -0.494826       -13.4649
  50   2.0000      -0.489291       -13.3143
  51   2.0000      -0.474013       -12.8986
  52   2.0000      -0.469768       -12.7830
  53   2.0000      -0.463788       -12.6203
  54   2.0000      -0.457946       -12.4613
  55   2.0000      -0.452520       -12.3137
  56   2.0000      -0.446268       -12.1436
  57   2.0000      -0.439419       -11.9572
  58   2.0000      -0.434418       -11.8211
  59   2.0000      -0.428982       -11.6732
  60   2.0000      -0.413502       -11.2520
  61   2.0000      -0.409871       -11.1531
  62   2.0000      -0.408231       -11.1085
  63   2.0000      -0.339796        -9.2463
  64   2.0000      -0.328661        -8.9433
  65   2.0000      -0.322079        -8.7642
  66   2.0000      -0.301091        -8.1931
  67   0.0000       0.039776         1.0824
  68   0.0000       0.051949         1.4136
  69   0.0000       0.113204         3.0804
  70   0.0000       0.121126         3.2960
  71   0.0000       0.129011         3.5106

MULLIKEN ATOMIC CHARGES
-----------------------
   0 S :    0.108173
   1 C :   -0.120488
   2 C :   -0.068155
   3 C :    0.035653
   4 C :   -0.169798
   5 H :    0.033101
   6 C :    0.111913
   7 H :   -0.006245
   8 H :    0.031415
   9 C :   -0.111622
  10 H :    0.027318
  11 H :    0.026359
  12 C :   -0.050931
  13 H :    0.027586
  14 H :    0.047782
  15 H :    0.032796
  16 S :    0.090863
  17 C :   -0.088725
  18 C :   -0.041720
  19 C :   -0.042591
  20 C :   -0.182932
  21 H :    0.026648
  22 C :    0.153304
  23 H :    0.002280
  24 H :    0.005618
  25 C :   -0.068910
  26 H :    0.031048
  27 H :    0.022162
  28 C :   -0.028480
  29 H :    0.007889
  30 H :    0.044830
  31 H :    0.019444
  32 H :    0.038548
  33 H :    0.055867
Sum of atomic charges:   -0.0000000

LOEWDIN ATOMIC CHARGES
----------------------
   0 S :    0.388459
   1 C :   -0.180861
   2 C :   -0.068793
   3 C :   -0.048622
   4 C :   -0.192328
   5 H :    0.043018
   6 C :   -0.028622
   7 H :    0.018915
   8 H :    0.037579
   9 C :   -0.050936
  10 H :    0.027410
  11 H :    0.024553
  12 C :   -0.069436
  13 H :    0.022833
  14 H :    0.033263
  15 H :    0.025934
  16 S :    0.364070
  17 C :   -0.168904
  18 C :   -0.076990
  19 C :   -0.041377
  20 C :   -0.192928
  21 H :    0.035730
  22 C :   -0.031370
  23 H :    0.025124
  24 H :    0.035708
  25 C :   -0.037617
  26 H :    0.024299
  27 H :    0.024578
  28 C :   -0.062411
  29 H :    0.017406
  30 H :    0.029131
  31 H :    0.022813
  32 H :    0.018677
  33 H :    0.031695

  Mayer bond orders larger than 0.100000
B(  0-S ,  1-C ) :   1.1288 B(  0-S ,  4-C ) :   1.1443 B(  1-C ,  2-C ) :   1.6140
B(  1-C , 32-H ) :   0.9703 B(  2-C ,  3-C ) :   1.2429 B(  2-C ,  6-C ) :   1.0497
B(  3-C ,  4-C ) :   1.5780 B(  3-C ,  5-H ) :   0.9872 B(  4-C , 20-C ) :   1.0454
B(  6-C ,  7-H ) :   0.9307 B(  6-C ,  8-H ) :   0.9322 B(  6-C ,  9-C ) :   1.0479
B(  9-C , 10-H ) :   0.9587 B(  9-C , 11-H ) :   0.9529 B(  9-C , 12-C ) :   1.0793
B( 12-C , 13-H ) :   0.9743 B( 12-C , 14-H ) :   0.9731 B( 12-C , 15-H ) :   0.9714
B( 16-S , 17-C ) :   1.1276 B( 16-S , 20-C ) :   1.1272 B( 17-C , 18-C ) :   1.6630
B( 17-C , 33-H ) :   0.9629 B( 18-C , 19-C ) :   1.2010 B( 18-C , 21-H ) :   0.9854
B( 19-C , 20-C ) :   1.6068 B( 19-C , 22-C ) :   1.0408 B( 22-C , 23-H ) :   0.9186
B( 22-C , 24-H ) :   0.9170 B( 22-C , 25-C ) :   1.0664 B( 25-C , 26-H ) :   0.9588
B( 25-C , 27-H ) :   0.9513 B( 25-C , 28-C ) :   1.0778 B( 28-C , 29-H ) :   0.9722
B( 28-C , 30-H ) :   0.9738 B( 28-C , 31-H ) :   0.9705

Dispersion correction           -0.014809884
FINAL SINGLE POINT ENERGY     -1339.869080007719

DIPOLE MOMENT
-------------
                                X             Y             Z
Electronic contribution:    -23.89980      -9.37716       7.21033
Nuclear contribution   :     24.47313       9.77278      -7.26125
                        -----------------------------------------
Total Dipole Moment    :      0.57333       0.39563      -0.05092
                        -----------------------------------------
Magnitude (a.u.)       :      0.69844
Magnitude (Debye)      :      1.77530

Rotational constants in cm-1:     0.018959     0.008335     0.007102
Rotational constants in MHz :   568.374181   249.887141   212.916874

                             ****ORCA TERMINATED NORMALLY****
TOTAL RUN TIME: 0 days 0 hours 0 minutes 21 seconds 886 msec
