                         Program Version 4.2.1 -  RELEASE  -
|  1> ! wB97X-D3 SP def2-SVP
|  2> %pal
|  3> nprocs 24
|  4> end
|  5>
|  6> * xyz 0 1
|  7> S 	 46.112 	 -19.6767 	 -116.244
|  8> C 	 47.8213 	 -20.0327 	 -116.067
|  9> C 	 48.2012 	 -20.0726 	 -114.76
| 10> C 	 47.0603 	 -20.0379 	 -113.914
| 11> C 	 45.8328 	 -19.811 	 -114.555
| 12> H 	 47.1822 	 -20.186 	 -112.889
| 13> C 	 49.6214 	 -20.2984 	 -114.294
| 14> H 	 49.8517 	 -19.7475 	 -113.435
| 15> H 	 50.2691 	 -19.878 	 -115.015
| 16> C 	 49.941 	 -21.7597 	 -114.101
| 17> H 	 49.6666 	 -22.3276 	 -115.035
| 18> H 	 51.0458 	 -21.857 	 -114.047
| 19> C 	 49.3972 	 -22.321 	 -112.762
| 20> H 	 49.8038 	 -21.6661 	 -111.985
| 21> H 	 48.2621 	 -22.4114 	 -112.813
| 22> H 	 49.7865 	 -23.3007 	 -112.586
| 23> S 	 43.5259 	 -18.2784 	 -114.676
| 24> C 	 42.3667 	 -18.394 	 -113.351
| 25> C 	 42.7426 	 -19.295 	 -112.399
| 26> C 	 44.0244 	 -19.9003 	 -112.644
| 27> C 	 44.5445 	 -19.5004 	 -113.874
| 28> H 	 42.088 	 -19.3676 	 -111.535
| 29> C 	 44.6696 	 -20.8584 	 -111.703
| 30> H 	 45.603 	 -20.4118 	 -111.289
| 31> H 	 45.1057 	 -21.6328 	 -112.275
| 32> C 	 43.7273 	 -21.4113 	 -110.534
| 33> H 	 42.8024 	 -21.821 	 -111.029
| 34> H 	 43.4921 	 -20.5962 	 -109.884
| 35> C 	 44.4212 	 -22.4138 	 -109.624
| 36> H 	 45.2667 	 -21.9917 	 -109.095
| 37> H 	 44.9706 	 -23.3431 	 -110.034
| 38> H 	 43.7812 	 -22.8363 	 -108.919
| 39> H 	 48.4387 	 -19.8738 	 -116.901
| 40> H 	 41.4534 	 -17.884 	 -113.289
| 41> *
| 42>
| 43>                          ****END OF INPUT****

CARTESIAN COORDINATES (ANGSTROEM)
---------------------------------
  S     46.112000  -19.676700  -116.244000
  C     47.821300  -20.032700  -116.067000
  C     48.201200  -20.072600  -114.760000
  C     47.060300  -20.037900  -113.914000
  C     45.832800  -19.811000  -114.555000
  H     47.182200  -20.186000  -112.889000
  C     49.621400  -20.298400  -114.294000
  H     49.851700  -19.747500  -113.435000
  H     50.269100  -19.878000  -115.015000
  C     49.941000  -21.759700  -114.101000
  H     49.666600  -22.327600  -115.035000
  H     51.045800  -21.857000  -114.047000
  C     49.397200  -22.321000  -112.762000
  H     49.803800  -21.666100  -111.985000
  H     48.262100  -22.411400  -112.813000
  H     49.786500  -23.300700  -112.586000
  S     43.525900  -18.278400  -114.676000
  C     42.366700  -18.394000  -113.351000
  C     42.742600  -19.295000  -112.399000
  C     44.024400  -19.900300  -112.644000
  C     44.544500  -19.500400  -113.874000
  H     42.088000  -19.367600  -111.535000
  C     44.669600  -20.858400  -111.703000
  H     45.603000  -20.411800  -111.289000
  H     45.105700  -21.632800  -112.275000
  C     43.727300  -21.411300  -110.534000
  H     42.802400  -21.821000  -111.029000
  H     43.492100  -20.596200  -109.884000
  C     44.421200  -22.413800  -109.624000
  H     45.266700  -21.991700  -109.095000
  H     44.970600  -23.343100  -110.034000
  H     43.781200  -22.836300  -108.919000
  H     48.438700  -19.873800  -116.901000
  H     41.453400  -17.884000  -113.289000

 Total Charge           Charge          ....    0
 Multiplicity           Mult            ....    1
 Number of Electrons    NEL             ....  134
 Basis Dimension        Dim             ....  322

ORBITAL ENERGIES
----------------

  NO   OCC          E(Eh)            E(eV)
   0   2.0000     -88.965378     -2420.8710
   1   2.0000     -88.964969     -2420.8599
   2   2.0000     -10.332688      -281.1667
   3   2.0000     -10.331474      -281.1337
   4   2.0000     -10.311515      -280.5906
   5   2.0000     -10.306936      -280.4660
   6   2.0000     -10.305489      -280.4266
   7   2.0000     -10.298447      -280.2350
   8   2.0000     -10.297441      -280.2076
   9   2.0000     -10.293957      -280.1128
  10   2.0000     -10.292363      -280.0694
  11   2.0000     -10.290860      -280.0285
  12   2.0000     -10.288160      -279.9551
  13   2.0000     -10.284409      -279.8530
  14   2.0000     -10.283494      -279.8281
  15   2.0000     -10.280015      -279.7334
  16   2.0000      -8.080678      -219.8864
  17   2.0000      -8.079039      -219.8418
  18   2.0000      -6.039166      -164.3341
  19   2.0000      -6.037637      -164.2925
  20   2.0000      -6.035058      -164.2223
  21   2.0000      -6.033708      -164.1855
  22   2.0000      -6.031488      -164.1251
  23   2.0000      -6.029696      -164.0764
  24   2.0000      -1.006192       -27.3799
  25   2.0000      -0.983826       -26.7713
  26   2.0000      -0.918189       -24.9852
  27   2.0000      -0.905593       -24.6424
  28   2.0000      -0.867749       -23.6126
  29   2.0000      -0.854158       -23.2428
  30   2.0000      -0.842534       -22.9265
  31   2.0000      -0.817215       -22.2376
  32   2.0000      -0.788327       -21.4515
  33   2.0000      -0.774701       -21.0807
  34   2.0000      -0.712436       -19.3864
  35   2.0000      -0.701292       -19.0831
  36   2.0000      -0.697170       -18.9710
  37   2.0000      -0.655675       -17.8418
  38   2.0000      -0.641452       -17.4548
  39   2.0000      -0.625644       -17.0246
  40   2.0000      -0.599065       -16.3014
  41   2.0000      -0.578355       -15.7378
  42   2.0000      -0.564996       -15.3743
  43   2.0000      -0.551899       -15.0179
  44   2.0000      -0.542653       -14.7663
  45   2.0000      -0.527227       -14.3466
  46   2.0000      -0.516610       -14.0577
  47   2.0000      -0.508538       -13.8380
  48   2.0000      -0.502410       -13.6713
  49   2.0000      -0.498554       -13.5663
  50   2.0000      -0.487783       -13.2733
  51   2.0000      -0.481019       -13.0892
  52   2.0000      -0.475316       -12.9340
  53   2.0000      -0.468301       -12.7431
  54   2.0000      -0.459594       -12.5062
  55   2.0000      -0.454475       -12.3669
  56   2.0000      -0.441315       -12.0088
  57   2.0000      -0.440376       -11.9832
  58   2.0000      -0.433784       -11.8039
  59   2.0000      -0.426982       -11.6188
  60   2.0000      -0.423070       -11.5123
  61   2.0000      -0.416655       -11.3378
  62   2.0000      -0.414961       -11.2917
  63   2.0000      -0.354828        -9.6554
  64   2.0000      -0.332496        -9.0477
  65   2.0000      -0.329739        -8.9727
  66   2.0000      -0.284925        -7.7532
  67   0.0000       0.024339         0.6623
  68   0.0000       0.078737         2.1426
  69   0.0000       0.106886         2.9085
  70   0.0000       0.126532         3.4431
  71   0.0000       0.131780         3.5859

MULLIKEN ATOMIC CHARGES
-----------------------
   0 S :    0.099497
   1 C :   -0.113127
   2 C :   -0.098640
   3 C :    0.019132
   4 C :   -0.110060
   5 H :   -0.033625
   6 C :    0.133628
   7 H :    0.004069
   8 H :    0.004186
   9 C :   -0.100527
  10 H :    0.038428
  11 H :    0.027820
  12 C :   -0.051103
  13 H :    0.031598
  14 H :    0.054639
  15 H :    0.030053
  16 S :    0.092795
  17 C :   -0.058274
  18 C :   -0.055975
  19 C :   -0.036525
  20 C :   -0.127820
  21 H :    0.021957
  22 C :    0.034671
  23 H :    0.044265
  24 H :    0.020264
  25 C :   -0.063754
  26 H :    0.051915
  27 H :    0.038488
  28 C :   -0.041419
  29 H :    0.022096
  30 H :    0.029415
  31 H :    0.023568
  32 H :    0.035708
  33 H :    0.032656
Sum of atomic charges:   -0.0000000

LOEWDIN ATOMIC CHARGES
----------------------
   0 S :    0.416144
   1 C :   -0.187961
   2 C :   -0.055112
   3 C :   -0.064595
   4 C :   -0.200294
   5 H :    0.013095
   6 C :   -0.025753
   7 H :    0.022490
   8 H :    0.027653
   9 C :   -0.042349
  10 H :    0.029288
  11 H :    0.024173
  12 C :   -0.067111
  13 H :    0.026813
  14 H :    0.034015
  15 H :    0.022173
  16 S :    0.380448
  17 C :   -0.170306
  18 C :   -0.073450
  19 C :   -0.055434
  20 C :   -0.179939
  21 H :    0.034879
  22 C :   -0.035356
  23 H :    0.035685
  24 H :    0.027168
  25 C :   -0.033839
  26 H :    0.033846
  27 H :    0.025706
  28 C :   -0.073773
  29 H :    0.024596
  30 H :    0.033066
  31 H :    0.018412
  32 H :    0.015932
  33 H :    0.019688

  Mayer bond orders larger than 0.100000
B(  0-S ,  1-C ) :   1.1413 B(  0-S ,  4-C ) :   1.1697 B(  1-C ,  2-C ) :   1.5974
B(  1-C , 32-H ) :   0.9702 B(  2-C ,  3-C ) :   1.2793 B(  2-C ,  6-C ) :   1.0332
B(  3-C ,  4-C ) :   1.5105 B(  3-C ,  5-H ) :   1.0001 B(  4-C , 20-C ) :   1.0557
B(  6-C ,  7-H ) :   0.9316 B(  6-C ,  8-H ) :   0.9261 B(  6-C ,  9-C ) :   1.0778
B(  9-C , 10-H ) :   0.9531 B(  9-C , 11-H ) :   0.9542 B(  9-C , 12-C ) :   1.0769
B( 12-C , 13-H ) :   0.9725 B( 12-C , 14-H ) :   0.9704 B( 12-C , 15-H ) :   0.9728
B( 16-S , 17-C ) :   1.1371 B( 16-S , 20-C ) :   1.1275 B( 17-C , 18-C ) :   1.6455
B( 17-C , 33-H ) :   0.9644 B( 18-C , 19-C ) :   1.2183 B( 18-C , 21-H ) :   0.9862
B( 19-C , 20-C ) :   1.6137 B( 19-C , 22-C ) :   1.0453 B( 22-C , 23-H ) :   0.9174
B( 22-C , 24-H ) :   0.9284 B( 22-C , 25-C ) :   1.0709 B( 25-C , 26-H ) :   0.9567
B( 25-C , 27-H ) :   0.9444 B( 25-C , 28-C ) :   1.0813 B( 28-C , 29-H ) :   0.9715
B( 28-C , 30-H ) :   0.9741 B( 28-C , 31-H ) :   0.9734

Dispersion correction           -0.014116630
FINAL SINGLE POINT ENERGY     -1339.877196236005

DIPOLE MOMENT
-------------
                                X             Y             Z
Electronic contribution:    -13.90799      17.72351     -22.55708
Nuclear contribution   :     14.31912     -17.93050      23.22450
                        -----------------------------------------
Total Dipole Moment    :      0.41113      -0.20698       0.66742
                        -----------------------------------------
Magnitude (a.u.)       :      0.81075
Magnitude (Debye)      :      2.06076

Rotational constants in cm-1:     0.016032     0.009973     0.006398
Rotational constants in MHz :   480.641912   298.991505   191.801168

                             ****ORCA TERMINATED NORMALLY****
TOTAL RUN TIME: 0 days 0 hours 0 minutes 21 seconds 879 msec
