                         Program Version 4.2.1 -  RELEASE  -
|  1> ! wB97X-D3 SP def2-SVP
|  2> %pal
|  3> nprocs 24
|  4> end
|  5>
|  6> * xyz 0 1
|  7> S 	 -62.4436 	 -0.0257949 	 -16.8297
|  8> C 	 -62.4721 	 1.10263 	 -15.4989
|  9> C 	 -62.0872 	 2.39021 	 -15.872
| 10> C 	 -61.5865 	 2.38282 	 -17.2197
| 11> C 	 -61.5163 	 1.08383 	 -17.7339
| 12> H 	 -61.1557 	 3.13686 	 -17.7541
| 13> C 	 -61.8918 	 3.51282 	 -14.8863
| 14> H 	 -60.8644 	 3.93558 	 -14.9109
| 15> H 	 -62.0242 	 3.25118 	 -13.8373
| 16> C 	 -62.7022 	 4.73076 	 -15.0721
| 17> H 	 -63.7191 	 4.41283 	 -15.3834
| 18> H 	 -62.9744 	 5.28731 	 -14.1232
| 19> C 	 -62.2908 	 5.70514 	 -16.2057
| 20> H 	 -62.5091 	 5.19113 	 -17.2137
| 21> H 	 -62.8841 	 6.59029 	 -16.2375
| 22> H 	 -61.2347 	 6.01726 	 -16.2383
| 23> S 	 -61.9723 	 0.792209 	 -20.4283
| 24> C 	 -60.5618 	 0.632908 	 -21.4917
| 25> C 	 -59.4228 	 0.372972 	 -20.7681
| 26> C 	 -59.6873 	 0.295044 	 -19.3431
| 27> C 	 -60.941 	 0.743238 	 -19.0365
| 28> H 	 -58.4653 	 0.342943 	 -21.2529
| 29> C 	 -58.5979 	 -0.0975861 	 -18.3162
| 30> H 	 -58.9783 	 0.232746 	 -17.3226
| 31> H 	 -57.6105 	 0.341089 	 -18.5954
| 32> C 	 -58.4373 	 -1.62846 	 -18.2263
| 33> H 	 -57.8315 	 -1.93198 	 -17.3807
| 34> H 	 -57.9069 	 -1.92099 	 -19.1737
| 35> C 	 -59.7559 	 -2.36746 	 -18.0885
| 36> H 	 -60.2632 	 -1.98371 	 -18.9953
| 37> H 	 -60.2965 	 -1.92179 	 -17.2794
| 38> H 	 -59.6152 	 -3.39518 	 -17.9577
| 39> H 	 -62.8624 	 0.88011 	 -14.5583
| 40> H 	 -60.5495 	 0.921483 	 -22.5364
| 41> *
| 42>
| 43>                          ****END OF INPUT****

CARTESIAN COORDINATES (ANGSTROEM)
---------------------------------
  S    -62.443600   -0.025795  -16.829700
  C    -62.472100    1.102630  -15.498900
  C    -62.087200    2.390210  -15.872000
  C    -61.586500    2.382820  -17.219700
  C    -61.516300    1.083830  -17.733900
  H    -61.155700    3.136860  -17.754100
  C    -61.891800    3.512820  -14.886300
  H    -60.864400    3.935580  -14.910900
  H    -62.024200    3.251180  -13.837300
  C    -62.702200    4.730760  -15.072100
  H    -63.719100    4.412830  -15.383400
  H    -62.974400    5.287310  -14.123200
  C    -62.290800    5.705140  -16.205700
  H    -62.509100    5.191130  -17.213700
  H    -62.884100    6.590290  -16.237500
  H    -61.234700    6.017260  -16.238300
  S    -61.972300    0.792209  -20.428300
  C    -60.561800    0.632908  -21.491700
  C    -59.422800    0.372972  -20.768100
  C    -59.687300    0.295044  -19.343100
  C    -60.941000    0.743238  -19.036500
  H    -58.465300    0.342943  -21.252900
  C    -58.597900   -0.097586  -18.316200
  H    -58.978300    0.232746  -17.322600
  H    -57.610500    0.341089  -18.595400
  C    -58.437300   -1.628460  -18.226300
  H    -57.831500   -1.931980  -17.380700
  H    -57.906900   -1.920990  -19.173700
  C    -59.755900   -2.367460  -18.088500
  H    -60.263200   -1.983710  -18.995300
  H    -60.296500   -1.921790  -17.279400
  H    -59.615200   -3.395180  -17.957700
  H    -62.862400    0.880110  -14.558300
  H    -60.549500    0.921483  -22.536400

 Total Charge           Charge          ....    0
 Multiplicity           Mult            ....    1
 Number of Electrons    NEL             ....  134
 Basis Dimension        Dim             ....  322

ORBITAL ENERGIES
----------------

  NO   OCC          E(Eh)            E(eV)
   0   2.0000     -88.970196     -2421.0021
   1   2.0000     -88.963448     -2420.8185
   2   2.0000     -10.327378      -281.0222
   3   2.0000     -10.322427      -280.8875
   4   2.0000     -10.318136      -280.7708
   5   2.0000     -10.312517      -280.6178
   6   2.0000     -10.307255      -280.4747
   7   2.0000     -10.304998      -280.4133
   8   2.0000     -10.296274      -280.1758
   9   2.0000     -10.295829      -280.1638
  10   2.0000     -10.293391      -280.0974
  11   2.0000     -10.292347      -280.0690
  12   2.0000     -10.288329      -279.9597
  13   2.0000     -10.282485      -279.8006
  14   2.0000     -10.280298      -279.7411
  15   2.0000     -10.260158      -279.1931
  16   2.0000      -8.085483      -220.0172
  17   2.0000      -8.078452      -219.8259
  18   2.0000      -6.043712      -164.4578
  19   2.0000      -6.039990      -164.3565
  20   2.0000      -6.037052      -164.2765
  21   2.0000      -6.036416      -164.2592
  22   2.0000      -6.033028      -164.1670
  23   2.0000      -6.028991      -164.0572
  24   2.0000      -1.012086       -27.5403
  25   2.0000      -0.987519       -26.8718
  26   2.0000      -0.918708       -24.9993
  27   2.0000      -0.907019       -24.6812
  28   2.0000      -0.869704       -23.6659
  29   2.0000      -0.849677       -23.1209
  30   2.0000      -0.842665       -22.9301
  31   2.0000      -0.816553       -22.2195
  32   2.0000      -0.786795       -21.4098
  33   2.0000      -0.772798       -21.0289
  34   2.0000      -0.702672       -19.1207
  35   2.0000      -0.694505       -18.8984
  36   2.0000      -0.683804       -18.6072
  37   2.0000      -0.658730       -17.9250
  38   2.0000      -0.654715       -17.8157
  39   2.0000      -0.621687       -16.9170
  40   2.0000      -0.589941       -16.0531
  41   2.0000      -0.574907       -15.6440
  42   2.0000      -0.561076       -15.2676
  43   2.0000      -0.553665       -15.0660
  44   2.0000      -0.549452       -14.9513
  45   2.0000      -0.534401       -14.5418
  46   2.0000      -0.516357       -14.0508
  47   2.0000      -0.508948       -13.8492
  48   2.0000      -0.504515       -13.7285
  49   2.0000      -0.496344       -13.5062
  50   2.0000      -0.490600       -13.3499
  51   2.0000      -0.486589       -13.2408
  52   2.0000      -0.468588       -12.7509
  53   2.0000      -0.467152       -12.7119
  54   2.0000      -0.457038       -12.4366
  55   2.0000      -0.449854       -12.2412
  56   2.0000      -0.445191       -12.1143
  57   2.0000      -0.437157       -11.8956
  58   2.0000      -0.431538       -11.7427
  59   2.0000      -0.420503       -11.4425
  60   2.0000      -0.415839       -11.3155
  61   2.0000      -0.405206       -11.0262
  62   2.0000      -0.403403       -10.9771
  63   2.0000      -0.337175        -9.1750
  64   2.0000      -0.329528        -8.9669
  65   2.0000      -0.318322        -8.6620
  66   2.0000      -0.312737        -8.5100
  67   0.0000       0.037752         1.0273
  68   0.0000       0.051318         1.3964
  69   0.0000       0.108451         2.9511
  70   0.0000       0.116598         3.1728
  71   0.0000       0.125231         3.4077

MULLIKEN ATOMIC CHARGES
-----------------------
   0 S :    0.139633
   1 C :   -0.101716
   2 C :   -0.037692
   3 C :    0.087271
   4 C :   -0.195508
   5 H :   -0.020632
   6 C :    0.081533
   7 H :    0.033107
   8 H :    0.020152
   9 C :   -0.113509
  10 H :    0.022056
  11 H :    0.038188
  12 C :   -0.078728
  13 H :    0.041478
  14 H :    0.031080
  15 H :    0.033769
  16 S :    0.109975
  17 C :   -0.094432
  18 C :   -0.023181
  19 C :   -0.062557
  20 C :   -0.189669
  21 H :    0.020593
  22 C :    0.076720
  23 H :    0.037832
  24 H :    0.037715
  25 C :   -0.107821
  26 H :    0.028942
  27 H :    0.027181
  28 C :   -0.019782
  29 H :    0.049754
  30 H :    0.011053
  31 H :    0.033817
  32 H :    0.020531
  33 H :    0.062848
Sum of atomic charges:    0.0000000

LOEWDIN ATOMIC CHARGES
----------------------
   0 S :    0.439587
   1 C :   -0.183816
   2 C :   -0.053099
   3 C :   -0.037895
   4 C :   -0.208569
   5 H :    0.015975
   6 C :   -0.039439
   7 H :    0.036587
   8 H :    0.035351
   9 C :   -0.056476
  10 H :    0.026047
  11 H :    0.030220
  12 C :   -0.075278
  13 H :    0.034123
  14 H :    0.022949
  15 H :    0.021584
  16 S :    0.394004
  17 C :   -0.177164
  18 C :   -0.066710
  19 C :   -0.057671
  20 C :   -0.209812
  21 H :    0.031373
  22 C :   -0.028724
  23 H :    0.032915
  24 H :    0.033970
  25 C :   -0.043100
  26 H :    0.018899
  27 H :    0.021093
  28 C :   -0.062927
  29 H :    0.033556
  30 H :    0.009954
  31 H :    0.018897
  32 H :    0.012768
  33 H :    0.030827

  Mayer bond orders larger than 0.100000
B(  0-S ,  1-C ) :   1.1502 B(  0-S ,  4-C ) :   1.1727 B(  1-C ,  2-C ) :   1.5994
B(  1-C , 32-H ) :   0.9769 B(  2-C ,  3-C ) :   1.2175 B(  2-C ,  6-C ) :   1.0352
B(  3-C ,  4-C ) :   1.5858 B(  3-C ,  5-H ) :   1.0056 B(  4-C , 20-C ) :   1.0059
B(  6-C ,  7-H ) :   0.9462 B(  6-C ,  8-H ) :   0.9386 B(  6-C ,  9-C ) :   1.0572
B(  9-C , 10-H ) :   0.9495 B(  9-C , 11-H ) :   0.9583 B(  9-C , 12-C ) :   1.0765
B( 12-C , 13-H ) :   0.9726 B( 12-C , 14-H ) :   0.9722 B( 12-C , 15-H ) :   0.9766
B( 16-S , 17-C ) :   1.1306 B( 16-S , 20-C ) :   1.1467 B( 17-C , 18-C ) :   1.6547
B( 17-C , 33-H ) :   0.9648 B( 18-C , 19-C ) :   1.1887 B( 18-C , 21-H ) :   0.9923
B( 19-C , 20-C ) :   1.6356 B( 19-C , 22-C ) :   1.0399 B( 22-C , 23-H ) :   0.9301
B( 22-C , 24-H ) :   0.9457 B( 22-C , 25-C ) :   1.0663 B( 25-C , 26-H ) :   0.9585
B( 25-C , 27-H ) :   0.9573 B( 25-C , 28-C ) :   1.0738 B( 28-C , 29-H ) :   0.9682
B( 28-C , 30-H ) :   0.9693 B( 28-C , 31-H ) :   0.9716

Dispersion correction           -0.015637801
FINAL SINGLE POINT ENERGY     -1339.858669765468

DIPOLE MOMENT
-------------
                                X             Y             Z
Electronic contribution:     -8.71337      -8.30332     -10.61055
Nuclear contribution   :      9.06574       8.68329      10.85612
                        -----------------------------------------
Total Dipole Moment    :      0.35237       0.37997       0.24557
                        -----------------------------------------
Magnitude (a.u.)       :      0.57345
Magnitude (Debye)      :      1.45759

Rotational constants in cm-1:     0.021451     0.008528     0.007504
Rotational constants in MHz :   643.093714   255.651365   224.953838

                             ****ORCA TERMINATED NORMALLY****
TOTAL RUN TIME: 0 days 0 hours 0 minutes 22 seconds 420 msec
