                         Program Version 4.2.1 -  RELEASE  -
|  1> ! wB97X-D3 SP def2-SVP
|  2> %pal
|  3> nprocs 24
|  4> end
|  5>
|  6> * xyz 0 1
|  7> S 	 -60.563 	 8.92291 	 -88.3776
|  8> C 	 -59.4046 	 9.22384 	 -89.6855
|  9> C 	 -58.2533 	 9.92762 	 -89.1691
| 10> C 	 -58.4406 	 10.2759 	 -87.7887
| 11> C 	 -59.6714 	 9.89055 	 -87.2784
| 12> H 	 -57.7783 	 10.9681 	 -87.2371
| 13> C 	 -56.9461 	 10.1525 	 -89.9664
| 14> H 	 -57.0868 	 10.6386 	 -90.9354
| 15> H 	 -56.606 	 9.18614 	 -90.3232
| 16> C 	 -55.7682 	 10.783 	 -89.0731
| 17> H 	 -55.5829 	 10.1994 	 -88.232
| 18> H 	 -54.7979 	 10.6526 	 -89.5416
| 19> C 	 -55.9566 	 12.4008 	 -88.9068
| 20> H 	 -55.679 	 13.1007 	 -89.7341
| 21> H 	 -56.9538 	 12.5843 	 -88.7314
| 22> H 	 -55.4826 	 12.7285 	 -88.043
| 23> S 	 -60.5178 	 11.706 	 -85.5462
| 24> C 	 -61.3756 	 11.2122 	 -84.085
| 25> C 	 -61.3306 	 9.88182 	 -83.8791
| 26> C 	 -60.536 	 9.19261 	 -84.8842
| 27> C 	 -60.1425 	 10.0739 	 -85.9082
| 28> H 	 -61.8176 	 9.55745 	 -82.9975
| 29> C 	 -60.2835 	 7.67318 	 -84.9454
| 30> H 	 -60.0689 	 7.27404 	 -83.9214
| 31> H 	 -59.3383 	 7.55256 	 -85.5236
| 32> C 	 -61.2671 	 6.7288 	 -85.6504
| 33> H 	 -60.748 	 5.81763 	 -85.8524
| 34> H 	 -61.5508 	 7.1866 	 -86.5884
| 35> C 	 -62.5673 	 6.40089 	 -84.9048
| 36> H 	 -63.1945 	 5.83665 	 -85.5888
| 37> H 	 -63.0152 	 7.32544 	 -84.5799
| 38> H 	 -62.26 	 5.78776 	 -84.0544
| 39> H 	 -59.401 	 8.93203 	 -90.7195
| 40> H 	 -61.888 	 11.9412 	 -83.5071
| 41> *
| 42>
| 43>                          ****END OF INPUT****

CARTESIAN COORDINATES (ANGSTROEM)
---------------------------------
  S    -60.563000    8.922910  -88.377600
  C    -59.404600    9.223840  -89.685500
  C    -58.253300    9.927620  -89.169100
  C    -58.440600   10.275900  -87.788700
  C    -59.671400    9.890550  -87.278400
  H    -57.778300   10.968100  -87.237100
  C    -56.946100   10.152500  -89.966400
  H    -57.086800   10.638600  -90.935400
  H    -56.606000    9.186140  -90.323200
  C    -55.768200   10.783000  -89.073100
  H    -55.582900   10.199400  -88.232000
  H    -54.797900   10.652600  -89.541600
  C    -55.956600   12.400800  -88.906800
  H    -55.679000   13.100700  -89.734100
  H    -56.953800   12.584300  -88.731400
  H    -55.482600   12.728500  -88.043000
  S    -60.517800   11.706000  -85.546200
  C    -61.375600   11.212200  -84.085000
  C    -61.330600    9.881820  -83.879100
  C    -60.536000    9.192610  -84.884200
  C    -60.142500   10.073900  -85.908200
  H    -61.817600    9.557450  -82.997500
  C    -60.283500    7.673180  -84.945400
  H    -60.068900    7.274040  -83.921400
  H    -59.338300    7.552560  -85.523600
  C    -61.267100    6.728800  -85.650400
  H    -60.748000    5.817630  -85.852400
  H    -61.550800    7.186600  -86.588400
  C    -62.567300    6.400890  -84.904800
  H    -63.194500    5.836650  -85.588800
  H    -63.015200    7.325440  -84.579900
  H    -62.260000    5.787760  -84.054400
  H    -59.401000    8.932030  -90.719500
  H    -61.888000   11.941200  -83.507100

 Total Charge           Charge          ....    0
 Multiplicity           Mult            ....    1
 Number of Electrons    NEL             ....  134
 Basis Dimension        Dim             ....  322

ORBITAL ENERGIES
----------------

  NO   OCC          E(Eh)            E(eV)
   0   2.0000     -88.973208     -2421.0841
   1   2.0000     -88.960800     -2420.7464
   2   2.0000     -10.328059      -281.0408
   3   2.0000     -10.324686      -280.9490
   4   2.0000     -10.317936      -280.7653
   5   2.0000     -10.310872      -280.5731
   6   2.0000     -10.310684      -280.5680
   7   2.0000     -10.310422      -280.5608
   8   2.0000     -10.301257      -280.3115
   9   2.0000     -10.296992      -280.1954
  10   2.0000     -10.295821      -280.1635
  11   2.0000     -10.293663      -280.1048
  12   2.0000     -10.292821      -280.0819
  13   2.0000     -10.275502      -279.6106
  14   2.0000     -10.275430      -279.6087
  15   2.0000     -10.270920      -279.4860
  16   2.0000      -8.086958      -220.0573
  17   2.0000      -8.076500      -219.7727
  18   2.0000      -6.045554      -164.5079
  19   2.0000      -6.041377      -164.3942
  20   2.0000      -6.037902      -164.2997
  21   2.0000      -6.034855      -164.2167
  22   2.0000      -6.030866      -164.1082
  23   2.0000      -6.027368      -164.0130
  24   2.0000      -1.007639       -27.4193
  25   2.0000      -0.980793       -26.6887
  26   2.0000      -0.903038       -24.5729
  27   2.0000      -0.898541       -24.4505
  28   2.0000      -0.868747       -23.6398
  29   2.0000      -0.845363       -23.0035
  30   2.0000      -0.838724       -22.8228
  31   2.0000      -0.816566       -22.2199
  32   2.0000      -0.785208       -21.3666
  33   2.0000      -0.770773       -20.9738
  34   2.0000      -0.720348       -19.6017
  35   2.0000      -0.698811       -19.0156
  36   2.0000      -0.684910       -18.6374
  37   2.0000      -0.663520       -18.0553
  38   2.0000      -0.634048       -17.2533
  39   2.0000      -0.620636       -16.8884
  40   2.0000      -0.593292       -16.1443
  41   2.0000      -0.568436       -15.4679
  42   2.0000      -0.551343       -15.0028
  43   2.0000      -0.546469       -14.8702
  44   2.0000      -0.540398       -14.7050
  45   2.0000      -0.522932       -14.2297
  46   2.0000      -0.518895       -14.1198
  47   2.0000      -0.507626       -13.8132
  48   2.0000      -0.500556       -13.6208
  49   2.0000      -0.492667       -13.4061
  50   2.0000      -0.482997       -13.1430
  51   2.0000      -0.482734       -13.1359
  52   2.0000      -0.477585       -12.9957
  53   2.0000      -0.464793       -12.6477
  54   2.0000      -0.463056       -12.6004
  55   2.0000      -0.451948       -12.2981
  56   2.0000      -0.442901       -12.0519
  57   2.0000      -0.440540       -11.9877
  58   2.0000      -0.431994       -11.7552
  59   2.0000      -0.423746       -11.5307
  60   2.0000      -0.416004       -11.3200
  61   2.0000      -0.414093       -11.2680
  62   2.0000      -0.407572       -11.0906
  63   2.0000      -0.343784        -9.3548
  64   2.0000      -0.333606        -9.0779
  65   2.0000      -0.320563        -8.7230
  66   2.0000      -0.295447        -8.0395
  67   0.0000       0.035368         0.9624
  68   0.0000       0.059837         1.6283
  69   0.0000       0.104282         2.8377
  70   0.0000       0.122867         3.3434
  71   0.0000       0.134246         3.6530

MULLIKEN ATOMIC CHARGES
-----------------------
   0 S :    0.134848
   1 C :   -0.111727
   2 C :   -0.100353
   3 C :    0.018611
   4 C :   -0.138491
   5 H :    0.029575
   6 C :    0.049062
   7 H :    0.036382
   8 H :    0.028842
   9 C :   -0.070448
  10 H :    0.024694
  11 H :    0.025380
  12 C :   -0.030314
  13 H :    0.046570
  14 H :    0.012833
  15 H :    0.018851
  16 S :    0.102327
  17 C :   -0.092760
  18 C :   -0.012444
  19 C :   -0.028189
  20 C :   -0.172692
  21 H :    0.010243
  22 C :    0.024142
  23 H :    0.026117
  24 H :    0.037651
  25 C :   -0.053478
  26 H :    0.022387
  27 H :    0.016564
  28 C :   -0.034018
  29 H :    0.037598
  30 H :    0.031340
  31 H :    0.024729
  32 H :    0.040308
  33 H :    0.045860
Sum of atomic charges:    0.0000000

LOEWDIN ATOMIC CHARGES
----------------------
   0 S :    0.447519
   1 C :   -0.207336
   2 C :   -0.053220
   3 C :   -0.073154
   4 C :   -0.213779
   5 H :    0.037331
   6 C :   -0.033873
   7 H :    0.033836
   8 H :    0.032369
   9 C :   -0.032559
  10 H :    0.018530
  11 H :    0.026906
  12 C :   -0.061575
  13 H :    0.036650
  14 H :    0.011899
  15 H :    0.017534
  16 S :    0.413819
  17 C :   -0.171059
  18 C :   -0.068130
  19 C :   -0.058011
  20 C :   -0.207668
  21 H :    0.030340
  22 C :   -0.041500
  23 H :    0.031641
  24 H :    0.038740
  25 C :   -0.041318
  26 H :    0.021278
  27 H :    0.005874
  28 C :   -0.060196
  29 H :    0.027236
  30 H :    0.021973
  31 H :    0.022747
  32 H :    0.026472
  33 H :    0.020686

  Mayer bond orders larger than 0.100000
B(  0-S ,  1-C ) :   1.1479 B(  0-S ,  4-C ) :   1.1708 B(  1-C ,  2-C ) :   1.5826
B(  1-C ,  4-C ) :   0.1062 B(  1-C , 32-H ) :   0.9729 B(  2-C ,  3-C ) :   1.2877
B(  2-C ,  6-C ) :   1.0007 B(  3-C ,  4-C ) :   1.5437 B(  3-C ,  5-H ) :   0.9784
B(  4-C , 20-C ) :   0.9982 B(  6-C ,  7-H ) :   0.9445 B(  6-C ,  8-H ) :   0.9414
B(  6-C ,  9-C ) :   1.0788 B(  9-C , 10-H ) :   0.9576 B(  9-C , 11-H ) :   0.9585
B(  9-C , 12-C ) :   1.0429 B( 12-C , 13-H ) :   0.9782 B( 12-C , 14-H ) :   0.9825
B( 12-C , 15-H ) :   0.9770 B( 16-S , 17-C ) :   1.1431 B( 16-S , 20-C ) :   1.1637
B( 17-C , 18-C ) :   1.6410 B( 17-C , 33-H ) :   0.9718 B( 18-C , 19-C ) :   1.1894
B( 18-C , 21-H ) :   1.0009 B( 19-C , 20-C ) :   1.6008 B( 19-C , 22-C ) :   1.0504
B( 22-C , 23-H ) :   0.9375 B( 22-C , 24-H ) :   0.9305 B( 22-C , 25-C ) :   1.0755
B( 25-C , 26-H ) :   0.9525 B( 25-C , 27-H ) :   0.9460 B( 25-C , 28-C ) :   1.0808
B( 28-C , 29-H ) :   0.9740 B( 28-C , 30-H ) :   0.9770 B( 28-C , 31-H ) :   0.9766

Dispersion correction           -0.014882695
FINAL SINGLE POINT ENERGY     -1339.854804023130

DIPOLE MOMENT
-------------
                                X             Y             Z
Electronic contribution:    -10.11855       7.29889       1.72451
Nuclear contribution   :     10.43682      -7.46373      -1.77624
                        -----------------------------------------
Total Dipole Moment    :      0.31827      -0.16484      -0.05173
                        -----------------------------------------
Magnitude (a.u.)       :      0.36214
Magnitude (Debye)      :      0.92049

Rotational constants in cm-1:     0.021158     0.008624     0.006954
Rotational constants in MHz :   634.298557   258.553602   208.466447

                             ****ORCA TERMINATED NORMALLY****
TOTAL RUN TIME: 0 days 0 hours 0 minutes 20 seconds 529 msec
