                         Program Version 4.2.1 -  RELEASE  -
|  1> ! wB97X-D3 SP def2-SVP
|  2> %pal
|  3> nprocs 24
|  4> end
|  5>
|  6> * xyz 0 1
|  7> S 	 -71.0423 	 -2.88258 	 -67.9982
|  8> C 	 -70.4862 	 -1.83869 	 -66.7352
|  9> C 	 -71.4698 	 -0.943787 	 -66.3819
| 10> C 	 -72.5432 	 -0.956649 	 -67.3396
| 11> C 	 -72.4082 	 -1.9044 	 -68.3582
| 12> H 	 -73.397 	 -0.276057 	 -67.2566
| 13> C 	 -71.4905 	 -0.0686884 	 -65.1575
| 14> H 	 -72.3211 	 0.6684 	 -65.2565
| 15> H 	 -70.6443 	 0.587069 	 -65.1268
| 16> C 	 -71.8446 	 -0.82746 	 -63.8806
| 17> H 	 -72.8523 	 -1.19743 	 -63.8677
| 18> H 	 -71.132 	 -1.64026 	 -63.864
| 19> C 	 -71.4899 	 -0.0381416 	 -62.6469
| 20> H 	 -70.4193 	 0.250585 	 -62.6238
| 21> H 	 -72.0881 	 0.865171 	 -62.5335
| 22> H 	 -71.7274 	 -0.62016 	 -61.6954
| 23> S 	 -72.6136 	 -3.04209 	 -70.866
| 24> C 	 -74.2423 	 -3.16716 	 -71.5473
| 25> C 	 -75.1493 	 -2.42322 	 -70.8333
| 26> C 	 -74.6291 	 -1.78945 	 -69.671
| 27> C 	 -73.317 	 -2.22506 	 -69.4173
| 28> H 	 -76.121 	 -2.30039 	 -71.2264
| 29> C 	 -75.4629 	 -0.89298 	 -68.7949
| 30> H 	 -75.2806 	 -1.16749 	 -67.7927
| 31> H 	 -76.489 	 -1.09236 	 -68.9185
| 32> C 	 -75.4371 	 0.639581 	 -69.0476
| 33> H 	 -75.8846 	 0.696517 	 -70.0111
| 34> H 	 -74.486 	 1.1306 	 -69.1553
| 35> C 	 -76.2525 	 1.45527 	 -68.0353
| 36> H 	 -76.4792 	 2.42188 	 -68.3882
| 37> H 	 -75.7765 	 1.5904 	 -67.0611
| 38> H 	 -77.214 	 0.901082 	 -67.8626
| 39> H 	 -69.8073 	 -2.02038 	 -65.8762
| 40> H 	 -74.6094 	 -3.71939 	 -72.4147
| 41> *
| 42>
| 43>                          ****END OF INPUT****

CARTESIAN COORDINATES (ANGSTROEM)
---------------------------------
  S    -71.042300   -2.882580  -67.998200
  C    -70.486200   -1.838690  -66.735200
  C    -71.469800   -0.943787  -66.381900
  C    -72.543200   -0.956649  -67.339600
  C    -72.408200   -1.904400  -68.358200
  H    -73.397000   -0.276057  -67.256600
  C    -71.490500   -0.068688  -65.157500
  H    -72.321100    0.668400  -65.256500
  H    -70.644300    0.587069  -65.126800
  C    -71.844600   -0.827460  -63.880600
  H    -72.852300   -1.197430  -63.867700
  H    -71.132000   -1.640260  -63.864000
  C    -71.489900   -0.038142  -62.646900
  H    -70.419300    0.250585  -62.623800
  H    -72.088100    0.865171  -62.533500
  H    -71.727400   -0.620160  -61.695400
  S    -72.613600   -3.042090  -70.866000
  C    -74.242300   -3.167160  -71.547300
  C    -75.149300   -2.423220  -70.833300
  C    -74.629100   -1.789450  -69.671000
  C    -73.317000   -2.225060  -69.417300
  H    -76.121000   -2.300390  -71.226400
  C    -75.462900   -0.892980  -68.794900
  H    -75.280600   -1.167490  -67.792700
  H    -76.489000   -1.092360  -68.918500
  C    -75.437100    0.639581  -69.047600
  H    -75.884600    0.696517  -70.011100
  H    -74.486000    1.130600  -69.155300
  C    -76.252500    1.455270  -68.035300
  H    -76.479200    2.421880  -68.388200
  H    -75.776500    1.590400  -67.061100
  H    -77.214000    0.901082  -67.862600
  H    -69.807300   -2.020380  -65.876200
  H    -74.609400   -3.719390  -72.414700

 Total Charge           Charge          ....    0
 Multiplicity           Mult            ....    1
 Number of Electrons    NEL             ....  134
 Basis Dimension        Dim             ....  322

ORBITAL ENERGIES
----------------

  NO   OCC          E(Eh)            E(eV)
   0   2.0000     -88.969139     -2420.9733
   1   2.0000     -88.968162     -2420.9468
   2   2.0000     -10.333193      -281.1805
   3   2.0000     -10.328717      -281.0587
   4   2.0000     -10.318345      -280.7765
   5   2.0000     -10.309391      -280.5328
   6   2.0000     -10.307266      -280.4750
   7   2.0000     -10.297941      -280.2212
   8   2.0000     -10.293238      -280.0933
   9   2.0000     -10.291814      -280.0545
  10   2.0000     -10.290109      -280.0081
  11   2.0000     -10.288606      -279.9672
  12   2.0000     -10.286360      -279.9061
  13   2.0000     -10.285388      -279.8796
  14   2.0000     -10.284283      -279.8496
  15   2.0000     -10.282019      -279.7880
  16   2.0000      -8.083337      -219.9588
  17   2.0000      -8.082530      -219.9368
  18   2.0000      -6.041935      -164.4094
  19   2.0000      -6.041214      -164.3898
  20   2.0000      -6.037785      -164.2965
  21   2.0000      -6.037461      -164.2877
  22   2.0000      -6.033937      -164.1918
  23   2.0000      -6.032933      -164.1644
  24   2.0000      -1.009858       -27.4796
  25   2.0000      -0.983464       -26.7614
  26   2.0000      -0.920084       -25.0367
  27   2.0000      -0.912909       -24.8415
  28   2.0000      -0.874147       -23.7867
  29   2.0000      -0.856075       -23.2950
  30   2.0000      -0.846022       -23.0214
  31   2.0000      -0.813705       -22.1420
  32   2.0000      -0.786028       -21.3889
  33   2.0000      -0.774791       -21.0831
  34   2.0000      -0.713248       -19.4085
  35   2.0000      -0.703269       -19.1369
  36   2.0000      -0.700200       -19.0534
  37   2.0000      -0.665642       -18.1131
  38   2.0000      -0.629886       -17.1401
  39   2.0000      -0.621165       -16.9028
  40   2.0000      -0.598701       -16.2915
  41   2.0000      -0.578446       -15.7403
  42   2.0000      -0.570053       -15.5119
  43   2.0000      -0.563337       -15.3292
  44   2.0000      -0.528579       -14.3834
  45   2.0000      -0.526542       -14.3279
  46   2.0000      -0.521693       -14.1960
  47   2.0000      -0.515718       -14.0334
  48   2.0000      -0.505290       -13.7496
  49   2.0000      -0.498503       -13.5649
  50   2.0000      -0.491598       -13.3770
  51   2.0000      -0.485164       -13.2020
  52   2.0000      -0.470073       -12.7913
  53   2.0000      -0.462325       -12.5805
  54   2.0000      -0.460725       -12.5370
  55   2.0000      -0.450606       -12.2616
  56   2.0000      -0.447220       -12.1695
  57   2.0000      -0.440356       -11.9827
  58   2.0000      -0.437714       -11.9108
  59   2.0000      -0.431271       -11.7355
  60   2.0000      -0.424498       -11.5512
  61   2.0000      -0.417798       -11.3689
  62   2.0000      -0.406861       -11.0713
  63   2.0000      -0.361412        -9.8345
  64   2.0000      -0.333367        -9.0714
  65   2.0000      -0.328764        -8.9461
  66   2.0000      -0.280629        -7.6363
  67   0.0000       0.013010         0.3540
  68   0.0000       0.081121         2.2074
  69   0.0000       0.095874         2.6089
  70   0.0000       0.113544         3.0897
  71   0.0000       0.125170         3.4061

MULLIKEN ATOMIC CHARGES
-----------------------
   0 S :    0.116119
   1 C :   -0.088851
   2 C :   -0.130375
   3 C :   -0.012095
   4 C :   -0.110359
   5 H :    0.004465
   6 C :    0.042332
   7 H :    0.013334
   8 H :    0.031701
   9 C :   -0.037478
  10 H :    0.036120
  11 H :    0.016409
  12 C :   -0.070762
  13 H :    0.037696
  14 H :    0.024563
  15 H :    0.041525
  16 S :    0.098607
  17 C :   -0.074601
  18 C :   -0.025817
  19 C :   -0.037920
  20 C :   -0.119978
  21 H :    0.000142
  22 C :    0.072701
  23 H :    0.016843
  24 H :   -0.003182
  25 C :   -0.054947
  26 H :    0.015173
  27 H :    0.032583
  28 C :   -0.035211
  29 H :    0.028401
  30 H :    0.032048
  31 H :    0.025601
  32 H :    0.058667
  33 H :    0.056545
Sum of atomic charges:    0.0000000

LOEWDIN ATOMIC CHARGES
----------------------
   0 S :    0.433569
   1 C :   -0.224638
   2 C :   -0.060960
   3 C :   -0.072451
   4 C :   -0.202599
   5 H :    0.029103
   6 C :   -0.035971
   7 H :    0.031663
   8 H :    0.030338
   9 C :   -0.036059
  10 H :    0.026949
  11 H :    0.020246
  12 C :   -0.070772
  13 H :    0.028113
  14 H :    0.019255
  15 H :    0.033194
  16 S :    0.375241
  17 C :   -0.181014
  18 C :   -0.066767
  19 C :   -0.046506
  20 C :   -0.171490
  21 H :    0.025014
  22 C :   -0.028665
  23 H :    0.022514
  24 H :    0.025627
  25 C :   -0.035588
  26 H :    0.022288
  27 H :    0.021071
  28 C :   -0.060367
  29 H :    0.021464
  30 H :    0.024358
  31 H :    0.028127
  32 H :    0.039998
  33 H :    0.035713

  Mayer bond orders larger than 0.100000
B(  0-S ,  1-C ) :   1.1331 B(  0-S ,  4-C ) :   1.1643 B(  1-C ,  2-C ) :   1.6067
B(  1-C , 32-H ) :   0.9531 B(  2-C ,  3-C ) :   1.2859 B(  2-C ,  6-C ) :   1.0245
B(  3-C ,  4-C ) :   1.5136 B(  3-C ,  5-H ) :   0.9897 B(  4-C , 20-C ) :   1.1094
B(  6-C ,  7-H ) :   0.9370 B(  6-C ,  8-H ) :   0.9457 B(  6-C ,  9-C ) :   1.0523
B(  9-C , 10-H ) :   0.9532 B(  9-C , 11-H ) :   0.9598 B(  9-C , 12-C ) :   1.0852
B( 12-C , 13-H ) :   0.9748 B( 12-C , 14-H ) :   0.9729 B( 12-C , 15-H ) :   0.9720
B( 16-S , 17-C ) :   1.1256 B( 16-S , 20-C ) :   1.1222 B( 17-C , 18-C ) :   1.6380
B( 17-C , 20-C ) :   0.1023 B( 17-C , 33-H ) :   0.9614 B( 18-C , 19-C ) :   1.2365
B( 18-C , 21-H ) :   0.9916 B( 19-C , 20-C ) :   1.5778 B( 19-C , 22-C ) :   1.0491
B( 22-C , 23-H ) :   0.9370 B( 22-C , 24-H ) :   0.9242 B( 22-C , 25-C ) :   1.0423
B( 25-C , 26-H ) :   0.9515 B( 25-C , 27-H ) :   0.9596 B( 25-C , 28-C ) :   1.0875
B( 28-C , 29-H ) :   0.9725 B( 28-C , 30-H ) :   0.9760 B( 28-C , 31-H ) :   0.9710

Dispersion correction           -0.013870478
FINAL SINGLE POINT ENERGY     -1339.865794156231

DIPOLE MOMENT
-------------
                                X             Y             Z
Electronic contribution:     12.13922     -20.27619     -22.57011
Nuclear contribution   :    -12.78980      20.74472      22.98142
                        -----------------------------------------
Total Dipole Moment    :     -0.65058       0.46854       0.41131
                        -----------------------------------------
Magnitude (a.u.)       :      0.90109
Magnitude (Debye)      :      2.29038

Rotational constants in cm-1:     0.018437     0.008821     0.006230
Rotational constants in MHz :   552.734924   264.441811   186.766432

                             ****ORCA TERMINATED NORMALLY****
TOTAL RUN TIME: 0 days 0 hours 0 minutes 21 seconds 571 msec
