                         Program Version 4.2.1 -  RELEASE  -
|  1> ! wB97X-D3 SP def2-SVP
|  2> %pal
|  3> nprocs 24
|  4> end
|  5>
|  6> * xyz 0 1
|  7> S 	 -41.9684 	 -50.3212 	 -72.3451
|  8> C 	 -40.5183 	 -50.5843 	 -73.2616
|  9> C 	 -40.761 	 -50.5996 	 -74.615
| 10> C 	 -42.0948 	 -50.1786 	 -74.9064
| 11> C 	 -42.8735 	 -50.0094 	 -73.8156
| 12> H 	 -42.5247 	 -50.0559 	 -75.826
| 13> C 	 -39.7907 	 -51.0183 	 -75.7371
| 14> H 	 -40.3016 	 -51.8106 	 -76.2803
| 15> H 	 -38.9221 	 -51.445 	 -75.3361
| 16> C 	 -39.3659 	 -49.9644 	 -76.7791
| 17> H 	 -40.1282 	 -49.2729 	 -77.1484
| 18> H 	 -38.6098 	 -49.2411 	 -76.3099
| 19> C 	 -38.6965 	 -50.7009 	 -78.0304
| 20> H 	 -39.4011 	 -50.9423 	 -78.866
| 21> H 	 -38.0554 	 -49.9174 	 -78.41
| 22> H 	 -38.1651 	 -51.6065 	 -77.6917
| 23> S 	 -45.2133 	 -50.0302 	 -75.1108
| 24> C 	 -46.6219 	 -49.1953 	 -74.4051
| 25> C 	 -46.3642 	 -48.6864 	 -73.1303
| 26> C 	 -44.966 	 -48.8327 	 -72.7737
| 27> C 	 -44.227 	 -49.5081 	 -73.7712
| 28> H 	 -47.1089 	 -48.1599 	 -72.5161
| 29> C 	 -44.4037 	 -48.1517 	 -71.5298
| 30> H 	 -44.3888 	 -47.0476 	 -71.6868
| 31> H 	 -43.3494 	 -48.3988 	 -71.602
| 32> C 	 -45.0193 	 -48.3755 	 -70.1209
| 33> H 	 -45.0453 	 -49.5153 	 -69.9789
| 34> H 	 -46.0056 	 -48.0871 	 -69.9913
| 35> C 	 -44.0799 	 -47.9184 	 -69.0595
| 36> H 	 -44.5829 	 -47.8742 	 -68.0422
| 37> H 	 -43.9423 	 -46.8421 	 -69.2354
| 38> H 	 -43.1523 	 -48.4692 	 -69.0658
| 39> H 	 -39.5511 	 -51.0109 	 -72.9414
| 40> H 	 -47.6615 	 -49.2038 	 -74.914
| 41> *
| 42>
| 43>                          ****END OF INPUT****

CARTESIAN COORDINATES (ANGSTROEM)
---------------------------------
  S    -41.968400  -50.321200  -72.345100
  C    -40.518300  -50.584300  -73.261600
  C    -40.761000  -50.599600  -74.615000
  C    -42.094800  -50.178600  -74.906400
  C    -42.873500  -50.009400  -73.815600
  H    -42.524700  -50.055900  -75.826000
  C    -39.790700  -51.018300  -75.737100
  H    -40.301600  -51.810600  -76.280300
  H    -38.922100  -51.445000  -75.336100
  C    -39.365900  -49.964400  -76.779100
  H    -40.128200  -49.272900  -77.148400
  H    -38.609800  -49.241100  -76.309900
  C    -38.696500  -50.700900  -78.030400
  H    -39.401100  -50.942300  -78.866000
  H    -38.055400  -49.917400  -78.410000
  H    -38.165100  -51.606500  -77.691700
  S    -45.213300  -50.030200  -75.110800
  C    -46.621900  -49.195300  -74.405100
  C    -46.364200  -48.686400  -73.130300
  C    -44.966000  -48.832700  -72.773700
  C    -44.227000  -49.508100  -73.771200
  H    -47.108900  -48.159900  -72.516100
  C    -44.403700  -48.151700  -71.529800
  H    -44.388800  -47.047600  -71.686800
  H    -43.349400  -48.398800  -71.602000
  C    -45.019300  -48.375500  -70.120900
  H    -45.045300  -49.515300  -69.978900
  H    -46.005600  -48.087100  -69.991300
  C    -44.079900  -47.918400  -69.059500
  H    -44.582900  -47.874200  -68.042200
  H    -43.942300  -46.842100  -69.235400
  H    -43.152300  -48.469200  -69.065800
  H    -39.551100  -51.010900  -72.941400
  H    -47.661500  -49.203800  -74.914000

 Total Charge           Charge          ....    0
 Multiplicity           Mult            ....    1
 Number of Electrons    NEL             ....  134
 Basis Dimension        Dim             ....  322

ORBITAL ENERGIES
----------------

  NO   OCC          E(Eh)            E(eV)
   0   2.0000     -88.969032     -2420.9704
   1   2.0000     -88.968000     -2420.9424
   2   2.0000     -10.329276      -281.0739
   3   2.0000     -10.329130      -281.0699
   4   2.0000     -10.326524      -280.9990
   5   2.0000     -10.312127      -280.6072
   6   2.0000     -10.309123      -280.5255
   7   2.0000     -10.301322      -280.3132
   8   2.0000     -10.301155      -280.3087
   9   2.0000     -10.296886      -280.1925
  10   2.0000     -10.292090      -280.0620
  11   2.0000     -10.291002      -280.0324
  12   2.0000     -10.286198      -279.9017
  13   2.0000     -10.284667      -279.8600
  14   2.0000     -10.283090      -279.8171
  15   2.0000     -10.277891      -279.6756
  16   2.0000      -8.083258      -219.9566
  17   2.0000      -8.082406      -219.9334
  18   2.0000      -6.041852      -164.4071
  19   2.0000      -6.041073      -164.3860
  20   2.0000      -6.037939      -164.3007
  21   2.0000      -6.037008      -164.2753
  22   2.0000      -6.033874      -164.1900
  23   2.0000      -6.032967      -164.1654
  24   2.0000      -1.009878       -27.4802
  25   2.0000      -0.980857       -26.6905
  26   2.0000      -0.908708       -24.7272
  27   2.0000      -0.905644       -24.6438
  28   2.0000      -0.871853       -23.7243
  29   2.0000      -0.855642       -23.2832
  30   2.0000      -0.844201       -22.9719
  31   2.0000      -0.813485       -22.1360
  32   2.0000      -0.780204       -21.2304
  33   2.0000      -0.765542       -20.8315
  34   2.0000      -0.705257       -19.1910
  35   2.0000      -0.699327       -19.0296
  36   2.0000      -0.689516       -18.7627
  37   2.0000      -0.666807       -18.1447
  38   2.0000      -0.636886       -17.3306
  39   2.0000      -0.622090       -16.9279
  40   2.0000      -0.593818       -16.1586
  41   2.0000      -0.570460       -15.5230
  42   2.0000      -0.563917       -15.3450
  43   2.0000      -0.554132       -15.0787
  44   2.0000      -0.527044       -14.3416
  45   2.0000      -0.524905       -14.2834
  46   2.0000      -0.515069       -14.0157
  47   2.0000      -0.512723       -13.9519
  48   2.0000      -0.500202       -13.6112
  49   2.0000      -0.495395       -13.4804
  50   2.0000      -0.490072       -13.3355
  51   2.0000      -0.479034       -13.0352
  52   2.0000      -0.471617       -12.8334
  53   2.0000      -0.463765       -12.6197
  54   2.0000      -0.458960       -12.4889
  55   2.0000      -0.455598       -12.3975
  56   2.0000      -0.447270       -12.1708
  57   2.0000      -0.447076       -12.1656
  58   2.0000      -0.430308       -11.7093
  59   2.0000      -0.423534       -11.5250
  60   2.0000      -0.416722       -11.3396
  61   2.0000      -0.412159       -11.2154
  62   2.0000      -0.402567       -10.9544
  63   2.0000      -0.360640        -9.8135
  64   2.0000      -0.330937        -9.0053
  65   2.0000      -0.329486        -8.9658
  66   2.0000      -0.284121        -7.7313
  67   0.0000       0.022805         0.6206
  68   0.0000       0.081507         2.2179
  69   0.0000       0.107660         2.9296
  70   0.0000       0.113039         3.0760
  71   0.0000       0.122749         3.3402

MULLIKEN ATOMIC CHARGES
-----------------------
   0 S :    0.107301
   1 C :   -0.117909
   2 C :   -0.082967
   3 C :    0.024123
   4 C :   -0.106521
   5 H :   -0.025954
   6 C :    0.099229
   7 H :    0.034718
   8 H :    0.003001
   9 C :   -0.121380
  10 H :    0.037352
  11 H :    0.040954
  12 C :   -0.076550
  13 H :    0.049463
  14 H :    0.036677
  15 H :    0.044508
  16 S :    0.091794
  17 C :   -0.123802
  18 C :   -0.023358
  19 C :   -0.057627
  20 C :   -0.127893
  21 H :    0.032871
  22 C :    0.029073
  23 H :    0.039555
  24 H :    0.006616
  25 C :   -0.051693
  26 H :    0.030055
  27 H :    0.016738
  28 C :   -0.052609
  29 H :    0.037958
  30 H :    0.019613
  31 H :    0.048010
  32 H :    0.049447
  33 H :    0.089206
Sum of atomic charges:    0.0000000

LOEWDIN ATOMIC CHARGES
----------------------
   0 S :    0.420491
   1 C :   -0.213129
   2 C :   -0.056204
   3 C :   -0.061075
   4 C :   -0.182226
   5 H :    0.010420
   6 C :   -0.028757
   7 H :    0.034670
   8 H :    0.020796
   9 C :   -0.043646
  10 H :    0.022966
  11 H :    0.029635
  12 C :   -0.070381
  13 H :    0.031098
  14 H :    0.027312
  15 H :    0.026662
  16 S :    0.402051
  17 C :   -0.190391
  18 C :   -0.068007
  19 C :   -0.057962
  20 C :   -0.196365
  21 H :    0.037249
  22 C :   -0.044635
  23 H :    0.036215
  24 H :    0.011306
  25 C :   -0.041795
  26 H :    0.031367
  27 H :    0.011743
  28 C :   -0.066357
  29 H :    0.034207
  30 H :    0.022680
  31 H :    0.027963
  32 H :    0.035553
  33 H :    0.046548

  Mayer bond orders larger than 0.100000
B(  0-S ,  1-C ) :   1.1273 B(  0-S ,  4-C ) :   1.1262 B(  1-C ,  2-C ) :   1.6470
B(  1-C , 32-H ) :   0.9550 B(  2-C ,  3-C ) :   1.2128 B(  2-C ,  6-C ) :   1.0218
B(  3-C ,  4-C ) :   1.5846 B(  3-C ,  5-H ) :   1.0045 B(  4-C , 20-C ) :   1.0651
B(  6-C ,  7-H ) :   0.9450 B(  6-C ,  8-H ) :   0.9343 B(  6-C ,  9-C ) :   1.0529
B(  9-C , 10-H ) :   0.9616 B(  9-C , 11-H ) :   0.9627 B(  9-C , 12-C ) :   1.0544
B( 12-C , 13-H ) :   0.9772 B( 12-C , 14-H ) :   0.9774 B( 12-C , 15-H ) :   0.9778
B( 16-S , 17-C ) :   1.1415 B( 16-S , 20-C ) :   1.1386 B( 17-C , 18-C ) :   1.6171
B( 17-C , 33-H ) :   0.9556 B( 18-C , 19-C ) :   1.2319 B( 18-C , 21-H ) :   0.9861
B( 19-C , 20-C ) :   1.5728 B( 19-C , 22-C ) :   1.0410 B( 22-C , 23-H ) :   0.9283
B( 22-C , 24-H ) :   0.9280 B( 22-C , 25-C ) :   1.0418 B( 25-C , 26-H ) :   0.9558
B( 25-C , 27-H ) :   0.9556 B( 25-C , 28-C ) :   1.0925 B( 28-C , 29-H ) :   0.9704
B( 28-C , 30-H ) :   0.9703 B( 28-C , 31-H ) :   0.9745

Dispersion correction           -0.013433945
FINAL SINGLE POINT ENERGY     -1339.865733799166

DIPOLE MOMENT
-------------
                                X             Y             Z
Electronic contribution:    -12.11778      -5.24758      -1.00865
Nuclear contribution   :     12.19657       5.36230       0.89112
                        -----------------------------------------
Total Dipole Moment    :      0.07879       0.11472      -0.11753
                        -----------------------------------------
Magnitude (a.u.)       :      0.18216
Magnitude (Debye)      :      0.46301

Rotational constants in cm-1:     0.021588     0.007540     0.005893
Rotational constants in MHz :   647.206617   226.044417   176.675013

                             ****ORCA TERMINATED NORMALLY****
TOTAL RUN TIME: 0 days 0 hours 0 minutes 19 seconds 748 msec
