                         Program Version 4.2.1 -  RELEASE  -
|  1> ! wB97X-D3 SP def2-SVP
|  2> %pal
|  3> nprocs 24
|  4> end
|  5>
|  6> * xyz 0 1
|  7> S 	 -58.9425 	 7.61712 	 -8.54396
|  8> C 	 -58.549 	 5.96959 	 -8.24703
|  9> C 	 -59.2815 	 5.13125 	 -9.13289
| 10> C 	 -60.1637 	 5.87341 	 -10.0046
| 11> C 	 -60.0727 	 7.23704 	 -9.86096
| 12> H 	 -60.8503 	 5.4702 	 -10.7113
| 13> C 	 -59.2275 	 3.60796 	 -9.19293
| 14> H 	 -59.7844 	 3.19417 	 -10.0626
| 15> H 	 -59.6258 	 3.21506 	 -8.27461
| 16> C 	 -57.788 	 3.12173 	 -9.11509
| 17> H 	 -57.2272 	 3.4879 	 -9.97962
| 18> H 	 -57.2737 	 3.49476 	 -8.20301
| 19> C 	 -57.7171 	 1.54334 	 -9.12569
| 20> H 	 -58.3619 	 1.2248 	 -10.0173
| 21> H 	 -56.6212 	 1.36807 	 -9.31158
| 22> H 	 -58.1019 	 1.18403 	 -8.1825
| 23> S 	 -62.4469 	 8.46542 	 -9.43151
| 24> C 	 -63.3005 	 9.34802 	 -10.6968
| 25> C 	 -62.651 	 9.2385 	 -11.8586
| 26> C 	 -61.4077 	 8.49217 	 -11.7435
| 27> C 	 -61.0759 	 8.11009 	 -10.4301
| 28> H 	 -63.0665 	 9.65106 	 -12.7678
| 29> C 	 -60.639 	 8.1237 	 -13.0061
| 30> H 	 -59.6583 	 7.79318 	 -12.8975
| 31> H 	 -60.58 	 9.00652 	 -13.5904
| 32> C 	 -61.2657 	 7.06333 	 -13.9869
| 33> H 	 -60.4943 	 6.72025 	 -14.6881
| 34> H 	 -61.9745 	 7.52067 	 -14.604
| 35> C 	 -61.8853 	 5.87877 	 -13.3267
| 36> H 	 -62.5665 	 5.39266 	 -14.0337
| 37> H 	 -62.2745 	 6.15072 	 -12.3733
| 38> H 	 -61.1527 	 5.09486 	 -12.977
| 39> H 	 -57.7085 	 5.67475 	 -7.63273
| 40> H 	 -64.2485 	 10.045 	 -10.6385
| 41> *
| 42>
| 43>                          ****END OF INPUT****

CARTESIAN COORDINATES (ANGSTROEM)
---------------------------------
  S    -58.942500    7.617120   -8.543960
  C    -58.549000    5.969590   -8.247030
  C    -59.281500    5.131250   -9.132890
  C    -60.163700    5.873410  -10.004600
  C    -60.072700    7.237040   -9.860960
  H    -60.850300    5.470200  -10.711300
  C    -59.227500    3.607960   -9.192930
  H    -59.784400    3.194170  -10.062600
  H    -59.625800    3.215060   -8.274610
  C    -57.788000    3.121730   -9.115090
  H    -57.227200    3.487900   -9.979620
  H    -57.273700    3.494760   -8.203010
  C    -57.717100    1.543340   -9.125690
  H    -58.361900    1.224800  -10.017300
  H    -56.621200    1.368070   -9.311580
  H    -58.101900    1.184030   -8.182500
  S    -62.446900    8.465420   -9.431510
  C    -63.300500    9.348020  -10.696800
  C    -62.651000    9.238500  -11.858600
  C    -61.407700    8.492170  -11.743500
  C    -61.075900    8.110090  -10.430100
  H    -63.066500    9.651060  -12.767800
  C    -60.639000    8.123700  -13.006100
  H    -59.658300    7.793180  -12.897500
  H    -60.580000    9.006520  -13.590400
  C    -61.265700    7.063330  -13.986900
  H    -60.494300    6.720250  -14.688100
  H    -61.974500    7.520670  -14.604000
  C    -61.885300    5.878770  -13.326700
  H    -62.566500    5.392660  -14.033700
  H    -62.274500    6.150720  -12.373300
  H    -61.152700    5.094860  -12.977000
  H    -57.708500    5.674750   -7.632730
  H    -64.248500   10.045000  -10.638500

 Total Charge           Charge          ....    0
 Multiplicity           Mult            ....    1
 Number of Electrons    NEL             ....  134
 Basis Dimension        Dim             ....  322

ORBITAL ENERGIES
----------------

  NO   OCC          E(Eh)            E(eV)
   0   2.0000     -88.968734     -2420.9623
   1   2.0000     -88.961051     -2420.7533
   2   2.0000     -10.329103      -281.0692
   3   2.0000     -10.327745      -281.0322
   4   2.0000     -10.321819      -280.8710
   5   2.0000     -10.320674      -280.8398
   6   2.0000     -10.308373      -280.5051
   7   2.0000     -10.308158      -280.4992
   8   2.0000     -10.294812      -280.1361
   9   2.0000     -10.293103      -280.0896
  10   2.0000     -10.290951      -280.0310
  11   2.0000     -10.290091      -280.0076
  12   2.0000     -10.289356      -279.9876
  13   2.0000     -10.281064      -279.7620
  14   2.0000     -10.279287      -279.7136
  15   2.0000     -10.273223      -279.5486
  16   2.0000      -8.083271      -219.9570
  17   2.0000      -8.076078      -219.7612
  18   2.0000      -6.041746      -164.4043
  19   2.0000      -6.037641      -164.2926
  20   2.0000      -6.034827      -164.2160
  21   2.0000      -6.034221      -164.1995
  22   2.0000      -6.030477      -164.0976
  23   2.0000      -6.026582      -163.9916
  24   2.0000      -1.007211       -27.4076
  25   2.0000      -0.983886       -26.7729
  26   2.0000      -0.912372       -24.8269
  27   2.0000      -0.907705       -24.6999
  28   2.0000      -0.876695       -23.8561
  29   2.0000      -0.847589       -23.0641
  30   2.0000      -0.843402       -22.9501
  31   2.0000      -0.817534       -22.2462
  32   2.0000      -0.779720       -21.2173
  33   2.0000      -0.768126       -20.9018
  34   2.0000      -0.709589       -19.3089
  35   2.0000      -0.696230       -18.9454
  36   2.0000      -0.684817       -18.6348
  37   2.0000      -0.654859       -17.8196
  38   2.0000      -0.648552       -17.6480
  39   2.0000      -0.617614       -16.8061
  40   2.0000      -0.592075       -16.1112
  41   2.0000      -0.574956       -15.6453
  42   2.0000      -0.567517       -15.4429
  43   2.0000      -0.554862       -15.0986
  44   2.0000      -0.546908       -14.8821
  45   2.0000      -0.521105       -14.1800
  46   2.0000      -0.518882       -14.1195
  47   2.0000      -0.514015       -13.9871
  48   2.0000      -0.506579       -13.7847
  49   2.0000      -0.499953       -13.6044
  50   2.0000      -0.496373       -13.5070
  51   2.0000      -0.477168       -12.9844
  52   2.0000      -0.472896       -12.8681
  53   2.0000      -0.465179       -12.6582
  54   2.0000      -0.458619       -12.4797
  55   2.0000      -0.445185       -12.1141
  56   2.0000      -0.439404       -11.9568
  57   2.0000      -0.433546       -11.7974
  58   2.0000      -0.431077       -11.7302
  59   2.0000      -0.428086       -11.6488
  60   2.0000      -0.416238       -11.3264
  61   2.0000      -0.413737       -11.2584
  62   2.0000      -0.407521       -11.0892
  63   2.0000      -0.347565        -9.4577
  64   2.0000      -0.326792        -8.8925
  65   2.0000      -0.317280        -8.6336
  66   2.0000      -0.305396        -8.3102
  67   0.0000       0.034961         0.9513
  68   0.0000       0.058111         1.5813
  69   0.0000       0.117127         3.1872
  70   0.0000       0.124642         3.3917
  71   0.0000       0.126105         3.4315

MULLIKEN ATOMIC CHARGES
-----------------------
   0 S :    0.119604
   1 C :   -0.126135
   2 C :   -0.085053
   3 C :    0.053392
   4 C :   -0.155326
   5 H :   -0.016088
   6 C :    0.099262
   7 H :    0.032933
   8 H :    0.028149
   9 C :   -0.164405
  10 H :    0.034708
  11 H :    0.036206
  12 C :   -0.054584
  13 H :    0.042811
  14 H :    0.050884
  15 H :    0.040302
  16 S :    0.100999
  17 C :   -0.116223
  18 C :   -0.022165
  19 C :   -0.079650
  20 C :   -0.146729
  21 H :    0.018802
  22 C :    0.107585
  23 H :    0.011595
  24 H :    0.013423
  25 C :   -0.066288
  26 H :    0.027715
  27 H :    0.008070
  28 C :   -0.062592
  29 H :    0.039112
  30 H :    0.046538
  31 H :    0.027561
  32 H :    0.063577
  33 H :    0.092010
Sum of atomic charges:   -0.0000000

LOEWDIN ATOMIC CHARGES
----------------------
   0 S :    0.418679
   1 C :   -0.208022
   2 C :   -0.057642
   3 C :   -0.046722
   4 C :   -0.204230
   5 H :    0.026521
   6 C :   -0.035684
   7 H :    0.032823
   8 H :    0.032435
   9 C :   -0.045610
  10 H :    0.020421
  11 H :    0.022287
  12 C :   -0.067849
  13 H :    0.032726
  14 H :    0.035055
  15 H :    0.020803
  16 S :    0.405669
  17 C :   -0.198110
  18 C :   -0.079183
  19 C :   -0.055643
  20 C :   -0.204792
  21 H :    0.032957
  22 C :   -0.026886
  23 H :    0.021952
  24 H :    0.028874
  25 C :   -0.035632
  26 H :    0.028591
  27 H :    0.011751
  28 C :   -0.070011
  29 H :    0.030663
  30 H :    0.019103
  31 H :    0.025382
  32 H :    0.029344
  33 H :    0.059978

  Mayer bond orders larger than 0.100000
B(  0-S ,  1-C ) :   1.1638 B(  0-S ,  4-C ) :   1.1505 B(  1-C ,  2-C ) :   1.5604
B(  1-C , 32-H ) :   0.9679 B(  2-C ,  3-C ) :   1.2642 B(  2-C ,  6-C ) :   1.0244
B(  3-C ,  4-C ) :   1.5567 B(  3-C ,  5-H ) :   0.9937 B(  4-C , 20-C ) :   1.0212
B(  6-C ,  7-H ) :   0.9490 B(  6-C ,  8-H ) :   0.9302 B(  6-C ,  9-C ) :   1.0549
B(  9-C , 10-H ) :   0.9639 B(  9-C , 11-H ) :   0.9525 B(  9-C , 12-C ) :   1.0715
B( 12-C , 13-H ) :   0.9749 B( 12-C , 14-H ) :   0.9764 B( 12-C , 15-H ) :   0.9767
B( 16-S , 17-C ) :   1.1397 B( 16-S , 20-C ) :   1.1387 B( 17-C , 18-C ) :   1.6480
B( 17-C , 33-H ) :   0.9472 B( 18-C , 19-C ) :   1.2166 B( 18-C , 21-H ) :   0.9922
B( 19-C , 20-C ) :   1.6018 B( 19-C , 22-C ) :   1.0630 B( 22-C , 23-H ) :   0.9406
B( 22-C , 24-H ) :   0.9317 B( 22-C , 25-C ) :   1.0666 B( 25-C , 26-H ) :   0.9552
B( 25-C , 27-H ) :   0.9564 B( 25-C , 28-C ) :   1.0854 B( 28-C , 29-H ) :   0.9675
B( 28-C , 30-H ) :   0.9674 B( 28-C , 31-H ) :   0.9694

Dispersion correction           -0.014835194
FINAL SINGLE POINT ENERGY     -1339.859158735244

DIPOLE MOMENT
-------------
                                X             Y             Z
Electronic contribution:     -5.70995      23.01461      14.32731
Nuclear contribution   :      5.72245     -23.45579     -14.80003
                        -----------------------------------------
Total Dipole Moment    :      0.01250      -0.44119      -0.47272
                        -----------------------------------------
Magnitude (a.u.)       :      0.64673
Magnitude (Debye)      :      1.64387

Rotational constants in cm-1:     0.021047     0.008130     0.006643
Rotational constants in MHz :   630.969372   243.737858   199.156540

                             ****ORCA TERMINATED NORMALLY****
TOTAL RUN TIME: 0 days 0 hours 0 minutes 21 seconds 977 msec
