                         Program Version 4.2.1 -  RELEASE  -
|  1> ! wB97X-D3 SP def2-SVP
|  2> %pal
|  3> nprocs 24
|  4> end
|  5>
|  6> * xyz 0 1
|  7> S 	 -113.672 	 59.0597 	 -30.1077
|  8> C 	 -113.221 	 59.4901 	 -28.4784
|  9> C 	 -114.087 	 60.3452 	 -27.8002
| 10> C 	 -115.269 	 60.5708 	 -28.6344
| 11> C 	 -115.235 	 59.8703 	 -29.8541
| 12> H 	 -116.178 	 61.0626 	 -28.3933
| 13> C 	 -113.929 	 60.7927 	 -26.3779
| 14> H 	 -113.288 	 60.0813 	 -25.8427
| 15> H 	 -114.834 	 60.6411 	 -25.8614
| 16> C 	 -113.424 	 62.2491 	 -26.0722
| 17> H 	 -112.494 	 62.2717 	 -26.532
| 18> H 	 -114.009 	 63.0768 	 -26.4642
| 19> C 	 -113.35 	 62.2913 	 -24.579
| 20> H 	 -113.03 	 61.4945 	 -24.0392
| 21> H 	 -112.788 	 63.1054 	 -24.1478
| 22> H 	 -114.295 	 62.6767 	 -24.1274
| 23> S 	 -115.862 	 61.0119 	 -32.2809
| 24> C 	 -117.423 	 60.8568 	 -32.9605
| 25> C 	 -118.248 	 60.0342 	 -32.1985
| 26> C 	 -117.593 	 59.4706 	 -30.9952
| 27> C 	 -116.289 	 59.9339 	 -30.8928
| 28> H 	 -119.238 	 59.7033 	 -32.4255
| 29> C 	 -118.222 	 58.4879 	 -30.0353
| 30> H 	 -117.485 	 57.8954 	 -29.482
| 31> H 	 -118.533 	 57.7472 	 -30.7545
| 32> C 	 -119.288 	 59.1835 	 -29.1428
| 33> H 	 -119.878 	 58.3573 	 -28.8084
| 34> H 	 -119.967 	 59.7633 	 -29.7363
| 35> C 	 -118.87 	 59.9405 	 -27.908
| 36> H 	 -117.962 	 59.315 	 -27.5869
| 37> H 	 -119.591 	 59.8252 	 -27.1063
| 38> H 	 -118.565 	 60.9764 	 -28.0923
| 39> H 	 -112.396 	 58.9396 	 -28.0051
| 40> H 	 -117.812 	 61.2472 	 -33.9496
| 41> *
| 42>
| 43>                          ****END OF INPUT****

CARTESIAN COORDINATES (ANGSTROEM)
---------------------------------
  S    -113.672000   59.059700  -30.107700
  C    -113.221000   59.490100  -28.478400
  C    -114.087000   60.345200  -27.800200
  C    -115.269000   60.570800  -28.634400
  C    -115.235000   59.870300  -29.854100
  H    -116.178000   61.062600  -28.393300
  C    -113.929000   60.792700  -26.377900
  H    -113.288000   60.081300  -25.842700
  H    -114.834000   60.641100  -25.861400
  C    -113.424000   62.249100  -26.072200
  H    -112.494000   62.271700  -26.532000
  H    -114.009000   63.076800  -26.464200
  C    -113.350000   62.291300  -24.579000
  H    -113.030000   61.494500  -24.039200
  H    -112.788000   63.105400  -24.147800
  H    -114.295000   62.676700  -24.127400
  S    -115.862000   61.011900  -32.280900
  C    -117.423000   60.856800  -32.960500
  C    -118.248000   60.034200  -32.198500
  C    -117.593000   59.470600  -30.995200
  C    -116.289000   59.933900  -30.892800
  H    -119.238000   59.703300  -32.425500
  C    -118.222000   58.487900  -30.035300
  H    -117.485000   57.895400  -29.482000
  H    -118.533000   57.747200  -30.754500
  C    -119.288000   59.183500  -29.142800
  H    -119.878000   58.357300  -28.808400
  H    -119.967000   59.763300  -29.736300
  C    -118.870000   59.940500  -27.908000
  H    -117.962000   59.315000  -27.586900
  H    -119.591000   59.825200  -27.106300
  H    -118.565000   60.976400  -28.092300
  H    -112.396000   58.939600  -28.005100
  H    -117.812000   61.247200  -33.949600

 Total Charge           Charge          ....    0
 Multiplicity           Mult            ....    1
 Number of Electrons    NEL             ....  134
 Basis Dimension        Dim             ....  322

ORBITAL ENERGIES
----------------

  NO   OCC          E(Eh)            E(eV)
   0   2.0000     -88.965884     -2420.8848
   1   2.0000     -88.959754     -2420.7180
   2   2.0000     -10.330744      -281.1138
   3   2.0000     -10.325249      -280.9643
   4   2.0000     -10.321013      -280.8490
   5   2.0000     -10.315587      -280.7014
   6   2.0000     -10.305553      -280.4283
   7   2.0000     -10.305156      -280.4176
   8   2.0000     -10.297128      -280.1991
   9   2.0000     -10.294454      -280.1263
  10   2.0000     -10.293790      -280.1083
  11   2.0000     -10.289684      -279.9965
  12   2.0000     -10.284100      -279.8446
  13   2.0000     -10.283940      -279.8402
  14   2.0000     -10.283678      -279.8331
  15   2.0000     -10.269090      -279.4361
  16   2.0000      -8.080336      -219.8771
  17   2.0000      -8.074541      -219.7194
  18   2.0000      -6.038757      -164.3229
  19   2.0000      -6.034995      -164.2206
  20   2.0000      -6.033142      -164.1702
  21   2.0000      -6.031109      -164.1148
  22   2.0000      -6.029022      -164.0580
  23   2.0000      -6.025204      -163.9541
  24   2.0000      -0.994728       -27.0679
  25   2.0000      -0.974654       -26.5217
  26   2.0000      -0.914418       -24.8826
  27   2.0000      -0.910983       -24.7891
  28   2.0000      -0.864268       -23.5179
  29   2.0000      -0.851844       -23.1799
  30   2.0000      -0.847261       -23.0551
  31   2.0000      -0.808282       -21.9945
  32   2.0000      -0.783619       -21.3233
  33   2.0000      -0.769453       -20.9379
  34   2.0000      -0.716446       -19.4955
  35   2.0000      -0.703121       -19.1329
  36   2.0000      -0.686308       -18.6754
  37   2.0000      -0.655252       -17.8303
  38   2.0000      -0.645435       -17.5632
  39   2.0000      -0.613160       -16.6849
  40   2.0000      -0.595906       -16.2154
  41   2.0000      -0.572122       -15.5682
  42   2.0000      -0.560562       -15.2537
  43   2.0000      -0.555205       -15.1079
  44   2.0000      -0.547042       -14.8858
  45   2.0000      -0.516405       -14.0521
  46   2.0000      -0.514328       -13.9956
  47   2.0000      -0.509900       -13.8751
  48   2.0000      -0.501466       -13.6456
  49   2.0000      -0.493047       -13.4165
  50   2.0000      -0.487693       -13.2708
  51   2.0000      -0.477326       -12.9887
  52   2.0000      -0.472843       -12.8667
  53   2.0000      -0.465114       -12.6564
  54   2.0000      -0.455718       -12.4007
  55   2.0000      -0.449083       -12.2202
  56   2.0000      -0.445755       -12.1296
  57   2.0000      -0.440384       -11.9835
  58   2.0000      -0.437852       -11.9146
  59   2.0000      -0.428941       -11.6721
  60   2.0000      -0.422627       -11.5003
  61   2.0000      -0.410540       -11.1714
  62   2.0000      -0.401088       -10.9142
  63   2.0000      -0.333599        -9.0777
  64   2.0000      -0.326638        -8.8883
  65   2.0000      -0.321849        -8.7580
  66   2.0000      -0.299001        -8.1362
  67   0.0000       0.042491         1.1562
  68   0.0000       0.058279         1.5859
  69   0.0000       0.118323         3.2197
  70   0.0000       0.120164         3.2698
  71   0.0000       0.122715         3.3392

MULLIKEN ATOMIC CHARGES
-----------------------
   0 S :    0.110726
   1 C :   -0.133472
   2 C :   -0.049108
   3 C :    0.082926
   4 C :   -0.187272
   5 H :   -0.014798
   6 C :    0.025291
   7 H :    0.016796
   8 H :    0.012683
   9 C :    0.003898
  10 H :    0.016807
  11 H :    0.036535
  12 C :   -0.028453
  13 H :    0.010217
  14 H :    0.009206
  15 H :    0.022820
  16 S :    0.100844
  17 C :   -0.087217
  18 C :   -0.032275
  19 C :   -0.060356
  20 C :   -0.184075
  21 H :    0.004022
  22 C :    0.064806
  23 H :    0.029941
  24 H :    0.027975
  25 C :   -0.051764
  26 H :    0.018381
  27 H :    0.018632
  28 C :   -0.055412
  29 H :    0.033959
  30 H :    0.040720
  31 H :    0.059059
  32 H :    0.058142
  33 H :    0.079815
Sum of atomic charges:    0.0000000

LOEWDIN ATOMIC CHARGES
----------------------
   0 S :    0.391692
   1 C :   -0.196248
   2 C :   -0.062061
   3 C :   -0.042925
   4 C :   -0.197425
   5 H :    0.024240
   6 C :   -0.031036
   7 H :    0.033291
   8 H :    0.023892
   9 C :   -0.022768
  10 H :    0.016252
  11 H :    0.030187
  12 C :   -0.068652
  13 H :    0.010187
  14 H :    0.026389
  15 H :    0.034577
  16 S :    0.392384
  17 C :   -0.206214
  18 C :   -0.078211
  19 C :   -0.051232
  20 C :   -0.191549
  21 H :    0.022041
  22 C :   -0.032218
  23 H :    0.034411
  24 H :    0.037094
  25 C :   -0.039437
  26 H :    0.024055
  27 H :    0.019066
  28 C :   -0.066334
  29 H :    0.036896
  30 H :    0.029132
  31 H :    0.025421
  32 H :    0.028185
  33 H :    0.046920

  Mayer bond orders larger than 0.100000
B(  0-S ,  1-C ) :   1.1445 B(  0-S ,  4-C ) :   1.1370 B(  1-C ,  2-C ) :   1.6203
B(  1-C , 32-H ) :   0.9610 B(  2-C ,  3-C ) :   1.2081 B(  2-C ,  6-C ) :   1.0240
B(  3-C ,  4-C ) :   1.6061 B(  3-C ,  5-H ) :   0.9937 B(  4-C , 20-C ) :   1.0051
B(  6-C ,  7-H ) :   0.9463 B(  6-C ,  8-H ) :   0.9412 B(  6-C ,  9-C ) :   1.0474
B(  9-C , 10-H ) :   0.9561 B(  9-C , 11-H ) :   0.9562 B(  9-C , 12-C ) :   1.0833
B( 12-C , 13-H ) :   0.9762 B( 12-C , 14-H ) :   0.9634 B( 12-C , 15-H ) :   0.9681
B( 16-S , 17-C ) :   1.1549 B( 16-S , 20-C ) :   1.1208 B( 17-C , 18-C ) :   1.6179
B( 17-C , 33-H ) :   0.9564 B( 18-C , 19-C ) :   1.2214 B( 18-C , 21-H ) :   0.9854
B( 19-C , 20-C ) :   1.6446 B( 19-C , 22-C ) :   1.0249 B( 22-C , 23-H ) :   0.9382
B( 22-C , 24-H ) :   0.9333 B( 22-C , 25-C ) :   1.0622 B( 25-C , 26-H ) :   0.9517
B( 25-C , 27-H ) :   0.9575 B( 25-C , 28-C ) :   1.0742 B( 28-C , 29-H ) :   0.9698
B( 28-C , 30-H ) :   0.9710 B( 28-C , 31-H ) :   0.9686

Dispersion correction           -0.014577533
FINAL SINGLE POINT ENERGY     -1339.851407539548

DIPOLE MOMENT
-------------
                                X             Y             Z
Electronic contribution:      8.35820      -4.23814     -26.84940
Nuclear contribution   :     -8.80326       4.12498      27.49578
                        -----------------------------------------
Total Dipole Moment    :     -0.44507      -0.11316       0.64639
                        -----------------------------------------
Magnitude (a.u.)       :      0.79291
Magnitude (Debye)      :      2.01541

Rotational constants in cm-1:     0.019261     0.008131     0.006793
Rotational constants in MHz :   577.421972   243.774919   203.640586

                             ****ORCA TERMINATED NORMALLY****
TOTAL RUN TIME: 0 days 0 hours 0 minutes 21 seconds 520 msec
