                         Program Version 4.2.1 -  RELEASE  -
|  1> ! wB97X-D3 SP def2-SVP
|  2> %pal
|  3> nprocs 24
|  4> end
|  5>
|  6> * xyz 0 1
|  7> S 	 -126.852 	 62.9675 	 -49.9712
|  8> C 	 -125.242 	 63.7278 	 -50.0486
|  9> C 	 -125.389 	 64.9996 	 -50.6274
| 10> C 	 -126.744 	 65.209 	 -51.2026
| 11> C 	 -127.651 	 64.1852 	 -50.9706
| 12> H 	 -127.047 	 66.0839 	 -51.7404
| 13> C 	 -124.202 	 65.8847 	 -50.9734
| 14> H 	 -123.334 	 65.2104 	 -50.8379
| 15> H 	 -123.911 	 66.5565 	 -50.1752
| 16> C 	 -124.187 	 66.6613 	 -52.2776
| 17> H 	 -124.999 	 67.3531 	 -52.3768
| 18> H 	 -123.215 	 67.1467 	 -52.3692
| 19> C 	 -124.145 	 65.6809 	 -53.465
| 20> H 	 -125.116 	 65.233 	 -53.6363
| 21> H 	 -123.852 	 66.1188 	 -54.4706
| 22> H 	 -123.326 	 64.8941 	 -53.3656
| 23> S 	 -129.46 	 64.5197 	 -53.0571
| 24> C 	 -131.121 	 64.2663 	 -52.8425
| 25> C 	 -131.411 	 63.7612 	 -51.5474
| 26> C 	 -130.232 	 63.7481 	 -50.708
| 27> C 	 -129.068 	 64.1824 	 -51.3509
| 28> H 	 -132.426 	 63.564 	 -51.1792
| 29> C 	 -130.276 	 62.9993 	 -49.4051
| 30> H 	 -131.051 	 63.4656 	 -48.7728
| 31> H 	 -129.361 	 63.2588 	 -48.8777
| 32> C 	 -130.591 	 61.5226 	 -49.3798
| 33> H 	 -130.036 	 60.9843 	 -50.1587
| 34> H 	 -131.659 	 61.3349 	 -49.4482
| 35> C 	 -130.272 	 60.7955 	 -48.0714
| 36> H 	 -130.483 	 59.7931 	 -48.2828
| 37> H 	 -130.752 	 61.1635 	 -47.1423
| 38> H 	 -129.205 	 60.6663 	 -47.8171
| 39> H 	 -124.365 	 63.2972 	 -49.6027
| 40> H 	 -131.876 	 64.2508 	 -53.5786
| 41> *
| 42>
| 43>                          ****END OF INPUT****

CARTESIAN COORDINATES (ANGSTROEM)
---------------------------------
  S    -126.852000   62.967500  -49.971200
  C    -125.242000   63.727800  -50.048600
  C    -125.389000   64.999600  -50.627400
  C    -126.744000   65.209000  -51.202600
  C    -127.651000   64.185200  -50.970600
  H    -127.047000   66.083900  -51.740400
  C    -124.202000   65.884700  -50.973400
  H    -123.334000   65.210400  -50.837900
  H    -123.911000   66.556500  -50.175200
  C    -124.187000   66.661300  -52.277600
  H    -124.999000   67.353100  -52.376800
  H    -123.215000   67.146700  -52.369200
  C    -124.145000   65.680900  -53.465000
  H    -125.116000   65.233000  -53.636300
  H    -123.852000   66.118800  -54.470600
  H    -123.326000   64.894100  -53.365600
  S    -129.460000   64.519700  -53.057100
  C    -131.121000   64.266300  -52.842500
  C    -131.411000   63.761200  -51.547400
  C    -130.232000   63.748100  -50.708000
  C    -129.068000   64.182400  -51.350900
  H    -132.426000   63.564000  -51.179200
  C    -130.276000   62.999300  -49.405100
  H    -131.051000   63.465600  -48.772800
  H    -129.361000   63.258800  -48.877700
  C    -130.591000   61.522600  -49.379800
  H    -130.036000   60.984300  -50.158700
  H    -131.659000   61.334900  -49.448200
  C    -130.272000   60.795500  -48.071400
  H    -130.483000   59.793100  -48.282800
  H    -130.752000   61.163500  -47.142300
  H    -129.205000   60.666300  -47.817100
  H    -124.365000   63.297200  -49.602700
  H    -131.876000   64.250800  -53.578600

 Total Charge           Charge          ....    0
 Multiplicity           Mult            ....    1
 Number of Electrons    NEL             ....  134
 Basis Dimension        Dim             ....  322

ORBITAL ENERGIES
----------------

  NO   OCC          E(Eh)            E(eV)
   0   2.0000     -88.970141     -2421.0006
   1   2.0000     -88.966169     -2420.8925
   2   2.0000     -10.337036      -281.2851
   3   2.0000     -10.333009      -281.1755
   4   2.0000     -10.322119      -280.8791
   5   2.0000     -10.317880      -280.7638
   6   2.0000     -10.313159      -280.6353
   7   2.0000     -10.305410      -280.4245
   8   2.0000     -10.299487      -280.2633
   9   2.0000     -10.299013      -280.2504
  10   2.0000     -10.292690      -280.0783
  11   2.0000     -10.288639      -279.9681
  12   2.0000     -10.285338      -279.8783
  13   2.0000     -10.284956      -279.8679
  14   2.0000     -10.280135      -279.7367
  15   2.0000     -10.272240      -279.5219
  16   2.0000      -8.084957      -220.0029
  17   2.0000      -8.079647      -219.8584
  18   2.0000      -6.043475      -164.4513
  19   2.0000      -6.039351      -164.3391
  20   2.0000      -6.038404      -164.3133
  21   2.0000      -6.035794      -164.2423
  22   2.0000      -6.034208      -164.1992
  23   2.0000      -6.030324      -164.0935
  24   2.0000      -1.001956       -27.2646
  25   2.0000      -0.978724       -26.6324
  26   2.0000      -0.912728       -24.8366
  27   2.0000      -0.910496       -24.7759
  28   2.0000      -0.869287       -23.6545
  29   2.0000      -0.854120       -23.2418
  30   2.0000      -0.836092       -22.7512
  31   2.0000      -0.812730       -22.1155
  32   2.0000      -0.783036       -21.3075
  33   2.0000      -0.771325       -20.9888
  34   2.0000      -0.708328       -19.2746
  35   2.0000      -0.699082       -19.0230
  36   2.0000      -0.689932       -18.7740
  37   2.0000      -0.665916       -18.1205
  38   2.0000      -0.636677       -17.3249
  39   2.0000      -0.620141       -16.8749
  40   2.0000      -0.595973       -16.2173
  41   2.0000      -0.570243       -15.5171
  42   2.0000      -0.566549       -15.4166
  43   2.0000      -0.547487       -14.8979
  44   2.0000      -0.541425       -14.7329
  45   2.0000      -0.529730       -14.4147
  46   2.0000      -0.522062       -14.2060
  47   2.0000      -0.515300       -14.0220
  48   2.0000      -0.507285       -13.8039
  49   2.0000      -0.498997       -13.5784
  50   2.0000      -0.482553       -13.1309
  51   2.0000      -0.474845       -12.9212
  52   2.0000      -0.470307       -12.7977
  53   2.0000      -0.465051       -12.6547
  54   2.0000      -0.461204       -12.5500
  55   2.0000      -0.441281       -12.0079
  56   2.0000      -0.434190       -11.8149
  57   2.0000      -0.433183       -11.7875
  58   2.0000      -0.430089       -11.7033
  59   2.0000      -0.426705       -11.6112
  60   2.0000      -0.417574       -11.3628
  61   2.0000      -0.414583       -11.2814
  62   2.0000      -0.405159       -11.0249
  63   2.0000      -0.352078        -9.5805
  64   2.0000      -0.328920        -8.9504
  65   2.0000      -0.323375        -8.7995
  66   2.0000      -0.291591        -7.9346
  67   0.0000       0.025984         0.7071
  68   0.0000       0.066395         1.8067
  69   0.0000       0.106747         2.9047
  70   0.0000       0.107489         2.9249
  71   0.0000       0.127291         3.4638

MULLIKEN ATOMIC CHARGES
-----------------------
   0 S :    0.090493
   1 C :   -0.122242
   2 C :   -0.067976
   3 C :    0.008410
   4 C :   -0.112346
   5 H :    0.008595
   6 C :    0.049975
   7 H :    0.008673
   8 H :    0.029512
   9 C :   -0.033994
  10 H :    0.039881
  11 H :    0.031859
  12 C :   -0.101987
  13 H :    0.040495
  14 H :    0.032105
  15 H :    0.035199
  16 S :    0.118003
  17 C :   -0.064346
  18 C :   -0.059887
  19 C :   -0.048880
  20 C :   -0.145675
  21 H :    0.031713
  22 C :    0.053221
  23 H :    0.019018
  24 H :    0.016859
  25 C :   -0.048865
  26 H :    0.034907
  27 H :    0.028245
  28 C :   -0.056493
  29 H :    0.016454
  30 H :    0.039224
  31 H :    0.024322
  32 H :    0.057687
  33 H :    0.047842
Sum of atomic charges:   -0.0000000

LOEWDIN ATOMIC CHARGES
----------------------
   0 S :    0.390501
   1 C :   -0.184541
   2 C :   -0.053719
   3 C :   -0.065789
   4 C :   -0.186550
   5 H :    0.024724
   6 C :   -0.043395
   7 H :    0.034318
   8 H :    0.032399
   9 C :   -0.038732
  10 H :    0.023525
  11 H :    0.033229
  12 C :   -0.076478
  13 H :    0.020730
  14 H :    0.027022
  15 H :    0.030798
  16 S :    0.429331
  17 C :   -0.196608
  18 C :   -0.070858
  19 C :   -0.055093
  20 C :   -0.193319
  21 H :    0.034205
  22 C :   -0.047337
  23 H :    0.034623
  24 H :    0.019548
  25 C :   -0.036743
  26 H :    0.028832
  27 H :    0.026551
  28 C :   -0.068264
  29 H :    0.021548
  30 H :    0.026945
  31 H :    0.025564
  32 H :    0.029099
  33 H :    0.023934

  Mayer bond orders larger than 0.100000
B(  0-S ,  1-C ) :   1.1289 B(  0-S ,  4-C ) :   1.1302 B(  1-C ,  2-C ) :   1.6083
B(  1-C , 32-H ) :   0.9719 B(  2-C ,  3-C ) :   1.2203 B(  2-C ,  6-C ) :   1.0196
B(  3-C ,  4-C ) :   1.5772 B(  3-C ,  5-H ) :   0.9928 B(  4-C , 20-C ) :   1.0438
B(  6-C ,  7-H ) :   0.9401 B(  6-C ,  8-H ) :   0.9261 B(  6-C ,  9-C ) :   1.0865
B(  9-C , 10-H ) :   0.9516 B(  9-C , 11-H ) :   0.9490 B(  9-C , 12-C ) :   1.0713
B( 12-C , 13-H ) :   0.9758 B( 12-C , 14-H ) :   0.9767 B( 12-C , 15-H ) :   0.9750
B( 16-S , 17-C ) :   1.1832 B( 16-S , 20-C ) :   1.1360 B( 17-C , 18-C ) :   1.5698
B( 17-C , 33-H ) :   0.9706 B( 18-C , 19-C ) :   1.2579 B( 18-C , 21-H ) :   0.9875
B( 19-C , 20-C ) :   1.5693 B( 19-C , 22-C ) :   1.0715 B( 22-C , 23-H ) :   0.9156
B( 22-C , 24-H ) :   0.9349 B( 22-C , 25-C ) :   1.0653 B( 25-C , 26-H ) :   0.9554
B( 25-C , 27-H ) :   0.9493 B( 25-C , 28-C ) :   1.0903 B( 28-C , 29-H ) :   0.9709
B( 28-C , 30-H ) :   0.9751 B( 28-C , 31-H ) :   0.9709

Dispersion correction           -0.014469008
FINAL SINGLE POINT ENERGY     -1339.867259557843

DIPOLE MOMENT
-------------
                                X             Y             Z
Electronic contribution:     -6.35748       1.63388      -4.88706
Nuclear contribution   :      6.44678      -1.60555       4.96132
                        -----------------------------------------
Total Dipole Moment    :      0.08930       0.02833       0.07426
                        -----------------------------------------
Magnitude (a.u.)       :      0.11955
Magnitude (Debye)      :      0.30387

Rotational constants in cm-1:     0.021150     0.008584     0.006437
Rotational constants in MHz :   634.058437   257.327994   192.988297

                             ****ORCA TERMINATED NORMALLY****
TOTAL RUN TIME: 0 days 0 hours 0 minutes 20 seconds 150 msec
