                         Program Version 4.2.1 -  RELEASE  -
|  1> ! wB97X-D3 SP def2-SVP
|  2> %pal
|  3> nprocs 24
|  4> end
|  5>
|  6> * xyz 0 1
|  7> S 	 -50.1311 	 26.8206 	 26.4982
|  8> C 	 -49.26 	 26.9443 	 24.9684
|  9> C 	 -48.2615 	 27.974 	 25.0657
| 10> C 	 -48.196 	 28.5996 	 26.3764
| 11> C 	 -49.2315 	 28.1532 	 27.1812
| 12> H 	 -47.5025 	 29.3862 	 26.5927
| 13> C 	 -47.3248 	 28.3315 	 23.8674
| 14> H 	 -47.2709 	 29.4345 	 23.8679
| 15> H 	 -47.7579 	 28.0108 	 22.9471
| 16> C 	 -45.8294 	 27.9947 	 24.0994
| 17> H 	 -45.3932 	 28.1926 	 25.0904
| 18> H 	 -45.5906 	 26.9806 	 23.898
| 19> C 	 -44.9148 	 28.8292 	 23.2126
| 20> H 	 -44.0464 	 28.2562 	 22.8859
| 21> H 	 -45.364 	 29.0125 	 22.2444
| 22> H 	 -44.6194 	 29.7552 	 23.7413
| 23> S 	 -49.3978 	 27.5801 	 29.8023
| 24> C 	 -49.9542 	 28.7197 	 30.93
| 25> C 	 -50.189 	 29.9466 	 30.3774
| 26> C 	 -50.0756 	 29.9596 	 28.9198
| 27> C 	 -49.6531 	 28.6975 	 28.4767
| 28> H 	 -50.42 	 30.8708 	 30.9795
| 29> C 	 -50.0712 	 31.1848 	 28.0378
| 30> H 	 -50.9994 	 31.669 	 28.2827
| 31> H 	 -50.1665 	 30.796 	 26.9892
| 32> C 	 -48.9419 	 32.1209 	 27.9867
| 33> H 	 -48.0059 	 31.6534 	 27.726
| 34> H 	 -48.7883 	 32.424 	 28.9535
| 35> C 	 -49.1086 	 33.4005 	 27.1351
| 36> H 	 -48.2852 	 34.1512 	 27.2858
| 37> H 	 -50.0488 	 33.8842 	 27.3265
| 38> H 	 -49.0778 	 33.1635 	 26.0411
| 39> H 	 -49.5057 	 26.4432 	 24.012
| 40> H 	 -50.0564 	 28.7309 	 31.9813
| 41> *
| 42>
| 43>                          ****END OF INPUT****

CARTESIAN COORDINATES (ANGSTROEM)
---------------------------------
  S    -50.131100   26.820600   26.498200
  C    -49.260000   26.944300   24.968400
  C    -48.261500   27.974000   25.065700
  C    -48.196000   28.599600   26.376400
  C    -49.231500   28.153200   27.181200
  H    -47.502500   29.386200   26.592700
  C    -47.324800   28.331500   23.867400
  H    -47.270900   29.434500   23.867900
  H    -47.757900   28.010800   22.947100
  C    -45.829400   27.994700   24.099400
  H    -45.393200   28.192600   25.090400
  H    -45.590600   26.980600   23.898000
  C    -44.914800   28.829200   23.212600
  H    -44.046400   28.256200   22.885900
  H    -45.364000   29.012500   22.244400
  H    -44.619400   29.755200   23.741300
  S    -49.397800   27.580100   29.802300
  C    -49.954200   28.719700   30.930000
  C    -50.189000   29.946600   30.377400
  C    -50.075600   29.959600   28.919800
  C    -49.653100   28.697500   28.476700
  H    -50.420000   30.870800   30.979500
  C    -50.071200   31.184800   28.037800
  H    -50.999400   31.669000   28.282700
  H    -50.166500   30.796000   26.989200
  C    -48.941900   32.120900   27.986700
  H    -48.005900   31.653400   27.726000
  H    -48.788300   32.424000   28.953500
  C    -49.108600   33.400500   27.135100
  H    -48.285200   34.151200   27.285800
  H    -50.048800   33.884200   27.326500
  H    -49.077800   33.163500   26.041100
  H    -49.505700   26.443200   24.012000
  H    -50.056400   28.730900   31.981300

 Total Charge           Charge          ....    0
 Multiplicity           Mult            ....    1
 Number of Electrons    NEL             ....  134
 Basis Dimension        Dim             ....  322

ORBITAL ENERGIES
----------------

  NO   OCC          E(Eh)            E(eV)
   0   2.0000     -88.968640     -2420.9598
   1   2.0000     -88.966039     -2420.8890
   2   2.0000     -10.331990      -281.1477
   3   2.0000     -10.325745      -280.9778
   4   2.0000     -10.321360      -280.8585
   5   2.0000     -10.310932      -280.5747
   6   2.0000     -10.307992      -280.4947
   7   2.0000     -10.306522      -280.4547
   8   2.0000     -10.299886      -280.2742
   9   2.0000     -10.299236      -280.2564
  10   2.0000     -10.295953      -280.1671
  11   2.0000     -10.286991      -279.9233
  12   2.0000     -10.285289      -279.8769
  13   2.0000     -10.284187      -279.8470
  14   2.0000     -10.276444      -279.6362
  15   2.0000     -10.276402      -279.6351
  16   2.0000      -8.082922      -219.9475
  17   2.0000      -8.081565      -219.9106
  18   2.0000      -6.041440      -164.3959
  19   2.0000      -6.040140      -164.3606
  20   2.0000      -6.037432      -164.2869
  21   2.0000      -6.035894      -164.2450
  22   2.0000      -6.033736      -164.1863
  23   2.0000      -6.032258      -164.1461
  24   2.0000      -1.006041       -27.3758
  25   2.0000      -0.979447       -26.6521
  26   2.0000      -0.917841       -24.9757
  27   2.0000      -0.909614       -24.7518
  28   2.0000      -0.866959       -23.5912
  29   2.0000      -0.852096       -23.1867
  30   2.0000      -0.846360       -23.0306
  31   2.0000      -0.814603       -22.1665
  32   2.0000      -0.783008       -21.3067
  33   2.0000      -0.768087       -20.9007
  34   2.0000      -0.709504       -19.3066
  35   2.0000      -0.700583       -19.0638
  36   2.0000      -0.692684       -18.8489
  37   2.0000      -0.656120       -17.8539
  38   2.0000      -0.639360       -17.3979
  39   2.0000      -0.623067       -16.9545
  40   2.0000      -0.594451       -16.1758
  41   2.0000      -0.572281       -15.5726
  42   2.0000      -0.569984       -15.5101
  43   2.0000      -0.560161       -15.2428
  44   2.0000      -0.528787       -14.3890
  45   2.0000      -0.520534       -14.1644
  46   2.0000      -0.517464       -14.0809
  47   2.0000      -0.509709       -13.8699
  48   2.0000      -0.503949       -13.7131
  49   2.0000      -0.501317       -13.6415
  50   2.0000      -0.496551       -13.5118
  51   2.0000      -0.472489       -12.8571
  52   2.0000      -0.470265       -12.7966
  53   2.0000      -0.461526       -12.5588
  54   2.0000      -0.456977       -12.4350
  55   2.0000      -0.454012       -12.3543
  56   2.0000      -0.452748       -12.3199
  57   2.0000      -0.441883       -12.0242
  58   2.0000      -0.434780       -11.8310
  59   2.0000      -0.423075       -11.5125
  60   2.0000      -0.420589       -11.4448
  61   2.0000      -0.414248       -11.2723
  62   2.0000      -0.407872       -11.0988
  63   2.0000      -0.339155        -9.2289
  64   2.0000      -0.328100        -8.9281
  65   2.0000      -0.326818        -8.8932
  66   2.0000      -0.298407        -8.1201
  67   0.0000       0.037253         1.0137
  68   0.0000       0.061798         1.6816
  69   0.0000       0.114859         3.1255
  70   0.0000       0.116807         3.1785
  71   0.0000       0.124770         3.3952

MULLIKEN ATOMIC CHARGES
-----------------------
   0 S :    0.125894
   1 C :   -0.130069
   2 C :   -0.127109
   3 C :    0.066708
   4 C :   -0.153717
   5 H :    0.009301
   6 C :    0.085721
   7 H :    0.024239
   8 H :    0.021956
   9 C :   -0.064925
  10 H :    0.034567
  11 H :    0.020632
  12 C :   -0.070808
  13 H :    0.026519
  14 H :    0.020833
  15 H :    0.044477
  16 S :    0.126039
  17 C :   -0.038358
  18 C :   -0.094869
  19 C :   -0.019472
  20 C :   -0.190450
  21 H :    0.037877
  22 C :    0.051967
  23 H :    0.015596
  24 H :    0.030436
  25 C :    0.014287
  26 H :    0.009946
  27 H :   -0.009419
  28 C :   -0.073708
  29 H :    0.043995
  30 H :    0.027977
  31 H :    0.035254
  32 H :    0.063851
  33 H :    0.034832
Sum of atomic charges:    0.0000000

LOEWDIN ATOMIC CHARGES
----------------------
   0 S :    0.410916
   1 C :   -0.214318
   2 C :   -0.053080
   3 C :   -0.057127
   4 C :   -0.199478
   5 H :    0.029537
   6 C :   -0.025899
   7 H :    0.033387
   8 H :    0.026572
   9 C :   -0.043204
  10 H :    0.030327
  11 H :    0.017478
  12 C :   -0.069970
  13 H :    0.027937
  14 H :    0.020543
  15 H :    0.027575
  16 S :    0.432076
  17 C :   -0.205257
  18 C :   -0.079956
  19 C :   -0.051916
  20 C :   -0.201030
  21 H :    0.038238
  22 C :   -0.036995
  23 H :    0.028782
  24 H :    0.037293
  25 C :   -0.038130
  26 H :    0.021792
  27 H :    0.011405
  28 C :   -0.063739
  29 H :    0.033862
  30 H :    0.020573
  31 H :    0.027695
  32 H :    0.036139
  33 H :    0.027968

  Mayer bond orders larger than 0.100000
B(  0-S ,  1-C ) :   1.1307 B(  0-S ,  4-C ) :   1.1709 B(  1-C ,  2-C ) :   1.6041
B(  1-C , 32-H ) :   0.9651 B(  2-C ,  3-C ) :   1.2371 B(  2-C ,  6-C ) :   1.0280
B(  3-C ,  4-C ) :   1.5622 B(  3-C ,  5-H ) :   0.9961 B(  4-C , 20-C ) :   0.9961
B(  6-C ,  7-H ) :   0.9449 B(  6-C ,  8-H ) :   0.9439 B(  6-C ,  9-C ) :   1.0446
B(  9-C , 10-H ) :   0.9642 B(  9-C , 11-H ) :   0.9604 B(  9-C , 12-C ) :   1.0744
B( 12-C , 13-H ) :   0.9738 B( 12-C , 14-H ) :   0.9743 B( 12-C , 15-H ) :   0.9793
B( 16-S , 17-C ) :   1.1475 B( 16-S , 20-C ) :   1.1584 B( 17-C , 18-C ) :   1.6350
B( 17-C , 33-H ) :   0.9650 B( 18-C , 19-C ) :   1.2271 B( 18-C , 21-H ) :   0.9760
B( 19-C , 20-C ) :   1.6018 B( 19-C , 22-C ) :   1.0585 B( 22-C , 23-H ) :   0.9189
B( 22-C , 24-H ) :   0.9287 B( 22-C , 25-C ) :   1.0794 B( 25-C , 26-H ) :   0.9450
B( 25-C , 27-H ) :   0.9407 B( 25-C , 28-C ) :   1.0810 B( 28-C , 29-H ) :   0.9747
B( 28-C , 30-H ) :   0.9753 B( 28-C , 31-H ) :   0.9765

Dispersion correction           -0.013912186
FINAL SINGLE POINT ENERGY     -1339.861884161043

DIPOLE MOMENT
-------------
                                X             Y             Z
Electronic contribution:    -15.55407     -21.47246      16.83104
Nuclear contribution   :     15.93803      22.05728     -17.11224
                        -----------------------------------------
Total Dipole Moment    :      0.38397       0.58482      -0.28120
                        -----------------------------------------
Magnitude (a.u.)       :      0.75400
Magnitude (Debye)      :      1.91652

Rotational constants in cm-1:     0.016610     0.008788     0.006656
Rotational constants in MHz :   497.953286   263.460994   199.537316

                             ****ORCA TERMINATED NORMALLY****
TOTAL RUN TIME: 0 days 0 hours 0 minutes 21 seconds 232 msec
