                         Program Version 4.2.1 -  RELEASE  -
|  1> ! wB97X-D3 SP def2-SVP
|  2> %pal
|  3> nprocs 24
|  4> end
|  5>
|  6> * xyz 0 1
|  7> S 	 -105.139 	 -0.154952 	 -115.229
|  8> C 	 -105.965 	 0.830981 	 -116.446
|  9> C 	 -107.295 	 0.630452 	 -116.373
| 10> C 	 -107.652 	 -0.332437 	 -115.373
| 11> C 	 -106.586 	 -0.771058 	 -114.616
| 12> H 	 -108.582 	 -0.747669 	 -115.174
| 13> C 	 -108.269 	 1.38556 	 -117.161
| 14> H 	 -109.264 	 0.989166 	 -117.175
| 15> H 	 -107.963 	 1.353 	 -118.209
| 16> C 	 -108.372 	 2.78033 	 -116.573
| 17> H 	 -107.524 	 3.34799 	 -116.973
| 18> H 	 -109.106 	 3.28206 	 -117.211
| 19> C 	 -108.696 	 3.03835 	 -115.061
| 20> H 	 -109.633 	 2.762 	 -114.681
| 21> H 	 -107.928 	 2.53428 	 -114.361
| 22> H 	 -108.672 	 4.12356 	 -114.902
| 23> S 	 -105.466 	 -2.61744 	 -113.005
| 24> C 	 -106.402 	 -3.21887 	 -111.62
| 25> C 	 -107.632 	 -2.55976 	 -111.482
| 26> C 	 -107.905 	 -1.66194 	 -112.528
| 27> C 	 -106.839 	 -1.63301 	 -113.463
| 28> H 	 -108.301 	 -2.8164 	 -110.657
| 29> C 	 -109.231 	 -0.844867 	 -112.594
| 30> H 	 -109.101 	 0.0463679 	 -113.121
| 31> H 	 -109.434 	 -0.529648 	 -111.582
| 32> C 	 -110.575 	 -1.41864 	 -113.104
| 33> H 	 -110.405 	 -1.6081 	 -114.179
| 34> H 	 -111.3 	 -0.60589 	 -113.031
| 35> C 	 -111.211 	 -2.65718 	 -112.466
| 36> H 	 -110.676 	 -3.60025 	 -112.596
| 37> H 	 -112.122 	 -2.84644 	 -112.952
| 38> H 	 -111.456 	 -2.58004 	 -111.375
| 39> H 	 -105.573 	 1.45004 	 -117.209
| 40> H 	 -105.963 	 -3.84386 	 -110.837
| 41> *
| 42>
| 43>                          ****END OF INPUT****

CARTESIAN COORDINATES (ANGSTROEM)
---------------------------------
  S    -105.139000   -0.154952  -115.229000
  C    -105.965000    0.830981  -116.446000
  C    -107.295000    0.630452  -116.373000
  C    -107.652000   -0.332437  -115.373000
  C    -106.586000   -0.771058  -114.616000
  H    -108.582000   -0.747669  -115.174000
  C    -108.269000    1.385560  -117.161000
  H    -109.264000    0.989166  -117.175000
  H    -107.963000    1.353000  -118.209000
  C    -108.372000    2.780330  -116.573000
  H    -107.524000    3.347990  -116.973000
  H    -109.106000    3.282060  -117.211000
  C    -108.696000    3.038350  -115.061000
  H    -109.633000    2.762000  -114.681000
  H    -107.928000    2.534280  -114.361000
  H    -108.672000    4.123560  -114.902000
  S    -105.466000   -2.617440  -113.005000
  C    -106.402000   -3.218870  -111.620000
  C    -107.632000   -2.559760  -111.482000
  C    -107.905000   -1.661940  -112.528000
  C    -106.839000   -1.633010  -113.463000
  H    -108.301000   -2.816400  -110.657000
  C    -109.231000   -0.844867  -112.594000
  H    -109.101000    0.046368  -113.121000
  H    -109.434000   -0.529648  -111.582000
  C    -110.575000   -1.418640  -113.104000
  H    -110.405000   -1.608100  -114.179000
  H    -111.300000   -0.605890  -113.031000
  C    -111.211000   -2.657180  -112.466000
  H    -110.676000   -3.600250  -112.596000
  H    -112.122000   -2.846440  -112.952000
  H    -111.456000   -2.580040  -111.375000
  H    -105.573000    1.450040  -117.209000
  H    -105.963000   -3.843860  -110.837000

 Total Charge           Charge          ....    0
 Multiplicity           Mult            ....    1
 Number of Electrons    NEL             ....  134
 Basis Dimension        Dim             ....  322

ORBITAL ENERGIES
----------------

  NO   OCC          E(Eh)            E(eV)
   0   2.0000     -88.969086     -2420.9719
   1   2.0000     -88.966169     -2420.8925
   2   2.0000     -10.331980      -281.1475
   3   2.0000     -10.322119      -280.8791
   4   2.0000     -10.320906      -280.8461
   5   2.0000     -10.310521      -280.5635
   6   2.0000     -10.304577      -280.4018
   7   2.0000     -10.297704      -280.2148
   8   2.0000     -10.294429      -280.1256
   9   2.0000     -10.290630      -280.0223
  10   2.0000     -10.290273      -280.0126
  11   2.0000     -10.289275      -279.9854
  12   2.0000     -10.285604      -279.8855
  13   2.0000     -10.285043      -279.8702
  14   2.0000     -10.279889      -279.7300
  15   2.0000     -10.278220      -279.6846
  16   2.0000      -8.083421      -219.9611
  17   2.0000      -8.081352      -219.9048
  18   2.0000      -6.041739      -164.4041
  19   2.0000      -6.040017      -164.3572
  20   2.0000      -6.038090      -164.3048
  21   2.0000      -6.035752      -164.2412
  22   2.0000      -6.034325      -164.2023
  23   2.0000      -6.031973      -164.1383
  24   2.0000      -1.011249       -27.5175
  25   2.0000      -0.984142       -26.7799
  26   2.0000      -0.919903       -25.0318
  27   2.0000      -0.905871       -24.6500
  28   2.0000      -0.867098       -23.5949
  29   2.0000      -0.853566       -23.2267
  30   2.0000      -0.841830       -22.9074
  31   2.0000      -0.812925       -22.1208
  32   2.0000      -0.792719       -21.5710
  33   2.0000      -0.781712       -21.2715
  34   2.0000      -0.710144       -19.3240
  35   2.0000      -0.706080       -19.2134
  36   2.0000      -0.690317       -18.7845
  37   2.0000      -0.665429       -18.1072
  38   2.0000      -0.639291       -17.3960
  39   2.0000      -0.612781       -16.6746
  40   2.0000      -0.593104       -16.1392
  41   2.0000      -0.576378       -15.6841
  42   2.0000      -0.559500       -15.2248
  43   2.0000      -0.553506       -15.0617
  44   2.0000      -0.543640       -14.7932
  45   2.0000      -0.535194       -14.5634
  46   2.0000      -0.510633       -13.8950
  47   2.0000      -0.508209       -13.8291
  48   2.0000      -0.502941       -13.6857
  49   2.0000      -0.499157       -13.5827
  50   2.0000      -0.490330       -13.3426
  51   2.0000      -0.483377       -13.1533
  52   2.0000      -0.478240       -13.0136
  53   2.0000      -0.465508       -12.6671
  54   2.0000      -0.461751       -12.5649
  55   2.0000      -0.450039       -12.2462
  56   2.0000      -0.449078       -12.2200
  57   2.0000      -0.440841       -11.9959
  58   2.0000      -0.431036       -11.7291
  59   2.0000      -0.426981       -11.6187
  60   2.0000      -0.420024       -11.4294
  61   2.0000      -0.413843       -11.2612
  62   2.0000      -0.407099       -11.0777
  63   2.0000      -0.353475        -9.6185
  64   2.0000      -0.336546        -9.1579
  65   2.0000      -0.327581        -8.9139
  66   2.0000      -0.282578        -7.6893
  67   0.0000       0.022003         0.5987
  68   0.0000       0.083868         2.2822
  69   0.0000       0.098321         2.6755
  70   0.0000       0.121993         3.3196
  71   0.0000       0.134618         3.6631

MULLIKEN ATOMIC CHARGES
-----------------------
   0 S :    0.109069
   1 C :   -0.111687
   2 C :   -0.065440
   3 C :    0.009492
   4 C :   -0.077659
   5 H :   -0.046837
   6 C :    0.098971
   7 H :    0.009510
   8 H :    0.027825
   9 C :   -0.085570
  10 H :    0.018815
  11 H :    0.012516
  12 C :   -0.039504
  13 H :    0.021204
  14 H :    0.064639
  15 H :    0.035896
  16 S :    0.101102
  17 C :   -0.097850
  18 C :   -0.043923
  19 C :   -0.025260
  20 C :   -0.171896
  21 H :    0.027559
  22 C :    0.088519
  23 H :    0.007318
  24 H :    0.010607
  25 C :   -0.078047
  26 H :    0.033780
  27 H :    0.032971
  28 C :   -0.039693
  29 H :    0.036268
  30 H :    0.018775
  31 H :    0.031633
  32 H :    0.023343
  33 H :    0.063553
Sum of atomic charges:    0.0000000

LOEWDIN ATOMIC CHARGES
----------------------
   0 S :    0.416225
   1 C :   -0.191716
   2 C :   -0.059277
   3 C :   -0.064161
   4 C :   -0.212231
   5 H :    0.014692
   6 C :   -0.034732
   7 H :    0.025214
   8 H :    0.036228
   9 C :   -0.044425
  10 H :    0.024339
  11 H :    0.022495
  12 C :   -0.066270
  13 H :    0.014648
  14 H :    0.040262
  15 H :    0.033522
  16 S :    0.399352
  17 C :   -0.183874
  18 C :   -0.066733
  19 C :   -0.054229
  20 C :   -0.183871
  21 H :    0.036759
  22 C :   -0.030593
  23 H :    0.022662
  24 H :    0.028969
  25 C :   -0.036761
  26 H :    0.023341
  27 H :    0.029062
  28 C :   -0.071434
  29 H :    0.027882
  30 H :    0.022419
  31 H :    0.028145
  32 H :    0.024310
  33 H :    0.029784

  Mayer bond orders larger than 0.100000
B(  0-S ,  1-C ) :   1.1095 B(  0-S ,  4-C ) :   1.1517 B(  1-C ,  2-C ) :   1.6170
B(  1-C , 32-H ) :   0.9727 B(  2-C ,  3-C ) :   1.2212 B(  2-C ,  6-C ) :   1.0378
B(  3-C ,  4-C ) :   1.5408 B(  3-C ,  5-H ) :   1.0194 B(  4-C , 20-C ) :   1.0718
B(  6-C ,  7-H ) :   0.9387 B(  6-C ,  8-H ) :   0.9301 B(  6-C ,  9-C ) :   1.0802
B(  9-C , 10-H ) :   0.9540 B(  9-C , 11-H ) :   0.9506 B(  9-C , 12-C ) :   1.0605
B( 12-C , 13-H ) :   0.9765 B( 12-C , 14-H ) :   0.9714 B( 12-C , 15-H ) :   0.9701
B( 16-S , 17-C ) :   1.1503 B( 16-S , 20-C ) :   1.1515 B( 17-C , 18-C ) :   1.5940
B( 17-C , 20-C ) :   0.1070 B( 17-C , 33-H ) :   0.9654 B( 18-C , 19-C ) :   1.2739
B( 18-C , 21-H ) :   0.9857 B( 19-C , 20-C ) :   1.5482 B( 19-C , 22-C ) :   1.0305
B( 22-C , 23-H ) :   0.9267 B( 22-C , 24-H ) :   0.9269 B( 22-C , 25-C ) :   1.0793
B( 25-C , 26-H ) :   0.9474 B( 25-C , 27-H ) :   0.9503 B( 25-C , 28-C ) :   1.0883
B( 28-C , 29-H ) :   0.9722 B( 28-C , 30-H ) :   0.9682 B( 28-C , 31-H ) :   0.9734

Dispersion correction           -0.015385749
FINAL SINGLE POINT ENERGY     -1339.864656567240

DIPOLE MOMENT
-------------
                                X             Y             Z
Electronic contribution:     27.03285     -11.55836       0.88156
Nuclear contribution   :    -27.81249      11.86372      -0.85806
                        -----------------------------------------
Total Dipole Moment    :     -0.77964       0.30536       0.02351
                        -----------------------------------------
Magnitude (a.u.)       :      0.83764
Magnitude (Debye)      :      2.12910

Rotational constants in cm-1:     0.017683     0.010434     0.007166
Rotational constants in MHz :   530.126928   312.795027   214.840572

                             ****ORCA TERMINATED NORMALLY****
TOTAL RUN TIME: 0 days 0 hours 0 minutes 23 seconds 354 msec
