                         Program Version 4.2.1 -  RELEASE  -
|  1> ! wB97X-D3 SP def2-SVP
|  2> %pal
|  3> nprocs 24
|  4> end
|  5>
|  6> * xyz 0 1
|  7> S 	 -87.0849 	 1.81943 	 5.14444
|  8> C 	 -85.8716 	 0.487761 	 4.93847
|  9> C 	 -85.0258 	 0.827108 	 3.85705
| 10> C 	 -85.6932 	 1.82718 	 2.98492
| 11> C 	 -86.7726 	 2.4918 	 3.57217
| 12> H 	 -85.4587 	 2.08468 	 1.9806
| 13> C 	 -83.7246 	 0.140668 	 3.50519
| 14> H 	 -83.9895 	 -0.477331 	 2.68799
| 15> H 	 -83.4208 	 -0.518807 	 4.34848
| 16> C 	 -82.5369 	 1.00593 	 3.037
| 17> H 	 -81.7758 	 0.543152 	 2.43484
| 18> H 	 -82.9474 	 1.68733 	 2.33491
| 19> C 	 -82.0166 	 1.91979 	 4.09361
| 20> H 	 -81.5742 	 1.31851 	 4.91799
| 21> H 	 -81.2666 	 2.53252 	 3.70994
| 22> H 	 -82.7809 	 2.58463 	 4.48924
| 23> S 	 -88.1824 	 4.81403 	 4.01451
| 24> C 	 -88.7317 	 5.66391 	 2.52228
| 25> C 	 -88.6727 	 4.88469 	 1.41757
| 26> C 	 -88.2087 	 3.58159 	 1.65404
| 27> C 	 -87.7308 	 3.43801 	 2.93234
| 28> H 	 -88.8823 	 5.33823 	 0.503325
| 29> C 	 -88.1218 	 2.54183 	 0.556746
| 30> H 	 -87.1029 	 2.31991 	 0.378802
| 31> H 	 -88.5187 	 2.87653 	 -0.444204
| 32> C 	 -89.0311 	 1.36405 	 0.824436
| 33> H 	 -90.0456 	 1.83903 	 0.782948
| 34> H 	 -89.0544 	 0.902816 	 1.78961
| 35> C 	 -88.9589 	 0.251115 	 -0.26194
| 36> H 	 -89.421 	 0.743031 	 -1.09304
| 37> H 	 -89.64 	 -0.603675 	 -0.0943643
| 38> H 	 -87.9579 	 -0.213548 	 -0.426802
| 39> H 	 -85.6384 	 -0.166855 	 5.71506
| 40> H 	 -89.1072 	 6.68399 	 2.3923
| 41> *
| 42>
| 43>                          ****END OF INPUT****

CARTESIAN COORDINATES (ANGSTROEM)
---------------------------------
  S    -87.084900    1.819430    5.144440
  C    -85.871600    0.487761    4.938470
  C    -85.025800    0.827108    3.857050
  C    -85.693200    1.827180    2.984920
  C    -86.772600    2.491800    3.572170
  H    -85.458700    2.084680    1.980600
  C    -83.724600    0.140668    3.505190
  H    -83.989500   -0.477331    2.687990
  H    -83.420800   -0.518807    4.348480
  C    -82.536900    1.005930    3.037000
  H    -81.775800    0.543152    2.434840
  H    -82.947400    1.687330    2.334910
  C    -82.016600    1.919790    4.093610
  H    -81.574200    1.318510    4.917990
  H    -81.266600    2.532520    3.709940
  H    -82.780900    2.584630    4.489240
  S    -88.182400    4.814030    4.014510
  C    -88.731700    5.663910    2.522280
  C    -88.672700    4.884690    1.417570
  C    -88.208700    3.581590    1.654040
  C    -87.730800    3.438010    2.932340
  H    -88.882300    5.338230    0.503325
  C    -88.121800    2.541830    0.556746
  H    -87.102900    2.319910    0.378802
  H    -88.518700    2.876530   -0.444204
  C    -89.031100    1.364050    0.824436
  H    -90.045600    1.839030    0.782948
  H    -89.054400    0.902816    1.789610
  C    -88.958900    0.251115   -0.261940
  H    -89.421000    0.743031   -1.093040
  H    -89.640000   -0.603675   -0.094364
  H    -87.957900   -0.213548   -0.426802
  H    -85.638400   -0.166855    5.715060
  H    -89.107200    6.683990    2.392300

 Total Charge           Charge          ....    0
 Multiplicity           Mult            ....    1
 Number of Electrons    NEL             ....  134
 Basis Dimension        Dim             ....  322

ORBITAL ENERGIES
----------------

  NO   OCC          E(Eh)            E(eV)
   0   2.0000     -88.967391     -2420.9258
   1   2.0000     -88.962362     -2420.7890
   2   2.0000     -10.334924      -281.2276
   3   2.0000     -10.334462      -281.2150
   4   2.0000     -10.319468      -280.8070
   5   2.0000     -10.318611      -280.7837
   6   2.0000     -10.317635      -280.7571
   7   2.0000     -10.304889      -280.4103
   8   2.0000     -10.299942      -280.2757
   9   2.0000     -10.294933      -280.1394
  10   2.0000     -10.294906      -280.1386
  11   2.0000     -10.286677      -279.9147
  12   2.0000     -10.284045      -279.8431
  13   2.0000     -10.281088      -279.7626
  14   2.0000     -10.279758      -279.7264
  15   2.0000     -10.268147      -279.4105
  16   2.0000      -8.080695      -219.8869
  17   2.0000      -8.076559      -219.7743
  18   2.0000      -6.039393      -164.3402
  19   2.0000      -6.035684      -164.2393
  20   2.0000      -6.035362      -164.2306
  21   2.0000      -6.031153      -164.1160
  22   2.0000      -6.031060      -164.1135
  23   2.0000      -6.027024      -164.0037
  24   2.0000      -1.001136       -27.2423
  25   2.0000      -0.977229       -26.5917
  26   2.0000      -0.916712       -24.9450
  27   2.0000      -0.910604       -24.7788
  28   2.0000      -0.869748       -23.6671
  29   2.0000      -0.849113       -23.1055
  30   2.0000      -0.841637       -22.9021
  31   2.0000      -0.817145       -22.2357
  32   2.0000      -0.784536       -21.3483
  33   2.0000      -0.775090       -21.0913
  34   2.0000      -0.710433       -19.3319
  35   2.0000      -0.700777       -19.0691
  36   2.0000      -0.691350       -18.8126
  37   2.0000      -0.662840       -18.0368
  38   2.0000      -0.644325       -17.5330
  39   2.0000      -0.617393       -16.8001
  40   2.0000      -0.598352       -16.2820
  41   2.0000      -0.572704       -15.5841
  42   2.0000      -0.564654       -15.3650
  43   2.0000      -0.561047       -15.2669
  44   2.0000      -0.543568       -14.7912
  45   2.0000      -0.524903       -14.2833
  46   2.0000      -0.519721       -14.1423
  47   2.0000      -0.510442       -13.8898
  48   2.0000      -0.506846       -13.7920
  49   2.0000      -0.499336       -13.5876
  50   2.0000      -0.492340       -13.3972
  51   2.0000      -0.482267       -13.1232
  52   2.0000      -0.470009       -12.7896
  53   2.0000      -0.461353       -12.5540
  54   2.0000      -0.459908       -12.5147
  55   2.0000      -0.447349       -12.1730
  56   2.0000      -0.441694       -12.0191
  57   2.0000      -0.435144       -11.8409
  58   2.0000      -0.431600       -11.7444
  59   2.0000      -0.425168       -11.5694
  60   2.0000      -0.418340       -11.3836
  61   2.0000      -0.411628       -11.2010
  62   2.0000      -0.409724       -11.1492
  63   2.0000      -0.348697        -9.4885
  64   2.0000      -0.335612        -9.1325
  65   2.0000      -0.322185        -8.7671
  66   2.0000      -0.289611        -7.8807
  67   0.0000       0.022304         0.6069
  68   0.0000       0.062678         1.7056
  69   0.0000       0.088048         2.3959
  70   0.0000       0.108490         2.9522
  71   0.0000       0.131831         3.5873

MULLIKEN ATOMIC CHARGES
-----------------------
   0 S :    0.077723
   1 C :   -0.095772
   2 C :   -0.110125
   3 C :   -0.000439
   4 C :   -0.095328
   5 H :    0.004077
   6 C :    0.083593
   7 H :    0.033107
   8 H :    0.025788
   9 C :   -0.056885
  10 H :    0.026908
  11 H :    0.005536
  12 C :   -0.033717
  13 H :    0.025400
  14 H :    0.017306
  15 H :    0.043252
  16 S :    0.086370
  17 C :   -0.079620
  18 C :   -0.023124
  19 C :   -0.031913
  20 C :   -0.136319
  21 H :   -0.004276
  22 C :    0.094801
  23 H :    0.018594
  24 H :    0.014886
  25 C :   -0.100364
  26 H :    0.026326
  27 H :    0.038685
  28 C :   -0.048151
  29 H :    0.019877
  30 H :    0.032523
  31 H :    0.047234
  32 H :    0.039169
  33 H :    0.054879
Sum of atomic charges:   -0.0000000

LOEWDIN ATOMIC CHARGES
----------------------
   0 S :    0.374328
   1 C :   -0.171708
   2 C :   -0.044308
   3 C :   -0.068241
   4 C :   -0.192139
   5 H :    0.021246
   6 C :   -0.030876
   7 H :    0.033333
   8 H :    0.031946
   9 C :   -0.043663
  10 H :    0.026162
  11 H :    0.020985
  12 C :   -0.058325
  13 H :    0.024585
  14 H :    0.017687
  15 H :    0.030515
  16 S :    0.355179
  17 C :   -0.164868
  18 C :   -0.064547
  19 C :   -0.052976
  20 C :   -0.164566
  21 H :    0.025093
  22 C :   -0.026990
  23 H :    0.019203
  24 H :    0.036126
  25 C :   -0.041991
  26 H :    0.030914
  27 H :    0.019414
  28 C :   -0.071442
  29 H :    0.021174
  30 H :    0.029640
  31 H :    0.030107
  32 H :    0.014087
  33 H :    0.034915

  Mayer bond orders larger than 0.100000
B(  0-S ,  1-C ) :   1.1152 B(  0-S ,  4-C ) :   1.1381 B(  1-C ,  2-C ) :   1.6266
B(  1-C , 32-H ) :   0.9731 B(  2-C ,  3-C ) :   1.1747 B(  2-C ,  6-C ) :   1.0284
B(  3-C ,  4-C ) :   1.6193 B(  3-C ,  5-H ) :   0.9928 B(  4-C , 20-C ) :   1.0088
B(  6-C ,  7-H ) :   0.9311 B(  6-C ,  8-H ) :   0.9459 B(  6-C ,  9-C ) :   1.0724
B(  9-C , 10-H ) :   0.9549 B(  9-C , 11-H ) :   0.9465 B(  9-C , 12-C ) :   1.0861
B( 12-C , 13-H ) :   0.9753 B( 12-C , 14-H ) :   0.9708 B( 12-C , 15-H ) :   0.9730
B( 16-S , 17-C ) :   1.1171 B( 16-S , 20-C ) :   1.1086 B( 17-C , 18-C ) :   1.6784
B( 17-C , 33-H ) :   0.9586 B( 18-C , 19-C ) :   1.2057 B( 18-C , 21-H ) :   0.9988
B( 19-C , 20-C ) :   1.6426 B( 19-C , 22-C ) :   1.0311 B( 22-C , 23-H ) :   0.9371
B( 22-C , 24-H ) :   0.9385 B( 22-C , 25-C ) :   1.0371 B( 25-C , 26-H ) :   0.9546
B( 25-C , 27-H ) :   0.9675 B( 25-C , 28-C ) :   1.0763 B( 28-C , 29-H ) :   0.9746
B( 28-C , 30-H ) :   0.9744 B( 28-C , 31-H ) :   0.9767

Dispersion correction           -0.014303027
FINAL SINGLE POINT ENERGY     -1339.842091357330

DIPOLE MOMENT
-------------
                                X             Y             Z
Electronic contribution:    -12.01208      13.21247      16.31268
Nuclear contribution   :     12.35608     -13.38837     -17.07197
                        -----------------------------------------
Total Dipole Moment    :      0.34399      -0.17591      -0.75929
                        -----------------------------------------
Magnitude (a.u.)       :      0.85193
Magnitude (Debye)      :      2.16544

Rotational constants in cm-1:     0.017152     0.008913     0.007448
Rotational constants in MHz :   514.195701   267.198886   223.280393

                             ****ORCA TERMINATED NORMALLY****
TOTAL RUN TIME: 0 days 0 hours 0 minutes 21 seconds 496 msec
