                         Program Version 4.2.1 -  RELEASE  -
|  1> ! wB97X-D3 SP def2-SVP
|  2> %pal
|  3> nprocs 24
|  4> end
|  5>
|  6> * xyz 0 1
|  7> S 	 22.7261 	 -24.6091 	 -122.214
|  8> C 	 22.867 	 -25.9856 	 -123.186
|  9> C 	 23.5199 	 -27.0387 	 -122.515
| 10> C 	 23.7748 	 -26.768 	 -121.135
| 11> C 	 23.3818 	 -25.468 	 -120.846
| 12> H 	 24.2327 	 -27.3191 	 -120.368
| 13> C 	 23.9183 	 -28.389 	 -123.133
| 14> H 	 23.081 	 -28.8482 	 -123.696
| 15> H 	 24.1252 	 -29.1452 	 -122.38
| 16> C 	 25.1481 	 -28.1558 	 -124.116
| 17> H 	 25.022 	 -27.1715 	 -124.479
| 18> H 	 25.9424 	 -28.3047 	 -123.372
| 19> C 	 24.9797 	 -29.1312 	 -125.276
| 20> H 	 24.06 	 -28.8565 	 -125.761
| 21> H 	 25.9023 	 -29.1006 	 -125.958
| 22> H 	 24.9161 	 -30.1303 	 -124.937
| 23> S 	 24.5985 	 -23.2594 	 -119.758
| 24> C 	 24.553 	 -23.0885 	 -118.03
| 25> C 	 24.0154 	 -24.2352 	 -117.375
| 26> C 	 23.5011 	 -25.1521 	 -118.281
| 27> C 	 23.7064 	 -24.7826 	 -119.658
| 28> H 	 23.853 	 -24.2432 	 -116.338
| 29> C 	 22.829 	 -26.4963 	 -117.936
| 30> H 	 23.2782 	 -26.6678 	 -116.897
| 31> H 	 23.1229 	 -27.3548 	 -118.498
| 32> C 	 21.3062 	 -26.4399 	 -117.844
| 33> H 	 20.9282 	 -25.7879 	 -117.124
| 34> H 	 20.9804 	 -27.2948 	 -117.309
| 35> C 	 20.5495 	 -26.2565 	 -119.213
| 36> H 	 19.4654 	 -26.4173 	 -119.177
| 37> H 	 20.981 	 -27.0012 	 -119.829
| 38> H 	 20.7807 	 -25.2961 	 -119.571
| 39> H 	 22.6732 	 -25.9525 	 -124.25
| 40> H 	 24.9457 	 -22.2823 	 -117.497
| 41> *
| 42>
| 43>                          ****END OF INPUT****

CARTESIAN COORDINATES (ANGSTROEM)
---------------------------------
  S     22.726100  -24.609100  -122.214000
  C     22.867000  -25.985600  -123.186000
  C     23.519900  -27.038700  -122.515000
  C     23.774800  -26.768000  -121.135000
  C     23.381800  -25.468000  -120.846000
  H     24.232700  -27.319100  -120.368000
  C     23.918300  -28.389000  -123.133000
  H     23.081000  -28.848200  -123.696000
  H     24.125200  -29.145200  -122.380000
  C     25.148100  -28.155800  -124.116000
  H     25.022000  -27.171500  -124.479000
  H     25.942400  -28.304700  -123.372000
  C     24.979700  -29.131200  -125.276000
  H     24.060000  -28.856500  -125.761000
  H     25.902300  -29.100600  -125.958000
  H     24.916100  -30.130300  -124.937000
  S     24.598500  -23.259400  -119.758000
  C     24.553000  -23.088500  -118.030000
  C     24.015400  -24.235200  -117.375000
  C     23.501100  -25.152100  -118.281000
  C     23.706400  -24.782600  -119.658000
  H     23.853000  -24.243200  -116.338000
  C     22.829000  -26.496300  -117.936000
  H     23.278200  -26.667800  -116.897000
  H     23.122900  -27.354800  -118.498000
  C     21.306200  -26.439900  -117.844000
  H     20.928200  -25.787900  -117.124000
  H     20.980400  -27.294800  -117.309000
  C     20.549500  -26.256500  -119.213000
  H     19.465400  -26.417300  -119.177000
  H     20.981000  -27.001200  -119.829000
  H     20.780700  -25.296100  -119.571000
  H     22.673200  -25.952500  -124.250000
  H     24.945700  -22.282300  -117.497000

 Total Charge           Charge          ....    0
 Multiplicity           Mult            ....    1
 Number of Electrons    NEL             ....  134
 Basis Dimension        Dim             ....  322

ORBITAL ENERGIES
----------------

  NO   OCC          E(Eh)            E(eV)
   0   2.0000     -88.970104     -2420.9996
   1   2.0000     -88.969574     -2420.9852
   2   2.0000     -10.322368      -280.8859
   3   2.0000     -10.321861      -280.8721
   4   2.0000     -10.314860      -280.6816
   5   2.0000     -10.311600      -280.5929
   6   2.0000     -10.306050      -280.4419
   7   2.0000     -10.303229      -280.3651
   8   2.0000     -10.296142      -280.1723
   9   2.0000     -10.292371      -280.0697
  10   2.0000     -10.291864      -280.0559
  11   2.0000     -10.291785      -280.0537
  12   2.0000     -10.284082      -279.8441
  13   2.0000     -10.280242      -279.7396
  14   2.0000     -10.273217      -279.5484
  15   2.0000     -10.264446      -279.3098
  16   2.0000      -8.085206      -220.0096
  17   2.0000      -8.084271      -219.9842
  18   2.0000      -6.043420      -164.4498
  19   2.0000      -6.042518      -164.4253
  20   2.0000      -6.039575      -164.3452
  21   2.0000      -6.038754      -164.3229
  22   2.0000      -6.036235      -164.2543
  23   2.0000      -6.035457      -164.2331
  24   2.0000      -1.010106       -27.4864
  25   2.0000      -0.981568       -26.7098
  26   2.0000      -0.909654       -24.7529
  27   2.0000      -0.903906       -24.5965
  28   2.0000      -0.872331       -23.7373
  29   2.0000      -0.856298       -23.3011
  30   2.0000      -0.845946       -23.0194
  31   2.0000      -0.806606       -21.9489
  32   2.0000      -0.781771       -21.2731
  33   2.0000      -0.764537       -20.8041
  34   2.0000      -0.708853       -19.2889
  35   2.0000      -0.701553       -19.0902
  36   2.0000      -0.696884       -18.9632
  37   2.0000      -0.665625       -18.1126
  38   2.0000      -0.649873       -17.6840
  39   2.0000      -0.615570       -16.7505
  40   2.0000      -0.596657       -16.2359
  41   2.0000      -0.580174       -15.7873
  42   2.0000      -0.557521       -15.1709
  43   2.0000      -0.547760       -14.9053
  44   2.0000      -0.534312       -14.5394
  45   2.0000      -0.520396       -14.1607
  46   2.0000      -0.516128       -14.0446
  47   2.0000      -0.511191       -13.9102
  48   2.0000      -0.502427       -13.6717
  49   2.0000      -0.497370       -13.5341
  50   2.0000      -0.488081       -13.2814
  51   2.0000      -0.481285       -13.0964
  52   2.0000      -0.479104       -13.0371
  53   2.0000      -0.468639       -12.7523
  54   2.0000      -0.458215       -12.4687
  55   2.0000      -0.452650       -12.3172
  56   2.0000      -0.444403       -12.0928
  57   2.0000      -0.442230       -12.0337
  58   2.0000      -0.435395       -11.8477
  59   2.0000      -0.426804       -11.6139
  60   2.0000      -0.414905       -11.2901
  61   2.0000      -0.408053       -11.1037
  62   2.0000      -0.404141       -10.9972
  63   2.0000      -0.349613        -9.5135
  64   2.0000      -0.336719        -9.1626
  65   2.0000      -0.325494        -8.8571
  66   2.0000      -0.278512        -7.5787
  67   0.0000       0.022280         0.6063
  68   0.0000       0.066761         1.8167
  69   0.0000       0.111077         3.0226
  70   0.0000       0.118711         3.2303
  71   0.0000       0.131821         3.5870

MULLIKEN ATOMIC CHARGES
-----------------------
   0 S :    0.131796
   1 C :   -0.117893
   2 C :   -0.082088
   3 C :    0.044883
   4 C :   -0.172408
   5 H :    0.003547
   6 C :    0.006676
   7 H :    0.028230
   8 H :    0.022938
   9 C :   -0.043739
  10 H :    0.029821
  11 H :    0.040603
  12 C :   -0.052454
  13 H :    0.034543
  14 H :    0.045778
  15 H :    0.025109
  16 S :    0.127318
  17 C :   -0.084656
  18 C :   -0.023518
  19 C :   -0.017743
  20 C :   -0.175121
  21 H :    0.004534
  22 C :    0.040755
  23 H :    0.024488
  24 H :    0.022003
  25 C :   -0.028946
  26 H :   -0.005674
  27 H :    0.000806
  28 C :   -0.004547
  29 H :    0.037237
  30 H :    0.020818
  31 H :    0.030001
  32 H :    0.050238
  33 H :    0.036668
Sum of atomic charges:    0.0000000

LOEWDIN ATOMIC CHARGES
----------------------
   0 S :    0.443413
   1 C :   -0.225376
   2 C :   -0.054903
   3 C :   -0.051725
   4 C :   -0.198741
   5 H :    0.026143
   6 C :   -0.034307
   7 H :    0.026819
   8 H :    0.024549
   9 C :   -0.031315
  10 H :    0.017042
  11 H :    0.029541
  12 C :   -0.063568
  13 H :    0.024551
  14 H :    0.033402
  15 H :    0.017405
  16 S :    0.419673
  17 C :   -0.185543
  18 C :   -0.065176
  19 C :   -0.054920
  20 C :   -0.205744
  21 H :    0.025321
  22 C :   -0.028633
  23 H :    0.040286
  24 H :    0.022420
  25 C :   -0.038732
  26 H :    0.014073
  27 H :    0.018501
  28 C :   -0.052017
  29 H :    0.028755
  30 H :    0.020261
  31 H :    0.017322
  32 H :    0.026154
  33 H :    0.015069

  Mayer bond orders larger than 0.100000
B(  0-S ,  1-C ) :   1.1572 B(  0-S ,  4-C ) :   1.1680 B(  1-C ,  2-C ) :   1.5683
B(  1-C , 32-H ) :   0.9705 B(  2-C ,  3-C ) :   1.2586 B(  2-C ,  6-C ) :   1.0215
B(  3-C ,  4-C ) :   1.5272 B(  3-C ,  5-H ) :   1.0009 B(  4-C , 20-C ) :   1.0956
B(  6-C ,  7-H ) :   0.9524 B(  6-C ,  8-H ) :   0.9501 B(  6-C ,  9-C ) :   1.0190
B(  9-C , 10-H ) :   0.9708 B(  9-C , 11-H ) :   0.9601 B(  9-C , 12-C ) :   1.0720
B( 12-C , 13-H ) :   0.9761 B( 12-C , 14-H ) :   0.9729 B( 12-C , 15-H ) :   0.9757
B( 16-S , 17-C ) :   1.1827 B( 16-S , 20-C ) :   1.1578 B( 17-C , 18-C ) :   1.5389
B( 17-C , 20-C ) :   0.1221 B( 17-C , 33-H ) :   0.9740 B( 18-C , 19-C ) :   1.3321
B( 18-C , 21-H ) :   0.9891 B( 19-C , 20-C ) :   1.5007 B( 19-C , 22-C ) :   1.0194
B( 22-C , 23-H ) :   0.9305 B( 22-C , 24-H ) :   0.9451 B( 22-C , 25-C ) :   1.0839
B( 25-C , 26-H ) :   0.9483 B( 25-C , 27-H ) :   0.9471 B( 25-C , 28-C ) :   1.0635
B( 28-C , 29-H ) :   0.9743 B( 28-C , 30-H ) :   0.9752 B( 28-C , 31-H ) :   0.9734

Dispersion correction           -0.015513660
FINAL SINGLE POINT ENERGY     -1339.853683781540

DIPOLE MOMENT
-------------
                                X             Y             Z
Electronic contribution:      4.09645      22.48956       4.09973
Nuclear contribution   :     -4.04150     -22.97667      -3.97863
                        -----------------------------------------
Total Dipole Moment    :      0.05495      -0.48712       0.12110
                        -----------------------------------------
Magnitude (a.u.)       :      0.50495
Magnitude (Debye)      :      1.28347

Rotational constants in cm-1:     0.022181     0.008182     0.007255
Rotational constants in MHz :   664.957589   245.298855   217.498044

                             ****ORCA TERMINATED NORMALLY****
TOTAL RUN TIME: 0 days 0 hours 0 minutes 23 seconds 604 msec
