                         Program Version 4.2.1 -  RELEASE  -
|  1> ! wB97X-D3 SP def2-SVP
|  2> %pal
|  3> nprocs 24
|  4> end
|  5>
|  6> * xyz 0 1
|  7> S 	 -65.4315 	 1.3814 	 -74.9783
|  8> C 	 -66.5508 	 2.583 	 -75.5846
|  9> C 	 -67.7796 	 2.48007 	 -74.9887
| 10> C 	 -67.9 	 1.49021 	 -74.0253
| 11> C 	 -66.6295 	 0.96128 	 -73.7576
| 12> H 	 -68.7474 	 1.20912 	 -73.4863
| 13> C 	 -69.0529 	 3.09308 	 -75.4677
| 14> H 	 -69.6922 	 2.32534 	 -75.8655
| 15> H 	 -68.7665 	 3.61117 	 -76.3736
| 16> C 	 -69.702 	 4.13672 	 -74.4083
| 17> H 	 -70.0272 	 3.68528 	 -73.4852
| 18> H 	 -68.97 	 4.90588 	 -74.1738
| 19> C 	 -70.8649 	 4.89805 	 -75.0563
| 20> H 	 -71.4912 	 4.33713 	 -75.6465
| 21> H 	 -71.4889 	 5.40622 	 -74.286
| 22> H 	 -70.4519 	 5.76961 	 -75.5748
| 23> S 	 -65.3319 	 -1.4319 	 -73.146
| 24> C 	 -65.6187 	 -2.14256 	 -71.6227
| 25> C 	 -66.4859 	 -1.43448 	 -70.7718
| 26> C 	 -66.947 	 -0.28927 	 -71.4637
| 27> C 	 -66.3709 	 -0.0956327 	 -72.7236
| 28> H 	 -66.7784 	 -1.75089 	 -69.838
| 29> C 	 -67.8228 	 0.744335 	 -70.7004
| 30> H 	 -68.168 	 1.55685 	 -71.2478
| 31> H 	 -67.158 	 1.09908 	 -69.901
| 32> C 	 -69.0183 	 -0.000429962 	 -70.0723
| 33> H 	 -69.5734 	 0.783955 	 -69.3987
| 34> H 	 -68.6961 	 -0.753782 	 -69.3025
| 35> C 	 -70.0252 	 -0.53504 	 -71.0834
| 36> H 	 -70.8703 	 -1.10715 	 -70.72
| 37> H 	 -69.478 	 -1.31703 	 -71.6632
| 38> H 	 -70.479 	 0.13745 	 -71.8252
| 39> H 	 -66.2992 	 3.30424 	 -76.346
| 40> H 	 -65.2237 	 -3.14607 	 -71.3928
| 41> *
| 42>
| 43>                          ****END OF INPUT****

CARTESIAN COORDINATES (ANGSTROEM)
---------------------------------
  S    -65.431500    1.381400  -74.978300
  C    -66.550800    2.583000  -75.584600
  C    -67.779600    2.480070  -74.988700
  C    -67.900000    1.490210  -74.025300
  C    -66.629500    0.961280  -73.757600
  H    -68.747400    1.209120  -73.486300
  C    -69.052900    3.093080  -75.467700
  H    -69.692200    2.325340  -75.865500
  H    -68.766500    3.611170  -76.373600
  C    -69.702000    4.136720  -74.408300
  H    -70.027200    3.685280  -73.485200
  H    -68.970000    4.905880  -74.173800
  C    -70.864900    4.898050  -75.056300
  H    -71.491200    4.337130  -75.646500
  H    -71.488900    5.406220  -74.286000
  H    -70.451900    5.769610  -75.574800
  S    -65.331900   -1.431900  -73.146000
  C    -65.618700   -2.142560  -71.622700
  C    -66.485900   -1.434480  -70.771800
  C    -66.947000   -0.289270  -71.463700
  C    -66.370900   -0.095633  -72.723600
  H    -66.778400   -1.750890  -69.838000
  C    -67.822800    0.744335  -70.700400
  H    -68.168000    1.556850  -71.247800
  H    -67.158000    1.099080  -69.901000
  C    -69.018300   -0.000430  -70.072300
  H    -69.573400    0.783955  -69.398700
  H    -68.696100   -0.753782  -69.302500
  C    -70.025200   -0.535040  -71.083400
  H    -70.870300   -1.107150  -70.720000
  H    -69.478000   -1.317030  -71.663200
  H    -70.479000    0.137450  -71.825200
  H    -66.299200    3.304240  -76.346000
  H    -65.223700   -3.146070  -71.392800

 Total Charge           Charge          ....    0
 Multiplicity           Mult            ....    1
 Number of Electrons    NEL             ....  134
 Basis Dimension        Dim             ....  322

ORBITAL ENERGIES
----------------

  NO   OCC          E(Eh)            E(eV)
   0   2.0000     -88.968544     -2420.9572
   1   2.0000     -88.968107     -2420.9453
   2   2.0000     -10.332720      -281.1676
   3   2.0000     -10.324984      -280.9571
   4   2.0000     -10.318865      -280.7906
   5   2.0000     -10.308710      -280.5143
   6   2.0000     -10.303231      -280.3652
   7   2.0000     -10.300783      -280.2986
   8   2.0000     -10.291396      -280.0431
   9   2.0000     -10.291345      -280.0417
  10   2.0000     -10.290897      -280.0295
  11   2.0000     -10.289913      -280.0028
  12   2.0000     -10.289667      -279.9961
  13   2.0000     -10.283836      -279.8374
  14   2.0000     -10.280385      -279.7435
  15   2.0000     -10.272816      -279.5375
  16   2.0000      -8.083718      -219.9691
  17   2.0000      -8.083052      -219.9510
  18   2.0000      -6.041986      -164.4108
  19   2.0000      -6.041520      -164.3981
  20   2.0000      -6.038115      -164.3055
  21   2.0000      -6.037825      -164.2976
  22   2.0000      -6.034701      -164.2126
  23   2.0000      -6.033665      -164.1844
  24   2.0000      -1.007122       -27.4052
  25   2.0000      -0.988043       -26.8860
  26   2.0000      -0.910214       -24.7682
  27   2.0000      -0.904138       -24.6028
  28   2.0000      -0.863439       -23.4954
  29   2.0000      -0.854605       -23.2550
  30   2.0000      -0.847663       -23.0661
  31   2.0000      -0.811618       -22.0852
  32   2.0000      -0.785063       -21.3627
  33   2.0000      -0.768251       -20.9052
  34   2.0000      -0.707582       -19.2543
  35   2.0000      -0.698689       -19.0123
  36   2.0000      -0.691793       -18.8246
  37   2.0000      -0.662548       -18.0288
  38   2.0000      -0.642162       -17.4741
  39   2.0000      -0.623100       -16.9554
  40   2.0000      -0.599655       -16.3174
  41   2.0000      -0.569155       -15.4875
  42   2.0000      -0.559168       -15.2157
  43   2.0000      -0.554607       -15.0916
  44   2.0000      -0.532306       -14.4848
  45   2.0000      -0.529398       -14.4057
  46   2.0000      -0.516572       -14.0566
  47   2.0000      -0.514924       -14.0118
  48   2.0000      -0.500191       -13.6109
  49   2.0000      -0.493049       -13.4166
  50   2.0000      -0.486847       -13.2478
  51   2.0000      -0.477989       -13.0068
  52   2.0000      -0.474277       -12.9057
  53   2.0000      -0.464618       -12.6429
  54   2.0000      -0.460558       -12.5324
  55   2.0000      -0.451637       -12.2897
  56   2.0000      -0.448164       -12.1952
  57   2.0000      -0.442063       -12.0291
  58   2.0000      -0.438160       -11.9229
  59   2.0000      -0.429677       -11.6921
  60   2.0000      -0.421487       -11.4692
  61   2.0000      -0.417778       -11.3683
  62   2.0000      -0.398712       -10.8495
  63   2.0000      -0.349407        -9.5079
  64   2.0000      -0.336082        -9.1452
  65   2.0000      -0.330968        -9.0061
  66   2.0000      -0.279791        -7.6135
  67   0.0000       0.026241         0.7141
  68   0.0000       0.075223         2.0469
  69   0.0000       0.099239         2.7004
  70   0.0000       0.124062         3.3759
  71   0.0000       0.133543         3.6339

MULLIKEN ATOMIC CHARGES
-----------------------
   0 S :    0.103213
   1 C :   -0.118727
   2 C :   -0.070391
   3 C :    0.043054
   4 C :   -0.128470
   5 H :   -0.019197
   6 C :    0.062915
   7 H :    0.036899
   8 H :   -0.002301
   9 C :   -0.072981
  10 H :    0.032041
  11 H :    0.033576
  12 C :   -0.030812
  13 H :    0.020753
  14 H :    0.025744
  15 H :    0.029486
  16 S :    0.116926
  17 C :   -0.099837
  18 C :    0.000479
  19 C :   -0.079016
  20 C :   -0.137132
  21 H :   -0.014423
  22 C :    0.121444
  23 H :    0.006690
  24 H :    0.046126
  25 C :   -0.138253
  26 H :    0.034353
  27 H :    0.042121
  28 C :   -0.059941
  29 H :    0.030380
  30 H :    0.038324
  31 H :    0.041050
  32 H :    0.041782
  33 H :    0.064127
Sum of atomic charges:    0.0000000

LOEWDIN ATOMIC CHARGES
----------------------
   0 S :    0.396395
   1 C :   -0.202222
   2 C :   -0.068442
   3 C :   -0.053215
   4 C :   -0.171444
   5 H :    0.021242
   6 C :   -0.027774
   7 H :    0.032394
   8 H :    0.025233
   9 C :   -0.030837
  10 H :    0.017545
  11 H :    0.028960
  12 C :   -0.063855
  13 H :    0.009864
  14 H :    0.029828
  15 H :    0.027881
  16 S :    0.427362
  17 C :   -0.193416
  18 C :   -0.061884
  19 C :   -0.056339
  20 C :   -0.209135
  21 H :    0.017453
  22 C :   -0.017873
  23 H :    0.016480
  24 H :    0.040447
  25 C :   -0.050097
  26 H :    0.028101
  27 H :    0.027158
  28 C :   -0.080585
  29 H :    0.027102
  30 H :    0.032188
  31 H :    0.026174
  32 H :    0.025738
  33 H :    0.029575

  Mayer bond orders larger than 0.100000
B(  0-S ,  1-C ) :   1.1173 B(  0-S ,  4-C ) :   1.1703 B(  1-C ,  2-C ) :   1.6086
B(  1-C , 32-H ) :   0.9672 B(  2-C ,  3-C ) :   1.2422 B(  2-C ,  6-C ) :   1.0353
B(  3-C ,  4-C ) :   1.5359 B(  3-C ,  5-H ) :   1.0052 B(  4-C , 20-C ) :   1.0389
B(  6-C ,  7-H ) :   0.9437 B(  6-C ,  8-H ) :   0.9391 B(  6-C ,  9-C ) :   1.0365
B(  9-C , 10-H ) :   0.9660 B(  9-C , 11-H ) :   0.9610 B(  9-C , 12-C ) :   1.0827
B( 12-C , 13-H ) :   0.9777 B( 12-C , 14-H ) :   0.9727 B( 12-C , 15-H ) :   0.9791
B( 16-S , 17-C ) :   1.1922 B( 16-S , 20-C ) :   1.1437 B( 17-C , 18-C ) :   1.5637
B( 17-C , 33-H ) :   0.9630 B( 18-C , 19-C ) :   1.2572 B( 18-C , 21-H ) :   1.0082
B( 19-C , 20-C ) :   1.5898 B( 19-C , 22-C ) :   1.0222 B( 22-C , 23-H ) :   0.9425
B( 22-C , 24-H ) :   0.9396 B( 22-C , 25-C ) :   1.0665 B( 25-C , 26-H ) :   0.9557
B( 25-C , 27-H ) :   0.9547 B( 25-C , 28-C ) :   1.0662 B( 28-C , 29-H ) :   0.9716
B( 28-C , 30-H ) :   0.9695 B( 28-C , 31-H ) :   0.9714

Dispersion correction           -0.014647936
FINAL SINGLE POINT ENERGY     -1339.862031644495

DIPOLE MOMENT
-------------
                                X             Y             Z
Electronic contribution:     27.82025     -13.34300      -7.21414
Nuclear contribution   :    -28.40900      13.44658       7.44074
                        -----------------------------------------
Total Dipole Moment    :     -0.58875       0.10358       0.22659
                        -----------------------------------------
Magnitude (a.u.)       :      0.63929
Magnitude (Debye)      :      1.62496

Rotational constants in cm-1:     0.018396     0.009389     0.006575
Rotational constants in MHz :   551.495864   281.465823   197.113852

                             ****ORCA TERMINATED NORMALLY****
TOTAL RUN TIME: 0 days 0 hours 0 minutes 22 seconds 47 msec
