                         Program Version 4.2.1 -  RELEASE  -
|  1> ! wB97X-D3 SP def2-SVP
|  2> %pal
|  3> nprocs 24
|  4> end
|  5>
|  6> * xyz 0 1
|  7> S 	 -99.0771 	 49.5368 	 -97.8414
|  8> C 	 -100.364 	 50.457 	 -97.0739
|  9> C 	 -101.308 	 50.9805 	 -97.9082
| 10> C 	 -100.882 	 50.681 	 -99.2562
| 11> C 	 -99.7314 	 49.8453 	 -99.4694
| 12> H 	 -101.217 	 51.2151 	 -100.143
| 13> C 	 -102.463 	 51.9541 	 -97.6018
| 14> H 	 -102.291 	 52.8622 	 -98.1303
| 15> H 	 -102.333 	 52.2968 	 -96.5718
| 16> C 	 -103.811 	 51.3168 	 -97.8013
| 17> H 	 -103.787 	 50.9884 	 -98.8549
| 18> H 	 -103.849 	 50.3804 	 -97.2859
| 19> C 	 -105.142 	 52.0979 	 -97.5512
| 20> H 	 -105.272 	 53.0445 	 -98.0589
| 21> H 	 -105.952 	 51.5042 	 -97.8284
| 22> H 	 -105.293 	 52.3933 	 -96.5391
| 23> S 	 -97.2773 	 49.9701 	 -100.712
| 24> C 	 -97.099 	 49.616 	 -102.342
| 25> C 	 -98.2575 	 49.1048 	 -102.906
| 26> C 	 -99.3827 	 49.2646 	 -102.004
| 27> C 	 -99.0185 	 49.6145 	 -100.719
| 28> H 	 -98.3303 	 48.6262 	 -103.845
| 29> C 	 -100.764 	 48.6731 	 -102.406
| 30> H 	 -101.395 	 49.1065 	 -101.671
| 31> H 	 -100.902 	 47.6303 	 -102.074
| 32> C 	 -101.242 	 48.8687 	 -103.816
| 33> H 	 -100.457 	 48.5692 	 -104.502
| 34> H 	 -101.449 	 49.9209 	 -103.997
| 35> C 	 -102.508 	 48.1128 	 -104.166
| 36> H 	 -102.788 	 48.4478 	 -105.185
| 37> H 	 -103.376 	 48.3869 	 -103.489
| 38> H 	 -102.192 	 47.1615 	 -104.314
| 39> H 	 -100.559 	 50.5895 	 -96.0331
| 40> H 	 -96.112 	 49.6442 	 -102.932
| 41> *
| 42>
| 43>                          ****END OF INPUT****

CARTESIAN COORDINATES (ANGSTROEM)
---------------------------------
  S    -99.077100   49.536800  -97.841400
  C    -100.364000   50.457000  -97.073900
  C    -101.308000   50.980500  -97.908200
  C    -100.882000   50.681000  -99.256200
  C    -99.731400   49.845300  -99.469400
  H    -101.217000   51.215100  -100.143000
  C    -102.463000   51.954100  -97.601800
  H    -102.291000   52.862200  -98.130300
  H    -102.333000   52.296800  -96.571800
  C    -103.811000   51.316800  -97.801300
  H    -103.787000   50.988400  -98.854900
  H    -103.849000   50.380400  -97.285900
  C    -105.142000   52.097900  -97.551200
  H    -105.272000   53.044500  -98.058900
  H    -105.952000   51.504200  -97.828400
  H    -105.293000   52.393300  -96.539100
  S    -97.277300   49.970100  -100.712000
  C    -97.099000   49.616000  -102.342000
  C    -98.257500   49.104800  -102.906000
  C    -99.382700   49.264600  -102.004000
  C    -99.018500   49.614500  -100.719000
  H    -98.330300   48.626200  -103.845000
  C    -100.764000   48.673100  -102.406000
  H    -101.395000   49.106500  -101.671000
  H    -100.902000   47.630300  -102.074000
  C    -101.242000   48.868700  -103.816000
  H    -100.457000   48.569200  -104.502000
  H    -101.449000   49.920900  -103.997000
  C    -102.508000   48.112800  -104.166000
  H    -102.788000   48.447800  -105.185000
  H    -103.376000   48.386900  -103.489000
  H    -102.192000   47.161500  -104.314000
  H    -100.559000   50.589500  -96.033100
  H    -96.112000   49.644200  -102.932000

 Total Charge           Charge          ....    0
 Multiplicity           Mult            ....    1
 Number of Electrons    NEL             ....  134
 Basis Dimension        Dim             ....  322

ORBITAL ENERGIES
----------------

  NO   OCC          E(Eh)            E(eV)
   0   2.0000     -88.971562     -2421.0393
   1   2.0000     -88.964654     -2420.8513
   2   2.0000     -10.338644      -281.3288
   3   2.0000     -10.330699      -281.1126
   4   2.0000     -10.320610      -280.8381
   5   2.0000     -10.314674      -280.6766
   6   2.0000     -10.306709      -280.4598
   7   2.0000     -10.304300      -280.3943
   8   2.0000     -10.299396      -280.2608
   9   2.0000     -10.295936      -280.1667
  10   2.0000     -10.291516      -280.0464
  11   2.0000     -10.288273      -279.9581
  12   2.0000     -10.284731      -279.8618
  13   2.0000     -10.280918      -279.7580
  14   2.0000     -10.276030      -279.6250
  15   2.0000     -10.274584      -279.5856
  16   2.0000      -8.085115      -220.0072
  17   2.0000      -8.080540      -219.8827
  18   2.0000      -6.043840      -164.4613
  19   2.0000      -6.039743      -164.3498
  20   2.0000      -6.038970      -164.3287
  21   2.0000      -6.035752      -164.2412
  22   2.0000      -6.034868      -164.2171
  23   2.0000      -6.031303      -164.1201
  24   2.0000      -1.005740       -27.3676
  25   2.0000      -0.983325       -26.7576
  26   2.0000      -0.913544       -24.8588
  27   2.0000      -0.912601       -24.8331
  28   2.0000      -0.871319       -23.7098
  29   2.0000      -0.855104       -23.2686
  30   2.0000      -0.842534       -22.9265
  31   2.0000      -0.809614       -22.0307
  32   2.0000      -0.791844       -21.5472
  33   2.0000      -0.779437       -21.2096
  34   2.0000      -0.711506       -19.3611
  35   2.0000      -0.702522       -19.1166
  36   2.0000      -0.696408       -18.9502
  37   2.0000      -0.656914       -17.8755
  38   2.0000      -0.637296       -17.3417
  39   2.0000      -0.615220       -16.7410
  40   2.0000      -0.597175       -16.2500
  41   2.0000      -0.575246       -15.6532
  42   2.0000      -0.571718       -15.5572
  43   2.0000      -0.555817       -15.1245
  44   2.0000      -0.533467       -14.5164
  45   2.0000      -0.525478       -14.2990
  46   2.0000      -0.519971       -14.1491
  47   2.0000      -0.513411       -13.9706
  48   2.0000      -0.506005       -13.7691
  49   2.0000      -0.496743       -13.5171
  50   2.0000      -0.491017       -13.3613
  51   2.0000      -0.483579       -13.1588
  52   2.0000      -0.470206       -12.7950
  53   2.0000      -0.468019       -12.7354
  54   2.0000      -0.456655       -12.4262
  55   2.0000      -0.452176       -12.3043
  56   2.0000      -0.447803       -12.1853
  57   2.0000      -0.442363       -12.0373
  58   2.0000      -0.428488       -11.6598
  59   2.0000      -0.423605       -11.5269
  60   2.0000      -0.417006       -11.3473
  61   2.0000      -0.414266       -11.2728
  62   2.0000      -0.412129       -11.2146
  63   2.0000      -0.354544        -9.6476
  64   2.0000      -0.332691        -9.0530
  65   2.0000      -0.328397        -8.9361
  66   2.0000      -0.286676        -7.8009
  67   0.0000       0.024765         0.6739
  68   0.0000       0.070447         1.9170
  69   0.0000       0.114919         3.1271
  70   0.0000       0.118581         3.2268
  71   0.0000       0.125874         3.4252

MULLIKEN ATOMIC CHARGES
-----------------------
   0 S :    0.112588
   1 C :   -0.099900
   2 C :   -0.112825
   3 C :    0.011089
   4 C :   -0.160801
   5 H :    0.022994
   6 C :    0.112855
   7 H :    0.027864
   8 H :    0.005667
   9 C :   -0.085242
  10 H :    0.023284
  11 H :    0.025113
  12 C :    0.006068
  13 H :    0.021023
  14 H :    0.023452
  15 H :    0.018623
  16 S :    0.113243
  17 C :   -0.106566
  18 C :   -0.030854
  19 C :   -0.048149
  20 C :   -0.142853
  21 H :    0.011785
  22 C :    0.082873
  23 H :   -0.011935
  24 H :    0.033084
  25 C :   -0.095362
  26 H :    0.019215
  27 H :    0.026116
  28 C :   -0.012240
  29 H :    0.023382
  30 H :    0.052516
  31 H :    0.013914
  32 H :    0.032921
  33 H :    0.087060
Sum of atomic charges:    0.0000000

LOEWDIN ATOMIC CHARGES
----------------------
   0 S :    0.393121
   1 C :   -0.186204
   2 C :   -0.063786
   3 C :   -0.060149
   4 C :   -0.196084
   5 H :    0.026682
   6 C :   -0.024122
   7 H :    0.030167
   8 H :    0.026745
   9 C :   -0.041979
  10 H :    0.027409
  11 H :    0.025687
  12 C :   -0.059609
  13 H :    0.025360
  14 H :    0.022652
  15 H :    0.021209
  16 S :    0.427113
  17 C :   -0.215195
  18 C :   -0.074765
  19 C :   -0.049207
  20 C :   -0.196382
  21 H :    0.023506
  22 C :   -0.039192
  23 H :    0.022499
  24 H :    0.036840
  25 C :   -0.043480
  26 H :    0.020022
  27 H :    0.023539
  28 C :   -0.056825
  29 H :    0.030739
  30 H :    0.037261
  31 H :    0.011325
  32 H :    0.025393
  33 H :    0.049709

  Mayer bond orders larger than 0.100000
B(  0-S ,  1-C ) :   1.1413 B(  0-S ,  4-C ) :   1.1266 B(  1-C ,  2-C ) :   1.6436
B(  1-C , 32-H ) :   0.9550 B(  2-C ,  3-C ) :   1.2395 B(  2-C ,  6-C ) :   1.0188
B(  3-C ,  4-C ) :   1.5731 B(  3-C ,  5-H ) :   0.9757 B(  4-C , 20-C ) :   1.0680
B(  6-C ,  7-H ) :   0.9413 B(  6-C ,  8-H ) :   0.9354 B(  6-C ,  9-C ) :   1.0536
B(  9-C , 10-H ) :   0.9581 B(  9-C , 11-H ) :   0.9531 B(  9-C , 12-C ) :   1.0796
B( 12-C , 13-H ) :   0.9735 B( 12-C , 14-H ) :   0.9731 B( 12-C , 15-H ) :   0.9737
B( 16-S , 17-C ) :   1.1870 B( 16-S , 20-C ) :   1.1271 B( 17-C , 18-C ) :   1.5846
B( 17-C , 33-H ) :   0.9536 B( 18-C , 19-C ) :   1.2447 B( 18-C , 21-H ) :   0.9935
B( 19-C , 20-C ) :   1.5981 B( 19-C , 22-C ) :   1.0317 B( 22-C , 23-H ) :   0.9214
B( 22-C , 24-H ) :   0.9368 B( 22-C , 25-C ) :   1.0620 B( 25-C , 26-H ) :   0.9539
B( 25-C , 27-H ) :   0.9547 B( 25-C , 28-C ) :   1.0946 B( 28-C , 29-H ) :   0.9699
B( 28-C , 30-H ) :   0.9726 B( 28-C , 31-H ) :   0.9741

Dispersion correction           -0.013027514
FINAL SINGLE POINT ENERGY     -1339.850496223041

DIPOLE MOMENT
-------------
                                X             Y             Z
Electronic contribution:     30.42826      -2.83208       8.78681
Nuclear contribution   :    -30.98419       3.01207      -9.07607
                        -----------------------------------------
Total Dipole Moment    :     -0.55593       0.17999      -0.28926
                        -----------------------------------------
Magnitude (a.u.)       :      0.65202
Magnitude (Debye)      :      1.65730

Rotational constants in cm-1:     0.015979     0.008377     0.005857
Rotational constants in MHz :   479.030106   251.141433   175.600912

                             ****ORCA TERMINATED NORMALLY****
TOTAL RUN TIME: 0 days 0 hours 0 minutes 20 seconds 688 msec
