                         Program Version 4.2.1 -  RELEASE  -
|  1> ! wB97X-D3 SP def2-SVP
|  2> %pal
|  3> nprocs 24
|  4> end
|  5>
|  6> * xyz 0 1
|  7> S 	 26.1118 	 -0.506131 	 -108.161
|  8> C 	 27.44 	 -0.396239 	 -109.304
|  9> C 	 27.2178 	 -1.15473 	 -110.406
| 10> C 	 26.0677 	 -1.97952 	 -110.294
| 11> C 	 25.3602 	 -1.76502 	 -109.146
| 12> H 	 25.6749 	 -2.77639 	 -110.964
| 13> C 	 28.1686 	 -1.29993 	 -111.549
| 14> H 	 28.225 	 -2.34302 	 -111.927
| 15> H 	 29.1636 	 -1.0408 	 -111.155
| 16> C 	 27.7119 	 -0.56562 	 -112.754
| 17> H 	 26.7958 	 -1.15494 	 -113.09
| 18> H 	 27.3531 	 0.393836 	 -112.528
| 19> C 	 28.7696 	 -0.476359 	 -113.857
| 20> H 	 28.5515 	 0.26751 	 -114.639
| 21> H 	 29.7588 	 -0.222423 	 -113.534
| 22> H 	 28.7975 	 -1.48736 	 -114.382
| 23> S 	 22.7866 	 -1.19145 	 -109.064
| 24> C 	 21.5925 	 -2.2982 	 -108.619
| 25> C 	 22.138 	 -3.53624 	 -108.434
| 26> C 	 23.566 	 -3.57803 	 -108.519
| 27> C 	 24.0743 	 -2.34213 	 -108.831
| 28> H 	 21.5115 	 -4.35623 	 -108.309
| 29> C 	 24.3617 	 -4.88031 	 -108.305
| 30> H 	 24.5438 	 -5.24726 	 -109.3
| 31> H 	 23.7822 	 -5.57452 	 -107.669
| 32> C 	 25.7229 	 -4.52951 	 -107.575
| 33> H 	 25.6351 	 -3.84936 	 -106.723
| 34> H 	 26.3248 	 -3.89593 	 -108.228
| 35> C 	 26.4831 	 -5.75344 	 -107.028
| 36> H 	 25.9139 	 -6.21608 	 -106.235
| 37> H 	 27.4484 	 -5.48416 	 -106.644
| 38> H 	 26.727 	 -6.45161 	 -107.791
| 39> H 	 28.4078 	 0.041171 	 -109.01
| 40> H 	 20.4908 	 -2.2188 	 -108.602
| 41> *
| 42>
| 43>                          ****END OF INPUT****

CARTESIAN COORDINATES (ANGSTROEM)
---------------------------------
  S     26.111800   -0.506131  -108.161000
  C     27.440000   -0.396239  -109.304000
  C     27.217800   -1.154730  -110.406000
  C     26.067700   -1.979520  -110.294000
  C     25.360200   -1.765020  -109.146000
  H     25.674900   -2.776390  -110.964000
  C     28.168600   -1.299930  -111.549000
  H     28.225000   -2.343020  -111.927000
  H     29.163600   -1.040800  -111.155000
  C     27.711900   -0.565620  -112.754000
  H     26.795800   -1.154940  -113.090000
  H     27.353100    0.393836  -112.528000
  C     28.769600   -0.476359  -113.857000
  H     28.551500    0.267510  -114.639000
  H     29.758800   -0.222423  -113.534000
  H     28.797500   -1.487360  -114.382000
  S     22.786600   -1.191450  -109.064000
  C     21.592500   -2.298200  -108.619000
  C     22.138000   -3.536240  -108.434000
  C     23.566000   -3.578030  -108.519000
  C     24.074300   -2.342130  -108.831000
  H     21.511500   -4.356230  -108.309000
  C     24.361700   -4.880310  -108.305000
  H     24.543800   -5.247260  -109.300000
  H     23.782200   -5.574520  -107.669000
  C     25.722900   -4.529510  -107.575000
  H     25.635100   -3.849360  -106.723000
  H     26.324800   -3.895930  -108.228000
  C     26.483100   -5.753440  -107.028000
  H     25.913900   -6.216080  -106.235000
  H     27.448400   -5.484160  -106.644000
  H     26.727000   -6.451610  -107.791000
  H     28.407800    0.041171  -109.010000
  H     20.490800   -2.218800  -108.602000

 Total Charge           Charge          ....    0
 Multiplicity           Mult            ....    1
 Number of Electrons    NEL             ....  134
 Basis Dimension        Dim             ....  322

ORBITAL ENERGIES
----------------

  NO   OCC          E(Eh)            E(eV)
   0   2.0000     -88.964666     -2420.8516
   1   2.0000     -88.959902     -2420.7220
   2   2.0000     -10.326865      -281.0083
   3   2.0000     -10.319312      -280.8028
   4   2.0000     -10.314893      -280.6825
   5   2.0000     -10.309528      -280.5365
   6   2.0000     -10.301952      -280.3304
   7   2.0000     -10.298416      -280.2342
   8   2.0000     -10.297945      -280.2213
   9   2.0000     -10.294867      -280.1376
  10   2.0000     -10.289301      -279.9861
  11   2.0000     -10.283171      -279.8193
  12   2.0000     -10.282133      -279.7911
  13   2.0000     -10.281672      -279.7785
  14   2.0000     -10.281511      -279.7741
  15   2.0000     -10.268345      -279.4159
  16   2.0000      -8.079265      -219.8480
  17   2.0000      -8.076161      -219.7635
  18   2.0000      -6.037750      -164.2955
  19   2.0000      -6.034718      -164.2130
  20   2.0000      -6.033829      -164.1888
  21   2.0000      -6.030306      -164.0930
  22   2.0000      -6.030012      -164.0850
  23   2.0000      -6.026898      -164.0002
  24   2.0000      -1.013700       -27.5842
  25   2.0000      -0.990680       -26.9578
  26   2.0000      -0.920753       -25.0550
  27   2.0000      -0.901024       -24.5181
  28   2.0000      -0.874094       -23.7853
  29   2.0000      -0.849469       -23.1152
  30   2.0000      -0.846872       -23.0446
  31   2.0000      -0.816181       -22.2094
  32   2.0000      -0.782169       -21.2839
  33   2.0000      -0.772333       -21.0162
  34   2.0000      -0.711388       -19.3578
  35   2.0000      -0.697506       -18.9801
  36   2.0000      -0.690975       -18.8024
  37   2.0000      -0.659928       -17.9575
  38   2.0000      -0.645630       -17.5685
  39   2.0000      -0.618168       -16.8212
  40   2.0000      -0.590104       -16.0575
  41   2.0000      -0.580875       -15.8064
  42   2.0000      -0.565184       -15.3794
  43   2.0000      -0.556581       -15.1453
  44   2.0000      -0.523969       -14.2579
  45   2.0000      -0.519128       -14.1262
  46   2.0000      -0.515884       -14.0379
  47   2.0000      -0.512880       -13.9562
  48   2.0000      -0.509144       -13.8545
  49   2.0000      -0.499772       -13.5995
  50   2.0000      -0.496175       -13.5016
  51   2.0000      -0.486182       -13.2297
  52   2.0000      -0.476415       -12.9639
  53   2.0000      -0.467003       -12.7078
  54   2.0000      -0.459597       -12.5063
  55   2.0000      -0.444230       -12.0881
  56   2.0000      -0.441154       -12.0044
  57   2.0000      -0.436801       -11.8860
  58   2.0000      -0.427853       -11.6425
  59   2.0000      -0.423419       -11.5218
  60   2.0000      -0.422433       -11.4950
  61   2.0000      -0.412551       -11.2261
  62   2.0000      -0.408719       -11.1218
  63   2.0000      -0.340049        -9.2532
  64   2.0000      -0.331803        -9.0288
  65   2.0000      -0.325067        -8.8455
  66   2.0000      -0.302812        -8.2399
  67   0.0000       0.043554         1.1852
  68   0.0000       0.060574         1.6483
  69   0.0000       0.116517         3.1706
  70   0.0000       0.124725         3.3940
  71   0.0000       0.135569         3.6890

MULLIKEN ATOMIC CHARGES
-----------------------
   0 S :    0.111055
   1 C :   -0.142143
   2 C :   -0.053854
   3 C :    0.039458
   4 C :   -0.190805
   5 H :    0.029199
   6 C :    0.061936
   7 H :    0.024180
   8 H :    0.015994
   9 C :   -0.072213
  10 H :    0.032714
  11 H :    0.017193
  12 C :   -0.040900
  13 H :    0.036626
  14 H :    0.026166
  15 H :    0.034195
  16 S :    0.118959
  17 C :   -0.071639
  18 C :   -0.049275
  19 C :   -0.026861
  20 C :   -0.199727
  21 H :   -0.014020
  22 C :    0.114149
  23 H :    0.040046
  24 H :    0.028502
  25 C :   -0.129355
  26 H :    0.028972
  27 H :    0.040089
  28 C :    0.000935
  29 H :    0.030208
  30 H :    0.020046
  31 H :    0.016099
  32 H :    0.063431
  33 H :    0.060639
Sum of atomic charges:    0.0000000

LOEWDIN ATOMIC CHARGES
----------------------
   0 S :    0.392283
   1 C :   -0.194624
   2 C :   -0.064214
   3 C :   -0.062779
   4 C :   -0.196070
   5 H :    0.041391
   6 C :   -0.033550
   7 H :    0.033490
   8 H :    0.025873
   9 C :   -0.041900
  10 H :    0.033251
  11 H :    0.013557
  12 C :   -0.068020
  13 H :    0.029075
  14 H :    0.019836
  15 H :    0.032426
  16 S :    0.438197
  17 C :   -0.209442
  18 C :   -0.075026
  19 C :   -0.053973
  20 C :   -0.208066
  21 H :    0.017619
  22 C :   -0.018904
  23 H :    0.033123
  24 H :    0.031713
  25 C :   -0.045396
  26 H :    0.025690
  27 H :    0.024034
  28 C :   -0.061348
  29 H :    0.023625
  30 H :    0.024834
  31 H :    0.017904
  32 H :    0.034910
  33 H :    0.040479

  Mayer bond orders larger than 0.100000
B(  0-S ,  1-C ) :   1.1272 B(  0-S ,  4-C ) :   1.1435 B(  1-C ,  2-C ) :   1.6321
B(  1-C , 32-H ) :   0.9637 B(  2-C ,  3-C ) :   1.2104 B(  2-C ,  6-C ) :   1.0301
B(  3-C ,  4-C ) :   1.6117 B(  3-C ,  5-H ) :   0.9875 B(  4-C , 20-C ) :   1.0071
B(  6-C ,  7-H ) :   0.9435 B(  6-C ,  8-H ) :   0.9437 B(  6-C ,  9-C ) :   1.0479
B(  9-C , 10-H ) :   0.9549 B(  9-C , 11-H ) :   0.9589 B(  9-C , 12-C ) :   1.0790
B( 12-C , 13-H ) :   0.9761 B( 12-C , 14-H ) :   0.9765 B( 12-C , 15-H ) :   0.9732
B( 16-S , 17-C ) :   1.1618 B( 16-S , 20-C ) :   1.1606 B( 17-C , 18-C ) :   1.6133
B( 17-C , 33-H ) :   0.9606 B( 18-C , 19-C ) :   1.2445 B( 18-C , 21-H ) :   0.9991
B( 19-C , 20-C ) :   1.6071 B( 19-C , 22-C ) :   1.0259 B( 22-C , 23-H ) :   0.9271
B( 22-C , 24-H ) :   0.9440 B( 22-C , 25-C ) :   1.0565 B( 25-C , 26-H ) :   0.9640
B( 25-C , 27-H ) :   0.9461 B( 25-C , 28-C ) :   1.0916 B( 28-C , 29-H ) :   0.9754
B( 28-C , 30-H ) :   0.9707 B( 28-C , 31-H ) :   0.9725

Dispersion correction           -0.014429943
FINAL SINGLE POINT ENERGY     -1339.877109283102

DIPOLE MOMENT
-------------
                                X             Y             Z
Electronic contribution:    -16.99889      12.87097      10.69115
Nuclear contribution   :     17.25620     -13.32903     -11.03663
                        -----------------------------------------
Total Dipole Moment    :      0.25731      -0.45806      -0.34548
                        -----------------------------------------
Magnitude (a.u.)       :      0.62880
Magnitude (Debye)      :      1.59828

Rotational constants in cm-1:     0.018590     0.008326     0.007155
Rotational constants in MHz :   557.302730   249.603507   214.508703

                             ****ORCA TERMINATED NORMALLY****
TOTAL RUN TIME: 0 days 0 hours 0 minutes 21 seconds 787 msec
