                         Program Version 4.2.1 -  RELEASE  -
|  1> ! wB97X-D3 SP def2-SVP
|  2> %pal
|  3> nprocs 24
|  4> end
|  5>
|  6> * xyz 0 1
|  7> S 	 -41.2864 	 19.6973 	 13.5948
|  8> C 	 -41.5698 	 18.7802 	 15.0558
|  9> C 	 -40.4911 	 18.6798 	 15.8828
| 10> C 	 -39.3671 	 19.394 	 15.3026
| 11> C 	 -39.602 	 19.9947 	 14.0885
| 12> H 	 -38.4573 	 19.6063 	 15.7545
| 13> C 	 -40.3607 	 17.9345 	 17.208
| 14> H 	 -40.9641 	 18.4748 	 17.9798
| 15> H 	 -39.274 	 17.9834 	 17.527
| 16> C 	 -40.7241 	 16.4266 	 17.1331
| 17> H 	 -41.752 	 16.2018 	 16.8527
| 18> H 	 -40.1493 	 15.88 	 16.3468
| 19> C 	 -40.5048 	 15.874 	 18.611
| 20> H 	 -40.9897 	 14.8787 	 18.7496
| 21> H 	 -39.4484 	 15.5702 	 18.6366
| 22> H 	 -40.8024 	 16.526 	 19.378
| 23> S 	 -39.5532 	 22.0966 	 12.3364
| 24> C 	 -38.0844 	 22.6359 	 11.6054
| 25> C 	 -36.9888 	 21.8383 	 12.0292
| 26> C 	 -37.3945 	 20.8451 	 12.9994
| 27> C 	 -38.7315 	 20.8949 	 13.3481
| 28> H 	 -36.0868 	 22.0243 	 11.5274
| 29> C 	 -36.4947 	 19.7444 	 13.4741
| 30> H 	 -36.8823 	 18.8757 	 12.9061
| 31> H 	 -36.5888 	 19.5256 	 14.5457
| 32> C 	 -34.9612 	 19.889 	 13.4826
| 33> H 	 -34.5941 	 20.0128 	 12.5045
| 34> H 	 -34.491 	 18.9406 	 13.8731
| 35> C 	 -34.3488 	 21.0146 	 14.3707
| 36> H 	 -34.8645 	 21.92 	 14.1822
| 37> H 	 -33.2478 	 21.245 	 14.2956
| 38> H 	 -34.5509 	 20.8381 	 15.3717
| 39> H 	 -42.501 	 18.3314 	 15.3099
| 40> H 	 -37.879 	 23.3402 	 10.8323
| 41> *
| 42>
| 43>                          ****END OF INPUT****

CARTESIAN COORDINATES (ANGSTROEM)
---------------------------------
  S    -41.286400   19.697300   13.594800
  C    -41.569800   18.780200   15.055800
  C    -40.491100   18.679800   15.882800
  C    -39.367100   19.394000   15.302600
  C    -39.602000   19.994700   14.088500
  H    -38.457300   19.606300   15.754500
  C    -40.360700   17.934500   17.208000
  H    -40.964100   18.474800   17.979800
  H    -39.274000   17.983400   17.527000
  C    -40.724100   16.426600   17.133100
  H    -41.752000   16.201800   16.852700
  H    -40.149300   15.880000   16.346800
  C    -40.504800   15.874000   18.611000
  H    -40.989700   14.878700   18.749600
  H    -39.448400   15.570200   18.636600
  H    -40.802400   16.526000   19.378000
  S    -39.553200   22.096600   12.336400
  C    -38.084400   22.635900   11.605400
  C    -36.988800   21.838300   12.029200
  C    -37.394500   20.845100   12.999400
  C    -38.731500   20.894900   13.348100
  H    -36.086800   22.024300   11.527400
  C    -36.494700   19.744400   13.474100
  H    -36.882300   18.875700   12.906100
  H    -36.588800   19.525600   14.545700
  C    -34.961200   19.889000   13.482600
  H    -34.594100   20.012800   12.504500
  H    -34.491000   18.940600   13.873100
  C    -34.348800   21.014600   14.370700
  H    -34.864500   21.920000   14.182200
  H    -33.247800   21.245000   14.295600
  H    -34.550900   20.838100   15.371700
  H    -42.501000   18.331400   15.309900
  H    -37.879000   23.340200   10.832300

 Total Charge           Charge          ....    0
 Multiplicity           Mult            ....    1
 Number of Electrons    NEL             ....  134
 Basis Dimension        Dim             ....  322

ORBITAL ENERGIES
----------------

  NO   OCC          E(Eh)            E(eV)
   0   2.0000     -88.967175     -2420.9199
   1   2.0000     -88.966427     -2420.8995
   2   2.0000     -10.330733      -281.1135
   3   2.0000     -10.327603      -281.0284
   4   2.0000     -10.318850      -280.7902
   5   2.0000     -10.310045      -280.5506
   6   2.0000     -10.308688      -280.5137
   7   2.0000     -10.304919      -280.4111
   8   2.0000     -10.301008      -280.3047
   9   2.0000     -10.296286      -280.1762
  10   2.0000     -10.296156      -280.1727
  11   2.0000     -10.294284      -280.1217
  12   2.0000     -10.289991      -280.0049
  13   2.0000     -10.288412      -279.9619
  14   2.0000     -10.281803      -279.7821
  15   2.0000     -10.273089      -279.5450
  16   2.0000      -8.081695      -219.9141
  17   2.0000      -8.080686      -219.8866
  18   2.0000      -6.040276      -164.3643
  19   2.0000      -6.039352      -164.3391
  20   2.0000      -6.036094      -164.2505
  21   2.0000      -6.035355      -164.2304
  22   2.0000      -6.032522      -164.1533
  23   2.0000      -6.031212      -164.1176
  24   2.0000      -1.005247       -27.3542
  25   2.0000      -0.981350       -26.7039
  26   2.0000      -0.908879       -24.7319
  27   2.0000      -0.905575       -24.6419
  28   2.0000      -0.870020       -23.6745
  29   2.0000      -0.851622       -23.1738
  30   2.0000      -0.841912       -22.9096
  31   2.0000      -0.815992       -22.2043
  32   2.0000      -0.783663       -21.3246
  33   2.0000      -0.771364       -20.9899
  34   2.0000      -0.710561       -19.3353
  35   2.0000      -0.707301       -19.2466
  36   2.0000      -0.696605       -18.9556
  37   2.0000      -0.660659       -17.9775
  38   2.0000      -0.642975       -17.4962
  39   2.0000      -0.619095       -16.8464
  40   2.0000      -0.596806       -16.2399
  41   2.0000      -0.570033       -15.5114
  42   2.0000      -0.560916       -15.2633
  43   2.0000      -0.557095       -15.1593
  44   2.0000      -0.538178       -14.6446
  45   2.0000      -0.524508       -14.2726
  46   2.0000      -0.520140       -14.1537
  47   2.0000      -0.508461       -13.8359
  48   2.0000      -0.505339       -13.7510
  49   2.0000      -0.496282       -13.5045
  50   2.0000      -0.492885       -13.4121
  51   2.0000      -0.476416       -12.9639
  52   2.0000      -0.472534       -12.8583
  53   2.0000      -0.465246       -12.6600
  54   2.0000      -0.461956       -12.5705
  55   2.0000      -0.451977       -12.2989
  56   2.0000      -0.447976       -12.1900
  57   2.0000      -0.444622       -12.0988
  58   2.0000      -0.430571       -11.7164
  59   2.0000      -0.419293       -11.4096
  60   2.0000      -0.417080       -11.3493
  61   2.0000      -0.414006       -11.2657
  62   2.0000      -0.408869       -11.1259
  63   2.0000      -0.357854        -9.7377
  64   2.0000      -0.331316        -9.0156
  65   2.0000      -0.328126        -8.9288
  66   2.0000      -0.285244        -7.7619
  67   0.0000       0.022783         0.6199
  68   0.0000       0.073616         2.0032
  69   0.0000       0.105634         2.8744
  70   0.0000       0.123286         3.3548
  71   0.0000       0.135722         3.6932

MULLIKEN ATOMIC CHARGES
-----------------------
   0 S :    0.103876
   1 C :   -0.114395
   2 C :   -0.049818
   3 C :    0.014576
   4 C :   -0.124316
   5 H :   -0.014653
   6 C :    0.033962
   7 H :    0.052841
   8 H :    0.036759
   9 C :   -0.101664
  10 H :    0.030134
  11 H :    0.044436
  12 C :   -0.054604
  13 H :    0.031869
  14 H :    0.036170
  15 H :    0.036854
  16 S :    0.099292
  17 C :   -0.071195
  18 C :   -0.046186
  19 C :   -0.035110
  20 C :   -0.131299
  21 H :    0.005305
  22 C :    0.028915
  23 H :    0.059715
  24 H :    0.027885
  25 C :   -0.060892
  26 H :    0.015431
  27 H :    0.035823
  28 C :   -0.042445
  29 H :    0.019015
  30 H :    0.048267
  31 H :    0.007045
  32 H :    0.031007
  33 H :    0.047399
Sum of atomic charges:    0.0000000

LOEWDIN ATOMIC CHARGES
----------------------
   0 S :    0.385784
   1 C :   -0.188341
   2 C :   -0.064246
   3 C :   -0.057002
   4 C :   -0.179592
   5 H :    0.016362
   6 C :   -0.035370
   7 H :    0.038570
   8 H :    0.037998
   9 C :   -0.040583
  10 H :    0.017868
  11 H :    0.031395
  12 C :   -0.066633
  13 H :    0.029090
  14 H :    0.029314
  15 H :    0.017883
  16 S :    0.409466
  17 C :   -0.188525
  18 C :   -0.069398
  19 C :   -0.055692
  20 C :   -0.193004
  21 H :    0.023688
  22 C :   -0.039189
  23 H :    0.047793
  24 H :    0.032403
  25 C :   -0.037915
  26 H :    0.009601
  27 H :    0.033136
  28 C :   -0.065955
  29 H :    0.019746
  30 H :    0.037401
  31 H :    0.013158
  32 H :    0.021675
  33 H :    0.029116

  Mayer bond orders larger than 0.100000
B(  0-S ,  1-C ) :   1.1273 B(  0-S ,  4-C ) :   1.1177 B(  1-C ,  2-C ) :   1.6439
B(  1-C , 32-H ) :   0.9693 B(  2-C ,  3-C ) :   1.2179 B(  2-C ,  6-C ) :   1.0057
B(  3-C ,  4-C ) :   1.6014 B(  3-C ,  5-H ) :   0.9992 B(  4-C , 20-C ) :   1.0845
B(  6-C ,  7-H ) :   0.9375 B(  6-C ,  8-H ) :   0.9509 B(  6-C ,  9-C ) :   1.0542
B(  9-C , 10-H ) :   0.9621 B(  9-C , 11-H ) :   0.9613 B(  9-C , 12-C ) :   1.0632
B( 12-C , 13-H ) :   0.9756 B( 12-C , 14-H ) :   0.9785 B( 12-C , 15-H ) :   0.9776
B( 16-S , 17-C ) :   1.1711 B( 16-S , 20-C ) :   1.1185 B( 17-C , 18-C ) :   1.5991
B( 17-C , 33-H ) :   0.9661 B( 18-C , 19-C ) :   1.2333 B( 18-C , 21-H ) :   1.0008
B( 19-C , 20-C ) :   1.5841 B( 19-C , 22-C ) :   1.0344 B( 22-C , 23-H ) :   0.9245
B( 22-C , 24-H ) :   0.9439 B( 22-C , 25-C ) :   1.0694 B( 25-C , 26-H ) :   0.9529
B( 25-C , 27-H ) :   0.9581 B( 25-C , 28-C ) :   1.0671 B( 28-C , 29-H ) :   0.9752
B( 28-C , 30-H ) :   0.9763 B( 28-C , 31-H ) :   0.9729

Dispersion correction           -0.013596794
FINAL SINGLE POINT ENERGY     -1339.862607106710

DIPOLE MOMENT
-------------
                                X             Y             Z
Electronic contribution:    -16.68514      15.91039     -18.65995
Nuclear contribution   :     17.13594     -16.28672      18.97204
                        -----------------------------------------
Total Dipole Moment    :      0.45079      -0.37633       0.31209
                        -----------------------------------------
Magnitude (a.u.)       :      0.66501
Magnitude (Debye)      :      1.69032

Rotational constants in cm-1:     0.019441     0.007808     0.005802
Rotational constants in MHz :   582.827910   234.077096   173.932931

                             ****ORCA TERMINATED NORMALLY****
TOTAL RUN TIME: 0 days 0 hours 0 minutes 20 seconds 778 msec
