                         Program Version 4.2.1 -  RELEASE  -
|  1> ! wB97X-D3 SP def2-SVP
|  2> %pal
|  3> nprocs 24
|  4> end
|  5>
|  6> * xyz 0 1
|  7> S 	 -114.249 	 57.3735 	 -78.5759
|  8> C 	 -114.632 	 57.6969 	 -80.2409
|  9> C 	 -113.534 	 58.0833 	 -81.0131
| 10> C 	 -112.351 	 58.297 	 -80.1762
| 11> C 	 -112.584 	 58.0952 	 -78.7983
| 12> H 	 -111.439 	 58.5833 	 -80.5316
| 13> C 	 -113.515 	 58.1552 	 -82.555
| 14> H 	 -114.093 	 57.4035 	 -83.0692
| 15> H 	 -112.487 	 57.7569 	 -82.6653
| 16> C 	 -113.814 	 59.558 	 -83.1763
| 17> H 	 -113.638 	 59.4376 	 -84.2722
| 18> H 	 -114.882 	 59.8402 	 -82.9424
| 19> C 	 -112.801 	 60.6196 	 -82.5934
| 20> H 	 -112.968 	 60.9502 	 -81.5625
| 21> H 	 -111.787 	 60.2128 	 -82.7374
| 22> H 	 -112.859 	 61.4579 	 -83.2986
| 23> S 	 -112.085 	 57.3457 	 -76.1544
| 24> C 	 -110.826 	 58.2223 	 -75.3575
| 25> C 	 -110.051 	 58.9883 	 -76.2365
| 26> C 	 -110.462 	 58.9721 	 -77.6087
| 27> C 	 -111.653 	 58.2109 	 -77.7075
| 28> H 	 -109.133 	 59.3923 	 -75.8765
| 29> C 	 -109.708 	 59.7046 	 -78.7462
| 30> H 	 -110.452 	 60.3091 	 -79.3428
| 31> H 	 -109.413 	 58.9407 	 -79.4421
| 32> C 	 -108.487 	 60.5681 	 -78.3224
| 33> H 	 -107.736 	 60.0534 	 -77.6939
| 34> H 	 -108.893 	 61.405 	 -77.7663
| 35> C 	 -107.716 	 61.1668 	 -79.529
| 36> H 	 -107.502 	 60.4108 	 -80.2257
| 37> H 	 -106.809 	 61.5674 	 -79.1459
| 38> H 	 -108.212 	 62.0537 	 -79.9594
| 39> H 	 -115.62 	 57.3939 	 -80.5989
| 40> H 	 -110.581 	 58.2059 	 -74.3548
| 41> *
| 42>
| 43>                          ****END OF INPUT****

CARTESIAN COORDINATES (ANGSTROEM)
---------------------------------
  S    -114.249000   57.373500  -78.575900
  C    -114.632000   57.696900  -80.240900
  C    -113.534000   58.083300  -81.013100
  C    -112.351000   58.297000  -80.176200
  C    -112.584000   58.095200  -78.798300
  H    -111.439000   58.583300  -80.531600
  C    -113.515000   58.155200  -82.555000
  H    -114.093000   57.403500  -83.069200
  H    -112.487000   57.756900  -82.665300
  C    -113.814000   59.558000  -83.176300
  H    -113.638000   59.437600  -84.272200
  H    -114.882000   59.840200  -82.942400
  C    -112.801000   60.619600  -82.593400
  H    -112.968000   60.950200  -81.562500
  H    -111.787000   60.212800  -82.737400
  H    -112.859000   61.457900  -83.298600
  S    -112.085000   57.345700  -76.154400
  C    -110.826000   58.222300  -75.357500
  C    -110.051000   58.988300  -76.236500
  C    -110.462000   58.972100  -77.608700
  C    -111.653000   58.210900  -77.707500
  H    -109.133000   59.392300  -75.876500
  C    -109.708000   59.704600  -78.746200
  H    -110.452000   60.309100  -79.342800
  H    -109.413000   58.940700  -79.442100
  C    -108.487000   60.568100  -78.322400
  H    -107.736000   60.053400  -77.693900
  H    -108.893000   61.405000  -77.766300
  C    -107.716000   61.166800  -79.529000
  H    -107.502000   60.410800  -80.225700
  H    -106.809000   61.567400  -79.145900
  H    -108.212000   62.053700  -79.959400
  H    -115.620000   57.393900  -80.598900
  H    -110.581000   58.205900  -74.354800

 Total Charge           Charge          ....    0
 Multiplicity           Mult            ....    1
 Number of Electrons    NEL             ....  134
 Basis Dimension        Dim             ....  322

ORBITAL ENERGIES
----------------

  NO   OCC          E(Eh)            E(eV)
   0   2.0000     -88.970409     -2421.0079
   1   2.0000     -88.963512     -2420.8202
   2   2.0000     -10.336477      -281.2698
   3   2.0000     -10.333909      -281.2000
   4   2.0000     -10.313959      -280.6571
   5   2.0000     -10.312593      -280.6199
   6   2.0000     -10.312532      -280.6183
   7   2.0000     -10.306717      -280.4600
   8   2.0000     -10.305673      -280.4316
   9   2.0000     -10.300406      -280.2883
  10   2.0000     -10.295298      -280.1493
  11   2.0000     -10.295014      -280.1416
  12   2.0000     -10.294746      -280.1343
  13   2.0000     -10.292252      -280.0664
  14   2.0000     -10.282061      -279.7891
  15   2.0000     -10.277536      -279.6660
  16   2.0000      -8.084038      -219.9779
  17   2.0000      -8.077419      -219.7977
  18   2.0000      -6.042603      -164.4276
  19   2.0000      -6.038865      -164.3259
  20   2.0000      -6.036087      -164.2503
  21   2.0000      -6.034667      -164.2116
  22   2.0000      -6.032208      -164.1447
  23   2.0000      -6.027923      -164.0281
  24   2.0000      -0.994730       -27.0680
  25   2.0000      -0.971555       -26.4373
  26   2.0000      -0.908235       -24.7143
  27   2.0000      -0.900889       -24.5144
  28   2.0000      -0.866956       -23.5911
  29   2.0000      -0.852963       -23.2103
  30   2.0000      -0.838742       -22.8233
  31   2.0000      -0.808206       -21.9924
  32   2.0000      -0.787682       -21.4339
  33   2.0000      -0.768001       -20.8984
  34   2.0000      -0.710047       -19.3214
  35   2.0000      -0.701473       -19.0881
  36   2.0000      -0.697076       -18.9684
  37   2.0000      -0.655757       -17.8441
  38   2.0000      -0.638048       -17.3622
  39   2.0000      -0.615929       -16.7603
  40   2.0000      -0.596127       -16.2214
  41   2.0000      -0.573177       -15.5969
  42   2.0000      -0.563377       -15.3303
  43   2.0000      -0.542635       -14.7659
  44   2.0000      -0.535202       -14.5636
  45   2.0000      -0.530789       -14.4435
  46   2.0000      -0.515312       -14.0223
  47   2.0000      -0.509693       -13.8695
  48   2.0000      -0.506057       -13.7705
  49   2.0000      -0.496486       -13.5101
  50   2.0000      -0.484577       -13.1860
  51   2.0000      -0.477133       -12.9835
  52   2.0000      -0.469203       -12.7677
  53   2.0000      -0.462694       -12.5905
  54   2.0000      -0.456374       -12.4186
  55   2.0000      -0.453730       -12.3466
  56   2.0000      -0.447398       -12.1743
  57   2.0000      -0.434982       -11.8365
  58   2.0000      -0.432992       -11.7823
  59   2.0000      -0.431179       -11.7330
  60   2.0000      -0.425830       -11.5874
  61   2.0000      -0.419661       -11.4196
  62   2.0000      -0.405729       -11.0404
  63   2.0000      -0.360145        -9.8000
  64   2.0000      -0.334476        -9.1016
  65   2.0000      -0.326377        -8.8812
  66   2.0000      -0.271073        -7.3763
  67   0.0000       0.011860         0.3227
  68   0.0000       0.072517         1.9733
  69   0.0000       0.092366         2.5134
  70   0.0000       0.121312         3.3011
  71   0.0000       0.132536         3.6065

MULLIKEN ATOMIC CHARGES
-----------------------
   0 S :    0.081281
   1 C :   -0.122500
   2 C :   -0.074594
   3 C :    0.023457
   4 C :   -0.110917
   5 H :   -0.042517
   6 C :    0.032759
   7 H :    0.025162
   8 H :    0.028807
   9 C :   -0.078389
  10 H :    0.044289
  11 H :    0.050087
  12 C :   -0.072509
  13 H :    0.064783
  14 H :    0.026562
  15 H :    0.032369
  16 S :    0.107297
  17 C :   -0.042624
  18 C :   -0.051534
  19 C :   -0.040402
  20 C :   -0.142079
  21 H :    0.007242
  22 C :    0.024254
  23 H :    0.048810
  24 H :    0.043352
  25 C :   -0.099586
  26 H :    0.046003
  27 H :    0.036955
  28 C :   -0.010851
  29 H :    0.026250
  30 H :    0.020837
  31 H :    0.037565
  32 H :    0.054671
  33 H :    0.025710
Sum of atomic charges:   -0.0000000

LOEWDIN ATOMIC CHARGES
----------------------
   0 S :    0.367268
   1 C :   -0.197653
   2 C :   -0.060472
   3 C :   -0.055536
   4 C :   -0.161276
   5 H :    0.007698
   6 C :   -0.040736
   7 H :    0.025998
   8 H :    0.034680
   9 C :   -0.038263
  10 H :    0.029613
  11 H :    0.031836
  12 C :   -0.070884
  13 H :    0.030240
  14 H :    0.023595
  15 H :    0.026407
  16 S :    0.385059
  17 C :   -0.179824
  18 C :   -0.070576
  19 C :   -0.045854
  20 C :   -0.172971
  21 H :    0.024312
  22 C :   -0.035333
  23 H :    0.041183
  24 H :    0.028404
  25 C :   -0.040273
  26 H :    0.027591
  27 H :    0.027035
  28 C :   -0.056014
  29 H :    0.017663
  30 H :    0.024242
  31 H :    0.030137
  32 H :    0.027415
  33 H :    0.015290

  Mayer bond orders larger than 0.100000
B(  0-S ,  1-C ) :   1.1383 B(  0-S ,  4-C ) :   1.1183 B(  1-C ,  2-C ) :   1.6136
B(  1-C , 32-H ) :   0.9669 B(  2-C ,  3-C ) :   1.2274 B(  2-C ,  6-C ) :   0.9932
B(  3-C ,  4-C ) :   1.5461 B(  3-C ,  5-H ) :   1.0011 B(  4-C , 20-C ) :   1.1450
B(  6-C ,  7-H ) :   0.9511 B(  6-C ,  8-H ) :   0.9482 B(  6-C ,  9-C ) :   1.0604
B(  9-C , 10-H ) :   0.9570 B(  9-C , 11-H ) :   0.9563 B(  9-C , 12-C ) :   1.0701
B( 12-C , 13-H ) :   0.9727 B( 12-C , 14-H ) :   0.9758 B( 12-C , 15-H ) :   0.9749
B( 16-S , 17-C ) :   1.1478 B( 16-S , 20-C ) :   1.1191 B( 17-C , 18-C ) :   1.6105
B( 17-C , 33-H ) :   0.9691 B( 18-C , 19-C ) :   1.2650 B( 18-C , 21-H ) :   0.9826
B( 19-C , 20-C ) :   1.5655 B( 19-C , 22-C ) :   1.0237 B( 22-C , 23-H ) :   0.9279
B( 22-C , 24-H ) :   0.9284 B( 22-C , 25-C ) :   1.0732 B( 25-C , 26-H ) :   0.9536
B( 25-C , 27-H ) :   0.9514 B( 25-C , 28-C ) :   1.0867 B( 28-C , 29-H ) :   0.9764
B( 28-C , 30-H ) :   0.9723 B( 28-C , 31-H ) :   0.9752

Dispersion correction           -0.014049474
FINAL SINGLE POINT ENERGY     -1339.865018184579

DIPOLE MOMENT
-------------
                                X             Y             Z
Electronic contribution:    -15.01835     -18.18664      22.19148
Nuclear contribution   :     15.59047      18.53237     -22.68966
                        -----------------------------------------
Total Dipole Moment    :      0.57212       0.34572      -0.49818
                        -----------------------------------------
Magnitude (a.u.)       :      0.83369
Magnitude (Debye)      :      2.11906

Rotational constants in cm-1:     0.015491     0.010021     0.006273
Rotational constants in MHz :   464.410898   300.436786   188.065455

                             ****ORCA TERMINATED NORMALLY****
TOTAL RUN TIME: 0 days 0 hours 0 minutes 20 seconds 444 msec
