                         Program Version 4.2.1 -  RELEASE  -
|  1> ! wB97X-D3 SP def2-SVP
|  2> %pal
|  3> nprocs 24
|  4> end
|  5>
|  6> * xyz 0 1
|  7> S 	 -109.363 	 50.8257 	 -69.684
|  8> C 	 -110.094 	 50.4954 	 -71.2249
|  9> C 	 -109.255 	 50.8197 	 -72.2879
| 10> C 	 -108.006 	 51.4786 	 -71.7835
| 11> C 	 -107.982 	 51.5399 	 -70.4094
| 12> H 	 -107.256 	 51.8546 	 -72.4445
| 13> C 	 -109.633 	 50.8937 	 -73.7426
| 14> H 	 -109.425 	 51.8424 	 -74.1139
| 15> H 	 -110.718 	 50.7281 	 -73.9465
| 16> C 	 -108.895 	 49.8962 	 -74.6553
| 17> H 	 -107.8 	 50.0819 	 -74.7319
| 18> H 	 -109.141 	 48.8582 	 -74.3749
| 19> C 	 -109.282 	 50.1334 	 -76.1041
| 20> H 	 -108.961 	 49.2539 	 -76.6328
| 21> H 	 -110.36 	 50.1881 	 -76.2379
| 22> H 	 -108.841 	 51.0206 	 -76.6147
| 23> S 	 -106.23 	 51.0008 	 -68.4352
| 24> C 	 -104.878 	 52.0832 	 -68.2061
| 25> C 	 -105.057 	 53.2701 	 -68.8158
| 26> C 	 -106.224 	 53.2711 	 -69.6758
| 27> C 	 -106.929 	 52.071 	 -69.571
| 28> H 	 -104.392 	 54.1108 	 -68.733
| 29> C 	 -106.386 	 54.3696 	 -70.6646
| 30> H 	 -107.471 	 54.5499 	 -70.8327
| 31> H 	 -105.969 	 53.9144 	 -71.5724
| 32> C 	 -105.778 	 55.7228 	 -70.3134
| 33> H 	 -104.687 	 55.6683 	 -70.3371
| 34> H 	 -105.967 	 56.0664 	 -69.3521
| 35> C 	 -106.344 	 56.6515 	 -71.3805
| 36> H 	 -106.14 	 56.3088 	 -72.4136
| 37> H 	 -105.907 	 57.6132 	 -71.4117
| 38> H 	 -107.369 	 56.9737 	 -71.2777
| 39> H 	 -111.086 	 50.0954 	 -71.2477
| 40> H 	 -104.005 	 51.9524 	 -67.6264
| 41> *
| 42>
| 43>                          ****END OF INPUT****

CARTESIAN COORDINATES (ANGSTROEM)
---------------------------------
  S    -109.363000   50.825700  -69.684000
  C    -110.094000   50.495400  -71.224900
  C    -109.255000   50.819700  -72.287900
  C    -108.006000   51.478600  -71.783500
  C    -107.982000   51.539900  -70.409400
  H    -107.256000   51.854600  -72.444500
  C    -109.633000   50.893700  -73.742600
  H    -109.425000   51.842400  -74.113900
  H    -110.718000   50.728100  -73.946500
  C    -108.895000   49.896200  -74.655300
  H    -107.800000   50.081900  -74.731900
  H    -109.141000   48.858200  -74.374900
  C    -109.282000   50.133400  -76.104100
  H    -108.961000   49.253900  -76.632800
  H    -110.360000   50.188100  -76.237900
  H    -108.841000   51.020600  -76.614700
  S    -106.230000   51.000800  -68.435200
  C    -104.878000   52.083200  -68.206100
  C    -105.057000   53.270100  -68.815800
  C    -106.224000   53.271100  -69.675800
  C    -106.929000   52.071000  -69.571000
  H    -104.392000   54.110800  -68.733000
  C    -106.386000   54.369600  -70.664600
  H    -107.471000   54.549900  -70.832700
  H    -105.969000   53.914400  -71.572400
  C    -105.778000   55.722800  -70.313400
  H    -104.687000   55.668300  -70.337100
  H    -105.967000   56.066400  -69.352100
  C    -106.344000   56.651500  -71.380500
  H    -106.140000   56.308800  -72.413600
  H    -105.907000   57.613200  -71.411700
  H    -107.369000   56.973700  -71.277700
  H    -111.086000   50.095400  -71.247700
  H    -104.005000   51.952400  -67.626400

 Total Charge           Charge          ....    0
 Multiplicity           Mult            ....    1
 Number of Electrons    NEL             ....  134
 Basis Dimension        Dim             ....  322

ORBITAL ENERGIES
----------------

  NO   OCC          E(Eh)            E(eV)
   0   2.0000     -88.963282     -2420.8140
   1   2.0000     -88.960829     -2420.7472
   2   2.0000     -10.324573      -280.9459
   3   2.0000     -10.316980      -280.7393
   4   2.0000     -10.311995      -280.6037
   5   2.0000     -10.308325      -280.5038
   6   2.0000     -10.305907      -280.4380
   7   2.0000     -10.297348      -280.2051
   8   2.0000     -10.295663      -280.1592
   9   2.0000     -10.290335      -280.0143
  10   2.0000     -10.289108      -279.9809
  11   2.0000     -10.287963      -279.9497
  12   2.0000     -10.286622      -279.9132
  13   2.0000     -10.286260      -279.9034
  14   2.0000     -10.275554      -279.6120
  15   2.0000     -10.275010      -279.5972
  16   2.0000      -8.078835      -219.8363
  17   2.0000      -8.076910      -219.7839
  18   2.0000      -6.037401      -164.2860
  19   2.0000      -6.035375      -164.2309
  20   2.0000      -6.033263      -164.1734
  21   2.0000      -6.031229      -164.1181
  22   2.0000      -6.029449      -164.0697
  23   2.0000      -6.027654      -164.0208
  24   2.0000      -1.010018       -27.4840
  25   2.0000      -0.983633       -26.7660
  26   2.0000      -0.918591       -24.9961
  27   2.0000      -0.913943       -24.8697
  28   2.0000      -0.872752       -23.7488
  29   2.0000      -0.853511       -23.2252
  30   2.0000      -0.845839       -23.0165
  31   2.0000      -0.816430       -22.2162
  32   2.0000      -0.779988       -21.2245
  33   2.0000      -0.768851       -20.9215
  34   2.0000      -0.718735       -19.5578
  35   2.0000      -0.698297       -19.0016
  36   2.0000      -0.691686       -18.8217
  37   2.0000      -0.658202       -17.9106
  38   2.0000      -0.644350       -17.5337
  39   2.0000      -0.621930       -16.9236
  40   2.0000      -0.601520       -16.3682
  41   2.0000      -0.574838       -15.6421
  42   2.0000      -0.573605       -15.6086
  43   2.0000      -0.562606       -15.3093
  44   2.0000      -0.529953       -14.4208
  45   2.0000      -0.524754       -14.2793
  46   2.0000      -0.515393       -14.0246
  47   2.0000      -0.513995       -13.9865
  48   2.0000      -0.508260       -13.8305
  49   2.0000      -0.498894       -13.5756
  50   2.0000      -0.490653       -13.3513
  51   2.0000      -0.479647       -13.0519
  52   2.0000      -0.464875       -12.6499
  53   2.0000      -0.463441       -12.6109
  54   2.0000      -0.455598       -12.3975
  55   2.0000      -0.453319       -12.3354
  56   2.0000      -0.449196       -12.2232
  57   2.0000      -0.439995       -11.9729
  58   2.0000      -0.435538       -11.8516
  59   2.0000      -0.426402       -11.6030
  60   2.0000      -0.422762       -11.5039
  61   2.0000      -0.415986       -11.3196
  62   2.0000      -0.414191       -11.2707
  63   2.0000      -0.350291        -9.5319
  64   2.0000      -0.325056        -8.8452
  65   2.0000      -0.322473        -8.7749
  66   2.0000      -0.291496        -7.9320
  67   0.0000       0.042317         1.1515
  68   0.0000       0.072202         1.9647
  69   0.0000       0.111308         3.0288
  70   0.0000       0.118312         3.2194
  71   0.0000       0.136977         3.7273

MULLIKEN ATOMIC CHARGES
-----------------------
   0 S :    0.103816
   1 C :   -0.128547
   2 C :   -0.041661
   3 C :    0.023192
   4 C :   -0.143610
   5 H :    0.003715
   6 C :    0.055257
   7 H :    0.010461
   8 H :    0.025472
   9 C :   -0.101621
  10 H :    0.038277
  11 H :    0.039535
  12 C :   -0.056024
  13 H :    0.028769
  14 H :    0.018071
  15 H :    0.040239
  16 S :    0.118824
  17 C :   -0.053298
  18 C :   -0.048102
  19 C :   -0.043709
  20 C :   -0.138015
  21 H :    0.012825
  22 C :    0.019533
  23 H :    0.041203
  24 H :    0.047124
  25 C :   -0.036831
  26 H :    0.029974
  27 H :    0.018721
  28 C :   -0.027033
  29 H :    0.027229
  30 H :    0.002515
  31 H :    0.035809
  32 H :    0.045301
  33 H :    0.032589
Sum of atomic charges:    0.0000000

LOEWDIN ATOMIC CHARGES
----------------------
   0 S :    0.414446
   1 C :   -0.197317
   2 C :   -0.054794
   3 C :   -0.057734
   4 C :   -0.200807
   5 H :    0.025240
   6 C :   -0.032868
   7 H :    0.022180
   8 H :    0.034427
   9 C :   -0.041169
  10 H :    0.029462
  11 H :    0.027290
  12 C :   -0.070444
  13 H :    0.025632
  14 H :    0.017751
  15 H :    0.027897
  16 S :    0.421870
  17 C :   -0.179535
  18 C :   -0.070531
  19 C :   -0.054317
  20 C :   -0.222856
  21 H :    0.028259
  22 C :   -0.036143
  23 H :    0.038598
  24 H :    0.038747
  25 C :   -0.033288
  26 H :    0.025166
  27 H :    0.018287
  28 C :   -0.066045
  29 H :    0.030199
  30 H :    0.017978
  31 H :    0.028229
  32 H :    0.022531
  33 H :    0.023657

  Mayer bond orders larger than 0.100000
B(  0-S ,  1-C ) :   1.1337 B(  0-S ,  4-C ) :   1.1567 B(  1-C ,  2-C ) :   1.6207
B(  1-C , 32-H ) :   0.9755 B(  2-C ,  3-C ) :   1.2010 B(  2-C ,  6-C ) :   1.0337
B(  3-C ,  4-C ) :   1.5971 B(  3-C ,  5-H ) :   0.9995 B(  4-C , 20-C ) :   1.0103
B(  6-C ,  7-H ) :   0.9427 B(  6-C ,  8-H ) :   0.9476 B(  6-C ,  9-C ) :   1.0623
B(  9-C , 10-H ) :   0.9563 B(  9-C , 11-H ) :   0.9579 B(  9-C , 12-C ) :   1.0800
B( 12-C , 13-H ) :   0.9731 B( 12-C , 14-H ) :   0.9709 B( 12-C , 15-H ) :   0.9761
B( 16-S , 17-C ) :   1.1472 B( 16-S , 20-C ) :   1.1375 B( 17-C , 18-C ) :   1.6291
B( 17-C , 33-H ) :   0.9649 B( 18-C , 19-C ) :   1.2291 B( 18-C , 21-H ) :   0.9888
B( 19-C , 20-C ) :   1.6120 B( 19-C , 22-C ) :   1.0407 B( 22-C , 23-H ) :   0.9389
B( 22-C , 24-H ) :   0.9209 B( 22-C , 25-C ) :   1.0740 B( 25-C , 26-H ) :   0.9389
B( 25-C , 27-H ) :   0.9589 B( 25-C , 28-C ) :   1.0900 B( 28-C , 29-H ) :   0.9702
B( 28-C , 30-H ) :   0.9653 B( 28-C , 31-H ) :   0.9730

Dispersion correction           -0.013288971
FINAL SINGLE POINT ENERGY     -1339.872952584232

DIPOLE MOMENT
-------------
                                X             Y             Z
Electronic contribution:     -0.45396     -13.57593      26.49511
Nuclear contribution   :      0.65652      14.08226     -27.11669
                        -----------------------------------------
Total Dipole Moment    :      0.20256       0.50633      -0.62158
                        -----------------------------------------
Magnitude (a.u.)       :      0.82689
Magnitude (Debye)      :      2.10180

Rotational constants in cm-1:     0.017078     0.008093     0.006322
Rotational constants in MHz :   511.995184   242.623174   189.523226

                             ****ORCA TERMINATED NORMALLY****
TOTAL RUN TIME: 0 days 0 hours 0 minutes 21 seconds 0 msec
