                         Program Version 4.2.1 -  RELEASE  -
|  1> ! wB97X-D3 SP def2-SVP
|  2> %pal
|  3> nprocs 24
|  4> end
|  5>
|  6> * xyz 0 1
|  7> S 	 -63.2765 	 19.4362 	 19.5636
|  8> C 	 -63.5227 	 18.1483 	 20.7739
|  9> C 	 -62.3601 	 17.9675 	 21.5388
| 10> C 	 -61.3924 	 18.9597 	 21.2233
| 11> C 	 -61.6676 	 19.7908 	 20.1366
| 12> H 	 -60.4749 	 19.1147 	 21.7424
| 13> C 	 -62.3195 	 17.0205 	 22.7625
| 14> H 	 -61.4864 	 17.2871 	 23.2971
| 15> H 	 -62.0848 	 15.9796 	 22.3588
| 16> C 	 -63.4757 	 17.0568 	 23.8322
| 17> H 	 -63.649 	 18.0438 	 24.2979
| 18> H 	 -64.4159 	 16.702 	 23.4441
| 19> C 	 -63.1658 	 16.0931 	 25.0785
| 20> H 	 -63.8597 	 16.1217 	 25.9087
| 21> H 	 -62.9422 	 15.0927 	 24.7045
| 22> H 	 -62.2342 	 16.4427 	 25.5076
| 23> S 	 -61.7844 	 22.2193 	 18.8792
| 24> C 	 -60.3668 	 23.1787 	 18.6608
| 25> C 	 -59.2493 	 22.5498 	 19.1296
| 26> C 	 -59.5688 	 21.3198 	 19.8383
| 27> C 	 -60.9214 	 20.944 	 19.6886
| 28> H 	 -58.2867 	 23.1227 	 19.1011
| 29> C 	 -58.492 	 20.6392 	 20.5348
| 30> H 	 -57.5508 	 20.7178 	 19.9375
| 31> H 	 -58.6809 	 19.5932 	 20.5159
| 32> C 	 -58.1141 	 21.2067 	 21.8898
| 33> H 	 -58.9018 	 21.2772 	 22.6938
| 34> H 	 -57.9073 	 22.2657 	 21.6718
| 35> C 	 -56.9218 	 20.4844 	 22.4848
| 36> H 	 -57.1754 	 19.6464 	 23.1612
| 37> H 	 -56.5526 	 21.2945 	 23.149
| 38> H 	 -56.3404 	 20.1854 	 21.6423
| 39> H 	 -64.4322 	 17.5812 	 20.9696
| 40> H 	 -60.3591 	 24.0571 	 18.0379
| 41> *
| 42>
| 43>                          ****END OF INPUT****

CARTESIAN COORDINATES (ANGSTROEM)
---------------------------------
  S    -63.276500   19.436200   19.563600
  C    -63.522700   18.148300   20.773900
  C    -62.360100   17.967500   21.538800
  C    -61.392400   18.959700   21.223300
  C    -61.667600   19.790800   20.136600
  H    -60.474900   19.114700   21.742400
  C    -62.319500   17.020500   22.762500
  H    -61.486400   17.287100   23.297100
  H    -62.084800   15.979600   22.358800
  C    -63.475700   17.056800   23.832200
  H    -63.649000   18.043800   24.297900
  H    -64.415900   16.702000   23.444100
  C    -63.165800   16.093100   25.078500
  H    -63.859700   16.121700   25.908700
  H    -62.942200   15.092700   24.704500
  H    -62.234200   16.442700   25.507600
  S    -61.784400   22.219300   18.879200
  C    -60.366800   23.178700   18.660800
  C    -59.249300   22.549800   19.129600
  C    -59.568800   21.319800   19.838300
  C    -60.921400   20.944000   19.688600
  H    -58.286700   23.122700   19.101100
  C    -58.492000   20.639200   20.534800
  H    -57.550800   20.717800   19.937500
  H    -58.680900   19.593200   20.515900
  C    -58.114100   21.206700   21.889800
  H    -58.901800   21.277200   22.693800
  H    -57.907300   22.265700   21.671800
  C    -56.921800   20.484400   22.484800
  H    -57.175400   19.646400   23.161200
  H    -56.552600   21.294500   23.149000
  H    -56.340400   20.185400   21.642300
  H    -64.432200   17.581200   20.969600
  H    -60.359100   24.057100   18.037900

 Total Charge           Charge          ....    0
 Multiplicity           Mult            ....    1
 Number of Electrons    NEL             ....  134
 Basis Dimension        Dim             ....  322

ORBITAL ENERGIES
----------------

  NO   OCC          E(Eh)            E(eV)
   0   2.0000     -88.968575     -2420.9580
   1   2.0000     -88.963986     -2420.8331
   2   2.0000     -10.331875      -281.1446
   3   2.0000     -10.330935      -281.1190
   4   2.0000     -10.318826      -280.7895
   5   2.0000     -10.314036      -280.6592
   6   2.0000     -10.306296      -280.4486
   7   2.0000     -10.304640      -280.4035
   8   2.0000     -10.300338      -280.2865
   9   2.0000     -10.298422      -280.2343
  10   2.0000     -10.297472      -280.2084
  11   2.0000     -10.293242      -280.0933
  12   2.0000     -10.289076      -279.9800
  13   2.0000     -10.286106      -279.8992
  14   2.0000     -10.282709      -279.8067
  15   2.0000     -10.280070      -279.7349
  16   2.0000      -8.082514      -219.9364
  17   2.0000      -8.079611      -219.8574
  18   2.0000      -6.041089      -164.3864
  19   2.0000      -6.038158      -164.3066
  20   2.0000      -6.037070      -164.2770
  21   2.0000      -6.033925      -164.1914
  22   2.0000      -6.033307      -164.1746
  23   2.0000      -6.030346      -164.0941
  24   2.0000      -1.008591       -27.4452
  25   2.0000      -0.982791       -26.7431
  26   2.0000      -0.921980       -25.0884
  27   2.0000      -0.903915       -24.5968
  28   2.0000      -0.869257       -23.6537
  29   2.0000      -0.857940       -23.3457
  30   2.0000      -0.843452       -22.9515
  31   2.0000      -0.814873       -22.1738
  32   2.0000      -0.782555       -21.2944
  33   2.0000      -0.771429       -20.9917
  34   2.0000      -0.709843       -19.3158
  35   2.0000      -0.703799       -19.1514
  36   2.0000      -0.694971       -18.9111
  37   2.0000      -0.664285       -18.0761
  38   2.0000      -0.634871       -17.2757
  39   2.0000      -0.619988       -16.8707
  40   2.0000      -0.601816       -16.3762
  41   2.0000      -0.570094       -15.5131
  42   2.0000      -0.569299       -15.4914
  43   2.0000      -0.559158       -15.2155
  44   2.0000      -0.535123       -14.5614
  45   2.0000      -0.526941       -14.3388
  46   2.0000      -0.514516       -14.0007
  47   2.0000      -0.513983       -13.9862
  48   2.0000      -0.507423       -13.8077
  49   2.0000      -0.498219       -13.5572
  50   2.0000      -0.496882       -13.5209
  51   2.0000      -0.478847       -13.0301
  52   2.0000      -0.477046       -12.9811
  53   2.0000      -0.463609       -12.6154
  54   2.0000      -0.454879       -12.3779
  55   2.0000      -0.453419       -12.3381
  56   2.0000      -0.449105       -12.2208
  57   2.0000      -0.442702       -12.0465
  58   2.0000      -0.428706       -11.6657
  59   2.0000      -0.427755       -11.6398
  60   2.0000      -0.424385       -11.5481
  61   2.0000      -0.413705       -11.2575
  62   2.0000      -0.402157       -10.9432
  63   2.0000      -0.361093        -9.8258
  64   2.0000      -0.334559        -9.1038
  65   2.0000      -0.327137        -8.9018
  66   2.0000      -0.280827        -7.6417
  67   0.0000       0.017990         0.4895
  68   0.0000       0.084232         2.2921
  69   0.0000       0.103196         2.8081
  70   0.0000       0.116466         3.1692
  71   0.0000       0.131961         3.5908

MULLIKEN ATOMIC CHARGES
-----------------------
   0 S :    0.101619
   1 C :   -0.130647
   2 C :   -0.073554
   3 C :   -0.004657
   4 C :   -0.113705
   5 H :   -0.004309
   6 C :    0.081958
   7 H :   -0.008496
   8 H :    0.052407
   9 C :   -0.076164
  10 H :    0.046036
  11 H :    0.029301
  12 C :   -0.067966
  13 H :    0.043367
  14 H :    0.031690
  15 H :    0.017690
  16 S :    0.095587
  17 C :   -0.086922
  18 C :   -0.046931
  19 C :   -0.055608
  20 C :   -0.102467
  21 H :    0.043612
  22 C :    0.030557
  23 H :    0.025106
  24 H :    0.014364
  25 C :   -0.108445
  26 H :    0.035374
  27 H :    0.021902
  28 C :   -0.016429
  29 H :    0.043239
  30 H :    0.040617
  31 H :    0.028147
  32 H :    0.055831
  33 H :    0.057895
Sum of atomic charges:   -0.0000000

LOEWDIN ATOMIC CHARGES
----------------------
   0 S :    0.396967
   1 C :   -0.187890
   2 C :   -0.062420
   3 C :   -0.066500
   4 C :   -0.191976
   5 H :    0.024171
   6 C :   -0.029047
   7 H :    0.015770
   8 H :    0.044459
   9 C :   -0.032494
  10 H :    0.030769
  11 H :    0.015577
  12 C :   -0.065735
  13 H :    0.026553
  14 H :    0.023649
  15 H :    0.020089
  16 S :    0.414392
  17 C :   -0.189938
  18 C :   -0.077793
  19 C :   -0.053902
  20 C :   -0.197609
  21 H :    0.042477
  22 C :   -0.047204
  23 H :    0.037785
  24 H :    0.021581
  25 C :   -0.045514
  26 H :    0.027138
  27 H :    0.022947
  28 C :   -0.064124
  29 H :    0.029374
  30 H :    0.037496
  31 H :    0.020269
  32 H :    0.032034
  33 H :    0.028649

  Mayer bond orders larger than 0.100000
B(  0-S ,  1-C ) :   1.1417 B(  0-S ,  4-C ) :   1.1426 B(  1-C ,  2-C ) :   1.5835
B(  1-C ,  4-C ) :   0.1010 B(  1-C , 32-H ) :   0.9702 B(  2-C ,  3-C ) :   1.2728
B(  2-C ,  6-C ) :   1.0181 B(  3-C ,  4-C ) :   1.5462 B(  3-C ,  5-H ) :   0.9890
B(  4-C , 20-C ) :   1.0978 B(  6-C ,  7-H ) :   0.9433 B(  6-C ,  8-H ) :   0.9334
B(  6-C ,  9-C ) :   1.0529 B(  9-C , 10-H ) :   0.9626 B(  9-C , 11-H ) :   0.9594
B(  9-C , 12-C ) :   1.0679 B( 12-C , 13-H ) :   0.9774 B( 12-C , 14-H ) :   0.9783
B( 12-C , 15-H ) :   0.9781 B( 16-S , 17-C ) :   1.1599 B( 16-S , 20-C ) :   1.1324
B( 17-C , 18-C ) :   1.6202 B( 17-C , 33-H ) :   0.9645 B( 18-C , 19-C ) :   1.2363
B( 18-C , 21-H ) :   0.9789 B( 19-C , 20-C ) :   1.5629 B( 19-C , 22-C ) :   1.0795
B( 22-C , 23-H ) :   0.9201 B( 22-C , 24-H ) :   0.9251 B( 22-C , 25-C ) :   1.0606
B( 25-C , 26-H ) :   0.9513 B( 25-C , 27-H ) :   0.9551 B( 25-C , 28-C ) :   1.0689
B( 28-C , 29-H ) :   0.9758 B( 28-C , 30-H ) :   0.9739 B( 28-C , 31-H ) :   0.9716

Dispersion correction           -0.013401653
FINAL SINGLE POINT ENERGY     -1339.864597610806

DIPOLE MOMENT
-------------
                                X             Y             Z
Electronic contribution:    -13.52834      13.26160     -25.31052
Nuclear contribution   :     13.98005     -13.33842      25.89688
                        -----------------------------------------
Total Dipole Moment    :      0.45171      -0.07682       0.58635
                        -----------------------------------------
Magnitude (a.u.)       :      0.74415
Magnitude (Debye)      :      1.89147

Rotational constants in cm-1:     0.018052     0.008249     0.005932
Rotational constants in MHz :   541.184034   247.286540   177.850232

                             ****ORCA TERMINATED NORMALLY****
TOTAL RUN TIME: 0 days 0 hours 0 minutes 21 seconds 79 msec
