                         Program Version 4.2.1 -  RELEASE  -
|  1> ! wB97X-D3 SP def2-SVP
|  2> %pal
|  3> nprocs 24
|  4> end
|  5>
|  6> * xyz 0 1
|  7> S 	 -88.7224 	 -34.8876 	 -65.3397
|  8> C 	 -89.9856 	 -35.8231 	 -66.2503
|  9> C 	 -91.2084 	 -35.1908 	 -66.1709
| 10> C 	 -91.13 	 -33.9367 	 -65.4313
| 11> C 	 -89.88 	 -33.5602 	 -65.0294
| 12> H 	 -91.9054 	 -33.3057 	 -65.1681
| 13> C 	 -92.4413 	 -35.8654 	 -66.468
| 14> H 	 -92.136 	 -36.6537 	 -67.157
| 15> H 	 -93.0944 	 -35.0484 	 -66.8084
| 16> C 	 -93.0322 	 -36.5786 	 -65.2791
| 17> H 	 -92.3801 	 -37.3297 	 -64.9412
| 18> H 	 -93.1943 	 -35.959 	 -64.3711
| 19> C 	 -94.4401 	 -36.9947 	 -65.6373
| 20> H 	 -95.0459 	 -36.3799 	 -66.3266
| 21> H 	 -94.3408 	 -37.8749 	 -66.2263
| 22> H 	 -94.9007 	 -37.4509 	 -64.7696
| 23> S 	 -89.0061 	 -32.8708 	 -62.6033
| 24> C 	 -89.0354 	 -31.1725 	 -62.1288
| 25> C 	 -89.339 	 -30.3893 	 -63.2125
| 26> C 	 -89.6508 	 -31.1006 	 -64.3996
| 27> C 	 -89.4333 	 -32.4525 	 -64.1923
| 28> H 	 -89.2722 	 -29.3392 	 -63.139
| 29> C 	 -90.0159 	 -30.4183 	 -65.6897
| 30> H 	 -89.8574 	 -29.3097 	 -65.6671
| 31> H 	 -91.1341 	 -30.3914 	 -65.6052
| 32> C 	 -89.539 	 -31.017 	 -67.0264
| 33> H 	 -89.6619 	 -32.0818 	 -67.0344
| 34> H 	 -88.4591 	 -30.8599 	 -66.9808
| 35> C 	 -90.2507 	 -30.5196 	 -68.3072
| 36> H 	 -89.8292 	 -31.0521 	 -69.2375
| 37> H 	 -90.2875 	 -29.4367 	 -68.4389
| 38> H 	 -91.267 	 -30.8783 	 -68.2517
| 39> H 	 -90.0273 	 -36.8772 	 -66.5794
| 40> H 	 -88.7522 	 -30.8318 	 -61.155
| 41> *
| 42>
| 43>                          ****END OF INPUT****

CARTESIAN COORDINATES (ANGSTROEM)
---------------------------------
  S    -88.722400  -34.887600  -65.339700
  C    -89.985600  -35.823100  -66.250300
  C    -91.208400  -35.190800  -66.170900
  C    -91.130000  -33.936700  -65.431300
  C    -89.880000  -33.560200  -65.029400
  H    -91.905400  -33.305700  -65.168100
  C    -92.441300  -35.865400  -66.468000
  H    -92.136000  -36.653700  -67.157000
  H    -93.094400  -35.048400  -66.808400
  C    -93.032200  -36.578600  -65.279100
  H    -92.380100  -37.329700  -64.941200
  H    -93.194300  -35.959000  -64.371100
  C    -94.440100  -36.994700  -65.637300
  H    -95.045900  -36.379900  -66.326600
  H    -94.340800  -37.874900  -66.226300
  H    -94.900700  -37.450900  -64.769600
  S    -89.006100  -32.870800  -62.603300
  C    -89.035400  -31.172500  -62.128800
  C    -89.339000  -30.389300  -63.212500
  C    -89.650800  -31.100600  -64.399600
  C    -89.433300  -32.452500  -64.192300
  H    -89.272200  -29.339200  -63.139000
  C    -90.015900  -30.418300  -65.689700
  H    -89.857400  -29.309700  -65.667100
  H    -91.134100  -30.391400  -65.605200
  C    -89.539000  -31.017000  -67.026400
  H    -89.661900  -32.081800  -67.034400
  H    -88.459100  -30.859900  -66.980800
  C    -90.250700  -30.519600  -68.307200
  H    -89.829200  -31.052100  -69.237500
  H    -90.287500  -29.436700  -68.438900
  H    -91.267000  -30.878300  -68.251700
  H    -90.027300  -36.877200  -66.579400
  H    -88.752200  -30.831800  -61.155000

 Total Charge           Charge          ....    0
 Multiplicity           Mult            ....    1
 Number of Electrons    NEL             ....  134
 Basis Dimension        Dim             ....  322

ORBITAL ENERGIES
----------------

  NO   OCC          E(Eh)            E(eV)
   0   2.0000     -88.966509     -2420.9018
   1   2.0000     -88.961269     -2420.7592
   2   2.0000     -10.330052      -281.0950
   3   2.0000     -10.320874      -280.8453
   4   2.0000     -10.317182      -280.7448
   5   2.0000     -10.314774      -280.6793
   6   2.0000     -10.304698      -280.4051
   7   2.0000     -10.298618      -280.2396
   8   2.0000     -10.295278      -280.1487
   9   2.0000     -10.291079      -280.0345
  10   2.0000     -10.288673      -279.9690
  11   2.0000     -10.287459      -279.9360
  12   2.0000     -10.283396      -279.8254
  13   2.0000     -10.282676      -279.8058
  14   2.0000     -10.281918      -279.7852
  15   2.0000     -10.273602      -279.5589
  16   2.0000      -8.082077      -219.9245
  17   2.0000      -8.074416      -219.7160
  18   2.0000      -6.040513      -164.3707
  19   2.0000      -6.036432      -164.2597
  20   2.0000      -6.033242      -164.1729
  21   2.0000      -6.032881      -164.1630
  22   2.0000      -6.029220      -164.0634
  23   2.0000      -6.024849      -163.9445
  24   2.0000      -1.011291       -27.5186
  25   2.0000      -0.981338       -26.7036
  26   2.0000      -0.926256       -25.2047
  27   2.0000      -0.905947       -24.6521
  28   2.0000      -0.874154       -23.7869
  29   2.0000      -0.851899       -23.1813
  30   2.0000      -0.844563       -22.9817
  31   2.0000      -0.820213       -22.3191
  32   2.0000      -0.781297       -21.2602
  33   2.0000      -0.769204       -20.9311
  34   2.0000      -0.713200       -19.4072
  35   2.0000      -0.707158       -19.2428
  36   2.0000      -0.692162       -18.8347
  37   2.0000      -0.667988       -18.1769
  38   2.0000      -0.640246       -17.4220
  39   2.0000      -0.619186       -16.8489
  40   2.0000      -0.597720       -16.2648
  41   2.0000      -0.580792       -15.8042
  42   2.0000      -0.560789       -15.2598
  43   2.0000      -0.560253       -15.2452
  44   2.0000      -0.532007       -14.4766
  45   2.0000      -0.522239       -14.2108
  46   2.0000      -0.515911       -14.0387
  47   2.0000      -0.512714       -13.9517
  48   2.0000      -0.505747       -13.7621
  49   2.0000      -0.502646       -13.6777
  50   2.0000      -0.491888       -13.3850
  51   2.0000      -0.485051       -13.1989
  52   2.0000      -0.473269       -12.8783
  53   2.0000      -0.464381       -12.6364
  54   2.0000      -0.456290       -12.4163
  55   2.0000      -0.451178       -12.2772
  56   2.0000      -0.445204       -12.1146
  57   2.0000      -0.438687       -11.9373
  58   2.0000      -0.428833       -11.6691
  59   2.0000      -0.425443       -11.5769
  60   2.0000      -0.416683       -11.3385
  61   2.0000      -0.415127       -11.2962
  62   2.0000      -0.405755       -11.0411
  63   2.0000      -0.346035        -9.4161
  64   2.0000      -0.324632        -8.8337
  65   2.0000      -0.322558        -8.7772
  66   2.0000      -0.298543        -8.1238
  67   0.0000       0.033807         0.9199
  68   0.0000       0.065530         1.7832
  69   0.0000       0.105372         2.8673
  70   0.0000       0.123475         3.3599
  71   0.0000       0.129131         3.5138

MULLIKEN ATOMIC CHARGES
-----------------------
   0 S :    0.075527
   1 C :   -0.110562
   2 C :   -0.099741
   3 C :    0.070287
   4 C :   -0.187120
   5 H :   -0.021169
   6 C :    0.060699
   7 H :    0.024877
   8 H :    0.031941
   9 C :   -0.063176
  10 H :    0.012139
  11 H :    0.029357
  12 C :   -0.006087
  13 H :    0.041599
  14 H :   -0.002873
  15 H :    0.027906
  16 S :    0.123285
  17 C :   -0.091233
  18 C :   -0.017069
  19 C :   -0.012390
  20 C :   -0.148665
  21 H :    0.002195
  22 C :    0.033642
  23 H :    0.023243
  24 H :    0.027170
  25 C :   -0.053450
  26 H :    0.047243
  27 H :    0.035543
  28 C :   -0.064450
  29 H :    0.050058
  30 H :    0.036633
  31 H :    0.025389
  32 H :    0.050249
  33 H :    0.049002
Sum of atomic charges:   -0.0000000

LOEWDIN ATOMIC CHARGES
----------------------
   0 S :    0.349953
   1 C :   -0.194328
   2 C :   -0.062275
   3 C :   -0.056416
   4 C :   -0.171665
   5 H :    0.018287
   6 C :   -0.035453
   7 H :    0.036558
   8 H :    0.037182
   9 C :   -0.034146
  10 H :    0.019525
  11 H :    0.026840
  12 C :   -0.072849
  13 H :    0.033527
  14 H :    0.020237
  15 H :    0.028675
  16 S :    0.431093
  17 C :   -0.175134
  18 C :   -0.062341
  19 C :   -0.052387
  20 C :   -0.226879
  21 H :    0.024868
  22 C :   -0.042887
  23 H :    0.034616
  24 H :    0.036493
  25 C :   -0.042632
  26 H :    0.027095
  27 H :    0.026680
  28 C :   -0.066849
  29 H :    0.040214
  30 H :    0.021574
  31 H :    0.023214
  32 H :    0.034847
  33 H :    0.024762

  Mayer bond orders larger than 0.100000
B(  0-S ,  1-C ) :   1.0991 B(  0-S ,  4-C ) :   1.1155 B(  1-C ,  2-C ) :   1.6591
B(  1-C , 32-H ) :   0.9547 B(  2-C ,  3-C ) :   1.1756 B(  2-C ,  6-C ) :   1.0569
B(  3-C ,  4-C ) :   1.6381 B(  3-C ,  5-H ) :   1.0049 B(  4-C , 20-C ) :   0.9901
B(  6-C ,  7-H ) :   0.9297 B(  6-C ,  8-H ) :   0.9283 B(  6-C ,  9-C ) :   1.0734
B(  9-C , 10-H ) :   0.9493 B(  9-C , 11-H ) :   0.9590 B(  9-C , 12-C ) :   1.0758
B( 12-C , 13-H ) :   0.9728 B( 12-C , 14-H ) :   0.9631 B( 12-C , 15-H ) :   0.9676
B( 16-S , 17-C ) :   1.1566 B( 16-S , 20-C ) :   1.1654 B( 17-C , 18-C ) :   1.5941
B( 17-C , 33-H ) :   0.9733 B( 18-C , 19-C ) :   1.2505 B( 18-C , 21-H ) :   0.9971
B( 19-C , 20-C ) :   1.5815 B( 19-C , 22-C ) :   1.0365 B( 22-C , 23-H ) :   0.9388
B( 22-C , 24-H ) :   0.9155 B( 22-C , 25-C ) :   1.0511 B( 25-C , 26-H ) :   0.9493
B( 25-C , 27-H ) :   0.9569 B( 25-C , 28-C ) :   1.0784 B( 28-C , 29-H ) :   0.9736
B( 28-C , 30-H ) :   0.9788 B( 28-C , 31-H ) :   0.9738

Dispersion correction           -0.014637353
FINAL SINGLE POINT ENERGY     -1339.851216453029

DIPOLE MOMENT
-------------
                                X             Y             Z
Electronic contribution:     18.97961       0.02991      15.79984
Nuclear contribution   :    -19.62270       0.13117     -15.81931
                        -----------------------------------------
Total Dipole Moment    :     -0.64308       0.16107      -0.01946
                        -----------------------------------------
Magnitude (a.u.)       :      0.66323
Magnitude (Debye)      :      1.68581

Rotational constants in cm-1:     0.017934     0.008783     0.007411
Rotational constants in MHz :   537.649690   263.308357   222.167751

                             ****ORCA TERMINATED NORMALLY****
TOTAL RUN TIME: 0 days 0 hours 0 minutes 22 seconds 9 msec
