                         Program Version 4.2.1 -  RELEASE  -
|  1> ! wB97X-D3 SP def2-SVP
|  2> %pal
|  3> nprocs 24
|  4> end
|  5>
|  6> * xyz 0 1
|  7> S 	 -36.3764 	 -7.18232 	 18.1444
|  8> C 	 -35.9797 	 -8.88642 	 17.7526
|  9> C 	 -36.869 	 -9.81693 	 18.3468
| 10> C 	 -37.9448 	 -9.14141 	 19.0211
| 11> C 	 -37.8459 	 -7.75968 	 18.9082
| 12> H 	 -38.772 	 -9.65861 	 19.4703
| 13> C 	 -36.7619 	 -11.3806 	 18.2154
| 14> H 	 -36.1654 	 -11.7729 	 19.0666
| 15> H 	 -36.1749 	 -11.6019 	 17.4529
| 16> C 	 -38.0374 	 -12.1377 	 17.8997
| 17> H 	 -38.5683 	 -12.4721 	 18.7553
| 18> H 	 -38.7253 	 -11.5177 	 17.288
| 19> C 	 -37.8046 	 -13.4082 	 17.0438
| 20> H 	 -38.7584 	 -13.8138 	 16.6279
| 21> H 	 -37.1132 	 -13.2406 	 16.2075
| 22> H 	 -37.4793 	 -14.1942 	 17.6388
| 23> S 	 -38.4341 	 -5.40244 	 20.1648
| 24> C 	 -39.9982 	 -4.66585 	 20.0403
| 25> C 	 -40.9454 	 -5.55266 	 19.5848
| 26> C 	 -40.3419 	 -6.8771 	 19.3073
| 27> C 	 -38.9216 	 -6.7955 	 19.3171
| 28> H 	 -41.9737 	 -5.33197 	 19.378
| 29> C 	 -41.1727 	 -8.01897 	 18.6795
| 30> H 	 -41.2883 	 -8.63211 	 19.555
| 31> H 	 -40.5929 	 -8.55843 	 17.8955
| 32> C 	 -42.4428 	 -7.65548 	 17.9958
| 33> H 	 -43.1067 	 -7.14064 	 18.7342
| 34> H 	 -42.9051 	 -8.62347 	 17.8551
| 35> C 	 -42.1798 	 -6.92605 	 16.6893
| 36> H 	 -41.6729 	 -7.56448 	 15.9855
| 37> H 	 -41.7031 	 -5.94785 	 16.7939
| 38> H 	 -43.1149 	 -6.73108 	 16.1448
| 39> H 	 -35.1263 	 -9.17976 	 17.1151
| 40> H 	 -40.2676 	 -3.67589 	 20.3087
| 41> *
| 42>
| 43>                          ****END OF INPUT****

CARTESIAN COORDINATES (ANGSTROEM)
---------------------------------
  S    -36.376400   -7.182320   18.144400
  C    -35.979700   -8.886420   17.752600
  C    -36.869000   -9.816930   18.346800
  C    -37.944800   -9.141410   19.021100
  C    -37.845900   -7.759680   18.908200
  H    -38.772000   -9.658610   19.470300
  C    -36.761900  -11.380600   18.215400
  H    -36.165400  -11.772900   19.066600
  H    -36.174900  -11.601900   17.452900
  C    -38.037400  -12.137700   17.899700
  H    -38.568300  -12.472100   18.755300
  H    -38.725300  -11.517700   17.288000
  C    -37.804600  -13.408200   17.043800
  H    -38.758400  -13.813800   16.627900
  H    -37.113200  -13.240600   16.207500
  H    -37.479300  -14.194200   17.638800
  S    -38.434100   -5.402440   20.164800
  C    -39.998200   -4.665850   20.040300
  C    -40.945400   -5.552660   19.584800
  C    -40.341900   -6.877100   19.307300
  C    -38.921600   -6.795500   19.317100
  H    -41.973700   -5.331970   19.378000
  C    -41.172700   -8.018970   18.679500
  H    -41.288300   -8.632110   19.555000
  H    -40.592900   -8.558430   17.895500
  C    -42.442800   -7.655480   17.995800
  H    -43.106700   -7.140640   18.734200
  H    -42.905100   -8.623470   17.855100
  C    -42.179800   -6.926050   16.689300
  H    -41.672900   -7.564480   15.985500
  H    -41.703100   -5.947850   16.793900
  H    -43.114900   -6.731080   16.144800
  H    -35.126300   -9.179760   17.115100
  H    -40.267600   -3.675890   20.308700

 Total Charge           Charge          ....    0
 Multiplicity           Mult            ....    1
 Number of Electrons    NEL             ....  134
 Basis Dimension        Dim             ....  322

ORBITAL ENERGIES
----------------

  NO   OCC          E(Eh)            E(eV)
   0   2.0000     -88.971882     -2421.0480
   1   2.0000     -88.961083     -2420.7541
   2   2.0000     -10.334116      -281.2056
   3   2.0000     -10.325800      -280.9793
   4   2.0000     -10.321747      -280.8690
   5   2.0000     -10.310628      -280.5665
   6   2.0000     -10.310230      -280.5556
   7   2.0000     -10.306441      -280.4525
   8   2.0000     -10.295413      -280.1524
   9   2.0000     -10.294853      -280.1372
  10   2.0000     -10.289413      -279.9892
  11   2.0000     -10.288152      -279.9548
  12   2.0000     -10.287782      -279.9448
  13   2.0000     -10.286487      -279.9095
  14   2.0000     -10.278936      -279.7041
  15   2.0000     -10.276971      -279.6506
  16   2.0000      -8.085555      -220.0191
  17   2.0000      -8.077038      -219.7874
  18   2.0000      -6.044093      -164.4681
  19   2.0000      -6.040377      -164.3670
  20   2.0000      -6.036175      -164.2527
  21   2.0000      -6.035527      -164.2350
  22   2.0000      -6.031383      -164.1223
  23   2.0000      -6.027754      -164.0235
  24   2.0000      -1.001897       -27.2630
  25   2.0000      -0.977453       -26.5978
  26   2.0000      -0.916713       -24.9450
  27   2.0000      -0.912805       -24.8387
  28   2.0000      -0.862779       -23.4774
  29   2.0000      -0.848551       -23.0903
  30   2.0000      -0.839306       -22.8387
  31   2.0000      -0.813319       -22.1315
  32   2.0000      -0.785628       -21.3780
  33   2.0000      -0.773279       -21.0420
  34   2.0000      -0.710509       -19.3339
  35   2.0000      -0.699263       -19.0279
  36   2.0000      -0.687009       -18.6945
  37   2.0000      -0.652428       -17.7535
  38   2.0000      -0.637722       -17.3533
  39   2.0000      -0.623089       -16.9551
  40   2.0000      -0.597436       -16.2570
  41   2.0000      -0.574935       -15.6448
  42   2.0000      -0.564318       -15.3559
  43   2.0000      -0.561029       -15.2664
  44   2.0000      -0.538471       -14.6525
  45   2.0000      -0.521861       -14.2006
  46   2.0000      -0.512488       -13.9455
  47   2.0000      -0.510598       -13.8941
  48   2.0000      -0.495126       -13.4731
  49   2.0000      -0.494665       -13.4605
  50   2.0000      -0.489431       -13.3181
  51   2.0000      -0.481396       -13.0995
  52   2.0000      -0.469954       -12.7881
  53   2.0000      -0.462956       -12.5977
  54   2.0000      -0.460004       -12.5174
  55   2.0000      -0.452928       -12.3248
  56   2.0000      -0.446977       -12.1629
  57   2.0000      -0.442190       -12.0326
  58   2.0000      -0.435324       -11.8458
  59   2.0000      -0.430050       -11.7023
  60   2.0000      -0.420491       -11.4421
  61   2.0000      -0.417663       -11.3652
  62   2.0000      -0.405704       -11.0398
  63   2.0000      -0.345885        -9.4120
  64   2.0000      -0.334980        -9.1153
  65   2.0000      -0.323255        -8.7962
  66   2.0000      -0.284843        -7.7510
  67   0.0000       0.026423         0.7190
  68   0.0000       0.075016         2.0413
  69   0.0000       0.108172         2.9435
  70   0.0000       0.118463         3.2235
  71   0.0000       0.136704         3.7199

MULLIKEN ATOMIC CHARGES
-----------------------
   0 S :    0.119225
   1 C :   -0.139089
   2 C :   -0.116206
   3 C :    0.021693
   4 C :   -0.121080
   5 H :    0.013805
   6 C :    0.168256
   7 H :    0.045820
   8 H :   -0.041938
   9 C :   -0.093998
  10 H :    0.027042
  11 H :    0.040684
  12 C :   -0.065786
  13 H :    0.033066
  14 H :    0.039229
  15 H :    0.020158
  16 S :    0.105370
  17 C :   -0.057584
  18 C :   -0.039902
  19 C :   -0.069212
  20 C :   -0.158004
  21 H :    0.017187
  22 C :    0.019360
  23 H :    0.037384
  24 H :    0.040776
  25 C :   -0.064261
  26 H :    0.029075
  27 H :    0.024023
  28 C :   -0.034154
  29 H :    0.026415
  30 H :    0.049525
  31 H :    0.026871
  32 H :    0.057376
  33 H :    0.038870
Sum of atomic charges:   -0.0000000

LOEWDIN ATOMIC CHARGES
----------------------
   0 S :    0.393084
   1 C :   -0.196288
   2 C :   -0.050115
   3 C :   -0.062152
   4 C :   -0.187279
   5 H :    0.031121
   6 C :   -0.023344
   7 H :    0.042502
   8 H :    0.007621
   9 C :   -0.039492
  10 H :    0.019172
  11 H :    0.030516
  12 C :   -0.062092
  13 H :    0.032193
  14 H :    0.025108
  15 H :    0.013960
  16 S :    0.422530
  17 C :   -0.189937
  18 C :   -0.068535
  19 C :   -0.056648
  20 C :   -0.213745
  21 H :    0.027354
  22 C :   -0.040764
  23 H :    0.030397
  24 H :    0.035259
  25 C :   -0.048462
  26 H :    0.023578
  27 H :    0.028756
  28 C :   -0.063995
  29 H :    0.026483
  30 H :    0.030909
  31 H :    0.028514
  32 H :    0.030944
  33 H :    0.022845

  Mayer bond orders larger than 0.100000
B(  0-S ,  1-C ) :   1.1243 B(  0-S ,  4-C ) :   1.1538 B(  1-C ,  2-C ) :   1.6274
B(  1-C , 32-H ) :   0.9632 B(  2-C ,  3-C ) :   1.2342 B(  2-C ,  6-C ) :   1.0165
B(  3-C ,  4-C ) :   1.5643 B(  3-C ,  5-H ) :   0.9976 B(  4-C , 20-C ) :   1.0224
B(  6-C ,  7-H ) :   0.9272 B(  6-C ,  8-H ) :   0.9289 B(  6-C ,  9-C ) :   1.0538
B(  9-C , 10-H ) :   0.9513 B(  9-C , 11-H ) :   0.9640 B(  9-C , 12-C ) :   1.0923
B( 12-C , 13-H ) :   0.9748 B( 12-C , 14-H ) :   0.9747 B( 12-C , 15-H ) :   0.9776
B( 16-S , 17-C ) :   1.1437 B( 16-S , 20-C ) :   1.1624 B( 17-C , 18-C ) :   1.6133
B( 17-C , 33-H ) :   0.9713 B( 18-C , 19-C ) :   1.2362 B( 18-C , 21-H ) :   0.9856
B( 19-C , 20-C ) :   1.5796 B( 19-C , 22-C ) :   1.0137 B( 22-C , 23-H ) :   0.9211
B( 22-C , 24-H ) :   0.9442 B( 22-C , 25-C ) :   1.0970 B( 25-C , 26-H ) :   0.9433
B( 25-C , 27-H ) :   0.9451 B( 25-C , 28-C ) :   1.0780 B( 28-C , 29-H ) :   0.9687
B( 28-C , 30-H ) :   0.9743 B( 28-C , 31-H ) :   0.9715

Dispersion correction           -0.014075759
FINAL SINGLE POINT ENERGY     -1339.856673297491

DIPOLE MOMENT
-------------
                                X             Y             Z
Electronic contribution:     15.51869      23.45611      11.74382
Nuclear contribution   :    -15.97607     -24.12187     -12.03567
                        -----------------------------------------
Total Dipole Moment    :     -0.45738      -0.66576      -0.29185
                        -----------------------------------------
Magnitude (a.u.)       :      0.85884
Magnitude (Debye)      :      2.18299

Rotational constants in cm-1:     0.018125     0.008712     0.006500
Rotational constants in MHz :   543.364888   261.179586   194.879876

                             ****ORCA TERMINATED NORMALLY****
TOTAL RUN TIME: 0 days 0 hours 0 minutes 21 seconds 444 msec
