                         Program Version 4.2.1 -  RELEASE  -
|  1> ! wB97X-D3 SP def2-SVP
|  2> %pal
|  3> nprocs 24
|  4> end
|  5>
|  6> * xyz 0 1
|  7> S 	 -72.9397 	 0.603571 	 13.1655
|  8> C 	 -72.3997 	 2.25777 	 13.51
|  9> C 	 -72.9795 	 2.70085 	 14.7209
| 10> C 	 -73.7018 	 1.68004 	 15.3248
| 11> C 	 -73.8735 	 0.512387 	 14.6055
| 12> H 	 -74.0719 	 1.68855 	 16.3439
| 13> C 	 -72.7968 	 4.05703 	 15.3326
| 14> H 	 -71.9162 	 4.10601 	 15.9278
| 15> H 	 -73.5957 	 4.13559 	 16.0935
| 16> C 	 -72.874 	 5.22029 	 14.4236
| 17> H 	 -72.3883 	 6.05302 	 14.9295
| 18> H 	 -72.2978 	 5.10912 	 13.5484
| 19> C 	 -74.3266 	 5.52949 	 14.1797
| 20> H 	 -74.8397 	 4.6997 	 13.7055
| 21> H 	 -74.8899 	 5.73026 	 15.0746
| 22> H 	 -74.495 	 6.43822 	 13.6228
| 23> S 	 -76.0163 	 -1.19253 	 14.7021
| 24> C 	 -76.2918 	 -2.34448 	 15.9529
| 25> C 	 -75.1572 	 -2.43535 	 16.7139
| 26> C 	 -74.174 	 -1.37114 	 16.4448
| 27> C 	 -74.418 	 -0.675144 	 15.2466
| 28> H 	 -75.0564 	 -3.14674 	 17.5161
| 29> C 	 -72.884 	 -1.19918 	 17.2366
| 30> H 	 -72.2197 	 -0.514592 	 16.6654
| 31> H 	 -72.339 	 -2.1601 	 17.0999
| 32> C 	 -73.0821 	 -0.754447 	 18.6769
| 33> H 	 -73.6808 	 -1.5028 	 19.1833
| 34> H 	 -73.4854 	 0.217741 	 18.8769
| 35> C 	 -71.636 	 -0.821819 	 19.2884
| 36> H 	 -71.0218 	 -0.0403654 	 18.9269
| 37> H 	 -71.1995 	 -1.82789 	 19.0176
| 38> H 	 -71.5547 	 -0.671617 	 20.4118
| 39> H 	 -71.6133 	 2.81548 	 13.112
| 40> H 	 -77.2124 	 -2.91868 	 16.0199
| 41> *
| 42>
| 43>                          ****END OF INPUT****

CARTESIAN COORDINATES (ANGSTROEM)
---------------------------------
  S    -72.939700    0.603571   13.165500
  C    -72.399700    2.257770   13.510000
  C    -72.979500    2.700850   14.720900
  C    -73.701800    1.680040   15.324800
  C    -73.873500    0.512387   14.605500
  H    -74.071900    1.688550   16.343900
  C    -72.796800    4.057030   15.332600
  H    -71.916200    4.106010   15.927800
  H    -73.595700    4.135590   16.093500
  C    -72.874000    5.220290   14.423600
  H    -72.388300    6.053020   14.929500
  H    -72.297800    5.109120   13.548400
  C    -74.326600    5.529490   14.179700
  H    -74.839700    4.699700   13.705500
  H    -74.889900    5.730260   15.074600
  H    -74.495000    6.438220   13.622800
  S    -76.016300   -1.192530   14.702100
  C    -76.291800   -2.344480   15.952900
  C    -75.157200   -2.435350   16.713900
  C    -74.174000   -1.371140   16.444800
  C    -74.418000   -0.675144   15.246600
  H    -75.056400   -3.146740   17.516100
  C    -72.884000   -1.199180   17.236600
  H    -72.219700   -0.514592   16.665400
  H    -72.339000   -2.160100   17.099900
  C    -73.082100   -0.754447   18.676900
  H    -73.680800   -1.502800   19.183300
  H    -73.485400    0.217741   18.876900
  C    -71.636000   -0.821819   19.288400
  H    -71.021800   -0.040365   18.926900
  H    -71.199500   -1.827890   19.017600
  H    -71.554700   -0.671617   20.411800
  H    -71.613300    2.815480   13.112000
  H    -77.212400   -2.918680   16.019900

 Total Charge           Charge          ....    0
 Multiplicity           Mult            ....    1
 Number of Electrons    NEL             ....  134
 Basis Dimension        Dim             ....  322

ORBITAL ENERGIES
----------------

  NO   OCC          E(Eh)            E(eV)
   0   2.0000     -88.972526     -2421.0655
   1   2.0000     -88.954509     -2420.5753
   2   2.0000     -10.328101      -281.0419
   3   2.0000     -10.325937      -280.9830
   4   2.0000     -10.318189      -280.7722
   5   2.0000     -10.315598      -280.7017
   6   2.0000     -10.308820      -280.5173
   7   2.0000     -10.299477      -280.2630
   8   2.0000     -10.296238      -280.1749
   9   2.0000     -10.294597      -280.1302
  10   2.0000     -10.289069      -279.9798
  11   2.0000     -10.288449      -279.9629
  12   2.0000     -10.286234      -279.9027
  13   2.0000     -10.283134      -279.8183
  14   2.0000     -10.278988      -279.7055
  15   2.0000     -10.268989      -279.4334
  16   2.0000      -8.086681      -220.0498
  17   2.0000      -8.070182      -219.6008
  18   2.0000      -6.045187      -164.4979
  19   2.0000      -6.041087      -164.3863
  20   2.0000      -6.037626      -164.2921
  21   2.0000      -6.028661      -164.0482
  22   2.0000      -6.024317      -163.9300
  23   2.0000      -6.021129      -163.8432
  24   2.0000      -1.007742       -27.4220
  25   2.0000      -0.984810       -26.7980
  26   2.0000      -0.926940       -25.2233
  27   2.0000      -0.909413       -24.7464
  28   2.0000      -0.871729       -23.7209
  29   2.0000      -0.853118       -23.2145
  30   2.0000      -0.840357       -22.8673
  31   2.0000      -0.812353       -22.1053
  32   2.0000      -0.784052       -21.3351
  33   2.0000      -0.765590       -20.8328
  34   2.0000      -0.717625       -19.5276
  35   2.0000      -0.707491       -19.2518
  36   2.0000      -0.697641       -18.9838
  37   2.0000      -0.657321       -17.8866
  38   2.0000      -0.641047       -17.4438
  39   2.0000      -0.613694       -16.6995
  40   2.0000      -0.596436       -16.2298
  41   2.0000      -0.582775       -15.8581
  42   2.0000      -0.568212       -15.4618
  43   2.0000      -0.567767       -15.4497
  44   2.0000      -0.542691       -14.7674
  45   2.0000      -0.524350       -14.2683
  46   2.0000      -0.518526       -14.1098
  47   2.0000      -0.511889       -13.9292
  48   2.0000      -0.505611       -13.7584
  49   2.0000      -0.498096       -13.5539
  50   2.0000      -0.494940       -13.4680
  51   2.0000      -0.473429       -12.8827
  52   2.0000      -0.468490       -12.7483
  53   2.0000      -0.467934       -12.7331
  54   2.0000      -0.455663       -12.3992
  55   2.0000      -0.446353       -12.1459
  56   2.0000      -0.444776       -12.1030
  57   2.0000      -0.438554       -11.9337
  58   2.0000      -0.436794       -11.8858
  59   2.0000      -0.426012       -11.5924
  60   2.0000      -0.423526       -11.5247
  61   2.0000      -0.419318       -11.4102
  62   2.0000      -0.399833       -10.8800
  63   2.0000      -0.337326        -9.1791
  64   2.0000      -0.334701        -9.1077
  65   2.0000      -0.319595        -8.6966
  66   2.0000      -0.300621        -8.1803
  67   0.0000       0.036150         0.9837
  68   0.0000       0.057282         1.5587
  69   0.0000       0.113389         3.0855
  70   0.0000       0.122574         3.3354
  71   0.0000       0.129119         3.5135

MULLIKEN ATOMIC CHARGES
-----------------------
   0 S :    0.128725
   1 C :   -0.099838
   2 C :   -0.098564
   3 C :    0.009513
   4 C :   -0.126445
   5 H :    0.011404
   6 C :    0.070479
   7 H :    0.027480
   8 H :    0.014048
   9 C :   -0.021571
  10 H :    0.015785
  11 H :    0.014970
  12 C :   -0.037994
  13 H :    0.040190
  14 H :    0.014784
  15 H :    0.024443
  16 S :    0.076884
  17 C :   -0.088904
  18 C :   -0.009403
  19 C :   -0.054197
  20 C :   -0.149442
  21 H :    0.016244
  22 C :   -0.009896
  23 H :    0.032678
  24 H :    0.044941
  25 C :   -0.030272
  26 H :    0.029921
  27 H :    0.034464
  28 C :   -0.081091
  29 H :    0.026237
  30 H :    0.036241
  31 H :    0.037716
  32 H :    0.030672
  33 H :    0.069799
Sum of atomic charges:   -0.0000000

LOEWDIN ATOMIC CHARGES
----------------------
   0 S :    0.429295
   1 C :   -0.189710
   2 C :   -0.060426
   3 C :   -0.058211
   4 C :   -0.222999
   5 H :    0.031601
   6 C :   -0.031193
   7 H :    0.029246
   8 H :    0.033533
   9 C :   -0.037511
  10 H :    0.027040
  11 H :    0.017847
  12 C :   -0.060816
  13 H :    0.029182
  14 H :    0.022931
  15 H :    0.022638
  16 S :    0.401854
  17 C :   -0.186561
  18 C :   -0.077935
  19 C :   -0.052833
  20 C :   -0.198398
  21 H :    0.026761
  22 C :   -0.040643
  23 H :    0.033601
  24 H :    0.040119
  25 C :   -0.032342
  26 H :    0.023759
  27 H :    0.023381
  28 C :   -0.070163
  29 H :    0.016446
  30 H :    0.029238
  31 H :    0.027481
  32 H :    0.018742
  33 H :    0.035049

  Mayer bond orders larger than 0.100000
B(  0-S ,  1-C ) :   1.1578 B(  0-S ,  4-C ) :   1.1603 B(  1-C ,  2-C ) :   1.5512
B(  1-C ,  4-C ) :   0.1048 B(  1-C , 32-H ) :   0.9751 B(  2-C ,  3-C ) :   1.2932
B(  2-C ,  6-C ) :   1.0117 B(  3-C ,  4-C ) :   1.5375 B(  3-C ,  5-H ) :   1.0000
B(  4-C , 20-C ) :   1.0033 B(  6-C ,  7-H ) :   0.9249 B(  6-C ,  8-H ) :   0.9442
B(  6-C ,  9-C ) :   1.0866 B(  9-C , 10-H ) :   0.9447 B(  9-C , 11-H ) :   0.9525
B(  9-C , 12-C ) :   1.0828 B( 12-C , 13-H ) :   0.9769 B( 12-C , 14-H ) :   0.9699
B( 12-C , 15-H ) :   0.9724 B( 16-S , 17-C ) :   1.1758 B( 16-S , 20-C ) :   1.1312
B( 17-C , 18-C ) :   1.5848 B( 17-C , 33-H ) :   0.9705 B( 18-C , 19-C ) :   1.2307
B( 18-C , 21-H ) :   0.9913 B( 19-C , 20-C ) :   1.6036 B( 19-C , 22-C ) :   1.0344
B( 22-C , 23-H ) :   0.9453 B( 22-C , 24-H ) :   0.9446 B( 22-C , 25-C ) :   1.0502
B( 25-C , 26-H ) :   0.9582 B( 25-C , 27-H ) :   0.9577 B( 25-C , 28-C ) :   1.0704
B( 28-C , 29-H ) :   0.9772 B( 28-C , 30-H ) :   0.9750 B( 28-C , 31-H ) :   0.9749

Dispersion correction           -0.014277761
FINAL SINGLE POINT ENERGY     -1339.864209270035

DIPOLE MOMENT
-------------
                                X             Y             Z
Electronic contribution:     -9.65679     -15.54688     -17.24507
Nuclear contribution   :     10.01727      15.86779      17.94378
                        -----------------------------------------
Total Dipole Moment    :      0.36048       0.32091       0.69871
                        -----------------------------------------
Magnitude (a.u.)       :      0.84919
Magnitude (Debye)      :      2.15847

Rotational constants in cm-1:     0.018054     0.008438     0.006885
Rotational constants in MHz :   541.258661   252.979360   206.397099

                             ****ORCA TERMINATED NORMALLY****
TOTAL RUN TIME: 0 days 0 hours 0 minutes 21 seconds 583 msec
