                         Program Version 4.2.1 -  RELEASE  -
|  1> ! wB97X-D3 SP def2-SVP
|  2> %pal
|  3> nprocs 24
|  4> end
|  5>
|  6> * xyz 0 1
|  7> S 	 -138.937 	 10.2217 	 2.46791
|  8> C 	 -140.209 	 9.41015 	 1.48743
|  9> C 	 -141.391 	 9.28201 	 2.24362
| 10> C 	 -141.198 	 9.92168 	 3.56309
| 11> C 	 -139.91 	 10.3624 	 3.88335
| 12> H 	 -142.051 	 10.1819 	 4.20929
| 13> C 	 -142.672 	 8.75987 	 1.63348
| 14> H 	 -142.409 	 8.34613 	 0.644071
| 15> H 	 -143.227 	 9.6413 	 1.48093
| 16> C 	 -143.524 	 7.82305 	 2.51291
| 17> H 	 -143.369 	 6.77525 	 2.39527
| 18> H 	 -143.325 	 7.98184 	 3.58163
| 19> C 	 -145.041 	 8.07926 	 2.47345
| 20> H 	 -145.452 	 9.01966 	 2.83828
| 21> H 	 -145.439 	 8.01053 	 1.46341
| 22> H 	 -145.654 	 7.41119 	 3.1233
| 23> S 	 -138.376 	 12.4173 	 4.93589
| 24> C 	 -138.278 	 12.6773 	 6.67647
| 25> C 	 -138.981 	 11.6664 	 7.3016
| 26> C 	 -139.635 	 10.7382 	 6.42596
| 27> C 	 -139.418 	 11.0336 	 5.09022
| 28> H 	 -139.052 	 11.5858 	 8.3802
| 29> C 	 -140.354 	 9.54863 	 6.91049
| 30> H 	 -141.174 	 9.18757 	 6.29856
| 31> H 	 -140.752 	 9.88278 	 7.8725
| 32> C 	 -139.572 	 8.2747 	 7.38163
| 33> H 	 -138.848 	 8.55169 	 8.18022
| 34> H 	 -138.938 	 8.08202 	 6.53401
| 35> C 	 -140.539 	 7.11513 	 7.69349
| 36> H 	 -140.106 	 6.16805 	 7.56072
| 37> H 	 -141.45 	 7.11762 	 7.04313
| 38> H 	 -140.907 	 7.15317 	 8.69148
| 39> H 	 -140.037 	 8.95899 	 0.499065
| 40> H 	 -137.651 	 13.3733 	 7.27128
| 41> *
| 42>
| 43>                          ****END OF INPUT****

CARTESIAN COORDINATES (ANGSTROEM)
---------------------------------
  S    -138.937000   10.221700    2.467910
  C    -140.209000    9.410150    1.487430
  C    -141.391000    9.282010    2.243620
  C    -141.198000    9.921680    3.563090
  C    -139.910000   10.362400    3.883350
  H    -142.051000   10.181900    4.209290
  C    -142.672000    8.759870    1.633480
  H    -142.409000    8.346130    0.644071
  H    -143.227000    9.641300    1.480930
  C    -143.524000    7.823050    2.512910
  H    -143.369000    6.775250    2.395270
  H    -143.325000    7.981840    3.581630
  C    -145.041000    8.079260    2.473450
  H    -145.452000    9.019660    2.838280
  H    -145.439000    8.010530    1.463410
  H    -145.654000    7.411190    3.123300
  S    -138.376000   12.417300    4.935890
  C    -138.278000   12.677300    6.676470
  C    -138.981000   11.666400    7.301600
  C    -139.635000   10.738200    6.425960
  C    -139.418000   11.033600    5.090220
  H    -139.052000   11.585800    8.380200
  C    -140.354000    9.548630    6.910490
  H    -141.174000    9.187570    6.298560
  H    -140.752000    9.882780    7.872500
  C    -139.572000    8.274700    7.381630
  H    -138.848000    8.551690    8.180220
  H    -138.938000    8.082020    6.534010
  C    -140.539000    7.115130    7.693490
  H    -140.106000    6.168050    7.560720
  H    -141.450000    7.117620    7.043130
  H    -140.907000    7.153170    8.691480
  H    -140.037000    8.958990    0.499065
  H    -137.651000   13.373300    7.271280

 Total Charge           Charge          ....    0
 Multiplicity           Mult            ....    1
 Number of Electrons    NEL             ....  134
 Basis Dimension        Dim             ....  322

ORBITAL ENERGIES
----------------

  NO   OCC          E(Eh)            E(eV)
   0   2.0000     -88.968067     -2420.9442
   1   2.0000     -88.964719     -2420.8531
   2   2.0000     -10.335506      -281.2434
   3   2.0000     -10.329664      -281.0844
   4   2.0000     -10.323957      -280.9292
   5   2.0000     -10.321944      -280.8744
   6   2.0000     -10.312172      -280.6085
   7   2.0000     -10.302284      -280.3394
   8   2.0000     -10.301486      -280.3177
   9   2.0000     -10.297806      -280.2175
  10   2.0000     -10.296165      -280.1729
  11   2.0000     -10.290540      -280.0198
  12   2.0000     -10.287271      -279.9309
  13   2.0000     -10.285271      -279.8764
  14   2.0000     -10.281251      -279.7671
  15   2.0000     -10.276556      -279.6393
  16   2.0000      -8.082562      -219.9377
  17   2.0000      -8.079155      -219.8450
  18   2.0000      -6.041190      -164.3891
  19   2.0000      -6.037820      -164.2974
  20   2.0000      -6.037000      -164.2751
  21   2.0000      -6.033583      -164.1821
  22   2.0000      -6.033283      -164.1740
  23   2.0000      -6.029873      -164.0812
  24   2.0000      -1.006781       -27.3959
  25   2.0000      -0.980142       -26.6710
  26   2.0000      -0.914186       -24.8763
  27   2.0000      -0.908164       -24.7124
  28   2.0000      -0.870195       -23.6792
  29   2.0000      -0.852025       -23.1848
  30   2.0000      -0.841072       -22.8867
  31   2.0000      -0.814924       -22.1752
  32   2.0000      -0.783458       -21.3190
  33   2.0000      -0.773251       -21.0412
  34   2.0000      -0.715183       -19.4611
  35   2.0000      -0.703396       -19.1404
  36   2.0000      -0.694350       -18.8942
  37   2.0000      -0.662930       -18.0392
  38   2.0000      -0.639441       -17.4001
  39   2.0000      -0.618119       -16.8199
  40   2.0000      -0.597860       -16.2686
  41   2.0000      -0.568300       -15.4642
  42   2.0000      -0.562240       -15.2993
  43   2.0000      -0.557384       -15.1672
  44   2.0000      -0.529646       -14.4124
  45   2.0000      -0.524900       -14.2833
  46   2.0000      -0.517648       -14.0859
  47   2.0000      -0.512224       -13.9383
  48   2.0000      -0.509140       -13.8544
  49   2.0000      -0.499323       -13.5873
  50   2.0000      -0.491822       -13.3832
  51   2.0000      -0.485080       -13.1997
  52   2.0000      -0.472445       -12.8559
  53   2.0000      -0.466284       -12.6882
  54   2.0000      -0.456898       -12.4328
  55   2.0000      -0.453883       -12.3508
  56   2.0000      -0.442806       -12.0494
  57   2.0000      -0.438184       -11.9236
  58   2.0000      -0.435704       -11.8561
  59   2.0000      -0.429495       -11.6872
  60   2.0000      -0.421632       -11.4732
  61   2.0000      -0.410956       -11.1827
  62   2.0000      -0.406821       -11.0702
  63   2.0000      -0.353381        -9.6160
  64   2.0000      -0.328695        -8.9442
  65   2.0000      -0.324288        -8.8243
  66   2.0000      -0.290583        -7.9072
  67   0.0000       0.023496         0.6394
  68   0.0000       0.075432         2.0526
  69   0.0000       0.107537         2.9262
  70   0.0000       0.112873         3.0714
  71   0.0000       0.129483         3.5234

MULLIKEN ATOMIC CHARGES
-----------------------
   0 S :    0.093685
   1 C :   -0.143476
   2 C :   -0.119458
   3 C :    0.004389
   4 C :   -0.135310
   5 H :    0.032682
   6 C :    0.121575
   7 H :    0.028238
   8 H :    0.032737
   9 C :   -0.050799
  10 H :    0.032956
  11 H :    0.027857
  12 C :   -0.098070
  13 H :    0.024338
  14 H :    0.029822
  15 H :    0.030602
  16 S :    0.107176
  17 C :   -0.092081
  18 C :   -0.040543
  19 C :   -0.024681
  20 C :   -0.133403
  21 H :    0.017643
  22 C :    0.033736
  23 H :    0.015585
  24 H :    0.010920
  25 C :   -0.062660
  26 H :    0.029239
  27 H :    0.025767
  28 C :   -0.019530
  29 H :    0.027120
  30 H :    0.029517
  31 H :    0.026837
  32 H :    0.064632
  33 H :    0.072957
Sum of atomic charges:    0.0000000

LOEWDIN ATOMIC CHARGES
----------------------
   0 S :    0.394876
   1 C :   -0.194935
   2 C :   -0.054767
   3 C :   -0.076152
   4 C :   -0.197663
   5 H :    0.031387
   6 C :   -0.024677
   7 H :    0.036965
   8 H :    0.034994
   9 C :   -0.041126
  10 H :    0.025196
  11 H :    0.028852
  12 C :   -0.077472
  13 H :    0.022092
  14 H :    0.020240
  15 H :    0.030787
  16 S :    0.408685
  17 C :   -0.191294
  18 C :   -0.068224
  19 C :   -0.061185
  20 C :   -0.200078
  21 H :    0.030016
  22 C :   -0.038846
  23 H :    0.026308
  24 H :    0.029679
  25 C :   -0.035408
  26 H :    0.025890
  27 H :    0.020477
  28 C :   -0.059941
  29 H :    0.022394
  30 H :    0.031876
  31 H :    0.022972
  32 H :    0.033665
  33 H :    0.044415

  Mayer bond orders larger than 0.100000
B(  0-S ,  1-C ) :   1.1271 B(  0-S ,  4-C ) :   1.1547 B(  1-C ,  2-C ) :   1.6100
B(  1-C , 32-H ) :   0.9642 B(  2-C ,  3-C ) :   1.2280 B(  2-C ,  6-C ) :   1.0316
B(  3-C ,  4-C ) :   1.5789 B(  3-C ,  5-H ) :   0.9757 B(  4-C , 20-C ) :   1.0468
B(  6-C ,  7-H ) :   0.9378 B(  6-C ,  8-H ) :   0.9406 B(  6-C ,  9-C ) :   1.0328
B(  9-C , 10-H ) :   0.9584 B(  9-C , 11-H ) :   0.9638 B(  9-C , 12-C ) :   1.0746
B( 12-C , 13-H ) :   0.9756 B( 12-C , 14-H ) :   0.9777 B( 12-C , 15-H ) :   0.9736
B( 16-S , 17-C ) :   1.1450 B( 16-S , 20-C ) :   1.1379 B( 17-C , 18-C ) :   1.6041
B( 17-C , 33-H ) :   0.9626 B( 18-C , 19-C ) :   1.2606 B( 18-C , 21-H ) :   0.9839
B( 19-C , 20-C ) :   1.5717 B( 19-C , 22-C ) :   1.0692 B( 22-C , 23-H ) :   0.9348
B( 22-C , 24-H ) :   0.9225 B( 22-C , 25-C ) :   1.0552 B( 25-C , 26-H ) :   0.9551
B( 25-C , 27-H ) :   0.9595 B( 25-C , 28-C ) :   1.0679 B( 28-C , 29-H ) :   0.9746
B( 28-C , 30-H ) :   0.9740 B( 28-C , 31-H ) :   0.9763

Dispersion correction           -0.013557416
FINAL SINGLE POINT ENERGY     -1339.870366160001

DIPOLE MOMENT
-------------
                                X             Y             Z
Electronic contribution:     22.66057      20.73476      -7.48562
Nuclear contribution   :    -23.18702     -21.12480       7.79888
                        -----------------------------------------
Total Dipole Moment    :     -0.52644      -0.39004       0.31325
                        -----------------------------------------
Magnitude (a.u.)       :      0.72622
Magnitude (Debye)      :      1.84592

Rotational constants in cm-1:     0.016866     0.008808     0.006622
Rotational constants in MHz :   505.641409   264.067937   198.521505

                             ****ORCA TERMINATED NORMALLY****
TOTAL RUN TIME: 0 days 0 hours 0 minutes 21 seconds 240 msec
