                         Program Version 4.2.1 -  RELEASE  -
|  1> ! wB97X-D3 SP def2-SVP
|  2> %pal
|  3> nprocs 24
|  4> end
|  5>
|  6> * xyz 0 1
|  7> S 	 -43.0896 	 16.4658 	 21.2103
|  8> C 	 -44.5074 	 17.1102 	 21.9261
|  9> C 	 -45.6045 	 16.2743 	 21.8728
| 10> C 	 -45.191 	 15.0589 	 21.3458
| 11> C 	 -43.9198 	 14.9788 	 20.913
| 12> H 	 -45.8331 	 14.2287 	 21.1757
| 13> C 	 -47.0212 	 16.5415 	 22.3858
| 14> H 	 -47.0455 	 17.4414 	 22.9865
| 15> H 	 -47.3775 	 15.763 	 23.1219
| 16> C 	 -48.0772 	 16.7256 	 21.3264
| 17> H 	 -47.8912 	 17.674 	 20.7968
| 18> H 	 -47.8584 	 16.0213 	 20.4908
| 19> C 	 -49.5545 	 16.5383 	 21.7531
| 20> H 	 -49.715 	 17.3644 	 22.4049
| 21> H 	 -50.2758 	 16.5616 	 20.8642
| 22> H 	 -49.7079 	 15.595 	 22.3328
| 23> S 	 -42.3409 	 12.6378 	 21.1633
| 24> C 	 -41.9219 	 11.8158 	 19.6849
| 25> C 	 -42.5876 	 12.3864 	 18.5835
| 26> C 	 -43.4502 	 13.5014 	 18.8357
| 27> C 	 -43.398 	 13.8194 	 20.2033
| 28> H 	 -42.4674 	 12.0176 	 17.514
| 29> C 	 -44.1594 	 14.2438 	 17.6911
| 30> H 	 -44.9691 	 14.7346 	 18.0864
| 31> H 	 -44.712 	 13.5428 	 17.0285
| 32> C 	 -43.1892 	 15.11 	 16.8355
| 33> H 	 -42.2403 	 14.558 	 16.5289
| 34> H 	 -42.8974 	 15.9968 	 17.4129
| 35> C 	 -43.8807 	 15.7445 	 15.6805
| 36> H 	 -43.2738 	 15.8181 	 14.8003
| 37> H 	 -44.1738 	 16.7829 	 15.91
| 38> H 	 -44.7772 	 15.2467 	 15.2866
| 39> H 	 -44.5911 	 18.1095 	 22.3896
| 40> H 	 -41.16 	 11.1036 	 19.5427
| 41> *
| 42>
| 43>                          ****END OF INPUT****

CARTESIAN COORDINATES (ANGSTROEM)
---------------------------------
  S    -43.089600   16.465800   21.210300
  C    -44.507400   17.110200   21.926100
  C    -45.604500   16.274300   21.872800
  C    -45.191000   15.058900   21.345800
  C    -43.919800   14.978800   20.913000
  H    -45.833100   14.228700   21.175700
  C    -47.021200   16.541500   22.385800
  H    -47.045500   17.441400   22.986500
  H    -47.377500   15.763000   23.121900
  C    -48.077200   16.725600   21.326400
  H    -47.891200   17.674000   20.796800
  H    -47.858400   16.021300   20.490800
  C    -49.554500   16.538300   21.753100
  H    -49.715000   17.364400   22.404900
  H    -50.275800   16.561600   20.864200
  H    -49.707900   15.595000   22.332800
  S    -42.340900   12.637800   21.163300
  C    -41.921900   11.815800   19.684900
  C    -42.587600   12.386400   18.583500
  C    -43.450200   13.501400   18.835700
  C    -43.398000   13.819400   20.203300
  H    -42.467400   12.017600   17.514000
  C    -44.159400   14.243800   17.691100
  H    -44.969100   14.734600   18.086400
  H    -44.712000   13.542800   17.028500
  C    -43.189200   15.110000   16.835500
  H    -42.240300   14.558000   16.528900
  H    -42.897400   15.996800   17.412900
  C    -43.880700   15.744500   15.680500
  H    -43.273800   15.818100   14.800300
  H    -44.173800   16.782900   15.910000
  H    -44.777200   15.246700   15.286600
  H    -44.591100   18.109500   22.389600
  H    -41.160000   11.103600   19.542700

 Total Charge           Charge          ....    0
 Multiplicity           Mult            ....    1
 Number of Electrons    NEL             ....  134
 Basis Dimension        Dim             ....  322

ORBITAL ENERGIES
----------------

  NO   OCC          E(Eh)            E(eV)
   0   2.0000     -88.969081     -2420.9718
   1   2.0000     -88.965779     -2420.8819
   2   2.0000     -10.331882      -281.1448
   3   2.0000     -10.317283      -280.7475
   4   2.0000     -10.316671      -280.7309
   5   2.0000     -10.314127      -280.6617
   6   2.0000     -10.308100      -280.4977
   7   2.0000     -10.297174      -280.2003
   8   2.0000     -10.297160      -280.2000
   9   2.0000     -10.296757      -280.1890
  10   2.0000     -10.293663      -280.1048
  11   2.0000     -10.291291      -280.0403
  12   2.0000     -10.288277      -279.9582
  13   2.0000     -10.287636      -279.9408
  14   2.0000     -10.280774      -279.7541
  15   2.0000     -10.273073      -279.5445
  16   2.0000      -8.084591      -219.9929
  17   2.0000      -8.079027      -219.8415
  18   2.0000      -6.042915      -164.4361
  19   2.0000      -6.039026      -164.3302
  20   2.0000      -6.037591      -164.2912
  21   2.0000      -6.035465      -164.2334
  22   2.0000      -6.033773      -164.1873
  23   2.0000      -6.029792      -164.0790
  24   2.0000      -1.011734       -27.5307
  25   2.0000      -0.975953       -26.5570
  26   2.0000      -0.912293       -24.8248
  27   2.0000      -0.908831       -24.7305
  28   2.0000      -0.867064       -23.5940
  29   2.0000      -0.854186       -23.2436
  30   2.0000      -0.850406       -23.1407
  31   2.0000      -0.805769       -21.9261
  32   2.0000      -0.786214       -21.3940
  33   2.0000      -0.772647       -21.0248
  34   2.0000      -0.703061       -19.1313
  35   2.0000      -0.697583       -18.9822
  36   2.0000      -0.693242       -18.8641
  37   2.0000      -0.654706       -17.8155
  38   2.0000      -0.645376       -17.5616
  39   2.0000      -0.622480       -16.9385
  40   2.0000      -0.598568       -16.2879
  41   2.0000      -0.565341       -15.3837
  42   2.0000      -0.561947       -15.2914
  43   2.0000      -0.554259       -15.0822
  44   2.0000      -0.527181       -14.3453
  45   2.0000      -0.523292       -14.2395
  46   2.0000      -0.518426       -14.1071
  47   2.0000      -0.511379       -13.9153
  48   2.0000      -0.500626       -13.6227
  49   2.0000      -0.493795       -13.4369
  50   2.0000      -0.493410       -13.4264
  51   2.0000      -0.480236       -13.0679
  52   2.0000      -0.466830       -12.7031
  53   2.0000      -0.463101       -12.6016
  54   2.0000      -0.453758       -12.3474
  55   2.0000      -0.450360       -12.2549
  56   2.0000      -0.447769       -12.1844
  57   2.0000      -0.439367       -11.9558
  58   2.0000      -0.433380       -11.7929
  59   2.0000      -0.429456       -11.6861
  60   2.0000      -0.422958       -11.5093
  61   2.0000      -0.411911       -11.2087
  62   2.0000      -0.407291       -11.0829
  63   2.0000      -0.340168        -9.2564
  64   2.0000      -0.330839        -9.0026
  65   2.0000      -0.317144        -8.6299
  66   2.0000      -0.308517        -8.3952
  67   0.0000       0.039917         1.0862
  68   0.0000       0.056094         1.5264
  69   0.0000       0.109114         2.9691
  70   0.0000       0.123202         3.3525
  71   0.0000       0.128780         3.5043

MULLIKEN ATOMIC CHARGES
-----------------------
   0 S :    0.141873
   1 C :   -0.138106
   2 C :   -0.060300
   3 C :    0.042234
   4 C :   -0.165830
   5 H :   -0.003040
   6 C :    0.074675
   7 H :    0.008158
   8 H :    0.036481
   9 C :   -0.103290
  10 H :    0.025633
  11 H :    0.021700
  12 C :   -0.054834
  13 H :    0.029095
  14 H :    0.055444
  15 H :    0.042378
  16 S :    0.100384
  17 C :   -0.065116
  18 C :   -0.070913
  19 C :   -0.006933
  20 C :   -0.220485
  21 H :    0.034981
  22 C :    0.123390
  23 H :   -0.004821
  24 H :    0.023986
  25 C :   -0.088205
  26 H :    0.049204
  27 H :    0.037238
  28 C :   -0.039056
  29 H :    0.022661
  30 H :    0.033489
  31 H :    0.021397
  32 H :    0.050707
  33 H :    0.045823
Sum of atomic charges:   -0.0000000

LOEWDIN ATOMIC CHARGES
----------------------
   0 S :    0.434689
   1 C :   -0.203623
   2 C :   -0.068979
   3 C :   -0.051779
   4 C :   -0.218973
   5 H :    0.027545
   6 C :   -0.033986
   7 H :    0.025584
   8 H :    0.036925
   9 C :   -0.053950
  10 H :    0.025578
  11 H :    0.020412
  12 C :   -0.067961
  13 H :    0.019916
  14 H :    0.038979
  15 H :    0.029758
  16 S :    0.370436
  17 C :   -0.185134
  18 C :   -0.079152
  19 C :   -0.044736
  20 C :   -0.171188
  21 H :    0.036666
  22 C :   -0.022643
  23 H :    0.019391
  24 H :    0.035489
  25 C :   -0.044855
  26 H :    0.033605
  27 H :    0.032621
  28 C :   -0.072892
  29 H :    0.024743
  30 H :    0.029284
  31 H :    0.022887
  32 H :    0.032603
  33 H :    0.022738

  Mayer bond orders larger than 0.100000
B(  0-S ,  1-C ) :   1.1683 B(  0-S ,  4-C ) :   1.1383 B(  1-C ,  2-C ) :   1.5998
B(  1-C , 32-H ) :   0.9567 B(  2-C ,  3-C ) :   1.2587 B(  2-C ,  6-C ) :   1.0258
B(  3-C ,  4-C ) :   1.5921 B(  3-C ,  5-H ) :   0.9994 B(  4-C , 20-C ) :   1.0283
B(  6-C ,  7-H ) :   0.9335 B(  6-C ,  8-H ) :   0.9455 B(  6-C ,  9-C ) :   1.0522
B(  9-C , 10-H ) :   0.9498 B(  9-C , 11-H ) :   0.9631 B(  9-C , 12-C ) :   1.0670
B( 12-C , 13-H ) :   0.9773 B( 12-C , 14-H ) :   0.9737 B( 12-C , 15-H ) :   0.9747
B( 16-S , 17-C ) :   1.1464 B( 16-S , 20-C ) :   1.1260 B( 17-C , 18-C ) :   1.6162
B( 17-C , 20-C ) :   0.1039 B( 17-C , 33-H ) :   0.9713 B( 18-C , 19-C ) :   1.2405
B( 18-C , 21-H ) :   0.9702 B( 19-C , 20-C ) :   1.6091 B( 19-C , 22-C ) :   1.0413
B( 22-C , 23-H ) :   0.9220 B( 22-C , 24-H ) :   0.9334 B( 22-C , 25-C ) :   1.0580
B( 25-C , 26-H ) :   0.9632 B( 25-C , 27-H ) :   0.9568 B( 25-C , 28-C ) :   1.0706
B( 28-C , 29-H ) :   0.9716 B( 28-C , 30-H ) :   0.9799 B( 28-C , 31-H ) :   0.9728

Dispersion correction           -0.013961018
FINAL SINGLE POINT ENERGY     -1339.868907634626

DIPOLE MOMENT
-------------
                                X             Y             Z
Electronic contribution:     21.93429      -9.27208      13.85386
Nuclear contribution   :    -22.37865       9.53020     -14.26488
                        -----------------------------------------
Total Dipole Moment    :     -0.44436       0.25812      -0.41102
                        -----------------------------------------
Magnitude (a.u.)       :      0.65804
Magnitude (Debye)      :      1.67260

Rotational constants in cm-1:     0.016765     0.008191     0.006915
Rotational constants in MHz :   502.598819   245.570141   207.303821

                             ****ORCA TERMINATED NORMALLY****
TOTAL RUN TIME: 0 days 0 hours 0 minutes 20 seconds 7 msec
