                         Program Version 4.2.1 -  RELEASE  -
|  1> ! wB97X-D3 SP def2-SVP
|  2> %pal
|  3> nprocs 24
|  4> end
|  5>
|  6> * xyz 0 1
|  7> S 	 -85.1981 	 -32.5013 	 -77.9567
|  8> C 	 -85.5925 	 -31.2862 	 -79.1583
|  9> C 	 -86.8854 	 -31.418 	 -79.6675
| 10> C 	 -87.6748 	 -32.248 	 -78.8518
| 11> C 	 -86.9332 	 -32.9223 	 -77.8899
| 12> H 	 -88.7346 	 -32.362 	 -78.9105
| 13> C 	 -87.4273 	 -30.5764 	 -80.7842
| 14> H 	 -88.0133 	 -31.1736 	 -81.4834
| 15> H 	 -86.7057 	 -29.98 	 -81.3506
| 16> C 	 -88.4505 	 -29.4579 	 -80.3433
| 17> H 	 -88.6205 	 -28.9163 	 -81.2683
| 18> H 	 -89.4115 	 -29.7583 	 -79.9214
| 19> C 	 -87.819 	 -28.6381 	 -79.1696
| 20> H 	 -88.5209 	 -27.7685 	 -78.9628
| 21> H 	 -87.7005 	 -29.2327 	 -78.3116
| 22> H 	 -86.8634 	 -28.1334 	 -79.4776
| 23> S 	 -86.5313 	 -35.4582 	 -76.9923
| 24> C 	 -87.5635 	 -36.1712 	 -75.8018
| 25> C 	 -88.4708 	 -35.2623 	 -75.2816
| 26> C 	 -88.4632 	 -34.0015 	 -76.071
| 27> C 	 -87.359 	 -33.911 	 -76.8927
| 28> H 	 -89.0846 	 -35.5232 	 -74.3933
| 29> C 	 -89.6379 	 -33.0785 	 -75.9937
| 30> H 	 -89.4011 	 -32.0395 	 -76.2265
| 31> H 	 -89.9949 	 -33.1289 	 -74.9227
| 32> C 	 -90.93 	 -33.4559 	 -76.7923
| 33> H 	 -91.3095 	 -34.4243 	 -76.4269
| 34> H 	 -90.7608 	 -33.6534 	 -77.8405
| 35> C 	 -92.0614 	 -32.4095 	 -76.7122
| 36> H 	 -91.8248 	 -31.4039 	 -77.0517
| 37> H 	 -92.3806 	 -32.3647 	 -75.6649
| 38> H 	 -92.8985 	 -32.7547 	 -77.3204
| 39> H 	 -84.8072 	 -30.6243 	 -79.6005
| 40> H 	 -87.3204 	 -37.0986 	 -75.3544
| 41> *
| 42>
| 43>                          ****END OF INPUT****

CARTESIAN COORDINATES (ANGSTROEM)
---------------------------------
  S    -85.198100  -32.501300  -77.956700
  C    -85.592500  -31.286200  -79.158300
  C    -86.885400  -31.418000  -79.667500
  C    -87.674800  -32.248000  -78.851800
  C    -86.933200  -32.922300  -77.889900
  H    -88.734600  -32.362000  -78.910500
  C    -87.427300  -30.576400  -80.784200
  H    -88.013300  -31.173600  -81.483400
  H    -86.705700  -29.980000  -81.350600
  C    -88.450500  -29.457900  -80.343300
  H    -88.620500  -28.916300  -81.268300
  H    -89.411500  -29.758300  -79.921400
  C    -87.819000  -28.638100  -79.169600
  H    -88.520900  -27.768500  -78.962800
  H    -87.700500  -29.232700  -78.311600
  H    -86.863400  -28.133400  -79.477600
  S    -86.531300  -35.458200  -76.992300
  C    -87.563500  -36.171200  -75.801800
  C    -88.470800  -35.262300  -75.281600
  C    -88.463200  -34.001500  -76.071000
  C    -87.359000  -33.911000  -76.892700
  H    -89.084600  -35.523200  -74.393300
  C    -89.637900  -33.078500  -75.993700
  H    -89.401100  -32.039500  -76.226500
  H    -89.994900  -33.128900  -74.922700
  C    -90.930000  -33.455900  -76.792300
  H    -91.309500  -34.424300  -76.426900
  H    -90.760800  -33.653400  -77.840500
  C    -92.061400  -32.409500  -76.712200
  H    -91.824800  -31.403900  -77.051700
  H    -92.380600  -32.364700  -75.664900
  H    -92.898500  -32.754700  -77.320400
  H    -84.807200  -30.624300  -79.600500
  H    -87.320400  -37.098600  -75.354400

 Total Charge           Charge          ....    0
 Multiplicity           Mult            ....    1
 Number of Electrons    NEL             ....  134
 Basis Dimension        Dim             ....  322

ORBITAL ENERGIES
----------------

  NO   OCC          E(Eh)            E(eV)
   0   2.0000     -88.968780     -2420.9636
   1   2.0000     -88.961969     -2420.7783
   2   2.0000     -10.334053      -281.2039
   3   2.0000     -10.327015      -281.0124
   4   2.0000     -10.318710      -280.7864
   5   2.0000     -10.314321      -280.6669
   6   2.0000     -10.309192      -280.5274
   7   2.0000     -10.302882      -280.3557
   8   2.0000     -10.302617      -280.3485
   9   2.0000     -10.297806      -280.2176
  10   2.0000     -10.296447      -280.1806
  11   2.0000     -10.295190      -280.1464
  12   2.0000     -10.290625      -280.0221
  13   2.0000     -10.290361      -280.0150
  14   2.0000     -10.281991      -279.7872
  15   2.0000     -10.279079      -279.7079
  16   2.0000      -8.082927      -219.9476
  17   2.0000      -8.077338      -219.7955
  18   2.0000      -6.041307      -164.3923
  19   2.0000      -6.037726      -164.2949
  20   2.0000      -6.035974      -164.2472
  21   2.0000      -6.033644      -164.1838
  22   2.0000      -6.031775      -164.1329
  23   2.0000      -6.027893      -164.0273
  24   2.0000      -1.004982       -27.3469
  25   2.0000      -0.982605       -26.7380
  26   2.0000      -0.908998       -24.7351
  27   2.0000      -0.905960       -24.6524
  28   2.0000      -0.864917       -23.5356
  29   2.0000      -0.851986       -23.1837
  30   2.0000      -0.845472       -23.0065
  31   2.0000      -0.811545       -22.0833
  32   2.0000      -0.781686       -21.2708
  33   2.0000      -0.771220       -20.9860
  34   2.0000      -0.706531       -19.2257
  35   2.0000      -0.696618       -18.9559
  36   2.0000      -0.689362       -18.7585
  37   2.0000      -0.662837       -18.0367
  38   2.0000      -0.639886       -17.4122
  39   2.0000      -0.625869       -17.0308
  40   2.0000      -0.596800       -16.2398
  41   2.0000      -0.566585       -15.4175
  42   2.0000      -0.561900       -15.2901
  43   2.0000      -0.550290       -14.9741
  44   2.0000      -0.539817       -14.6892
  45   2.0000      -0.520217       -14.1558
  46   2.0000      -0.519286       -14.1305
  47   2.0000      -0.513283       -13.9671
  48   2.0000      -0.505196       -13.7471
  49   2.0000      -0.498277       -13.5588
  50   2.0000      -0.487100       -13.2547
  51   2.0000      -0.477896       -13.0042
  52   2.0000      -0.468240       -12.7415
  53   2.0000      -0.465266       -12.6605
  54   2.0000      -0.460724       -12.5369
  55   2.0000      -0.451226       -12.2785
  56   2.0000      -0.443504       -12.0683
  57   2.0000      -0.436411       -11.8754
  58   2.0000      -0.430504       -11.7146
  59   2.0000      -0.428992       -11.6735
  60   2.0000      -0.423885       -11.5345
  61   2.0000      -0.415615       -11.3094
  62   2.0000      -0.413079       -11.2404
  63   2.0000      -0.348494        -9.4830
  64   2.0000      -0.333193        -9.0667
  65   2.0000      -0.322914        -8.7869
  66   2.0000      -0.290857        -7.9146
  67   0.0000       0.030664         0.8344
  68   0.0000       0.063668         1.7325
  69   0.0000       0.109739         2.9861
  70   0.0000       0.113176         3.0797
  71   0.0000       0.119638         3.2555

MULLIKEN ATOMIC CHARGES
-----------------------
   0 S :    0.111160
   1 C :   -0.137457
   2 C :   -0.068646
   3 C :    0.040131
   4 C :   -0.148485
   5 H :   -0.001494
   6 C :    0.063606
   7 H :    0.032608
   8 H :    0.026813
   9 C :   -0.099395
  10 H :    0.034099
  11 H :    0.031150
  12 C :   -0.077312
  13 H :    0.036843
  14 H :    0.051438
  15 H :    0.030068
  16 S :    0.091720
  17 C :   -0.078778
  18 C :   -0.049410
  19 C :   -0.043188
  20 C :   -0.114844
  21 H :    0.042090
  22 C :    0.032593
  23 H :    0.026775
  24 H :    0.027441
  25 C :   -0.076152
  26 H :    0.022735
  27 H :    0.023979
  28 C :   -0.045769
  29 H :    0.032633
  30 H :    0.030157
  31 H :    0.037080
  32 H :    0.065456
  33 H :    0.050356
Sum of atomic charges:    0.0000000

LOEWDIN ATOMIC CHARGES
----------------------
   0 S :    0.391947
   1 C :   -0.197161
   2 C :   -0.065173
   3 C :   -0.054237
   4 C :   -0.175904
   5 H :    0.029346
   6 C :   -0.031660
   7 H :    0.032382
   8 H :    0.032024
   9 C :   -0.038272
  10 H :    0.023175
  11 H :    0.019263
  12 C :   -0.067933
  13 H :    0.029977
  14 H :    0.019639
  15 H :    0.024677
  16 S :    0.402989
  17 C :   -0.185393
  18 C :   -0.071045
  19 C :   -0.056055
  20 C :   -0.198086
  21 H :    0.039628
  22 C :   -0.039156
  23 H :    0.027121
  24 H :    0.037790
  25 C :   -0.039914
  26 H :    0.025156
  27 H :    0.016260
  28 C :   -0.063878
  29 H :    0.022431
  30 H :    0.025391
  31 H :    0.029904
  32 H :    0.034077
  33 H :    0.020691

  Mayer bond orders larger than 0.100000
B(  0-S ,  1-C ) :   1.1411 B(  0-S ,  4-C ) :   1.1477 B(  1-C ,  2-C ) :   1.5978
B(  1-C ,  4-C ) :   0.1073 B(  1-C , 32-H ) :   0.9609 B(  2-C ,  3-C ) :   1.2209
B(  2-C ,  6-C ) :   1.0511 B(  3-C ,  4-C ) :   1.5827 B(  3-C ,  5-H ) :   1.0021
B(  4-C , 20-C ) :   1.0125 B(  6-C ,  7-H ) :   0.9350 B(  6-C ,  8-H ) :   0.9491
B(  6-C ,  9-C ) :   1.0528 B(  9-C , 10-H ) :   0.9624 B(  9-C , 11-H ) :   0.9582
B(  9-C , 12-C ) :   1.0688 B( 12-C , 13-H ) :   0.9755 B( 12-C , 14-H ) :   0.9719
B( 12-C , 15-H ) :   0.9775 B( 16-S , 17-C ) :   1.1520 B( 16-S , 20-C ) :   1.1277
B( 17-C , 18-C ) :   1.6436 B( 17-C , 33-H ) :   0.9667 B( 18-C , 19-C ) :   1.1816
B( 18-C , 21-H ) :   0.9826 B( 19-C , 20-C ) :   1.6466 B( 19-C , 22-C ) :   1.0743
B( 22-C , 23-H ) :   0.9397 B( 22-C , 24-H ) :   0.9288 B( 22-C , 25-C ) :   1.0505
B( 25-C , 26-H ) :   0.9506 B( 25-C , 27-H ) :   0.9568 B( 25-C , 28-C ) :   1.0839
B( 28-C , 29-H ) :   0.9758 B( 28-C , 30-H ) :   0.9756 B( 28-C , 31-H ) :   0.9731

Dispersion correction           -0.014816375
FINAL SINGLE POINT ENERGY     -1339.879569733790

DIPOLE MOMENT
-------------
                                X             Y             Z
Electronic contribution:     23.76914     -18.83423       4.69546
Nuclear contribution   :    -24.40245      19.09073      -4.81038
                        -----------------------------------------
Total Dipole Moment    :     -0.63331       0.25650      -0.11492
                        -----------------------------------------
Magnitude (a.u.)       :      0.69288
Magnitude (Debye)      :      1.76115

Rotational constants in cm-1:     0.017157     0.010116     0.006895
Rotational constants in MHz :   514.358814   303.277609   206.713509

                             ****ORCA TERMINATED NORMALLY****
TOTAL RUN TIME: 0 days 0 hours 0 minutes 22 seconds 999 msec
