                         Program Version 4.2.1 -  RELEASE  -
|  1> ! wB97X-D3 SP def2-SVP
|  2> %pal
|  3> nprocs 24
|  4> end
|  5>
|  6> * xyz 0 1
|  7> S 	 -59.6252 	 17.4731 	 -91.6158
|  8> C 	 -58.0503 	 18.0371 	 -91.8814
|  9> C 	 -57.2926 	 17.2518 	 -92.7173
| 10> C 	 -58.1969 	 16.4855 	 -93.5205
| 11> C 	 -59.4658 	 16.3545 	 -92.9956
| 12> H 	 -57.9726 	 15.9791 	 -94.4354
| 13> C 	 -55.8714 	 17.5091 	 -93.1563
| 14> H 	 -55.5883 	 16.7754 	 -93.9568
| 15> H 	 -55.2232 	 17.2965 	 -92.3409
| 16> C 	 -55.5378 	 18.9369 	 -93.5932
| 17> H 	 -55.7537 	 19.6353 	 -92.7801
| 18> H 	 -54.4848 	 19.0615 	 -93.8561
| 19> C 	 -56.2694 	 19.3298 	 -94.8222
| 20> H 	 -55.8104 	 20.3142 	 -95.0604
| 21> H 	 -55.9639 	 18.7883 	 -95.6505
| 22> H 	 -57.3766 	 19.3166 	 -94.6792
| 23> S 	 -62.0927 	 16.5888 	 -93.7259
| 24> C 	 -62.9254 	 15.2066 	 -94.3029
| 25> C 	 -62.1115 	 14.1476 	 -94.5759
| 26> C 	 -60.7901 	 14.421 	 -94.0782
| 27> C 	 -60.6276 	 15.6995 	 -93.629
| 28> H 	 -62.5334 	 13.2637 	 -95.0503
| 29> C 	 -59.6761 	 13.4426 	 -94.2668
| 30> H 	 -58.7948 	 13.9547 	 -94.6958
| 31> H 	 -60.0234 	 12.7281 	 -95.0107
| 32> C 	 -59.3907 	 12.6974 	 -92.9565
| 33> H 	 -60.2775 	 12.2401 	 -92.6463
| 34> H 	 -59.0514 	 13.4026 	 -92.1568
| 35> C 	 -58.3481 	 11.5976 	 -93.1877
| 36> H 	 -58.7806 	 10.8821 	 -93.9341
| 37> H 	 -58.2699 	 10.9961 	 -92.2745
| 38> H 	 -57.4348 	 11.9253 	 -93.7591
| 39> H 	 -57.6682 	 18.9059 	 -91.3648
| 40> H 	 -64.023 	 15.2518 	 -94.4967
| 41> *
| 42>
| 43>                          ****END OF INPUT****

CARTESIAN COORDINATES (ANGSTROEM)
---------------------------------
  S    -59.625200   17.473100  -91.615800
  C    -58.050300   18.037100  -91.881400
  C    -57.292600   17.251800  -92.717300
  C    -58.196900   16.485500  -93.520500
  C    -59.465800   16.354500  -92.995600
  H    -57.972600   15.979100  -94.435400
  C    -55.871400   17.509100  -93.156300
  H    -55.588300   16.775400  -93.956800
  H    -55.223200   17.296500  -92.340900
  C    -55.537800   18.936900  -93.593200
  H    -55.753700   19.635300  -92.780100
  H    -54.484800   19.061500  -93.856100
  C    -56.269400   19.329800  -94.822200
  H    -55.810400   20.314200  -95.060400
  H    -55.963900   18.788300  -95.650500
  H    -57.376600   19.316600  -94.679200
  S    -62.092700   16.588800  -93.725900
  C    -62.925400   15.206600  -94.302900
  C    -62.111500   14.147600  -94.575900
  C    -60.790100   14.421000  -94.078200
  C    -60.627600   15.699500  -93.629000
  H    -62.533400   13.263700  -95.050300
  C    -59.676100   13.442600  -94.266800
  H    -58.794800   13.954700  -94.695800
  H    -60.023400   12.728100  -95.010700
  C    -59.390700   12.697400  -92.956500
  H    -60.277500   12.240100  -92.646300
  H    -59.051400   13.402600  -92.156800
  C    -58.348100   11.597600  -93.187700
  H    -58.780600   10.882100  -93.934100
  H    -58.269900   10.996100  -92.274500
  H    -57.434800   11.925300  -93.759100
  H    -57.668200   18.905900  -91.364800
  H    -64.023000   15.251800  -94.496700

 Total Charge           Charge          ....    0
 Multiplicity           Mult            ....    1
 Number of Electrons    NEL             ....  134
 Basis Dimension        Dim             ....  322

ORBITAL ENERGIES
----------------

  NO   OCC          E(Eh)            E(eV)
   0   2.0000     -88.965762     -2420.8815
   1   2.0000     -88.961228     -2420.7581
   2   2.0000     -10.326615      -281.0015
   3   2.0000     -10.317761      -280.7606
   4   2.0000     -10.313614      -280.6477
   5   2.0000     -10.311156      -280.5808
   6   2.0000     -10.299506      -280.2638
   7   2.0000     -10.296212      -280.1742
   8   2.0000     -10.292589      -280.0756
   9   2.0000     -10.292270      -280.0669
  10   2.0000     -10.289751      -279.9984
  11   2.0000     -10.286396      -279.9071
  12   2.0000     -10.283665      -279.8328
  13   2.0000     -10.280560      -279.7483
  14   2.0000     -10.279306      -279.7141
  15   2.0000     -10.268992      -279.4335
  16   2.0000      -8.081059      -219.8968
  17   2.0000      -8.077622      -219.8033
  18   2.0000      -6.039470      -164.3423
  19   2.0000      -6.035980      -164.2474
  20   2.0000      -6.035499      -164.2343
  21   2.0000      -6.031917      -164.1368
  22   2.0000      -6.031880      -164.1358
  23   2.0000      -6.028417      -164.0416
  24   2.0000      -1.012858       -27.5613
  25   2.0000      -0.992770       -27.0146
  26   2.0000      -0.917748       -24.9732
  27   2.0000      -0.911235       -24.7960
  28   2.0000      -0.869869       -23.6703
  29   2.0000      -0.855151       -23.2699
  30   2.0000      -0.848510       -23.0891
  31   2.0000      -0.816021       -22.2051
  32   2.0000      -0.782176       -21.2841
  33   2.0000      -0.767761       -20.8918
  34   2.0000      -0.701520       -19.0893
  35   2.0000      -0.698286       -19.0013
  36   2.0000      -0.685951       -18.6657
  37   2.0000      -0.665629       -18.1127
  38   2.0000      -0.643376       -17.5072
  39   2.0000      -0.614312       -16.7163
  40   2.0000      -0.594636       -16.1809
  41   2.0000      -0.579957       -15.7814
  42   2.0000      -0.562209       -15.2985
  43   2.0000      -0.555948       -15.1281
  44   2.0000      -0.543316       -14.7844
  45   2.0000      -0.530055       -14.4235
  46   2.0000      -0.513964       -13.9857
  47   2.0000      -0.506482       -13.7821
  48   2.0000      -0.505934       -13.7672
  49   2.0000      -0.495872       -13.4934
  50   2.0000      -0.492315       -13.3966
  51   2.0000      -0.476491       -12.9660
  52   2.0000      -0.474229       -12.9044
  53   2.0000      -0.468547       -12.7498
  54   2.0000      -0.454878       -12.3779
  55   2.0000      -0.447880       -12.1874
  56   2.0000      -0.442162       -12.0318
  57   2.0000      -0.438090       -11.9210
  58   2.0000      -0.429616       -11.6904
  59   2.0000      -0.429164       -11.6781
  60   2.0000      -0.417650       -11.3648
  61   2.0000      -0.413615       -11.2550
  62   2.0000      -0.412782       -11.2324
  63   2.0000      -0.346936        -9.4406
  64   2.0000      -0.329791        -8.9741
  65   2.0000      -0.327782        -8.9194
  66   2.0000      -0.290705        -7.9105
  67   0.0000       0.029622         0.8060
  68   0.0000       0.078457         2.1349
  69   0.0000       0.110882         3.0173
  70   0.0000       0.115760         3.1500
  71   0.0000       0.133187         3.6242

MULLIKEN ATOMIC CHARGES
-----------------------
   0 S :    0.120924
   1 C :   -0.140759
   2 C :   -0.059214
   3 C :   -0.000808
   4 C :   -0.131910
   5 H :    0.011840
   6 C :    0.076405
   7 H :    0.024254
   8 H :    0.023875
   9 C :   -0.087221
  10 H :    0.025975
  11 H :    0.026074
  12 C :   -0.027808
  13 H :    0.022867
  14 H :    0.005754
  15 H :    0.058476
  16 S :    0.113472
  17 C :   -0.116020
  18 C :   -0.026489
  19 C :   -0.051383
  20 C :   -0.154411
  21 H :    0.025050
  22 C :    0.054343
  23 H :    0.024994
  24 H :    0.009529
  25 C :   -0.062827
  26 H :    0.012089
  27 H :    0.050357
  28 C :   -0.041910
  29 H :    0.012443
  30 H :    0.042554
  31 H :    0.038961
  32 H :    0.052624
  33 H :    0.067904
Sum of atomic charges:   -0.0000000

LOEWDIN ATOMIC CHARGES
----------------------
   0 S :    0.411028
   1 C :   -0.200246
   2 C :   -0.067946
   3 C :   -0.051825
   4 C :   -0.190655
   5 H :    0.025887
   6 C :   -0.035008
   7 H :    0.033365
   8 H :    0.028596
   9 C :   -0.042074
  10 H :    0.021690
  11 H :    0.026987
  12 C :   -0.064577
  13 H :    0.031986
  14 H :    0.012640
  15 H :    0.033188
  16 S :    0.428730
  17 C :   -0.195338
  18 C :   -0.077523
  19 C :   -0.055919
  20 C :   -0.214674
  21 H :    0.036296
  22 C :   -0.030886
  23 H :    0.027941
  24 H :    0.027662
  25 C :   -0.034289
  26 H :    0.017320
  27 H :    0.031188
  28 C :   -0.075961
  29 H :    0.023932
  30 H :    0.028800
  31 H :    0.030876
  32 H :    0.024471
  33 H :    0.034337

  Mayer bond orders larger than 0.100000
B(  0-S ,  1-C ) :   1.1736 B(  0-S ,  4-C ) :   1.1242 B(  1-C ,  2-C ) :   1.5835
B(  1-C , 32-H ) :   0.9663 B(  2-C ,  3-C ) :   1.2198 B(  2-C ,  6-C ) :   1.0375
B(  3-C ,  4-C ) :   1.6042 B(  3-C ,  5-H ) :   0.9863 B(  4-C , 20-C ) :   1.0389
B(  6-C ,  7-H ) :   0.9467 B(  6-C ,  8-H ) :   0.9229 B(  6-C ,  9-C ) :   1.0877
B(  9-C , 10-H ) :   0.9504 B(  9-C , 11-H ) :   0.9516 B(  9-C , 12-C ) :   1.0886
B( 12-C , 13-H ) :   0.9693 B( 12-C , 14-H ) :   0.9708 B( 12-C , 15-H ) :   0.9725
B( 16-S , 17-C ) :   1.1763 B( 16-S , 20-C ) :   1.1394 B( 17-C , 18-C ) :   1.6046
B( 17-C , 33-H ) :   0.9595 B( 18-C , 19-C ) :   1.2323 B( 18-C , 21-H ) :   0.9934
B( 19-C , 20-C ) :   1.6159 B( 19-C , 22-C ) :   1.0433 B( 22-C , 23-H ) :   0.9397
B( 22-C , 24-H ) :   0.9312 B( 22-C , 25-C ) :   1.0601 B( 25-C , 26-H ) :   0.9499
B( 25-C , 27-H ) :   0.9569 B( 25-C , 28-C ) :   1.0874 B( 28-C , 29-H ) :   0.9693
B( 28-C , 30-H ) :   0.9724 B( 28-C , 31-H ) :   0.9721

Dispersion correction           -0.014569333
FINAL SINGLE POINT ENERGY     -1339.874162871221

DIPOLE MOMENT
-------------
                                X             Y             Z
Electronic contribution:    -21.34359       8.33940       7.22020
Nuclear contribution   :     21.72154      -8.51419      -7.55066
                        -----------------------------------------
Total Dipole Moment    :      0.37795      -0.17479      -0.33046
                        -----------------------------------------
Magnitude (a.u.)       :      0.53160
Magnitude (Debye)      :      1.35122

Rotational constants in cm-1:     0.018658     0.008926     0.007190
Rotational constants in MHz :   559.357975   267.580275   215.547776

                             ****ORCA TERMINATED NORMALLY****
TOTAL RUN TIME: 0 days 0 hours 0 minutes 22 seconds 90 msec
