                         Program Version 4.2.1 -  RELEASE  -
|  1> ! wB97X-D3 SP def2-SVP
|  2> %pal
|  3> nprocs 24
|  4> end
|  5>
|  6> * xyz 0 1
|  7> S 	 -57.8647 	 0.0602723 	 -23.4656
|  8> C 	 -56.4591 	 0.380891 	 -24.436
|  9> C 	 -55.5926 	 1.33494 	 -23.8817
| 10> C 	 -56.1115 	 1.88181 	 -22.6369
| 11> C 	 -57.2712 	 1.20449 	 -22.2292
| 12> H 	 -55.7638 	 2.68922 	 -22.0242
| 13> C 	 -54.2463 	 1.78353 	 -24.5035
| 14> H 	 -54.3844 	 2.72797 	 -25.0016
| 15> H 	 -53.9775 	 1.02674 	 -25.2426
| 16> C 	 -53.0479 	 2.04456 	 -23.4954
| 17> H 	 -53.3541 	 2.75547 	 -22.7631
| 18> H 	 -52.9331 	 1.09472 	 -22.988
| 19> C 	 -51.8382 	 2.43982 	 -24.1988
| 20> H 	 -51.9292 	 3.47277 	 -24.6236
| 21> H 	 -51.0099 	 2.41183 	 -23.4291
| 22> H 	 -51.5105 	 1.77923 	 -25.0151
| 23> S 	 -59.724 	 1.33836 	 -20.9433
| 24> C 	 -59.8174 	 1.3247 	 -19.2417
| 25> C 	 -58.5789 	 1.26651 	 -18.6646
| 26> C 	 -57.5147 	 1.1085 	 -19.6375
| 27> C 	 -57.9214 	 1.20335 	 -20.9468
| 28> H 	 -58.4593 	 1.29012 	 -17.6191
| 29> C 	 -56.0168 	 0.959201 	 -19.108
| 30> H 	 -55.3077 	 0.758218 	 -19.9441
| 31> H 	 -56.0788 	 0.0710605 	 -18.5279
| 32> C 	 -55.5037 	 2.18738 	 -18.3522
| 33> H 	 -55.9521 	 2.25901 	 -17.3351
| 34> H 	 -55.8566 	 3.17018 	 -18.7682
| 35> C 	 -53.9941 	 2.08974 	 -18.053
| 36> H 	 -53.7005 	 2.98626 	 -17.4799
| 37> H 	 -53.457 	 2.02499 	 -18.9437
| 38> H 	 -53.6894 	 1.18383 	 -17.5491
| 39> H 	 -56.3534 	 -0.0802169 	 -25.4093
| 40> H 	 -60.7473 	 1.38861 	 -18.717
| 41> *
| 42>
| 43>                          ****END OF INPUT****

CARTESIAN COORDINATES (ANGSTROEM)
---------------------------------
  S    -57.864700    0.060272  -23.465600
  C    -56.459100    0.380891  -24.436000
  C    -55.592600    1.334940  -23.881700
  C    -56.111500    1.881810  -22.636900
  C    -57.271200    1.204490  -22.229200
  H    -55.763800    2.689220  -22.024200
  C    -54.246300    1.783530  -24.503500
  H    -54.384400    2.727970  -25.001600
  H    -53.977500    1.026740  -25.242600
  C    -53.047900    2.044560  -23.495400
  H    -53.354100    2.755470  -22.763100
  H    -52.933100    1.094720  -22.988000
  C    -51.838200    2.439820  -24.198800
  H    -51.929200    3.472770  -24.623600
  H    -51.009900    2.411830  -23.429100
  H    -51.510500    1.779230  -25.015100
  S    -59.724000    1.338360  -20.943300
  C    -59.817400    1.324700  -19.241700
  C    -58.578900    1.266510  -18.664600
  C    -57.514700    1.108500  -19.637500
  C    -57.921400    1.203350  -20.946800
  H    -58.459300    1.290120  -17.619100
  C    -56.016800    0.959201  -19.108000
  H    -55.307700    0.758218  -19.944100
  H    -56.078800    0.071060  -18.527900
  C    -55.503700    2.187380  -18.352200
  H    -55.952100    2.259010  -17.335100
  H    -55.856600    3.170180  -18.768200
  C    -53.994100    2.089740  -18.053000
  H    -53.700500    2.986260  -17.479900
  H    -53.457000    2.024990  -18.943700
  H    -53.689400    1.183830  -17.549100
  H    -56.353400   -0.080217  -25.409300
  H    -60.747300    1.388610  -18.717000

 Total Charge           Charge          ....    0
 Multiplicity           Mult            ....    1
 Number of Electrons    NEL             ....  134
 Basis Dimension        Dim             ....  322

ORBITAL ENERGIES
----------------

  NO   OCC          E(Eh)            E(eV)
   0   2.0000     -88.965579     -2420.8765
   1   2.0000     -88.957899     -2420.6675
   2   2.0000     -10.331749      -281.1412
   3   2.0000     -10.326555      -280.9998
   4   2.0000     -10.315461      -280.6980
   5   2.0000     -10.313944      -280.6567
   6   2.0000     -10.309617      -280.5389
   7   2.0000     -10.308629      -280.5121
   8   2.0000     -10.300955      -280.3032
   9   2.0000     -10.296428      -280.1800
  10   2.0000     -10.294158      -280.1183
  11   2.0000     -10.293273      -280.0942
  12   2.0000     -10.290070      -280.0070
  13   2.0000     -10.284595      -279.8581
  14   2.0000     -10.283594      -279.8308
  15   2.0000     -10.275904      -279.6216
  16   2.0000      -8.080092      -219.8705
  17   2.0000      -8.073300      -219.6857
  18   2.0000      -6.038507      -164.3161
  19   2.0000      -6.034732      -164.2134
  20   2.0000      -6.031819      -164.1341
  21   2.0000      -6.030860      -164.1081
  22   2.0000      -6.027718      -164.0225
  23   2.0000      -6.024009      -163.9216
  24   2.0000      -1.001251       -27.2454
  25   2.0000      -0.978215       -26.6186
  26   2.0000      -0.912440       -24.8288
  27   2.0000      -0.904285       -24.6069
  28   2.0000      -0.872191       -23.7335
  29   2.0000      -0.851992       -23.1839
  30   2.0000      -0.843611       -22.9558
  31   2.0000      -0.813078       -22.1250
  32   2.0000      -0.781836       -21.2749
  33   2.0000      -0.768286       -20.9061
  34   2.0000      -0.708721       -19.2853
  35   2.0000      -0.699382       -19.0312
  36   2.0000      -0.689924       -18.7738
  37   2.0000      -0.661621       -18.0036
  38   2.0000      -0.645113       -17.5544
  39   2.0000      -0.615720       -16.7546
  40   2.0000      -0.595694       -16.2097
  41   2.0000      -0.575842       -15.6695
  42   2.0000      -0.563573       -15.3356
  43   2.0000      -0.557298       -15.1649
  44   2.0000      -0.530641       -14.4395
  45   2.0000      -0.524039       -14.2598
  46   2.0000      -0.515718       -14.0334
  47   2.0000      -0.510350       -13.8873
  48   2.0000      -0.506480       -13.7820
  49   2.0000      -0.496328       -13.5058
  50   2.0000      -0.491820       -13.3831
  51   2.0000      -0.485845       -13.2205
  52   2.0000      -0.479405       -13.0453
  53   2.0000      -0.469495       -12.7756
  54   2.0000      -0.455966       -12.4075
  55   2.0000      -0.450447       -12.2573
  56   2.0000      -0.446347       -12.1457
  57   2.0000      -0.443693       -12.0735
  58   2.0000      -0.433962       -11.8087
  59   2.0000      -0.426048       -11.5933
  60   2.0000      -0.413043       -11.2395
  61   2.0000      -0.410884       -11.1807
  62   2.0000      -0.406295       -11.0559
  63   2.0000      -0.346454        -9.4275
  64   2.0000      -0.330885        -9.0038
  65   2.0000      -0.327222        -8.9042
  66   2.0000      -0.289448        -7.8763
  67   0.0000       0.028636         0.7792
  68   0.0000       0.071128         1.9355
  69   0.0000       0.110283         3.0010
  70   0.0000       0.121334         3.3017
  71   0.0000       0.125523         3.4157

MULLIKEN ATOMIC CHARGES
-----------------------
   0 S :    0.110623
   1 C :   -0.121382
   2 C :   -0.084689
   3 C :    0.033450
   4 C :   -0.151625
   5 H :    0.017355
   6 C :    0.055807
   7 H :    0.031204
   8 H :    0.021377
   9 C :   -0.074854
  10 H :    0.028791
  11 H :    0.029107
  12 C :   -0.056375
  13 H :    0.038006
  14 H :    0.040474
  15 H :    0.035175
  16 S :    0.078757
  17 C :   -0.066630
  18 C :   -0.025221
  19 C :   -0.043444
  20 C :   -0.156508
  21 H :    0.003161
  22 C :    0.073157
  23 H :    0.030282
  24 H :    0.029231
  25 C :   -0.109406
  26 H :    0.025450
  27 H :    0.042637
  28 C :   -0.019919
  29 H :    0.042187
  30 H :    0.011362
  31 H :    0.026962
  32 H :    0.049964
  33 H :    0.055535
Sum of atomic charges:    0.0000000

LOEWDIN ATOMIC CHARGES
----------------------
   0 S :    0.398085
   1 C :   -0.201838
   2 C :   -0.060031
   3 C :   -0.055799
   4 C :   -0.180486
   5 H :    0.031893
   6 C :   -0.028466
   7 H :    0.027338
   8 H :    0.028126
   9 C :   -0.042976
  10 H :    0.020332
  11 H :    0.024423
  12 C :   -0.069859
  13 H :    0.030243
  14 H :    0.035122
  15 H :    0.027059
  16 S :    0.386747
  17 C :   -0.181850
  18 C :   -0.074830
  19 C :   -0.046591
  20 C :   -0.191778
  21 H :    0.023222
  22 C :   -0.025775
  23 H :    0.030806
  24 H :    0.028153
  25 C :   -0.050951
  26 H :    0.024539
  27 H :    0.030455
  28 C :   -0.061349
  29 H :    0.032449
  30 H :    0.012924
  31 H :    0.026526
  32 H :    0.026072
  33 H :    0.028065

  Mayer bond orders larger than 0.100000
B(  0-S ,  1-C ) :   1.1411 B(  0-S ,  4-C ) :   1.1467 B(  1-C ,  2-C ) :   1.6196
B(  1-C , 32-H ) :   0.9683 B(  2-C ,  3-C ) :   1.2087 B(  2-C ,  6-C ) :   1.0191
B(  3-C ,  4-C ) :   1.5829 B(  3-C ,  5-H ) :   0.9984 B(  4-C , 20-C ) :   1.0494
B(  6-C ,  7-H ) :   0.9380 B(  6-C ,  8-H ) :   0.9484 B(  6-C ,  9-C ) :   1.0596
B(  9-C , 10-H ) :   0.9478 B(  9-C , 11-H ) :   0.9559 B(  9-C , 12-C ) :   1.1045
B( 12-C , 13-H ) :   0.9691 B( 12-C , 14-H ) :   0.9693 B( 12-C , 15-H ) :   0.9717
B( 16-S , 17-C ) :   1.1658 B( 16-S , 20-C ) :   1.1069 B( 17-C , 18-C ) :   1.6080
B( 17-C , 33-H ) :   0.9697 B( 18-C , 19-C ) :   1.2144 B( 18-C , 21-H ) :   1.0020
B( 19-C , 20-C ) :   1.6358 B( 19-C , 22-C ) :   1.0198 B( 22-C , 23-H ) :   0.9498
B( 22-C , 24-H ) :   0.9325 B( 22-C , 25-C ) :   1.0549 B( 25-C , 26-H ) :   0.9486
B( 25-C , 27-H ) :   0.9604 B( 25-C , 28-C ) :   1.0804 B( 28-C , 29-H ) :   0.9740
B( 28-C , 30-H ) :   0.9753 B( 28-C , 31-H ) :   0.9719

Dispersion correction           -0.013813381
FINAL SINGLE POINT ENERGY     -1339.881039132612

DIPOLE MOMENT
-------------
                                X             Y             Z
Electronic contribution:    -31.94134      -8.37626      -6.35428
Nuclear contribution   :     32.61955       8.55891       6.66423
                        -----------------------------------------
Total Dipole Moment    :      0.67821       0.18265       0.30995
                        -----------------------------------------
Magnitude (a.u.)       :      0.76772
Magnitude (Debye)      :      1.95140

Rotational constants in cm-1:     0.016434     0.009416     0.006284
Rotational constants in MHz :   492.678210   282.269646   188.388844

                             ****ORCA TERMINATED NORMALLY****
TOTAL RUN TIME: 0 days 0 hours 0 minutes 21 seconds 450 msec
