                         Program Version 4.2.1 -  RELEASE  -
|  1> ! wB97X-D3 SP def2-SVP
|  2> %pal
|  3> nprocs 24
|  4> end
|  5>
|  6> * xyz 0 1
|  7> S 	 -33.4798 	 -14.0748 	 14.171
|  8> C 	 -34.0834 	 -13.0866 	 15.4676
|  9> C 	 -35.3031 	 -12.4506 	 15.1156
| 10> C 	 -35.5724 	 -12.6182 	 13.7264
| 11> C 	 -34.756 	 -13.5477 	 13.0807
| 12> H 	 -36.4582 	 -12.3436 	 13.1638
| 13> C 	 -35.978 	 -11.5244 	 16.0548
| 14> H 	 -36.0407 	 -10.5242 	 15.6157
| 15> H 	 -35.3755 	 -11.3963 	 16.9417
| 16> C 	 -37.4449 	 -12.0107 	 16.4251
| 17> H 	 -37.9527 	 -11.1999 	 17.065
| 18> H 	 -37.9769 	 -12.2927 	 15.5733
| 19> C 	 -37.3932 	 -13.0747 	 17.5236
| 20> H 	 -38.2728 	 -13.1731 	 18.1408
| 21> H 	 -36.9153 	 -13.9381 	 17.1818
| 22> H 	 -36.6726 	 -12.6213 	 18.2488
| 23> S 	 -35.3608 	 -15.6422 	 11.2903
| 24> C 	 -35.3241 	 -15.2516 	 9.60102
| 25> C 	 -34.8253 	 -14.0126 	 9.38108
| 26> C 	 -34.6106 	 -13.2609 	 10.5808
| 27> C 	 -34.8845 	 -13.9611 	 11.6642
| 28> H 	 -34.5616 	 -13.7272 	 8.35265
| 29> C 	 -34.1869 	 -11.8001 	 10.5135
| 30> H 	 -33.9293 	 -11.4214 	 11.4791
| 31> H 	 -35.02 	 -11.2597 	 10.1722
| 32> C 	 -32.8281 	 -11.5115 	 9.79739
| 33> H 	 -32.76 	 -11.9359 	 8.75744
| 34> H 	 -31.9087 	 -12.1077 	 10.2164
| 35> C 	 -32.5325 	 -10.0106 	 9.76386
| 36> H 	 -31.6552 	 -9.86878 	 9.17946
| 37> H 	 -32.2878 	 -9.50306 	 10.7183
| 38> H 	 -33.348 	 -9.55135 	 9.33634
| 39> H 	 -33.6303 	 -13.0906 	 16.4237
| 40> H 	 -35.5078 	 -15.9189 	 8.77208
| 41> *
| 42>
| 43>                          ****END OF INPUT****

CARTESIAN COORDINATES (ANGSTROEM)
---------------------------------
  S    -33.479800  -14.074800   14.171000
  C    -34.083400  -13.086600   15.467600
  C    -35.303100  -12.450600   15.115600
  C    -35.572400  -12.618200   13.726400
  C    -34.756000  -13.547700   13.080700
  H    -36.458200  -12.343600   13.163800
  C    -35.978000  -11.524400   16.054800
  H    -36.040700  -10.524200   15.615700
  H    -35.375500  -11.396300   16.941700
  C    -37.444900  -12.010700   16.425100
  H    -37.952700  -11.199900   17.065000
  H    -37.976900  -12.292700   15.573300
  C    -37.393200  -13.074700   17.523600
  H    -38.272800  -13.173100   18.140800
  H    -36.915300  -13.938100   17.181800
  H    -36.672600  -12.621300   18.248800
  S    -35.360800  -15.642200   11.290300
  C    -35.324100  -15.251600    9.601020
  C    -34.825300  -14.012600    9.381080
  C    -34.610600  -13.260900   10.580800
  C    -34.884500  -13.961100   11.664200
  H    -34.561600  -13.727200    8.352650
  C    -34.186900  -11.800100   10.513500
  H    -33.929300  -11.421400   11.479100
  H    -35.020000  -11.259700   10.172200
  C    -32.828100  -11.511500    9.797390
  H    -32.760000  -11.935900    8.757440
  H    -31.908700  -12.107700   10.216400
  C    -32.532500  -10.010600    9.763860
  H    -31.655200   -9.868780    9.179460
  H    -32.287800   -9.503060   10.718300
  H    -33.348000   -9.551350    9.336340
  H    -33.630300  -13.090600   16.423700
  H    -35.507800  -15.918900    8.772080

 Total Charge           Charge          ....    0
 Multiplicity           Mult            ....    1
 Number of Electrons    NEL             ....  134
 Basis Dimension        Dim             ....  322

ORBITAL ENERGIES
----------------

  NO   OCC          E(Eh)            E(eV)
   0   2.0000     -88.966998     -2420.9151
   1   2.0000     -88.962473     -2420.7920
   2   2.0000     -10.329707      -281.0856
   3   2.0000     -10.321959      -280.8748
   4   2.0000     -10.314588      -280.6742
   5   2.0000     -10.313158      -280.6353
   6   2.0000     -10.304212      -280.3919
   7   2.0000     -10.298678      -280.2413
   8   2.0000     -10.296940      -280.1940
   9   2.0000     -10.294830      -280.1366
  10   2.0000     -10.291969      -280.0587
  11   2.0000     -10.289752      -279.9984
  12   2.0000     -10.289256      -279.9849
  13   2.0000     -10.287216      -279.9294
  14   2.0000     -10.271064      -279.4899
  15   2.0000     -10.270025      -279.4616
  16   2.0000      -8.081547      -219.9101
  17   2.0000      -8.077330      -219.7953
  18   2.0000      -6.039910      -164.3543
  19   2.0000      -6.035958      -164.2468
  20   2.0000      -6.035928      -164.2459
  21   2.0000      -6.032611      -164.1557
  22   2.0000      -6.032046      -164.1403
  23   2.0000      -6.027749      -164.0234
  24   2.0000      -1.007339       -27.4111
  25   2.0000      -0.985230       -26.8095
  26   2.0000      -0.910532       -24.7768
  27   2.0000      -0.906234       -24.6599
  28   2.0000      -0.868914       -23.6444
  29   2.0000      -0.852123       -23.1874
  30   2.0000      -0.847472       -23.0609
  31   2.0000      -0.816370       -22.2146
  32   2.0000      -0.784901       -21.3582
  33   2.0000      -0.770466       -20.9654
  34   2.0000      -0.705992       -19.2110
  35   2.0000      -0.697839       -18.9892
  36   2.0000      -0.690950       -18.8017
  37   2.0000      -0.656580       -17.8665
  38   2.0000      -0.646767       -17.5994
  39   2.0000      -0.617724       -16.8091
  40   2.0000      -0.601088       -16.3564
  41   2.0000      -0.573120       -15.5954
  42   2.0000      -0.560271       -15.2458
  43   2.0000      -0.549606       -14.9556
  44   2.0000      -0.543544       -14.7906
  45   2.0000      -0.535502       -14.5717
  46   2.0000      -0.517976       -14.0948
  47   2.0000      -0.511925       -13.9302
  48   2.0000      -0.501618       -13.6497
  49   2.0000      -0.496249       -13.5036
  50   2.0000      -0.487518       -13.2661
  51   2.0000      -0.476034       -12.9535
  52   2.0000      -0.471365       -12.8265
  53   2.0000      -0.467086       -12.7100
  54   2.0000      -0.459340       -12.4993
  55   2.0000      -0.450454       -12.2575
  56   2.0000      -0.445101       -12.1118
  57   2.0000      -0.439076       -11.9479
  58   2.0000      -0.434648       -11.8274
  59   2.0000      -0.425048       -11.5661
  60   2.0000      -0.421170       -11.4606
  61   2.0000      -0.406190       -11.0530
  62   2.0000      -0.401226       -10.9179
  63   2.0000      -0.339120        -9.2279
  64   2.0000      -0.334112        -9.0916
  65   2.0000      -0.327155        -8.9023
  66   2.0000      -0.303162        -8.2495
  67   0.0000       0.042888         1.1671
  68   0.0000       0.061834         1.6826
  69   0.0000       0.115191         3.1345
  70   0.0000       0.120863         3.2889
  71   0.0000       0.131866         3.5883

MULLIKEN ATOMIC CHARGES
-----------------------
   0 S :    0.119521
   1 C :   -0.121575
   2 C :   -0.076769
   3 C :    0.038833
   4 C :   -0.179485
   5 H :    0.020279
   6 C :    0.058642
   7 H :    0.039574
   8 H :    0.011060
   9 C :   -0.087424
  10 H :    0.035930
  11 H :    0.031365
  12 C :   -0.024359
  13 H :    0.039246
  14 H :    0.026026
  15 H :    0.003843
  16 S :    0.103950
  17 C :   -0.080395
  18 C :   -0.048132
  19 C :    0.004015
  20 C :   -0.198545
  21 H :    0.024467
  22 C :    0.121623
  23 H :    0.022336
  24 H :    0.029709
  25 C :   -0.159350
  26 H :    0.028021
  27 H :    0.043973
  28 C :    0.002384
  29 H :    0.023481
  30 H :    0.037022
  31 H :    0.014910
  32 H :    0.043613
  33 H :    0.052213
Sum of atomic charges:    0.0000000

LOEWDIN ATOMIC CHARGES
----------------------
   0 S :    0.412002
   1 C :   -0.196832
   2 C :   -0.064205
   3 C :   -0.063157
   4 C :   -0.192101
   5 H :    0.033624
   6 C :   -0.029508
   7 H :    0.034934
   8 H :    0.026164
   9 C :   -0.033700
  10 H :    0.034776
  11 H :    0.011895
  12 C :   -0.063863
  13 H :    0.025142
  14 H :    0.014055
  15 H :    0.026762
  16 S :    0.384209
  17 C :   -0.181070
  18 C :   -0.075202
  19 C :   -0.053191
  20 C :   -0.190069
  21 H :    0.034195
  22 C :   -0.022623
  23 H :    0.031154
  24 H :    0.027810
  25 C :   -0.047855
  26 H :    0.019687
  27 H :    0.035632
  28 C :   -0.059102
  29 H :    0.025303
  30 H :    0.030089
  31 H :    0.014473
  32 H :    0.019450
  33 H :    0.031122

  Mayer bond orders larger than 0.100000
B(  0-S ,  1-C ) :   1.1637 B(  0-S ,  4-C ) :   1.1596 B(  1-C ,  2-C ) :   1.5589
B(  1-C ,  4-C ) :   0.1047 B(  1-C , 32-H ) :   0.9736 B(  2-C ,  3-C ) :   1.2508
B(  2-C ,  6-C ) :   1.0394 B(  3-C ,  4-C ) :   1.5811 B(  3-C ,  5-H ) :   0.9861
B(  4-C , 20-C ) :   1.0111 B(  6-C ,  7-H ) :   0.9410 B(  6-C ,  8-H ) :   0.9452
B(  6-C ,  9-C ) :   1.0563 B(  9-C , 10-H ) :   0.9611 B(  9-C , 11-H ) :   0.9661
B(  9-C , 12-C ) :   1.0585 B( 12-C , 13-H ) :   0.9784 B( 12-C , 14-H ) :   0.9780
B( 12-C , 15-H ) :   0.9712 B( 16-S , 17-C ) :   1.1400 B( 16-S , 20-C ) :   1.1073
B( 17-C , 18-C ) :   1.6690 B( 17-C , 33-H ) :   0.9630 B( 18-C , 19-C ) :   1.1848
B( 18-C , 21-H ) :   0.9869 B( 19-C , 20-C ) :   1.6922 B( 19-C , 22-C ) :   1.0344
B( 22-C , 23-H ) :   0.9301 B( 22-C , 24-H ) :   0.9379 B( 22-C , 25-C ) :   1.0426
B( 25-C , 26-H ) :   0.9567 B( 25-C , 27-H ) :   0.9555 B( 25-C , 28-C ) :   1.0826
B( 28-C , 29-H ) :   0.9707 B( 28-C , 30-H ) :   0.9745 B( 28-C , 31-H ) :   0.9729

Dispersion correction           -0.014076276
FINAL SINGLE POINT ENERGY     -1339.861392922631

DIPOLE MOMENT
-------------
                                X             Y             Z
Electronic contribution:      2.96878     -20.19286      -5.13778
Nuclear contribution   :     -2.99316      20.76299       5.00866
                        -----------------------------------------
Total Dipole Moment    :     -0.02438       0.57014      -0.12912
                        -----------------------------------------
Magnitude (a.u.)       :      0.58508
Magnitude (Debye)      :      1.48716

Rotational constants in cm-1:     0.018967     0.007960     0.006684
Rotational constants in MHz :   568.602780   238.637453   200.386994

                             ****ORCA TERMINATED NORMALLY****
TOTAL RUN TIME: 0 days 0 hours 0 minutes 21 seconds 242 msec
