                         Program Version 4.2.1 -  RELEASE  -
|  1> ! wB97X-D3 SP def2-SVP
|  2> %pal
|  3> nprocs 24
|  4> end
|  5>
|  6> * xyz 0 1
|  7> S 	 -41.3677 	 -48.1068 	 -78.3849
|  8> C 	 -42.3339 	 -49.3083 	 -79.2255
|  9> C 	 -42.2978 	 -49.067 	 -80.6079
| 10> C 	 -41.7381 	 -47.7798 	 -80.893
| 11> C 	 -41.1848 	 -47.1107 	 -79.8124
| 12> H 	 -41.7812 	 -47.316 	 -81.8734
| 13> C 	 -42.9703 	 -50.0011 	 -81.5818
| 14> H 	 -43.5423 	 -49.3348 	 -82.2857
| 15> H 	 -43.7043 	 -50.6251 	 -81.0343
| 16> C 	 -42.0816 	 -50.8986 	 -82.425
| 17> H 	 -41.6548 	 -50.3528 	 -83.2102
| 18> H 	 -41.2037 	 -51.1616 	 -81.8478
| 19> C 	 -42.8121 	 -52.1711 	 -82.9402
| 20> H 	 -42.1047 	 -52.9585 	 -83.2913
| 21> H 	 -43.3784 	 -52.6678 	 -82.203
| 22> H 	 -43.571 	 -51.9657 	 -83.7949
| 23> S 	 -39.0769 	 -45.435 	 -80.3734
| 24> C 	 -39.2286 	 -43.6962 	 -80.1587
| 25> C 	 -40.5198 	 -43.4326 	 -79.6653
| 26> C 	 -41.3531 	 -44.5925 	 -79.4402
| 27> C 	 -40.73 	 -45.7689 	 -79.7747
| 28> H 	 -40.8107 	 -42.3866 	 -79.4117
| 29> C 	 -42.7323 	 -44.4487 	 -78.8578
| 30> H 	 -42.9074 	 -43.4302 	 -78.5219
| 31> H 	 -42.5742 	 -44.8979 	 -77.9122
| 32> C 	 -43.9155 	 -44.8797 	 -79.693
| 33> H 	 -44.4093 	 -45.6243 	 -79.1166
| 34> H 	 -43.6935 	 -45.3166 	 -80.6065
| 35> C 	 -44.9925 	 -43.7491 	 -79.8311
| 36> H 	 -45.8925 	 -44.1523 	 -80.3409
| 37> H 	 -44.473 	 -43.0689 	 -80.4871
| 38> H 	 -45.342 	 -43.2204 	 -79.0088
| 39> H 	 -42.9375 	 -50.1282 	 -78.8772
| 40> H 	 -38.5402 	 -42.9302 	 -80.3386
| 41> *
| 42>
| 43>                          ****END OF INPUT****

CARTESIAN COORDINATES (ANGSTROEM)
---------------------------------
  S    -41.367700  -48.106800  -78.384900
  C    -42.333900  -49.308300  -79.225500
  C    -42.297800  -49.067000  -80.607900
  C    -41.738100  -47.779800  -80.893000
  C    -41.184800  -47.110700  -79.812400
  H    -41.781200  -47.316000  -81.873400
  C    -42.970300  -50.001100  -81.581800
  H    -43.542300  -49.334800  -82.285700
  H    -43.704300  -50.625100  -81.034300
  C    -42.081600  -50.898600  -82.425000
  H    -41.654800  -50.352800  -83.210200
  H    -41.203700  -51.161600  -81.847800
  C    -42.812100  -52.171100  -82.940200
  H    -42.104700  -52.958500  -83.291300
  H    -43.378400  -52.667800  -82.203000
  H    -43.571000  -51.965700  -83.794900
  S    -39.076900  -45.435000  -80.373400
  C    -39.228600  -43.696200  -80.158700
  C    -40.519800  -43.432600  -79.665300
  C    -41.353100  -44.592500  -79.440200
  C    -40.730000  -45.768900  -79.774700
  H    -40.810700  -42.386600  -79.411700
  C    -42.732300  -44.448700  -78.857800
  H    -42.907400  -43.430200  -78.521900
  H    -42.574200  -44.897900  -77.912200
  C    -43.915500  -44.879700  -79.693000
  H    -44.409300  -45.624300  -79.116600
  H    -43.693500  -45.316600  -80.606500
  C    -44.992500  -43.749100  -79.831100
  H    -45.892500  -44.152300  -80.340900
  H    -44.473000  -43.068900  -80.487100
  H    -45.342000  -43.220400  -79.008800
  H    -42.937500  -50.128200  -78.877200
  H    -38.540200  -42.930200  -80.338600

 Total Charge           Charge          ....    0
 Multiplicity           Mult            ....    1
 Number of Electrons    NEL             ....  134
 Basis Dimension        Dim             ....  322

ORBITAL ENERGIES
----------------

  NO   OCC          E(Eh)            E(eV)
   0   2.0000     -88.968672     -2420.9606
   1   2.0000     -88.963283     -2420.8140
   2   2.0000     -10.327148      -281.0160
   3   2.0000     -10.323524      -280.9174
   4   2.0000     -10.318648      -280.7847
   5   2.0000     -10.316912      -280.7374
   6   2.0000     -10.303931      -280.3842
   7   2.0000     -10.302633      -280.3489
   8   2.0000     -10.297810      -280.2176
   9   2.0000     -10.297611      -280.2122
  10   2.0000     -10.296871      -280.1921
  11   2.0000     -10.286895      -279.9206
  12   2.0000     -10.282841      -279.8103
  13   2.0000     -10.282065      -279.7892
  14   2.0000     -10.275648      -279.6146
  15   2.0000     -10.272637      -279.5327
  16   2.0000      -8.082832      -219.9450
  17   2.0000      -8.077200      -219.7918
  18   2.0000      -6.041408      -164.3951
  19   2.0000      -6.037254      -164.2820
  20   2.0000      -6.035830      -164.2433
  21   2.0000      -6.033703      -164.1854
  22   2.0000      -6.031693      -164.1307
  23   2.0000      -6.027990      -164.0300
  24   2.0000      -1.004804       -27.3421
  25   2.0000      -0.979486       -26.6532
  26   2.0000      -0.912835       -24.8395
  27   2.0000      -0.910203       -24.7679
  28   2.0000      -0.871049       -23.7025
  29   2.0000      -0.848069       -23.0771
  30   2.0000      -0.845768       -23.0145
  31   2.0000      -0.811638       -22.0858
  32   2.0000      -0.782309       -21.2877
  33   2.0000      -0.771811       -21.0020
  34   2.0000      -0.718609       -19.5543
  35   2.0000      -0.706871       -19.2349
  36   2.0000      -0.697678       -18.9848
  37   2.0000      -0.663819       -18.0634
  38   2.0000      -0.640065       -17.4170
  39   2.0000      -0.617772       -16.8104
  40   2.0000      -0.593405       -16.1474
  41   2.0000      -0.570641       -15.5279
  42   2.0000      -0.561737       -15.2857
  43   2.0000      -0.558943       -15.2096
  44   2.0000      -0.532966       -14.5028
  45   2.0000      -0.525337       -14.2951
  46   2.0000      -0.520310       -14.1583
  47   2.0000      -0.514499       -14.0002
  48   2.0000      -0.509151       -13.8547
  49   2.0000      -0.503150       -13.6914
  50   2.0000      -0.493642       -13.4327
  51   2.0000      -0.476186       -12.9577
  52   2.0000      -0.468359       -12.7447
  53   2.0000      -0.462360       -12.5815
  54   2.0000      -0.460436       -12.5291
  55   2.0000      -0.451454       -12.2847
  56   2.0000      -0.444840       -12.1047
  57   2.0000      -0.440824       -11.9954
  58   2.0000      -0.438353       -11.9282
  59   2.0000      -0.428061       -11.6481
  60   2.0000      -0.416383       -11.3304
  61   2.0000      -0.412113       -11.2142
  62   2.0000      -0.396038       -10.7767
  63   2.0000      -0.334377        -9.0989
  64   2.0000      -0.326429        -8.8826
  65   2.0000      -0.320092        -8.7101
  66   2.0000      -0.310133        -8.4392
  67   0.0000       0.034099         0.9279
  68   0.0000       0.054786         1.4908
  69   0.0000       0.112755         3.0682
  70   0.0000       0.121791         3.3141
  71   0.0000       0.127335         3.4650

MULLIKEN ATOMIC CHARGES
-----------------------
   0 S :    0.124166
   1 C :   -0.114334
   2 C :   -0.105408
   3 C :    0.058066
   4 C :   -0.174949
   5 H :    0.014772
   6 C :    0.041348
   7 H :    0.032686
   8 H :    0.017190
   9 C :   -0.021554
  10 H :    0.016146
  11 H :    0.026157
  12 C :   -0.077393
  13 H :    0.041609
  14 H :    0.019312
  15 H :    0.043514
  16 S :    0.103812
  17 C :   -0.066569
  18 C :   -0.064006
  19 C :   -0.037257
  20 C :   -0.190440
  21 H :    0.030712
  22 C :    0.118970
  23 H :   -0.003427
  24 H :    0.024710
  25 C :   -0.003429
  26 H :    0.019577
  27 H :    0.019738
  28 C :   -0.070518
  29 H :    0.034536
  30 H :    0.029718
  31 H :    0.027181
  32 H :    0.044791
  33 H :    0.040572
Sum of atomic charges:    0.0000000

LOEWDIN ATOMIC CHARGES
----------------------
   0 S :    0.411105
   1 C :   -0.195679
   2 C :   -0.065771
   3 C :   -0.053118
   4 C :   -0.207992
   5 H :    0.031874
   6 C :   -0.034111
   7 H :    0.035127
   8 H :    0.029326
   9 C :   -0.039556
  10 H :    0.018884
  11 H :    0.026017
  12 C :   -0.070465
  13 H :    0.032431
  14 H :    0.014580
  15 H :    0.035024
  16 S :    0.391202
  17 C :   -0.176612
  18 C :   -0.078325
  19 C :   -0.045595
  20 C :   -0.201584
  21 H :    0.033940
  22 C :   -0.030741
  23 H :    0.029427
  24 H :    0.034509
  25 C :   -0.026524
  26 H :    0.024866
  27 H :    0.017831
  28 C :   -0.059754
  29 H :    0.029824
  30 H :    0.023308
  31 H :    0.014108
  32 H :    0.029864
  33 H :    0.022582

  Mayer bond orders larger than 0.100000
B(  0-S ,  1-C ) :   1.1485 B(  0-S ,  4-C ) :   1.1358 B(  1-C ,  2-C ) :   1.5907
B(  1-C ,  4-C ) :   0.1009 B(  1-C , 32-H ) :   0.9677 B(  2-C ,  3-C ) :   1.2490
B(  2-C ,  6-C ) :   1.0357 B(  3-C ,  4-C ) :   1.5775 B(  3-C ,  5-H ) :   0.9919
B(  4-C , 20-C ) :   1.0445 B(  6-C ,  7-H ) :   0.9382 B(  6-C ,  8-H ) :   0.9481
B(  6-C ,  9-C ) :   1.0515 B(  9-C , 10-H ) :   0.9510 B(  9-C , 11-H ) :   0.9573
B(  9-C , 12-C ) :   1.0774 B( 12-C , 13-H ) :   0.9759 B( 12-C , 14-H ) :   0.9771
B( 12-C , 15-H ) :   0.9758 B( 16-S , 17-C ) :   1.1567 B( 16-S , 20-C ) :   1.1227
B( 17-C , 18-C ) :   1.6039 B( 17-C , 20-C ) :   0.1029 B( 17-C , 33-H ) :   0.9751
B( 18-C , 19-C ) :   1.2472 B( 18-C , 21-H ) :   0.9779 B( 19-C , 20-C ) :   1.6070
B( 19-C , 22-C ) :   1.0306 B( 22-C , 23-H ) :   0.9321 B( 22-C , 24-H ) :   0.9213
B( 22-C , 25-C ) :   1.0315 B( 25-C , 26-H ) :   0.9504 B( 25-C , 27-H ) :   0.9682
B( 25-C , 28-C ) :   1.0823 B( 28-C , 29-H ) :   0.9760 B( 28-C , 30-H ) :   0.9803
B( 28-C , 31-H ) :   0.9792

Dispersion correction           -0.014432085
FINAL SINGLE POINT ENERGY     -1339.857958222172

DIPOLE MOMENT
-------------
                                X             Y             Z
Electronic contribution:     20.85610       6.73933      10.88713
Nuclear contribution   :    -21.42479      -6.70532     -11.07788
                        -----------------------------------------
Total Dipole Moment    :     -0.56869       0.03401      -0.19075
                        -----------------------------------------
Magnitude (a.u.)       :      0.60079
Magnitude (Debye)      :      1.52709

Rotational constants in cm-1:     0.019381     0.007754     0.006679
Rotational constants in MHz :   581.019767   232.445186   200.233144

                             ****ORCA TERMINATED NORMALLY****
TOTAL RUN TIME: 0 days 0 hours 0 minutes 20 seconds 307 msec
