                         Program Version 4.2.1 -  RELEASE  -
|  1> ! wB97X-D3 SP def2-SVP
|  2> %pal
|  3> nprocs 24
|  4> end
|  5>
|  6> * xyz 0 1
|  7> S 	 -62.538 	 9.45546 	 -77.3036
|  8> C 	 -61.4951 	 10.8471 	 -77.2259
|  9> C 	 -62.2606 	 11.9668 	 -77.2474
| 10> C 	 -63.6638 	 11.6989 	 -77.2381
| 11> C 	 -64.0055 	 10.3922 	 -77.2249
| 12> H 	 -64.3743 	 12.4433 	 -77.1808
| 13> C 	 -61.6412 	 13.3891 	 -77.0531
| 14> H 	 -61.6773 	 13.8348 	 -78.0366
| 15> H 	 -60.5651 	 13.2829 	 -76.7576
| 16> C 	 -62.3885 	 14.3391 	 -76.097
| 17> H 	 -62.1483 	 15.4462 	 -76.319
| 18> H 	 -63.4882 	 14.3548 	 -76.3208
| 19> C 	 -61.9394 	 14.0819 	 -74.6201
| 20> H 	 -60.8567 	 14.3486 	 -74.5818
| 21> H 	 -62.4767 	 14.7562 	 -73.9762
| 22> H 	 -62.217 	 13.0652 	 -74.2228
| 23> S 	 -65.501 	 8.20228 	 -77.7261
| 24> C 	 -67.2571 	 8.23822 	 -77.3801
| 25> C 	 -67.5345 	 9.37049 	 -76.6333
| 26> C 	 -66.4133 	 10.134 	 -76.2614
| 27> C 	 -65.2768 	 9.76649 	 -76.94
| 28> H 	 -68.5267 	 9.60602 	 -76.3617
| 29> C 	 -66.5314 	 11.4151 	 -75.551
| 30> H 	 -66.6529 	 12.1859 	 -76.3883
| 31> H 	 -65.5816 	 11.638 	 -75.0274
| 32> C 	 -67.636 	 11.6623 	 -74.4738
| 33> H 	 -67.2919 	 12.6324 	 -74.0967
| 34> H 	 -67.6599 	 10.9354 	 -73.6608
| 35> C 	 -69.0818 	 12.1117 	 -74.9406
| 36> H 	 -69.6509 	 11.222 	 -75.2593
| 37> H 	 -68.9361 	 12.8021 	 -75.7016
| 38> H 	 -69.5801 	 12.591 	 -74.1634
| 39> H 	 -60.468 	 10.8131 	 -77.1492
| 40> H 	 -68.0991 	 7.61845 	 -77.6539
| 41> *
| 42>
| 43>                          ****END OF INPUT****

CARTESIAN COORDINATES (ANGSTROEM)
---------------------------------
  S    -62.538000    9.455460  -77.303600
  C    -61.495100   10.847100  -77.225900
  C    -62.260600   11.966800  -77.247400
  C    -63.663800   11.698900  -77.238100
  C    -64.005500   10.392200  -77.224900
  H    -64.374300   12.443300  -77.180800
  C    -61.641200   13.389100  -77.053100
  H    -61.677300   13.834800  -78.036600
  H    -60.565100   13.282900  -76.757600
  C    -62.388500   14.339100  -76.097000
  H    -62.148300   15.446200  -76.319000
  H    -63.488200   14.354800  -76.320800
  C    -61.939400   14.081900  -74.620100
  H    -60.856700   14.348600  -74.581800
  H    -62.476700   14.756200  -73.976200
  H    -62.217000   13.065200  -74.222800
  S    -65.501000    8.202280  -77.726100
  C    -67.257100    8.238220  -77.380100
  C    -67.534500    9.370490  -76.633300
  C    -66.413300   10.134000  -76.261400
  C    -65.276800    9.766490  -76.940000
  H    -68.526700    9.606020  -76.361700
  C    -66.531400   11.415100  -75.551000
  H    -66.652900   12.185900  -76.388300
  H    -65.581600   11.638000  -75.027400
  C    -67.636000   11.662300  -74.473800
  H    -67.291900   12.632400  -74.096700
  H    -67.659900   10.935400  -73.660800
  C    -69.081800   12.111700  -74.940600
  H    -69.650900   11.222000  -75.259300
  H    -68.936100   12.802100  -75.701600
  H    -69.580100   12.591000  -74.163400
  H    -60.468000   10.813100  -77.149200
  H    -68.099100    7.618450  -77.653900

 Total Charge           Charge          ....    0
 Multiplicity           Mult            ....    1
 Number of Electrons    NEL             ....  134
 Basis Dimension        Dim             ....  322

ORBITAL ENERGIES
----------------

  NO   OCC          E(Eh)            E(eV)
   0   2.0000     -88.964740     -2420.8536
   1   2.0000     -88.959515     -2420.7115
   2   2.0000     -10.327631      -281.0291
   3   2.0000     -10.326143      -280.9886
   4   2.0000     -10.319837      -280.8170
   5   2.0000     -10.307244      -280.4744
   6   2.0000     -10.301729      -280.3243
   7   2.0000     -10.300041      -280.2784
   8   2.0000     -10.300014      -280.2776
   9   2.0000     -10.298175      -280.2276
  10   2.0000     -10.297835      -280.2183
  11   2.0000     -10.294049      -280.1153
  12   2.0000     -10.288766      -279.9715
  13   2.0000     -10.286644      -279.9138
  14   2.0000     -10.286522      -279.9105
  15   2.0000     -10.276449      -279.6364
  16   2.0000      -8.078652      -219.8313
  17   2.0000      -8.075150      -219.7360
  18   2.0000      -6.037403      -164.2861
  19   2.0000      -6.033778      -164.1874
  20   2.0000      -6.033300      -164.1744
  21   2.0000      -6.029522      -164.0716
  22   2.0000      -6.029163      -164.0619
  23   2.0000      -6.025715      -163.9680
  24   2.0000      -1.012938       -27.5634
  25   2.0000      -0.987422       -26.8691
  26   2.0000      -0.908389       -24.7185
  27   2.0000      -0.904542       -24.6138
  28   2.0000      -0.874456       -23.7952
  29   2.0000      -0.854711       -23.2579
  30   2.0000      -0.840477       -22.8706
  31   2.0000      -0.822558       -22.3830
  32   2.0000      -0.784535       -21.3483
  33   2.0000      -0.774951       -21.0875
  34   2.0000      -0.715539       -19.4708
  35   2.0000      -0.698483       -19.0067
  36   2.0000      -0.692437       -18.8422
  37   2.0000      -0.662336       -18.0231
  38   2.0000      -0.648800       -17.6547
  39   2.0000      -0.629342       -17.1253
  40   2.0000      -0.594914       -16.1884
  41   2.0000      -0.566547       -15.4165
  42   2.0000      -0.555526       -15.1166
  43   2.0000      -0.553031       -15.0487
  44   2.0000      -0.538205       -14.6453
  45   2.0000      -0.535199       -14.5635
  46   2.0000      -0.527201       -14.3459
  47   2.0000      -0.517536       -14.0829
  48   2.0000      -0.512398       -13.9431
  49   2.0000      -0.504553       -13.7296
  50   2.0000      -0.491034       -13.3617
  51   2.0000      -0.481309       -13.0971
  52   2.0000      -0.480492       -13.0749
  53   2.0000      -0.463675       -12.6172
  54   2.0000      -0.463126       -12.6023
  55   2.0000      -0.443919       -12.0797
  56   2.0000      -0.442184       -12.0324
  57   2.0000      -0.440198       -11.9784
  58   2.0000      -0.433577       -11.7982
  59   2.0000      -0.429998       -11.7008
  60   2.0000      -0.421390       -11.4666
  61   2.0000      -0.407999       -11.1022
  62   2.0000      -0.402380       -10.9493
  63   2.0000      -0.357609        -9.7310
  64   2.0000      -0.332400        -9.0451
  65   2.0000      -0.326231        -8.8772
  66   2.0000      -0.286415        -7.7937
  67   0.0000       0.023021         0.6264
  68   0.0000       0.077136         2.0990
  69   0.0000       0.098794         2.6883
  70   0.0000       0.120401         3.2763
  71   0.0000       0.131266         3.5719

MULLIKEN ATOMIC CHARGES
-----------------------
   0 S :    0.087682
   1 C :   -0.098970
   2 C :   -0.069426
   3 C :    0.017282
   4 C :   -0.077190
   5 H :   -0.040958
   6 C :    0.073175
   7 H :    0.036148
   8 H :    0.027136
   9 C :   -0.129250
  10 H :    0.035595
  11 H :    0.034945
  12 C :   -0.056533
  13 H :    0.045416
  14 H :    0.026995
  15 H :    0.054101
  16 S :    0.092252
  17 C :   -0.062873
  18 C :   -0.042337
  19 C :    0.011173
  20 C :   -0.135202
  21 H :   -0.009513
  22 C :   -0.042452
  23 H :    0.058148
  24 H :    0.047528
  25 C :   -0.086491
  26 H :    0.024378
  27 H :    0.042304
  28 C :   -0.013187
  29 H :    0.040331
  30 H :    0.013881
  31 H :    0.025361
  32 H :    0.018980
  33 H :    0.051569
Sum of atomic charges:    0.0000000

LOEWDIN ATOMIC CHARGES
----------------------
   0 S :    0.399436
   1 C :   -0.180406
   2 C :   -0.061545
   3 C :   -0.062632
   4 C :   -0.186381
   5 H :    0.012268
   6 C :   -0.031291
   7 H :    0.031335
   8 H :    0.032527
   9 C :   -0.054373
  10 H :    0.032040
  11 H :    0.023829
  12 C :   -0.070138
  13 H :    0.032618
  14 H :    0.020614
  15 H :    0.033298
  16 S :    0.383539
  17 C :   -0.174522
  18 C :   -0.063768
  19 C :   -0.067364
  20 C :   -0.181290
  21 H :    0.022184
  22 C :   -0.042299
  23 H :    0.042359
  24 H :    0.038629
  25 C :   -0.040073
  26 H :    0.030292
  27 H :    0.024461
  28 C :   -0.052776
  29 H :    0.022920
  30 H :    0.016032
  31 H :    0.019843
  32 H :    0.015210
  33 H :    0.035424

  Mayer bond orders larger than 0.100000
B(  0-S ,  1-C ) :   1.1312 B(  0-S ,  4-C ) :   1.1403 B(  1-C ,  2-C ) :   1.6218
B(  1-C , 32-H ) :   0.9841 B(  2-C ,  3-C ) :   1.2280 B(  2-C ,  6-C ) :   1.0053
B(  3-C ,  4-C ) :   1.5849 B(  3-C ,  5-H ) :   1.0156 B(  4-C , 20-C ) :   1.0515
B(  6-C ,  7-H ) :   0.9314 B(  6-C ,  8-H ) :   0.9524 B(  6-C ,  9-C ) :   1.0732
B(  9-C , 10-H ) :   0.9549 B(  9-C , 11-H ) :   0.9532 B(  9-C , 12-C ) :   1.0631
B( 12-C , 13-H ) :   0.9737 B( 12-C , 14-H ) :   0.9751 B( 12-C , 15-H ) :   0.9778
B( 16-S , 17-C ) :   1.1311 B( 16-S , 20-C ) :   1.1200 B( 17-C , 18-C ) :   1.6351
B( 17-C , 20-C ) :   0.1042 B( 17-C , 33-H ) :   0.9663 B( 18-C , 19-C ) :   1.2276
B( 18-C , 21-H ) :   0.9908 B( 19-C , 20-C ) :   1.5823 B( 19-C , 22-C ) :   1.0602
B( 22-C , 23-H ) :   0.9256 B( 22-C , 24-H ) :   0.9345 B( 22-C , 25-C ) :   1.0644
B( 25-C , 26-H ) :   0.9554 B( 25-C , 27-H ) :   0.9620 B( 25-C , 28-C ) :   1.0687
B( 28-C , 29-H ) :   0.9774 B( 28-C , 30-H ) :   0.9731 B( 28-C , 31-H ) :   0.9732

Dispersion correction           -0.014225251
FINAL SINGLE POINT ENERGY     -1339.856137168154

DIPOLE MOMENT
-------------
                                X             Y             Z
Electronic contribution:      6.53505     -26.48811     -14.66744
Nuclear contribution   :     -6.82090      27.37434      15.03584
                        -----------------------------------------
Total Dipole Moment    :     -0.28585       0.88623       0.36839
                        -----------------------------------------
Magnitude (a.u.)       :      1.00141
Magnitude (Debye)      :      2.54539

Rotational constants in cm-1:     0.017056     0.009769     0.006534
Rotational constants in MHz :   511.312721   292.863889   195.889207

                             ****ORCA TERMINATED NORMALLY****
TOTAL RUN TIME: 0 days 0 hours 0 minutes 22 seconds 65 msec
