                         Program Version 4.2.1 -  RELEASE  -
|  1> ! wB97X-D3 SP def2-SVP
|  2> %pal
|  3> nprocs 24
|  4> end
|  5>
|  6> * xyz 0 1
|  7> S 	 36.0441 	 -32.7334 	 -131.543
|  8> C 	 37.6911 	 -32.6362 	 -130.942
|  9> C 	 38.2595 	 -33.8673 	 -130.748
| 10> C 	 37.3633 	 -34.9204 	 -131.025
| 11> C 	 36.1154 	 -34.4387 	 -131.403
| 12> H 	 37.4463 	 -35.9761 	 -130.979
| 13> C 	 39.7055 	 -34.0734 	 -130.307
| 14> H 	 39.8016 	 -35.0314 	 -129.85
| 15> H 	 40.0657 	 -33.3192 	 -129.574
| 16> C 	 40.7151 	 -34.1783 	 -131.531
| 17> H 	 41.6546 	 -34.6678 	 -131.226
| 18> H 	 40.2964 	 -34.9884 	 -132.188
| 19> C 	 41.1674 	 -32.8699 	 -132.162
| 20> H 	 42.1373 	 -32.9829 	 -132.675
| 21> H 	 40.5848 	 -32.4797 	 -133.003
| 22> H 	 41.3641 	 -32.05 	 -131.492
| 23> S 	 33.942 	 -34.8995 	 -133.081
| 24> C 	 33.0614 	 -36.3713 	 -132.937
| 25> C 	 33.5723 	 -37.2042 	 -131.902
| 26> C 	 34.6121 	 -36.5307 	 -131.19
| 27> C 	 34.9914 	 -35.3232 	 -131.687
| 28> H 	 33.1898 	 -38.1752 	 -131.767
| 29> C 	 35.2976 	 -37.3438 	 -130.177
| 30> H 	 36.2383 	 -37.6373 	 -130.554
| 31> H 	 34.7666 	 -38.262 	 -129.96
| 32> C 	 35.3024 	 -36.689 	 -128.807
| 33> H 	 34.2983 	 -36.3574 	 -128.5
| 34> H 	 35.9218 	 -35.8382 	 -128.883
| 35> C 	 35.9536 	 -37.6824 	 -127.79
| 36> H 	 36.1672 	 -37.0898 	 -126.882
| 37> H 	 36.9564 	 -38.0168 	 -128.172
| 38> H 	 35.3261 	 -38.5019 	 -127.463
| 39> H 	 38.1774 	 -31.6715 	 -130.8
| 40> H 	 32.3093 	 -36.6888 	 -133.642
| 41> *
| 42>
| 43>                          ****END OF INPUT****

CARTESIAN COORDINATES (ANGSTROEM)
---------------------------------
  S     36.044100  -32.733400  -131.543000
  C     37.691100  -32.636200  -130.942000
  C     38.259500  -33.867300  -130.748000
  C     37.363300  -34.920400  -131.025000
  C     36.115400  -34.438700  -131.403000
  H     37.446300  -35.976100  -130.979000
  C     39.705500  -34.073400  -130.307000
  H     39.801600  -35.031400  -129.850000
  H     40.065700  -33.319200  -129.574000
  C     40.715100  -34.178300  -131.531000
  H     41.654600  -34.667800  -131.226000
  H     40.296400  -34.988400  -132.188000
  C     41.167400  -32.869900  -132.162000
  H     42.137300  -32.982900  -132.675000
  H     40.584800  -32.479700  -133.003000
  H     41.364100  -32.050000  -131.492000
  S     33.942000  -34.899500  -133.081000
  C     33.061400  -36.371300  -132.937000
  C     33.572300  -37.204200  -131.902000
  C     34.612100  -36.530700  -131.190000
  C     34.991400  -35.323200  -131.687000
  H     33.189800  -38.175200  -131.767000
  C     35.297600  -37.343800  -130.177000
  H     36.238300  -37.637300  -130.554000
  H     34.766600  -38.262000  -129.960000
  C     35.302400  -36.689000  -128.807000
  H     34.298300  -36.357400  -128.500000
  H     35.921800  -35.838200  -128.883000
  C     35.953600  -37.682400  -127.790000
  H     36.167200  -37.089800  -126.882000
  H     36.956400  -38.016800  -128.172000
  H     35.326100  -38.501900  -127.463000
  H     38.177400  -31.671500  -130.800000
  H     32.309300  -36.688800  -133.642000

 Total Charge           Charge          ....    0
 Multiplicity           Mult            ....    1
 Number of Electrons    NEL             ....  134
 Basis Dimension        Dim             ....  322

ORBITAL ENERGIES
----------------

  NO   OCC          E(Eh)            E(eV)
   0   2.0000     -88.969179     -2420.9744
   1   2.0000     -88.964650     -2420.8512
   2   2.0000     -10.326987      -281.0116
   3   2.0000     -10.324908      -280.9550
   4   2.0000     -10.318462      -280.7796
   5   2.0000     -10.311667      -280.5947
   6   2.0000     -10.301908      -280.3292
   7   2.0000     -10.296083      -280.1707
   8   2.0000     -10.295611      -280.1578
   9   2.0000     -10.294894      -280.1383
  10   2.0000     -10.292503      -280.0732
  11   2.0000     -10.290187      -280.0102
  12   2.0000     -10.280959      -279.7591
  13   2.0000     -10.279356      -279.7155
  14   2.0000     -10.278938      -279.7041
  15   2.0000     -10.276878      -279.6481
  16   2.0000      -8.084426      -219.9884
  17   2.0000      -8.079312      -219.8493
  18   2.0000      -6.042754      -164.4317
  19   2.0000      -6.038989      -164.3293
  20   2.0000      -6.037728      -164.2949
  21   2.0000      -6.035240      -164.2272
  22   2.0000      -6.033835      -164.1890
  23   2.0000      -6.030193      -164.0899
  24   2.0000      -1.010579       -27.4992
  25   2.0000      -0.985693       -26.8221
  26   2.0000      -0.915878       -24.9223
  27   2.0000      -0.905465       -24.6390
  28   2.0000      -0.865911       -23.5626
  29   2.0000      -0.854587       -23.2545
  30   2.0000      -0.847535       -23.0626
  31   2.0000      -0.809834       -22.0367
  32   2.0000      -0.784306       -21.3420
  33   2.0000      -0.773615       -21.0511
  34   2.0000      -0.707604       -19.2549
  35   2.0000      -0.700664       -19.0660
  36   2.0000      -0.689628       -18.7657
  37   2.0000      -0.670881       -18.2556
  38   2.0000      -0.645502       -17.5650
  39   2.0000      -0.618338       -16.8258
  40   2.0000      -0.596572       -16.2336
  41   2.0000      -0.573621       -15.6090
  42   2.0000      -0.567048       -15.4302
  43   2.0000      -0.546047       -14.8587
  44   2.0000      -0.538355       -14.6494
  45   2.0000      -0.523135       -14.2352
  46   2.0000      -0.517344       -14.0777
  47   2.0000      -0.509296       -13.8586
  48   2.0000      -0.498694       -13.5702
  49   2.0000      -0.496616       -13.5136
  50   2.0000      -0.495121       -13.4729
  51   2.0000      -0.489971       -13.3328
  52   2.0000      -0.475304       -12.9337
  53   2.0000      -0.461822       -12.5668
  54   2.0000      -0.458142       -12.4667
  55   2.0000      -0.452882       -12.3236
  56   2.0000      -0.445653       -12.1268
  57   2.0000      -0.441374       -12.0104
  58   2.0000      -0.436927       -11.8894
  59   2.0000      -0.426686       -11.6107
  60   2.0000      -0.417252       -11.3540
  61   2.0000      -0.408934       -11.1277
  62   2.0000      -0.402901       -10.9635
  63   2.0000      -0.350645        -9.5415
  64   2.0000      -0.335923        -9.1409
  65   2.0000      -0.330540        -8.9944
  66   2.0000      -0.284157        -7.7323
  67   0.0000       0.026436         0.7194
  68   0.0000       0.074367         2.0236
  69   0.0000       0.103122         2.8061
  70   0.0000       0.118130         3.2145
  71   0.0000       0.138872         3.7789

MULLIKEN ATOMIC CHARGES
-----------------------
   0 S :    0.121099
   1 C :   -0.133999
   2 C :   -0.030762
   3 C :    0.013326
   4 C :   -0.138725
   5 H :   -0.017074
   6 C :    0.076807
   7 H :    0.010422
   8 H :    0.036189
   9 C :   -0.092908
  10 H :    0.028229
  11 H :    0.035648
  12 C :   -0.041613
  13 H :    0.022892
  14 H :    0.036356
  15 H :    0.024089
  16 S :    0.094704
  17 C :   -0.089547
  18 C :   -0.030609
  19 C :   -0.036552
  20 C :   -0.120980
  21 H :    0.006501
  22 C :    0.050294
  23 H :    0.026655
  24 H :    0.003866
  25 C :   -0.070039
  26 H :    0.035255
  27 H :    0.027843
  28 C :   -0.056227
  29 H :    0.031206
  30 H :    0.030077
  31 H :    0.040702
  32 H :    0.047952
  33 H :    0.058924
Sum of atomic charges:    0.0000000

LOEWDIN ATOMIC CHARGES
----------------------
   0 S :    0.419821
   1 C :   -0.194756
   2 C :   -0.060846
   3 C :   -0.063245
   4 C :   -0.197376
   5 H :    0.025554
   6 C :   -0.026334
   7 H :    0.025798
   8 H :    0.032799
   9 C :   -0.045795
  10 H :    0.025322
  11 H :    0.031910
  12 C :   -0.078293
  13 H :    0.030752
  14 H :    0.027637
  15 H :    0.023427
  16 S :    0.396429
  17 C :   -0.186862
  18 C :   -0.063967
  19 C :   -0.059095
  20 C :   -0.185045
  21 H :    0.024636
  22 C :   -0.031818
  23 H :    0.021219
  24 H :    0.028849
  25 C :   -0.030841
  26 H :    0.029308
  27 H :    0.015863
  28 C :   -0.068925
  29 H :    0.028064
  30 H :    0.028433
  31 H :    0.022157
  32 H :    0.028010
  33 H :    0.027209

  Mayer bond orders larger than 0.100000
B(  0-S ,  1-C ) :   1.1305 B(  0-S ,  4-C ) :   1.1702 B(  1-C ,  2-C ) :   1.6074
B(  1-C , 32-H ) :   0.9705 B(  2-C ,  3-C ) :   1.2268 B(  2-C ,  6-C ) :   1.0259
B(  3-C ,  4-C ) :   1.5501 B(  3-C ,  5-H ) :   1.0038 B(  4-C , 20-C ) :   1.0525
B(  6-C ,  7-H ) :   0.9346 B(  6-C ,  8-H ) :   0.9491 B(  6-C ,  9-C ) :   1.0726
B(  9-C , 10-H ) :   0.9617 B(  9-C , 11-H ) :   0.9545 B(  9-C , 12-C ) :   1.0665
B( 12-C , 13-H ) :   0.9731 B( 12-C , 14-H ) :   0.9754 B( 12-C , 15-H ) :   0.9743
B( 16-S , 17-C ) :   1.1820 B( 16-S , 20-C ) :   1.1116 B( 17-C , 18-C ) :   1.5763
B( 17-C , 33-H ) :   0.9673 B( 18-C , 19-C ) :   1.2447 B( 18-C , 21-H ) :   1.0031
B( 19-C , 20-C ) :   1.6038 B( 19-C , 22-C ) :   1.0533 B( 22-C , 23-H ) :   0.9304
B( 22-C , 24-H ) :   0.9292 B( 22-C , 25-C ) :   1.0586 B( 25-C , 26-H ) :   0.9541
B( 25-C , 27-H ) :   0.9532 B( 25-C , 28-C ) :   1.0871 B( 28-C , 29-H ) :   0.9745
B( 28-C , 30-H ) :   0.9710 B( 28-C , 31-H ) :   0.9763

Dispersion correction           -0.014577846
FINAL SINGLE POINT ENERGY     -1339.876595334586

DIPOLE MOMENT
-------------
                                X             Y             Z
Electronic contribution:    -21.00674       9.86416     -13.44189
Nuclear contribution   :     21.46355     -10.30904      13.64978
                        -----------------------------------------
Total Dipole Moment    :      0.45681      -0.44488       0.20789
                        -----------------------------------------
Magnitude (a.u.)       :      0.67069
Magnitude (Debye)      :      1.70475

Rotational constants in cm-1:     0.018785     0.008935     0.006957
Rotational constants in MHz :   563.150354   267.861204   208.572029

                             ****ORCA TERMINATED NORMALLY****
TOTAL RUN TIME: 0 days 0 hours 0 minutes 21 seconds 21 msec
